Title t= 388.00000 step= 194000
44434
    1GLY      N    1   4.606   2.927   5.284
    1GLY    HT1    2   4.663   2.873   5.352
    1GLY    HT2    3   4.563   3.000   5.345
    1GLY    HT3    4   4.671   2.973   5.217
    1GLY     CA    5   4.504   2.847   5.217
    1GLY    HA1    6   4.415   2.840   5.278
    1GLY    HA2    7   4.548   2.750   5.197
    1GLY      C    8   4.460   2.916   5.085
    1GLY      O    9   4.499   3.032   5.066
    2PRO      N   10   4.385   2.862   4.989
    2PRO     CD   11   4.337   2.724   4.997
    2PRO    HD1   12   4.259   2.707   5.073
    2PRO    HD2   13   4.419   2.654   5.024
    2PRO     CA   14   4.342   2.920   4.859
    2PRO     HA   15   4.433   2.918   4.801
    2PRO     CB   16   4.229   2.824   4.805
    2PRO    HB1   17   4.213   2.825   4.695
    2PRO    HB2   18   4.132   2.857   4.849
    2PRO     CG   19   4.286   2.688   4.857
    2PRO    HG1   20   4.214   2.603   4.850
    2PRO    HG2   21   4.374   2.651   4.799
    2PRO      C   22   4.282   3.064   4.863
    2PRO      O   23   4.190   3.100   4.936
    3GLY      N   24   4.344   3.154   4.781
    3GLY     HN   25   4.425   3.138   4.724
    3GLY     CA   26   4.309   3.293   4.763
    3GLY    HA1   27   4.341   3.351   4.848
    3GLY    HA2   28   4.201   3.284   4.759
    3GLY      C   29   4.351   3.347   4.634
    3GLY      O   30   4.418   3.280   4.558
    4ASP      N   31   4.314   3.470   4.595
    4ASP     HN   32   4.255   3.526   4.653
    4ASP     CA   33   4.334   3.526   4.462
    4ASP     HA   34   4.367   3.454   4.389
    4ASP     CB   35   4.200   3.584   4.406
    4ASP    HB1   36   4.206   3.656   4.321
    4ASP    HB2   37   4.138   3.629   4.487
    4ASP     CG   38   4.102   3.473   4.354
    4ASP    OD1   39   4.142   3.357   4.334
    4ASP    OD2   40   3.984   3.510   4.332
    4ASP      C   41   4.433   3.641   4.468
    4ASP      O   42   4.419   3.719   4.565
    5PRO      N   43   4.536   3.660   4.383
    5PRO     CD   44   4.563   3.581   4.263
    5PRO    HD1   45   4.468   3.583   4.206
    5PRO    HD2   46   4.582   3.474   4.288
    5PRO     CA   47   4.604   3.788   4.366
    5PRO     HA   48   4.680   3.794   4.443
    5PRO     CB   49   4.667   3.791   4.225
    5PRO    HB1   50   4.765   3.843   4.224
    5PRO    HB2   51   4.602   3.844   4.153
    5PRO     CG   52   4.683   3.648   4.199
    5PRO    HG1   53   4.684   3.640   4.088
    5PRO    HG2   54   4.774   3.606   4.247
    5PRO      C   55   4.515   3.917   4.383
    5PRO      O   56   4.397   3.921   4.339
    6GLY      N   57   4.571   4.026   4.434
    6GLY     HN   58   4.665   4.017   4.465
    6GLY     CA   59   4.515   4.154   4.429
    6GLY    HA1   60   4.561   4.217   4.504
    6GLY    HA2   61   4.408   4.147   4.444
    6GLY      C   62   4.539   4.226   4.301
    6GLY      O   63   4.564   4.164   4.197
    7SER      N   64   4.529   4.358   4.299
    7SER     HN   65   4.503   4.408   4.382
    7SER     CA   66   4.547   4.441   4.183
    7SER     HA   67   4.500   4.387   4.102
    7SER     CB   68   4.475   4.585   4.197
    7SER    HB1   69   4.505   4.660   4.120
    7SER    HB2   70   4.510   4.627   4.294
    7SER     OG   71   4.338   4.565   4.198
    7SER    HG1   72   4.314   4.618   4.275
    7SER      C   73   4.697   4.472   4.143
    7SER      O   74   4.787   4.467   4.224
    8GLY      N   75   4.717   4.494   4.014
    8GLY     HN   76   4.637   4.492   3.954
    8GLY     CA   77   4.844   4.552   3.964
    8GLY    HA1   78   4.870   4.513   3.867
    8GLY    HA2   79   4.927   4.538   4.030
    8GLY      C   80   4.832   4.701   3.933
    8GLY      O   81   4.723   4.752   3.903
    9ASN      N   82   4.951   4.765   3.930
    9ASN     HN   83   5.032   4.717   3.963
    9ASN     CA   84   4.974   4.904   3.893
    9ASN     HA   85   4.883   4.953   3.864
    9ASN     CB   86   5.019   4.980   4.017
    9ASN    HB1   87   5.119   4.939   4.042
    9ASN    HB2   88   4.949   4.958   4.100
    9ASN     CG   89   5.019   5.128   3.991
    9ASN    OD1   90   4.909   5.180   3.993
    9ASN    ND2   91   5.136   5.196   3.974
    9ASN   HD21   92   5.145   5.295   3.982
    9ASN   HD22   93   5.214   5.134   3.964
    9ASN      C   94   5.074   4.905   3.779
    9ASN      O   95   5.198   4.909   3.801
   10PRO      N   96   5.023   4.907   3.655
   10PRO     CD   97   4.888   4.864   3.612
   10PRO    HD1   98   4.825   4.955   3.611
   10PRO    HD2   99   4.852   4.777   3.672
   10PRO     CA  100   5.110   4.916   3.533
   10PRO     HA  101   5.170   4.826   3.526
   10PRO     CB  102   5.018   4.901   3.416
   10PRO    HB1  103   5.059   4.868   3.318
   10PRO    HB2  104   4.972   4.999   3.394
   10PRO     CG  105   4.906   4.811   3.470
   10PRO    HG1  106   4.819   4.837   3.406
   10PRO    HG2  107   4.930   4.703   3.466
   10PRO      C  108   5.199   5.037   3.529
   10PRO      O  109   5.161   5.155   3.550
   11GLY      N  110   5.327   5.016   3.496
   11GLY     HN  111   5.353   4.924   3.468
   11GLY     CA  112   5.431   5.122   3.488
   11GLY    HA1  113   5.522   5.063   3.483
   11GLY    HA2  114   5.433   5.183   3.576
   11GLY      C  115   5.436   5.219   3.371
   11GLY      O  116   5.385   5.194   3.262
   12SER      N  117   5.503   5.334   3.384
   12SER     HN  118   5.523   5.357   3.479
   12SER     CA  119   5.525   5.424   3.275
   12SER     HA  120   5.431   5.470   3.249
   12SER     CB  121   5.616   5.550   3.311
   12SER    HB1  122   5.626   5.610   3.218
   12SER    HB2  123   5.718   5.513   3.335
   12SER     OG  124   5.556   5.641   3.408
   12SER    HG1  125   5.581   5.606   3.494
   12SER      C  126   5.591   5.361   3.150
   12SER      O  127   5.671   5.269   3.160
   13GLY      N  128   5.562   5.414   3.026
   13GLY     HN  129   5.499   5.491   3.017
   13GLY     CA  130   5.616   5.369   2.894
   13GLY    HA1  131   5.569   5.433   2.821
   13GLY    HA2  132   5.586   5.265   2.889
   13GLY      C  133   5.768   5.358   2.874
   13GLY      O  134   5.860   5.397   2.946
   14ASP      N  135   5.804   5.290   2.764
   14ASP     HN  136   5.730   5.251   2.711
   14ASP     CA  137   5.941   5.248   2.729
   14ASP     HA  138   5.994   5.211   2.815
   14ASP     CB  139   5.929   5.150   2.617
   14ASP    HB1  140   6.033   5.128   2.584
   14ASP    HB2  141   5.866   5.183   2.532
   14ASP     CG  142   5.862   5.016   2.659
   14ASP    OD1  143   5.850   4.929   2.573
   14ASP    OD2  144   5.834   4.987   2.780
   14ASP      C  145   6.006   5.377   2.675
   14ASP      O  146   5.934   5.481   2.651
   15PRO      N  147   6.141   5.381   2.663
   15PRO     CD  148   6.234   5.296   2.741
   15PRO    HD1  149   6.267   5.205   2.687
   15PRO    HD2  150   6.192   5.270   2.841
   15PRO     CA  151   6.215   5.493   2.610
   15PRO     HA  152   6.171   5.585   2.647
   15PRO     CB  153   6.357   5.469   2.651
   15PRO    HB1  154   6.427   5.554   2.665
   15PRO    HB2  155   6.410   5.411   2.572
   15PRO     CG  156   6.355   5.381   2.781
   15PRO    HG1  157   6.455   5.333   2.790
   15PRO    HG2  158   6.328   5.446   2.867
   15PRO      C  159   6.207   5.498   2.459
   15PRO    OT1  160   6.212   5.394   2.387
   15PRO    OT2  161   6.219   5.605   2.395
   16LIT    LIT  162   3.945   3.360   4.243
   17LIT    LIT  163   5.863   3.613   3.368
   18LIT    LIT  164   6.324   1.560   0.650
   19LIT    LIT  165   2.658   4.813   4.611
   20LIT    LIT  166   5.938   3.471   4.019
   21LIT    LIT  167   3.053   6.302   0.102
   22LIT    LIT  168   1.941   2.229   6.601
   23LIT    LIT  169   5.746   0.980   1.763
   24LIT    LIT  170   6.415   6.588   3.932
   25LIT    LIT  171   8.201   0.852   4.034
   26LIT    LIT  172   2.349   3.410   4.884
   27LIT    LIT  173   7.772   7.236   4.805
   28LIT    LIT  174   6.942   2.962   2.587
   29LIT    LIT  175   7.796   1.689   2.264
   30LIT    LIT  176   0.063   0.887   5.794
   31LIT    LIT  177   1.456   0.003   1.075
   32LIT    LIT  178   1.613   2.902   5.529
   33LIT    LIT  179   1.661   7.312   1.409
   34LIT    LIT  180   8.087   6.619   1.094
   35LIT    LIT  181   2.171   0.664   6.770
   36LIT    LIT  182   4.134   6.022   2.033
   37LIT    LIT  183   1.389   4.662   3.559
   38LIT    LIT  184   5.809   4.084   6.278
   39LIT    LIT  185   2.322   0.546   5.637
   40LIT    LIT  186   6.415   5.441   3.276
   41LIT    LIT  187   6.281   5.511   2.240
   42LIT    LIT  188   3.892   1.449   6.466
   43LIT    LIT  189   0.397   0.793   1.922
   44LIT    LIT  190   6.636   5.762   1.998
   45LIT    LIT  191   0.857   2.200   1.620
   46LIT    LIT  192   5.907   7.323   6.777
   47LIT    LIT  193   3.422   1.389   0.591
   48LIT    LIT  194   7.016   5.537   4.886
   49LIT    LIT  195   5.845   4.802   2.736
   50LIT    LIT  196   6.149   2.403   2.344
   51LIT    LIT  197   0.002   7.818   0.488
   52LIT    LIT  198   8.246   2.074   4.820
   53LIT    LIT  199   2.757   4.903   3.537
   54LIT    LIT  200   8.174   6.637   3.251
   55LIT    LIT  201   1.179   0.156   4.984
   56LIT    LIT  202   3.320   0.429   1.502
   57LIT    LIT  203   6.268   0.588   2.105
   58LIT    LIT  204   7.765   4.966   0.313
   59LIT    LIT  205   3.705   5.370   2.134
   60CLA    CLA  206   1.674   0.488   5.390
   61CLA    CLA  207   6.445   4.525   5.329
   62CLA    CLA  208   6.122   5.437   1.844
   63CLA    CLA  209   0.713   3.326   1.584
   64CLA    CLA  210   6.981   7.526   5.528
   65CLA    CLA  211   5.022   0.580   2.167
   66CLA    CLA  212   3.486   1.696   4.916
   67CLA    CLA  213   1.980   6.758   1.676
   68CLA    CLA  214   7.671   1.428   3.758
   69CLA    CLA  215   8.044   2.607   3.912
   70CLA    CLA  216   6.016   5.392   0.550
   71CLA    CLA  217   4.991   5.443   0.021
   72CLA    CLA  218   6.201   2.542   3.394
   73CLA    CLA  219   3.121   3.534   4.968
   74CLA    CLA  220   4.106   5.598   2.204
   75CLA    CLA  221   2.908   7.548   4.987
   76CLA    CLA  222   2.169   4.849   4.119
   77CLA    CLA  223   2.995   1.864   5.052
   78CLA    CLA  224   3.208   6.728   6.135
   79CLA    CLA  225   1.343   0.302   1.886
   80CLA    CLA  226   7.084   5.157   6.736
   81CLA    CLA  227   6.403   0.485   1.942
   82CLA    CLA  228   0.031   0.632   5.980
   83CLA    CLA  229   8.266   3.562   4.513
   84CLA    CLA  230   6.082   1.821   5.525
   85CLA    CLA  231   3.273   7.748   0.639
   86CLA    CLA  232   6.084   3.266   2.221
   87CLA    CLA  233   8.256   7.084   1.984
   88CLA    CLA  234   8.155   4.544   3.320
   89CLA    CLA  235   2.936   0.741   0.464
   90CLA    CLA  236   1.933   0.088   2.541
   91CLA    CLA  237   1.593   4.095   5.877
   92CLA    CLA  238   1.223   0.753   0.295
   93CLA    CLA  239   3.939   0.321   2.971
   94CLA    CLA  240   5.056   5.681   6.279
   95CLA    CLA  241   7.878   4.975   0.517
   96CLA    CLA  242   0.110   0.911   4.112
   97CLA    CLA  243   5.618   5.460   3.662
   98CLA    CLA  244   2.625   2.484   5.398
   99CLA    CLA  245   6.768   7.535   6.608
  100CLA    CLA  246   2.744   3.786   2.815
  101CLA    CLA  247   8.150   0.572   0.534
  102TIP3   OH2  248   2.089   1.199   3.594
  102TIP3    H1  249   2.023   1.173   3.659
  102TIP3    H2  250   2.166   1.148   3.617
  103TIP3   OH2  251   5.003   6.014   6.404
  103TIP3    H1  252   5.035   5.928   6.379
  103TIP3    H2  253   5.083   6.064   6.423
  104TIP3   OH2  254   2.406   0.651   6.259
  104TIP3    H1  255   2.355   0.720   6.301
  104TIP3    H2  256   2.395   0.575   6.315
  105TIP3   OH2  257   4.644   6.914   0.897
  105TIP3    H1  258   4.599   6.903   0.980
  105TIP3    H2  259   4.598   6.855   0.837
  106TIP3   OH2  260   4.902   2.708   0.109
  106TIP3    H1  261   4.859   2.685   0.191
  106TIP3    H2  262   4.923   2.624   0.067
  107TIP3   OH2  263   1.998   0.930   6.495
  107TIP3    H1  264   1.948   0.851   6.515
  107TIP3    H2  265   1.986   0.944   6.401
  108TIP3   OH2  266   4.106   6.400   6.194
  108TIP3    H1  267   4.160   6.365   6.123
  108TIP3    H2  268   4.016   6.388   6.163
  109TIP3   OH2  269   5.257   1.382   1.721
  109TIP3    H1  270   5.172   1.338   1.727
  109TIP3    H2  271   5.237   1.470   1.690
  110TIP3   OH2  272   6.115   2.822   0.190
  110TIP3    H1  273   6.143   2.789   0.104
  110TIP3    H2  274   6.158   2.763   0.253
  111TIP3   OH2  275   0.034   2.920   6.605
  111TIP3    H1  276  -0.049   2.916   6.559
  111TIP3    H2  277   0.091   2.972   6.547
  112TIP3   OH2  278   3.440   3.693   5.798
  112TIP3    H1  279   3.452   3.605   5.835
  112TIP3    H2  280   3.419   3.747   5.874
  113TIP3   OH2  281   2.813   1.014   6.685
  113TIP3    H1  282   2.873   1.038   6.615
  113TIP3    H2  283   2.820   1.086   6.748
  114TIP3   OH2  284   6.812   7.693   2.024
  114TIP3    H1  285   6.761   7.769   2.053
  114TIP3    H2  286   6.896   7.702   2.071
  115TIP3   OH2  287   8.082   2.442   1.356
  115TIP3    H1  288   8.006   2.463   1.411
  115TIP3    H2  289   8.103   2.351   1.376
  116TIP3   OH2  290   2.389   1.927   4.041
  116TIP3    H1  291   2.332   1.996   4.074
  116TIP3    H2  292   2.423   1.885   4.120
  117TIP3   OH2  293   0.971   5.775   4.342
  117TIP3    H1  294   1.022   5.736   4.413
  117TIP3    H2  295   1.012   5.860   4.327
  118TIP3   OH2  296   2.123   0.285   5.327
  118TIP3    H1  297   2.042   0.322   5.361
  118TIP3    H2  298   2.101   0.194   5.307
  119TIP3   OH2  299   1.470   4.815   1.836
  119TIP3    H1  300   1.474   4.725   1.869
  119TIP3    H2  301   1.383   4.824   1.799
  120TIP3   OH2  302   8.136   5.068   3.942
  120TIP3    H1  303   8.061   5.127   3.951
  120TIP3    H2  304   8.146   5.058   3.847
  121TIP3   OH2  305   8.065   2.216   0.179
  121TIP3    H1  306   7.995   2.163   0.218
  121TIP3    H2  307   8.077   2.179   0.091
  122TIP3   OH2  308   0.826   5.193   0.564
  122TIP3    H1  309   0.820   5.263   0.630
  122TIP3    H2  310   0.829   5.240   0.480
  123TIP3   OH2  311   5.905   6.152   1.655
  123TIP3    H1  312   5.872   6.063   1.639
  123TIP3    H2  313   5.938   6.181   1.570
  124TIP3   OH2  314   5.098   7.682   0.001
  124TIP3    H1  315   5.060   7.654   0.084
  124TIP3    H2  316   5.070   7.773  -0.008
  125TIP3   OH2  317   0.449   1.199   1.750
  125TIP3    H1  318   0.393   1.240   1.815
  125TIP3    H2  319   0.530   1.251   1.752
  126TIP3   OH2  320   2.110   5.628   5.954
  126TIP3    H1  321   2.077   5.558   5.897
  126TIP3    H2  322   2.077   5.709   5.914
  127TIP3   OH2  323   7.036   1.389   4.538
  127TIP3    H1  324   7.111   1.345   4.498
  127TIP3    H2  325   6.997   1.440   4.467
  128TIP3   OH2  326   2.164   2.280   5.867
  128TIP3    H1  327   2.239   2.329   5.901
  128TIP3    H2  328   2.196   2.190   5.858
  129TIP3   OH2  329   5.714   2.177   6.355
  129TIP3    H1  330   5.751   2.121   6.424
  129TIP3    H2  331   5.757   2.261   6.367
  130TIP3   OH2  332   1.975   6.617   5.335
  130TIP3    H1  333   2.062   6.656   5.330
  130TIP3    H2  334   1.936   6.635   5.249
  131TIP3   OH2  335   6.169   0.742   5.186
  131TIP3    H1  336   6.137   0.712   5.101
  131TIP3    H2  337   6.093   0.785   5.226
  132TIP3   OH2  338   1.322   2.724   3.275
  132TIP3    H1  339   1.267   2.802   3.281
  132TIP3    H2  340   1.271   2.663   3.223
  133TIP3   OH2  341   0.048   1.532   6.486
  133TIP3    H1  342  -0.013   1.458   6.491
  133TIP3    H2  343   0.006   1.601   6.538
  134TIP3   OH2  344   3.307   1.080   5.711
  134TIP3    H1  345   3.299   0.989   5.681
  134TIP3    H2  346   3.373   1.118   5.653
  135TIP3   OH2  347   4.402   6.405   0.763
  135TIP3    H1  348   4.442   6.448   0.839
  135TIP3    H2  349   4.476   6.386   0.705
  136TIP3   OH2  350   2.474   6.631   3.517
  136TIP3    H1  351   2.452   6.679   3.438
  136TIP3    H2  352   2.566   6.609   3.507
  137TIP3   OH2  353   0.349   3.746   5.573
  137TIP3    H1  354   0.383   3.736   5.485
  137TIP3    H2  355   0.315   3.836   5.575
  138TIP3   OH2  356   0.591   7.165   3.798
  138TIP3    H1  357   0.551   7.141   3.881
  138TIP3    H2  358   0.612   7.257   3.807
  139TIP3   OH2  359   5.643   3.653   4.447
  139TIP3    H1  360   5.711   3.687   4.390
  139TIP3    H2  361   5.575   3.622   4.388
  140TIP3   OH2  362   1.445   6.120   5.639
  140TIP3    H1  363   1.359   6.090   5.670
  140TIP3    H2  364   1.467   6.061   5.567
  141TIP3   OH2  365   4.719   5.943   3.265
  141TIP3    H1  366   4.754   6.010   3.205
  141TIP3    H2  367   4.772   5.865   3.246
  142TIP3   OH2  368   2.723   3.058   2.948
  142TIP3    H1  369   2.678   2.988   2.996
  142TIP3    H2  370   2.679   3.060   2.863
  143TIP3   OH2  371   2.179   7.255   0.944
  143TIP3    H1  372   2.258   7.257   0.998
  143TIP3    H2  373   2.211   7.276   0.856
  144TIP3   OH2  374   6.094   5.563   5.172
  144TIP3    H1  375   6.111   5.650   5.207
  144TIP3    H2  376   6.137   5.503   5.233
  145TIP3   OH2  377   0.996   1.775   6.547
  145TIP3    H1  378   1.072   1.734   6.505
  145TIP3    H2  379   0.934   1.789   6.475
  146TIP3   OH2  380   3.425   4.319   1.337
  146TIP3    H1  381   3.397   4.283   1.253
  146TIP3    H2  382   3.421   4.246   1.398
  147TIP3   OH2  383   3.464   1.207   3.948
  147TIP3    H1  384   3.380   1.179   3.984
  147TIP3    H2  385   3.524   1.203   4.023
  148TIP3   OH2  386   7.571   0.815   3.197
  148TIP3    H1  387   7.632   0.886   3.180
  148TIP3    H2  388   7.500   0.856   3.247
  149TIP3   OH2  389   5.264   4.866   2.637
  149TIP3    H1  390   5.247   4.775   2.665
  149TIP3    H2  391   5.345   4.890   2.682
  150TIP3   OH2  392   7.864   3.785   4.083
  150TIP3    H1  393   7.913   3.863   4.054
  150TIP3    H2  394   7.906   3.759   4.165
  151TIP3   OH2  395   3.505   4.816   6.335
  151TIP3    H1  396   3.437   4.871   6.295
  151TIP3    H2  397   3.512   4.848   6.425
  152TIP3   OH2  398   6.385   3.212   5.672
  152TIP3    H1  399   6.304   3.241   5.630
  152TIP3    H2  400   6.419   3.144   5.614
  153TIP3   OH2  401   5.058   0.258   3.182
  153TIP3    H1  402   5.098   0.195   3.243
  153TIP3    H2  403   4.964   0.254   3.202
  154TIP3   OH2  404   7.740   5.084   1.485
  154TIP3    H1  405   7.737   5.035   1.403
  154TIP3    H2  406   7.745   5.176   1.457
  155TIP3   OH2  407   4.106   5.535   3.695
  155TIP3    H1  408   4.022   5.499   3.666
  155TIP3    H2  409   4.082   5.611   3.748
  156TIP3   OH2  410   7.367   3.255   0.724
  156TIP3    H1  411   7.386   3.162   0.713
  156TIP3    H2  412   7.431   3.285   0.789
  157TIP3   OH2  413   1.529   1.164   4.152
  157TIP3    H1  414   1.491   1.144   4.237
  157TIP3    H2  415   1.504   1.090   4.097
  158TIP3   OH2  416   3.852   7.126   4.066
  158TIP3    H1  417   3.922   7.178   4.027
  158TIP3    H2  418   3.773   7.154   4.020
  159TIP3   OH2  419   0.048   0.662   1.121
  159TIP3    H1  420   0.045   0.722   1.047
  159TIP3    H2  421   0.044   0.718   1.198
  160TIP3   OH2  422   4.912   0.717   3.808
  160TIP3    H1  423   4.999   0.713   3.768
  160TIP3    H2  424   4.851   0.711   3.735
  161TIP3   OH2  425   3.421   3.093   6.029
  161TIP3    H1  426   3.385   3.146   6.101
  161TIP3    H2  427   3.417   3.003   6.061
  162TIP3   OH2  428   2.332   0.595   3.599
  162TIP3    H1  429   2.362   0.594   3.509
  162TIP3    H2  430   2.402   0.639   3.647
  163TIP3   OH2  431   1.535   4.619   2.809
  163TIP3    H1  432   1.535   4.529   2.776
  163TIP3    H2  433   1.442   4.643   2.812
  164TIP3   OH2  434   6.221   3.617   6.129
  164TIP3    H1  435   6.246   3.631   6.221
  164TIP3    H2  436   6.153   3.550   6.132
  165TIP3   OH2  437   0.995   1.868   0.752
  165TIP3    H1  438   0.901   1.876   0.735
  165TIP3    H2  439   1.001   1.843   0.844
  166TIP3   OH2  440   5.240   0.935   0.920
  166TIP3    H1  441   5.161   0.947   0.867
  166TIP3    H2  442   5.299   1.004   0.891
  167TIP3   OH2  443   0.091   0.965   1.641
  167TIP3    H1  444   0.012   0.923   1.674
  167TIP3    H2  445   0.091   1.052   1.681
  168TIP3   OH2  446   5.224   4.026   0.082
  168TIP3    H1  447   5.164   4.065   0.145
  168TIP3    H2  448   5.287   3.978   0.136
  169TIP3   OH2  449   6.622   1.750   6.623
  169TIP3    H1  450   6.625   1.730   6.717
  169TIP3    H2  451   6.602   1.844   6.619
  170TIP3   OH2  452   4.773   1.936   1.101
  170TIP3    H1  453   4.711   1.868   1.126
  170TIP3    H2  454   4.789   1.921   1.008
  171TIP3   OH2  455   4.124   1.054   5.682
  171TIP3    H1  456   4.152   1.079   5.770
  171TIP3    H2  457   4.030   1.070   5.681
  172TIP3   OH2  458   5.326   7.512   4.461
  172TIP3    H1  459   5.314   7.487   4.553
  172TIP3    H2  460   5.386   7.586   4.465
  173TIP3   OH2  461   4.273   0.250   2.335
  173TIP3    H1  462   4.261   0.216   2.246
  173TIP3    H2  463   4.254   0.175   2.391
  174TIP3   OH2  464   3.870   7.027   4.328
  174TIP3    H1  465   3.797   7.074   4.370
  174TIP3    H2  466   3.871   7.059   4.238
  175TIP3   OH2  467   4.856   5.991   2.510
  175TIP3    H1  468   4.797   5.934   2.558
  175TIP3    H2  469   4.935   5.995   2.564
  176TIP3   OH2  470   4.109   0.087   4.904
  176TIP3    H1  471   4.093   0.172   4.862
  176TIP3    H2  472   4.182   0.103   4.963
  177TIP3   OH2  473   0.587   4.075   1.594
  177TIP3    H1  474   0.622   4.088   1.682
  177TIP3    H2  475   0.492   4.069   1.607
  178TIP3   OH2  476   7.523   5.699   6.160
  178TIP3    H1  477   7.601   5.708   6.214
  178TIP3    H2  478   7.520   5.780   6.109
  179TIP3   OH2  479   6.451   7.088   0.869
  179TIP3    H1  480   6.361   7.085   0.835
  179TIP3    H2  481   6.450   7.028   0.943
  180TIP3   OH2  482   6.070   1.124   4.805
  180TIP3    H1  483   5.992   1.070   4.792
  180TIP3    H2  484   6.126   1.071   4.862
  181TIP3   OH2  485   2.759   7.529   3.539
  181TIP3    H1  486   2.848   7.497   3.529
  181TIP3    H2  487   2.765   7.623   3.521
  182TIP3   OH2  488   6.608   1.771   0.340
  182TIP3    H1  489   6.679   1.749   0.279
  182TIP3    H2  490   6.528   1.742   0.296
  183TIP3   OH2  491   4.271   1.916   2.550
  183TIP3    H1  492   4.284   1.830   2.590
  183TIP3    H2  493   4.180   1.916   2.521
  184TIP3   OH2  494   4.113   7.209   3.044
  184TIP3    H1  495   4.162   7.186   3.123
  184TIP3    H2  496   4.024   7.224   3.075
  185TIP3   OH2  497   1.406   6.548   4.829
  185TIP3    H1  498   1.398   6.526   4.737
  185TIP3    H2  499   1.361   6.632   4.837
  186TIP3   OH2  500   3.781   3.041   2.291
  186TIP3    H1  501   3.750   3.130   2.303
  186TIP3    H2  502   3.751   2.994   2.369
  187TIP3   OH2  503   1.245   5.887   5.789
  187TIP3    H1  504   1.254   5.820   5.857
  187TIP3    H2  505   1.225   5.967   5.836
  188TIP3   OH2  506   0.377   7.508   2.983
  188TIP3    H1  507   0.288   7.477   2.999
  188TIP3    H2  508   0.421   7.435   2.940
  189TIP3   OH2  509   5.779   4.697   6.295
  189TIP3    H1  510   5.751   4.708   6.386
  189TIP3    H2  511   5.825   4.613   6.295
  190TIP3   OH2  512   0.428   6.698   2.472
  190TIP3    H1  513   0.521   6.681   2.489
  190TIP3    H2  514   0.382   6.651   2.541
  191TIP3   OH2  515   0.241   4.755   0.380
  191TIP3    H1  516   0.336   4.759   0.392
  191TIP3    H2  517   0.207   4.739   0.468
  192TIP3   OH2  518   7.090   4.287   0.400
  192TIP3    H1  519   7.071   4.316   0.311
  192TIP3    H2  520   7.068   4.362   0.455
  193TIP3   OH2  521   0.512   5.861   2.069
  193TIP3    H1  522   0.480   5.920   2.002
  193TIP3    H2  523   0.604   5.846   2.047
  194TIP3   OH2  524   6.035   2.802   3.254
  194TIP3    H1  525   6.023   2.873   3.317
  194TIP3    H2  526   6.098   2.743   3.295
  195TIP3   OH2  527   0.384   3.294   5.556
  195TIP3    H1  528   0.391   3.375   5.607
  195TIP3    H2  529   0.308   3.308   5.499
  196TIP3   OH2  530   0.044   4.022   5.710
  196TIP3    H1  531   0.115   4.017   5.645
  196TIP3    H2  532   0.079   3.977   5.787
  197TIP3   OH2  533   1.954   1.963   5.968
  197TIP3    H1  534   1.875   1.911   5.953
  197TIP3    H2  535   1.990   1.979   5.881
  198TIP3   OH2  536   5.212   5.228   5.036
  198TIP3    H1  537   5.168   5.271   4.962
  198TIP3    H2  538   5.294   5.196   5.000
  199TIP3   OH2  539   6.582   7.171   5.746
  199TIP3    H1  540   6.523   7.107   5.707
  199TIP3    H2  541   6.526   7.243   5.775
  200TIP3   OH2  542   3.092   2.347   5.032
  200TIP3    H1  543   3.072   2.399   5.110
  200TIP3    H2  544   3.149   2.277   5.065
  201TIP3   OH2  545   4.486   7.064   3.382
  201TIP3    H1  546   4.561   7.039   3.328
  201TIP3    H2  547   4.510   7.035   3.471
  202TIP3   OH2  548   7.298   2.092   5.722
  202TIP3    H1  549   7.220   2.067   5.772
  202TIP3    H2  550   7.361   2.119   5.790
  203TIP3   OH2  551   4.932   3.251   1.426
  203TIP3    H1  552   4.971   3.166   1.446
  203TIP3    H2  553   4.970   3.275   1.342
  204TIP3   OH2  554   3.184   7.065   6.114
  204TIP3    H1  555   3.188   7.050   6.209
  204TIP3    H2  556   3.205   6.979   6.076
  205TIP3   OH2  557   3.484   0.160   3.599
  205TIP3    H1  558   3.454   0.251   3.599
  205TIP3    H2  559   3.576   0.165   3.622
  206TIP3   OH2  560   6.573   3.818   4.031
  206TIP3    H1  561   6.667   3.799   4.025
  206TIP3    H2  562   6.543   3.815   3.940
  207TIP3   OH2  563   6.974   2.068   6.291
  207TIP3    H1  564   6.950   1.984   6.251
  207TIP3    H2  565   6.926   2.133   6.240
  208TIP3   OH2  566   2.017   6.827   3.985
  208TIP3    H1  567   2.029   6.737   3.954
  208TIP3    H2  568   2.106   6.857   4.005
  209TIP3   OH2  569   4.455   1.888   3.323
  209TIP3    H1  570   4.483   1.942   3.249
  209TIP3    H2  571   4.368   1.922   3.346
  210TIP3   OH2  572   1.686   4.690   4.600
  210TIP3    H1  573   1.602   4.665   4.639
  210TIP3    H2  574   1.706   4.775   4.639
  211TIP3   OH2  575   5.678   5.173   0.030
  211TIP3    H1  576   5.754   5.215   0.071
  211TIP3    H2  577   5.670   5.217  -0.055
  212TIP3   OH2  578   3.793   7.701   6.287
  212TIP3    H1  579   3.885   7.675   6.290
  212TIP3    H2  580   3.780   7.733   6.198
  213TIP3   OH2  581   7.049   4.716   2.201
  213TIP3    H1  582   7.049   4.709   2.296
  213TIP3    H2  583   7.069   4.627   2.171
  214TIP3   OH2  584   3.655   3.362   0.564
  214TIP3    H1  585   3.714   3.436   0.552
  214TIP3    H2  586   3.712   3.285   0.569
  215TIP3   OH2  587   7.708   5.104   1.958
  215TIP3    H1  588   7.690   5.169   1.890
  215TIP3    H2  589   7.622   5.075   1.987
  216TIP3   OH2  590   7.237   7.576   5.062
  216TIP3    H1  591   7.200   7.540   4.981
  216TIP3    H2  592   7.163   7.581   5.122
  217TIP3   OH2  593   6.615   4.529   6.076
  217TIP3    H1  594   6.533   4.526   6.027
  217TIP3    H2  595   6.681   4.555   6.011
  218TIP3   OH2  596   4.772   0.198   3.008
  218TIP3    H1  597   4.715   0.268   3.038
  218TIP3    H2  598   4.791   0.146   3.086
  219TIP3   OH2  599   4.371   0.376   0.030
  219TIP3    H1  600   4.442   0.431   0.063
  219TIP3    H2  601   4.347   0.415  -0.054
  220TIP3   OH2  602   4.304   7.097   0.915
  220TIP3    H1  603   4.217   7.070   0.944
  220TIP3    H2  604   4.364   7.032   0.952
  221TIP3   OH2  605   5.868   0.442   4.085
  221TIP3    H1  606   5.940   0.413   4.141
  221TIP3    H2  607   5.857   0.535   4.105
  222TIP3   OH2  608   4.460   2.480   2.532
  222TIP3    H1  609   4.389   2.527   2.575
  222TIP3    H2  610   4.463   2.394   2.575
  223TIP3   OH2  611   4.899   7.016   3.587
  223TIP3    H1  612   4.978   7.027   3.641
  223TIP3    H2  613   4.827   7.020   3.650
  224TIP3   OH2  614   7.002   1.088   3.092
  224TIP3    H1  615   7.074   1.086   3.155
  224TIP3    H2  616   7.008   1.174   3.050
  225TIP3   OH2  617   1.580   3.740   1.239
  225TIP3    H1  618   1.615   3.699   1.160
  225TIP3    H2  619   1.543   3.823   1.210
  226TIP3   OH2  620   5.606   1.133   4.435
  226TIP3    H1  621   5.521   1.114   4.395
  226TIP3    H2  622   5.655   1.051   4.427
  227TIP3   OH2  623   6.159   6.442   1.389
  227TIP3    H1  624   6.161   6.394   1.306
  227TIP3    H2  625   6.201   6.383   1.452
  228TIP3   OH2  626   6.488   0.003   0.462
  228TIP3    H1  627   6.537   0.014   0.380
  228TIP3    H2  628   6.555   0.012   0.530
  229TIP3   OH2  629   4.569   2.966   3.130
  229TIP3    H1  630   4.490   2.928   3.169
  229TIP3    H2  631   4.578   2.922   3.045
  230TIP3   OH2  632   1.855   4.721   5.822
  230TIP3    H1  633   1.767   4.750   5.795
  230TIP3    H2  634   1.839   4.666   5.900
  231TIP3   OH2  635   1.312   6.739   5.507
  231TIP3    H1  636   1.331   6.672   5.573
  231TIP3    H2  637   1.234   6.784   5.539
  232TIP3   OH2  638   7.454   0.740   4.036
  232TIP3    H1  639   7.408   0.757   3.954
  232TIP3    H2  640   7.545   0.762   4.017
  233TIP3   OH2  641   7.896   5.209   4.345
  233TIP3    H1  642   7.959   5.161   4.291
  233TIP3    H2  643   7.824   5.147   4.359
  234TIP3   OH2  644   1.881   7.504   5.788
  234TIP3    H1  645   1.906   7.445   5.717
  234TIP3    H2  646   1.920   7.465   5.866
  235TIP3   OH2  647   6.535   5.201   2.467
  235TIP3    H1  648   6.441   5.189   2.480
  235TIP3    H2  649   6.574   5.182   2.552
  236TIP3   OH2  650   7.863   2.142   5.836
  236TIP3    H1  651   7.795   2.152   5.770
  236TIP3    H2  652   7.816   2.147   5.919
  237TIP3   OH2  653   3.085   3.412   6.104
  237TIP3    H1  654   3.021   3.382   6.039
  237TIP3    H2  655   3.112   3.498   6.074
  238TIP3   OH2  656   3.585   6.065   3.373
  238TIP3    H1  657   3.551   6.135   3.316
  238TIP3    H2  658   3.568   6.096   3.462
  239TIP3   OH2  659   7.760   1.461   4.422
  239TIP3    H1  660   7.757   1.490   4.514
  239TIP3    H2  661   7.767   1.366   4.428
  240TIP3   OH2  662   1.860   3.542   0.919
  240TIP3    H1  663   1.917   3.488   0.865
  240TIP3    H2  664   1.898   3.537   1.006
  241TIP3   OH2  665   4.740   4.478   1.862
  241TIP3    H1  666   4.825   4.442   1.887
  241TIP3    H2  667   4.677   4.432   1.917
  242TIP3   OH2  668   1.086   2.541   1.665
  242TIP3    H1  669   1.136   2.618   1.640
  242TIP3    H2  670   1.151   2.477   1.693
  243TIP3   OH2  671   4.560   2.497   0.651
  243TIP3    H1  672   4.527   2.440   0.582
  243TIP3    H2  673   4.553   2.443   0.731
  244TIP3   OH2  674   7.567   7.724   2.807
  244TIP3    H1  675   7.499   7.692   2.867
  244TIP3    H2  676   7.520   7.779   2.745
  245TIP3   OH2  677   4.998   6.165   4.499
  245TIP3    H1  678   4.933   6.114   4.548
  245TIP3    H2  679   4.949   6.199   4.424
  246TIP3   OH2  680   2.741   3.350   3.770
  246TIP3    H1  681   2.750   3.272   3.716
  246TIP3    H2  682   2.661   3.335   3.820
  247TIP3   OH2  683   7.265   6.955   5.073
  247TIP3    H1  684   7.235   6.884   5.017
  247TIP3    H2  685   7.208   7.029   5.051
  248TIP3   OH2  686   3.500   2.778   1.445
  248TIP3    H1  687   3.488   2.863   1.486
  248TIP3    H2  688   3.582   2.745   1.481
  249TIP3   OH2  689   2.173   6.343   1.444
  249TIP3    H1  690   2.121   6.271   1.479
  249TIP3    H2  691   2.108   6.406   1.412
  250TIP3   OH2  692   2.977   0.194   5.183
  250TIP3    H1  693   2.979   0.164   5.092
  250TIP3    H2  694   2.928   0.276   5.181
  251TIP3   OH2  695   6.409   3.385   1.428
  251TIP3    H1  696   6.343   3.358   1.365
  251TIP3    H2  697   6.366   3.380   1.513
  252TIP3   OH2  698   2.199   5.139   3.543
  252TIP3    H1  699   2.137   5.081   3.498
  252TIP3    H2  700   2.151   5.221   3.552
  253TIP3   OH2  701   4.344   1.765   4.365
  253TIP3    H1  702   4.430   1.727   4.383
  253TIP3    H2  703   4.331   1.829   4.435
  254TIP3   OH2  704   6.724   4.495   2.872
  254TIP3    H1  705   6.637   4.460   2.889
  254TIP3    H2  706   6.741   4.554   2.946
  255TIP3   OH2  707   2.233   5.931   4.669
  255TIP3    H1  708   2.306   5.912   4.728
  255TIP3    H2  709   2.210   6.022   4.687
  256TIP3   OH2  710   6.296   6.408   0.893
  256TIP3    H1  711   6.233   6.342   0.864
  256TIP3    H2  712   6.314   6.460   0.814
  257TIP3   OH2  713   3.032   0.979   6.004
  257TIP3    H1  714   2.953   1.016   5.963
  257TIP3    H2  715   2.999   0.907   6.057
  258TIP3   OH2  716   3.103   5.616   5.170
  258TIP3    H1  717   3.061   5.701   5.185
  258TIP3    H2  718   3.061   5.557   5.232
  259TIP3   OH2  719   7.072   4.966   0.992
  259TIP3    H1  720   7.034   4.913   1.061
  259TIP3    H2  721   7.094   4.903   0.922
  260TIP3   OH2  722   2.743   3.535   4.701
  260TIP3    H1  723   2.832   3.504   4.721
  260TIP3    H2  724   2.729   3.607   4.762
  261TIP3   OH2  725   6.356   2.603   0.753
  261TIP3    H1  726   6.431   2.642   0.798
  261TIP3    H2  727   6.280   2.642   0.795
  262TIP3   OH2  728   3.204   7.059   0.578
  262TIP3    H1  729   3.112   7.056   0.603
  262TIP3    H2  730   3.234   6.968   0.586
  263TIP3   OH2  731   4.225   3.200   4.140
  263TIP3    H1  732   4.199   3.110   4.122
  263TIP3    H2  733   4.170   3.227   4.213
  264TIP3   OH2  734   4.978   4.226   6.301
  264TIP3    H1  735   4.924   4.219   6.380
  264TIP3    H2  736   5.044   4.291   6.323
  265TIP3   OH2  737   3.916   6.628   4.187
  265TIP3    H1  738   3.971   6.706   4.195
  265TIP3    H2  739   3.967   6.558   4.227
  266TIP3   OH2  740   6.309   0.461   4.408
  266TIP3    H1  741   6.333   0.551   4.384
  266TIP3    H2  742   6.386   0.409   4.386
  267TIP3   OH2  743   7.340   4.797   4.878
  267TIP3    H1  744   7.244   4.794   4.879
  267TIP3    H2  745   7.361   4.845   4.798
  268TIP3   OH2  746   8.253   4.817   3.156
  268TIP3    H1  747   8.241   4.732   3.199
  268TIP3    H2  748   8.346   4.837   3.169
  269TIP3   OH2  749   3.790   2.264   6.557
  269TIP3    H1  750   3.767   2.204   6.487
  269TIP3    H2  751   3.860   2.219   6.605
  270TIP3   OH2  752   0.779   1.624   0.419
  270TIP3    H1  753   0.864   1.626   0.375
  270TIP3    H2  754   0.766   1.532   0.442
  271TIP3   OH2  755   6.668   3.724   5.671
  271TIP3    H1  756   6.679   3.629   5.680
  271TIP3    H2  757   6.754   3.755   5.643
  272TIP3   OH2  758   5.479   1.242   4.670
  272TIP3    H1  759   5.518   1.230   4.584
  272TIP3    H2  760   5.543   1.205   4.731
  273TIP3   OH2  761   7.386   4.045   2.470
  273TIP3    H1  762   7.292   4.054   2.454
  273TIP3    H2  763   7.424   4.035   2.383
  274TIP3   OH2  764   4.161   5.773   2.746
  274TIP3    H1  765   4.095   5.841   2.729
  274TIP3    H2  766   4.168   5.725   2.663
  275TIP3   OH2  767   3.992   2.055   6.123
  275TIP3    H1  768   4.057   1.984   6.120
  275TIP3    H2  769   4.029   2.118   6.185
  276TIP3   OH2  770   2.527   3.016   5.684
  276TIP3    H1  771   2.513   2.988   5.593
  276TIP3    H2  772   2.469   3.091   5.694
  277TIP3   OH2  773   5.420   7.723   3.499
  277TIP3    H1  774   5.418   7.630   3.477
  277TIP3    H2  775   5.392   7.767   3.419
  278TIP3   OH2  776   6.828   1.563   5.993
  278TIP3    H1  777   6.796   1.638   6.043
  278TIP3    H2  778   6.804   1.486   6.045
  279TIP3   OH2  779   4.930   1.849   1.704
  279TIP3    H1  780   4.873   1.922   1.678
  279TIP3    H2  781   5.013   1.867   1.660
  280TIP3   OH2  782   1.658   2.291   3.460
  280TIP3    H1  783   1.597   2.260   3.393
  280TIP3    H2  784   1.602   2.309   3.536
  281TIP3   OH2  785   5.719   1.678   0.106
  281TIP3    H1  786   5.627   1.655   0.095
  281TIP3    H2  787   5.736   1.740   0.035
  282TIP3   OH2  788   2.260   5.850   3.708
  282TIP3    H1  789   2.296   5.930   3.670
  282TIP3    H2  790   2.177   5.836   3.662
  283TIP3   OH2  791   7.931   3.545   0.366
  283TIP3    H1  792   7.897   3.598   0.294
  283TIP3    H2  793   7.885   3.578   0.443
  284TIP3   OH2  794   7.798   1.941   3.329
  284TIP3    H1  795   7.818   2.034   3.340
  284TIP3    H2  796   7.721   1.926   3.384
  285TIP3   OH2  797   2.843   4.565   0.972
  285TIP3    H1  798   2.854   4.595   0.882
  285TIP3    H2  799   2.775   4.621   1.008
  286TIP3   OH2  800   5.744   5.979   5.460
  286TIP3    H1  801   5.674   5.938   5.511
  286TIP3    H2  802   5.779   5.908   5.406
  287TIP3   OH2  803   5.055   0.021   6.121
  287TIP3    H1  804   5.009   0.105   6.116
  287TIP3    H2  805   5.146   0.042   6.102
  288TIP3   OH2  806   6.116   4.169   5.121
  288TIP3    H1  807   6.034   4.187   5.169
  288TIP3    H2  808   6.155   4.256   5.110
  289TIP3   OH2  809   6.281   7.135   0.152
  289TIP3    H1  810   6.225   7.160   0.225
  289TIP3    H2  811   6.325   7.216   0.126
  290TIP3   OH2  812   5.900   5.529   4.165
  290TIP3    H1  813   5.805   5.521   4.160
  290TIP3    H2  814   5.917   5.548   4.257
  291TIP3   OH2  815   3.881   0.627   6.461
  291TIP3    H1  816   3.839   0.585   6.536
  291TIP3    H2  817   3.969   0.589   6.458
  292TIP3   OH2  818   0.427   0.950   4.622
  292TIP3    H1  819   0.361   0.884   4.602
  292TIP3    H2  820   0.391   0.999   4.695
  293TIP3   OH2  821  -0.018   5.239   2.314
  293TIP3    H1  822   0.059   5.196   2.278
  293TIP3    H2  823   0.016   5.300   2.379
  294TIP3   OH2  824   6.844   2.324   6.383
  294TIP3    H1  825   6.880   2.384   6.448
  294TIP3    H2  826   6.852   2.237   6.423
  295TIP3   OH2  827   3.956   0.372   4.624
  295TIP3    H1  828   3.930   0.280   4.620
  295TIP3    H2  829   3.963   0.399   4.533
  296TIP3   OH2  830   5.114   0.700   2.908
  296TIP3    H1  831   5.033   0.709   2.959
  296TIP3    H2  832   5.103   0.761   2.835
  297TIP3   OH2  833   5.096   0.680   2.455
  297TIP3    H1  834   5.129   0.594   2.482
  297TIP3    H2  835   5.070   0.668   2.364
  298TIP3   OH2  836   3.530   5.423   4.885
  298TIP3    H1  837   3.499   5.393   4.799
  298TIP3    H2  838   3.458   5.475   4.920
  299TIP3   OH2  839   4.703   4.185   2.807
  299TIP3    H1  840   4.786   4.170   2.851
  299TIP3    H2  841   4.726   4.198   2.715
  300TIP3   OH2  842   0.003   6.730   4.291
  300TIP3    H1  843   0.057   6.768   4.361
  300TIP3    H2  844   0.041   6.764   4.210
  301TIP3   OH2  845   5.628   4.860   5.547
  301TIP3    H1  846   5.574   4.938   5.536
  301TIP3    H2  847   5.711   4.892   5.580
  302TIP3   OH2  848   8.154   1.249   6.503
  302TIP3    H1  849   8.194   1.214   6.423
  302TIP3    H2  850   8.186   1.192   6.573
  303TIP3   OH2  851   4.239   5.849   5.547
  303TIP3    H1  852   4.230   5.820   5.456
  303TIP3    H2  853   4.157   5.896   5.564
  304TIP3   OH2  854   3.101   2.337   1.245
  304TIP3    H1  855   3.078   2.430   1.245
  304TIP3    H2  856   3.112   2.315   1.337
  305TIP3   OH2  857   2.597   0.977   1.482
  305TIP3    H1  858   2.585   0.900   1.426
  305TIP3    H2  859   2.607   0.942   1.570
  306TIP3   OH2  860   7.303   1.799   0.786
  306TIP3    H1  861   7.263   1.810   0.872
  306TIP3    H2  862   7.321   1.705   0.779
  307TIP3   OH2  863   1.830   4.542   6.026
  307TIP3    H1  864   1.865   4.552   6.114
  307TIP3    H2  865   1.754   4.485   6.036
  308TIP3   OH2  866   7.397   5.267   4.641
  308TIP3    H1  867   7.354   5.190   4.680
  308TIP3    H2  868   7.490   5.248   4.648
  309TIP3   OH2  869   2.747   7.646   1.618
  309TIP3    H1  870   2.754   7.683   1.530
  309TIP3    H2  871   2.773   7.717   1.676
  310TIP3   OH2  872   6.744   4.802   3.054
  310TIP3    H1  873   6.713   4.740   3.120
  310TIP3    H2  874   6.837   4.781   3.044
  311TIP3   OH2  875   1.864   4.936   1.931
  311TIP3    H1  876   1.865   4.930   2.026
  311TIP3    H2  877   1.795   4.999   1.912
  312TIP3   OH2  878   0.992   1.531   3.760
  312TIP3    H1  879   1.072   1.520   3.710
  312TIP3    H2  880   0.980   1.447   3.805
  313TIP3   OH2  881   2.779   4.939   2.074
  313TIP3    H1  882   2.848   4.926   2.138
  313TIP3    H2  883   2.699   4.909   2.118
  314TIP3   OH2  884   0.784   0.402   5.389
  314TIP3    H1  885   0.768   0.461   5.315
  314TIP3    H2  886   0.878   0.408   5.404
  315TIP3   OH2  887   3.442   3.303   0.334
  315TIP3    H1  888   3.485   3.269   0.255
  315TIP3    H2  889   3.514   3.329   0.391
  316TIP3   OH2  890   4.913   3.240   5.256
  316TIP3    H1  891   4.970   3.254   5.332
  316TIP3    H2  892   4.847   3.308   5.262
  317TIP3   OH2  893   3.393   4.937   5.652
  317TIP3    H1  894   3.463   4.975   5.598
  317TIP3    H2  895   3.430   4.935   5.740
  318TIP3   OH2  896   5.527   0.031   0.445
  318TIP3    H1  897   5.608   0.053   0.490
  318TIP3    H2  898   5.502   0.111   0.399
  319TIP3   OH2  899   5.210   5.556   6.026
  319TIP3    H1  900   5.210   5.577   6.119
  319TIP3    H2  901   5.233   5.638   5.983
  320TIP3   OH2  902   7.874   6.515   4.001
  320TIP3    H1  903   7.899   6.541   4.090
  320TIP3    H2  904   7.955   6.480   3.963
  321TIP3   OH2  905  -0.014   0.336   1.703
  321TIP3    H1  906   0.012   0.421   1.739
  321TIP3    H2  907   0.065   0.303   1.659
  322TIP3   OH2  908   6.734   0.682   5.162
  322TIP3    H1  909   6.701   0.665   5.250
  322TIP3    H2  910   6.741   0.778   5.157
  323TIP3   OH2  911   3.760   5.286   3.297
  323TIP3    H1  912   3.769   5.379   3.320
  323TIP3    H2  913   3.845   5.248   3.321
  324TIP3   OH2  914   6.026   2.844   2.521
  324TIP3    H1  915   6.065   2.903   2.586
  324TIP3    H2  916   5.986   2.902   2.457
  325TIP3   OH2  917   3.414   3.515   1.066
  325TIP3    H1  918   3.437   3.424   1.086
  325TIP3    H2  919   3.453   3.565   1.138
  326TIP3   OH2  920   7.468   1.334   0.560
  326TIP3    H1  921   7.436   1.256   0.514
  326TIP3    H2  922   7.551   1.355   0.517
  327TIP3   OH2  923   1.669   0.154   3.086
  327TIP3    H1  924   1.640   0.210   3.014
  327TIP3    H2  925   1.707   0.077   3.043
  328TIP3   OH2  926   1.671   0.507   1.979
  328TIP3    H1  927   1.589   0.471   1.946
  328TIP3    H2  928   1.700   0.443   2.044
  329TIP3   OH2  929   6.318   4.634   6.684
  329TIP3    H1  930   6.371   4.698   6.637
  329TIP3    H2  931   6.271   4.587   6.616
  330TIP3   OH2  932   5.973   2.818   4.182
  330TIP3    H1  933   6.068   2.826   4.181
  330TIP3    H2  934   5.946   2.865   4.261
  331TIP3   OH2  935   8.144   6.957   5.993
  331TIP3    H1  936   8.165   6.911   6.074
  331TIP3    H2  937   8.144   7.050   6.017
  332TIP3   OH2  938   7.334   1.414   6.528
  332TIP3    H1  939   7.331   1.497   6.480
  332TIP3    H2  940   7.409   1.367   6.492
  333TIP3   OH2  941   6.411   5.778   2.460
  333TIP3    H1  942   6.347   5.709   2.444
  333TIP3    H2  943   6.412   5.829   2.379
  334TIP3   OH2  944   5.946   1.897   1.811
  334TIP3    H1  945   5.910   1.938   1.889
  334TIP3    H2  946   5.937   1.803   1.827
  335TIP3   OH2  947   2.257   4.645   6.470
  335TIP3    H1  948   2.179   4.622   6.521
  335TIP3    H2  949   2.322   4.579   6.493
  336TIP3   OH2  950   6.148   2.146   4.655
  336TIP3    H1  951   6.198   2.226   4.667
  336TIP3    H2  952   6.100   2.159   4.573
  337TIP3   OH2  953   0.757   6.381   1.880
  337TIP3    H1  954   0.702   6.311   1.848
  337TIP3    H2  955   0.787   6.426   1.802
  338TIP3   OH2  956   2.965   6.852   3.449
  338TIP3    H1  957   2.878   6.856   3.409
  338TIP3    H2  958   3.012   6.927   3.412
  339TIP3   OH2  959   7.842   7.408   2.841
  339TIP3    H1  960   7.766   7.415   2.783
  339TIP3    H2  961   7.843   7.490   2.890
  340TIP3   OH2  962   7.319   5.940   2.109
  340TIP3    H1  963   7.370   5.979   2.180
  340TIP3    H2  964   7.295   5.853   2.141
  341TIP3   OH2  965   0.556   4.904   6.680
  341TIP3    H1  966   0.595   4.819   6.700
  341TIP3    H2  967   0.618   4.967   6.717
  342TIP3   OH2  968   4.410   0.919   0.105
  342TIP3    H1  969   4.433   0.958   0.189
  342TIP3    H2  970   4.361   0.840   0.127
  343TIP3   OH2  971   1.628   4.859   0.337
  343TIP3    H1  972   1.626   4.779   0.389
  343TIP3    H2  973   1.721   4.881   0.331
  344TIP3   OH2  974   4.421   2.927   0.275
  344TIP3    H1  975   4.364   2.980   0.219
  344TIP3    H2  976   4.365   2.855   0.306
  345TIP3   OH2  977   6.571   2.630   0.930
  345TIP3    H1  978   6.594   2.537   0.919
  345TIP3    H2  979   6.652   2.677   0.913
  346TIP3   OH2  980   1.713   2.462   5.766
  346TIP3    H1  981   1.763   2.458   5.685
  346TIP3    H2  982   1.774   2.433   5.834
  347TIP3   OH2  983   4.964   3.182   2.590
  347TIP3    H1  984   4.882   3.205   2.546
  347TIP3    H2  985   4.952   3.090   2.613
  348TIP3   OH2  986   5.367   0.867   6.106
  348TIP3    H1  987   5.408   0.870   6.193
  348TIP3    H2  988   5.383   0.954   6.069
  349TIP3   OH2  989   7.882   3.360   1.489
  349TIP3    H1  990   7.874   3.398   1.401
  349TIP3    H2  991   7.816   3.407   1.541
  350TIP3   OH2  992   0.993   7.552   4.546
  350TIP3    H1  993   0.908   7.588   4.574
  350TIP3    H2  994   0.975   7.512   4.461
  351TIP3   OH2  995   6.533   7.241   4.994
  351TIP3    H1  996   6.464   7.224   4.930
  351TIP3    H2  997   6.549   7.156   5.035
  352TIP3   OH2  998   7.706   4.648   5.516
  352TIP3    H1  999   7.783   4.655   5.573
  352TIP3    H2 1000   7.653   4.580   5.557
  353TIP3   OH2 1001   7.438   1.792   0.006
  353TIP3    H1 1002   7.405   1.786   0.096
  353TIP3    H2 1003   7.411   1.710  -0.035
  354TIP3   OH2 1004   0.624   5.810   2.889
  354TIP3    H1 1005   0.603   5.881   2.829
  354TIP3    H2 1006   0.702   5.840   2.936
  355TIP3   OH2 1007   6.787   1.460   1.810
  355TIP3    H1 1008   6.746   1.498   1.732
  355TIP3    H2 1009   6.768   1.366   1.804
  356TIP3   OH2 1010   7.948   1.670   2.386
  356TIP3    H1 1011   8.037   1.637   2.369
  356TIP3    H2 1012   7.944   1.683   2.480
  357TIP3   OH2 1013   7.027   7.123   5.015
  357TIP3    H1 1014   6.996   7.211   4.995
  357TIP3    H2 1015   6.953   7.081   5.058
  358TIP3   OH2 1016   2.891   4.215   2.731
  358TIP3    H1 1017   2.829   4.265   2.679
  358TIP3    H2 1018   2.880   4.124   2.701
  359TIP3   OH2 1019   3.572   1.336   2.320
  359TIP3    H1 1020   3.582   1.281   2.398
  359TIP3    H2 1021   3.564   1.425   2.353
  360TIP3   OH2 1022   1.586   2.757   4.530
  360TIP3    H1 1023   1.617   2.736   4.618
  360TIP3    H2 1024   1.578   2.672   4.487
  361TIP3   OH2 1025   6.006   2.481   1.236
  361TIP3    H1 1026   6.069   2.426   1.188
  361TIP3    H2 1027   5.957   2.419   1.290
  362TIP3   OH2 1028   5.861   3.744   4.631
  362TIP3    H1 1029   5.927   3.770   4.695
  362TIP3    H2 1030   5.785   3.798   4.651
  363TIP3   OH2 1031   3.994   3.299   4.949
  363TIP3    H1 1032   4.052   3.224   4.934
  363TIP3    H2 1033   4.014   3.360   4.878
  364TIP3   OH2 1034   4.654   5.123   2.017
  364TIP3    H1 1035   4.624   5.202   1.972
  364TIP3    H2 1036   4.650   5.145   2.110
  365TIP3   OH2 1037   2.642   6.215   0.466
  365TIP3    H1 1038   2.619   6.182   0.379
  365TIP3    H2 1039   2.685   6.300   0.449
  366TIP3   OH2 1040   2.013   0.240   0.548
  366TIP3    H1 1041   2.041   0.165   0.495
  366TIP3    H2 1042   1.918   0.236   0.547
  367TIP3   OH2 1043   1.286   6.545   2.837
  367TIP3    H1 1044   1.203   6.570   2.798
  367TIP3    H2 1045   1.338   6.511   2.764
  368TIP3   OH2 1046   0.063   4.200   4.668
  368TIP3    H1 1047  -0.006   4.229   4.728
  368TIP3    H2 1048   0.131   4.163   4.724
  369TIP3   OH2 1049   4.056   6.205   1.993
  369TIP3    H1 1050   3.970   6.240   1.971
  369TIP3    H2 1051   4.113   6.236   1.922
  370TIP3   OH2 1052   6.597   2.509   5.140
  370TIP3    H1 1053   6.645   2.466   5.211
  370TIP3    H2 1054   6.595   2.444   5.070
  371TIP3   OH2 1055   3.238   0.509   1.828
  371TIP3    H1 1056   3.269   0.453   1.899
  371TIP3    H2 1057   3.248   0.598   1.861
  372TIP3   OH2 1058   6.376   0.701   4.207
  372TIP3    H1 1059   6.352   0.664   4.122
  372TIP3    H2 1060   6.298   0.749   4.235
  373TIP3   OH2 1061   2.358   0.916   6.067
  373TIP3    H1 1062   2.349   0.821   6.071
  373TIP3    H2 1063   2.393   0.941   6.153
  374TIP3   OH2 1064   2.799   1.078   4.885
  374TIP3    H1 1065   2.724   1.038   4.841
  374TIP3    H2 1066   2.761   1.143   4.944
  375TIP3   OH2 1067   2.178   4.656   1.398
  375TIP3    H1 1068   2.256   4.618   1.440
  375TIP3    H2 1069   2.211   4.735   1.356
  376TIP3   OH2 1070   7.555   7.727   4.376
  376TIP3    H1 1071   7.612   7.790   4.333
  376TIP3    H2 1072   7.614   7.659   4.409
  377TIP3   OH2 1073   0.628   2.569   2.746
  377TIP3    H1 1074   0.718   2.571   2.779
  377TIP3    H2 1075   0.586   2.501   2.798
  378TIP3   OH2 1076   7.980   7.217   1.819
  378TIP3    H1 1077   8.036   7.199   1.895
  378TIP3    H2 1078   8.029   7.281   1.768
  379TIP3   OH2 1079   0.166   5.490   0.692
  379TIP3    H1 1080   0.109   5.413   0.686
  379TIP3    H2 1081   0.121   5.548   0.754
  380TIP3   OH2 1082   7.178   3.447   1.765
  380TIP3    H1 1083   7.189   3.489   1.680
  380TIP3    H2 1084   7.267   3.424   1.793
  381TIP3   OH2 1085   4.091   3.544   4.820
  381TIP3    H1 1086   4.165   3.594   4.854
  381TIP3    H2 1087   4.014   3.588   4.857
  382TIP3   OH2 1088   1.433   4.577   2.143
  382TIP3    H1 1089   1.364   4.520   2.177
  382TIP3    H2 1090   1.417   4.578   2.048
  383TIP3   OH2 1091   6.777   1.819   3.075
  383TIP3    H1 1092   6.855   1.834   3.129
  383TIP3    H2 1093   6.784   1.728   3.047
  384TIP3   OH2 1094   4.071   3.616   0.871
  384TIP3    H1 1095   3.999   3.579   0.820
  384TIP3    H2 1096   4.150   3.589   0.824
  385TIP3   OH2 1097   7.360   7.752   4.703
  385TIP3    H1 1098   7.455   7.765   4.700
  385TIP3    H2 1099   7.327   7.831   4.747
  386TIP3   OH2 1100   3.789   4.909   5.453
  386TIP3    H1 1101   3.710   4.953   5.483
  386TIP3    H2 1102   3.758   4.823   5.424
  387TIP3   OH2 1103   4.263   3.597   0.610
  387TIP3    H1 1104   4.242   3.548   0.531
  387TIP3    H2 1105   4.351   3.631   0.594
  388TIP3   OH2 1106   5.178   7.092   1.321
  388TIP3    H1 1107   5.161   7.086   1.415
  388TIP3    H2 1108   5.174   7.186   1.302
  389TIP3   OH2 1109   4.783   4.677  -0.002
  389TIP3    H1 1110   4.791   4.764   0.037
  389TIP3    H2 1111   4.689   4.663  -0.011
  390TIP3   OH2 1112   0.725   1.105   3.283
  390TIP3    H1 1113   0.674   1.025   3.291
  390TIP3    H2 1114   0.814   1.079   3.305
  391TIP3   OH2 1115   1.509   4.342   4.265
  391TIP3    H1 1116   1.457   4.349   4.345
  391TIP3    H2 1117   1.470   4.270   4.217
  392TIP3   OH2 1118   5.341   3.047   2.156
  392TIP3    H1 1119   5.416   3.006   2.114
  392TIP3    H2 1120   5.370   3.136   2.175
  393TIP3   OH2 1121   7.597   6.861   6.723
  393TIP3    H1 1122   7.505   6.885   6.712
  393TIP3    H2 1123   7.597   6.804   6.801
  394TIP3   OH2 1124   5.739   3.489   5.228
  394TIP3    H1 1125   5.754   3.406   5.275
  394TIP3    H2 1126   5.668   3.531   5.276
  395TIP3   OH2 1127   5.460   3.883   4.067
  395TIP3    H1 1128   5.443   3.973   4.092
  395TIP3    H2 1129   5.555   3.878   4.056
  396TIP3   OH2 1130   5.059   2.256   6.352
  396TIP3    H1 1131   4.987   2.310   6.383
  396TIP3    H2 1132   5.112   2.314   6.298
  397TIP3   OH2 1133   6.271   7.650   6.469
  397TIP3    H1 1134   6.207   7.722   6.470
  397TIP3    H2 1135   6.245   7.595   6.396
  398TIP3   OH2 1136   4.681   2.014   1.698
  398TIP3    H1 1137   4.586   2.021   1.712
  398TIP3    H2 1138   4.719   2.037   1.783
  399TIP3   OH2 1139   0.384   2.747   4.091
  399TIP3    H1 1140   0.292   2.747   4.066
  399TIP3    H2 1141   0.422   2.673   4.044
  400TIP3   OH2 1142   0.551   2.624   3.440
  400TIP3    H1 1143   0.630   2.658   3.484
  400TIP3    H2 1144   0.514   2.563   3.504
  401TIP3   OH2 1145   6.115   4.424   4.699
  401TIP3    H1 1146   6.161   4.347   4.666
  401TIP3    H2 1147   6.178   4.496   4.690
  402TIP3   OH2 1148   0.296   1.267   5.091
  402TIP3    H1 1149   0.330   1.349   5.128
  402TIP3    H2 1150   0.300   1.204   5.163
  403TIP3   OH2 1151   7.863   3.601   2.412
  403TIP3    H1 1152   7.796   3.593   2.345
  403TIP3    H2 1153   7.836   3.678   2.464
  404TIP3   OH2 1154   6.635   0.430   1.506
  404TIP3    H1 1155   6.540   0.439   1.497
  404TIP3    H2 1156   6.670   0.512   1.472
  405TIP3   OH2 1157   0.870   5.782   0.103
  405TIP3    H1 1158   0.909   5.712   0.157
  405TIP3    H2 1159   0.888   5.862   0.152
  406TIP3   OH2 1160   1.976   6.652   4.725
  406TIP3    H1 1161   1.919   6.710   4.674
  406TIP3    H2 1162   2.059   6.651   4.677
  407TIP3   OH2 1163   2.139   4.562   4.034
  407TIP3    H1 1164   2.080   4.530   4.102
  407TIP3    H2 1165   2.154   4.654   4.057
  408TIP3   OH2 1166   0.650   4.050   2.446
  408TIP3    H1 1167   0.679   4.096   2.367
  408TIP3    H2 1168   0.710   4.081   2.514
  409TIP3   OH2 1169   7.236   5.170   1.070
  409TIP3    H1 1170   7.306   5.140   1.128
  409TIP3    H2 1171   7.187   5.091   1.048
  410TIP3   OH2 1172   5.532   5.866   2.518
  410TIP3    H1 1173   5.576   5.808   2.456
  410TIP3    H2 1174   5.444   5.830   2.527
  411TIP3   OH2 1175   0.338   5.080   3.407
  411TIP3    H1 1176   0.378   5.160   3.440
  411TIP3    H2 1177   0.287   5.047   3.481
  412TIP3   OH2 1178   6.014   5.099   0.643
  412TIP3    H1 1179   6.074   5.071   0.574
  412TIP3    H2 1180   6.022   5.194   0.644
  413TIP3   OH2 1181   3.782   3.036   0.048
  413TIP3    H1 1182   3.723   2.964   0.026
  413TIP3    H2 1183   3.821   3.061  -0.035
  414TIP3   OH2 1184   4.681   3.629   6.369
  414TIP3    H1 1185   4.634   3.695   6.318
  414TIP3    H2 1186   4.731   3.580   6.304
  415TIP3   OH2 1187   2.561   2.653   1.452
  415TIP3    H1 1188   2.531   2.573   1.408
  415TIP3    H2 1189   2.626   2.622   1.515
  416TIP3   OH2 1190   1.691   5.886   0.103
  416TIP3    H1 1191   1.630   5.830   0.150
  416TIP3    H2 1192   1.724   5.831   0.032
  417TIP3   OH2 1193   1.007   1.688   1.901
  417TIP3    H1 1194   1.078   1.729   1.851
  417TIP3    H2 1195   1.040   1.682   1.990
  418TIP3   OH2 1196   4.654   0.731   5.661
  418TIP3    H1 1197   4.634   0.707   5.752
  418TIP3    H2 1198   4.735   0.685   5.642
  419TIP3   OH2 1199   1.826   3.692   4.937
  419TIP3    H1 1200   1.865   3.741   5.009
  419TIP3    H2 1201   1.846   3.600   4.956
  420TIP3   OH2 1202   4.334   0.198   3.193
  420TIP3    H1 1203   4.246   0.236   3.197
  420TIP3    H2 1204   4.353   0.169   3.282
  421TIP3   OH2 1205   3.341   0.587   0.100
  421TIP3    H1 1206   3.277   0.581   0.172
  421TIP3    H2 1207   3.388   0.668   0.118
  422TIP3   OH2 1208   0.333   0.351   4.416
  422TIP3    H1 1209   0.389   0.277   4.439
  422TIP3    H2 1210   0.271   0.358   4.488
  423TIP3   OH2 1211   0.762   7.301   2.415
  423TIP3    H1 1212   0.699   7.255   2.471
  423TIP3    H2 1213   0.830   7.330   2.476
  424TIP3   OH2 1214   5.143   0.777   5.894
  424TIP3    H1 1215   5.231   0.812   5.882
  424TIP3    H2 1216   5.155   0.692   5.935
  425TIP3   OH2 1217   4.670   1.923   0.469
  425TIP3    H1 1218   4.734   1.858   0.442
  425TIP3    H2 1219   4.617   1.878   0.535
  426TIP3   OH2 1220   5.615   6.069   1.227
  426TIP3    H1 1221   5.531   6.097   1.262
  426TIP3    H2 1222   5.674   6.141   1.247
  427TIP3   OH2 1223   2.325   0.011   5.216
  427TIP3    H1 1224   2.344  -0.003   5.123
  427TIP3    H2 1225   2.230   0.004   5.222
  428TIP3   OH2 1226   7.186   5.085   4.735
  428TIP3    H1 1227   7.211   5.014   4.675
  428TIP3    H2 1228   7.151   5.153   4.677
  429TIP3   OH2 1229   6.674   7.536   5.587
  429TIP3    H1 1230   6.762   7.531   5.551
  429TIP3    H2 1231   6.685   7.518   5.680
  430TIP3   OH2 1232   7.503   4.059   0.229
  430TIP3    H1 1233   7.454   4.131   0.269
  430TIP3    H2 1234   7.454   4.038   0.150
  431TIP3   OH2 1235   7.864   4.961   3.517
  431TIP3    H1 1236   7.919   4.944   3.593
  431TIP3    H2 1237   7.925   4.959   3.443
  432TIP3   OH2 1238   5.331   1.483   5.040
  432TIP3    H1 1239   5.297   1.445   4.959
  432TIP3    H2 1240   5.421   1.508   5.020
  433TIP3   OH2 1241   6.498   6.654   4.080
  433TIP3    H1 1242   6.456   6.686   4.160
  433TIP3    H2 1243   6.587   6.632   4.107
  434TIP3   OH2 1244   4.644   2.336   1.640
  434TIP3    H1 1245   4.668   2.340   1.547
  434TIP3    H2 1246   4.724   2.361   1.686
  435TIP3   OH2 1247   0.075   0.191   4.532
  435TIP3    H1 1248   0.054   0.193   4.625
  435TIP3    H2 1249   0.070   0.282   4.505
  436TIP3   OH2 1250   7.995   7.117   0.231
  436TIP3    H1 1251   8.057   7.163   0.288
  436TIP3    H2 1252   7.911   7.160   0.249
  437TIP3   OH2 1253   5.536   1.750   1.015
  437TIP3    H1 1254   5.550   1.659   0.987
  437TIP3    H2 1255   5.541   1.801   0.935
  438TIP3   OH2 1256   5.562   2.140   4.174
  438TIP3    H1 1257   5.563   2.082   4.250
  438TIP3    H2 1258   5.648   2.181   4.174
  439TIP3   OH2 1259   7.839   0.777   6.782
  439TIP3    H1 1260   7.772   0.779   6.714
  439TIP3    H2 1261   7.905   0.839   6.752
  440TIP3   OH2 1262   4.282   7.565   0.791
  440TIP3    H1 1263   4.345   7.620   0.839
  440TIP3    H2 1264   4.303   7.476   0.817
  441TIP3   OH2 1265   3.966   0.903   3.143
  441TIP3    H1 1266   3.914   0.866   3.214
  441TIP3    H2 1267   4.035   0.839   3.128
  442TIP3   OH2 1268   7.307   2.904   1.223
  442TIP3    H1 1269   7.270   2.883   1.137
  442TIP3    H2 1270   7.260   2.983   1.250
  443TIP3   OH2 1271   3.561   2.151   4.232
  443TIP3    H1 1272   3.564   2.199   4.315
  443TIP3    H2 1273   3.469   2.154   4.206
  444TIP3   OH2 1274   7.272   6.994   2.288
  444TIP3    H1 1275   7.310   7.057   2.227
  444TIP3    H2 1276   7.233   7.048   2.357
  445TIP3   OH2 1277   5.554   6.865   2.031
  445TIP3    H1 1278   5.492   6.900   1.967
  445TIP3    H2 1279   5.504   6.802   2.081
  446TIP3   OH2 1280   6.013   4.523   0.208
  446TIP3    H1 1281   6.011   4.456   0.277
  446TIP3    H2 1282   6.097   4.511   0.164
  447TIP3   OH2 1283   5.383   7.564   3.855
  447TIP3    H1 1284   5.440   7.487   3.853
  447TIP3    H2 1285   5.321   7.549   3.784
  448TIP3   OH2 1286   2.367   1.192   4.122
  448TIP3    H1 1287   2.309   1.203   4.197
  448TIP3    H2 1288   2.315   1.219   4.047
  449TIP3   OH2 1289   5.561   6.416   5.044
  449TIP3    H1 1290   5.549   6.321   5.048
  449TIP3    H2 1291   5.498   6.445   4.978
  450TIP3   OH2 1292   5.906   1.594   0.275
  450TIP3    H1 1293   5.836   1.610   0.211
  450TIP3    H2 1294   5.863   1.543   0.344
  451TIP3   OH2 1295   4.171   5.729   5.107
  451TIP3    H1 1296   4.149   5.802   5.165
  451TIP3    H2 1297   4.229   5.673   5.159
  452TIP3   OH2 1298   5.565   4.534   1.878
  452TIP3    H1 1299   5.637   4.579   1.923
  452TIP3    H2 1300   5.545   4.459   1.933
  453TIP3   OH2 1301   3.333   1.966   1.499
  453TIP3    H1 1302   3.302   1.875   1.505
  453TIP3    H2 1303   3.282   2.004   1.427
  454TIP3   OH2 1304   3.246   1.210   6.634
  454TIP3    H1 1305   3.340   1.198   6.619
  454TIP3    H2 1306   3.205   1.134   6.594
  455TIP3   OH2 1307   1.577   5.891   3.173
  455TIP3    H1 1308   1.557   5.830   3.244
  455TIP3    H2 1309   1.614   5.836   3.104
  456TIP3   OH2 1310   2.935   6.946   0.643
  456TIP3    H1 1311   2.849   6.959   0.683
  456TIP3    H2 1312   2.965   6.862   0.678
  457TIP3   OH2 1313   5.875   7.668   5.174
  457TIP3    H1 1314   5.816   7.604   5.134
  457TIP3    H2 1315   5.864   7.747   5.121
  458TIP3   OH2 1316   0.410   4.549   1.535
  458TIP3    H1 1317   0.316   4.543   1.513
  458TIP3    H2 1318   0.413   4.540   1.630
  459TIP3   OH2 1319   6.622   7.287   0.864
  459TIP3    H1 1320   6.703   7.252   0.901
  459TIP3    H2 1321   6.567   7.210   0.850
  460TIP3   OH2 1322   7.992   0.759   1.936
  460TIP3    H1 1323   7.981   0.665   1.952
  460TIP3    H2 1324   8.030   0.792   2.018
  461TIP3   OH2 1325   2.835   3.800   3.770
  461TIP3    H1 1326   2.827   3.893   3.748
  461TIP3    H2 1327   2.790   3.755   3.698
  462TIP3   OH2 1328   2.827   2.305   5.939
  462TIP3    H1 1329   2.882   2.382   5.959
  462TIP3    H2 1330   2.764   2.337   5.874
  463TIP3   OH2 1331   3.640   4.771   6.096
  463TIP3    H1 1332   3.614   4.785   6.187
  463TIP3    H2 1333   3.638   4.676   6.084
  464TIP3   OH2 1334   7.439   5.631   1.572
  464TIP3    H1 1335   7.435   5.634   1.477
  464TIP3    H2 1336   7.486   5.711   1.597
  465TIP3   OH2 1337   4.175   1.402   2.531
  465TIP3    H1 1338   4.223   1.425   2.610
  465TIP3    H2 1339   4.242   1.394   2.463
  466TIP3   OH2 1340   7.257   2.882   0.928
  466TIP3    H1 1341   7.232   2.966   0.890
  466TIP3    H2 1342   7.347   2.868   0.898
  467TIP3   OH2 1343   7.111   6.017   0.484
  467TIP3    H1 1344   7.100   6.014   0.579
  467TIP3    H2 1345   7.073   5.935   0.453
  468TIP3   OH2 1346   0.158   5.025   3.888
  468TIP3    H1 1347   0.094   4.955   3.895
  468TIP3    H2 1348   0.107   5.103   3.871
  469TIP3   OH2 1349   3.034   3.041   5.187
  469TIP3    H1 1350   3.122   3.025   5.154
  469TIP3    H2 1351   3.002   2.956   5.215
  470TIP3   OH2 1352   1.677   3.128   2.817
  470TIP3    H1 1353   1.744   3.190   2.846
  470TIP3    H2 1354   1.694   3.049   2.869
  471TIP3   OH2 1355   4.489   3.615   6.022
  471TIP3    H1 1356   4.479   3.648   6.111
  471TIP3    H2 1357   4.399   3.612   5.988
  472TIP3   OH2 1358   5.413   3.847   5.655
  472TIP3    H1 1359   5.371   3.902   5.589
  472TIP3    H2 1360   5.506   3.865   5.646
  473TIP3   OH2 1361   2.127   2.133   3.487
  473TIP3    H1 1362   2.042   2.134   3.532
  473TIP3    H2 1363   2.190   2.160   3.554
  474TIP3   OH2 1364   5.940   7.398   1.298
  474TIP3    H1 1365   5.876   7.468   1.314
  474TIP3    H2 1366   6.025   7.441   1.309
  475TIP3   OH2 1367   2.444   4.172   4.467
  475TIP3    H1 1368   2.407   4.117   4.535
  475TIP3    H2 1369   2.495   4.238   4.514
  476TIP3   OH2 1370   6.046   6.105   1.113
  476TIP3    H1 1371   6.137   6.075   1.103
  476TIP3    H2 1372   6.051   6.200   1.105
  477TIP3   OH2 1373   8.319   2.545   4.392
  477TIP3    H1 1374   8.276   2.463   4.414
  477TIP3    H2 1375   8.265   2.583   4.322
  478TIP3   OH2 1376   6.819   3.884   1.755
  478TIP3    H1 1377   6.867   3.863   1.675
  478TIP3    H2 1378   6.878   3.860   1.826
  479TIP3   OH2 1379   6.790   7.137   3.027
  479TIP3    H1 1380   6.719   7.172   2.974
  479TIP3    H2 1381   6.848   7.094   2.965
  480TIP3   OH2 1382   2.191   0.608   2.213
  480TIP3    H1 1383   2.142   0.550   2.155
  480TIP3    H2 1384   2.266   0.635   2.160
  481TIP3   OH2 1385   1.545   4.981   3.192
  481TIP3    H1 1386   1.494   5.016   3.265
  481TIP3    H2 1387   1.493   5.002   3.114
  482TIP3   OH2 1388   5.354   5.052   2.909
  482TIP3    H1 1389   5.341   5.145   2.892
  482TIP3    H2 1390   5.441   5.033   2.874
  483TIP3   OH2 1391   4.203   5.897   0.626
  483TIP3    H1 1392   4.194   5.885   0.531
  483TIP3    H2 1393   4.113   5.907   0.657
  484TIP3   OH2 1394   3.725   0.237   4.298
  484TIP3    H1 1395   3.692   0.311   4.348
  484TIP3    H2 1396   3.687   0.160   4.341
  485TIP3   OH2 1397   4.202   4.202   5.265
  485TIP3    H1 1398   4.233   4.292   5.254
  485TIP3    H2 1399   4.108   4.206   5.250
  486TIP3   OH2 1400   7.134   4.784   0.096
  486TIP3    H1 1401   7.146   4.877   0.113
  486TIP3    H2 1402   7.040   4.773   0.088
  487TIP3   OH2 1403   6.462   5.769   0.919
  487TIP3    H1 1404   6.493   5.755   0.830
  487TIP3    H2 1405   6.368   5.784   0.910
  488TIP3   OH2 1406   7.717   2.844   0.618
  488TIP3    H1 1407   7.727   2.933   0.585
  488TIP3    H2 1408   7.753   2.789   0.549
  489TIP3   OH2 1409   2.442   6.121   2.877
  489TIP3    H1 1410   2.379   6.052   2.858
  489TIP3    H2 1411   2.431   6.138   2.970
  490TIP3   OH2 1412   2.280   4.213   5.331
  490TIP3    H1 1413   2.328   4.222   5.414
  490TIP3    H2 1414   2.345   4.232   5.264
  491TIP3   OH2 1415   2.403   3.454   0.779
  491TIP3    H1 1416   2.437   3.523   0.836
  491TIP3    H2 1417   2.428   3.373   0.821
  492TIP3   OH2 1418   4.411   2.153   2.857
  492TIP3    H1 1419   4.464   2.214   2.806
  492TIP3    H2 1420   4.448   2.067   2.838
  493TIP3   OH2 1421   5.492   6.946   3.529
  493TIP3    H1 1422   5.402   6.946   3.496
  493TIP3    H2 1423   5.533   6.870   3.488
  494TIP3   OH2 1424   4.713   0.715   3.390
  494TIP3    H1 1425   4.791   0.667   3.417
  494TIP3    H2 1426   4.746   0.782   3.330
  495TIP3   OH2 1427   2.190   1.491   1.826
  495TIP3    H1 1428   2.206   1.398   1.807
  495TIP3    H2 1429   2.098   1.495   1.850
  496TIP3   OH2 1430   2.193   5.763   4.968
  496TIP3    H1 1431   2.201   5.759   4.873
  496TIP3    H2 1432   2.144   5.844   4.984
  497TIP3   OH2 1433   3.873   0.943   0.852
  497TIP3    H1 1434   3.867   0.892   0.770
  497TIP3    H2 1435   3.784   0.941   0.887
  498TIP3   OH2 1436   5.720   3.146   4.761
  498TIP3    H1 1437   5.809   3.111   4.759
  498TIP3    H2 1438   5.710   3.180   4.850
  499TIP3   OH2 1439   5.226   4.395   0.793
  499TIP3    H1 1440   5.188   4.327   0.848
  499TIP3    H2 1441   5.177   4.389   0.710
  500TIP3   OH2 1442   1.078   6.777   4.241
  500TIP3    H1 1443   1.048   6.817   4.159
  500TIP3    H2 1444   0.998   6.766   4.293
  501TIP3   OH2 1445   3.297   3.278   4.068
  501TIP3    H1 1446   3.307   3.333   3.991
  501TIP3    H2 1447   3.206   3.246   4.064
  502TIP3   OH2 1448   3.160   4.312   4.206
  502TIP3    H1 1449   3.106   4.239   4.175
  502TIP3    H2 1450   3.235   4.270   4.247
  503TIP3   OH2 1451   4.202   6.124   1.619
  503TIP3    H1 1452   4.115   6.098   1.650
  503TIP3    H2 1453   4.237   6.179   1.689
  504TIP3   OH2 1454   1.856   2.140   2.636
  504TIP3    H1 1455   1.859   2.069   2.701
  504TIP3    H2 1456   1.880   2.219   2.685
  505TIP3   OH2 1457   2.001   4.968   5.829
  505TIP3    H1 1458   1.955   4.888   5.850
  505TIP3    H2 1459   1.942   5.038   5.856
  506TIP3   OH2 1460   7.240   1.112   3.237
  506TIP3    H1 1461   7.279   1.036   3.282
  506TIP3    H2 1462   7.233   1.179   3.306
  507TIP3   OH2 1463   0.473   4.241   4.436
  507TIP3    H1 1464   0.545   4.280   4.387
  507TIP3    H2 1465   0.450   4.162   4.386
  508TIP3   OH2 1466   5.670   2.978   6.782
  508TIP3    H1 1467   5.600   2.999   6.720
  508TIP3    H2 1468   5.685   2.884   6.771
  509TIP3   OH2 1469   5.192   6.368   6.107
  509TIP3    H1 1470   5.154   6.309   6.042
  509TIP3    H2 1471   5.238   6.310   6.167
  510TIP3   OH2 1472   6.026   6.405   6.500
  510TIP3    H1 1473   5.968   6.351   6.446
  510TIP3    H2 1474   6.114   6.387   6.467
  511TIP3   OH2 1475   5.177   3.325   4.410
  511TIP3    H1 1476   5.220   3.259   4.464
  511TIP3    H2 1477   5.233   3.332   4.332
  512TIP3   OH2 1478   5.096   7.142   6.576
  512TIP3    H1 1479   5.063   7.157   6.665
  512TIP3    H2 1480   5.068   7.219   6.527
  513TIP3   OH2 1481   7.484   5.519   1.813
  513TIP3    H1 1482   7.470   5.539   1.720
  513TIP3    H2 1483   7.508   5.603   1.852
  514TIP3   OH2 1484   1.270   4.696   1.161
  514TIP3    H1 1485   1.208   4.713   1.232
  514TIP3    H2 1486   1.307   4.781   1.140
  515TIP3   OH2 1487   2.309   3.828   0.291
  515TIP3    H1 1488   2.224   3.817   0.335
  515TIP3    H2 1489   2.323   3.923   0.289
  516TIP3   OH2 1490   4.484   4.665   5.233
  516TIP3    H1 1491   4.415   4.706   5.286
  516TIP3    H2 1492   4.521   4.737   5.181
  517TIP3   OH2 1493   3.199   4.042   3.552
  517TIP3    H1 1494   3.147   4.060   3.631
  517TIP3    H2 1495   3.286   4.020   3.586
  518TIP3   OH2 1496   4.957   5.794   5.134
  518TIP3    H1 1497   4.918   5.760   5.214
  518TIP3    H2 1498   4.981   5.715   5.085
  519TIP3   OH2 1499   0.431   1.751   6.429
  519TIP3    H1 1500   0.452   1.760   6.336
  519TIP3    H2 1501   0.335   1.756   6.433
  520TIP3   OH2 1502   2.468   7.166   4.503
  520TIP3    H1 1503   2.513   7.159   4.587
  520TIP3    H2 1504   2.381   7.200   4.524
  521TIP3   OH2 1505   2.523   3.916   3.036
  521TIP3    H1 1506   2.557   3.884   2.953
  521TIP3    H2 1507   2.541   4.010   3.034
  522TIP3   OH2 1508   2.341   0.724   2.593
  522TIP3    H1 1509   2.353   0.712   2.688
  522TIP3    H2 1510   2.280   0.797   2.586
  523TIP3   OH2 1511   7.637   7.137   3.646
  523TIP3    H1 1512   7.571   7.094   3.700
  523TIP3    H2 1513   7.674   7.204   3.704
  524TIP3   OH2 1514   4.469   4.513   2.005
  524TIP3    H1 1515   4.534   4.578   2.034
  524TIP3    H2 1516   4.480   4.440   2.065
  525TIP3   OH2 1517   4.916   1.722   3.262
  525TIP3    H1 1518   4.919   1.673   3.344
  525TIP3    H2 1519   4.854   1.673   3.208
  526TIP3   OH2 1520   2.687   6.943   5.542
  526TIP3    H1 1521   2.781   6.923   5.542
  526TIP3    H2 1522   2.645   6.861   5.567
  527TIP3   OH2 1523   3.741   5.498   0.840
  527TIP3    H1 1524   3.646   5.491   0.829
  527TIP3    H2 1525   3.760   5.591   0.824
  528TIP3   OH2 1526   1.473   2.002   5.607
  528TIP3    H1 1527   1.484   1.907   5.612
  528TIP3    H2 1528   1.521   2.026   5.527
  529TIP3   OH2 1529   5.742   1.389   2.666
  529TIP3    H1 1530   5.829   1.425   2.648
  529TIP3    H2 1531   5.682   1.446   2.619
  530TIP3   OH2 1532   1.437   0.404   5.182
  530TIP3    H1 1533   1.517   0.417   5.233
  530TIP3    H2 1534   1.411   0.493   5.156
  531TIP3   OH2 1535   2.709   2.807   1.246
  531TIP3    H1 1536   2.748   2.752   1.179
  531TIP3    H2 1537   2.680   2.745   1.314
  532TIP3   OH2 1538   5.038   5.493   3.263
  532TIP3    H1 1539   5.124   5.534   3.272
  532TIP3    H2 1540   5.036   5.426   3.331
  533TIP3   OH2 1541   1.911   4.888   2.824
  533TIP3    H1 1542   1.984   4.865   2.881
  533TIP3    H2 1543   1.833   4.865   2.875
  534TIP3   OH2 1544   1.711   2.995   5.159
  534TIP3    H1 1545   1.796   3.020   5.123
  534TIP3    H2 1546   1.669   2.947   5.088
  535TIP3   OH2 1547   2.034   2.480   4.062
  535TIP3    H1 1548   2.120   2.504   4.028
  535TIP3    H2 1549   1.977   2.482   3.985
  536TIP3   OH2 1550   5.909   0.088   6.751
  536TIP3    H1 1551   5.874   0.174   6.778
  536TIP3    H2 1552   5.858   0.025   6.802
  537TIP3   OH2 1553   4.858   3.483   1.495
  537TIP3    H1 1554   4.874   3.403   1.444
  537TIP3    H2 1555   4.851   3.452   1.586
  538TIP3   OH2 1556   1.410   1.668   2.063
  538TIP3    H1 1557   1.439   1.608   1.995
  538TIP3    H2 1558   1.478   1.736   2.066
  539TIP3   OH2 1559   1.472   2.472   3.162
  539TIP3    H1 1560   1.378   2.453   3.165
  539TIP3    H2 1561   1.481   2.557   3.204
  540TIP3   OH2 1562   2.650   6.291   4.035
  540TIP3    H1 1563   2.679   6.226   4.099
  540TIP3    H2 1564   2.707   6.277   3.959
  541TIP3   OH2 1565   3.413   0.748   4.360
  541TIP3    H1 1566   3.419   0.710   4.448
  541TIP3    H2 1567   3.464   0.828   4.366
  542TIP3   OH2 1568   2.846   4.406   5.394
  542TIP3    H1 1569   2.897   4.487   5.403
  542TIP3    H2 1570   2.759   4.436   5.367
  543TIP3   OH2 1571   3.071   0.988   6.500
  543TIP3    H1 1572   3.011   0.942   6.441
  543TIP3    H2 1573   3.139   1.023   6.442
  544TIP3   OH2 1574   4.386   1.021   2.834
  544TIP3    H1 1575   4.318   0.963   2.801
  544TIP3    H2 1576   4.466   0.968   2.834
  545TIP3   OH2 1577   1.038   0.036   2.844
  545TIP3    H1 1578   1.060   0.093   2.770
  545TIP3    H2 1579   0.961   0.077   2.884
  546TIP3   OH2 1580   5.229   7.519   2.735
  546TIP3    H1 1581   5.219   7.425   2.750
  546TIP3    H2 1582   5.147   7.557   2.766
  547TIP3   OH2 1583   4.974   3.590   5.227
  547TIP3    H1 1584   4.891   3.544   5.215
  547TIP3    H2 1585   4.970   3.624   5.316
  548TIP3   OH2 1586   5.107   0.960   6.453
  548TIP3    H1 1587   5.036   1.013   6.416
  548TIP3    H2 1588   5.116   0.886   6.393
  549TIP3   OH2 1589   4.335   2.868   3.173
  549TIP3    H1 1590   4.296   2.824   3.249
  549TIP3    H2 1591   4.352   2.798   3.111
  550TIP3   OH2 1592   6.990   4.661   6.405
  550TIP3    H1 1593   7.036   4.681   6.487
  550TIP3    H2 1594   6.951   4.745   6.379
  551TIP3   OH2 1595   1.193   4.190   2.597
  551TIP3    H1 1596   1.137   4.267   2.600
  551TIP3    H2 1597   1.134   4.119   2.572
  552TIP3   OH2 1598   3.657   4.391   0.250
  552TIP3    H1 1599   3.708   4.322   0.291
  552TIP3    H2 1600   3.650   4.459   0.317
  553TIP3   OH2 1601   8.335   7.751   2.837
  553TIP3    H1 1602   8.319   7.795   2.754
  553TIP3    H2 1603   8.248   7.728   2.869
  554TIP3   OH2 1604   8.262   4.179   6.678
  554TIP3    H1 1605   8.169   4.180   6.659
  554TIP3    H2 1606   8.285   4.270   6.694
  555TIP3   OH2 1607   5.219   4.608   4.571
  555TIP3    H1 1608   5.250   4.547   4.638
  555TIP3    H2 1609   5.174   4.553   4.507
  556TIP3   OH2 1610   1.612   3.757   6.244
  556TIP3    H1 1611   1.701   3.765   6.277
  556TIP3    H2 1612   1.567   3.702   6.309
  557TIP3   OH2 1613   7.416   2.985   0.657
  557TIP3    H1 1614   7.458   2.905   0.688
  557TIP3    H2 1615   7.445   2.994   0.567
  558TIP3   OH2 1616   6.661   6.653   5.388
  558TIP3    H1 1617   6.602   6.586   5.423
  558TIP3    H2 1618   6.664   6.720   5.457
  559TIP3   OH2 1619   3.820   2.756   1.148
  559TIP3    H1 1620   3.822   2.848   1.175
  559TIP3    H2 1621   3.910   2.725   1.162
  560TIP3   OH2 1622   4.061   6.777   1.840
  560TIP3    H1 1623   3.993   6.714   1.815
  560TIP3    H2 1624   4.035   6.808   1.926
  561TIP3   OH2 1625   7.919   2.149   2.244
  561TIP3    H1 1626   7.932   2.186   2.331
  561TIP3    H2 1627   7.885   2.222   2.192
  562TIP3   OH2 1628   6.002   0.302   1.937
  562TIP3    H1 1629   5.960   0.219   1.914
  562TIP3    H2 1630   6.054   0.282   2.014
  563TIP3   OH2 1631   6.164   0.439   0.072
  563TIP3    H1 1632   6.108   0.375   0.028
  563TIP3    H2 1633   6.118   0.458   0.154
  564TIP3   OH2 1634   4.079   5.364   4.091
  564TIP3    H1 1635   4.102   5.320   4.009
  564TIP3    H2 1636   4.149   5.340   4.151
  565TIP3   OH2 1637   7.315   2.837   5.219
  565TIP3    H1 1638   7.283   2.797   5.138
  565TIP3    H2 1639   7.235   2.859   5.267
  566TIP3   OH2 1640   7.386   4.253   4.391
  566TIP3    H1 1641   7.397   4.348   4.384
  566TIP3    H2 1642   7.406   4.220   4.304
  567TIP3   OH2 1643   1.377   2.030   0.516
  567TIP3    H1 1644   1.296   2.014   0.565
  567TIP3    H2 1645   1.390   2.125   0.522
  568TIP3   OH2 1646   0.252   2.533   4.230
  568TIP3    H1 1647   0.273   2.617   4.190
  568TIP3    H2 1648   0.174   2.551   4.283
  569TIP3   OH2 1649   3.184   3.775   6.653
  569TIP3    H1 1650   3.205   3.786   6.561
  569TIP3    H2 1651   3.222   3.690   6.676
  570TIP3   OH2 1652   2.306   2.583   5.329
  570TIP3    H1 1653   2.259   2.594   5.411
  570TIP3    H2 1654   2.393   2.551   5.354
  571TIP3   OH2 1655   6.697   1.170   1.004
  571TIP3    H1 1656   6.637   1.161   1.078
  571TIP3    H2 1657   6.764   1.103   1.019
  572TIP3   OH2 1658   0.033   5.941   6.291
  572TIP3    H1 1659  -0.033   5.888   6.334
  572TIP3    H2 1660   0.076   5.989   6.362
  573TIP3   OH2 1661   3.690   3.004   5.595
  573TIP3    H1 1662   3.714   3.063   5.523
  573TIP3    H2 1663   3.635   2.938   5.554
  574TIP3   OH2 1664   5.995   1.711   3.302
  574TIP3    H1 1665   6.002   1.803   3.276
  574TIP3    H2 1666   5.952   1.668   3.228
  575TIP3   OH2 1667   2.368   3.690   6.461
  575TIP3    H1 1668   2.454   3.733   6.458
  575TIP3    H2 1669   2.386   3.606   6.504
  576TIP3   OH2 1670   1.503   2.419   5.958
  576TIP3    H1 1671   1.540   2.463   6.035
  576TIP3    H2 1672   1.569   2.432   5.890
  577TIP3   OH2 1673   5.740   1.741   2.355
  577TIP3    H1 1674   5.653   1.751   2.316
  577TIP3    H2 1675   5.747   1.647   2.373
  578TIP3   OH2 1676   2.155   1.789   3.917
  578TIP3    H1 1677   2.083   1.832   3.963
  578TIP3    H2 1678   2.233   1.819   3.962
  579TIP3   OH2 1679   4.229   3.742   1.152
  579TIP3    H1 1680   4.197   3.829   1.130
  579TIP3    H2 1681   4.294   3.722   1.085
  580TIP3   OH2 1682   3.413   6.815   2.838
  580TIP3    H1 1683   3.478   6.784   2.775
  580TIP3    H2 1684   3.380   6.735   2.879
  581TIP3   OH2 1685   5.892   2.465   0.786
  581TIP3    H1 1686   5.984   2.470   0.813
  581TIP3    H2 1687   5.879   2.543   0.731
  582TIP3   OH2 1688   6.653   3.565   2.108
  582TIP3    H1 1689   6.585   3.499   2.120
  582TIP3    H2 1690   6.735   3.516   2.116
  583TIP3   OH2 1691   2.554   6.661   6.409
  583TIP3    H1 1692   2.509   6.663   6.325
  583TIP3    H2 1693   2.515   6.732   6.460
  584TIP3   OH2 1694   2.685   6.221   4.804
  584TIP3    H1 1695   2.674   6.140   4.855
  584TIP3    H2 1696   2.605   6.227   4.752
  585TIP3   OH2 1697   6.630   6.188   2.173
  585TIP3    H1 1698   6.695   6.180   2.103
  585TIP3    H2 1699   6.551   6.220   2.130
  586TIP3   OH2 1700   2.800   4.215   5.556
  586TIP3    H1 1701   2.820   4.304   5.527
  586TIP3    H2 1702   2.729   4.226   5.619
  587TIP3   OH2 1703   0.805   6.524   1.172
  587TIP3    H1 1704   0.856   6.571   1.238
  587TIP3    H2 1705   0.761   6.454   1.221
  588TIP3   OH2 1706   3.918   4.410   0.696
  588TIP3    H1 1707   3.872   4.326   0.692
  588TIP3    H2 1708   3.877   4.455   0.770
  589TIP3   OH2 1709   5.222   3.803   2.109
  589TIP3    H1 1710   5.172   3.724   2.129
  589TIP3    H2 1711   5.225   3.807   2.013
  590TIP3   OH2 1712   7.630   5.860   5.283
  590TIP3    H1 1713   7.689   5.867   5.208
  590TIP3    H2 1714   7.553   5.911   5.258
  591TIP3   OH2 1715   3.699   5.910   1.853
  591TIP3    H1 1716   3.625   5.939   1.907
  591TIP3    H2 1717   3.661   5.889   1.768
  592TIP3   OH2 1718   7.439   2.482   4.906
  592TIP3    H1 1719   7.500   2.452   4.838
  592TIP3    H2 1720   7.446   2.416   4.975
  593TIP3   OH2 1721   6.431   5.207   4.835
  593TIP3    H1 1722   6.365   5.257   4.883
  593TIP3    H2 1723   6.511   5.216   4.887
  594TIP3   OH2 1724   4.077   6.290   4.995
  594TIP3    H1 1725   4.090   6.384   4.980
  594TIP3    H2 1726   4.090   6.250   4.909
  595TIP3   OH2 1727   7.876   6.385   0.702
  595TIP3    H1 1728   7.817   6.317   0.668
  595TIP3    H2 1729   7.824   6.465   0.699
  596TIP3   OH2 1730   0.415   2.690   0.048
  596TIP3    H1 1731   0.507   2.716   0.050
  596TIP3    H2 1732   0.368   2.766   0.080
  597TIP3   OH2 1733   5.368   7.490   4.201
  597TIP3    H1 1734   5.295   7.437   4.169
  597TIP3    H2 1735   5.351   7.499   4.295
  598TIP3   OH2 1736   4.196   2.764   0.310
  598TIP3    H1 1737   4.191   2.789   0.217
  598TIP3    H2 1738   4.130   2.819   0.353
  599TIP3   OH2 1739   3.141   0.857   2.247
  599TIP3    H1 1740   3.127   0.941   2.202
  599TIP3    H2 1741   3.084   0.861   2.323
  600TIP3   OH2 1742   5.305   4.858   4.315
  600TIP3    H1 1743   5.335   4.949   4.317
  600TIP3    H2 1744   5.233   4.855   4.378
  601TIP3   OH2 1745   5.930   5.961   4.573
  601TIP3    H1 1746   5.867   6.029   4.596
  601TIP3    H2 1747   5.885   5.910   4.505
  602TIP3   OH2 1748   2.283   6.842   2.028
  602TIP3    H1 1749   2.215   6.834   2.095
  602TIP3    H2 1750   2.252   6.911   1.970
  603TIP3   OH2 1751   1.112   7.277   4.211
  603TIP3    H1 1752   1.060   7.236   4.280
  603TIP3    H2 1753   1.139   7.361   4.248
  604TIP3   OH2 1754   3.352   6.076   3.962
  604TIP3    H1 1755   3.380   6.049   4.050
  604TIP3    H2 1756   3.387   6.164   3.952
  605TIP3   OH2 1757   6.982   1.771   2.836
  605TIP3    H1 1758   7.064   1.732   2.865
  605TIP3    H2 1759   6.918   1.746   2.903
  606TIP3   OH2 1760   7.871   5.621   4.207
  606TIP3    H1 1761   7.943   5.681   4.226
  606TIP3    H2 1762   7.888   5.590   4.118
  607TIP3   OH2 1763   0.993   7.356   5.224
  607TIP3    H1 1764   1.076   7.366   5.177
  607TIP3    H2 1765   0.976   7.262   5.222
  608TIP3   OH2 1766   3.743   6.697   0.949
  608TIP3    H1 1767   3.651   6.671   0.943
  608TIP3    H2 1768   3.767   6.720   0.859
  609TIP3   OH2 1769   6.033   1.849   5.206
  609TIP3    H1 1770   5.938   1.859   5.199
  609TIP3    H2 1771   6.049   1.837   5.299
  610TIP3   OH2 1772   7.566   4.827   6.522
  610TIP3    H1 1773   7.547   4.845   6.430
  610TIP3    H2 1774   7.494   4.868   6.570
  611TIP3   OH2 1775   5.375   5.923   6.609
  611TIP3    H1 1776   5.289   5.898   6.641
  611TIP3    H2 1777   5.362   6.007   6.564
  612TIP3   OH2 1778   5.507   7.838   5.934
  612TIP3    H1 1779   5.533   7.746   5.928
  612TIP3    H2 1780   5.428   7.837   5.988
  613TIP3   OH2 1781   5.856   1.969   0.130
  613TIP3    H1 1782   5.816   1.980   0.216
  613TIP3    H2 1783   5.893   1.881   0.131
  614TIP3   OH2 1784   3.028   6.375   6.473
  614TIP3    H1 1785   3.057   6.463   6.450
  614TIP3    H2 1786   2.932   6.381   6.475
  615TIP3   OH2 1787   1.374   1.976   1.587
  615TIP3    H1 1788   1.382   1.921   1.509
  615TIP3    H2 1789   1.433   1.937   1.651
  616TIP3   OH2 1790   6.503   5.856   3.446
  616TIP3    H1 1791   6.436   5.892   3.389
  616TIP3    H2 1792   6.574   5.830   3.386
  617TIP3   OH2 1793   7.436   7.824   1.625
  617TIP3    H1 1794   7.485   7.742   1.630
  617TIP3    H2 1795   7.351   7.799   1.588
  618TIP3   OH2 1796   0.783   7.712   0.954
  618TIP3    H1 1797   0.826   7.668   0.881
  618TIP3    H2 1798   0.702   7.662   0.967
  619TIP3   OH2 1799   0.999   5.664   1.797
  619TIP3    H1 1800   1.073   5.608   1.819
  619TIP3    H2 1801   0.969   5.631   1.712
  620TIP3   OH2 1802   0.229   1.166   4.688
  620TIP3    H1 1803   0.292   1.169   4.615
  620TIP3    H2 1804   0.155   1.116   4.653
  621TIP3   OH2 1805   0.963   3.066   5.488
  621TIP3    H1 1806   0.897   3.129   5.459
  621TIP3    H2 1807   1.016   3.050   5.410
  622TIP3   OH2 1808   1.563   5.359   2.132
  622TIP3    H1 1809   1.536   5.267   2.130
  622TIP3    H2 1810   1.495   5.404   2.181
  623TIP3   OH2 1811   0.179   0.228   3.525
  623TIP3    H1 1812   0.139   0.163   3.468
  623TIP3    H2 1813   0.271   0.228   3.501
  624TIP3   OH2 1814   2.614   6.130   5.712
  624TIP3    H1 1815   2.633   6.217   5.675
  624TIP3    H2 1816   2.612   6.145   5.806
  625TIP3   OH2 1817   6.667   2.860   4.452
  625TIP3    H1 1818   6.704   2.786   4.500
  625TIP3    H2 1819   6.740   2.921   4.443
  626TIP3   OH2 1820   5.825   4.399   0.895
  626TIP3    H1 1821   5.788   4.473   0.848
  626TIP3    H2 1822   5.782   4.402   0.981
  627TIP3   OH2 1823   0.544   5.035   1.228
  627TIP3    H1 1824   0.527   4.955   1.279
  627TIP3    H2 1825   0.546   5.105   1.293
  628TIP3   OH2 1826   4.371   5.767   0.181
  628TIP3    H1 1827   4.430   5.704   0.221
  628TIP3    H2 1828   4.294   5.715   0.156
  629TIP3   OH2 1829   1.210   2.941   1.795
  629TIP3    H1 1830   1.234   3.007   1.730
  629TIP3    H2 1831   1.231   2.857   1.753
  630TIP3   OH2 1832   3.108   7.756   1.406
  630TIP3    H1 1833   3.151   7.715   1.482
  630TIP3    H2 1834   3.177   7.765   1.341
  631TIP3   OH2 1835   4.124   6.819   0.807
  631TIP3    H1 1836   4.093   6.794   0.894
  631TIP3    H2 1837   4.047   6.858   0.764
  632TIP3   OH2 1838   7.634   0.583   6.618
  632TIP3    H1 1839   7.572   0.510   6.627
  632TIP3    H2 1840   7.720   0.541   6.618
  633TIP3   OH2 1841   5.789   7.232   0.018
  633TIP3    H1 1842   5.784   7.198   0.107
  633TIP3    H2 1843   5.702   7.266   0.000
  634TIP3   OH2 1844   4.864   5.698   3.299
  634TIP3    H1 1845   4.812   5.676   3.375
  634TIP3    H2 1846   4.916   5.619   3.281
  635TIP3   OH2 1847   1.003   7.385   2.607
  635TIP3    H1 1848   1.077   7.435   2.572
  635TIP3    H2 1849   1.041   7.304   2.639
  636TIP3   OH2 1850   1.926   2.330   5.141
  636TIP3    H1 1851   1.997   2.381   5.101
  636TIP3    H2 1852   1.954   2.239   5.132
  637TIP3   OH2 1853   6.905   6.059   2.147
  637TIP3    H1 1854   6.946   6.141   2.175
  637TIP3    H2 1855   6.953   6.035   2.067
  638TIP3   OH2 1856   0.877   6.909   0.921
  638TIP3    H1 1857   0.832   6.985   0.885
  638TIP3    H2 1858   0.811   6.840   0.921
  639TIP3   OH2 1859   1.935   1.451   1.923
  639TIP3    H1 1860   1.888   1.398   1.987
  639TIP3    H2 1861   1.883   1.443   1.843
  640TIP3   OH2 1862   1.057   7.730   5.992
  640TIP3    H1 1863   1.076   7.695   5.905
  640TIP3    H2 1864   1.070   7.825   5.983
  641TIP3   OH2 1865   0.455   5.518   6.120
  641TIP3    H1 1866   0.500   5.600   6.099
  641TIP3    H2 1867   0.372   5.544   6.159
  642TIP3   OH2 1868   0.267   0.445   5.929
  642TIP3    H1 1869   0.196   0.497   5.967
  642TIP3    H2 1870   0.226   0.360   5.910
  643TIP3   OH2 1871   5.424   6.635   1.789
  643TIP3    H1 1872   5.450   6.595   1.872
  643TIP3    H2 1873   5.506   6.668   1.751
  644TIP3   OH2 1874   4.275   5.602   6.745
  644TIP3    H1 1875   4.241   5.607   6.656
  644TIP3    H2 1876   4.327   5.521   6.747
  645TIP3   OH2 1877   6.264   1.162   3.738
  645TIP3    H1 1878   6.247   1.115   3.819
  645TIP3    H2 1879   6.334   1.113   3.696
  646TIP3   OH2 1880   1.930   1.867   1.907
  646TIP3    H1 1881   1.946   1.960   1.892
  646TIP3    H2 1882   1.942   1.856   2.001
  647TIP3   OH2 1883   7.031   5.727   1.612
  647TIP3    H1 1884   7.069   5.802   1.658
  647TIP3    H2 1885   7.088   5.653   1.635
  648TIP3   OH2 1886   3.777   2.407   4.276
  648TIP3    H1 1887   3.752   2.452   4.195
  648TIP3    H2 1888   3.694   2.382   4.316
  649TIP3   OH2 1889   6.297   5.594   3.207
  649TIP3    H1 1890   6.203   5.579   3.194
  649TIP3    H2 1891   6.309   5.687   3.191
  650TIP3   OH2 1892   3.245   1.795   1.238
  650TIP3    H1 1893   3.199   1.874   1.207
  650TIP3    H2 1894   3.176   1.742   1.277
  651TIP3   OH2 1895   6.031   4.095   5.503
  651TIP3    H1 1896   5.956   4.047   5.470
  651TIP3    H2 1897   5.995   4.154   5.569
  652TIP3   OH2 1898   4.515   5.004   1.322
  652TIP3    H1 1899   4.599   4.963   1.339
  652TIP3    H2 1900   4.461   4.980   1.398
  653TIP3   OH2 1901   8.313   2.826   4.593
  653TIP3    H1 1902   8.228   2.868   4.604
  653TIP3    H2 1903   8.313   2.753   4.655
  654TIP3   OH2 1904   3.717   1.511   1.365
  654TIP3    H1 1905   3.769   1.555   1.299
  654TIP3    H2 1906   3.694   1.579   1.428
  655TIP3   OH2 1907   7.928   0.517   2.069
  655TIP3    H1 1908   7.906   0.498   2.161
  655TIP3    H2 1909   7.901   0.438   2.022
  656TIP3   OH2 1910   0.668   2.532   0.494
  656TIP3    H1 1911   0.693   2.590   0.566
  656TIP3    H2 1912   0.607   2.470   0.533
  657TIP3   OH2 1913   4.532   5.113   4.935
  657TIP3    H1 1914   4.468   5.176   4.903
  657TIP3    H2 1915   4.615   5.142   4.897
  658TIP3   OH2 1916   4.796   7.626   4.216
  658TIP3    H1 1917   4.823   7.715   4.196
  658TIP3    H2 1918   4.700   7.628   4.215
  659TIP3   OH2 1919   4.580   1.573   6.081
  659TIP3    H1 1920   4.489   1.592   6.103
  659TIP3    H2 1921   4.627   1.653   6.105
  660TIP3   OH2 1922   4.371   5.004   5.192
  660TIP3    H1 1923   4.443   4.986   5.131
  660TIP3    H2 1924   4.383   4.941   5.263
  661TIP3   OH2 1925   6.167   4.519   2.773
  661TIP3    H1 1926   6.163   4.424   2.785
  661TIP3    H2 1927   6.260   4.540   2.771
  662TIP3   OH2 1928   3.810   5.653   5.778
  662TIP3    H1 1929   3.735   5.682   5.725
  662TIP3    H2 1930   3.829   5.565   5.746
  663TIP3   OH2 1931   4.622   1.240   1.300
  663TIP3    H1 1932   4.528   1.223   1.307
  663TIP3    H2 1933   4.661   1.188   1.371
  664TIP3   OH2 1934   2.773   2.550   2.498
  664TIP3    H1 1935   2.737   2.523   2.414
  664TIP3    H2 1936   2.719   2.624   2.525
  665TIP3   OH2 1937   4.797   0.513   1.716
  665TIP3    H1 1938   4.843   0.580   1.767
  665TIP3    H2 1939   4.704   0.537   1.724
  666TIP3   OH2 1940   0.739   4.800   4.294
  666TIP3    H1 1941   0.647   4.815   4.317
  666TIP3    H2 1942   0.788   4.850   4.359
  667TIP3   OH2 1943   0.029   2.766   0.547
  667TIP3    H1 1944  -0.019   2.702   0.599
  667TIP3    H2 1945   0.017   2.739   0.456
  668TIP3   OH2 1946   5.317   0.120   6.813
  668TIP3    H1 1947   5.239   0.145   6.763
  668TIP3    H2 1948   5.380   0.094   6.746
  669TIP3   OH2 1949   7.203   3.162   2.782
  669TIP3    H1 1950   7.208   3.237   2.840
  669TIP3    H2 1951   7.265   3.182   2.711
  670TIP3   OH2 1952   3.553   1.148   4.209
  670TIP3    H1 1953   3.545   1.066   4.161
  670TIP3    H2 1954   3.525   1.126   4.298
  671TIP3   OH2 1955   3.371   7.415   3.030
  671TIP3    H1 1956   3.304   7.367   2.982
  671TIP3    H2 1957   3.449   7.360   3.023
  672TIP3   OH2 1958   1.255   7.233   2.354
  672TIP3    H1 1959   1.331   7.177   2.372
  672TIP3    H2 1960   1.204   7.231   2.434
  673TIP3   OH2 1961   6.433   5.059   6.371
  673TIP3    H1 1962   6.398   5.149   6.371
  673TIP3    H2 1963   6.527   5.071   6.381
  674TIP3   OH2 1964   3.425   0.142   5.120
  674TIP3    H1 1965   3.505   0.160   5.171
  674TIP3    H2 1966   3.364   0.211   5.147
  675TIP3   OH2 1967   5.685   3.095   2.493
  675TIP3    H1 1968   5.639   3.170   2.457
  675TIP3    H2 1969   5.775   3.104   2.460
  676TIP3   OH2 1970   2.715   5.665   4.163
  676TIP3    H1 1971   2.665   5.636   4.087
  676TIP3    H2 1972   2.700   5.760   4.168
  677TIP3   OH2 1973   2.166   4.067   0.580
  677TIP3    H1 1974   2.125   4.072   0.494
  677TIP3    H2 1975   2.153   3.976   0.607
  678TIP3   OH2 1976   5.428   7.218   0.428
  678TIP3    H1 1977   5.449   7.302   0.468
  678TIP3    H2 1978   5.420   7.237   0.334
  679TIP3   OH2 1979   1.042   2.508   2.508
  679TIP3    H1 1980   1.030   2.413   2.519
  679TIP3    H2 1981   1.110   2.516   2.441
  680TIP3   OH2 1982   0.444   4.588   4.331
  680TIP3    H1 1983   0.445   4.679   4.362
  680TIP3    H2 1984   0.405   4.539   4.403
  681TIP3   OH2 1985   1.650   5.260   4.353
  681TIP3    H1 1986   1.656   5.232   4.261
  681TIP3    H2 1987   1.716   5.208   4.398
  682TIP3   OH2 1988   7.075   0.847   5.099
  682TIP3    H1 1989   7.065   0.783   5.170
  682TIP3    H2 1990   7.043   0.801   5.021
  683TIP3   OH2 1991   3.591   3.919   2.674
  683TIP3    H1 1992   3.590   3.864   2.753
  683TIP3    H2 1993   3.560   3.861   2.604
  684TIP3   OH2 1994   2.946   6.852   5.460
  684TIP3    H1 1995   3.002   6.929   5.469
  684TIP3    H2 1996   2.929   6.845   5.366
  685TIP3   OH2 1997   3.682   3.627   4.998
  685TIP3    H1 1998   3.635   3.654   4.919
  685TIP3    H2 1999   3.740   3.701   5.018
  686TIP3   OH2 2000   1.390   5.000   5.773
  686TIP3    H1 2001   1.391   4.911   5.740
  686TIP3    H2 2002   1.448   5.048   5.714
  687TIP3   OH2 2003   3.900   5.780   0.484
  687TIP3    H1 2004   3.836   5.795   0.415
  687TIP3    H2 2005   3.975   5.740   0.440
  688TIP3   OH2 2006   5.297   2.024   5.060
  688TIP3    H1 2007   5.211   1.990   5.084
  688TIP3    H2 2008   5.287   2.119   5.061
  689TIP3   OH2 2009   5.122   1.863   5.631
  689TIP3    H1 2010   5.089   1.842   5.718
  689TIP3    H2 2011   5.047   1.849   5.573
  690TIP3   OH2 2012   6.419   0.185   0.662
  690TIP3    H1 2013   6.461   0.155   0.582
  690TIP3    H2 2014   6.327   0.196   0.638
  691TIP3   OH2 2015   1.334   2.010   2.511
  691TIP3    H1 2016   1.402   1.944   2.497
  691TIP3    H2 2017   1.299   2.028   2.424
  692TIP3   OH2 2018   0.619   1.756   4.868
  692TIP3    H1 2019   0.578   1.712   4.794
  692TIP3    H2 2020   0.633   1.846   4.838
  693TIP3   OH2 2021   2.369   5.458   2.200
  693TIP3    H1 2022   2.315   5.401   2.146
  693TIP3    H2 2023   2.307   5.508   2.253
  694TIP3   OH2 2024   3.960   0.091   4.239
  694TIP3    H1 2025   3.940   0.051   4.154
  694TIP3    H2 2026   3.893   0.157   4.252
  695TIP3   OH2 2027   0.506   3.686   6.083
  695TIP3    H1 2028   0.520   3.721   5.996
  695TIP3    H2 2029   0.572   3.729   6.138
  696TIP3   OH2 2030   5.909   6.201   5.821
  696TIP3    H1 2031   5.942   6.150   5.747
  696TIP3    H2 2032   5.851   6.265   5.782
  697TIP3   OH2 2033   6.201   4.469   6.464
  697TIP3    H1 2034   6.266   4.497   6.399
  697TIP3    H2 2035   6.215   4.375   6.473
  698TIP3   OH2 2036   5.560   7.591   5.843
  698TIP3    H1 2037   5.533   7.631   5.760
  698TIP3    H2 2038   5.487   7.534   5.866
  699TIP3   OH2 2039   5.962   0.838   1.437
  699TIP3    H1 2040   6.055   0.847   1.460
  699TIP3    H2 2041   5.956   0.752   1.396
  700TIP3   OH2 2042   6.055   0.789   0.752
  700TIP3    H1 2043   6.093   0.789   0.840
  700TIP3    H2 2044   5.965   0.760   0.765
  701TIP3   OH2 2045   2.440   6.511   1.943
  701TIP3    H1 2046   2.405   6.574   1.880
  701TIP3    H2 2047   2.533   6.533   1.949
  702TIP3   OH2 2048   2.751   5.540   5.200
  702TIP3    H1 2049   2.730   5.507   5.112
  702TIP3    H2 2050   2.727   5.468   5.258
  703TIP3   OH2 2051   2.591   3.642   1.570
  703TIP3    H1 2052   2.520   3.596   1.525
  703TIP3    H2 2053   2.554   3.664   1.656
  704TIP3   OH2 2054   1.067   0.140   1.846
  704TIP3    H1 2055   1.016   0.128   1.926
  704TIP3    H2 2056   1.152   0.171   1.876
  705TIP3   OH2 2057   1.543   1.226   2.898
  705TIP3    H1 2058   1.609   1.292   2.877
  705TIP3    H2 2059   1.472   1.242   2.835
  706TIP3   OH2 2060   4.914   0.155   5.367
  706TIP3    H1 2061   4.889   0.180   5.457
  706TIP3    H2 2062   4.906   0.060   5.366
  707TIP3   OH2 2063   5.609   0.574   4.254
  707TIP3    H1 2064   5.529   0.585   4.306
  707TIP3    H2 2065   5.669   0.528   4.312
  708TIP3   OH2 2066   2.104   5.312   1.566
  708TIP3    H1 2067   2.156   5.312   1.646
  708TIP3    H2 2068   2.068   5.224   1.560
  709TIP3   OH2 2069   3.203   2.057   2.732
  709TIP3    H1 2070   3.276   2.105   2.692
  709TIP3    H2 2071   3.136   2.054   2.664
  710TIP3   OH2 2072   2.204   3.448   2.239
  710TIP3    H1 2073   2.201   3.508   2.165
  710TIP3    H2 2074   2.284   3.472   2.286
  711TIP3   OH2 2075   3.016   2.234   1.016
  711TIP3    H1 2076   3.076   2.272   0.952
  711TIP3    H2 2077   3.028   2.288   1.094
  712TIP3   OH2 2078   6.167   0.365   3.124
  712TIP3    H1 2079   6.086   0.347   3.171
  712TIP3    H2 2080   6.155   0.453   3.088
  713TIP3   OH2 2081   2.623   1.456   6.659
  713TIP3    H1 2082   2.599   1.540   6.698
  713TIP3    H2 2083   2.718   1.451   6.669
  714TIP3   OH2 2084   0.346   6.684   1.116
  714TIP3    H1 2085   0.298   6.707   1.196
  714TIP3    H2 2086   0.403   6.759   1.101
  715TIP3   OH2 2087   2.789   4.525   6.637
  715TIP3    H1 2088   2.731   4.450   6.623
  715TIP3    H2 2089   2.877   4.490   6.623
  716TIP3   OH2 2090   0.367   7.646   0.764
  716TIP3    H1 2091   0.336   7.577   0.823
  716TIP3    H2 2092   0.339   7.728   0.805
  717TIP3   OH2 2093   0.915   2.175   1.808
  717TIP3    H1 2094   0.885   2.125   1.885
  717TIP3    H2 2095   0.961   2.250   1.845
  718TIP3   OH2 2096   4.117   1.176   6.343
  718TIP3    H1 2097   4.197   1.153   6.389
  718TIP3    H2 2098   4.140   1.255   6.294
  719TIP3   OH2 2099   4.024   3.650   5.198
  719TIP3    H1 2100   3.968   3.705   5.142
  719TIP3    H2 2101   4.016   3.689   5.285
  720TIP3   OH2 2102   2.521   1.486   0.743
  720TIP3    H1 2103   2.612   1.481   0.716
  720TIP3    H2 2104   2.521   1.544   0.820
  721TIP3   OH2 2105   5.360   6.132   4.923
  721TIP3    H1 2106   5.318   6.165   4.843
  721TIP3    H2 2107   5.347   6.037   4.919
  722TIP3   OH2 2108   7.733   5.717   4.836
  722TIP3    H1 2109   7.668   5.781   4.805
  722TIP3    H2 2110   7.691   5.632   4.822
  723TIP3   OH2 2111   8.002   4.408   6.737
  723TIP3    H1 2112   7.948   4.336   6.704
  723TIP3    H2 2113   8.044   4.373   6.815
  724TIP3   OH2 2114   0.287   5.487   4.252
  724TIP3    H1 2115   0.368   5.536   4.243
  724TIP3    H2 2116   0.309   5.399   4.221
  725TIP3   OH2 2117   6.380   5.873   6.665
  725TIP3    H1 2118   6.408   5.852   6.576
  725TIP3    H2 2119   6.355   5.965   6.661
  726TIP3   OH2 2120   2.178   0.266   3.686
  726TIP3    H1 2121   2.096   0.269   3.636
  726TIP3    H2 2122   2.158   0.317   3.765
  727TIP3   OH2 2123   6.900   1.003   1.076
  727TIP3    H1 2124   6.886   1.037   1.164
  727TIP3    H2 2125   6.993   1.017   1.059
  728TIP3   OH2 2126   0.811   0.197   0.063
  728TIP3    H1 2127   0.770   0.274   0.102
  728TIP3    H2 2128   0.739   0.145   0.030
  729TIP3   OH2 2129   5.082   3.002   5.208
  729TIP3    H1 2130   5.037   3.053   5.275
  729TIP3    H2 2131   5.115   2.925   5.254
  730TIP3   OH2 2132   0.110   6.358   1.847
  730TIP3    H1 2133   0.162   6.342   1.926
  730TIP3    H2 2134   0.034   6.407   1.878
  731TIP3   OH2 2135   7.172   2.362   5.639
  731TIP3    H1 2136   7.206   2.369   5.550
  731TIP3    H2 2137   7.102   2.297   5.632
  732TIP3   OH2 2138   3.252   3.757   3.872
  732TIP3    H1 2139   3.283   3.793   3.789
  732TIP3    H2 2140   3.333   3.737   3.921
  733TIP3   OH2 2141   6.817   0.708   2.988
  733TIP3    H1 2142   6.860   0.679   2.907
  733TIP3    H2 2143   6.812   0.629   3.042
  734TIP3   OH2 2144   7.689   4.411   4.646
  734TIP3    H1 2145   7.612   4.429   4.701
  734TIP3    H2 2146   7.654   4.403   4.558
  735TIP3   OH2 2147   3.823   1.642   2.390
  735TIP3    H1 2148   3.729   1.624   2.393
  735TIP3    H2 2149   3.862   1.575   2.446
  736TIP3   OH2 2150   7.275   4.822   1.981
  736TIP3    H1 2151   7.184   4.852   1.992
  736TIP3    H2 2152   7.280   4.741   2.032
  737TIP3   OH2 2153   4.535   0.513   1.053
  737TIP3    H1 2154   4.620   0.496   1.094
  737TIP3    H2 2155   4.549   0.497   0.960
  738TIP3   OH2 2156   1.569   2.822   3.197
  738TIP3    H1 2157   1.580   2.795   3.106
  738TIP3    H2 2158   1.478   2.798   3.218
  739TIP3   OH2 2159   7.325   7.834   1.053
  739TIP3    H1 2160   7.298   7.825   0.962
  739TIP3    H2 2161   7.324   7.745   1.088
  740TIP3   OH2 2162   3.785   4.607   5.712
  740TIP3    H1 2163   3.735   4.535   5.751
  740TIP3    H2 2164   3.828   4.648   5.787
  741TIP3   OH2 2165   3.383   3.821   2.859
  741TIP3    H1 2166   3.335   3.872   2.794
  741TIP3    H2 2167   3.384   3.876   2.937
  742TIP3   OH2 2168   4.136   0.245   6.180
  742TIP3    H1 2169   4.077   0.229   6.253
  742TIP3    H2 2170   4.106   0.327   6.141
  743TIP3   OH2 2171   3.366   1.487   3.134
  743TIP3    H1 2172   3.360   1.583   3.136
  743TIP3    H2 2173   3.449   1.469   3.090
  744TIP3   OH2 2174   4.583   1.237   2.512
  744TIP3    H1 2175   4.518   1.225   2.443
  744TIP3    H2 2176   4.532   1.236   2.593
  745TIP3   OH2 2177   4.921   4.654   5.028
  745TIP3    H1 2178   4.917   4.590   4.956
  745TIP3    H2 2179   5.002   4.703   5.011
  746TIP3   OH2 2180   1.065   7.512   0.441
  746TIP3    H1 2181   1.077   7.527   0.535
  746TIP3    H2 2182   1.144   7.550   0.401
  747TIP3   OH2 2183   2.946   7.166   0.179
  747TIP3    H1 2184   3.029   7.173   0.225
  747TIP3    H2 2185   2.962   7.104   0.108
  748TIP3   OH2 2186   0.756   2.933   1.715
  748TIP3    H1 2187   0.773   2.896   1.628
  748TIP3    H2 2188   0.810   3.012   1.718
  749TIP3   OH2 2189   5.178   6.132   3.433
  749TIP3    H1 2190   5.153   6.041   3.447
  749TIP3    H2 2191   5.100   6.182   3.457
  750TIP3   OH2 2192   0.971   3.996   2.120
  750TIP3    H1 2193   1.041   3.949   2.075
  750TIP3    H2 2194   0.923   3.928   2.167
  751TIP3   OH2 2195   5.483   2.521   3.887
  751TIP3    H1 2196   5.573   2.532   3.920
  751TIP3    H2 2197   5.479   2.429   3.860
  752TIP3   OH2 2198   3.774   0.907   4.758
  752TIP3    H1 2199   3.810   0.969   4.821
  752TIP3    H2 2200   3.849   0.881   4.704
  753TIP3   OH2 2201   5.319   2.575   5.617
  753TIP3    H1 2202   5.370   2.517   5.674
  753TIP3    H2 2203   5.352   2.557   5.529
  754TIP3   OH2 2204   5.364   4.218   6.211
  754TIP3    H1 2205   5.300   4.153   6.183
  754TIP3    H2 2206   5.313   4.281   6.262
  755TIP3   OH2 2207   1.975   1.686   1.675
  755TIP3    H1 2208   2.001   1.667   1.765
  755TIP3    H2 2209   2.052   1.728   1.636
  756TIP3   OH2 2210   4.277   6.294   0.077
  756TIP3    H1 2211   4.348   6.356   0.058
  756TIP3    H2 2212   4.197   6.345   0.066
  757TIP3   OH2 2213   5.534   7.283   1.316
  757TIP3    H1 2214   5.526   7.374   1.291
  757TIP3    H2 2215   5.518   7.234   1.236
  758TIP3   OH2 2216   2.108   7.051   3.771
  758TIP3    H1 2217   2.146   7.137   3.790
  758TIP3    H2 2218   2.087   7.014   3.857
  759TIP3   OH2 2219   2.896   5.202   4.570
  759TIP3    H1 2220   2.834   5.245   4.511
  759TIP3    H2 2221   2.946   5.143   4.513
  760TIP3   OH2 2222   6.872   3.298   6.084
  760TIP3    H1 2223   6.861   3.389   6.058
  760TIP3    H2 2224   6.792   3.277   6.132
  761TIP3   OH2 2225   4.486   7.311   4.444
  761TIP3    H1 2226   4.542   7.252   4.494
  761TIP3    H2 2227   4.516   7.399   4.468
  762TIP3   OH2 2228   7.723   0.579   0.804
  762TIP3    H1 2229   7.714   0.574   0.709
  762TIP3    H2 2230   7.767   0.663   0.819
  763TIP3   OH2 2231   6.624   7.049   3.260
  763TIP3    H1 2232   6.634   7.109   3.334
  763TIP3    H2 2233   6.680   7.087   3.192
  764TIP3   OH2 2234   2.656   6.716   4.841
  764TIP3    H1 2235   2.658   6.621   4.854
  764TIP3    H2 2236   2.609   6.727   4.758
  765TIP3   OH2 2237   1.130   1.939   1.392
  765TIP3    H1 2238   1.034   1.938   1.391
  765TIP3    H2 2239   1.155   1.895   1.310
  766TIP3   OH2 2240   3.616   0.622   2.069
  766TIP3    H1 2241   3.538   0.645   2.121
  766TIP3    H2 2242   3.606   0.672   1.988
  767TIP3   OH2 2243   6.523   2.166   6.160
  767TIP3    H1 2244   6.524   2.131   6.249
  767TIP3    H2 2245   6.580   2.243   6.164
  768TIP3   OH2 2246   1.972   0.209   0.837
  768TIP3    H1 2247   1.877   0.218   0.838
  768TIP3    H2 2248   1.993   0.182   0.748
  769TIP3   OH2 2249   0.448   5.482   1.875
  769TIP3    H1 2250   0.481   5.453   1.960
  769TIP3    H2 2251   0.396   5.559   1.894
  770TIP3   OH2 2252   6.056   2.611   1.884
  770TIP3    H1 2253   6.016   2.642   1.965
  770TIP3    H2 2254   6.120   2.679   1.862
  771TIP3   OH2 2255   5.639   5.685   4.639
  771TIP3    H1 2256   5.683   5.707   4.721
  771TIP3    H2 2257   5.699   5.625   4.595
  772TIP3   OH2 2258   2.543   1.376   6.196
  772TIP3    H1 2259   2.627   1.410   6.167
  772TIP3    H2 2260   2.562   1.333   6.279
  773TIP3   OH2 2261   4.524   2.809   1.764
  773TIP3    H1 2262   4.438   2.833   1.730
  773TIP3    H2 2263   4.530   2.856   1.847
  774TIP3   OH2 2264   0.521   5.640   3.327
  774TIP3    H1 2265   0.501   5.653   3.234
  774TIP3    H2 2266   0.563   5.553   3.330
  775TIP3   OH2 2267   3.879   4.843   3.525
  775TIP3    H1 2268   3.974   4.838   3.510
  775TIP3    H2 2269   3.843   4.873   3.442
  776TIP3   OH2 2270   0.177   5.778   5.499
  776TIP3    H1 2271   0.206   5.786   5.408
  776TIP3    H2 2272   0.221   5.850   5.544
  777TIP3   OH2 2273   1.098   0.432   6.192
  777TIP3    H1 2274   1.191   0.451   6.205
  777TIP3    H2 2275   1.072   0.486   6.118
  778TIP3   OH2 2276   5.842   4.495   5.035
  778TIP3    H1 2277   5.849   4.573   4.980
  778TIP3    H2 2278   5.910   4.507   5.102
  779TIP3   OH2 2279   2.368   7.624   5.016
  779TIP3    H1 2280   2.458   7.607   5.044
  779TIP3    H2 2281   2.371   7.617   4.920
  780TIP3   OH2 2282   7.190   4.777   6.086
  780TIP3    H1 2283   7.203   4.845   6.153
  780TIP3    H2 2284   7.261   4.715   6.101
  781TIP3   OH2 2285   1.451   4.922   6.524
  781TIP3    H1 2286   1.452   5.016   6.506
  781TIP3    H2 2287   1.377   4.889   6.473
  782TIP3   OH2 2288   7.155   4.099   4.855
  782TIP3    H1 2289   7.109   4.161   4.912
  782TIP3    H2 2290   7.141   4.131   4.767
  783TIP3   OH2 2291   0.528   2.046   1.840
  783TIP3    H1 2292   0.496   2.112   1.779
  783TIP3    H2 2293   0.491   1.964   1.807
  784TIP3   OH2 2294   6.758   1.412   0.368
  784TIP3    H1 2295   6.830   1.417   0.304
  784TIP3    H2 2296   6.793   1.457   0.445
  785TIP3   OH2 2297   2.628   7.450   2.448
  785TIP3    H1 2298   2.568   7.445   2.523
  785TIP3    H2 2299   2.585   7.511   2.388
  786TIP3   OH2 2300   7.694   1.684   1.123
  786TIP3    H1 2301   7.657   1.771   1.140
  786TIP3    H2 2302   7.730   1.691   1.035
  787TIP3   OH2 2303   0.399   1.796   6.141
  787TIP3    H1 2304   0.317   1.790   6.092
  787TIP3    H2 2305   0.431   1.885   6.125
  788TIP3   OH2 2306   7.584   7.532   2.188
  788TIP3    H1 2307   7.667   7.572   2.164
  788TIP3    H2 2308   7.584   7.531   2.284
  789TIP3   OH2 2309   7.799   6.451   1.734
  789TIP3    H1 2310   7.735   6.452   1.805
  789TIP3    H2 2311   7.837   6.539   1.735
  790TIP3   OH2 2312   0.881   4.590   3.406
  790TIP3    H1 2313   0.938   4.542   3.346
  790TIP3    H2 2314   0.794   4.556   3.388
  791TIP3   OH2 2315   2.483   5.631   0.364
  791TIP3    H1 2316   2.538   5.708   0.352
  791TIP3    H2 2317   2.394   5.661   0.347
  792TIP3   OH2 2318   7.805   3.977   3.754
  792TIP3    H1 2319   7.758   4.036   3.813
  792TIP3    H2 2320   7.738   3.918   3.720
  793TIP3   OH2 2321   0.620   6.831   2.297
  793TIP3    H1 2322   0.696   6.778   2.272
  793TIP3    H2 2323   0.544   6.777   2.274
  794TIP3   OH2 2324   6.726   1.106   5.919
  794TIP3    H1 2325   6.698   1.017   5.940
  794TIP3    H2 2326   6.768   1.138   5.998
  795TIP3   OH2 2327   7.715   6.755   5.305
  795TIP3    H1 2328   7.642   6.703   5.269
  795TIP3    H2 2329   7.740   6.814   5.233
  796TIP3   OH2 2330   2.158   5.881   2.492
  796TIP3    H1 2331   2.252   5.898   2.492
  796TIP3    H2 2332   2.118   5.967   2.502
  797TIP3   OH2 2333   1.442   1.556   5.447
  797TIP3    H1 2334   1.448   1.621   5.377
  797TIP3    H2 2335   1.348   1.550   5.467
  798TIP3   OH2 2336   6.630   2.419   2.218
  798TIP3    H1 2337   6.702   2.449   2.273
  798TIP3    H2 2338   6.576   2.496   2.203
  799TIP3   OH2 2339   0.826   3.585   4.545
  799TIP3    H1 2340   0.869   3.514   4.592
  799TIP3    H2 2341   0.749   3.544   4.505
  800TIP3   OH2 2342   1.782   7.763   6.381
  800TIP3    H1 2343   1.745   7.687   6.336
  800TIP3    H2 2344   1.705   7.816   6.404
  801TIP3   OH2 2345   7.810   3.491   3.285
  801TIP3    H1 2346   7.801   3.397   3.269
  801TIP3    H2 2347   7.809   3.531   3.198
  802TIP3   OH2 2348   7.680   5.433   4.712
  802TIP3    H1 2349   7.751   5.402   4.767
  802TIP3    H2 2350   7.665   5.362   4.649
  803TIP3   OH2 2351   1.439   2.666   4.310
  803TIP3    H1 2352   1.418   2.759   4.311
  803TIP3    H2 2353   1.407   2.633   4.394
  804TIP3   OH2 2354   2.357   4.702   2.252
  804TIP3    H1 2355   2.398   4.615   2.248
  804TIP3    H2 2356   2.423   4.758   2.292
  805TIP3   OH2 2357   2.785   5.699   4.775
  805TIP3    H1 2358   2.875   5.682   4.804
  805TIP3    H2 2359   2.736   5.710   4.857
  806TIP3   OH2 2360   0.148   3.293   1.545
  806TIP3    H1 2361   0.065   3.333   1.521
  806TIP3    H2 2362   0.139   3.201   1.519
  807TIP3   OH2 2363   6.505   7.416   3.811
  807TIP3    H1 2364   6.494   7.341   3.870
  807TIP3    H2 2365   6.454   7.392   3.733
  808TIP3   OH2 2366   7.613   1.068   1.790
  808TIP3    H1 2367   7.694   1.037   1.750
  808TIP3    H2 2368   7.607   1.022   1.874
  809TIP3   OH2 2369   3.612   0.913   6.421
  809TIP3    H1 2370   3.701   0.937   6.396
  809TIP3    H2 2371   3.618   0.821   6.446
  810TIP3   OH2 2372   5.513   2.139   6.511
  810TIP3    H1 2373   5.583   2.157   6.448
  810TIP3    H2 2374   5.528   2.201   6.582
  811TIP3   OH2 2375   6.707   7.678   1.726
  811TIP3    H1 2376   6.783   7.726   1.693
  811TIP3    H2 2377   6.725   7.667   1.820
  812TIP3   OH2 2378   7.196   1.518   3.647
  812TIP3    H1 2379   7.211   1.428   3.676
  812TIP3    H2 2380   7.276   1.541   3.601
  813TIP3   OH2 2381   3.309   3.826   5.232
  813TIP3    H1 2382   3.305   3.752   5.293
  813TIP3    H2 2383   3.296   3.786   5.146
  814TIP3   OH2 2384   6.423   3.311   1.020
  814TIP3    H1 2385   6.493   3.280   0.962
  814TIP3    H2 2386   6.346   3.261   0.994
  815TIP3   OH2 2387   5.054   5.168   4.774
  815TIP3    H1 2388   5.066   5.219   4.694
  815TIP3    H2 2389   5.090   5.082   4.754
  816TIP3   OH2 2390   6.580   3.064   2.178
  816TIP3    H1 2391   6.644   3.132   2.197
  816TIP3    H2 2392   6.606   2.990   2.233
  817TIP3   OH2 2393   1.495   5.783   0.295
  817TIP3    H1 2394   1.508   5.866   0.342
  817TIP3    H2 2395   1.499   5.716   0.363
  818TIP3   OH2 2396   7.781   4.798   1.605
  818TIP3    H1 2397   7.827   4.861   1.549
  818TIP3    H2 2398   7.706   4.847   1.639
  819TIP3   OH2 2399   8.050   5.994   5.371
  819TIP3    H1 2400   8.145   5.998   5.359
  819TIP3    H2 2401   8.024   5.912   5.329
  820TIP3   OH2 2402   4.635   4.402   1.412
  820TIP3    H1 2403   4.721   4.418   1.375
  820TIP3    H2 2404   4.628   4.463   1.486
  821TIP3   OH2 2405   7.462   1.408   3.115
  821TIP3    H1 2406   7.550   1.372   3.123
  821TIP3    H2 2407   7.472   1.485   3.059
  822TIP3   OH2 2408   6.601   0.953   0.281
  822TIP3    H1 2409   6.667   0.955   0.351
  822TIP3    H2 2410   6.567   1.042   0.278
  823TIP3   OH2 2411   7.512   1.031   0.571
  823TIP3    H1 2412   7.521   0.939   0.595
  823TIP3    H2 2413   7.540   1.035   0.479
  824TIP3   OH2 2414   3.177   6.797   1.902
  824TIP3    H1 2415   3.216   6.840   1.826
  824TIP3    H2 2416   3.088   6.776   1.875
  825TIP3   OH2 2417   8.091   5.237   2.085
  825TIP3    H1 2418   8.129   5.291   2.015
  825TIP3    H2 2419   8.158   5.235   2.153
  826TIP3   OH2 2420   4.384   1.195   2.320
  826TIP3    H1 2421   4.409   1.103   2.321
  826TIP3    H2 2422   4.310   1.200   2.260
  827TIP3   OH2 2423   1.245   3.770   1.068
  827TIP3    H1 2424   1.239   3.790   0.975
  827TIP3    H2 2425   1.328   3.810   1.096
  828TIP3   OH2 2426   5.701   7.530   2.983
  828TIP3    H1 2427   5.681   7.538   2.889
  828TIP3    H2 2428   5.791   7.562   2.991
  829TIP3   OH2 2429   6.821   2.391   5.611
  829TIP3    H1 2430   6.857   2.460   5.555
  829TIP3    H2 2431   6.887   2.322   5.610
  830TIP3   OH2 2432   5.209   0.505   3.392
  830TIP3    H1 2433   5.143   0.554   3.343
  830TIP3    H2 2434   5.234   0.562   3.464
  831TIP3   OH2 2435   8.231   2.702   5.774
  831TIP3    H1 2436   8.246   2.639   5.704
  831TIP3    H2 2437   8.167   2.763   5.738
  832TIP3   OH2 2438   5.349   4.387   2.940
  832TIP3    H1 2439   5.302   4.330   3.001
  832TIP3    H2 2440   5.308   4.369   2.855
  833TIP3   OH2 2441   1.738   4.943   6.410
  833TIP3    H1 2442   1.657   4.920   6.455
  833TIP3    H2 2443   1.741   4.887   6.333
  834TIP3   OH2 2444   0.180   2.423   2.841
  834TIP3    H1 2445   0.213   2.507   2.810
  834TIP3    H2 2446   0.173   2.435   2.936
  835TIP3   OH2 2447   6.913   7.826   6.177
  835TIP3    H1 2448   6.886   7.752   6.230
  835TIP3    H2 2449   6.877   7.809   6.090
  836TIP3   OH2 2450   7.505   0.593   0.990
  836TIP3    H1 2451   7.538   0.589   1.080
  836TIP3    H2 2452   7.583   0.576   0.936
  837TIP3   OH2 2453   6.902   1.962   0.622
  837TIP3    H1 2454   6.875   1.871   0.621
  837TIP3    H2 2455   6.826   2.011   0.591
  838TIP3   OH2 2456   1.147   6.054   6.670
  838TIP3    H1 2457   1.213   6.115   6.638
  838TIP3    H2 2458   1.072   6.110   6.691
  839TIP3   OH2 2459   1.656   0.187   3.946
  839TIP3    H1 2460   1.607   0.136   4.010
  839TIP3    H2 2461   1.711   0.122   3.902
  840TIP3   OH2 2462   2.602   5.114   3.169
  840TIP3    H1 2463   2.642   5.163   3.097
  840TIP3    H2 2464   2.554   5.180   3.219
  841TIP3   OH2 2465   5.454   5.638   3.843
  841TIP3    H1 2466   5.505   5.590   3.779
  841TIP3    H2 2467   5.422   5.715   3.795
  842TIP3   OH2 2468   1.083   6.863   5.532
  842TIP3    H1 2469   1.036   6.936   5.492
  842TIP3    H2 2470   1.050   6.786   5.487
  843TIP3   OH2 2471   6.654   4.011   4.451
  843TIP3    H1 2472   6.603   3.946   4.499
  843TIP3    H2 2473   6.717   4.044   4.515
  844TIP3   OH2 2474   5.121   3.117   2.015
  844TIP3    H1 2475   5.160   3.203   1.997
  844TIP3    H2 2476   5.164   3.089   2.096
  845TIP3   OH2 2477   1.229   3.183   5.109
  845TIP3    H1 2478   1.199   3.110   5.164
  845TIP3    H2 2479   1.321   3.194   5.133
  846TIP3   OH2 2480   4.602   6.683   1.403
  846TIP3    H1 2481   4.509   6.689   1.423
  846TIP3    H2 2482   4.643   6.657   1.486
  847TIP3   OH2 2483   4.121   2.854   0.882
  847TIP3    H1 2484   4.186   2.832   0.815
  847TIP3    H2 2485   4.038   2.857   0.834
  848TIP3   OH2 2486   5.529   7.321   3.862
  848TIP3    H1 2487   5.612   7.274   3.872
  848TIP3    H2 2488   5.467   7.254   3.833
  849TIP3   OH2 2489   1.892   2.091   1.157
  849TIP3    H1 2490   1.975   2.096   1.203
  849TIP3    H2 2491   1.912   2.046   1.076
  850TIP3   OH2 2492   1.776   2.276   0.538
  850TIP3    H1 2493   1.794   2.201   0.596
  850TIP3    H2 2494   1.819   2.254   0.456
  851TIP3   OH2 2495   5.654   3.147   5.228
  851TIP3    H1 2496   5.597   3.073   5.249
  851TIP3    H2 2497   5.670   3.189   5.313
  852TIP3   OH2 2498   1.156   4.165   5.071
  852TIP3    H1 2499   1.128   4.075   5.089
  852TIP3    H2 2500   1.248   4.156   5.045
  853TIP3   OH2 2501   4.635   5.369   2.750
  853TIP3    H1 2502   4.658   5.312   2.823
  853TIP3    H2 2503   4.696   5.344   2.680
  854TIP3   OH2 2504   2.124   6.516   2.295
  854TIP3    H1 2505   2.134   6.488   2.386
  854TIP3    H2 2506   2.031   6.531   2.284
  855TIP3   OH2 2507   7.035   3.196   4.304
  855TIP3    H1 2508   7.046   3.266   4.240
  855TIP3    H2 2509   7.003   3.122   4.252
  856TIP3   OH2 2510   1.216   6.960   6.184
  856TIP3    H1 2511   1.277   6.919   6.123
  856TIP3    H2 2512   1.270   7.019   6.237
  857TIP3   OH2 2513   6.854   2.244   2.908
  857TIP3    H1 2514   6.813   2.204   2.984
  857TIP3    H2 2515   6.880   2.170   2.853
  858TIP3   OH2 2516   1.222   2.420   0.389
  858TIP3    H1 2517   1.162   2.355   0.352
  858TIP3    H2 2518   1.226   2.490   0.324
  859TIP3   OH2 2519   7.774   0.804   4.306
  859TIP3    H1 2520   7.694   0.856   4.301
  859TIP3    H2 2521   7.745   0.720   4.340
  860TIP3   OH2 2522   1.797   0.611   5.120
  860TIP3    H1 2523   1.826   0.694   5.157
  860TIP3    H2 2524   1.746   0.570   5.190
  861TIP3   OH2 2525   3.648   2.476   0.696
  861TIP3    H1 2526   3.688   2.390   0.689
  861TIP3    H2 2527   3.663   2.502   0.787
  862TIP3   OH2 2528   2.731   0.713   3.095
  862TIP3    H1 2529   2.648   0.678   3.126
  862TIP3    H2 2530   2.709   0.763   3.017
  863TIP3   OH2 2531   7.349   0.820   0.346
  863TIP3    H1 2532   7.260   0.791   0.328
  863TIP3    H2 2533   7.376   0.767   0.422
  864TIP3   OH2 2534   5.886   2.528   6.100
  864TIP3    H1 2535   5.832   2.563   6.029
  864TIP3    H2 2536   5.969   2.505   6.058
  865TIP3   OH2 2537   0.741   5.448   6.179
  865TIP3    H1 2538   0.760   5.369   6.230
  865TIP3    H2 2539   0.646   5.450   6.171
  866TIP3   OH2 2540   5.599   4.974   2.115
  866TIP3    H1 2541   5.645   4.949   2.195
  866TIP3    H2 2542   5.642   5.055   2.088
  867TIP3   OH2 2543   2.625   3.928   1.822
  867TIP3    H1 2544   2.621   4.017   1.788
  867TIP3    H2 2545   2.648   3.939   1.915
  868TIP3   OH2 2546   7.213   1.574   2.711
  868TIP3    H1 2547   7.222   1.618   2.796
  868TIP3    H2 2548   7.296   1.526   2.700
  869TIP3   OH2 2549   4.249   1.996   3.073
  869TIP3    H1 2550   4.311   2.018   3.004
  869TIP3    H2 2551   4.245   1.900   3.071
  870TIP3   OH2 2552   5.232   3.968   0.702
  870TIP3    H1 2553   5.312   3.976   0.754
  870TIP3    H2 2554   5.163   4.003   0.759
  871TIP3   OH2 2555   3.226   5.982   5.218
  871TIP3    H1 2556   3.303   5.925   5.223
  871TIP3    H2 2557   3.246   6.055   5.277
  872TIP3   OH2 2558   4.742   1.135   2.892
  872TIP3    H1 2559   4.807   1.180   2.838
  872TIP3    H2 2560   4.690   1.205   2.931
  873TIP3   OH2 2561   3.530   2.814   5.445
  873TIP3    H1 2562   3.547   2.723   5.472
  873TIP3    H2 2563   3.455   2.841   5.496
  874TIP3   OH2 2564   4.173   6.222   3.574
  874TIP3    H1 2565   4.085   6.215   3.611
  874TIP3    H2 2566   4.192   6.316   3.576
  875TIP3   OH2 2567   1.186   1.572   4.700
  875TIP3    H1 2568   1.091   1.582   4.704
  875TIP3    H2 2569   1.210   1.537   4.786
  876TIP3   OH2 2570   6.070   0.572   5.964
  876TIP3    H1 2571   6.016   0.501   5.928
  876TIP3    H2 2572   6.035   0.586   6.052
  877TIP3   OH2 2573   6.265   4.206   4.673
  877TIP3    H1 2574   6.240   4.137   4.612
  877TIP3    H2 2575   6.254   4.166   4.760
  878TIP3   OH2 2576   3.324   0.234   3.848
  878TIP3    H1 2577   3.232   0.210   3.833
  878TIP3    H2 2578   3.353   0.272   3.765
  879TIP3   OH2 2579   7.880   0.976   2.828
  879TIP3    H1 2580   7.792   0.959   2.792
  879TIP3    H2 2581   7.914   0.890   2.851
  880TIP3   OH2 2582   5.171   3.999   3.837
  880TIP3    H1 2583   5.163   4.063   3.908
  880TIP3    H2 2584   5.084   3.996   3.797
  881TIP3   OH2 2585   2.071   6.511   4.215
  881TIP3    H1 2586   2.076   6.569   4.291
  881TIP3    H2 2587   2.086   6.423   4.251
  882TIP3   OH2 2588   0.303   2.099   3.015
  882TIP3    H1 2589   0.276   2.118   2.926
  882TIP3    H2 2590   0.224   2.113   3.067
  883TIP3   OH2 2591   0.148   0.461   0.542
  883TIP3    H1 2592   0.056   0.489   0.538
  883TIP3    H2 2593   0.194   0.534   0.583
  884TIP3   OH2 2594   0.495   2.732   5.329
  884TIP3    H1 2595   0.454   2.808   5.371
  884TIP3    H2 2596   0.441   2.718   5.251
  885TIP3   OH2 2597   7.574   6.510   1.084
  885TIP3    H1 2598   7.615   6.442   1.137
  885TIP3    H2 2599   7.540   6.573   1.147
  886TIP3   OH2 2600   6.133   2.921   6.717
  886TIP3    H1 2601   6.113   3.008   6.681
  886TIP3    H2 2602   6.147   2.936   6.810
  887TIP3   OH2 2603   1.025   1.205   4.580
  887TIP3    H1 2604   0.959   1.258   4.626
  887TIP3    H2 2605   1.031   1.124   4.632
  888TIP3   OH2 2606   6.615   5.513   0.634
  888TIP3    H1 2607   6.564   5.500   0.713
  888TIP3    H2 2608   6.563   5.472   0.565
  889TIP3   OH2 2609   1.192   7.110   3.425
  889TIP3    H1 2610   1.260   7.096   3.492
  889TIP3    H2 2611   1.118   7.147   3.473
  890TIP3   OH2 2612   4.828   7.617   3.792
  890TIP3    H1 2613   4.918   7.625   3.823
  890TIP3    H2 2614   4.833   7.635   3.699
  891TIP3   OH2 2615   1.892   1.980   5.363
  891TIP3    H1 2616   1.984   1.989   5.336
  891TIP3    H2 2617   1.867   1.892   5.335
  892TIP3   OH2 2618   2.739   1.801   4.899
  892TIP3    H1 2619   2.807   1.808   4.966
  892TIP3    H2 2620   2.760   1.868   4.835
  893TIP3   OH2 2621   8.152   3.138   5.759
  893TIP3    H1 2622   8.233   3.187   5.767
  893TIP3    H2 2623   8.173   3.065   5.700
  894TIP3   OH2 2624   1.251   5.861   3.404
  894TIP3    H1 2625   1.217   5.825   3.322
  894TIP3    H2 2626   1.199   5.941   3.418
  895TIP3   OH2 2627   1.670   4.263   6.149
  895TIP3    H1 2628   1.660   4.185   6.095
  895TIP3    H2 2629   1.588   4.311   6.138
  896TIP3   OH2 2630   6.093   0.903   6.058
  896TIP3    H1 2631   6.079   0.941   6.144
  896TIP3    H2 2632   6.091   0.808   6.073
  897TIP3   OH2 2633   5.360   4.147   3.686
  897TIP3    H1 2634   5.372   4.231   3.730
  897TIP3    H2 2635   5.299   4.099   3.743
  898TIP3   OH2 2636   2.762   6.578   2.687
  898TIP3    H1 2637   2.767   6.511   2.619
  898TIP3    H2 2638   2.821   6.647   2.658
  899TIP3   OH2 2639   0.360   2.867   6.648
  899TIP3    H1 2640   0.323   2.808   6.581
  899TIP3    H2 2641   0.417   2.811   6.700
  900TIP3   OH2 2642   6.478   3.021   1.689
  900TIP3    H1 2643   6.566   3.050   1.713
  900TIP3    H2 2644   6.430   3.017   1.772
  901TIP3   OH2 2645   1.844   6.815   6.253
  901TIP3    H1 2646   1.901   6.817   6.176
  901TIP3    H2 2647   1.788   6.739   6.241
  902TIP3   OH2 2648   4.758   0.127   1.526
  902TIP3    H1 2649   4.807   0.208   1.545
  902TIP3    H2 2650   4.772   0.112   1.433
  903TIP3   OH2 2651   7.420   5.356   2.723
  903TIP3    H1 2652   7.434   5.288   2.790
  903TIP3    H2 2653   7.499   5.353   2.670
  904TIP3   OH2 2654   8.152   7.178   3.633
  904TIP3    H1 2655   8.100   7.185   3.553
  904TIP3    H2 2656   8.107   7.113   3.686
  905TIP3   OH2 2657   2.323   1.978   1.132
  905TIP3    H1 2658   2.382   1.903   1.124
  905TIP3    H2 2659   2.354   2.025   1.209
  906TIP3   OH2 2660   3.727   7.528   0.487
  906TIP3    H1 2661   3.669   7.535   0.411
  906TIP3    H2 2662   3.807   7.573   0.461
  907TIP3   OH2 2663   1.292   5.600   4.914
  907TIP3    H1 2664   1.324   5.600   5.004
  907TIP3    H2 2665   1.371   5.611   4.860
  908TIP3   OH2 2666   3.427   1.619   1.898
  908TIP3    H1 2667   3.445   1.708   1.869
  908TIP3    H2 2668   3.426   1.625   1.994
  909TIP3   OH2 2669   2.064   1.672   0.160
  909TIP3    H1 2670   2.087   1.748   0.213
  909TIP3    H2 2671   2.137   1.611   0.171
  910TIP3   OH2 2672   7.542   7.233   0.917
  910TIP3    H1 2673   7.503   7.269   0.837
  910TIP3    H2 2674   7.500   7.148   0.928
  911TIP3   OH2 2675   0.381   2.753   5.940
  911TIP3    H1 2676   0.364   2.708   6.023
  911TIP3    H2 2677   0.329   2.833   5.946
  912TIP3   OH2 2678   2.332   6.127   3.153
  912TIP3    H1 2679   2.351   6.221   3.163
  912TIP3    H2 2680   2.255   6.112   3.208
  913TIP3   OH2 2681   5.598   3.621   3.068
  913TIP3    H1 2682   5.559   3.603   3.153
  913TIP3    H2 2683   5.526   3.610   3.006
  914TIP3   OH2 2684   4.225   7.763   0.357
  914TIP3    H1 2685   4.211   7.850   0.393
  914TIP3    H2 2686   4.306   7.733   0.399
  915TIP3   OH2 2687   1.172   6.273   5.046
  915TIP3    H1 2688   1.156   6.181   5.026
  915TIP3    H2 2689   1.091   6.317   5.019
  916TIP3   OH2 2690   7.349   0.485   2.146
  916TIP3    H1 2691   7.265   0.529   2.160
  916TIP3    H2 2692   7.349   0.412   2.207
  917TIP3   OH2 2693   1.784   6.102   4.688
  917TIP3    H1 2694   1.774   6.104   4.593
  917TIP3    H2 2695   1.700   6.132   4.722
  918TIP3   OH2 2696   0.607   4.840   1.435
  918TIP3    H1 2697   0.589   4.759   1.386
  918TIP3    H2 2698   0.638   4.810   1.520
  919TIP3   OH2 2699   6.680   6.327   1.224
  919TIP3    H1 2700   6.600   6.371   1.195
  919TIP3    H2 2701   6.657   6.286   1.307
  920TIP3   OH2 2702   6.087   5.483   3.669
  920TIP3    H1 2703   6.067   5.506   3.760
  920TIP3    H2 2704   6.166   5.533   3.649
  921TIP3   OH2 2705   0.882   3.286   0.799
  921TIP3    H1 2706   0.837   3.344   0.738
  921TIP3    H2 2707   0.826   3.284   0.877
  922TIP3   OH2 2708   7.978   1.748   0.079
  922TIP3    H1 2709   7.943   1.673   0.030
  922TIP3    H2 2710   7.963   1.726   0.171
  923TIP3   OH2 2711   1.150   6.293   1.661
  923TIP3    H1 2712   1.148   6.321   1.569
  923TIP3    H2 2713   1.185   6.368   1.709
  924TIP3   OH2 2714   4.986   7.620   3.546
  924TIP3    H1 2715   5.044   7.696   3.547
  924TIP3    H2 2716   5.039   7.549   3.581
  925TIP3   OH2 2717   0.227   0.414   3.253
  925TIP3    H1 2718   0.207   0.421   3.346
  925TIP3    H2 2719   0.204   0.500   3.217
  926TIP3   OH2 2720   3.374   0.978   0.046
  926TIP3    H1 2721   3.439   0.952  -0.019
  926TIP3    H2 2722   3.315   1.037  -0.001
  927TIP3   OH2 2723   7.728   3.286   5.105
  927TIP3    H1 2724   7.680   3.257   5.028
  927TIP3    H2 2725   7.731   3.209   5.162
  928TIP3   OH2 2726   2.494   5.849   0.140
  928TIP3    H1 2727   2.459   5.769   0.101
  928TIP3    H2 2728   2.558   5.881   0.077
  929TIP3   OH2 2729   2.876   6.209   1.613
  929TIP3    H1 2730   2.900   6.251   1.530
  929TIP3    H2 2731   2.957   6.206   1.663
  930TIP3   OH2 2732   5.212   6.465   2.113
  930TIP3    H1 2733   5.134   6.476   2.058
  930TIP3    H2 2734   5.179   6.425   2.193
  931TIP3   OH2 2735   2.099   7.179   0.090
  931TIP3    H1 2736   2.074   7.165  -0.001
  931TIP3    H2 2737   2.153   7.258   0.089
  932TIP3   OH2 2738   4.818   4.139   4.121
  932TIP3    H1 2739   4.736   4.148   4.169
  932TIP3    H2 2740   4.860   4.062   4.160
  933TIP3   OH2 2741   1.623   5.770   6.569
  933TIP3    H1 2742   1.584   5.831   6.506
  933TIP3    H2 2743   1.634   5.822   6.648
  934TIP3   OH2 2744   6.101   6.979   6.714
  934TIP3    H1 2745   6.155   7.012   6.786
  934TIP3    H2 2746   6.140   6.895   6.692
  935TIP3   OH2 2747   2.607   2.713   0.354
  935TIP3    H1 2748   2.644   2.701   0.442
  935TIP3    H2 2749   2.529   2.766   0.368
  936TIP3   OH2 2750   2.149   1.124   5.536
  936TIP3    H1 2751   2.054   1.129   5.531
  936TIP3    H2 2752   2.179   1.161   5.453
  937TIP3   OH2 2753   6.736   3.202   0.862
  937TIP3    H1 2754   6.692   3.120   0.838
  937TIP3    H2 2755   6.763   3.240   0.778
  938TIP3   OH2 2756   7.318   0.862   3.799
  938TIP3    H1 2757   7.332   0.935   3.860
  938TIP3    H2 2758   7.275   0.902   3.723
  939TIP3   OH2 2759   1.477   1.326   4.669
  939TIP3    H1 2760   1.427   1.373   4.602
  939TIP3    H2 2761   1.447   1.364   4.752
  940TIP3   OH2 2762   7.479   5.612   5.350
  940TIP3    H1 2763   7.554   5.671   5.362
  940TIP3    H2 2764   7.450   5.628   5.261
  941TIP3   OH2 2765   1.664   3.872   4.803
  941TIP3    H1 2766   1.722   3.808   4.843
  941TIP3    H2 2767   1.660   3.944   4.865
  942TIP3   OH2 2768   6.631   7.726   1.319
  942TIP3    H1 2769   6.553   7.670   1.321
  942TIP3    H2 2770   6.603   7.806   1.364
  943TIP3   OH2 2771   4.780   0.468   2.022
  943TIP3    H1 2772   4.727   0.423   2.087
  943TIP3    H2 2773   4.859   0.495   2.069
  944TIP3   OH2 2774   4.201   6.624   0.254
  944TIP3    H1 2775   4.133   6.625   0.187
  944TIP3    H2 2776   4.181   6.699   0.310
  945TIP3   OH2 2777   1.340   6.394   2.299
  945TIP3    H1 2778   1.346   6.479   2.254
  945TIP3    H2 2779   1.246   6.376   2.302
  946TIP3   OH2 2780   2.986   2.383   2.238
  946TIP3    H1 2781   2.914   2.323   2.255
  946TIP3    H2 2782   2.955   2.437   2.165
  947TIP3   OH2 2783   0.937   7.072   1.721
  947TIP3    H1 2784   0.989   7.124   1.659
  947TIP3    H2 2785   0.914   7.134   1.790
  948TIP3   OH2 2786   0.681   4.514   2.829
  948TIP3    H1 2787   0.650   4.423   2.823
  948TIP3    H2 2788   0.631   4.561   2.763
  949TIP3   OH2 2789   2.143   5.940   4.006
  949TIP3    H1 2790   2.116   6.030   4.027
  949TIP3    H2 2791   2.143   5.937   3.910
  950TIP3   OH2 2792   1.705   4.130   1.710
  950TIP3    H1 2793   1.753   4.146   1.792
  950TIP3    H2 2794   1.669   4.042   1.721
  951TIP3   OH2 2795   3.117   7.255   2.120
  951TIP3    H1 2796   3.171   7.207   2.058
  951TIP3    H2 2797   3.046   7.194   2.143
  952TIP3   OH2 2798   3.546   3.697   2.110
  952TIP3    H1 2799   3.567   3.726   2.199
  952TIP3    H2 2800   3.557   3.776   2.057
  953TIP3   OH2 2801   3.817   2.512   3.271
  953TIP3    H1 2802   3.825   2.471   3.185
  953TIP3    H2 2803   3.818   2.606   3.253
  954TIP3   OH2 2804   0.873   1.608   2.751
  954TIP3    H1 2805   0.964   1.628   2.728
  954TIP3    H2 2806   0.876   1.583   2.843
  955TIP3   OH2 2807   2.838   1.124   0.561
  955TIP3    H1 2808   2.833   1.130   0.465
  955TIP3    H2 2809   2.747   1.136   0.590
  956TIP3   OH2 2810   5.809   6.805   2.605
  956TIP3    H1 2811   5.880   6.826   2.545
  956TIP3    H2 2812   5.815   6.710   2.616
  957TIP3   OH2 2813   8.015   7.295   1.481
  957TIP3    H1 2814   8.067   7.250   1.414
  957TIP3    H2 2815   7.973   7.368   1.435
  958TIP3   OH2 2816   7.579   1.944   1.226
  958TIP3    H1 2817   7.514   1.966   1.159
  958TIP3    H2 2818   7.576   2.018   1.287
  959TIP3   OH2 2819   6.310   1.135   4.014
  959TIP3    H1 2820   6.364   1.113   4.090
  959TIP3    H2 2821   6.244   1.196   4.049
  960TIP3   OH2 2822   8.259   5.162   3.452
  960TIP3    H1 2823   8.245   5.196   3.364
  960TIP3    H2 2824   8.346   5.192   3.477
  961TIP3   OH2 2825   0.765   3.870   2.687
  961TIP3    H1 2826   0.691   3.883   2.746
  961TIP3    H2 2827   0.776   3.775   2.681
  962TIP3   OH2 2828   0.259   1.260   5.931
  962TIP3    H1 2829   0.190   1.306   5.979
  962TIP3    H2 2830   0.337   1.270   5.984
  963TIP3   OH2 2831   6.004   5.453   5.723
  963TIP3    H1 2832   5.916   5.483   5.699
  963TIP3    H2 2833   6.058   5.472   5.647
  964TIP3   OH2 2834   4.868   5.696   3.989
  964TIP3    H1 2835   4.775   5.679   3.997
  964TIP3    H2 2836   4.874   5.789   3.966
  965TIP3   OH2 2837   1.994   3.753   6.590
  965TIP3    H1 2838   1.917   3.726   6.541
  965TIP3    H2 2839   1.991   3.702   6.671
  966TIP3   OH2 2840   5.911   1.274   5.896
  966TIP3    H1 2841   6.006   1.268   5.891
  966TIP3    H2 2842   5.882   1.266   5.805
  967TIP3   OH2 2843   4.237   0.284   3.543
  967TIP3    H1 2844   4.197   0.230   3.475
  967TIP3    H2 2845   4.163   0.318   3.594
  968TIP3   OH2 2846   5.281   3.646   6.718
  968TIP3    H1 2847   5.272   3.672   6.626
  968TIP3    H2 2848   5.194   3.663   6.755
  969TIP3   OH2 2849   7.898   6.754   6.788
  969TIP3    H1 2850   7.901   6.724   6.697
  969TIP3    H2 2851   7.816   6.720   6.823
  970TIP3   OH2 2852   0.912   4.456   1.077
  970TIP3    H1 2853   0.996   4.437   1.119
  970TIP3    H2 2854   0.932   4.524   1.013
  971TIP3   OH2 2855   2.835   1.130   5.897
  971TIP3    H1 2856   2.885   1.210   5.881
  971TIP3    H2 2857   2.784   1.117   5.817
  972TIP3   OH2 2858   4.617   0.810   4.818
  972TIP3    H1 2859   4.622   0.829   4.912
  972TIP3    H2 2860   4.523   0.796   4.802
  973TIP3   OH2 2861   0.236   5.697   2.451
  973TIP3    H1 2862   0.288   5.756   2.397
  973TIP3    H2 2863   0.153   5.743   2.463
  974TIP3   OH2 2864   2.069   2.225   1.494
  974TIP3    H1 2865   2.020   2.247   1.572
  974TIP3    H2 2866   2.007   2.236   1.422
  975TIP3   OH2 2867   8.211   0.298   3.435
  975TIP3    H1 2868   8.238   0.239   3.365
  975TIP3    H2 2869   8.279   0.290   3.502
  976TIP3   OH2 2870   6.469   6.435   1.112
  976TIP3    H1 2871   6.415   6.396   1.042
  976TIP3    H2 2872   6.453   6.529   1.104
  977TIP3   OH2 2873   7.376   3.151   1.080
  977TIP3    H1 2874   7.412   3.169   1.167
  977TIP3    H2 2875   7.288   3.188   1.082
  978TIP3   OH2 2876   5.722   0.617   4.936
  978TIP3    H1 2877   5.756   0.543   4.885
  978TIP3    H2 2878   5.671   0.668   4.873
  979TIP3   OH2 2879   0.653   6.890   6.366
  979TIP3    H1 2880   0.705   6.840   6.303
  979TIP3    H2 2881   0.696   6.975   6.370
  980TIP3   OH2 2882   7.336   6.568  -0.006
  980TIP3    H1 2883   7.351   6.499   0.059
  980TIP3    H2 2884   7.245   6.593   0.006
  981TIP3   OH2 2885   4.097   4.692   6.666
  981TIP3    H1 2886   4.068   4.772   6.709
  981TIP3    H2 2887   4.122   4.720   6.578
  982TIP3   OH2 2888   4.559   1.721   1.854
  982TIP3    H1 2889   4.640   1.684   1.819
  982TIP3    H2 2890   4.539   1.666   1.930
  983TIP3   OH2 2891   5.639   5.939   1.860
  983TIP3    H1 2892   5.702   5.968   1.793
  983TIP3    H2 2893   5.691   5.888   1.922
  984TIP3   OH2 2894   5.495   6.890   2.984
  984TIP3    H1 2895   5.479   6.843   3.067
  984TIP3    H2 2896   5.459   6.832   2.917
  985TIP3   OH2 2897   2.458   7.292   0.378
  985TIP3    H1 2898   2.547   7.283   0.346
  985TIP3    H2 2899   2.431   7.203   0.401
  986TIP3   OH2 2900   7.016   6.907   6.673
  986TIP3    H1 2901   7.052   6.987   6.712
  986TIP3    H2 2902   6.994   6.932   6.583
  987TIP3   OH2 2903   4.070   5.675   5.897
  987TIP3    H1 2904   4.128   5.632   5.834
  987TIP3    H2 2905   3.986   5.680   5.853
  988TIP3   OH2 2906   7.568   2.944   5.076
  988TIP3    H1 2907   7.516   2.873   5.114
  988TIP3    H2 2908   7.639   2.900   5.030
  989TIP3   OH2 2909   1.762   1.748   4.344
  989TIP3    H1 2910   1.855   1.769   4.351
  989TIP3    H2 2911   1.755   1.697   4.264
  990TIP3   OH2 2912   5.746   7.774   3.290
  990TIP3    H1 2913   5.742   7.679   3.279
  990TIP3    H2 2914   5.655   7.802   3.285
  991TIP3   OH2 2915   0.007   0.805   4.695
  991TIP3    H1 2916   0.022   0.823   4.788
  991TIP3    H2 2917   0.094   0.800   4.657
  992TIP3   OH2 2918   6.283   1.579   5.252
  992TIP3    H1 2919   6.320   1.667   5.260
  992TIP3    H2 2920   6.230   1.582   5.173
  993TIP3   OH2 2921   5.258   2.163   3.444
  993TIP3    H1 2922   5.267   2.148   3.538
  993TIP3    H2 2923   5.263   2.076   3.405
  994TIP3   OH2 2924   7.509   0.415   1.398
  994TIP3    H1 2925   7.418   0.393   1.382
  994TIP3    H2 2926   7.525   0.493   1.345
  995TIP3   OH2 2927   4.863   1.188   4.841
  995TIP3    H1 2928   4.786   1.169   4.893
  995TIP3    H2 2929   4.873   1.283   4.846
  996TIP3   OH2 2930   2.620   1.108   4.086
  996TIP3    H1 2931   2.533   1.119   4.127
  996TIP3    H2 2932   2.679   1.096   4.160
  997TIP3   OH2 2933   8.140   0.960   5.422
  997TIP3    H1 2934   8.097   0.925   5.345
  997TIP3    H2 2935   8.230   0.927   5.417
  998TIP3   OH2 2936   7.663   5.229   4.534
  998TIP3    H1 2937   7.733   5.164   4.526
  998TIP3    H2 2938   7.675   5.287   4.459
  999TIP3   OH2 2939   8.178   0.839   4.950
  999TIP3    H1 2940   8.245   0.823   5.017
  999TIP3    H2 2941   8.167   0.754   4.906
 1000TIP3   OH2 2942   5.982   7.519   3.751
 1000TIP3    H1 2943   6.041   7.593   3.738
 1000TIP3    H2 2944   5.927   7.517   3.673
 1001TIP3   OH2 2945   4.733   2.345   0.418
 1001TIP3    H1 2946   4.751   2.405   0.490
 1001TIP3    H2 2947   4.644   2.314   0.435
 1002TIP3   OH2 2948   3.525   3.464   5.150
 1002TIP3    H1 2949   3.568   3.523   5.088
 1002TIP3    H2 2950   3.584   3.389   5.156
 1003TIP3   OH2 2951   5.931   4.757   0.838
 1003TIP3    H1 2952   5.843   4.719   0.838
 1003TIP3    H2 2953   5.918   4.847   0.866
 1004TIP3   OH2 2954   6.788   6.535   6.140
 1004TIP3    H1 2955   6.775   6.456   6.193
 1004TIP3    H2 2956   6.867   6.516   6.088
 1005TIP3   OH2 2957   2.641   4.212   6.612
 1005TIP3    H1 2958   2.639   4.218   6.707
 1005TIP3    H2 2959   2.705   4.144   6.593
 1006TIP3   OH2 2960   5.606   6.632   2.846
 1006TIP3    H1 2961   5.571   6.546   2.869
 1006TIP3    H2 2962   5.683   6.614   2.793
 1007TIP3   OH2 2963   2.319   5.506   5.584
 1007TIP3    H1 2964   2.376   5.580   5.607
 1007TIP3    H2 2965   2.378   5.435   5.563
 1008TIP3   OH2 2966   2.139   6.317   6.550
 1008TIP3    H1 2967   2.203   6.271   6.605
 1008TIP3    H2 2968   2.119   6.398   6.598
 1009TIP3   OH2 2969   5.258   3.608   5.470
 1009TIP3    H1 2970   5.165   3.631   5.464
 1009TIP3    H2 2971   5.291   3.660   5.543
 1010TIP3   OH2 2972   5.928   3.360   2.486
 1010TIP3    H1 2973   5.970   3.312   2.415
 1010TIP3    H2 2974   5.984   3.437   2.499
 1011TIP3   OH2 2975   1.683   7.276   5.781
 1011TIP3    H1 2976   1.743   7.205   5.757
 1011TIP3    H2 2977   1.713   7.304   5.867
 1012TIP3   OH2 2978   5.394   2.748   4.831
 1012TIP3    H1 2979   5.477   2.713   4.800
 1012TIP3    H2 2980   5.416   2.835   4.866
 1013TIP3   OH2 2981   4.069   6.798   2.872
 1013TIP3    H1 2982   4.038   6.717   2.913
 1013TIP3    H2 2983   3.995   6.859   2.882
 1014TIP3   OH2 2984   8.010   6.043   4.017
 1014TIP3    H1 2985   8.077   5.975   4.019
 1014TIP3    H2 2986   8.049   6.118   4.062
 1015TIP3   OH2 2987   1.433   5.227   1.785
 1015TIP3    H1 2988   1.359   5.179   1.822
 1015TIP3    H2 2989   1.392   5.296   1.732
 1016TIP3   OH2 2990   5.773   5.447   1.227
 1016TIP3    H1 2991   5.709   5.376   1.231
 1016TIP3    H2 2992   5.841   5.415   1.168
 1017TIP3   OH2 2993   0.898   5.111   1.175
 1017TIP3    H1 2994   0.916   5.020   1.197
 1017TIP3    H2 2995   0.833   5.107   1.104
 1018TIP3   OH2 2996   7.453   6.149   3.631
 1018TIP3    H1 2997   7.371   6.099   3.625
 1018TIP3    H2 2998   7.505   6.102   3.697
 1019TIP3   OH2 2999   1.880   2.577   0.978
 1019TIP3    H1 3000   1.817   2.541   0.915
 1019TIP3    H2 3001   1.959   2.593   0.926
 1020TIP3   OH2 3002   0.812   6.856   0.431
 1020TIP3    H1 3003   0.818   6.945   0.395
 1020TIP3    H2 3004   0.874   6.855   0.504
 1021TIP3   OH2 3005   2.961   6.915   4.090
 1021TIP3    H1 3006   3.006   6.832   4.102
 1021TIP3    H2 3007   2.878   6.892   4.047
 1022TIP3   OH2 3008   2.293   1.086   2.205
 1022TIP3    H1 3009   2.351   1.022   2.247
 1022TIP3    H2 3010   2.252   1.037   2.134
 1023TIP3   OH2 3011   1.259   6.392   3.079
 1023TIP3    H1 3012   1.230   6.316   3.029
 1023TIP3    H2 3013   1.263   6.463   3.015
 1024TIP3   OH2 3014   7.537   3.184   4.896
 1024TIP3    H1 3015   7.522   3.090   4.885
 1024TIP3    H2 3016   7.603   3.205   4.830
 1025TIP3   OH2 3017   1.859   1.919   4.561
 1025TIP3    H1 3018   1.934   1.891   4.507
 1025TIP3    H2 3019   1.843   2.009   4.535
 1026TIP3   OH2 3020   3.452   7.292   4.064
 1026TIP3    H1 3021   3.370   7.280   4.016
 1026TIP3    H2 3022   3.460   7.387   4.074
 1027TIP3   OH2 3023   5.575   3.660   6.200
 1027TIP3    H1 3024   5.553   3.704   6.118
 1027TIP3    H2 3025   5.667   3.637   6.191
 1028TIP3   OH2 3026   5.416   6.383   0.365
 1028TIP3    H1 3027   5.329   6.344   0.366
 1028TIP3    H2 3028   5.475   6.311   0.386
 1029TIP3   OH2 3029   1.795   3.780   1.724
 1029TIP3    H1 3030   1.791   3.685   1.719
 1029TIP3    H2 3031   1.867   3.804   1.667
 1030TIP3   OH2 3032   0.541   3.247   6.158
 1030TIP3    H1 3033   0.510   3.335   6.134
 1030TIP3    H2 3034   0.495   3.188   6.098
 1031TIP3   OH2 3035   7.741   0.737   5.283
 1031TIP3    H1 3036   7.694   0.707   5.361
 1031TIP3    H2 3037   7.802   0.665   5.263
 1032TIP3   OH2 3038   0.612   3.158   5.537
 1032TIP3    H1 3039   0.672   3.188   5.470
 1032TIP3    H2 3040   0.542   3.223   5.538
 1033TIP3   OH2 3041   4.997   0.940   0.729
 1033TIP3    H1 3042   4.929   0.934   0.662
 1033TIP3    H2 3043   5.078   0.948   0.679
 1034TIP3   OH2 3044   0.620   2.416   2.445
 1034TIP3    H1 3045   0.544   2.445   2.496
 1034TIP3    H2 3046   0.675   2.493   2.437
 1035TIP3   OH2 3047   2.055   6.515   0.625
 1035TIP3    H1 3048   1.982   6.465   0.663
 1035TIP3    H2 3049   2.088   6.459   0.554
 1036TIP3   OH2 3050   3.365   2.454   2.994
 1036TIP3    H1 3051   3.272   2.450   2.968
 1036TIP3    H2 3052   3.375   2.542   3.030
 1037TIP3   OH2 3053   6.163   1.870   4.582
 1037TIP3    H1 3054   6.222   1.855   4.508
 1037TIP3    H2 3055   6.198   1.948   4.626
 1038TIP3   OH2 3056   5.134   3.310   4.930
 1038TIP3    H1 3057   5.107   3.218   4.927
 1038TIP3    H2 3058   5.229   3.308   4.916
 1039TIP3   OH2 3059   6.394   6.860   3.560
 1039TIP3    H1 3060   6.324   6.821   3.508
 1039TIP3    H2 3061   6.381   6.824   3.648
 1040TIP3   OH2 3062   7.427   1.319   4.735
 1040TIP3    H1 3063   7.510   1.353   4.769
 1040TIP3    H2 3064   7.452   1.242   4.684
 1041TIP3   OH2 3065   2.420   3.592   2.353
 1041TIP3    H1 3066   2.382   3.628   2.434
 1041TIP3    H2 3067   2.513   3.582   2.373
 1042TIP3   OH2 3068   7.110   1.097   5.192
 1042TIP3    H1 3069   7.090   1.009   5.160
 1042TIP3    H2 3070   7.068   1.156   5.130
 1043TIP3   OH2 3071   5.318   4.857   4.609
 1043TIP3    H1 3072   5.391   4.883   4.553
 1043TIP3    H2 3073   5.297   4.768   4.581
 1044TIP3   OH2 3074   5.444   5.829   4.541
 1044TIP3    H1 3075   5.517   5.772   4.567
 1044TIP3    H2 3076   5.486   5.902   4.496
 1045TIP3   OH2 3077   4.983   5.310   0.497
 1045TIP3    H1 3078   5.050   5.315   0.429
 1045TIP3    H2 3079   5.029   5.270   0.572
 1046TIP3   OH2 3080   6.575   5.604   4.964
 1046TIP3    H1 3081   6.543   5.578   4.878
 1046TIP3    H2 3082   6.498   5.602   5.021
 1047TIP3   OH2 3083   6.836   1.728   0.192
 1047TIP3    H1 3084   6.878   1.730   0.106
 1047TIP3    H2 3085   6.887   1.789   0.245
 1048TIP3   OH2 3086   2.662   4.370   6.310
 1048TIP3    H1 3087   2.638   4.434   6.377
 1048TIP3    H2 3088   2.727   4.314   6.353
 1049TIP3   OH2 3089   4.081   2.496   6.182
 1049TIP3    H1 3090   4.104   2.403   6.185
 1049TIP3    H2 3091   4.162   2.542   6.203
 1050TIP3   OH2 3092   0.454   2.833   1.107
 1050TIP3    H1 3093   0.450   2.753   1.158
 1050TIP3    H2 3094   0.363   2.862   1.099
 1051TIP3   OH2 3095   4.757   2.412   4.035
 1051TIP3    H1 3096   4.762   2.497   3.991
 1051TIP3    H2 3097   4.665   2.388   4.033
 1052TIP3   OH2 3098   7.320   5.080   4.388
 1052TIP3    H1 3099   7.392   5.141   4.400
 1052TIP3    H2 3100   7.303   5.080   4.294
 1053TIP3   OH2 3101   5.214   0.395   3.828
 1053TIP3    H1 3102   5.239   0.443   3.907
 1053TIP3    H2 3103   5.282   0.327   3.819
 1054TIP3   OH2 3104   6.966   6.681   3.938
 1054TIP3    H1 3105   6.950   6.662   3.846
 1054TIP3    H2 3106   6.998   6.771   3.939
 1055TIP3   OH2 3107   0.304   3.854   1.063
 1055TIP3    H1 3108   0.392   3.877   1.092
 1055TIP3    H2 3109   0.317   3.780   1.003
 1056TIP3   OH2 3110   6.145   7.048   5.433
 1056TIP3    H1 3111   6.166   7.131   5.392
 1056TIP3    H2 3112   6.078   7.010   5.376
 1057TIP3   OH2 3113   0.550   3.889   2.872
 1057TIP3    H1 3114   0.507   3.914   2.954
 1057TIP3    H2 3115   0.491   3.921   2.804
 1058TIP3   OH2 3116   6.635   2.449   0.318
 1058TIP3    H1 3117   6.646   2.370   0.265
 1058TIP3    H2 3118   6.712   2.450   0.375
 1059TIP3   OH2 3119   4.501   3.160   5.406
 1059TIP3    H1 3120   4.451   3.240   5.392
 1059TIP3    H2 3121   4.541   3.172   5.492
 1060TIP3   OH2 3122   1.910   7.213   0.926
 1060TIP3    H1 3123   1.879   7.221   0.835
 1060TIP3    H2 3124   2.004   7.232   0.920
 1061TIP3   OH2 3125   1.510   0.158   0.975
 1061TIP3    H1 3126   1.488   0.251   0.978
 1061TIP3    H2 3127   1.566   0.149   0.898
 1062TIP3   OH2 3128   1.267   1.288   5.738
 1062TIP3    H1 3129   1.264   1.311   5.831
 1062TIP3    H2 3130   1.235   1.198   5.735
 1063TIP3   OH2 3131   5.818   5.899   1.653
 1063TIP3    H1 3132   5.750   5.867   1.594
 1063TIP3    H2 3133   5.862   5.820   1.683
 1064TIP3   OH2 3134   1.867   7.504   1.711
 1064TIP3    H1 3135   1.914   7.482   1.791
 1064TIP3    H2 3136   1.933   7.495   1.642
 1065TIP3   OH2 3137   5.473   5.443   6.342
 1065TIP3    H1 3138   5.411   5.512   6.366
 1065TIP3    H2 3139   5.441   5.365   6.387
 1066TIP3   OH2 3140   3.802   5.755   0.736
 1066TIP3    H1 3141   3.845   5.773   0.652
 1066TIP3    H2 3142   3.770   5.840   0.766
 1067TIP3   OH2 3143   5.399   4.701   5.529
 1067TIP3    H1 3144   5.472   4.762   5.539
 1067TIP3    H2 3145   5.334   4.750   5.478
 1068TIP3   OH2 3146   6.172   0.171   2.156
 1068TIP3    H1 3147   6.093   0.158   2.209
 1068TIP3    H2 3148   6.235   0.108   2.192
 1069TIP3   OH2 3149   4.580   4.760   2.132
 1069TIP3    H1 3150   4.580   4.848   2.095
 1069TIP3    H2 3151   4.567   4.774   2.226
 1070TIP3   OH2 3152   5.880   2.012   6.530
 1070TIP3    H1 3153   5.964   1.979   6.498
 1070TIP3    H2 3154   5.901   2.054   6.614
 1071TIP3   OH2 3155   8.125   3.222   6.146
 1071TIP3    H1 3156   8.221   3.227   6.148
 1071TIP3    H2 3157   8.100   3.215   6.238
 1072TIP3   OH2 3158   5.465   4.941   0.826
 1072TIP3    H1 3159   5.416   4.861   0.804
 1072TIP3    H2 3160   5.427   5.008   0.769
 1073TIP3   OH2 3161   6.432   5.871   4.816
 1073TIP3    H1 3162   6.358   5.873   4.876
 1073TIP3    H2 3163   6.419   5.791   4.764
 1074TIP3   OH2 3164   5.357   3.020   5.106
 1074TIP3    H1 3165   5.269   3.033   5.143
 1074TIP3    H2 3166   5.407   2.981   5.178
 1075TIP3   OH2 3167   6.180   2.429   4.933
 1075TIP3    H1 3168   6.195   2.507   4.880
 1075TIP3    H2 3169   6.229   2.445   5.014
 1076TIP3   OH2 3170   8.206   5.425   3.287
 1076TIP3    H1 3171   8.271   5.463   3.347
 1076TIP3    H2 3172   8.122   5.446   3.327
 1077TIP3   OH2 3173   5.678   4.630   0.790
 1077TIP3    H1 3174   5.599   4.632   0.843
 1077TIP3    H2 3175   5.657   4.685   0.714
 1078TIP3   OH2 3176   3.792   5.583   6.568
 1078TIP3    H1 3177   3.761   5.630   6.491
 1078TIP3    H2 3178   3.869   5.632   6.597
 1079TIP3   OH2 3179   0.083   6.015   2.872
 1079TIP3    H1 3180   0.154   5.953   2.887
 1079TIP3    H2 3181   0.105   6.091   2.925
 1080TIP3   OH2 3182   4.080   7.499   3.672
 1080TIP3    H1 3183   4.023   7.571   3.646
 1080TIP3    H2 3184   4.067   7.432   3.605
 1081TIP3   OH2 3185   6.507   6.180   1.467
 1081TIP3    H1 3186   6.482   6.236   1.540
 1081TIP3    H2 3187   6.523   6.095   1.506
 1082TIP3   OH2 3188   1.560   6.089   4.244
 1082TIP3    H1 3189   1.535   5.997   4.235
 1082TIP3    H2 3190   1.562   6.103   4.339
 1083TIP3   OH2 3191   5.120   2.211   5.700
 1083TIP3    H1 3192   5.105   2.305   5.692
 1083TIP3    H2 3193   5.039   2.171   5.668
 1084TIP3   OH2 3194   3.988   1.703   4.890
 1084TIP3    H1 3195   4.075   1.690   4.926
 1084TIP3    H2 3196   3.951   1.776   4.940
 1085TIP3   OH2 3197   5.643   4.901   3.198
 1085TIP3    H1 3198   5.662   4.961   3.269
 1085TIP3    H2 3199   5.672   4.947   3.119
 1086TIP3   OH2 3200   0.828   4.024   4.822
 1086TIP3    H1 3201   0.862   3.955   4.764
 1086TIP3    H2 3202   0.781   3.977   4.890
 1087TIP3   OH2 3203   2.942   4.801   1.339
 1087TIP3    H1 3204   2.901   4.723   1.376
 1087TIP3    H2 3205   2.960   4.778   1.248
 1088TIP3   OH2 3206   7.234   4.835   1.299
 1088TIP3    H1 3207   7.292   4.911   1.304
 1088TIP3    H2 3208   7.146   4.872   1.304
 1089TIP3   OH2 3209   4.135   5.114   5.216
 1089TIP3    H1 3210   4.220   5.072   5.202
 1089TIP3    H2 3211   4.144   5.200   5.175
 1090TIP3   OH2 3212   0.130   6.725   1.814
 1090TIP3    H1 3213   0.167   6.730   1.903
 1090TIP3    H2 3214   0.182   6.657   1.771
 1091TIP3   OH2 3215   0.983   7.113   5.446
 1091TIP3    H1 3216   1.046   7.174   5.485
 1091TIP3    H2 3217   0.906   7.120   5.502
 1092TIP3   OH2 3218   6.729   6.013   1.652
 1092TIP3    H1 3219   6.716   5.926   1.689
 1092TIP3    H2 3220   6.740   6.070   1.728
 1093TIP3   OH2 3221   3.574   3.652   0.412
 1093TIP3    H1 3222   3.662   3.623   0.438
 1093TIP3    H2 3223   3.560   3.734   0.461
 1094TIP3   OH2 3224   0.446   7.677   5.039
 1094TIP3    H1 3225   0.494   7.669   5.122
 1094TIP3    H2 3226   0.490   7.616   4.980
 1095TIP3   OH2 3227   0.981   4.847   3.455
 1095TIP3    H1 3228   1.056   4.795   3.482
 1095TIP3    H2 3229   0.929   4.788   3.400
 1096TIP3   OH2 3230   0.465   6.416   0.496
 1096TIP3    H1 3231   0.507   6.351   0.439
 1096TIP3    H2 3232   0.373   6.391   0.496
 1097TIP3   OH2 3233   0.172   4.704   1.799
 1097TIP3    H1 3234   0.120   4.639   1.846
 1097TIP3    H2 3235   0.261   4.669   1.800
 1098TIP3   OH2 3236   2.167   1.396   1.235
 1098TIP3    H1 3237   2.155   1.425   1.325
 1098TIP3    H2 3238   2.089   1.428   1.189
 1099TIP3   OH2 3239   6.349   4.153   2.788
 1099TIP3    H1 3240   6.296   4.080   2.755
 1099TIP3    H2 3241   6.343   4.220   2.720
 1100TIP3   OH2 3242   0.682   0.445   3.061
 1100TIP3    H1 3243   0.636   0.380   3.114
 1100TIP3    H2 3244   0.647   0.433   2.973
 1101TIP3   OH2 3245   3.470   6.601   2.126
 1101TIP3    H1 3246   3.474   6.688   2.165
 1101TIP3    H2 3247   3.379   6.592   2.097
 1102TIP3   OH2 3248   0.376   1.072   0.017
 1102TIP3    H1 3249   0.375   1.167   0.002
 1102TIP3    H2 3250   0.463   1.054   0.052
 1103TIP3   OH2 3251   6.775   6.656   4.133
 1103TIP3    H1 3252   6.850   6.662   4.075
 1103TIP3    H2 3253   6.728   6.738   4.121
 1104TIP3   OH2 3254   2.604   4.342   5.242
 1104TIP3    H1 3255   2.532   4.398   5.272
 1104TIP3    H2 3256   2.598   4.263   5.296
 1105TIP3   OH2 3257   5.512   4.897   6.346
 1105TIP3    H1 3258   5.541   4.961   6.412
 1105TIP3    H2 3259   5.574   4.825   6.352
 1106TIP3   OH2 3260   7.144   5.980   0.195
 1106TIP3    H1 3261   7.122   6.021   0.279
 1106TIP3    H2 3262   7.202   5.908   0.218
 1107TIP3   OH2 3263   0.385   5.174   2.733
 1107TIP3    H1 3264   0.370   5.108   2.665
 1107TIP3    H2 3265   0.298   5.195   2.766
 1108TIP3   OH2 3266   1.922   0.348   5.540
 1108TIP3    H1 3267   1.864   0.372   5.468
 1108TIP3    H2 3268   1.938   0.430   5.587
 1109TIP3   OH2 3269   4.370   0.152   0.549
 1109TIP3    H1 3270   4.417   0.132   0.468
 1109TIP3    H2 3271   4.438   0.158   0.616
 1110TIP3   OH2 3272   6.173   3.904   5.644
 1110TIP3    H1 3273   6.267   3.919   5.659
 1110TIP3    H2 3274   6.152   3.958   5.568
 1111TIP3   OH2 3275   4.581   4.423   0.955
 1111TIP3    H1 3276   4.564   4.444   1.046
 1111TIP3    H2 3277   4.500   4.381   0.925
 1112TIP3   OH2 3278   6.237   1.181   4.489
 1112TIP3    H1 3279   6.186   1.242   4.435
 1112TIP3    H2 3280   6.184   1.101   4.492
 1113TIP3   OH2 3281   4.732   2.549   1.833
 1113TIP3    H1 3282   4.661   2.587   1.781
 1113TIP3    H2 3283   4.688   2.516   1.912
 1114TIP3   OH2 3284   2.315   0.964   0.528
 1114TIP3    H1 3285   2.304   1.023   0.454
 1114TIP3    H2 3286   2.290   1.016   0.605
 1115TIP3   OH2 3287   3.435   1.991   3.246
 1115TIP3    H1 3288   3.442   2.085   3.229
 1115TIP3    H2 3289   3.486   1.977   3.326
 1116TIP3   OH2 3290   5.185   6.899   5.991
 1116TIP3    H1 3291   5.249   6.912   5.921
 1116TIP3    H2 3292   5.208   6.815   6.030
 1117TIP3   OH2 3293   4.168   1.810   0.826
 1117TIP3    H1 3294   4.226   1.748   0.781
 1117TIP3    H2 3295   4.147   1.876   0.759
 1118TIP3   OH2 3296   6.774   5.704   2.875
 1118TIP3    H1 3297   6.741   5.701   2.786
 1118TIP3    H2 3298   6.744   5.789   2.909
 1119TIP3   OH2 3299   5.340   4.492   0.240
 1119TIP3    H1 3300   5.272   4.549   0.276
 1119TIP3    H2 3301   5.353   4.425   0.307
 1120TIP3   OH2 3302   5.202   2.611   4.966
 1120TIP3    H1 3303   5.118   2.644   4.934
 1120TIP3    H2 3304   5.268   2.661   4.919
 1121TIP3   OH2 3305   4.729   3.441   4.584
 1121TIP3    H1 3306   4.774   3.492   4.515
 1121TIP3    H2 3307   4.722   3.353   4.547
 1122TIP3   OH2 3308   0.645   5.063   4.578
 1122TIP3    H1 3309   0.640   5.041   4.671
 1122TIP3    H2 3310   0.729   5.026   4.550
 1123TIP3   OH2 3311   8.189   1.163   0.250
 1123TIP3    H1 3312   8.202   1.113   0.169
 1123TIP3    H2 3313   8.271   1.211   0.261
 1124TIP3   OH2 3314   6.204   5.816   4.392
 1124TIP3    H1 3315   6.295   5.837   4.375
 1124TIP3    H2 3316   6.156   5.896   4.371
 1125TIP3   OH2 3317   2.884   1.447   6.611
 1125TIP3    H1 3318   2.949   1.511   6.641
 1125TIP3    H2 3319   2.883   1.456   6.516
 1126TIP3   OH2 3320   3.938   0.091   2.287
 1126TIP3    H1 3321   3.973   0.087   2.198
 1126TIP3    H2 3322   3.899   0.178   2.294
 1127TIP3   OH2 3323   4.362   4.161   3.881
 1127TIP3    H1 3324   4.336   4.149   3.789
 1127TIP3    H2 3325   4.330   4.248   3.903
 1128TIP3   OH2 3326   7.812   4.005   4.889
 1128TIP3    H1 3327   7.772   3.934   4.938
 1128TIP3    H2 3328   7.892   4.026   4.938
 1129TIP3   OH2 3329   5.535   1.460   4.375
 1129TIP3    H1 3330   5.466   1.464   4.441
 1129TIP3    H2 3331   5.610   1.506   4.414
 1130TIP3   OH2 3332   4.244   6.446   2.876
 1130TIP3    H1 3333   4.305   6.480   2.942
 1130TIP3    H2 3334   4.157   6.470   2.908
 1131TIP3   OH2 3335   4.533   5.668   6.525
 1131TIP3    H1 3336   4.610   5.723   6.533
 1131TIP3    H2 3337   4.556   5.588   6.572
 1132TIP3   OH2 3338   2.641   1.341   2.548
 1132TIP3    H1 3339   2.547   1.354   2.563
 1132TIP3    H2 3340   2.645   1.297   2.463
 1133TIP3   OH2 3341   1.159   7.570   4.057
 1133TIP3    H1 3342   1.224   7.603   4.119
 1133TIP3    H2 3343   1.124   7.649   4.015
 1134TIP3   OH2 3344   4.573   5.487   0.779
 1134TIP3    H1 3345   4.502   5.551   0.775
 1134TIP3    H2 3346   4.548   5.419   0.716
 1135TIP3   OH2 3347   1.045   1.670   6.169
 1135TIP3    H1 3348   1.123   1.645   6.219
 1135TIP3    H2 3349   1.077   1.737   6.108
 1136TIP3   OH2 3350   5.121   3.868   0.475
 1136TIP3    H1 3351   5.150   3.880   0.565
 1136TIP3    H2 3352   5.026   3.881   0.479
 1137TIP3   OH2 3353   4.952   3.328   3.900
 1137TIP3    H1 3354   5.003   3.408   3.914
 1137TIP3    H2 3355   4.875   3.339   3.955
 1138TIP3   OH2 3356   7.575   1.906   1.699
 1138TIP3    H1 3357   7.586   1.857   1.618
 1138TIP3    H2 3358   7.654   1.885   1.750
 1139TIP3   OH2 3359   5.451   6.006   5.360
 1139TIP3    H1 3360   5.467   5.933   5.420
 1139TIP3    H2 3361   5.359   5.996   5.334
 1140TIP3   OH2 3362   5.979   1.616   0.546
 1140TIP3    H1 3363   5.999   1.687   0.606
 1140TIP3    H2 3364   6.063   1.573   0.530
 1141TIP3   OH2 3365   2.082   1.520   5.726
 1141TIP3    H1 3366   2.177   1.523   5.735
 1141TIP3    H2 3367   2.057   1.432   5.754
 1142TIP3   OH2 3368   4.572   0.571   1.890
 1142TIP3    H1 3369   4.639   0.554   1.957
 1142TIP3    H2 3370   4.493   0.531   1.924
 1143TIP3   OH2 3371   7.975   1.086   0.647
 1143TIP3    H1 3372   8.015   1.165   0.611
 1143TIP3    H2 3373   8.033   1.015   0.620
 1144TIP3   OH2 3374   5.514   0.547   3.806
 1144TIP3    H1 3375   5.507   0.454   3.827
 1144TIP3    H2 3376   5.603   0.558   3.773
 1145TIP3   OH2 3377   2.675   3.729   3.525
 1145TIP3    H1 3378   2.684   3.635   3.509
 1145TIP3    H2 3379   2.642   3.763   3.442
 1146TIP3   OH2 3380   6.997   1.789   6.176
 1146TIP3    H1 3381   7.014   1.739   6.256
 1146TIP3    H2 3382   6.918   1.750   6.140
 1147TIP3   OH2 3383   2.877   7.174   5.023
 1147TIP3    H1 3384   2.834   7.108   4.969
 1147TIP3    H2 3385   2.862   7.256   4.976
 1148TIP3   OH2 3386   1.946   2.986   3.534
 1148TIP3    H1 3387   1.971   2.980   3.442
 1148TIP3    H2 3388   2.015   3.039   3.574
 1149TIP3   OH2 3389   7.884   4.339   2.813
 1149TIP3    H1 3390   7.829   4.296   2.748
 1149TIP3    H2 3391   7.879   4.432   2.792
 1150TIP3   OH2 3392   2.904   6.973   2.639
 1150TIP3    H1 3393   2.974   7.032   2.609
 1150TIP3    H2 3394   2.861   6.946   2.558
 1151TIP3   OH2 3395   5.861   0.344   0.012
 1151TIP3    H1 3396   5.868   0.413   0.079
 1151TIP3    H2 3397   5.806   0.278   0.053
 1152TIP3   OH2 3398   5.622   2.904   6.460
 1152TIP3    H1 3399   5.530   2.925   6.439
 1152TIP3    H2 3400   5.617   2.822   6.509
 1153TIP3   OH2 3401   1.744   5.023   3.681
 1153TIP3    H1 3402   1.664   5.063   3.716
 1153TIP3    H2 3403   1.728   4.929   3.687
 1154TIP3   OH2 3404   2.902   0.127   3.037
 1154TIP3    H1 3405   2.870   0.119   2.948
 1154TIP3    H2 3406   2.856   0.058   3.085
 1155TIP3   OH2 3407   5.238   0.570   6.046
 1155TIP3    H1 3408   5.309   0.626   6.078
 1155TIP3    H2 3409   5.271   0.481   6.057
 1156TIP3   OH2 3410   8.201   6.102   6.066
 1156TIP3    H1 3411   8.153   6.043   6.006
 1156TIP3    H2 3412   8.200   6.056   6.150
 1157TIP3   OH2 3413   6.554   3.864   2.672
 1157TIP3    H1 3414   6.549   3.769   2.663
 1157TIP3    H2 3415   6.638   3.887   2.633
 1158TIP3   OH2 3416   4.315   2.063   1.469
 1158TIP3    H1 3417   4.225   2.080   1.440
 1158TIP3    H2 3418   4.341   1.984   1.421
 1159TIP3   OH2 3419   7.315   0.393   3.044
 1159TIP3    H1 3420   7.311   0.468   3.104
 1159TIP3    H2 3421   7.224   0.365   3.035
 1160TIP3   OH2 3422   6.127   7.584   5.331
 1160TIP3    H1 3423   6.190   7.647   5.296
 1160TIP3    H2 3424   6.044   7.606   5.288
 1161TIP3   OH2 3425   7.019   1.649   4.038
 1161TIP3    H1 3426   6.971   1.566   4.042
 1161TIP3    H2 3427   7.106   1.627   4.072
 1162TIP3   OH2 3428   4.700   7.538   5.206
 1162TIP3    H1 3429   4.619   7.516   5.161
 1162TIP3    H2 3430   4.767   7.538   5.137
 1163TIP3   OH2 3431   0.986   6.636   3.240
 1163TIP3    H1 3432   0.911   6.647   3.299
 1163TIP3    H2 3433   1.062   6.635   3.298
 1164TIP3   OH2 3434   5.953   0.017   1.725
 1164TIP3    H1 3435   5.932   0.019   1.819
 1164TIP3    H2 3436   6.016   0.088   1.713
 1165TIP3   OH2 3437   6.198   0.912   6.665
 1165TIP3    H1 3438   6.203   0.863   6.582
 1165TIP3    H2 3439   6.153   0.993   6.641
 1166TIP3   OH2 3440   5.729   4.022   2.918
 1166TIP3    H1 3441   5.646   4.064   2.937
 1166TIP3    H2 3442   5.795   4.077   2.960
 1167TIP3   OH2 3443   4.964   0.954   5.011
 1167TIP3    H1 3444   4.932   0.936   5.099
 1167TIP3    H2 3445   4.929   1.041   4.991
 1168TIP3   OH2 3446   7.411   6.398   0.200
 1168TIP3    H1 3447   7.430   6.305   0.201
 1168TIP3    H2 3448   7.332   6.407   0.253
 1169TIP3   OH2 3449   0.558   0.824   1.999
 1169TIP3    H1 3450   0.613   0.805   2.075
 1169TIP3    H2 3451   0.617   0.816   1.924
 1170TIP3   OH2 3452   7.351   1.464   5.961
 1170TIP3    H1 3453   7.446   1.476   5.951
 1170TIP3    H2 3454   7.312   1.535   5.911
 1171TIP3   OH2 3455   2.267   5.016   1.725
 1171TIP3    H1 3456   2.240   5.048   1.639
 1171TIP3    H2 3457   2.340   5.073   1.750
 1172TIP3   OH2 3458   5.448   3.190   1.605
 1172TIP3    H1 3459   5.453   3.094   1.601
 1172TIP3    H2 3460   5.360   3.211   1.575
 1173TIP3   OH2 3461   1.657   6.734   4.851
 1173TIP3    H1 3462   1.580   6.678   4.845
 1173TIP3    H2 3463   1.716   6.700   4.783
 1174TIP3   OH2 3464   7.898   1.407   1.656
 1174TIP3    H1 3465   7.827   1.438   1.601
 1174TIP3    H2 3466   7.872   1.319   1.681
 1175TIP3   OH2 3467   3.873   1.804   0.715
 1175TIP3    H1 3468   3.908   1.867   0.652
 1175TIP3    H2 3469   3.950   1.765   0.756
 1176TIP3   OH2 3470   3.012   1.859   6.414
 1176TIP3    H1 3471   2.927   1.888   6.382
 1176TIP3    H2 3472   3.028   1.912   6.492
 1177TIP3   OH2 3473   4.618   6.056   5.456
 1177TIP3    H1 3474   4.651   5.981   5.505
 1177TIP3    H2 3475   4.605   6.124   5.522
 1178TIP3   OH2 3476   3.982   1.615   4.301
 1178TIP3    H1 3477   3.951   1.691   4.252
 1178TIP3    H2 3478   4.066   1.594   4.260
 1179TIP3   OH2 3479   5.105   1.859   1.008
 1179TIP3    H1 3480   5.158   1.779   1.008
 1179TIP3    H2 3481   5.165   1.928   0.981
 1180TIP3   OH2 3482   2.234   0.412   0.634
 1180TIP3    H1 3483   2.258   0.346   0.700
 1180TIP3    H2 3484   2.164   0.371   0.584
 1181TIP3   OH2 3485   3.420   1.678   2.167
 1181TIP3    H1 3486   3.480   1.681   2.242
 1181TIP3    H2 3487   3.371   1.760   2.172
 1182TIP3   OH2 3488   0.093   5.545   3.452
 1182TIP3    H1 3489   0.187   5.531   3.459
 1182TIP3    H2 3490   0.057   5.502   3.529
 1183TIP3   OH2 3491   3.311   1.864   6.327
 1183TIP3    H1 3492   3.220   1.836   6.341
 1183TIP3    H2 3493   3.356   1.784   6.300
 1184TIP3   OH2 3494   4.495   4.054   1.057
 1184TIP3    H1 3495   4.416   4.105   1.076
 1184TIP3    H2 3496   4.524   4.087   0.972
 1185TIP3   OH2 3497   1.871   3.367   4.478
 1185TIP3    H1 3498   1.889   3.281   4.441
 1185TIP3    H2 3499   1.816   3.411   4.412
 1186TIP3   OH2 3500   2.376   1.218   0.146
 1186TIP3    H1 3501   2.311   1.185   0.208
 1186TIP3    H2 3502   2.456   1.225   0.198
 1187TIP3   OH2 3503   7.568   7.320   6.388
 1187TIP3    H1 3504   7.536   7.331   6.298
 1187TIP3    H2 3505   7.619   7.238   6.385
 1188TIP3   OH2 3506   1.308   1.926   3.043
 1188TIP3    H1 3507   1.237   1.968   2.994
 1188TIP3    H2 3508   1.352   1.871   2.979
 1189TIP3   OH2 3509   1.930   0.737   6.259
 1189TIP3    H1 3510   1.982   0.672   6.306
 1189TIP3    H2 3511   1.864   0.765   6.324
 1190TIP3   OH2 3512   0.026   3.080   1.902
 1190TIP3    H1 3513   0.056   3.011   1.961
 1190TIP3    H2 3514   0.095   3.146   1.905
 1191TIP3   OH2 3515   5.410   4.747   0.137
 1191TIP3    H1 3516   5.379   4.658   0.152
 1191TIP3    H2 3517   5.434   4.749   0.045
 1192TIP3   OH2 3518   4.171   2.105   4.043
 1192TIP3    H1 3519   4.132   2.087   4.128
 1192TIP3    H2 3520   4.265   2.106   4.059
 1193TIP3   OH2 3521   5.041   1.940   2.491
 1193TIP3    H1 3522   4.966   1.995   2.470
 1193TIP3    H2 3523   5.016   1.894   2.571
 1194TIP3   OH2 3524   5.141   3.600   0.044
 1194TIP3    H1 3525   5.202   3.659   0.000
 1194TIP3    H2 3526   5.153   3.618   0.137
 1195TIP3   OH2 3527   2.075   3.715   4.172
 1195TIP3    H1 3528   2.020   3.775   4.221
 1195TIP3    H2 3529   2.058   3.735   4.080
 1196TIP3   OH2 3530   2.391   0.280   1.800
 1196TIP3    H1 3531   2.438   0.362   1.815
 1196TIP3    H2 3532   2.302   0.308   1.777
 1197TIP3   OH2 3533   5.875   3.524   0.334
 1197TIP3    H1 3534   5.907   3.609   0.364
 1197TIP3    H2 3535   5.954   3.475   0.313
 1198TIP3   OH2 3536   6.948   6.479   6.430
 1198TIP3    H1 3537   7.009   6.462   6.501
 1198TIP3    H2 3538   7.001   6.520   6.362
 1199TIP3   OH2 3539   4.738   1.346   3.532
 1199TIP3    H1 3540   4.705   1.286   3.465
 1199TIP3    H2 3541   4.665   1.405   3.550
 1200TIP3   OH2 3542   6.760   1.405   2.813
 1200TIP3    H1 3543   6.692   1.353   2.857
 1200TIP3    H2 3544   6.713   1.481   2.778
 1201TIP3   OH2 3545   6.057   2.126   4.068
 1201TIP3    H1 3546   5.989   2.085   4.015
 1201TIP3    H2 3547   6.082   2.204   4.018
 1202TIP3   OH2 3548   0.522   5.310   5.461
 1202TIP3    H1 3549   0.543   5.399   5.430
 1202TIP3    H2 3550   0.508   5.320   5.555
 1203TIP3   OH2 3551   0.573   1.933   0.787
 1203TIP3    H1 3552   0.635   1.916   0.716
 1203TIP3    H2 3553   0.539   2.021   0.768
 1204TIP3   OH2 3554   6.014   3.856   6.625
 1204TIP3    H1 3555   6.040   3.846   6.716
 1204TIP3    H2 3556   6.072   3.924   6.590
 1205TIP3   OH2 3557   3.187   6.953   5.008
 1205TIP3    H1 3558   3.101   6.912   5.019
 1205TIP3    H2 3559   3.236   6.891   4.953
 1206TIP3   OH2 3560   5.745   2.574   3.862
 1206TIP3    H1 3561   5.795   2.498   3.892
 1206TIP3    H2 3562   5.738   2.562   3.768
 1207TIP3   OH2 3563   8.139   0.966   4.546
 1207TIP3    H1 3564   8.190   0.901   4.595
 1207TIP3    H2 3565   8.075   1.000   4.609
 1208TIP3   OH2 3566   5.090   3.999   0.985
 1208TIP3    H1 3567   5.020   4.002   1.050
 1208TIP3    H2 3568   5.121   4.089   0.980
 1209TIP3   OH2 3569   0.794   4.430   3.072
 1209TIP3    H1 3570   0.760   4.445   2.984
 1209TIP3    H2 3571   0.767   4.508   3.121
 1210TIP3   OH2 3572   4.744   6.526   2.675
 1210TIP3    H1 3573   4.764   6.594   2.610
 1210TIP3    H2 3574   4.649   6.526   2.681
 1211TIP3   OH2 3575   2.813   2.984   4.595
 1211TIP3    H1 3576   2.898   2.963   4.557
 1211TIP3    H2 3577   2.834   3.029   4.677
 1212TIP3   OH2 3578   3.637   4.564   0.468
 1212TIP3    H1 3579   3.643   4.547   0.562
 1212TIP3    H2 3580   3.593   4.649   0.461
 1213TIP3   OH2 3581   0.744   5.958   6.501
 1213TIP3    H1 3582   0.803   6.024   6.462
 1213TIP3    H2 3583   0.780   5.874   6.473
 1214TIP3   OH2 3584   2.456   1.720   2.373
 1214TIP3    H1 3585   2.503   1.701   2.454
 1214TIP3    H2 3586   2.372   1.676   2.383
 1215TIP3   OH2 3587   2.099   2.022   4.669
 1215TIP3    H1 3588   2.100   2.117   4.685
 1215TIP3    H2 3589   2.014   1.993   4.700
 1216TIP3   OH2 3590   3.517   4.272   4.554
 1216TIP3    H1 3591   3.430   4.239   4.574
 1216TIP3    H2 3592   3.576   4.199   4.574
 1217TIP3   OH2 3593   2.768   5.211   1.623
 1217TIP3    H1 3594   2.724   5.160   1.691
 1217TIP3    H2 3595   2.852   5.167   1.610
 1218TIP3   OH2 3596   2.987   7.750   3.463
 1218TIP3    H1 3597   3.016   7.693   3.392
 1218TIP3    H2 3598   3.006   7.839   3.431
 1219TIP3   OH2 3599   2.531   1.530   3.250
 1219TIP3    H1 3600   2.567   1.515   3.338
 1219TIP3    H2 3601   2.578   1.468   3.194
 1220TIP3   OH2 3602   6.463   5.524   2.232
 1220TIP3    H1 3603   6.542   5.491   2.275
 1220TIP3    H2 3604   6.493   5.596   2.177
 1221TIP3   OH2 3605   4.800   0.788   0.933
 1221TIP3    H1 3606   4.772   0.749   0.850
 1221TIP3    H2 3607   4.880   0.836   0.910
 1222TIP3   OH2 3608   5.192   0.654   4.603
 1222TIP3    H1 3609   5.143   0.710   4.543
 1222TIP3    H2 3610   5.192   0.702   4.686
 1223TIP3   OH2 3611   4.813   7.143   1.392
 1223TIP3    H1 3612   4.853   7.221   1.428
 1223TIP3    H2 3613   4.843   7.072   1.448
 1224TIP3   OH2 3614   6.394   7.338   5.536
 1224TIP3    H1 3615   6.338   7.335   5.458
 1224TIP3    H2 3616   6.483   7.326   5.501
 1225TIP3   OH2 3617   4.935   2.226   1.541
 1225TIP3    H1 3618   4.997   2.153   1.535
 1225TIP3    H2 3619   4.882   2.219   1.461
 1226TIP3   OH2 3620   3.485   7.394   5.139
 1226TIP3    H1 3621   3.437   7.439   5.069
 1226TIP3    H2 3622   3.567   7.368   5.098
 1227TIP3   OH2 3623   0.871   4.869   0.046
 1227TIP3    H1 3624   0.856   4.807   0.118
 1227TIP3    H2 3625   0.794   4.860  -0.010
 1228TIP3   OH2 3626   6.022   2.662   6.341
 1228TIP3    H1 3627   6.033   2.756   6.323
 1228TIP3    H2 3628   5.973   2.630   6.265
 1229TIP3   OH2 3629   5.806   1.329   3.212
 1229TIP3    H1 3630   5.897   1.301   3.225
 1229TIP3    H2 3631   5.813   1.410   3.163
 1230TIP3   OH2 3632   3.450   6.747   1.378
 1230TIP3    H1 3633   3.499   6.797   1.443
 1230TIP3    H2 3634   3.509   6.676   1.354
 1231TIP3   OH2 3635   6.915   3.178   1.481
 1231TIP3    H1 3636   6.855   3.194   1.409
 1231TIP3    H2 3637   6.890   3.092   1.514
 1232TIP3   OH2 3638   4.206   5.561   3.421
 1232TIP3    H1 3639   4.161   5.501   3.480
 1232TIP3    H2 3640   4.250   5.624   3.478
 1233TIP3   OH2 3641   0.246   2.392   3.360
 1233TIP3    H1 3642   0.333   2.366   3.330
 1233TIP3    H2 3643   0.250   2.386   3.455
 1234TIP3   OH2 3644   3.661   5.604   1.873
 1234TIP3    H1 3645   3.708   5.685   1.887
 1234TIP3    H2 3646   3.578   5.616   1.919
 1235TIP3   OH2 3647   6.646   7.052   0.031
 1235TIP3    H1 3648   6.627   6.974  -0.021
 1235TIP3    H2 3649   6.586   7.046   0.106
 1236TIP3   OH2 3650   7.428   3.673   6.426
 1236TIP3    H1 3651   7.465   3.759   6.446
 1236TIP3    H2 3652   7.428   3.668   6.331
 1237TIP3   OH2 3653   1.112   3.686   6.044
 1237TIP3    H1 3654   1.174   3.733   5.988
 1237TIP3    H2 3655   1.101   3.602   6.001
 1238TIP3   OH2 3656   3.692   7.314   2.141
 1238TIP3    H1 3657   3.665   7.262   2.217
 1238TIP3    H2 3658   3.689   7.252   2.067
 1239TIP3   OH2 3659   3.478   2.077   6.455
 1239TIP3    H1 3660   3.470   2.014   6.526
 1239TIP3    H2 3661   3.428   2.039   6.383
 1240TIP3   OH2 3662   0.855   4.346   4.011
 1240TIP3    H1 3663   0.846   4.434   4.049
 1240TIP3    H2 3664   0.885   4.292   4.084
 1241TIP3   OH2 3665   4.982   2.101   5.454
 1241TIP3    H1 3666   4.894   2.072   5.430
 1241TIP3    H2 3667   5.037   2.024   5.441
 1242TIP3   OH2 3668   2.219   1.532   4.271
 1242TIP3    H1 3669   2.206   1.487   4.355
 1242TIP3    H2 3670   2.164   1.610   4.278
 1243TIP3   OH2 3671   3.935   7.496   5.438
 1243TIP3    H1 3672   3.856   7.469   5.486
 1243TIP3    H2 3673   3.928   7.452   5.353
 1244TIP3   OH2 3674   2.088   1.390   2.597
 1244TIP3    H1 3675   2.069   1.354   2.510
 1244TIP3    H2 3676   2.024   1.460   2.609
 1245TIP3   OH2 3677   3.514   2.726   3.241
 1245TIP3    H1 3678   3.574   2.750   3.171
 1245TIP3    H2 3679   3.438   2.689   3.197
 1246TIP3   OH2 3680   6.373   1.770   0.162
 1246TIP3    H1 3681   6.357   1.863   0.179
 1246TIP3    H2 3682   6.407   1.767   0.073
 1247TIP3   OH2 3683   0.457   3.715   1.953
 1247TIP3    H1 3684   0.428   3.730   1.863
 1247TIP3    H2 3685   0.442   3.622   1.968
 1248TIP3   OH2 3686   0.799   1.213   3.704
 1248TIP3    H1 3687   0.859   1.240   3.636
 1248TIP3    H2 3688   0.842   1.239   3.786
 1249TIP3   OH2 3689   1.767   6.915   2.132
 1249TIP3    H1 3690   1.704   6.860   2.179
 1249TIP3    H2 3691   1.717   6.951   2.058
 1250TIP3   OH2 3692   0.089   0.561   5.574
 1250TIP3    H1 3693   0.025   0.585   5.641
 1250TIP3    H2 3694   0.140   0.491   5.614
 1251TIP3   OH2 3695   1.348   4.231   1.565
 1251TIP3    H1 3696   1.438   4.260   1.549
 1251TIP3    H2 3697   1.333   4.164   1.499
 1252TIP3   OH2 3698   1.238   2.912   0.331
 1252TIP3    H1 3699   1.181   2.838   0.353
 1252TIP3    H2 3700   1.254   2.903   0.237
 1253TIP3   OH2 3701   6.915   3.036   0.498
 1253TIP3    H1 3702   6.991   3.002   0.545
 1253TIP3    H2 3703   6.911   2.984   0.418
 1254TIP3   OH2 3704   0.331   3.759   2.188
 1254TIP3    H1 3705   0.248   3.801   2.165
 1254TIP3    H2 3706   0.376   3.748   2.104
 1255TIP3   OH2 3707   3.235   1.691   1.565
 1255TIP3    H1 3708   3.160   1.678   1.507
 1255TIP3    H2 3709   3.283   1.609   1.562
 1256TIP3   OH2 3710   5.070   0.606   4.926
 1256TIP3    H1 3711   5.104   0.517   4.934
 1256TIP3    H2 3712   4.987   0.596   4.879
 1257TIP3   OH2 3713   2.382   7.412   6.703
 1257TIP3    H1 3714   2.338   7.403   6.787
 1257TIP3    H2 3715   2.459   7.356   6.711
 1258TIP3   OH2 3716   5.599   2.437   6.502
 1258TIP3    H1 3717   5.576   2.425   6.410
 1258TIP3    H2 3718   5.569   2.525   6.524
 1259TIP3   OH2 3719   5.402   7.004   0.084
 1259TIP3    H1 3720   5.348   6.925   0.081
 1259TIP3    H2 3721   5.472   6.987   0.021
 1260TIP3   OH2 3722   1.831   6.377   0.717
 1260TIP3    H1 3723   1.803   6.293   0.753
 1260TIP3    H2 3724   1.774   6.392   0.642
 1261TIP3   OH2 3725   4.260   0.682   0.230
 1261TIP3    H1 3726   4.216   0.597   0.238
 1261TIP3    H2 3727   4.258   0.719   0.319
 1262TIP3   OH2 3728   5.337   0.988   2.746
 1262TIP3    H1 3729   5.381   1.018   2.667
 1262TIP3    H2 3730   5.244   1.008   2.730
 1263TIP3   OH2 3731   1.562   0.131   3.575
 1263TIP3    H1 3732   1.600   0.091   3.497
 1263TIP3    H2 3733   1.468   0.114   3.567
 1264TIP3   OH2 3734   3.020   5.810   3.016
 1264TIP3    H1 3735   3.105   5.814   3.059
 1264TIP3    H2 3736   2.974   5.889   3.046
 1265TIP3   OH2 3737   5.531   3.996   0.800
 1265TIP3    H1 3738   5.544   4.089   0.783
 1265TIP3    H2 3739   5.615   3.967   0.836
 1266TIP3   OH2 3740   0.035   0.883   0.987
 1266TIP3    H1 3741   0.034   0.913   0.896
 1266TIP3    H2 3742   0.096   0.943   1.030
 1267TIP3   OH2 3743   7.510   4.737   0.718
 1267TIP3    H1 3744   7.518   4.724   0.623
 1267TIP3    H2 3745   7.502   4.648   0.753
 1268TIP3   OH2 3746   6.271   5.350   2.111
 1268TIP3    H1 3747   6.219   5.368   2.033
 1268TIP3    H2 3748   6.284   5.255   2.110
 1269TIP3   OH2 3749   7.508   5.331   4.173
 1269TIP3    H1 3750   7.521   5.252   4.120
 1269TIP3    H2 3751   7.455   5.388   4.118
 1270TIP3   OH2 3752   0.100   3.033   2.976
 1270TIP3    H1 3753   0.086   2.947   3.017
 1270TIP3    H2 3754   0.196   3.042   2.972
 1271TIP3   OH2 3755   1.076   4.258   2.977
 1271TIP3    H1 3756   1.048   4.263   3.068
 1271TIP3    H2 3757   1.103   4.167   2.966
 1272TIP3   OH2 3758   3.335   7.524   0.863
 1272TIP3    H1 3759   3.279   7.577   0.805
 1272TIP3    H2 3760   3.418   7.516   0.815
 1273TIP3   OH2 3761   8.252   4.216   3.213
 1273TIP3    H1 3762   8.307   4.262   3.150
 1273TIP3    H2 3763   8.312   4.157   3.258
 1274TIP3   OH2 3764   7.145   1.808   4.484
 1274TIP3    H1 3765   7.125   1.751   4.409
 1274TIP3    H2 3766   7.061   1.850   4.504
 1275TIP3   OH2 3767   0.635   6.810   6.670
 1275TIP3    H1 3768   0.652   6.853   6.586
 1275TIP3    H2 3769   0.616   6.882   6.731
 1276TIP3   OH2 3770   2.495   2.478   3.578
 1276TIP3    H1 3771   2.421   2.491   3.637
 1276TIP3    H2 3772   2.562   2.540   3.608
 1277TIP3   OH2 3773   0.082   2.580   3.422
 1277TIP3    H1 3774   0.147   2.521   3.383
 1277TIP3    H2 3775   0.062   2.540   3.507
 1278TIP3   OH2 3776   0.962   2.726   6.574
 1278TIP3    H1 3777   0.996   2.754   6.659
 1278TIP3    H2 3778   0.975   2.631   6.573
 1279TIP3   OH2 3779   1.904   2.554   2.757
 1279TIP3    H1 3780   1.936   2.465   2.765
 1279TIP3    H2 3781   1.868   2.575   2.843
 1280TIP3   OH2 3782   6.313   5.978   1.908
 1280TIP3    H1 3783   6.242   5.914   1.911
 1280TIP3    H2 3784   6.271   6.062   1.926
 1281TIP3   OH2 3785   1.481   7.301   6.502
 1281TIP3    H1 3786   1.538   7.369   6.539
 1281TIP3    H2 3787   1.447   7.340   6.422
 1282TIP3   OH2 3788   4.342   0.862   5.921
 1282TIP3    H1 3789   4.323   0.894   6.009
 1282TIP3    H2 3790   4.286   0.785   5.911
 1283TIP3   OH2 3791   1.256   5.077   1.947
 1283TIP3    H1 3792   1.269   4.988   1.980
 1283TIP3    H2 3793   1.292   5.133   2.016
 1284TIP3   OH2 3794   4.208   3.608   1.808
 1284TIP3    H1 3795   4.198   3.701   1.827
 1284TIP3    H2 3796   4.174   3.598   1.719
 1285TIP3   OH2 3797   4.754   2.805   6.054
 1285TIP3    H1 3798   4.802   2.839   5.979
 1285TIP3    H2 3799   4.776   2.712   6.056
 1286TIP3   OH2 3800   0.136   7.678   0.571
 1286TIP3    H1 3801   0.103   7.683   0.660
 1286TIP3    H2 3802   0.230   7.659   0.581
 1287TIP3   OH2 3803   0.697   3.159   3.633
 1287TIP3    H1 3804   0.710   3.152   3.539
 1287TIP3    H2 3805   0.615   3.209   3.642
 1288TIP3   OH2 3806   3.074   4.406   1.008
 1288TIP3    H1 3807   3.008   4.472   0.989
 1288TIP3    H2 3808   3.077   4.401   1.103
 1289TIP3   OH2 3809   6.934   5.463   3.297
 1289TIP3    H1 3810   7.017   5.433   3.259
 1289TIP3    H2 3811   6.873   5.465   3.223
 1290TIP3   OH2 3812   3.839   7.616   3.552
 1290TIP3    H1 3813   3.849   7.701   3.594
 1290TIP3    H2 3814   3.811   7.637   3.462
 1291TIP3   OH2 3815   3.987   0.206   0.082
 1291TIP3    H1 3816   4.017   0.234  -0.005
 1291TIP3    H2 3817   3.892   0.194   0.072
 1292TIP3   OH2 3818   0.447   4.609   6.792
 1292TIP3    H1 3819   0.460   4.567   6.707
 1292TIP3    H2 3820   0.535   4.636   6.819
 1293TIP3   OH2 3821   5.882   7.399   0.308
 1293TIP3    H1 3822   5.930   7.385   0.226
 1293TIP3    H2 3823   5.845   7.313   0.329
 1294TIP3   OH2 3824   6.863   3.449   3.297
 1294TIP3    H1 3825   6.935   3.473   3.355
 1294TIP3    H2 3826   6.785   3.460   3.351
 1295TIP3   OH2 3827   3.934   5.925   2.709
 1295TIP3    H1 3828   3.936   5.964   2.621
 1295TIP3    H2 3829   3.844   5.934   2.738
 1296TIP3   OH2 3830   1.680   7.773   3.325
 1296TIP3    H1 3831   1.668   7.691   3.372
 1296TIP3    H2 3832   1.698   7.747   3.234
 1297TIP3   OH2 3833   1.660   4.842   2.963
 1297TIP3    H1 3834   1.626   4.755   2.939
 1297TIP3    H2 3835   1.628   4.856   3.052
 1298TIP3   OH2 3836   4.477   4.468   4.589
 1298TIP3    H1 3837   4.489   4.386   4.636
 1298TIP3    H2 3838   4.478   4.535   4.658
 1299TIP3   OH2 3839   5.910   3.819   5.208
 1299TIP3    H1 3840   5.903   3.841   5.115
 1299TIP3    H2 3841   5.915   3.903   5.253
 1300TIP3   OH2 3842   5.711   5.238   2.297
 1300TIP3    H1 3843   5.803   5.264   2.309
 1300TIP3    H2 3844   5.698   5.239   2.203
 1301TIP3   OH2 3845   5.591   7.835   2.566
 1301TIP3    H1 3846   5.641   7.848   2.485
 1301TIP3    H2 3847   5.601   7.742   2.585
 1302TIP3   OH2 3848   4.288   4.797   5.377
 1302TIP3    H1 3849   4.217   4.858   5.397
 1302TIP3    H2 3850   4.279   4.728   5.443
 1303TIP3   OH2 3851   7.848   2.401   6.721
 1303TIP3    H1 3852   7.882   2.394   6.810
 1303TIP3    H2 3853   7.757   2.371   6.728
 1304TIP3   OH2 3854   3.736   2.904   6.130
 1304TIP3    H1 3855   3.670   2.836   6.144
 1304TIP3    H2 3856   3.791   2.870   6.059
 1305TIP3   OH2 3857   2.497   4.249   3.813
 1305TIP3    H1 3858   2.436   4.265   3.741
 1305TIP3    H2 3859   2.468   4.307   3.883
 1306TIP3   OH2 3860   0.676   6.260   4.026
 1306TIP3    H1 3861   0.619   6.324   4.067
 1306TIP3    H2 3862   0.657   6.178   4.071
 1307TIP3   OH2 3863   2.090   1.104   4.322
 1307TIP3    H1 3864   2.089   1.017   4.363
 1307TIP3    H2 3865   2.154   1.154   4.373
 1308TIP3   OH2 3866   6.412   7.603   4.351
 1308TIP3    H1 3867   6.385   7.590   4.260
 1308TIP3    H2 3868   6.359   7.540   4.400
 1309TIP3   OH2 3869   2.372   0.120   6.045
 1309TIP3    H1 3870   2.324   0.182   5.990
 1309TIP3    H2 3871   2.417   0.174   6.110
 1310TIP3   OH2 3872   2.726   6.930   4.546
 1310TIP3    H1 3873   2.732   6.987   4.622
 1310TIP3    H2 3874   2.707   6.989   4.473
 1311TIP3   OH2 3875   2.998   1.805   4.399
 1311TIP3    H1 3876   2.942   1.781   4.325
 1311TIP3    H2 3877   3.084   1.820   4.361
 1312TIP3   OH2 3878   5.216   5.902   6.100
 1312TIP3    H1 3879   5.231   5.859   6.016
 1312TIP3    H2 3880   5.185   5.832   6.157
 1313TIP3   OH2 3881   4.629   7.599   3.505
 1313TIP3    H1 3882   4.666   7.680   3.539
 1313TIP3    H2 3883   4.554   7.581   3.562
 1314TIP3   OH2 3884   4.928   3.701   4.929
 1314TIP3    H1 3885   4.855   3.639   4.934
 1314TIP3    H2 3886   4.930   3.743   5.015
 1315TIP3   OH2 3887   4.126   0.729   6.104
 1315TIP3    H1 3888   4.136   0.674   6.027
 1315TIP3    H2 3889   4.031   0.733   6.118
 1316TIP3   OH2 3890   6.437   4.798   4.204
 1316TIP3    H1 3891   6.503   4.735   4.232
 1316TIP3    H2 3892   6.476   4.883   4.219
 1317TIP3   OH2 3893   0.835   2.248   0.723
 1317TIP3    H1 3894   0.851   2.340   0.704
 1317TIP3    H2 3895   0.873   2.200   0.650
 1318TIP3   OH2 3896   5.872   4.608   3.322
 1318TIP3    H1 3897   5.881   4.522   3.363
 1318TIP3    H2 3898   5.922   4.667   3.378
 1319TIP3   OH2 3899   1.647   4.078   4.474
 1319TIP3    H1 3900   1.553   4.060   4.468
 1319TIP3    H2 3901   1.683   4.004   4.522
 1320TIP3   OH2 3902   7.567   0.933   5.344
 1320TIP3    H1 3903   7.568   0.855   5.401
 1320TIP3    H2 3904   7.539   0.899   5.259
 1321TIP3   OH2 3905   1.884   2.674   5.036
 1321TIP3    H1 3906   1.806   2.621   5.050
 1321TIP3    H2 3907   1.957   2.612   5.040
 1322TIP3   OH2 3908   3.799   6.534   6.778
 1322TIP3    H1 3909   3.883   6.526   6.823
 1322TIP3    H2 3910   3.817   6.505   6.688
 1323TIP3   OH2 3911   1.692   1.020   0.940
 1323TIP3    H1 3912   1.601   1.034   0.914
 1323TIP3    H2 3913   1.740   1.017   0.857
 1324TIP3   OH2 3914   2.711   2.586   3.666
 1324TIP3    H1 3915   2.738   2.667   3.623
 1324TIP3    H2 3916   2.780   2.523   3.645
 1325TIP3   OH2 3917   2.423   5.399   3.105
 1325TIP3    H1 3918   2.386   5.446   3.031
 1325TIP3    H2 3919   2.517   5.392   3.085
 1326TIP3   OH2 3920   6.658   6.457   2.244
 1326TIP3    H1 3921   6.580   6.493   2.203
 1326TIP3    H2 3922   6.626   6.384   2.297
 1327TIP3   OH2 3923   6.948   6.348   1.327
 1327TIP3    H1 3924   7.002   6.278   1.290
 1327TIP3    H2 3925   6.858   6.321   1.308
 1328TIP3   OH2 3926   6.291   1.460   0.061
 1328TIP3    H1 3927   6.300   1.552   0.037
 1328TIP3    H2 3928   6.253   1.461   0.148
 1329TIP3   OH2 3929   6.054   3.585   3.901
 1329TIP3    H1 3930   6.077   3.676   3.923
 1329TIP3    H2 3931   6.060   3.582   3.805
 1330TIP3   OH2 3932   5.537   4.628   1.028
 1330TIP3    H1 3933   5.600   4.670   1.086
 1330TIP3    H2 3934   5.557   4.534   1.035
 1331TIP3   OH2 3935   3.917   5.437   1.037
 1331TIP3    H1 3936   3.845   5.432   0.974
 1331TIP3    H2 3937   3.875   5.426   1.123
 1332TIP3   OH2 3938   1.879   6.749   4.196
 1332TIP3    H1 3939   1.910   6.801   4.122
 1332TIP3    H2 3940   1.784   6.742   4.183
 1333TIP3   OH2 3941   2.857   5.007   0.772
 1333TIP3    H1 3942   2.833   5.034   0.860
 1333TIP3    H2 3943   2.903   5.082   0.736
 1334TIP3   OH2 3944   2.695   5.794   5.077
 1334TIP3    H1 3945   2.738   5.736   5.140
 1334TIP3    H2 3946   2.602   5.784   5.095
 1335TIP3   OH2 3947   6.723   3.757   2.332
 1335TIP3    H1 3948   6.646   3.772   2.387
 1335TIP3    H2 3949   6.692   3.697   2.263
 1336TIP3   OH2 3950   5.660   3.875   3.137
 1336TIP3    H1 3951   5.619   3.800   3.094
 1336TIP3    H2 3952   5.675   3.938   3.066
 1337TIP3   OH2 3953   6.576   0.208   5.549
 1337TIP3    H1 3954   6.523   0.224   5.470
 1337TIP3    H2 3955   6.666   0.202   5.516
 1338TIP3   OH2 3956   6.409   7.633   4.712
 1338TIP3    H1 3957   6.336   7.673   4.759
 1338TIP3    H2 3958   6.396   7.660   4.621
 1339TIP3   OH2 3959   3.747   1.568   0.151
 1339TIP3    H1 3960   3.684   1.499   0.130
 1339TIP3    H2 3961   3.832   1.525   0.150
 1340TIP3   OH2 3962   3.281   2.931   1.843
 1340TIP3    H1 3963   3.200   2.960   1.885
 1340TIP3    H2 3964   3.328   2.884   1.912
 1341TIP3   OH2 3965   4.925   6.197   3.552
 1341TIP3    H1 3966   4.843   6.149   3.539
 1341TIP3    H2 3967   4.929   6.258   3.479
 1342TIP3   OH2 3968   4.810   5.670   3.583
 1342TIP3    H1 3969   4.715   5.677   3.597
 1342TIP3    H2 3970   4.838   5.602   3.643
 1343TIP3   OH2 3971   6.876   4.199   0.571
 1343TIP3    H1 3972   6.910   4.240   0.651
 1343TIP3    H2 3973   6.941   4.221   0.503
 1344TIP3   OH2 3974   5.613   0.203   4.300
 1344TIP3    H1 3975   5.701   0.170   4.318
 1344TIP3    H2 3976   5.607   0.203   4.204
 1345TIP3   OH2 3977   6.615   2.701   0.431
 1345TIP3    H1 3978   6.520   2.703   0.448
 1345TIP3    H2 3979   6.628   2.625   0.375
 1346TIP3   OH2 3980   6.157   0.981   5.440
 1346TIP3    H1 3981   6.128   0.941   5.358
 1346TIP3    H2 3982   6.184   1.070   5.415
 1347TIP3   OH2 3983   3.054   2.647   2.756
 1347TIP3    H1 3984   3.062   2.726   2.702
 1347TIP3    H2 3985   3.066   2.574   2.695
 1348TIP3   OH2 3986   6.087   2.401   3.960
 1348TIP3    H1 3987   6.082   2.428   3.869
 1348TIP3    H2 3988   6.177   2.421   3.987
 1349TIP3   OH2 3989   5.691   1.533   0.668
 1349TIP3    H1 3990   5.699   1.454   0.722
 1349TIP3    H2 3991   5.767   1.529   0.609
 1350TIP3   OH2 3992   3.812   2.968   4.113
 1350TIP3    H1 3993   3.777   2.880   4.126
 1350TIP3    H2 3994   3.749   3.011   4.055
 1351TIP3   OH2 3995   2.044   5.845   3.003
 1351TIP3    H1 3996   1.972   5.907   2.998
 1351TIP3    H2 3997   2.037   5.806   3.090
 1352TIP3   OH2 3998   2.331   7.370   0.765
 1352TIP3    H1 3999   2.422   7.397   0.775
 1352TIP3    H2 4000   2.309   7.392   0.674
 1353TIP3   OH2 4001   2.205   2.579   6.087
 1353TIP3    H1 4002   2.235   2.625   6.165
 1353TIP3    H2 4003   2.285   2.553   6.042
 1354TIP3   OH2 4004   1.450   2.928   1.661
 1354TIP3    H1 4005   1.440   3.018   1.630
 1354TIP3    H2 4006   1.531   2.929   1.712
 1355TIP3   OH2 4007   1.565   0.089   1.863
 1355TIP3    H1 4008   1.610   0.166   1.828
 1355TIP3    H2 4009   1.477   0.119   1.883
 1356TIP3   OH2 4010   6.189   3.981   2.026
 1356TIP3    H1 4011   6.247   4.031   1.969
 1356TIP3    H2 4012   6.101   4.003   1.995
 1357TIP3   OH2 4013   4.910   7.367   1.512
 1357TIP3    H1 4014   4.968   7.391   1.440
 1357TIP3    H2 4015   4.837   7.429   1.505
 1358TIP3   OH2 4016   4.390   5.376   6.158
 1358TIP3    H1 4017   4.317   5.436   6.148
 1358TIP3    H2 4018   4.453   5.423   6.213
 1359TIP3   OH2 4019   3.543  -0.004   3.818
 1359TIP3    H1 4020   3.625   0.018   3.774
 1359TIP3    H2 4021   3.476   0.047   3.771
 1360TIP3   OH2 4022   3.615   6.964   6.214
 1360TIP3    H1 4023   3.589   7.051   6.183
 1360TIP3    H2 4024   3.599   6.966   6.308
 1361TIP3   OH2 4025   8.283   2.495   6.387
 1361TIP3    H1 4026   8.201   2.446   6.393
 1361TIP3    H2 4027   8.289   2.541   6.471
 1362TIP3   OH2 4028   2.647   3.327   3.069
 1362TIP3    H1 4029   2.595   3.346   2.992
 1362TIP3    H2 4030   2.678   3.237   3.056
 1363TIP3   OH2 4031   2.269   2.916   6.735
 1363TIP3    H1 4032   2.275   2.908   6.640
 1363TIP3    H2 4033   2.358   2.905   6.766
 1364TIP3   OH2 4034   6.393   6.130   3.947
 1364TIP3    H1 4035   6.306   6.090   3.946
 1364TIP3    H2 4036   6.420   6.127   4.038
 1365TIP3   OH2 4037   7.747   4.199   3.049
 1365TIP3    H1 4038   7.795   4.149   3.114
 1365TIP3    H2 4039   7.814   4.247   3.001
 1366TIP3   OH2 4040   7.782   0.851   5.786
 1366TIP3    H1 4041   7.784   0.884   5.696
 1366TIP3    H2 4042   7.829   0.918   5.836
 1367TIP3   OH2 4043   7.413   7.170   2.115
 1367TIP3    H1 4044   7.505   7.170   2.139
 1367TIP3    H2 4045   7.408   7.229   2.039
 1368TIP3   OH2 4046   4.450   7.138   5.907
 1368TIP3    H1 4047   4.450   7.233   5.915
 1368TIP3    H2 4048   4.503   7.108   5.981
 1369TIP3   OH2 4049   7.952   2.299   5.530
 1369TIP3    H1 4050   7.968   2.352   5.608
 1369TIP3    H2 4051   7.878   2.341   5.486
 1370TIP3   OH2 4052   2.713   1.427   4.683
 1370TIP3    H1 4053   2.754   1.469   4.759
 1370TIP3    H2 4054   2.785   1.392   4.632
 1371TIP3   OH2 4055   3.146   4.184   0.885
 1371TIP3    H1 4056   3.158   4.191   0.790
 1371TIP3    H2 4057   3.100   4.264   0.909
 1372TIP3   OH2 4058   2.187   2.006   0.905
 1372TIP3    H1 4059   2.225   1.971   0.986
 1372TIP3    H2 4060   2.262   2.036   0.854
 1373TIP3   OH2 4061   1.542   2.469   4.568
 1373TIP3    H1 4062   1.559   2.496   4.659
 1373TIP3    H2 4063   1.482   2.395   4.576
 1374TIP3   OH2 4064   3.120   4.864   5.399
 1374TIP3    H1 4065   3.200   4.910   5.375
 1374TIP3    H2 4066   3.073   4.852   5.316
 1375TIP3   OH2 4067   1.672   1.298   0.545
 1375TIP3    H1 4068   1.671   1.386   0.583
 1375TIP3    H2 4069   1.579   1.276   0.534
 1376TIP3   OH2 4070   6.353   4.516   5.925
 1376TIP3    H1 4071   6.272   4.469   5.902
 1376TIP3    H2 4072   6.330   4.608   5.918
 1377TIP3   OH2 4073   7.130   2.640   5.721
 1377TIP3    H1 4074   7.133   2.670   5.630
 1377TIP3    H2 4075   7.157   2.548   5.717
 1378TIP3   OH2 4076   0.307   1.185   4.204
 1378TIP3    H1 4077   0.313   1.095   4.172
 1378TIP3    H2 4078   0.214   1.200   4.216
 1379TIP3   OH2 4079   3.277   5.129   6.046
 1379TIP3    H1 4080   3.246   5.211   6.006
 1379TIP3    H2 4081   3.371   5.129   6.031
 1380TIP3   OH2 4082   5.514   6.039   0.958
 1380TIP3    H1 4083   5.550   6.076   1.039
 1380TIP3    H2 4084   5.452   5.973   0.988
 1381TIP3   OH2 4085   6.512   3.546   4.462
 1381TIP3    H1 4086   6.457   3.475   4.496
 1381TIP3    H2 4087   6.591   3.502   4.431
 1382TIP3   OH2 4088   0.080   0.990   5.952
 1382TIP3    H1 4089   0.071   0.961   6.043
 1382TIP3    H2 4090   0.088   1.085   5.958
 1383TIP3   OH2 4091   3.959   3.630   6.493
 1383TIP3    H1 4092   3.918   3.674   6.568
 1383TIP3    H2 4093   3.957   3.537   6.515
 1384TIP3   OH2 4094   3.882   0.011   3.968
 1384TIP3    H1 4095   3.956   0.072   3.966
 1384TIP3    H2 4096   3.818   0.050   3.908
 1385TIP3   OH2 4097   7.366   5.604   0.918
 1385TIP3    H1 4098   7.321   5.685   0.892
 1385TIP3    H2 4099   7.455   5.633   0.939
 1386TIP3   OH2 4100   3.537   7.216   2.963
 1386TIP3    H1 4101   3.610   7.272   2.937
 1386TIP3    H2 4102   3.494   7.193   2.881
 1387TIP3   OH2 4103   2.078   2.652   1.686
 1387TIP3    H1 4104   2.140   2.704   1.738
 1387TIP3    H2 4105   2.116   2.652   1.598
 1388TIP3   OH2 4106   0.991   2.128   1.173
 1388TIP3    H1 4107   1.056   2.100   1.108
 1388TIP3    H2 4108   0.962   2.214   1.143
 1389TIP3   OH2 4109   5.384   0.185   3.769
 1389TIP3    H1 4110   5.363   0.147   3.684
 1389TIP3    H2 4111   5.446   0.124   3.809
 1390TIP3   OH2 4112   6.378   1.729   6.335
 1390TIP3    H1 4113   6.301   1.707   6.388
 1390TIP3    H2 4114   6.360   1.689   6.249
 1391TIP3   OH2 4115   8.166   0.387   1.089
 1391TIP3    H1 4116   8.251   0.346   1.109
 1391TIP3    H2 4117   8.174   0.416   0.999
 1392TIP3   OH2 4118   7.001   6.571   3.177
 1392TIP3    H1 4119   7.096   6.585   3.178
 1392TIP3    H2 4120   6.963   6.657   3.197
 1393TIP3   OH2 4121   7.069   1.909   3.910
 1393TIP3    H1 4122   7.019   1.983   3.946
 1393TIP3    H2 4123   7.034   1.832   3.955
 1394TIP3   OH2 4124   7.196   3.778   6.232
 1394TIP3    H1 4125   7.195   3.852   6.293
 1394TIP3    H2 4126   7.129   3.718   6.266
 1395TIP3   OH2 4127   3.335   7.483   4.910
 1395TIP3    H1 4128   3.297   7.569   4.931
 1395TIP3    H2 4129   3.275   7.420   4.950
 1396TIP3   OH2 4130   3.012   3.756   4.481
 1396TIP3    H1 4131   3.036   3.692   4.548
 1396TIP3    H2 4132   2.920   3.774   4.496
 1397TIP3   OH2 4133   1.886   0.077   0.307
 1397TIP3    H1 4134   1.835   0.147   0.265
 1397TIP3    H2 4135   1.839  -0.004   0.285
 1398TIP3   OH2 4136   1.309   2.912   1.309
 1398TIP3    H1 4137   1.298   2.819   1.290
 1398TIP3    H2 4138   1.333   2.950   1.224
 1399TIP3   OH2 4139   2.107   4.384   3.841
 1399TIP3    H1 4140   2.117   4.447   3.912
 1399TIP3    H2 4141   2.167   4.416   3.773
 1400TIP3   OH2 4142   7.965   1.782   2.950
 1400TIP3    H1 4143   7.992   1.839   3.022
 1400TIP3    H2 4144   7.885   1.822   2.917
 1401TIP3   OH2 4145   3.867   3.210   0.852
 1401TIP3    H1 4146   3.858   3.122   0.887
 1401TIP3    H2 4147   3.955   3.237   0.878
 1402TIP3   OH2 4148   4.337   3.439   0.351
 1402TIP3    H1 4149   4.356   3.520   0.304
 1402TIP3    H2 4150   4.421   3.394   0.357
 1403TIP3   OH2 4151   8.091   6.450   5.742
 1403TIP3    H1 4152   8.182   6.462   5.713
 1403TIP3    H2 4153   8.070   6.361   5.714
 1404TIP3   OH2 4154   4.017   1.537   1.256
 1404TIP3    H1 4155   4.100   1.532   1.303
 1404TIP3    H2 4156   4.010   1.453   1.210
 1405TIP3   OH2 4157   0.206   2.871   3.563
 1405TIP3    H1 4158   0.223   2.965   3.562
 1405TIP3    H2 4159   0.134   2.859   3.500
 1406TIP3   OH2 4160   7.871   7.415   4.803
 1406TIP3    H1 4161   7.939   7.482   4.811
 1406TIP3    H2 4162   7.801   7.457   4.753
 1407TIP3   OH2 4163   4.006   7.182   0.102
 1407TIP3    H1 4164   3.943   7.120   0.139
 1407TIP3    H2 4165   4.016   7.249   0.170
 1408TIP3   OH2 4166   5.416   0.311   1.377
 1408TIP3    H1 4167   5.493   0.293   1.323
 1408TIP3    H2 4168   5.428   0.402   1.405
 1409TIP3   OH2 4169   2.876   4.805   5.871
 1409TIP3    H1 4170   2.944   4.855   5.916
 1409TIP3    H2 4171   2.899   4.811   5.778
 1410TIP3   OH2 4172   0.150   5.338   5.925
 1410TIP3    H1 4173   0.125   5.411   5.868
 1410TIP3    H2 4174   0.106   5.355   6.008
 1411TIP3   OH2 4175   6.378   3.699   0.099
 1411TIP3    H1 4176   6.300   3.751   0.117
 1411TIP3    H2 4177   6.365   3.618   0.148
 1412TIP3   OH2 4178   3.552   6.240   5.772
 1412TIP3    H1 4179   3.565   6.308   5.839
 1412TIP3    H2 4180   3.466   6.258   5.735
 1413TIP3   OH2 4181   5.474   7.668   5.594
 1413TIP3    H1 4182   5.489   7.733   5.525
 1413TIP3    H2 4183   5.499   7.585   5.554
 1414TIP3   OH2 4184   2.450   1.798   5.950
 1414TIP3    H1 4185   2.501   1.858   5.896
 1414TIP3    H2 4186   2.442   1.718   5.897
 1415TIP3   OH2 4187   0.537   1.507   0.150
 1415TIP3    H1 4188   0.543   1.459   0.233
 1415TIP3    H2 4189   0.493   1.588   0.173
 1416TIP3   OH2 4190   3.819   3.887   1.959
 1416TIP3    H1 4191   3.810   3.873   2.054
 1416TIP3    H2 4192   3.853   3.804   1.926
 1417TIP3   OH2 4193   2.769   7.313   1.426
 1417TIP3    H1 4194   2.682   7.352   1.418
 1417TIP3    H2 4195   2.829   7.383   1.400
 1418TIP3   OH2 4196   2.429   1.321   4.677
 1418TIP3    H1 4197   2.508   1.353   4.635
 1418TIP3    H2 4198   2.358   1.344   4.616
 1419TIP3   OH2 4199   4.290   3.963   0.206
 1419TIP3    H1 4200   4.232   3.986   0.279
 1419TIP3    H2 4201   4.239   3.984   0.128
 1420TIP3   OH2 4202   2.626   3.602   0.674
 1420TIP3    H1 4203   2.580   3.521   0.650
 1420TIP3    H2 4204   2.711   3.573   0.707
 1421TIP3   OH2 4205   1.461   0.474   2.426
 1421TIP3    H1 4206   1.531   0.509   2.481
 1421TIP3    H2 4207   1.504   0.411   2.369
 1422TIP3   OH2 4208   6.965   3.602   3.529
 1422TIP3    H1 4209   7.052   3.641   3.529
 1422TIP3    H2 4210   6.907   3.673   3.501
 1423TIP3   OH2 4211   5.548   1.922   5.790
 1423TIP3    H1 4212   5.634   1.908   5.750
 1423TIP3    H2 4213   5.513   1.999   5.744
 1424TIP3   OH2 4214   6.872   6.738   5.609
 1424TIP3    H1 4215   6.872   6.831   5.583
 1424TIP3    H2 4216   6.936   6.733   5.680
 1425TIP3   OH2 4217   7.318   7.180   0.560
 1425TIP3    H1 4218   7.348   7.252   0.615
 1425TIP3    H2 4219   7.295   7.222   0.477
 1426TIP3   OH2 4220   2.392   5.358   1.520
 1426TIP3    H1 4221   2.350   5.404   1.593
 1426TIP3    H2 4222   2.381   5.416   1.445
 1427TIP3   OH2 4223   6.125   0.820   1.744
 1427TIP3    H1 4224   6.173   0.845   1.823
 1427TIP3    H2 4225   6.083   0.737   1.766
 1428TIP3   OH2 4226   1.896   0.613   3.147
 1428TIP3    H1 4227   1.959   0.661   3.199
 1428TIP3    H2 4228   1.871   0.674   3.077
 1429TIP3   OH2 4229   3.130   2.065   0.311
 1429TIP3    H1 4230   3.067   2.038   0.244
 1429TIP3    H2 4231   3.210   2.019   0.288
 1430TIP3   OH2 4232   2.011   4.835   0.549
 1430TIP3    H1 4233   1.951   4.896   0.592
 1430TIP3    H2 4234   2.003   4.755   0.601
 1431TIP3   OH2 4235   4.247   1.098   2.054
 1431TIP3    H1 4236   4.204   1.069   1.974
 1431TIP3    H2 4237   4.339   1.107   2.029
 1432TIP3   OH2 4238   7.169   5.265   2.568
 1432TIP3    H1 4239   7.250   5.269   2.619
 1432TIP3    H2 4240   7.196   5.235   2.481
 1433TIP3   OH2 4241   3.703   0.115   2.516
 1433TIP3    H1 4242   3.646   0.187   2.488
 1433TIP3    H2 4243   3.783   0.159   2.548
 1434TIP3   OH2 4244   4.956   5.257   3.387
 1434TIP3    H1 4245   4.878   5.218   3.427
 1434TIP3    H2 4246   5.028   5.233   3.445
 1435TIP3   OH2 4247   7.645   6.279   3.033
 1435TIP3    H1 4248   7.633   6.292   2.939
 1435TIP3    H2 4249   7.702   6.351   3.061
 1436TIP3   OH2 4250   0.332   3.491   5.771
 1436TIP3    H1 4251   0.414   3.541   5.769
 1436TIP3    H2 4252   0.263   3.558   5.769
 1437TIP3   OH2 4253   4.785   0.567   3.998
 1437TIP3    H1 4254   4.816   0.478   3.982
 1437TIP3    H2 4255   4.842   0.622   3.944
 1438TIP3   OH2 4256   3.292   2.419   1.896
 1438TIP3    H1 4257   3.276   2.491   1.836
 1438TIP3    H2 4258   3.365   2.448   1.951
 1439TIP3   OH2 4259   4.573   4.251   5.259
 1439TIP3    H1 4260   4.655   4.239   5.211
 1439TIP3    H2 4261   4.512   4.287   5.195
 1440TIP3   OH2 4262   7.416   6.721   3.954
 1440TIP3    H1 4263   7.510   6.713   3.934
 1440TIP3    H2 4264   7.375   6.654   3.901
 1441TIP3   OH2 4265   6.842   1.333   1.512
 1441TIP3    H1 4266   6.833   1.266   1.580
 1441TIP3    H2 4267   6.761   1.384   1.516
 1442TIP3   OH2 4268   6.233   4.571   3.318
 1442TIP3    H1 4269   6.248   4.488   3.272
 1442TIP3    H2 4270   6.246   4.550   3.411
 1443TIP3   OH2 4271   0.711   6.325   6.218
 1443TIP3    H1 4272   0.797   6.283   6.223
 1443TIP3    H2 4273   0.670   6.306   6.302
 1444TIP3   OH2 4274   2.300   4.147   2.571
 1444TIP3    H1 4275   2.371   4.105   2.621
 1444TIP3    H2 4276   2.238   4.175   2.638
 1445TIP3   OH2 4277   0.042   0.835   2.312
 1445TIP3    H1 4278   0.077   0.925   2.314
 1445TIP3    H2 4279   0.107   0.786   2.262
 1446TIP3   OH2 4280   4.106   7.786   3.373
 1446TIP3    H1 4281   4.037   7.848   3.351
 1446TIP3    H2 4282   4.111   7.789   3.469
 1447TIP3   OH2 4283   1.988   5.522   3.644
 1447TIP3    H1 4284   2.008   5.612   3.619
 1447TIP3    H2 4285   2.012   5.470   3.567
 1448TIP3   OH2 4286   0.230   7.208   3.369
 1448TIP3    H1 4287   0.169   7.280   3.354
 1448TIP3    H2 4288   0.254   7.216   3.462
 1449TIP3   OH2 4289   2.149   0.678   4.306
 1449TIP3    H1 4290   2.194   0.762   4.314
 1449TIP3    H2 4291   2.124   0.657   4.396
 1450TIP3   OH2 4292   7.507   4.315   1.633
 1450TIP3    H1 4293   7.446   4.349   1.568
 1450TIP3    H2 4294   7.562   4.390   1.656
 1451TIP3   OH2 4295   3.871   6.437   3.984
 1451TIP3    H1 4296   3.811   6.363   3.981
 1451TIP3    H2 4297   3.841   6.489   4.058
 1452TIP3   OH2 4298   1.649   5.894   6.300
 1452TIP3    H1 4299   1.616   5.884   6.211
 1452TIP3    H2 4300   1.738   5.928   6.289
 1453TIP3   OH2 4301   7.973   4.618   3.852
 1453TIP3    H1 4302   8.056   4.606   3.806
 1453TIP3    H2 4303   7.908   4.629   3.782
 1454TIP3   OH2 4304   5.402   3.220   4.940
 1454TIP3    H1 4305   5.494   3.237   4.959
 1454TIP3    H2 4306   5.374   3.159   5.008
 1455TIP3   OH2 4307   6.381   1.860   4.421
 1455TIP3    H1 4308   6.431   1.823   4.494
 1455TIP3    H2 4309   6.393   1.955   4.431
 1456TIP3   OH2 4310   6.929   0.888   3.949
 1456TIP3    H1 4311   6.957   0.876   4.040
 1456TIP3    H2 4312   6.960   0.809   3.904
 1457TIP3   OH2 4313   7.647   5.672   2.784
 1457TIP3    H1 4314   7.674   5.589   2.745
 1457TIP3    H2 4315   7.728   5.709   2.820
 1458TIP3   OH2 4316   4.592   5.690   0.564
 1458TIP3    H1 4317   4.600   5.725   0.653
 1458TIP3    H2 4318   4.659   5.622   0.559
 1459TIP3   OH2 4319   7.088   6.128   1.577
 1459TIP3    H1 4320   7.045   6.121   1.492
 1459TIP3    H2 4321   7.093   6.223   1.593
 1460TIP3   OH2 4322   1.082   4.025   3.411
 1460TIP3    H1 4323   1.063   4.069   3.328
 1460TIP3    H2 4324   1.066   4.092   3.477
 1461TIP3   OH2 4325   4.671   7.127   4.565
 1461TIP3    H1 4326   4.661   7.037   4.594
 1461TIP3    H2 4327   4.763   7.135   4.541
 1462TIP3   OH2 4328   0.318   2.378   1.348
 1462TIP3    H1 4329   0.242   2.356   1.294
 1462TIP3    H2 4330   0.288   2.363   1.438
 1463TIP3   OH2 4331   3.983   4.699   5.537
 1463TIP3    H1 4332   3.933   4.657   5.607
 1463TIP3    H2 4333   3.944   4.786   5.528
 1464TIP3   OH2 4334   3.361   3.184   6.718
 1464TIP3    H1 4335   3.433   3.178   6.781
 1464TIP3    H2 4336   3.400   3.224   6.640
 1465TIP3   OH2 4337   1.816   4.925   4.688
 1465TIP3    H1 4338   1.800   4.873   4.767
 1465TIP3    H2 4339   1.903   4.962   4.701
 1466TIP3   OH2 4340   3.233   4.526   1.448
 1466TIP3    H1 4341   3.298   4.456   1.458
 1466TIP3    H2 4342   3.285   4.604   1.426
 1467TIP3   OH2 4343   3.629   0.426   3.585
 1467TIP3    H1 4344   3.723   0.413   3.595
 1467TIP3    H2 4345   3.613   0.413   3.492
 1468TIP3   OH2 4346   8.145   2.378   1.686
 1468TIP3    H1 4347   8.090   2.456   1.697
 1468TIP3    H2 4348   8.116   2.339   1.604
 1469TIP3   OH2 4349   0.630   1.022   5.526
 1469TIP3    H1 4350   0.669   0.943   5.488
 1469TIP3    H2 4351   0.666   1.094   5.474
 1470TIP3   OH2 4352   0.824   0.172   2.974
 1470TIP3    H1 4353   0.758   0.158   3.042
 1470TIP3    H2 4354   0.873   0.249   3.003
 1471TIP3   OH2 4355   0.431   7.708   3.188
 1471TIP3    H1 4356   0.425   7.649   3.112
 1471TIP3    H2 4357   0.506   7.676   3.237
 1472TIP3   OH2 4358   1.506   1.355   0.949
 1472TIP3    H1 4359   1.444   1.283   0.956
 1472TIP3    H2 4360   1.582   1.326   0.998
 1473TIP3   OH2 4361   7.479   3.870   1.179
 1473TIP3    H1 4362   7.412   3.802   1.190
 1473TIP3    H2 4363   7.465   3.902   1.090
 1474TIP3   OH2 4364   5.657   1.848   4.538
 1474TIP3    H1 4365   5.679   1.756   4.527
 1474TIP3    H2 4366   5.742   1.893   4.539
 1475TIP3   OH2 4367   1.903   0.794   2.102
 1475TIP3    H1 4368   1.928   0.702   2.094
 1475TIP3    H2 4369   1.834   0.806   2.038
 1476TIP3   OH2 4370   7.820   5.204   3.655
 1476TIP3    H1 4371   7.821   5.181   3.748
 1476TIP3    H2 4372   7.813   5.120   3.609
 1477TIP3   OH2 4373   5.914   2.320   5.227
 1477TIP3    H1 4374   5.957   2.405   5.243
 1477TIP3    H2 4375   5.958   2.260   5.287
 1478TIP3   OH2 4376   8.064   2.838   2.393
 1478TIP3    H1 4377   8.109   2.902   2.339
 1478TIP3    H2 4378   8.132   2.775   2.418
 1479TIP3   OH2 4379   1.370   4.113   0.480
 1479TIP3    H1 4380   1.356   4.113   0.386
 1479TIP3    H2 4381   1.294   4.159   0.516
 1480TIP3   OH2 4382   7.821   3.096   0.563
 1480TIP3    H1 4383   7.838   3.136   0.478
 1480TIP3    H2 4384   7.907   3.072   0.596
 1481TIP3   OH2 4385   7.367   6.254   3.394
 1481TIP3    H1 4386   7.359   6.221   3.484
 1481TIP3    H2 4387   7.280   6.243   3.357
 1482TIP3   OH2 4388   4.397   3.131   2.527
 1482TIP3    H1 4389   4.487   3.099   2.517
 1482TIP3    H2 4390   4.408   3.221   2.558
 1483TIP3   OH2 4391   2.285   0.882   1.987
 1483TIP3    H1 4392   2.303   0.790   2.002
 1483TIP3    H2 4393   2.353   0.910   1.926
 1484TIP3   OH2 4394   4.448   6.866   5.794
 1484TIP3    H1 4395   4.455   6.951   5.837
 1484TIP3    H2 4396   4.462   6.885   5.701
 1485TIP3   OH2 4397   3.595   2.010   5.747
 1485TIP3    H1 4398   3.584   1.947   5.818
 1485TIP3    H2 4399   3.566   1.964   5.668
 1486TIP3   OH2 4400   7.596   2.412   0.189
 1486TIP3    H1 4401   7.646   2.358   0.127
 1486TIP3    H2 4402   7.580   2.494   0.141
 1487TIP3   OH2 4403   1.812   1.770   3.945
 1487TIP3    H1 4404   1.841   1.792   3.856
 1487TIP3    H2 4405   1.794   1.676   3.942
 1488TIP3   OH2 4406   0.986   5.517   1.271
 1488TIP3    H1 4407   0.994   5.535   1.365
 1488TIP3    H2 4408   1.030   5.433   1.259
 1489TIP3   OH2 4409   4.250   3.602   5.561
 1489TIP3    H1 4410   4.159   3.621   5.538
 1489TIP3    H2 4411   4.247   3.514   5.599
 1490TIP3   OH2 4412   7.610   0.015   0.789
 1490TIP3    H1 4413   7.632   0.103   0.823
 1490TIP3    H2 4414   7.642   0.016   0.699
 1491TIP3   OH2 4415   5.059   1.121   1.530
 1491TIP3    H1 4416   5.118   1.079   1.593
 1491TIP3    H2 4417   5.026   1.049   1.476
 1492TIP3   OH2 4418   6.149   0.360   3.495
 1492TIP3    H1 4419   6.192   0.443   3.516
 1492TIP3    H2 4420   6.071   0.385   3.445
 1493TIP3   OH2 4421   2.300   1.391   3.222
 1493TIP3    H1 4422   2.252   1.356   3.298
 1493TIP3    H2 4423   2.384   1.420   3.259
 1494TIP3   OH2 4424   0.051   0.452   4.469
 1494TIP3    H1 4425   0.037   0.422   4.379
 1494TIP3    H2 4426  -0.032   0.491   4.494
 1495TIP3   OH2 4427   3.455   0.716   3.853
 1495TIP3    H1 4428   3.386   0.753   3.907
 1495TIP3    H2 4429   3.506   0.791   3.824
 1496TIP3   OH2 4430   2.893   2.403   3.932
 1496TIP3    H1 4431   2.840   2.353   3.871
 1496TIP3    H2 4432   2.949   2.458   3.877
 1497TIP3   OH2 4433   4.571   5.029   4.198
 1497TIP3    H1 4434   4.487   5.005   4.160
 1497TIP3    H2 4435   4.566   4.997   4.288
 1498TIP3   OH2 4436   5.308   1.861   2.032
 1498TIP3    H1 4437   5.264   1.937   1.995
 1498TIP3    H2 4438   5.239   1.816   2.082
 1499TIP3   OH2 4439   3.750   2.509   5.205
 1499TIP3    H1 4440   3.718   2.506   5.295
 1499TIP3    H2 4441   3.769   2.602   5.189
 1500TIP3   OH2 4442   4.919   0.681   6.329
 1500TIP3    H1 4443   5.014   0.690   6.334
 1500TIP3    H2 4444   4.892   0.742   6.261
 1501TIP3   OH2 4445   6.658   3.784   6.623
 1501TIP3    H1 4446   6.697   3.777   6.536
 1501TIP3    H2 4447   6.596   3.857   6.616
 1502TIP3   OH2 4448   3.844   7.796   1.446
 1502TIP3    H1 4449   3.833   7.767   1.355
 1502TIP3    H2 4450   3.908   7.867   1.441
 1503TIP3   OH2 4451   2.868   5.648   2.355
 1503TIP3    H1 4452   2.927   5.627   2.428
 1503TIP3    H2 4453   2.829   5.564   2.333
 1504TIP3   OH2 4454   5.741   0.480   1.145
 1504TIP3    H1 4455   5.776   0.493   1.233
 1504TIP3    H2 4456   5.806   0.427   1.099
 1505TIP3   OH2 4457   3.215   4.840   0.103
 1505TIP3    H1 4458   3.306   4.869   0.099
 1505TIP3    H2 4459   3.217   4.748   0.074
 1506TIP3   OH2 4460   1.618   3.520   5.870
 1506TIP3    H1 4461   1.702   3.552   5.837
 1506TIP3    H2 4462   1.581   3.595   5.917
 1507TIP3   OH2 4463   7.787   6.618   1.296
 1507TIP3    H1 4464   7.810   6.683   1.229
 1507TIP3    H2 4465   7.694   6.635   1.314
 1508TIP3   OH2 4466   3.935   2.992   1.022
 1508TIP3    H1 4467   3.991   2.926   0.982
 1508TIP3    H2 4468   3.847   2.972   0.991
 1509TIP3   OH2 4469   3.992   2.292   3.939
 1509TIP3    H1 4470   4.028   2.378   3.958
 1509TIP3    H2 4471   4.060   2.231   3.968
 1510TIP3   OH2 4472   1.397   6.202   2.757
 1510TIP3    H1 4473   1.353   6.155   2.686
 1510TIP3    H2 4474   1.422   6.134   2.820
 1511TIP3   OH2 4475   4.440   6.484   6.313
 1511TIP3    H1 4476   4.470   6.402   6.272
 1511TIP3    H2 4477   4.351   6.496   6.282
 1512TIP3   OH2 4478   7.830   2.848   1.517
 1512TIP3    H1 4479   7.919   2.830   1.487
 1512TIP3    H2 4480   7.778   2.852   1.436
 1513TIP3   OH2 4481   8.115   0.844   2.158
 1513TIP3    H1 4482   8.042   0.824   2.217
 1513TIP3    H2 4483   8.189   0.862   2.216
 1514TIP3   OH2 4484   4.017   6.564   2.986
 1514TIP3    H1 4485   3.922   6.569   2.983
 1514TIP3    H2 4486   4.038   6.572   3.080
 1515TIP3   OH2 4487   3.358   2.572   5.892
 1515TIP3    H1 4488   3.278   2.531   5.927
 1515TIP3    H2 4489   3.402   2.501   5.845
 1516TIP3   OH2 4490   1.451   7.256   1.747
 1516TIP3    H1 4491   1.417   7.197   1.680
 1516TIP3    H2 4492   1.533   7.215   1.776
 1517TIP3   OH2 4493   1.639   6.740   4.090
 1517TIP3    H1 4494   1.634   6.792   4.010
 1517TIP3    H2 4495   1.565   6.680   4.084
 1518TIP3   OH2 4496   1.088   1.172   6.496
 1518TIP3    H1 4497   1.139   1.174   6.415
 1518TIP3    H2 4498   1.134   1.108   6.551
 1519TIP3   OH2 4499   1.554   3.175   6.316
 1519TIP3    H1 4500   1.591   3.230   6.246
 1519TIP3    H2 4501   1.465   3.154   6.285
 1520TIP3   OH2 4502   2.855   3.074   2.206
 1520TIP3    H1 4503   2.891   3.133   2.271
 1520TIP3    H2 4504   2.786   3.124   2.162
 1521TIP3   OH2 4505   6.112   3.347   5.585
 1521TIP3    H1 4506   6.101   3.326   5.678
 1521TIP3    H2 4507   6.135   3.440   5.584
 1522TIP3   OH2 4508   2.936   2.511   1.486
 1522TIP3    H1 4509   2.994   2.435   1.492
 1522TIP3    H2 4510   2.856   2.483   1.532
 1523TIP3   OH2 4511   3.334   2.073   0.872
 1523TIP3    H1 4512   3.337   2.118   0.788
 1523TIP3    H2 4513   3.414   2.100   0.917
 1524TIP3   OH2 4514   7.916   4.712   1.051
 1524TIP3    H1 4515   7.865   4.793   1.053
 1524TIP3    H2 4516   7.959   4.713   0.965
 1525TIP3   OH2 4517   6.559   2.563   4.209
 1525TIP3    H1 4518   6.558   2.550   4.304
 1525TIP3    H2 4519   6.515   2.647   4.197
 1526TIP3   OH2 4520   1.602   3.066   6.561
 1526TIP3    H1 4521   1.511   3.068   6.589
 1526TIP3    H2 4522   1.603   3.114   6.478
 1527TIP3   OH2 4523   2.271   2.010   5.570
 1527TIP3    H1 4524   2.262   2.027   5.663
 1527TIP3    H2 4525   2.358   2.042   5.547
 1528TIP3   OH2 4526   0.229   6.065   0.800
 1528TIP3    H1 4527   0.141   6.029   0.789
 1528TIP3    H2 4528   0.256   6.091   0.712
 1529TIP3   OH2 4529   7.182   1.978   0.536
 1529TIP3    H1 4530   7.233   1.937   0.606
 1529TIP3    H2 4531   7.091   1.968   0.563
 1530TIP3   OH2 4532   1.928   2.452   2.023
 1530TIP3    H1 4533   1.959   2.380   2.078
 1530TIP3    H2 4534   1.833   2.441   2.020
 1531TIP3   OH2 4535   3.906   0.441   0.204
 1531TIP3    H1 4536   3.965   0.366   0.211
 1531TIP3    H2 4537   3.918   0.472   0.114
 1532TIP3   OH2 4538   4.402   2.340   4.971
 1532TIP3    H1 4539   4.311   2.356   4.944
 1532TIP3    H2 4540   4.437   2.282   4.903
 1533TIP3   OH2 4541   0.190   7.641   3.576
 1533TIP3    H1 4542   0.156   7.570   3.522
 1533TIP3    H2 4543   0.152   7.720   3.537
 1534TIP3   OH2 4544   2.094   5.971   2.078
 1534TIP3    H1 4545   2.086   5.957   1.984
 1534TIP3    H2 4546   2.041   6.050   2.095
 1535TIP3   OH2 4547   7.206   1.331   5.310
 1535TIP3    H1 4548   7.222   1.406   5.252
 1535TIP3    H2 4549   7.187   1.259   5.250
 1536TIP3   OH2 4550   7.432   4.877   5.874
 1536TIP3    H1 4551   7.373   4.948   5.900
 1536TIP3    H2 4552   7.502   4.921   5.826
 1537TIP3   OH2 4553   4.640   4.996   3.268
 1537TIP3    H1 4554   4.573   4.977   3.334
 1537TIP3    H2 4555   4.598   4.977   3.184
 1538TIP3   OH2 4556   0.528   4.875   0.688
 1538TIP3    H1 4557   0.593   4.922   0.635
 1538TIP3    H2 4558   0.579   4.812   0.738
 1539TIP3   OH2 4559   3.601   2.943   0.348
 1539TIP3    H1 4560   3.509   2.959   0.368
 1539TIP3    H2 4561   3.600   2.890   0.268
 1540TIP3   OH2 4562   5.558   2.252   1.587
 1540TIP3    H1 4563   5.546   2.160   1.610
 1540TIP3    H2 4564   5.644   2.275   1.621
 1541TIP3   OH2 4565   7.710   4.063   1.164
 1541TIP3    H1 4566   7.633   4.009   1.177
 1541TIP3    H2 4567   7.763   4.048   1.243
 1542TIP3   OH2 4568   3.158   2.124   3.107
 1542TIP3    H1 4569   3.232   2.147   3.162
 1542TIP3    H2 4570   3.164   2.184   3.033
 1543TIP3   OH2 4571   5.561   0.545   5.745
 1543TIP3    H1 4572   5.477   0.533   5.702
 1543TIP3    H2 4573   5.616   0.589   5.680
 1544TIP3   OH2 4574   0.415   4.879   2.811
 1544TIP3    H1 4575   0.339   4.902   2.865
 1544TIP3    H2 4576   0.409   4.937   2.735
 1545TIP3   OH2 4577   6.524   7.090   3.618
 1545TIP3    H1 4578   6.454   7.149   3.593
 1545TIP3    H2 4579   6.495   7.004   3.588
 1546TIP3   OH2 4580   4.669   2.092   3.895
 1546TIP3    H1 4581   4.691   2.024   3.831
 1546TIP3    H2 4582   4.741   2.089   3.958
 1547TIP3   OH2 4583   5.550   4.961   6.742
 1547TIP3    H1 4584   5.494   4.962   6.820
 1547TIP3    H2 4585   5.610   4.888   6.757
 1548TIP3   OH2 4586   1.644   5.147   6.690
 1548TIP3    H1 4587   1.668   5.055   6.676
 1548TIP3    H2 4588   1.672   5.192   6.610
 1549TIP3   OH2 4589   3.566   1.257   0.601
 1549TIP3    H1 4590   3.590   1.205   0.678
 1549TIP3    H2 4591   3.634   1.237   0.536
 1550TIP3   OH2 4592   6.564   0.422   2.194
 1550TIP3    H1 4593   6.528   0.443   2.108
 1550TIP3    H2 4594   6.513   0.347   2.224
 1551TIP3   OH2 4595   2.595   1.878   2.811
 1551TIP3    H1 4596   2.595   1.965   2.771
 1551TIP3    H2 4597   2.612   1.894   2.904
 1552TIP3   OH2 4598   0.060   5.304   4.885
 1552TIP3    H1 4599   0.107   5.381   4.853
 1552TIP3    H2 4600  -0.001   5.339   4.950
 1553TIP3   OH2 4601   3.264   4.543   5.396
 1553TIP3    H1 4602   3.323   4.613   5.370
 1553TIP3    H2 4603   3.176   4.581   5.386
 1554TIP3   OH2 4604   2.711   6.089   2.811
 1554TIP3    H1 4605   2.755   6.150   2.870
 1554TIP3    H2 4606   2.621   6.085   2.844
 1555TIP3   OH2 4607   5.668   7.812   2.257
 1555TIP3    H1 4608   5.574   7.816   2.240
 1555TIP3    H2 4609   5.679   7.737   2.314
 1556TIP3   OH2 4610   5.793   5.065   0.296
 1556TIP3    H1 4611   5.879   5.052   0.256
 1556TIP3    H2 4612   5.740   4.992   0.263
 1557TIP3   OH2 4613   7.013   6.785   1.012
 1557TIP3    H1 4614   6.978   6.712   0.960
 1557TIP3    H2 4615   7.052   6.843   0.947
 1558TIP3   OH2 4616   3.811   6.945   3.077
 1558TIP3    H1 4617   3.775   7.021   3.122
 1558TIP3    H2 4618   3.895   6.929   3.119
 1559TIP3   OH2 4619   0.563   4.238   2.826
 1559TIP3    H1 4620   0.577   4.194   2.911
 1559TIP3    H2 4621   0.533   4.169   2.768
 1560TIP3   OH2 4622   4.383   5.470   4.165
 1560TIP3    H1 4623   4.393   5.435   4.076
 1560TIP3    H2 4624   4.472   5.496   4.190
 1561TIP3   OH2 4625   2.624   4.503   4.141
 1561TIP3    H1 4626   2.599   4.431   4.082
 1561TIP3    H2 4627   2.572   4.578   4.110
 1562TIP3   OH2 4628   6.825   2.467   3.867
 1562TIP3    H1 4629   6.765   2.525   3.820
 1562TIP3    H2 4630   6.777   2.437   3.943
 1563TIP3   OH2 4631   3.165   4.399   6.690
 1563TIP3    H1 4632   3.228   4.461   6.727
 1563TIP3    H2 4633   3.160   4.328   6.754
 1564TIP3   OH2 4634   7.294   2.731   3.885
 1564TIP3    H1 4635   7.241   2.651   3.884
 1564TIP3    H2 4636   7.323   2.739   3.976
 1565TIP3   OH2 4637   4.995   1.453   2.529
 1565TIP3    H1 4638   4.950   1.464   2.445
 1565TIP3    H2 4639   5.087   1.440   2.506
 1566TIP3   OH2 4640   4.189   4.698   5.119
 1566TIP3    H1 4641   4.124   4.740   5.176
 1566TIP3    H2 4642   4.225   4.771   5.068
 1567TIP3   OH2 4643   3.149   3.439   5.662
 1567TIP3    H1 4644   3.111   3.515   5.705
 1567TIP3    H2 4645   3.183   3.385   5.733
 1568TIP3   OH2 4646   0.382   7.205   0.028
 1568TIP3    H1 4647   0.300   7.200  -0.020
 1568TIP3    H2 4648   0.392   7.298   0.050
 1569TIP3   OH2 4649   6.587   5.065   1.781
 1569TIP3    H1 4650   6.495   5.076   1.757
 1569TIP3    H2 4651   6.595   4.973   1.804
 1570TIP3   OH2 4652   6.019   3.927   4.229
 1570TIP3    H1 4653   6.085   3.936   4.161
 1570TIP3    H2 4654   5.972   4.011   4.228
 1571TIP3   OH2 4655   5.154   5.113   3.142
 1571TIP3    H1 4656   5.210   5.037   3.129
 1571TIP3    H2 4657   5.193   5.160   3.215
 1572TIP3   OH2 4658   3.060   3.882   0.655
 1572TIP3    H1 4659   3.141   3.869   0.704
 1572TIP3    H2 4660   2.997   3.911   0.720
 1573TIP3   OH2 4661   1.437   1.453   4.066
 1573TIP3    H1 4662   1.435   1.360   4.090
 1573TIP3    H2 4663   1.369   1.493   4.121
 1574TIP3   OH2 4664   3.217   5.744   0.114
 1574TIP3    H1 4665   3.196   5.662   0.070
 1574TIP3    H2 4666   3.312   5.750   0.109
 1575TIP3   OH2 4667   3.173   6.097   4.234
 1575TIP3    H1 4668   3.212   6.131   4.315
 1575TIP3    H2 4669   3.201   6.006   4.230
 1576TIP3   OH2 4670   2.186   6.299   2.836
 1576TIP3    H1 4671   2.258   6.238   2.853
 1576TIP3    H2 4672   2.215   6.381   2.877
 1577TIP3   OH2 4673   4.554   0.242   1.789
 1577TIP3    H1 4674   4.607   0.277   1.860
 1577TIP3    H2 4675   4.617   0.201   1.730
 1578TIP3   OH2 4676   4.535   0.349   3.774
 1578TIP3    H1 4677   4.495   0.407   3.709
 1578TIP3    H2 4678   4.478   0.272   3.776
 1579TIP3   OH2 4679   1.378   6.629   2.509
 1579TIP3    H1 4680   1.364   6.612   2.415
 1579TIP3    H2 4681   1.455   6.686   2.512
 1580TIP3   OH2 4682   4.729   2.556   6.592
 1580TIP3    H1 4683   4.772   2.615   6.530
 1580TIP3    H2 4684   4.675   2.613   6.646
 1581TIP3   OH2 4685   2.209   5.701   0.713
 1581TIP3    H1 4686   2.138   5.679   0.774
 1581TIP3    H2 4687   2.168   5.698   0.627
 1582TIP3   OH2 4688   3.682   6.784   6.742
 1582TIP3    H1 4689   3.737   6.814   6.814
 1582TIP3    H2 4690   3.724   6.704   6.710
 1583TIP3   OH2 4691   7.466   6.318   3.900
 1583TIP3    H1 4692   7.462   6.292   3.992
 1583TIP3    H2 4693   7.560   6.326   3.881
 1584TIP3   OH2 4694   0.014   7.054   0.195
 1584TIP3    H1 4695   0.017   7.146   0.169
 1584TIP3    H2 4696   0.048   7.007   0.119
 1585TIP3   OH2 4697   2.196   6.849   3.376
 1585TIP3    H1 4698   2.159   6.772   3.420
 1585TIP3    H2 4699   2.125   6.881   3.320
 1586TIP3   OH2 4700   3.758   0.235   3.231
 1586TIP3    H1 4701   3.674   0.190   3.225
 1586TIP3    H2 4702   3.788   0.244   3.141
 1587TIP3   OH2 4703   3.743   6.168   3.902
 1587TIP3    H1 4704   3.751   6.075   3.925
 1587TIP3    H2 4705   3.665   6.172   3.847
 1588TIP3   OH2 4706   3.237   6.923   0.228
 1588TIP3    H1 4707   3.298   6.971   0.173
 1588TIP3    H2 4708   3.173   6.988   0.256
 1589TIP3   OH2 4709   3.323   1.267   4.648
 1589TIP3    H1 4710   3.315   1.359   4.673
 1589TIP3    H2 4711   3.374   1.227   4.719
 1590TIP3   OH2 4712   2.897   0.680   2.445
 1590TIP3    H1 4713   2.806   0.709   2.439
 1590TIP3    H2 4714   2.902   0.603   2.388
 1591TIP3   OH2 4715   7.725   0.191   0.173
 1591TIP3    H1 4716   7.806   0.190   0.122
 1591TIP3    H2 4717   7.663   0.142   0.120
 1592TIP3   OH2 4718   0.706   2.727   6.081
 1592TIP3    H1 4719   0.672   2.699   5.996
 1592TIP3    H2 4720   0.750   2.649   6.115
 1593TIP3   OH2 4721   2.464   6.362   2.649
 1593TIP3    H1 4722   2.489   6.434   2.591
 1593TIP3    H2 4723   2.369   6.371   2.658
 1594TIP3   OH2 4724   6.753   0.954   5.201
 1594TIP3    H1 4725   6.679   0.991   5.153
 1594TIP3    H2 4726   6.819   1.024   5.201
 1595TIP3   OH2 4727   1.646   1.631   1.294
 1595TIP3    H1 4728   1.669   1.670   1.210
 1595TIP3    H2 4729   1.680   1.691   1.359
 1596TIP3   OH2 4730   5.468   4.164   2.372
 1596TIP3    H1 4731   5.390   4.131   2.326
 1596TIP3    H2 4732   5.539   4.106   2.343
 1597TIP3   OH2 4733   5.167   4.608   2.430
 1597TIP3    H1 4734   5.087   4.596   2.379
 1597TIP3    H2 4735   5.220   4.669   2.378
 1598TIP3   OH2 4736   7.798   3.912   1.923
 1598TIP3    H1 4737   7.707   3.887   1.934
 1598TIP3    H2 4738   7.821   3.960   2.003
 1599TIP3   OH2 4739   6.184   0.793   2.644
 1599TIP3    H1 4740   6.146   0.809   2.731
 1599TIP3    H2 4741   6.108   0.775   2.588
 1600TIP3   OH2 4742   8.220   1.352   3.832
 1600TIP3    H1 4743   8.287   1.303   3.784
 1600TIP3    H2 4744   8.247   1.443   3.823
 1601TIP3   OH2 4745   5.460   6.325   2.711
 1601TIP3    H1 4746   5.505   6.335   2.795
 1601TIP3    H2 4747   5.486   6.237   2.681
 1602TIP3   OH2 4748   5.877   1.439   4.825
 1602TIP3    H1 4749   5.859   1.372   4.758
 1602TIP3    H2 4750   5.940   1.498   4.783
 1603TIP3   OH2 4751   0.963   6.510   0.931
 1603TIP3    H1 4752   0.914   6.484   1.009
 1603TIP3    H2 4753   0.904   6.570   0.885
 1604TIP3   OH2 4754   2.657   3.645   2.516
 1604TIP3    H1 4755   2.672   3.679   2.604
 1604TIP3    H2 4756   2.677   3.551   2.523
 1605TIP3   OH2 4757   5.030   3.474   6.741
 1605TIP3    H1 4758   5.006   3.417   6.814
 1605TIP3    H2 4759   4.948   3.492   6.695
 1606TIP3   OH2 4760   3.188   5.623   1.760
 1606TIP3    H1 4761   3.179   5.609   1.665
 1606TIP3    H2 4762   3.240   5.703   1.767
 1607TIP3   OH2 4763   8.190   2.946   5.575
 1607TIP3    H1 4764   8.278   2.912   5.562
 1607TIP3    H2 4765   8.164   2.978   5.488
 1608TIP3   OH2 4766   2.700   2.225   0.643
 1608TIP3    H1 4767   2.631   2.166   0.612
 1608TIP3    H2 4768   2.782   2.184   0.614
 1609TIP3   OH2 4769   5.580   4.556   2.955
 1609TIP3    H1 4770   5.503   4.502   2.942
 1609TIP3    H2 4771   5.591   4.562   3.050
 1610TIP3   OH2 4772   2.912   0.075   4.105
 1610TIP3    H1 4773   2.827   0.044   4.073
 1610TIP3    H2 4774   2.907   0.170   4.096
 1611TIP3   OH2 4775   3.787   4.077   5.139
 1611TIP3    H1 4776   3.720   4.050   5.202
 1611TIP3    H2 4777   3.739   4.129   5.074
 1612TIP3   OH2 4778   1.321   3.183   3.413
 1612TIP3    H1 4779   1.353   3.204   3.325
 1612TIP3    H2 4780   1.323   3.266   3.460
 1613TIP3   OH2 4781   6.880   2.766   5.903
 1613TIP3    H1 4782   6.811   2.718   5.949
 1613TIP3    H2 4783   6.944   2.699   5.880
 1614TIP3   OH2 4784   8.266   2.583   5.539
 1614TIP3    H1 4785   8.323   2.615   5.469
 1614TIP3    H2 4786   8.177   2.603   5.510
 1615TIP3   OH2 4787   4.538   4.709   5.610
 1615TIP3    H1 4788   4.599   4.673   5.545
 1615TIP3    H2 4789   4.584   4.705   5.693
 1616TIP3   OH2 4790   5.082   4.367   5.523
 1616TIP3    H1 4791   5.027   4.386   5.599
 1616TIP3    H2 4792   5.170   4.393   5.550
 1617TIP3   OH2 4793   7.021   5.110   0.609
 1617TIP3    H1 4794   7.089   5.054   0.574
 1617TIP3    H2 4795   6.961   5.051   0.655
 1618TIP3   OH2 4796   5.998   3.057   1.140
 1618TIP3    H1 4797   6.075   3.043   1.196
 1618TIP3    H2 4798   5.951   3.129   1.181
 1619TIP3   OH2 4799   5.697   6.128   4.692
 1619TIP3    H1 4800   5.671   6.078   4.769
 1619TIP3    H2 4801   5.714   6.216   4.725
 1620TIP3   OH2 4802   4.132   1.021   0.785
 1620TIP3    H1 4803   4.118   0.926   0.777
 1620TIP3    H2 4804   4.062   1.051   0.843
 1621TIP3   OH2 4805   6.321   1.778   1.039
 1621TIP3    H1 4806   6.415   1.766   1.025
 1621TIP3    H2 4807   6.307   1.746   1.128
 1622TIP3   OH2 4808   7.872   5.711   2.922
 1622TIP3    H1 4809   7.875   5.651   2.996
 1622TIP3    H2 4810   7.891   5.797   2.960
 1623TIP3   OH2 4811   7.281   2.179   4.370
 1623TIP3    H1 4812   7.206   2.210   4.319
 1623TIP3    H2 4813   7.337   2.256   4.379
 1624TIP3   OH2 4814   8.267   3.214   4.150
 1624TIP3    H1 4815   8.240   3.153   4.219
 1624TIP3    H2 4816   8.269   3.160   4.071
 1625TIP3   OH2 4817  -0.035   6.617   1.011
 1625TIP3    H1 4818  -0.008   6.702   0.978
 1625TIP3    H2 4819   0.046   6.565   1.011
 1626TIP3   OH2 4820   2.238   6.769   5.328
 1626TIP3    H1 4821   2.212   6.843   5.272
 1626TIP3    H2 4822   2.322   6.741   5.292
 1627TIP3   OH2 4823   6.270   2.987   3.728
 1627TIP3    H1 4824   6.295   2.999   3.820
 1627TIP3    H2 4825   6.337   3.034   3.679
 1628TIP3   OH2 4826   7.236   6.769   4.540
 1628TIP3    H1 4827   7.250   6.678   4.513
 1628TIP3    H2 4828   7.290   6.820   4.479
 1629TIP3   OH2 4829   2.249   7.448   0.487
 1629TIP3    H1 4830   2.200   7.483   0.412
 1629TIP3    H2 4831   2.274   7.360   0.461
 1630TIP3   OH2 4832   4.782   0.929   3.207
 1630TIP3    H1 4833   4.826   1.007   3.241
 1630TIP3    H2 4834   4.846   0.888   3.150
 1631TIP3   OH2 4835   7.674   5.892   0.391
 1631TIP3    H1 4836   7.606   5.901   0.458
 1631TIP3    H2 4837   7.676   5.799   0.371
 1632TIP3   OH2 4838   5.507   2.545   2.073
 1632TIP3    H1 4839   5.440   2.590   2.022
 1632TIP3    H2 4840   5.512   2.457   2.035
 1633TIP3   OH2 4841   2.954   6.540   2.991
 1633TIP3    H1 4842   2.907   6.485   2.929
 1633TIP3    H2 4843   2.971   6.621   2.942
 1634TIP3   OH2 4844   2.146   0.595   1.415
 1634TIP3    H1 4845   2.129   0.629   1.503
 1634TIP3    H2 4846   2.228   0.547   1.423
 1635TIP3   OH2 4847   4.000   0.360   2.133
 1635TIP3    H1 4848   4.070   0.321   2.081
 1635TIP3    H2 4849   3.923   0.358   2.076
 1636TIP3   OH2 4850   4.791   2.476   1.096
 1636TIP3    H1 4851   4.800   2.388   1.059
 1636TIP3    H2 4852   4.868   2.523   1.065
 1637TIP3   OH2 4853   7.072   5.370   1.214
 1637TIP3    H1 4854   7.103   5.457   1.187
 1637TIP3    H2 4855   7.114   5.310   1.152
 1638TIP3   OH2 4856   6.895   0.971   4.763
 1638TIP3    H1 4857   6.850   0.928   4.691
 1638TIP3    H2 4858   6.870   1.063   4.756
 1639TIP3   OH2 4859   7.701   2.520   5.506
 1639TIP3    H1 4860   7.613   2.557   5.494
 1639TIP3    H2 4861   7.756   2.569   5.446
 1640TIP3   OH2 4862   5.492   2.733   0.853
 1640TIP3    H1 4863   5.577   2.703   0.823
 1640TIP3    H2 4864   5.431   2.663   0.829
 1641TIP3   OH2 4865   0.782   1.622   3.592
 1641TIP3    H1 4866   0.820   1.709   3.580
 1641TIP3    H2 4867   0.840   1.579   3.656
 1642TIP3   OH2 4868   7.097   2.185   5.274
 1642TIP3    H1 4869   7.016   2.172   5.225
 1642TIP3    H2 4870   7.161   2.130   5.228
 1643TIP3   OH2 4871   3.731   0.932   0.241
 1643TIP3    H1 4872   3.685   0.984   0.307
 1643TIP3    H2 4873   3.807   0.985   0.218
 1644TIP3   OH2 4874   4.101   4.698   6.099
 1644TIP3    H1 4875   4.075   4.617   6.142
 1644TIP3    H2 4876   4.019   4.741   6.076
 1645TIP3   OH2 4877   3.049   0.470   3.648
 1645TIP3    H1 4878   3.029   0.511   3.732
 1645TIP3    H2 4879   3.001   0.523   3.584
 1646TIP3   OH2 4880   1.749   1.330   3.603
 1646TIP3    H1 4881   1.734   1.358   3.513
 1646TIP3    H2 4882   1.726   1.237   3.602
 1647TIP3   OH2 4883   4.777   5.608   1.825
 1647TIP3    H1 4884   4.788   5.702   1.806
 1647TIP3    H2 4885   4.734   5.607   1.911
 1648TIP3   OH2 4886   7.756   5.413   5.598
 1648TIP3    H1 4887   7.698   5.393   5.525
 1648TIP3    H2 4888   7.822   5.472   5.562
 1649TIP3   OH2 4889   6.602   2.424   1.524
 1649TIP3    H1 4890   6.690   2.461   1.538
 1649TIP3    H2 4891   6.565   2.477   1.453
 1650TIP3   OH2 4892   4.826   0.980   1.455
 1650TIP3    H1 4893   4.768   0.910   1.423
 1650TIP3    H2 4894   4.767   1.040   1.500
 1651TIP3   OH2 4895   4.341   7.753   4.324
 1651TIP3    H1 4896   4.356   7.696   4.400
 1651TIP3    H2 4897   4.374   7.703   4.249
 1652TIP3   OH2 4898   1.795   1.211   4.444
 1652TIP3    H1 4899   1.710   1.189   4.482
 1652TIP3    H2 4900   1.819   1.295   4.484
 1653TIP3   OH2 4901   1.679   0.348   6.393
 1653TIP3    H1 4902   1.716   0.406   6.326
 1653TIP3    H2 4903   1.623   0.287   6.345
 1654TIP3   OH2 4904   2.876   3.537   5.195
 1654TIP3    H1 4905   2.966   3.521   5.168
 1654TIP3    H2 4906   2.878   3.626   5.232
 1655TIP3   OH2 4907   8.099   0.540   6.495
 1655TIP3    H1 4908   8.178   0.587   6.523
 1655TIP3    H2 4909   8.122   0.447   6.503
 1656TIP3   OH2 4910   2.064   4.268   6.353
 1656TIP3    H1 4911   2.087   4.200   6.417
 1656TIP3    H2 4912   2.021   4.336   6.405
 1657TIP3   OH2 4913   6.158   4.273   1.473
 1657TIP3    H1 4914   6.115   4.220   1.406
 1657TIP3    H2 4915   6.227   4.320   1.425
 1658TIP3   OH2 4916   0.769   0.265   6.589
 1658TIP3    H1 4917   0.823   0.191   6.616
 1658TIP3    H2 4918   0.831   0.326   6.547
 1659TIP3   OH2 4919   0.287   1.868   4.990
 1659TIP3    H1 4920   0.312   1.890   5.080
 1659TIP3    H2 4921   0.369   1.869   4.941
 1660TIP3   OH2 4922   5.332   2.075   1.009
 1660TIP3    H1 4923   5.395   2.045   0.943
 1660TIP3    H2 4924   5.274   2.134   0.961
 1661TIP3   OH2 4925   7.612   5.118   4.785
 1661TIP3    H1 4926   7.667   5.144   4.711
 1661TIP3    H2 4927   7.671   5.069   4.843
 1662TIP3   OH2 4928   6.284   5.526   0.119
 1662TIP3    H1 4929   6.217   5.522   0.051
 1662TIP3    H2 4930   6.238   5.501   0.199
 1663TIP3   OH2 4931   3.708   3.887   1.430
 1663TIP3    H1 4932   3.647   3.954   1.400
 1663TIP3    H2 4933   3.778   3.888   1.366
 1664TIP3   OH2 4934   2.813   2.721   1.675
 1664TIP3    H1 4935   2.850   2.757   1.594
 1664TIP3    H2 4936   2.873   2.649   1.698
 1665TIP3   OH2 4937   1.947   0.653   2.643
 1665TIP3    H1 4938   2.001   0.667   2.566
 1665TIP3    H2 4939   2.006   0.613   2.707
 1666TIP3   OH2 4940   6.408   4.470   1.588
 1666TIP3    H1 4941   6.359   4.516   1.656
 1666TIP3    H2 4942   6.391   4.520   1.508
 1667TIP3   OH2 4943   5.203   0.302   6.534
 1667TIP3    H1 4944   5.154   0.220   6.530
 1667TIP3    H2 4945   5.142   0.369   6.503
 1668TIP3   OH2 4946   0.551   4.309   0.228
 1668TIP3    H1 4947   0.609   4.355   0.289
 1668TIP3    H2 4948   0.472   4.292   0.279
 1669TIP3   OH2 4949   0.568   3.428   1.006
 1669TIP3    H1 4950   0.473   3.417   1.001
 1669TIP3    H2 4951   0.603   3.339   1.005
 1670TIP3   OH2 4952   0.163   7.177   5.980
 1670TIP3    H1 4953   0.084   7.229   5.991
 1670TIP3    H2 4954   0.234   7.241   5.971
 1671TIP3   OH2 4955   4.655   7.057   5.144
 1671TIP3    H1 4956   4.683   7.133   5.196
 1671TIP3    H2 4957   4.736   7.010   5.126
 1672TIP3   OH2 4958   4.253   1.490   0.194
 1672TIP3    H1 4959   4.281   1.439   0.270
 1672TIP3    H2 4960   4.278   1.435   0.118
 1673TIP3   OH2 4961   8.066   1.233   2.652
 1673TIP3    H1 4962   8.091   1.143   2.674
 1673TIP3    H2 4963   7.977   1.241   2.685
 1674TIP3   OH2 4964   1.568   3.682   0.973
 1674TIP3    H1 4965   1.496   3.660   0.914
 1674TIP3    H2 4966   1.647   3.661   0.924
 1675TIP3   OH2 4967   4.041   6.805   2.366
 1675TIP3    H1 4968   4.025   6.878   2.426
 1675TIP3    H2 4969   4.103   6.749   2.413
 1676TIP3   OH2 4970   8.226   6.879   6.254
 1676TIP3    H1 4971   8.293   6.934   6.296
 1676TIP3    H2 4972   8.265   6.792   6.252
 1677TIP3   OH2 4973   1.835   0.854   5.270
 1677TIP3    H1 4974   1.912   0.903   5.300
 1677TIP3    H2 4975   1.771   0.865   5.340
 1678TIP3   OH2 4976   3.040   2.078   4.766
 1678TIP3    H1 4977   3.127   2.038   4.764
 1678TIP3    H2 4978   2.998   2.039   4.843
 1679TIP3   OH2 4979   4.238   2.706  -0.006
 1679TIP3    H1 4980   4.264   2.796  -0.025
 1679TIP3    H2 4981   4.304   2.674   0.055
 1680TIP3   OH2 4982   3.070   2.481   5.928
 1680TIP3    H1 4983   3.095   2.445   6.013
 1680TIP3    H2 4984   3.026   2.563   5.948
 1681TIP3   OH2 4985   2.253   3.817   1.560
 1681TIP3    H1 4986   2.322   3.859   1.612
 1681TIP3    H2 4987   2.172   3.859   1.590
 1682TIP3   OH2 4988   7.111   5.040   3.000
 1682TIP3    H1 4989   7.153   5.126   3.001
 1682TIP3    H2 4990   7.144   4.998   2.920
 1683TIP3   OH2 4991   0.313   3.764   4.531
 1683TIP3    H1 4992   0.338   3.766   4.439
 1683TIP3    H2 4993   0.237   3.822   4.537
 1684TIP3   OH2 4994   1.639   7.490   6.672
 1684TIP3    H1 4995   1.672   7.528   6.753
 1684TIP3    H2 4996   1.675   7.546   6.603
 1685TIP3   OH2 4997   1.611   3.269   2.295
 1685TIP3    H1 4998   1.691   3.270   2.243
 1685TIP3    H2 4999   1.555   3.205   2.252
 1686TIP3   OH2 5000   7.348   6.547   4.987
 1686TIP3    H1 5001   7.335   6.557   5.082
 1686TIP3    H2 5002   7.272   6.591   4.948
 1687TIP3   OH2 5003   5.095   7.854   3.858
 1687TIP3    H1 5004   5.008   7.865   3.894
 1687TIP3    H2 5005   5.112   7.760   3.863
 1688TIP3   OH2 5006   7.624   6.613   0.797
 1688TIP3    H1 5007   7.582   6.570   0.872
 1688TIP3    H2 5008   7.553   6.625   0.734
 1689TIP3   OH2 5009   5.297   5.568   5.480
 1689TIP3    H1 5010   5.323   5.476   5.473
 1689TIP3    H2 5011   5.231   5.580   5.412
 1690TIP3   OH2 5012   3.937   7.166   2.189
 1690TIP3    H1 5013   3.946   7.240   2.130
 1690TIP3    H2 5014   3.925   7.090   2.132
 1691TIP3   OH2 5015   5.934   2.350   6.337
 1691TIP3    H1 5016   6.008   2.374   6.393
 1691TIP3    H2 5017   5.915   2.430   6.286
 1692TIP3   OH2 5018   2.711   6.974   6.740
 1692TIP3    H1 5019   2.731   6.968   6.834
 1692TIP3    H2 5020   2.730   7.064   6.717
 1693TIP3   OH2 5021   6.123   1.958   2.027
 1693TIP3    H1 5022   6.045   2.013   2.031
 1693TIP3    H2 5023   6.111   1.893   2.096
 1694TIP3   OH2 5024   4.443   3.179   6.567
 1694TIP3    H1 5025   4.520   3.128   6.541
 1694TIP3    H2 5026   4.461   3.267   6.531
 1695TIP3   OH2 5027   1.326   6.246   6.582
 1695TIP3    H1 5028   1.384   6.212   6.514
 1695TIP3    H2 5029   1.343   6.341   6.583
 1696TIP3   OH2 5030   3.160   3.241   2.868
 1696TIP3    H1 5031   3.114   3.160   2.887
 1696TIP3    H2 5032   3.248   3.228   2.904
 1697TIP3   OH2 5033   2.400   0.697   1.769
 1697TIP3    H1 5034   2.408   0.792   1.756
 1697TIP3    H2 5035   2.323   0.673   1.718
 1698TIP3   OH2 5036   1.202   5.376   3.625
 1698TIP3    H1 5037   1.263   5.420   3.684
 1698TIP3    H2 5038   1.117   5.387   3.666
 1699TIP3   OH2 5039   5.338   6.856   1.514
 1699TIP3    H1 5040   5.391   6.833   1.591
 1699TIP3    H2 5041   5.278   6.924   1.545
 1700TIP3   OH2 5042   2.686   4.148  -0.022
 1700TIP3    H1 5043   2.674   4.242  -0.007
 1700TIP3    H2 5044   2.754   4.122   0.040
 1701TIP3   OH2 5045   5.459   1.082   2.970
 1701TIP3    H1 5046   5.420   1.059   2.886
 1701TIP3    H2 5047   5.410   1.159   2.999
 1702TIP3   OH2 5048   0.524   4.608   4.647
 1702TIP3    H1 5049   0.534   4.633   4.739
 1702TIP3    H2 5050   0.437   4.568   4.643
 1703TIP3   OH2 5051   4.361   2.678   0.797
 1703TIP3    H1 5052   4.397   2.626   0.868
 1703TIP3    H2 5053   4.415   2.655   0.721
 1704TIP3   OH2 5054   2.072   5.432   5.764
 1704TIP3    H1 5055   2.090   5.348   5.807
 1704TIP3    H2 5056   2.136   5.437   5.693
 1705TIP3   OH2 5057   3.796   7.432   1.847
 1705TIP3    H1 5058   3.883   7.395   1.864
 1705TIP3    H2 5059   3.738   7.356   1.840
 1706TIP3   OH2 5060   7.960   3.083   3.940
 1706TIP3    H1 5061   8.002   3.139   3.875
 1706TIP3    H2 5062   7.894   3.138   3.982
 1707TIP3   OH2 5063   7.006   3.477   5.571
 1707TIP3    H1 5064   6.947   3.464   5.645
 1707TIP3    H2 5065   7.057   3.396   5.566
 1708TIP3   OH2 5066   5.184   7.811   1.816
 1708TIP3    H1 5067   5.121   7.850   1.876
 1708TIP3    H2 5068   5.135   7.796   1.735
 1709TIP3   OH2 5069   3.374   2.422   0.654
 1709TIP3    H1 5070   3.354   2.332   0.629
 1709TIP3    H2 5071   3.470   2.428   0.649
 1710TIP3   OH2 5072   2.093   6.218   4.334
 1710TIP3    H1 5073   2.084   6.173   4.250
 1710TIP3    H2 5074   2.162   6.170   4.380
 1711TIP3   OH2 5075   0.332   2.047   4.601
 1711TIP3    H1 5076   0.371   2.078   4.519
 1711TIP3    H2 5077   0.355   1.955   4.605
 1712TIP3   OH2 5078   0.389   7.386   4.069
 1712TIP3    H1 5079   0.438   7.467   4.083
 1712TIP3    H2 5080   0.298   7.415   4.058
 1713TIP3   OH2 5081   4.287   0.598   2.041
 1713TIP3    H1 5082   4.253   0.559   2.121
 1713TIP3    H2 5083   4.355   0.659   2.072
 1714TIP3   OH2 5084   6.235   2.128   2.622
 1714TIP3    H1 5085   6.292   2.107   2.696
 1714TIP3    H2 5086   6.147   2.129   2.660
 1715TIP3   OH2 5087   3.780   2.558   3.553
 1715TIP3    H1 5088   3.807   2.479   3.600
 1715TIP3    H2 5089   3.788   2.535   3.461
 1716TIP3   OH2 5090   5.957   0.886   5.630
 1716TIP3    H1 5091   6.000   0.904   5.713
 1716TIP3    H2 5092   6.007   0.936   5.566
 1717TIP3   OH2 5093   2.401   2.392   3.325
 1717TIP3    H1 5094   2.471   2.421   3.267
 1717TIP3    H2 5095   2.423   2.431   3.410
 1718TIP3   OH2 5096   2.155   2.082   2.462
 1718TIP3    H1 5097   2.212   2.117   2.531
 1718TIP3    H2 5098   2.118   2.002   2.500
 1719TIP3   OH2 5099   2.106   5.346   6.538
 1719TIP3    H1 5100   2.073   5.401   6.467
 1719TIP3    H2 5101   2.143   5.270   6.493
 1720TIP3   OH2 5102   2.502   4.721   3.959
 1720TIP3    H1 5103   2.569   4.790   3.962
 1720TIP3    H2 5104   2.421   4.768   3.942
 1721TIP3   OH2 5105   2.249   5.785   3.320
 1721TIP3    H1 5106   2.283   5.719   3.381
 1721TIP3    H2 5107   2.326   5.820   3.276
 1722TIP3   OH2 5108   0.250   1.667   0.850
 1722TIP3    H1 5109   0.280   1.757   0.863
 1722TIP3    H2 5110   0.166   1.663   0.896
 1723TIP3   OH2 5111   2.040   2.824   2.190
 1723TIP3    H1 5112   2.024   2.747   2.244
 1723TIP3    H2 5113   2.010   2.800   2.103
 1724TIP3   OH2 5114   7.155   0.794   2.720
 1724TIP3    H1 5115   7.212   0.862   2.685
 1724TIP3    H2 5116   7.076   0.842   2.748
 1725TIP3   OH2 5117   6.681   3.241   2.386
 1725TIP3    H1 5118   6.754   3.294   2.354
 1725TIP3    H2 5119   6.630   3.301   2.441
 1726TIP3   OH2 5120   7.488   0.517   5.659
 1726TIP3    H1 5121   7.393   0.509   5.647
 1726TIP3    H2 5122   7.506   0.466   5.738
 1727TIP3   OH2 5123   1.697   2.631   2.546
 1727TIP3    H1 5124   1.714   2.723   2.568
 1727TIP3    H2 5125   1.754   2.582   2.606
 1728TIP3   OH2 5126   8.197   2.212   4.316
 1728TIP3    H1 5127   8.285   2.205   4.352
 1728TIP3    H2 5128   8.208   2.264   4.236
 1729TIP3   OH2 5129   4.701   1.500   0.748
 1729TIP3    H1 5130   4.787   1.540   0.733
 1729TIP3    H2 5131   4.690   1.438   0.675
 1730TIP3   OH2 5132   3.235   0.150   3.245
 1730TIP3    H1 5133   3.300   0.179   3.182
 1730TIP3    H2 5134   3.210   0.062   3.216
 1731TIP3   OH2 5135   1.614   2.001   6.294
 1731TIP3    H1 5136   1.606   1.920   6.245
 1731TIP3    H2 5137   1.694   2.042   6.261
 1732TIP3   OH2 5138   0.220   3.629   5.306
 1732TIP3    H1 5139   0.197   3.664   5.392
 1732TIP3    H2 5140   0.314   3.644   5.298
 1733TIP3   OH2 5141   2.047   6.954   0.962
 1733TIP3    H1 5142   2.077   6.864   0.970
 1733TIP3    H2 5143   2.085   6.984   0.879
 1734TIP3   OH2 5144   4.577   0.234   6.522
 1734TIP3    H1 5145   4.592   0.201   6.433
 1734TIP3    H2 5146   4.538   0.320   6.510
 1735TIP3   OH2 5147   5.727   5.183   1.700
 1735TIP3    H1 5148   5.738   5.274   1.730
 1735TIP3    H2 5149   5.641   5.158   1.733
 1736TIP3   OH2 5150   4.165   5.030   3.102
 1736TIP3    H1 5151   4.256   5.004   3.117
 1736TIP3    H2 5152   4.162   5.122   3.126
 1737TIP3   OH2 5153   4.280   6.152   0.429
 1737TIP3    H1 5154   4.223   6.109   0.366
 1737TIP3    H2 5155   4.238   6.236   0.447
 1738TIP3   OH2 5156   4.466   7.342   1.523
 1738TIP3    H1 5157   4.386   7.392   1.508
 1738TIP3    H2 5158   4.451   7.296   1.606
 1739TIP3   OH2 5159   2.669   7.356   2.145
 1739TIP3    H1 5160   2.683   7.276   2.094
 1739TIP3    H2 5161   2.604   7.331   2.211
 1740TIP3   OH2 5162   2.674   7.044   3.707
 1740TIP3    H1 5163   2.596   7.087   3.672
 1740TIP3    H2 5164   2.701   6.984   3.638
 1741TIP3   OH2 5165   5.328   5.870   4.274
 1741TIP3    H1 5166   5.299   5.955   4.307
 1741TIP3    H2 5167   5.363   5.825   4.351
 1742TIP3   OH2 5168   3.170   6.163   6.070
 1742TIP3    H1 5169   3.204   6.251   6.051
 1742TIP3    H2 5170   3.184   6.151   6.164
 1743TIP3   OH2 5171   8.294   7.181   3.916
 1743TIP3    H1 5172   8.245   7.189   3.835
 1743TIP3    H2 5173   8.238   7.126   3.972
 1744TIP3   OH2 5174   2.412   4.277   0.030
 1744TIP3    H1 5175   2.455   4.359   0.054
 1744TIP3    H2 5176   2.400   4.284  -0.065
 1745TIP3   OH2 5177   5.610   1.327   3.399
 1745TIP3    H1 5178   5.571   1.415   3.396
 1745TIP3    H2 5179   5.679   1.329   3.332
 1746TIP3   OH2 5180   7.913   7.588   5.661
 1746TIP3    H1 5181   7.826   7.623   5.680
 1746TIP3    H2 5182   7.900   7.534   5.583
 1747TIP3   OH2 5183   2.014   6.373   5.196
 1747TIP3    H1 5184   2.020   6.411   5.284
 1747TIP3    H2 5185   2.105   6.360   5.170
 1748TIP3   OH2 5186   2.132   4.233   4.942
 1748TIP3    H1 5187   2.163   4.278   4.863
 1748TIP3    H2 5188   2.212   4.200   4.983
 1749TIP3   OH2 5189   2.017   5.778   4.623
 1749TIP3    H1 5190   2.043   5.689   4.648
 1749TIP3    H2 5191   2.099   5.827   4.623
 1750TIP3   OH2 5192   2.472   7.399   1.433
 1750TIP3    H1 5193   2.497   7.484   1.397
 1750TIP3    H2 5194   2.405   7.418   1.497
 1751TIP3   OH2 5195   1.942   7.450   4.830
 1751TIP3    H1 5196   1.915   7.474   4.741
 1751TIP3    H2 5197   2.032   7.482   4.838
 1752TIP3   OH2 5198   0.954   5.104   3.070
 1752TIP3    H1 5199   0.954   5.127   3.163
 1752TIP3    H2 5200   1.001   5.176   3.028
 1753TIP3   OH2 5201   5.289   5.341   1.902
 1753TIP3    H1 5202   5.213   5.390   1.935
 1753TIP3    H2 5203   5.326   5.299   1.979
 1754TIP3   OH2 5204   6.887   7.398   1.363
 1754TIP3    H1 5205   6.852   7.349   1.438
 1754TIP3    H2 5206   6.944   7.464   1.401
 1755TIP3   OH2 5207   4.491   3.483   2.474
 1755TIP3    H1 5208   4.451   3.569   2.485
 1755TIP3    H2 5209   4.480   3.440   2.558
 1756TIP3   OH2 5210   6.625   0.628   3.591
 1756TIP3    H1 5211   6.604   0.693   3.658
 1756TIP3    H2 5212   6.654   0.680   3.515
 1757TIP3   OH2 5213   1.383   6.620   1.198
 1757TIP3    H1 5214   1.424   6.643   1.281
 1757TIP3    H2 5215   1.384   6.525   1.196
 1758TIP3   OH2 5216   2.040   4.398   4.511
 1758TIP3    H1 5217   2.072   4.422   4.424
 1758TIP3    H2 5218   1.945   4.393   4.500
 1759TIP3   OH2 5219   4.619   0.152   1.096
 1759TIP3    H1 5220   4.692   0.198   1.138
 1759TIP3    H2 5221   4.659   0.076   1.053
 1760TIP3   OH2 5222   4.856   6.970   5.626
 1760TIP3    H1 5223   4.909   7.007   5.696
 1760TIP3    H2 5224   4.792   7.038   5.606
 1761TIP3   OH2 5225   6.788   7.831   6.529
 1761TIP3    H1 5226   6.778   7.741   6.559
 1761TIP3    H2 5227   6.754   7.830   6.439
 1762TIP3   OH2 5228   1.944   5.312   2.465
 1762TIP3    H1 5229   1.934   5.265   2.382
 1762TIP3    H2 5230   1.949   5.242   2.531
 1763TIP3   OH2 5231   5.650   5.648   1.737
 1763TIP3    H1 5232   5.607   5.691   1.811
 1763TIP3    H2 5233   5.601   5.676   1.660
 1764TIP3   OH2 5234   3.028   7.749   4.154
 1764TIP3    H1 5235   3.003   7.722   4.243
 1764TIP3    H2 5236   3.034   7.667   4.105
 1765TIP3   OH2 5237   4.967   3.848   4.038
 1765TIP3    H1 5238   4.921   3.828   3.957
 1765TIP3    H2 5239   5.011   3.767   4.062
 1766TIP3   OH2 5240   2.916   7.225   1.634
 1766TIP3    H1 5241   2.885   7.147   1.679
 1766TIP3    H2 5242   2.866   7.227   1.553
 1767TIP3   OH2 5243   4.707   3.344   4.046
 1767TIP3    H1 5244   4.732   3.356   4.138
 1767TIP3    H2 5245   4.622   3.300   4.050
 1768TIP3   OH2 5246   7.542   6.795   1.701
 1768TIP3    H1 5247   7.600   6.720   1.705
 1768TIP3    H2 5248   7.570   6.843   1.623
 1769TIP3   OH2 5249   3.975   0.582   0.917
 1769TIP3    H1 5250   3.937   0.637   0.986
 1769TIP3    H2 5251   4.069   0.581   0.937
 1770TIP3   OH2 5252   6.425   5.485   1.550
 1770TIP3    H1 5253   6.368   5.505   1.476
 1770TIP3    H2 5254   6.378   5.516   1.627
 1771TIP3   OH2 5255   3.781   0.583   5.114
 1771TIP3    H1 5256   3.855   0.579   5.053
 1771TIP3    H2 5257   3.704   0.574   5.058
 1772TIP3   OH2 5258   4.891   1.829   4.282
 1772TIP3    H1 5259   4.924   1.784   4.205
 1772TIP3    H2 5260   4.911   1.771   4.355
 1773TIP3   OH2 5261   3.187   4.638   3.651
 1773TIP3    H1 5262   3.153   4.554   3.683
 1773TIP3    H2 5263   3.187   4.628   3.556
 1774TIP3   OH2 5264   4.944   4.001   5.402
 1774TIP3    H1 5265   4.982   3.953   5.329
 1774TIP3    H2 5266   4.875   3.943   5.435
 1775TIP3   OH2 5267   5.888   3.231   5.896
 1775TIP3    H1 5268   5.970   3.273   5.868
 1775TIP3    H2 5269   5.841   3.300   5.944
 1776TIP3   OH2 5270   2.181   5.246   4.422
 1776TIP3    H1 5271   2.119   5.180   4.389
 1776TIP3    H2 5272   2.137   5.330   4.405
 1777TIP3   OH2 5273   3.040   3.803   0.227
 1777TIP3    H1 5274   3.133   3.805   0.202
 1777TIP3    H2 5275   3.037   3.850   0.310
 1778TIP3   OH2 5276   0.784   2.341   5.184
 1778TIP3    H1 5277   0.706   2.396   5.189
 1778TIP3    H2 5278   0.768   2.272   5.249
 1779TIP3   OH2 5279   1.154   2.436   1.288
 1779TIP3    H1 5280   1.210   2.368   1.249
 1779TIP3    H2 5281   1.207   2.515   1.287
 1780TIP3   OH2 5282   2.787   2.856   1.916
 1780TIP3    H1 5283   2.735   2.931   1.889
 1780TIP3    H2 5284   2.792   2.801   1.837
 1781TIP3   OH2 5285   0.719   3.595   5.448
 1781TIP3    H1 5286   0.682   3.683   5.442
 1781TIP3    H2 5287   0.733   3.582   5.542
 1782TIP3   OH2 5288   3.241   6.417   6.027
 1782TIP3    H1 5289   3.333   6.415   6.003
 1782TIP3    H2 5290   3.224   6.509   6.049
 1783TIP3   OH2 5291   2.648   6.688   6.752
 1783TIP3    H1 5292   2.713   6.649   6.810
 1783TIP3    H2 5293   2.667   6.782   6.756
 1784TIP3   OH2 5294   2.661   5.595   1.330
 1784TIP3    H1 5295   2.718   5.547   1.391
 1784TIP3    H2 5296   2.706   5.679   1.317
 1785TIP3   OH2 5297   6.617   3.460   6.448
 1785TIP3    H1 5298   6.620   3.371   6.485
 1785TIP3    H2 5299   6.707   3.491   6.455
 1786TIP3   OH2 5300   3.654   2.987   4.397
 1786TIP3    H1 5301   3.665   2.892   4.398
 1786TIP3    H2 5302   3.737   3.021   4.365
 1787TIP3   OH2 5303   1.345   4.760   0.553
 1787TIP3    H1 5304   1.284   4.742   0.481
 1787TIP3    H2 5305   1.312   4.708   0.626
 1788TIP3   OH2 5306   0.725   2.897   4.345
 1788TIP3    H1 5307   0.651   2.937   4.392
 1788TIP3    H2 5308   0.685   2.851   4.272
 1789TIP3   OH2 5309   2.475   5.889   5.500
 1789TIP3    H1 5310   2.442   5.799   5.510
 1789TIP3    H2 5311   2.509   5.912   5.586
 1790TIP3   OH2 5312   2.673   2.715   0.621
 1790TIP3    H1 5313   2.690   2.806   0.643
 1790TIP3    H2 5314   2.613   2.685   0.689
 1791TIP3   OH2 5315   1.446   4.357   2.377
 1791TIP3    H1 5316   1.449   4.450   2.403
 1791TIP3    H2 5317   1.369   4.350   2.322
 1792TIP3   OH2 5318   0.188   4.697   3.417
 1792TIP3    H1 5319   0.153   4.617   3.379
 1792TIP3    H2 5320   0.124   4.723   3.483
 1793TIP3   OH2 5321   3.156   6.335   6.717
 1793TIP3    H1 5322   3.106   6.349   6.636
 1793TIP3    H2 5323   3.159   6.421   6.759
 1794TIP3   OH2 5324   1.344   3.980   5.480
 1794TIP3    H1 5325   1.409   3.984   5.410
 1794TIP3    H2 5326   1.366   3.902   5.530
 1795TIP3   OH2 5327   0.540   3.768   3.951
 1795TIP3    H1 5328   0.581   3.715   3.883
 1795TIP3    H2 5329   0.553   3.718   4.032
 1796TIP3   OH2 5330   3.348   0.853   4.977
 1796TIP3    H1 5331   3.443   0.865   4.980
 1796TIP3    H2 5332   3.312   0.930   5.021
 1797TIP3   OH2 5333   1.486   0.850   4.959
 1797TIP3    H1 5334   1.477   0.904   4.880
 1797TIP3    H2 5335   1.570   0.877   4.996
 1798TIP3   OH2 5336   5.077   3.021   0.204
 1798TIP3    H1 5337   5.105   2.962   0.134
 1798TIP3    H2 5338   5.114   2.983   0.284
 1799TIP3   OH2 5339   3.710   2.456   4.012
 1799TIP3    H1 5340   3.648   2.394   3.973
 1799TIP3    H2 5341   3.780   2.464   3.947
 1800TIP3   OH2 5342   3.252   0.728   0.550
 1800TIP3    H1 5343   3.157   0.722   0.538
 1800TIP3    H2 5344   3.287   0.743   0.462
 1801TIP3   OH2 5345   6.980   2.938   0.242
 1801TIP3    H1 5346   7.060   2.947   0.189
 1801TIP3    H2 5347   6.933   2.866   0.201
 1802TIP3   OH2 5348   4.436   7.684   0.525
 1802TIP3    H1 5349   4.498   7.610   0.529
 1802TIP3    H2 5350   4.469   7.745   0.591
 1803TIP3   OH2 5351   1.001   6.489   6.412
 1803TIP3    H1 5352   0.928   6.509   6.471
 1803TIP3    H2 5353   1.008   6.394   6.413
 1804TIP3   OH2 5354   0.634   4.949   3.230
 1804TIP3    H1 5355   0.637   5.044   3.241
 1804TIP3    H2 5356   0.654   4.914   3.317
 1805TIP3   OH2 5357   5.333   2.221   2.098
 1805TIP3    H1 5358   5.245   2.187   2.112
 1805TIP3    H2 5359   5.383   2.191   2.173
 1806TIP3   OH2 5360   7.929   5.969   1.013
 1806TIP3    H1 5361   7.883   5.917   0.947
 1806TIP3    H2 5362   7.980   6.032   0.962
 1807TIP3   OH2 5363   0.903   7.438   6.193
 1807TIP3    H1 5364   0.837   7.464   6.129
 1807TIP3    H2 5365   0.972   7.396   6.142
 1808TIP3   OH2 5366   3.006   4.845   2.242
 1808TIP3    H1 5367   3.016   4.792   2.163
 1808TIP3    H2 5368   3.095   4.876   2.261
 1809TIP3   OH2 5369   7.746   6.277   3.891
 1809TIP3    H1 5370   7.769   6.369   3.903
 1809TIP3    H2 5371   7.756   6.239   3.979
 1810TIP3   OH2 5372   7.432   0.380   3.645
 1810TIP3    H1 5373   7.460   0.472   3.636
 1810TIP3    H2 5374   7.514   0.330   3.646
 1811TIP3   OH2 5375   5.979   7.041   2.493
 1811TIP3    H1 5376   5.895   7.087   2.503
 1811TIP3    H2 5377   6.045   7.107   2.515
 1812TIP3   OH2 5378   2.556   2.925   1.728
 1812TIP3    H1 5379   2.577   3.016   1.751
 1812TIP3    H2 5380   2.638   2.889   1.695
 1813TIP3   OH2 5381   1.093   4.432   2.783
 1813TIP3    H1 5382   1.039   4.510   2.799
 1813TIP3    H2 5383   1.079   4.378   2.860
 1814TIP3   OH2 5384   3.277   6.444   4.208
 1814TIP3    H1 5385   3.300   6.352   4.194
 1814TIP3    H2 5386   3.305   6.463   4.297
 1815TIP3   OH2 5387   0.252   0.548   3.513
 1815TIP3    H1 5388   0.216   0.502   3.589
 1815TIP3    H2 5389   0.347   0.542   3.523
 1816TIP3   OH2 5390   2.040   1.418   5.301
 1816TIP3    H1 5391   2.048   1.455   5.213
 1816TIP3    H2 5392   1.957   1.371   5.301
 1817TIP3   OH2 5393   2.070   2.432   3.726
 1817TIP3    H1 5394   2.149   2.466   3.685
 1817TIP3    H2 5395   1.998   2.471   3.677
 1818TIP3   OH2 5396   0.073   6.403   2.496
 1818TIP3    H1 5397   0.123   6.363   2.567
 1818TIP3    H2 5398   0.071   6.337   2.427
 1819TIP3   OH2 5399   2.164   6.068   6.008
 1819TIP3    H1 5400   2.191   6.030   5.925
 1819TIP3    H2 5401   2.225   6.032   6.073
 1820TIP3   OH2 5402   1.736   7.526   6.244
 1820TIP3    H1 5403   1.809   7.488   6.294
 1820TIP3    H2 5404   1.687   7.450   6.213
 1821TIP3   OH2 5405   1.231   1.873   3.527
 1821TIP3    H1 5406   1.254   1.840   3.440
 1821TIP3    H2 5407   1.298   1.939   3.545
 1822TIP3   OH2 5408   7.319   7.542   0.902
 1822TIP3    H1 5409   7.301   7.478   0.971
 1822TIP3    H2 5410   7.358   7.490   0.832
 1823TIP3   OH2 5411   6.174   6.793   3.409
 1823TIP3    H1 5412   6.091   6.747   3.411
 1823TIP3    H2 5413   6.151   6.883   3.383
 1824TIP3   OH2 5414   3.586   6.932   1.528
 1824TIP3    H1 5415   3.680   6.946   1.541
 1824TIP3    H2 5416   3.546   7.017   1.548
 1825TIP3   OH2 5417   0.785   6.731   6.200
 1825TIP3    H1 5418   0.876   6.706   6.179
 1825TIP3    H2 5419   0.732   6.674   6.144
 1826TIP3   OH2 5420   0.839   7.174   3.455
 1826TIP3    H1 5421   0.863   7.106   3.393
 1826TIP3    H2 5422   0.747   7.194   3.435
 1827TIP3   OH2 5423   3.636   5.672   4.572
 1827TIP3    H1 5424   3.613   5.747   4.627
 1827TIP3    H2 5425   3.706   5.628   4.621
 1828TIP3   OH2 5426   4.733   7.357   4.744
 1828TIP3    H1 5427   4.723   7.346   4.649
 1828TIP3    H2 5428   4.780   7.279   4.772
 1829TIP3   OH2 5429   1.564   0.150   5.324
 1829TIP3    H1 5430   1.487   0.103   5.354
 1829TIP3    H2 5431   1.539   0.242   5.326
 1830TIP3   OH2 5432   1.448   5.470   0.800
 1830TIP3    H1 5433   1.486   5.418   0.729
 1830TIP3    H2 5434   1.364   5.500   0.765
 1831TIP3   OH2 5435   6.200   0.640   3.053
 1831TIP3    H1 5436   6.135   0.667   2.989
 1831TIP3    H2 5437   6.283   0.672   3.018
 1832TIP3   OH2 5438   5.326   7.384   0.961
 1832TIP3    H1 5439   5.377   7.402   0.882
 1832TIP3    H2 5440   5.289   7.297   0.946
 1833TIP3   OH2 5441   1.330   7.723   6.768
 1833TIP3    H1 5442   1.309   7.693   6.679
 1833TIP3    H2 5443   1.407   7.778   6.756
 1834TIP3   OH2 5444   1.629   4.367   0.472
 1834TIP3    H1 5445   1.694   4.353   0.541
 1834TIP3    H2 5446   1.643   4.457   0.443
 1835TIP3   OH2 5447   3.572   3.077   2.792
 1835TIP3    H1 5448   3.603   3.151   2.740
 1835TIP3    H2 5449   3.547   3.011   2.727
 1836TIP3   OH2 5450   3.534   6.711   3.538
 1836TIP3    H1 5451   3.451   6.743   3.574
 1836TIP3    H2 5452   3.557   6.775   3.471
 1837TIP3   OH2 5453   4.227   1.419   0.987
 1837TIP3    H1 5454   4.318   1.435   0.963
 1837TIP3    H2 5455   4.179   1.420   0.904
 1838TIP3   OH2 5456   3.292   6.839   3.902
 1838TIP3    H1 5457   3.222   6.793   3.948
 1838TIP3    H2 5458   3.372   6.814   3.948
 1839TIP3   OH2 5459   3.486   1.126   6.539
 1839TIP3    H1 5460   3.502   1.049   6.484
 1839TIP3    H2 5461   3.570   1.143   6.581
 1840TIP3   OH2 5462   2.673   6.842   4.199
 1840TIP3    H1 5463   2.728   6.764   4.201
 1840TIP3    H2 5464   2.634   6.842   4.112
 1841TIP3   OH2 5465   1.812   7.060   0.182
 1841TIP3    H1 5466   1.875   7.131   0.196
 1841TIP3    H2 5467   1.862   6.992   0.136
 1842TIP3   OH2 5468   7.962   5.474   6.698
 1842TIP3    H1 5469   7.893   5.541   6.698
 1842TIP3    H2 5470   7.955   5.432   6.784
 1843TIP3   OH2 5471   5.765   0.231   3.745
 1843TIP3    H1 5472   5.858   0.251   3.745
 1843TIP3    H2 5473   5.751   0.180   3.825
 1844TIP3   OH2 5474   0.902   5.392   2.238
 1844TIP3    H1 5475   0.865   5.434   2.160
 1844TIP3    H2 5476   0.833   5.396   2.304
 1845TIP3   OH2 5477   5.566   6.462   0.881
 1845TIP3    H1 5478   5.481   6.420   0.870
 1845TIP3    H2 5479   5.546   6.547   0.919
 1846TIP3   OH2 5480   6.206   3.807   5.056
 1846TIP3    H1 5481   6.296   3.775   5.052
 1846TIP3    H2 5482   6.164   3.751   5.122
 1847TIP3   OH2 5483   7.138   1.494   2.225
 1847TIP3    H1 5484   7.052   1.531   2.246
 1847TIP3    H2 5485   7.163   1.446   2.304
 1848TIP3   OH2 5486   0.772   6.288   3.459
 1848TIP3    H1 5487   0.710   6.346   3.505
 1848TIP3    H2 5488   0.767   6.315   3.368
 1849TIP3   OH2 5489   3.320   5.530   1.273
 1849TIP3    H1 5490   3.355   5.482   1.348
 1849TIP3    H2 5491   3.388   5.525   1.206
 1850TIP3   OH2 5492   4.130   5.324   3.144
 1850TIP3    H1 5493   4.086   5.408   3.131
 1850TIP3    H2 5494   4.205   5.345   3.200
 1851TIP3   OH2 5495   8.261   7.606   3.733
 1851TIP3    H1 5496   8.231   7.692   3.706
 1851TIP3    H2 5497   8.351   7.601   3.702
 1852TIP3   OH2 5498   0.423   4.725   3.543
 1852TIP3    H1 5499   0.328   4.732   3.531
 1852TIP3    H2 5500   0.443   4.790   3.610
 1853TIP3   OH2 5501   7.480   1.946   3.240
 1853TIP3    H1 5502   7.514   1.911   3.323
 1853TIP3    H2 5503   7.538   2.020   3.220
 1854TIP3   OH2 5504   6.316   7.514   1.799
 1854TIP3    H1 5505   6.335   7.594   1.849
 1854TIP3    H2 5506   6.226   7.527   1.769
 1855TIP3   OH2 5507   0.772   6.234   1.559
 1855TIP3    H1 5508   0.712   6.207   1.628
 1855TIP3    H2 5509   0.721   6.293   1.504
 1856TIP3   OH2 5510   3.532   0.211   2.786
 1856TIP3    H1 5511   3.577   0.252   2.713
 1856TIP3    H2 5512   3.596   0.151   2.824
 1857TIP3   OH2 5513   0.620   1.781   5.367
 1857TIP3    H1 5514   0.638   1.875   5.366
 1857TIP3    H2 5515   0.654   1.749   5.284
 1858TIP3   OH2 5516   5.897   1.193   5.286
 1858TIP3    H1 5517   5.946   1.257   5.339
 1858TIP3    H2 5518   5.863   1.245   5.212
 1859TIP3   OH2 5519   7.474   3.518   3.294
 1859TIP3    H1 5520   7.489   3.486   3.383
 1859TIP3    H2 5521   7.505   3.608   3.295
 1860TIP3   OH2 5522   0.328   1.008   0.319
 1860TIP3    H1 5523   0.281   0.940   0.271
 1860TIP3    H2 5524   0.260   1.069   0.347
 1861TIP3   OH2 5525   5.894   2.993   4.418
 1861TIP3    H1 5526   5.822   2.947   4.460
 1861TIP3    H2 5527   5.960   3.001   4.486
 1862TIP3   OH2 5528   5.553   1.856   2.150
 1862TIP3    H1 5529   5.467   1.884   2.117
 1862TIP3    H2 5530   5.542   1.762   2.165
 1863TIP3   OH2 5531   8.043   5.405   4.457
 1863TIP3    H1 5532   7.981   5.449   4.514
 1863TIP3    H2 5533   7.989   5.348   4.403
 1864TIP3   OH2 5534   3.327   6.004   2.461
 1864TIP3    H1 5535   3.367   6.068   2.519
 1864TIP3    H2 5536   3.331   5.922   2.509
 1865TIP3   OH2 5537   4.615   5.386   2.409
 1865TIP3    H1 5538   4.675   5.315   2.385
 1865TIP3    H2 5539   4.588   5.424   2.326
 1866TIP3   OH2 5540   6.496   4.739   0.024
 1866TIP3    H1 5541   6.451   4.823   0.034
 1866TIP3    H2 5542   6.565   4.757  -0.041
 1867TIP3   OH2 5543   1.656   1.985   0.562
 1867TIP3    H1 5544   1.682   1.967   0.472
 1867TIP3    H2 5545   1.564   2.011   0.556
 1868TIP3   OH2 5546   0.015   4.412   6.070
 1868TIP3    H1 5547   0.089   4.470   6.054
 1868TIP3    H2 5548   0.024   4.343   6.003
 1869TIP3   OH2 5549   6.305   0.556   6.414
 1869TIP3    H1 5550   6.252   0.487   6.454
 1869TIP3    H2 5551   6.388   0.513   6.394
 1870TIP3   OH2 5552   1.518   4.054   6.513
 1870TIP3    H1 5553   1.568   4.135   6.507
 1870TIP3    H2 5554   1.474   4.047   6.428
 1871TIP3   OH2 5555   8.184   3.517   2.808
 1871TIP3    H1 5556   8.267   3.483   2.841
 1871TIP3    H2 5557   8.174   3.478   2.721
 1872TIP3   OH2 5558   3.754   3.352   3.292
 1872TIP3    H1 5559   3.672   3.310   3.320
 1872TIP3    H2 5560   3.804   3.281   3.251
 1873TIP3   OH2 5561   2.002   3.131   5.396
 1873TIP3    H1 5562   2.026   3.040   5.411
 1873TIP3    H2 5563   1.914   3.140   5.434
 1874TIP3   OH2 5564   5.503   4.068   5.127
 1874TIP3    H1 5565   5.565   3.997   5.144
 1874TIP3    H2 5566   5.502   4.119   5.208
 1875TIP3   OH2 5567   7.146   4.544   4.520
 1875TIP3    H1 5568   7.124   4.521   4.430
 1875TIP3    H2 5569   7.071   4.596   4.550
 1876TIP3   OH2 5570   5.950   3.997   1.919
 1876TIP3    H1 5571   5.896   3.952   1.983
 1876TIP3    H2 5572   5.958   3.935   1.846
 1877TIP3   OH2 5573   5.629   5.657   1.300
 1877TIP3    H1 5574   5.674   5.579   1.268
 1877TIP3    H2 5575   5.694   5.727   1.294
 1878TIP3   OH2 5576   0.946   7.758   5.401
 1878TIP3    H1 5577   0.894   7.795   5.472
 1878TIP3    H2 5578   1.005   7.829   5.374
 1879TIP3   OH2 5579   1.615   6.956   1.709
 1879TIP3    H1 5580   1.521   6.950   1.690
 1879TIP3    H2 5581   1.658   6.920   1.631
 1880TIP3   OH2 5582   3.047   1.734   0.188
 1880TIP3    H1 5583   3.025   1.824   0.163
 1880TIP3    H2 5584   3.028   1.729   0.281
 1881TIP3   OH2 5585   1.456   1.842   0.914
 1881TIP3    H1 5586   1.524   1.818   0.851
 1881TIP3    H2 5587   1.455   1.769   0.977
 1882TIP3   OH2 5588   6.873   6.220   3.100
 1882TIP3    H1 5589   6.779   6.222   3.113
 1882TIP3    H2 5590   6.885   6.233   3.006
 1883TIP3   OH2 5591   7.927   4.267   2.488
 1883TIP3    H1 5592   7.852   4.326   2.493
 1883TIP3    H2 5593   7.980   4.302   2.416
 1884TIP3   OH2 5594   6.980   6.377   2.657
 1884TIP3    H1 5595   7.010   6.439   2.724
 1884TIP3    H2 5596   7.061   6.348   2.614
 1885TIP3   OH2 5597   4.423   2.212   5.221
 1885TIP3    H1 5598   4.443   2.269   5.148
 1885TIP3    H2 5599   4.391   2.131   5.181
 1886TIP3   OH2 5600   2.342   1.372   2.667
 1886TIP3    H1 5601   2.247   1.363   2.660
 1886TIP3    H2 5602   2.363   1.333   2.752
 1887TIP3   OH2 5603   1.172   3.356   1.938
 1887TIP3    H1 5604   1.210   3.333   1.854
 1887TIP3    H2 5605   1.239   3.409   1.982
 1888TIP3   OH2 5606   6.824   2.972   4.928
 1888TIP3    H1 5607   6.752   2.978   4.865
 1888TIP3    H2 5608   6.857   3.061   4.935
 1889TIP3   OH2 5609   7.541   3.138   4.168
 1889TIP3    H1 5610   7.485   3.102   4.236
 1889TIP3    H2 5611   7.623   3.159   4.213
 1890TIP3   OH2 5612   4.961   3.342   5.711
 1890TIP3    H1 5613   4.903   3.382   5.646
 1890TIP3    H2 5614   5.007   3.273   5.662
 1891TIP3   OH2 5615   0.128   6.260   2.979
 1891TIP3    H1 5616   0.141   6.350   2.949
 1891TIP3    H2 5617   0.129   6.266   3.074
 1892TIP3   OH2 5618   7.018   1.182   1.784
 1892TIP3    H1 5619   6.949   1.116   1.793
 1892TIP3    H2 5620   7.098   1.132   1.769
 1893TIP3   OH2 5621   3.261   3.798   0.008
 1893TIP3    H1 5622   3.347   3.779   0.046
 1893TIP3    H2 5623   3.267   3.889  -0.020
 1894TIP3   OH2 5624   3.469   1.872   1.860
 1894TIP3    H1 5625   3.467   1.951   1.914
 1894TIP3    H2 5626   3.519   1.897   1.783
 1895TIP3   OH2 5627   0.917   2.300   4.932
 1895TIP3    H1 5628   0.988   2.362   4.914
 1895TIP3    H2 5629   0.879   2.331   5.014
 1896TIP3   OH2 5630   6.358   6.838   3.026
 1896TIP3    H1 5631   6.326   6.795   2.947
 1896TIP3    H2 5632   6.451   6.813   3.030
 1897TIP3   OH2 5633   3.844   4.502   2.801
 1897TIP3    H1 5634   3.791   4.444   2.855
 1897TIP3    H2 5635   3.883   4.444   2.735
 1898TIP3   OH2 5636   6.038   1.027   0.212
 1898TIP3    H1 5637   6.089   1.086   0.157
 1898TIP3    H2 5638   6.103   0.982   0.265
 1899TIP3   OH2 5639   5.182   4.102   0.373
 1899TIP3    H1 5640   5.180   4.016   0.414
 1899TIP3    H2 5641   5.095   4.112   0.333
 1900TIP3   OH2 5642   4.419   5.901   5.758
 1900TIP3    H1 5643   4.375   5.876   5.677
 1900TIP3    H2 5644   4.469   5.980   5.735
 1901TIP3   OH2 5645   1.274   0.627   5.360
 1901TIP3    H1 5646   1.314   0.641   5.274
 1901TIP3    H2 5647   1.319   0.688   5.418
 1902TIP3   OH2 5648   3.080   5.365   2.374
 1902TIP3    H1 5649   3.023   5.422   2.425
 1902TIP3    H2 5650   3.040   5.279   2.381
 1903TIP3   OH2 5651   1.879   4.635   1.974
 1903TIP3    H1 5652   1.967   4.616   2.007
 1903TIP3    H2 5653   1.873   4.731   1.978
 1904TIP3   OH2 5654   6.055   5.384   4.957
 1904TIP3    H1 5655   6.144   5.352   4.975
 1904TIP3    H2 5656   6.053   5.472   4.995
 1905TIP3   OH2 5657   3.269   4.984   3.345
 1905TIP3    H1 5658   3.339   5.007   3.284
 1905TIP3    H2 5659   3.311   4.925   3.408
 1906TIP3   OH2 5660   3.928   2.667   6.691
 1906TIP3    H1 5661   3.978   2.587   6.700
 1906TIP3    H2 5662   3.859   2.660   6.757
 1907TIP3   OH2 5663   6.735   4.839   2.764
 1907TIP3    H1 5664   6.687   4.921   2.762
 1907TIP3    H2 5665   6.760   4.828   2.856
 1908TIP3   OH2 5666   2.579   0.362   1.383
 1908TIP3    H1 5667   2.493   0.345   1.421
 1908TIP3    H2 5668   2.560   0.403   1.299
 1909TIP3   OH2 5669   5.415   7.493   0.515
 1909TIP3    H1 5670   5.483   7.511   0.450
 1909TIP3    H2 5671   5.338   7.539   0.483
 1910TIP3   OH2 5672   4.414   2.013   5.905
 1910TIP3    H1 5673   4.390   2.096   5.948
 1910TIP3    H2 5674   4.347   2.001   5.838
 1911TIP3   OH2 5675   5.399   2.117   5.648
 1911TIP3    H1 5676   5.402   2.109   5.553
 1911TIP3    H2 5677   5.306   2.124   5.670
 1912TIP3   OH2 5678   1.575   5.044   1.946
 1912TIP3    H1 5679   1.533   5.118   1.903
 1912TIP3    H2 5680   1.517   4.970   1.930
 1913TIP3   OH2 5681   1.800   5.470   2.680
 1913TIP3    H1 5682   1.721   5.514   2.647
 1913TIP3    H2 5683   1.825   5.411   2.610
 1914TIP3   OH2 5684   4.443   3.300   6.127
 1914TIP3    H1 5685   4.500   3.320   6.201
 1914TIP3    H2 5686   4.361   3.344   6.147
 1915TIP3   OH2 5687   6.837   3.790   4.379
 1915TIP3    H1 5688   6.909   3.829   4.429
 1915TIP3    H2 5689   6.766   3.854   4.386
 1916TIP3   OH2 5690   7.669   5.452   4.343
 1916TIP3    H1 5691   7.650   5.397   4.267
 1916TIP3    H2 5692   7.750   5.498   4.320
 1917TIP3   OH2 5693   6.346   3.420   0.186
 1917TIP3    H1 5694   6.386   3.351   0.133
 1917TIP3    H2 5695   6.377   3.402   0.275
 1918TIP3   OH2 5696   3.093   2.986   5.932
 1918TIP3    H1 5697   3.140   2.927   5.873
 1918TIP3    H2 5698   3.090   3.070   5.885
 1919TIP3   OH2 5699   6.560   1.045   6.598
 1919TIP3    H1 5700   6.512   1.114   6.553
 1919TIP3    H2 5701   6.523   1.044   6.686
 1920TIP3   OH2 5702   2.946   0.847   5.001
 1920TIP3    H1 5703   2.905   0.920   4.954
 1920TIP3    H2 5704   3.007   0.810   4.938
 1921TIP3   OH2 5705   0.586   4.247   0.738
 1921TIP3    H1 5706   0.658   4.241   0.801
 1921TIP3    H2 5707   0.616   4.311   0.674
 1922TIP3   OH2 5708   1.916   0.178   1.238
 1922TIP3    H1 5709   1.932   0.253   1.181
 1922TIP3    H2 5710   1.884   0.109   1.180
 1923TIP3   OH2 5711   6.374   5.864   5.627
 1923TIP3    H1 5712   6.308   5.932   5.639
 1923TIP3    H2 5713   6.414   5.885   5.542
 1924TIP3   OH2 5714   8.153   5.881   0.543
 1924TIP3    H1 5715   8.116   5.949   0.486
 1924TIP3    H2 5716   8.171   5.927   0.625
 1925TIP3   OH2 5717   4.624   5.778   0.010
 1925TIP3    H1 5718   4.687   5.787   0.081
 1925TIP3    H2 5719   4.571   5.858   0.014
 1926TIP3   OH2 5720   3.579   1.721   6.608
 1926TIP3    H1 5721   3.497   1.676   6.629
 1926TIP3    H2 5722   3.558   1.814   6.611
 1927TIP3   OH2 5723   2.147   4.050   5.875
 1927TIP3    H1 5724   2.054   4.027   5.884
 1927TIP3    H2 5725   2.148   4.145   5.868
 1928TIP3   OH2 5726   5.542   1.404   6.512
 1928TIP3    H1 5727   5.540   1.366   6.424
 1928TIP3    H2 5728   5.525   1.497   6.499
 1929TIP3   OH2 5729   3.323   6.628   0.005
 1929TIP3    H1 5730   3.417   6.627   0.023
 1929TIP3    H2 5731   3.282   6.649   0.089
 1930TIP3   OH2 5732   6.753   1.270   0.049
 1930TIP3    H1 5733   6.834   1.224   0.073
 1930TIP3    H2 5734   6.751   1.267  -0.047
 1931TIP3   OH2 5735   1.544   7.388   1.039
 1931TIP3    H1 5736   1.607   7.396   0.968
 1931TIP3    H2 5737   1.520   7.478   1.062
 1932TIP3   OH2 5738   2.101   4.233   2.762
 1932TIP3    H1 5739   2.136   4.211   2.848
 1932TIP3    H2 5740   2.006   4.238   2.775
 1933TIP3   OH2 5741   5.059   0.044   2.361
 1933TIP3    H1 5742   5.093   0.133   2.351
 1933TIP3    H2 5743   5.028   0.021   2.273
 1934TIP3   OH2 5744   7.721   7.282   0.601
 1934TIP3    H1 5745   7.800   7.267   0.652
 1934TIP3    H2 5746   7.695   7.196   0.570
 1935TIP3   OH2 5747   3.451   3.631   3.121
 1935TIP3    H1 5748   3.394   3.612   3.047
 1935TIP3    H2 5749   3.409   3.704   3.167
 1936TIP3   OH2 5750   2.959   2.900   0.505
 1936TIP3    H1 5751   2.960   2.823   0.447
 1936TIP3    H2 5752   2.868   2.929   0.504
 1937TIP3   OH2 5753   6.819   4.559   1.452
 1937TIP3    H1 5754   6.747   4.617   1.428
 1937TIP3    H2 5755   6.887   4.577   1.387
 1938TIP3   OH2 5756   7.588   4.641   1.098
 1938TIP3    H1 5757   7.587   4.634   1.193
 1938TIP3    H2 5758   7.541   4.723   1.080
 1939TIP3   OH2 5759   7.348   3.595   0.816
 1939TIP3    H1 5760   7.337   3.685   0.849
 1939TIP3    H2 5761   7.440   3.590   0.792
 1940TIP3   OH2 5762   8.067   3.306   3.820
 1940TIP3    H1 5763   8.047   3.399   3.813
 1940TIP3    H2 5764   8.160   3.302   3.842
 1941TIP3   OH2 5765   4.256   0.543   1.001
 1941TIP3    H1 5766   4.340   0.573   1.035
 1941TIP3    H2 5767   4.279   0.485   0.928
 1942TIP3   OH2 5768   3.846   6.993   1.996
 1942TIP3    H1 5769   3.917   6.998   1.932
 1942TIP3    H2 5770   3.854   6.905   2.033
 1943TIP3   OH2 5771   2.247   5.682   6.204
 1943TIP3    H1 5772   2.214   5.673   6.115
 1943TIP3    H2 5773   2.240   5.593   6.241
 1944TIP3   OH2 5774   1.745   1.310   3.975
 1944TIP3    H1 5775   1.664   1.265   4.001
 1944TIP3    H2 5776   1.814   1.262   4.020
 1945TIP3   OH2 5777   0.882   0.290   5.908
 1945TIP3    H1 5778   0.791   0.261   5.900
 1945TIP3    H2 5779   0.920   0.230   5.972
 1946TIP3   OH2 5780   2.063   7.778   5.770
 1946TIP3    H1 5781   1.984   7.755   5.721
 1946TIP3    H2 5782   2.116   7.698   5.768
 1947TIP3   OH2 5783   3.023   1.837   6.123
 1947TIP3    H1 5784   2.944   1.823   6.072
 1947TIP3    H2 5785   2.993   1.843   6.214
 1948TIP3   OH2 5786   7.932  -0.002   3.553
 1948TIP3    H1 5787   8.022  -0.034   3.559
 1948TIP3    H2 5788   7.918   0.046   3.635
 1949TIP3   OH2 5789   6.987   2.182   1.213
 1949TIP3    H1 5790   6.911   2.135   1.248
 1949TIP3    H2 5791   6.957   2.213   1.127
 1950TIP3   OH2 5792   1.314   4.292   1.879
 1950TIP3    H1 5793   1.340   4.205   1.910
 1950TIP3    H2 5794   1.283   4.276   1.789
 1951TIP3   OH2 5795   7.699   5.613   0.362
 1951TIP3    H1 5796   7.689   5.549   0.292
 1951TIP3    H2 5797   7.786   5.596   0.398
 1952TIP3   OH2 5798   4.553   5.588   4.792
 1952TIP3    H1 5799   4.630   5.645   4.798
 1952TIP3    H2 5800   4.479   5.646   4.810
 1953TIP3   OH2 5801   4.631   5.399   5.417
 1953TIP3    H1 5802   4.649   5.372   5.327
 1953TIP3    H2 5803   4.560   5.341   5.445
 1954TIP3   OH2 5804   1.479   3.256   1.927
 1954TIP3    H1 5805   1.463   3.329   1.987
 1954TIP3    H2 5806   1.499   3.182   1.984
 1955TIP3   OH2 5807   7.450   3.893   5.454
 1955TIP3    H1 5808   7.359   3.868   5.434
 1955TIP3    H2 5809   7.497   3.811   5.461
 1956TIP3   OH2 5810   7.543   2.547   2.673
 1956TIP3    H1 5811   7.481   2.546   2.600
 1956TIP3    H2 5812   7.540   2.637   2.705
 1957TIP3   OH2 5813   7.460   5.469   4.960
 1957TIP3    H1 5814   7.489   5.385   4.996
 1957TIP3    H2 5815   7.517   5.484   4.885
 1958TIP3   OH2 5816   7.491   7.203   4.305
 1958TIP3    H1 5817   7.465   7.199   4.213
 1958TIP3    H2 5818   7.532   7.289   4.315
 1959TIP3   OH2 5819   6.513   6.066   1.177
 1959TIP3    H1 5820   6.519   6.011   1.255
 1959TIP3    H2 5821   6.565   6.143   1.198
 1960TIP3   OH2 5822   4.911   7.004   4.027
 1960TIP3    H1 5823   4.855   7.080   4.039
 1960TIP3    H2 5824   4.995   7.040   3.997
 1961TIP3   OH2 5825   4.104   5.093   0.359
 1961TIP3    H1 5826   4.163   5.168   0.369
 1961TIP3    H2 5827   4.119   5.040   0.437
 1962TIP3   OH2 5828   6.891   1.781   1.440
 1962TIP3    H1 5829   6.987   1.775   1.440
 1962TIP3    H2 5830   6.866   1.773   1.532
 1963TIP3   OH2 5831   2.958   0.579   1.548
 1963TIP3    H1 5832   3.009   0.651   1.512
 1963TIP3    H2 5833   2.868   0.613   1.554
 1964TIP3   OH2 5834   2.835   1.043   3.756
 1964TIP3    H1 5835   2.752   1.054   3.711
 1964TIP3    H2 5836   2.893   1.110   3.719
 1965TIP3   OH2 5837   7.979   2.854   3.186
 1965TIP3    H1 5838   8.010   2.766   3.205
 1965TIP3    H2 5839   7.978   2.860   3.090
 1966TIP3   OH2 5840   3.246   2.825   0.283
 1966TIP3    H1 5841   3.246   2.758   0.352
 1966TIP3    H2 5842   3.285   2.901   0.325
 1967TIP3   OH2 5843   2.879   0.479   1.245
 1967TIP3    H1 5844   2.785   0.495   1.235
 1967TIP3    H2 5845   2.885   0.405   1.305
 1968TIP3   OH2 5846   7.231   2.746   1.972
 1968TIP3    H1 5847   7.190   2.670   1.930
 1968TIP3    H2 5848   7.243   2.809   1.900
 1969TIP3   OH2 5849   5.953   1.513   6.666
 1969TIP3    H1 5850   5.928   1.433   6.714
 1969TIP3    H2 5851   5.872   1.542   6.625
 1970TIP3   OH2 5852   7.375   2.705   6.033
 1970TIP3    H1 5853   7.323   2.752   5.967
 1970TIP3    H2 5854   7.319   2.702   6.110
 1971TIP3   OH2 5855   1.812   1.504   3.806
 1971TIP3    H1 5856   1.804   1.434   3.871
 1971TIP3    H2 5857   1.785   1.462   3.724
 1972TIP3   OH2 5858   3.526   0.574   5.436
 1972TIP3    H1 5859   3.496   0.663   5.421
 1972TIP3    H2 5860   3.462   0.537   5.498
 1973TIP3   OH2 5861   0.864   5.979   4.976
 1973TIP3    H1 5862   0.856   5.984   5.071
 1973TIP3    H2 5863   0.855   6.069   4.946
 1974TIP3   OH2 5864   2.427   3.799   4.736
 1974TIP3    H1 5865   2.409   3.892   4.742
 1974TIP3    H2 5866   2.383   3.770   4.656
 1975TIP3   OH2 5867   5.317   6.017   1.218
 1975TIP3    H1 5868   5.335   6.018   1.312
 1975TIP3    H2 5869   5.291   6.107   1.197
 1976TIP3   OH2 5870   4.920   1.535   3.457
 1976TIP3    H1 5871   4.852   1.468   3.467
 1976TIP3    H2 5872   4.993   1.502   3.509
 1977TIP3   OH2 5873   7.680   5.381   6.745
 1977TIP3    H1 5874   7.737   5.343   6.812
 1977TIP3    H2 5875   7.698   5.328   6.666
 1978TIP3   OH2 5876   3.033   6.562   4.579
 1978TIP3    H1 5877   2.990   6.637   4.539
 1978TIP3    H2 5878   2.963   6.496   4.587
 1979TIP3   OH2 5879   3.186   0.768   1.941
 1979TIP3    H1 5880   3.187   0.812   2.026
 1979TIP3    H2 5881   3.096   0.779   1.910
 1980TIP3   OH2 5882   4.018   1.183   3.132
 1980TIP3    H1 5883   3.975   1.119   3.189
 1980TIP3    H2 5884   4.107   1.148   3.119
 1981TIP3   OH2 5885   8.040   1.910   5.896
 1981TIP3    H1 5886   8.015   1.834   5.844
 1981TIP3    H2 5887   7.985   1.981   5.863
 1982TIP3   OH2 5888   0.701   1.132   2.703
 1982TIP3    H1 5889   0.684   1.115   2.795
 1982TIP3    H2 5890   0.668   1.220   2.687
 1983TIP3   OH2 5891   1.373   6.509   5.114
 1983TIP3    H1 5892   1.368   6.526   5.020
 1983TIP3    H2 5893   1.306   6.442   5.129
 1984TIP3   OH2 5894   0.264   0.015   4.444
 1984TIP3    H1 5895   0.201   0.088   4.449
 1984TIP3    H2 5896   0.285  -0.004   4.535
 1985TIP3   OH2 5897   1.215   1.047   5.880
 1985TIP3    H1 5898   1.245   0.998   5.956
 1985TIP3    H2 5899   1.259   1.006   5.805
 1986TIP3   OH2 5900   7.721   6.936   4.506
 1986TIP3    H1 5901   7.775   6.897   4.575
 1986TIP3    H2 5902   7.631   6.921   4.535
 1987TIP3   OH2 5903   1.071   0.038   3.197
 1987TIP3    H1 5904   1.069   0.132   3.217
 1987TIP3    H2 5905   1.144   0.028   3.137
 1988TIP3   OH2 5906   6.162   6.201   1.894
 1988TIP3    H1 5907   6.086   6.197   1.953
 1988TIP3    H2 5908   6.135   6.262   1.825
 1989TIP3   OH2 5909   1.320   3.502   0.303
 1989TIP3    H1 5910   1.382   3.499   0.230
 1989TIP3    H2 5911   1.303   3.596   0.315
 1990TIP3   OH2 5912   0.775   5.488   3.951
 1990TIP3    H1 5913   0.754   5.475   4.043
 1990TIP3    H2 5914   0.853   5.544   3.952
 1991TIP3   OH2 5915   5.546   2.476   6.216
 1991TIP3    H1 5916   5.521   2.427   6.138
 1991TIP3    H2 5917   5.567   2.563   6.184
 1992TIP3   OH2 5918   3.906   3.906   2.273
 1992TIP3    H1 5919   3.812   3.894   2.288
 1992TIP3    H2 5920   3.924   3.994   2.306
 1993TIP3   OH2 5921   5.945   2.538   4.533
 1993TIP3    H1 5922   5.979   2.617   4.575
 1993TIP3    H2 5923   5.888   2.570   4.463
 1994TIP3   OH2 5924   6.183   1.613   6.500
 1994TIP3    H1 5925   6.151   1.535   6.455
 1994TIP3    H2 5926   6.119   1.629   6.570
 1995TIP3   OH2 5927   7.178   3.378   2.938
 1995TIP3    H1 5928   7.238   3.447   2.910
 1995TIP3    H2 5929   7.091   3.416   2.924
 1996TIP3   OH2 5930   8.107   4.233   2.943
 1996TIP3    H1 5931   8.108   4.268   3.033
 1996TIP3    H2 5932   8.030   4.273   2.903
 1997TIP3   OH2 5933   0.978   1.945   2.132
 1997TIP3    H1 5934   0.996   1.959   2.039
 1997TIP3    H2 5935   0.889   1.912   2.135
 1998TIP3   OH2 5936   1.856   5.680   5.548
 1998TIP3    H1 5937   1.802   5.751   5.513
 1998TIP3    H2 5938   1.819   5.601   5.509
 1999TIP3   OH2 5939   2.951   6.792   5.200
 1999TIP3    H1 5940   2.911   6.706   5.211
 1999TIP3    H2 5941   2.951   6.807   5.106
 2000TIP3   OH2 5942   3.912   3.329   4.668
 2000TIP3    H1 5943   3.816   3.331   4.678
 2000TIP3    H2 5944   3.934   3.417   4.637
 2001TIP3   OH2 5945   4.651   1.135   1.573
 2001TIP3    H1 5946   4.567   1.105   1.607
 2001TIP3    H2 5947   4.677   1.206   1.632
 2002TIP3   OH2 5948   4.608   0.708   1.534
 2002TIP3    H1 5949   4.527   0.722   1.486
 2002TIP3    H2 5950   4.597   0.755   1.616
 2003TIP3   OH2 5951   3.238   5.928   1.071
 2003TIP3    H1 5952   3.168   5.953   1.131
 2003TIP3    H2 5953   3.192   5.888   0.997
 2004TIP3   OH2 5954   1.428   4.548   1.876
 2004TIP3    H1 5955   1.421   4.454   1.895
 2004TIP3    H2 5956   1.452   4.552   1.783
 2005TIP3   OH2 5957   4.150   1.935   4.250
 2005TIP3    H1 5958   4.163   1.991   4.326
 2005TIP3    H2 5959   4.197   1.854   4.271
 2006TIP3   OH2 5960   0.755   5.671   1.493
 2006TIP3    H1 5961   0.809   5.722   1.433
 2006TIP3    H2 5962   0.808   5.594   1.513
 2007TIP3   OH2 5963   1.312   7.399   0.225
 2007TIP3    H1 5964   1.305   7.427   0.133
 2007TIP3    H2 5965   1.380   7.455   0.262
 2008TIP3   OH2 5966   5.809   4.749   6.030
 2008TIP3    H1 5967   5.779   4.734   6.119
 2008TIP3    H2 5968   5.828   4.842   6.026
 2009TIP3   OH2 5969   5.743   1.432   2.294
 2009TIP3    H1 5970   5.833   1.463   2.281
 2009TIP3    H2 5971   5.754   1.340   2.319
 2010TIP3   OH2 5972   2.288   1.454   5.462
 2010TIP3    H1 5973   2.219   1.412   5.410
 2010TIP3    H2 5974   2.305   1.537   5.418
 2011TIP3   OH2 5975   4.381   1.167   1.046
 2011TIP3    H1 5976   4.434   1.230   1.095
 2011TIP3    H2 5977   4.421   1.083   1.066
 2012TIP3   OH2 5978   3.498   6.986   5.528
 2012TIP3    H1 5979   3.590   7.010   5.538
 2012TIP3    H2 5980   3.453   7.032   5.599
 2013TIP3   OH2 5981   7.813   4.246   6.241
 2013TIP3    H1 5982   7.743   4.304   6.272
 2013TIP3    H2 5983   7.769   4.184   6.182
 2014TIP3   OH2 5984   3.287   6.565   0.495
 2014TIP3    H1 5985   3.272   6.489   0.439
 2014TIP3    H2 5986   3.374   6.550   0.532
 2015TIP3   OH2 5987   5.636   1.340   1.989
 2015TIP3    H1 5988   5.562   1.282   2.005
 2015TIP3    H2 5989   5.673   1.357   2.075
 2016TIP3   OH2 5990   0.710   3.352   5.131
 2016TIP3    H1 5991   0.762   3.373   5.054
 2016TIP3    H2 5992   0.629   3.314   5.096
 2017TIP3   OH2 5993   0.957   5.121   5.966
 2017TIP3    H1 5994   0.885   5.167   5.922
 2017TIP3    H2 5995   0.916   5.080   6.042
 2018TIP3   OH2 5996   1.515   5.813   1.068
 2018TIP3    H1 5997   1.484   5.745   1.009
 2018TIP3    H2 5998   1.556   5.766   1.141
 2019TIP3   OH2 5999   3.547   7.573   4.748
 2019TIP3    H1 6000   3.537   7.570   4.653
 2019TIP3    H2 6001   3.457   7.564   4.782
 2020TIP3   OH2 6002   7.949   1.688   0.345
 2020TIP3    H1 6003   7.970   1.597   0.362
 2020TIP3    H2 6004   7.946   1.729   0.432
 2021TIP3   OH2 6005   2.071   0.404   2.733
 2021TIP3    H1 6006   2.122   0.368   2.661
 2021TIP3    H2 6007   1.988   0.356   2.730
 2022TIP3   OH2 6008   3.438   2.118   2.020
 2022TIP3    H1 6009   3.441   2.137   2.113
 2022TIP3    H2 6010   3.494   2.184   1.980
 2023TIP3   OH2 6011   3.737   0.106   0.546
 2023TIP3    H1 6012   3.755   0.104   0.452
 2023TIP3    H2 6013   3.752   0.197   0.572
 2024TIP3   OH2 6014   5.108   2.813   0.707
 2024TIP3    H1 6015   5.043   2.883   0.708
 2024TIP3    H2 6016   5.173   2.841   0.642
 2025TIP3   OH2 6017   0.028   1.238   2.570
 2025TIP3    H1 6018  -0.052   1.258   2.619
 2025TIP3    H2 6019   0.092   1.303   2.601
 2026TIP3   OH2 6020   7.941   1.634   3.266
 2026TIP3    H1 6021   7.880   1.666   3.200
 2026TIP3    H2 6022   8.026   1.631   3.220
 2027TIP3   OH2 6023   5.414   7.496   2.364
 2027TIP3    H1 6024   5.386   7.405   2.371
 2027TIP3    H2 6025   5.374   7.527   2.282
 2028TIP3   OH2 6026   0.912   4.127   4.216
 2028TIP3    H1 6027   0.957   4.043   4.202
 2028TIP3    H2 6028   0.857   4.111   4.293
 2029TIP3   OH2 6029   3.063   0.417   5.375
 2029TIP3    H1 6030   3.081   0.493   5.430
 2029TIP3    H2 6031   2.989   0.444   5.320
 2030TIP3   OH2 6032   4.819   4.392   0.296
 2030TIP3    H1 6033   4.859   4.436   0.372
 2030TIP3    H2 6034   4.743   4.446   0.274
 2031TIP3   OH2 6035   0.414   1.586   3.067
 2031TIP3    H1 6036   0.348   1.533   3.110
 2031TIP3    H2 6037   0.421   1.665   3.120
 2032TIP3   OH2 6038   3.280   1.734   5.725
 2032TIP3    H1 6039   3.354   1.785   5.757
 2032TIP3    H2 6040   3.320   1.662   5.676
 2033TIP3   OH2 6041   3.572   5.639   2.277
 2033TIP3    H1 6042   3.526   5.583   2.214
 2033TIP3    H2 6043   3.586   5.583   2.353
 2034TIP3   OH2 6044   0.936   2.873   1.959
 2034TIP3    H1 6045   0.849   2.877   1.999
 2034TIP3    H2 6046   0.937   2.944   1.895
 2035TIP3   OH2 6047   8.104   5.686   5.741
 2035TIP3    H1 6048   8.042   5.657   5.808
 2035TIP3    H2 6049   8.186   5.644   5.765
 2036TIP3   OH2 6050   5.358   2.031   2.665
 2036TIP3    H1 6051   5.309   2.069   2.738
 2036TIP3    H2 6052   5.447   2.022   2.697
 2037TIP3   OH2 6053   6.690   5.180   5.696
 2037TIP3    H1 6054   6.705   5.248   5.761
 2037TIP3    H2 6055   6.731   5.101   5.732
 2038TIP3   OH2 6056   5.673   5.398   5.666
 2038TIP3    H1 6057   5.578   5.387   5.659
 2038TIP3    H2 6058   5.692   5.393   5.759
 2039TIP3   OH2 6059   3.158   2.402   6.178
 2039TIP3    H1 6060   3.168   2.307   6.173
 2039TIP3    H2 6061   3.243   2.434   6.208
 2040TIP3   OH2 6062   2.647   0.840   5.993
 2040TIP3    H1 6063   2.639   0.930   6.025
 2040TIP3    H2 6064   2.634   0.847   5.899
 2041TIP3   OH2 6065   1.246   3.603   4.583
 2041TIP3    H1 6066   1.180   3.673   4.580
 2041TIP3    H2 6067   1.328   3.648   4.563
 2042TIP3   OH2 6068   7.877   0.899   0.853
 2042TIP3    H1 6069   7.957   0.872   0.900
 2042TIP3    H2 6070   7.909   0.955   0.782
 2043TIP3   OH2 6071   1.261   4.433   6.464
 2043TIP3    H1 6072   1.207   4.416   6.542
 2043TIP3    H2 6073   1.345   4.463   6.499
 2044TIP3   OH2 6074   1.426   1.699   6.584
 2044TIP3    H1 6075   1.375   1.636   6.634
 2044TIP3    H2 6076   1.511   1.656   6.571
 2045TIP3   OH2 6077   8.242   3.808   1.760
 2045TIP3    H1 6078   8.225   3.851   1.676
 2045TIP3    H2 6079   8.218   3.874   1.826
 2046TIP3   OH2 6080   1.508   7.330   4.820
 2046TIP3    H1 6081   1.576   7.264   4.805
 2046TIP3    H2 6082   1.430   7.294   4.779
 2047TIP3   OH2 6083   8.205   6.625   0.238
 2047TIP3    H1 6084   8.230   6.534   0.218
 2047TIP3    H2 6085   8.145   6.649   0.167
 2048TIP3   OH2 6086   4.588   5.661   4.025
 2048TIP3    H1 6087   4.621   5.605   4.096
 2048TIP3    H2 6088   4.536   5.602   3.971
 2049TIP3   OH2 6089   1.767   6.075   3.416
 2049TIP3    H1 6090   1.680   6.081   3.376
 2049TIP3    H2 6091   1.758   6.006   3.482
 2050TIP3   OH2 6092   5.900   0.720   1.887
 2050TIP3    H1 6093   5.888   0.680   1.801
 2050TIP3    H2 6094   5.838   0.674   1.943
 2051TIP3   OH2 6095   1.019   1.086   5.249
 2051TIP3    H1 6096   0.997   1.081   5.342
 2051TIP3    H2 6097   1.061   1.002   5.230
 2052TIP3   OH2 6098   8.189   5.074   5.038
 2052TIP3    H1 6099   8.123   5.034   5.096
 2052TIP3    H2 6100   8.219   5.151   5.087
 2053TIP3   OH2 6101   6.122   6.122   0.427
 2053TIP3    H1 6102   6.031   6.116   0.454
 2053TIP3    H2 6103   6.142   6.216   0.433
 2054TIP3   OH2 6104   3.545   6.529   1.746
 2054TIP3    H1 6105   3.471   6.584   1.718
 2054TIP3    H2 6106   3.547   6.458   1.682
 2055TIP3   OH2 6107   8.209   4.493   6.350
 2055TIP3    H1 6108   8.279   4.442   6.390
 2055TIP3    H2 6109   8.185   4.445   6.271
 2056TIP3   OH2 6110   8.098   3.873   4.250
 2056TIP3    H1 6111   8.066   3.917   4.171
 2056TIP3    H2 6112   8.040   3.903   4.320
 2057TIP3   OH2 6113   6.748   3.416   4.371
 2057TIP3    H1 6114   6.799   3.399   4.450
 2057TIP3    H2 6115   6.813   3.431   4.303
 2058TIP3   OH2 6116   4.047   6.027   0.815
 2058TIP3    H1 6117   4.143   6.034   0.820
 2058TIP3    H2 6118   4.015   6.105   0.862
 2059TIP3   OH2 6119   0.088   6.172   5.465
 2059TIP3    H1 6120   0.030   6.101   5.437
 2059TIP3    H2 6121   0.143   6.190   5.389
 2060TIP3   OH2 6122   5.626   3.568   1.012
 2060TIP3    H1 6123   5.582   3.603   0.934
 2060TIP3    H2 6124   5.719   3.588   0.997
 2061TIP3   OH2 6125   2.052   2.960   4.182
 2061TIP3    H1 6126   2.062   2.967   4.087
 2061TIP3    H2 6127   2.128   2.910   4.212
 2062TIP3   OH2 6128   5.594   3.974   1.850
 2062TIP3    H1 6129   5.510   4.016   1.868
 2062TIP3    H2 6130   5.608   3.916   1.924
 2063TIP3   OH2 6131   7.684   1.295   6.682
 2063TIP3    H1 6132   7.636   1.290   6.600
 2063TIP3    H2 6133   7.770   1.329   6.658
 2064TIP3   OH2 6134   5.156   0.268   3.513
 2064TIP3    H1 6135   5.188   0.352   3.479
 2064TIP3    H2 6136   5.128   0.287   3.602
 2065TIP3   OH2 6137   7.965   5.612   3.640
 2065TIP3    H1 6138   7.969   5.696   3.594
 2065TIP3    H2 6139   7.955   5.547   3.571
 2066TIP3   OH2 6140   1.408   1.037   2.078
 2066TIP3    H1 6141   1.341   1.054   2.143
 2066TIP3    H2 6142   1.489   1.028   2.129
 2067TIP3   OH2 6143   7.858   3.286   6.485
 2067TIP3    H1 6144   7.852   3.237   6.403
 2067TIP3    H2 6145   7.839   3.376   6.461
 2068TIP3   OH2 6146   4.046   3.509   0.334
 2068TIP3    H1 6147   4.056   3.594   0.291
 2068TIP3    H2 6148   4.135   3.477   0.345
 2069TIP3   OH2 6149   3.111   6.501   1.073
 2069TIP3    H1 6150   3.059   6.511   0.993
 2069TIP3    H2 6151   3.142   6.411   1.070
 2070TIP3   OH2 6152   4.317   6.153   1.276
 2070TIP3    H1 6153   4.342   6.064   1.302
 2070TIP3    H2 6154   4.384   6.209   1.313
 2071TIP3   OH2 6155   4.296   0.742   1.484
 2071TIP3    H1 6156   4.206   0.760   1.456
 2071TIP3    H2 6157   4.287   0.712   1.574
 2072TIP3   OH2 6158   6.428   5.565   6.011
 2072TIP3    H1 6159   6.391   5.490   6.058
 2072TIP3    H2 6160   6.358   5.592   5.951
 2073TIP3   OH2 6161   2.926   3.439   3.020
 2073TIP3    H1 6162   2.871   3.513   3.045
 2073TIP3    H2 6163   2.935   3.387   3.099
 2074TIP3   OH2 6164   0.407   2.178   1.147
 2074TIP3    H1 6165   0.441   2.238   1.214
 2074TIP3    H2 6166   0.419   2.091   1.185
 2075TIP3   OH2 6167   4.572   0.399   2.222
 2075TIP3    H1 6168   4.555   0.334   2.154
 2075TIP3    H2 6169   4.553   0.354   2.304
 2076TIP3   OH2 6170   5.073   6.423   6.533
 2076TIP3    H1 6171   5.123   6.486   6.481
 2076TIP3    H2 6172   4.988   6.418   6.488
 2077TIP3   OH2 6173   0.472   2.100   5.114
 2077TIP3    H1 6174   0.499   2.084   5.023
 2077TIP3    H2 6175   0.479   2.195   5.124
 2078TIP3   OH2 6176   3.420   5.755   6.753
 2078TIP3    H1 6177   3.405   5.743   6.847
 2078TIP3    H2 6178   3.473   5.679   6.727
 2079TIP3   OH2 6179   6.746   1.095   3.228
 2079TIP3    H1 6180   6.706   1.017   3.190
 2079TIP3    H2 6181   6.830   1.103   3.183
 2080TIP3   OH2 6182   6.706   2.620   6.046
 2080TIP3    H1 6183   6.620   2.647   6.076
 2080TIP3    H2 6184   6.688   2.559   5.974
 2081TIP3   OH2 6185   2.601   5.623   2.811
 2081TIP3    H1 6186   2.606   5.691   2.879
 2081TIP3    H2 6187   2.511   5.591   2.817
 2082TIP3   OH2 6188   7.453   3.687   1.476
 2082TIP3    H1 6189   7.509   3.677   1.399
 2082TIP3    H2 6190   7.501   3.746   1.534
 2083TIP3   OH2 6191   6.066   2.120   1.705
 2083TIP3    H1 6192   6.076   2.042   1.759
 2083TIP3    H2 6193   6.088   2.091   1.616
 2084TIP3   OH2 6194   6.264   4.986   3.078
 2084TIP3    H1 6195   6.248   4.981   2.983
 2084TIP3    H2 6196   6.287   4.897   3.103
 2085TIP3   OH2 6197   7.541   4.321   5.261
 2085TIP3    H1 6198   7.542   4.317   5.357
 2085TIP3    H2 6199   7.448   4.322   5.238
 2086TIP3   OH2 6200   4.140   2.884   6.668
 2086TIP3    H1 6201   4.150   2.919   6.757
 2086TIP3    H2 6202   4.071   2.818   6.676
 2087TIP3   OH2 6203   3.508   6.415   5.985
 2087TIP3    H1 6204   3.512   6.393   6.078
 2087TIP3    H2 6205   3.586   6.468   5.970
 2088TIP3   OH2 6206   6.704   3.436   5.041
 2088TIP3    H1 6207   6.728   3.505   5.102
 2088TIP3    H2 6208   6.610   3.423   5.055
 2089TIP3   OH2 6209   5.847   5.206   5.545
 2089TIP3    H1 6210   5.800   5.246   5.618
 2089TIP3    H2 6211   5.851   5.274   5.478
 2090TIP3   OH2 6212   8.238   3.138   5.010
 2090TIP3    H1 6213   8.283   3.113   4.929
 2090TIP3    H2 6214   8.185   3.062   5.033
 2091TIP3   OH2 6215   2.347   6.506   0.534
 2091TIP3    H1 6216   2.285   6.434   0.518
 2091TIP3    H2 6217   2.292   6.577   0.568
 2092TIP3   OH2 6218   5.200   4.969   2.368
 2092TIP3    H1 6219   5.185   4.934   2.456
 2092TIP3    H2 6220   5.284   4.932   2.341
 2093TIP3   OH2 6221   5.692   4.843   2.348
 2093TIP3    H1 6222   5.602   4.863   2.373
 2093TIP3    H2 6223   5.745   4.877   2.420
 2094TIP3   OH2 6224   8.246   6.190   4.727
 2094TIP3    H1 6225   8.244   6.248   4.651
 2094TIP3    H2 6226   8.331   6.145   4.721
 2095TIP3   OH2 6227   1.633   6.028   2.480
 2095TIP3    H1 6228   1.668   6.107   2.522
 2095TIP3    H2 6229   1.555   6.058   2.433
 2096TIP3   OH2 6230   7.651   0.891   3.924
 2096TIP3    H1 6231   7.614   0.980   3.927
 2096TIP3    H2 6232   7.731   0.900   3.873
 2097TIP3   OH2 6233   4.154   0.441   1.230
 2097TIP3    H1 6234   4.239   0.403   1.252
 2097TIP3    H2 6235   4.162   0.466   1.137
 2098TIP3   OH2 6236   1.222   7.763   6.210
 2098TIP3    H1 6237   1.160   7.723   6.149
 2098TIP3    H2 6238   1.219   7.708   6.288
 2099TIP3   OH2 6239   3.721   0.371   0.616
 2099TIP3    H1 6240   3.642   0.412   0.579
 2099TIP3    H2 6241   3.708   0.374   0.710
 2100TIP3   OH2 6242   5.832   0.812   4.215
 2100TIP3    H1 6243   5.791   0.874   4.155
 2100TIP3    H2 6244   5.778   0.815   4.294
 2101TIP3   OH2 6245   0.795   3.279   5.388
 2101TIP3    H1 6246   0.764   3.268   5.298
 2101TIP3    H2 6247   0.840   3.363   5.388
 2102TIP3   OH2 6248   2.561   3.239   5.122
 2102TIP3    H1 6249   2.627   3.261   5.056
 2102TIP3    H2 6250   2.506   3.173   5.079
 2103TIP3   OH2 6251   3.521   1.285   3.341
 2103TIP3    H1 6252   3.497   1.282   3.248
 2103TIP3    H2 6253   3.602   1.336   3.343
 2104TIP3   OH2 6254   0.085   2.216   5.243
 2104TIP3    H1 6255   0.099   2.243   5.334
 2104TIP3    H2 6256   0.081   2.121   5.247
 2105TIP3   OH2 6257   7.930   3.156   1.071
 2105TIP3    H1 6258   7.942   3.248   1.092
 2105TIP3    H2 6259   8.013   3.115   1.094
 2106TIP3   OH2 6260   1.727   1.014   3.612
 2106TIP3    H1 6261   1.800   1.029   3.673
 2106TIP3    H2 6262   1.714   0.919   3.614
 2107TIP3   OH2 6263   7.362   3.862   4.199
 2107TIP3    H1 6264   7.404   3.909   4.127
 2107TIP3    H2 6265   7.435   3.833   4.254
 2108TIP3   OH2 6266   3.559   2.829   2.271
 2108TIP3    H1 6267   3.638   2.855   2.224
 2108TIP3    H2 6268   3.489   2.837   2.206
 2109TIP3   OH2 6269   1.888   7.434   0.125
 2109TIP3    H1 6270   1.857   7.492   0.055
 2109TIP3    H2 6271   1.948   7.374   0.082
 2110TIP3   OH2 6272   6.885   5.450   4.329
 2110TIP3    H1 6273   6.867   5.533   4.285
 2110TIP3    H2 6274   6.980   5.442   4.327
 2111TIP3   OH2 6275   0.553   2.324   0.174
 2111TIP3    H1 6276   0.615   2.395   0.162
 2111TIP3    H2 6277   0.490   2.333   0.102
 2112TIP3   OH2 6278   1.157   5.048   5.294
 2112TIP3    H1 6279   1.123   5.087   5.374
 2112TIP3    H2 6280   1.173   4.956   5.316
 2113TIP3   OH2 6281   5.855   5.539   2.165
 2113TIP3    H1 6282   5.760   5.543   2.153
 2113TIP3    H2 6283   5.871   5.452   2.202
 2114TIP3   OH2 6284   7.198   0.412   5.218
 2114TIP3    H1 6285   7.107   0.442   5.215
 2114TIP3    H2 6286   7.201   0.353   5.293
 2115TIP3   OH2 6287   7.518   2.235   4.117
 2115TIP3    H1 6288   7.559   2.160   4.076
 2115TIP3    H2 6289   7.533   2.308   4.056
 2116TIP3   OH2 6290   6.801   5.312   0.329
 2116TIP3    H1 6291   6.835   5.396   0.297
 2116TIP3    H2 6292   6.789   5.325   0.423
 2117TIP3   OH2 6293   3.787   2.671   0.515
 2117TIP3    H1 6294   3.708   2.709   0.555
 2117TIP3    H2 6295   3.755   2.597   0.465
 2118TIP3   OH2 6296   1.214   0.476   0.775
 2118TIP3    H1 6297   1.228   0.554   0.720
 2118TIP3    H2 6298   1.140   0.431   0.734
 2119TIP3   OH2 6299   2.902   0.417   4.343
 2119TIP3    H1 6300   2.990   0.425   4.305
 2119TIP3    H2 6301   2.905   0.474   4.420
 2120TIP3   OH2 6302   2.797   3.190   6.186
 2120TIP3    H1 6303   2.854   3.112   6.189
 2120TIP3    H2 6304   2.855   3.261   6.158
 2121TIP3   OH2 6305   0.274   5.124   6.476
 2121TIP3    H1 6306   0.369   5.126   6.469
 2121TIP3    H2 6307   0.256   5.145   6.568
 2122TIP3   OH2 6308   1.028   6.655   2.962
 2122TIP3    H1 6309   1.055   6.738   2.923
 2122TIP3    H2 6310   1.010   6.676   3.054
 2123TIP3   OH2 6311   4.182   1.642   1.599
 2123TIP3    H1 6312   4.271   1.636   1.565
 2123TIP3    H2 6313   4.142   1.558   1.576
 2124TIP3   OH2 6314   7.163   5.895   5.300
 2124TIP3    H1 6315   7.239   5.927   5.251
 2124TIP3    H2 6316   7.103   5.969   5.304
 2125TIP3   OH2 6317   6.126   2.962   0.745
 2125TIP3    H1 6318   6.056   2.976   0.680
 2125TIP3    H2 6319   6.133   3.047   0.790
 2126TIP3   OH2 6320   8.182   3.023   1.678
 2126TIP3    H1 6321   8.214   3.046   1.590
 2126TIP3    H2 6322   8.238   3.074   1.737
 2127TIP3   OH2 6323   6.109   5.081   1.002
 2127TIP3    H1 6324   6.191   5.111   1.042
 2127TIP3    H2 6325   6.122   4.987   0.991
 2128TIP3   OH2 6326   5.507   0.461   2.165
 2128TIP3    H1 6327   5.513   0.446   2.259
 2128TIP3    H2 6328   5.454   0.541   2.157
 2129TIP3   OH2 6329   6.080   3.915   3.686
 2129TIP3    H1 6330   6.173   3.936   3.691
 2129TIP3    H2 6331   6.038   3.975   3.747
 2130TIP3   OH2 6332   3.578   3.140   4.665
 2130TIP3    H1 6333   3.600   3.109   4.577
 2130TIP3    H2 6334   3.615   3.228   4.669
 2131TIP3   OH2 6335   7.171   5.844   3.243
 2131TIP3    H1 6336   7.105   5.783   3.274
 2131TIP3    H2 6337   7.247   5.789   3.222
 2132TIP3   OH2 6338   3.660   2.930   2.512
 2132TIP3    H1 6339   3.613   2.904   2.433
 2132TIP3    H2 6340   3.709   2.852   2.537
 2133TIP3   OH2 6341   6.482   0.264   5.996
 2133TIP3    H1 6342   6.496   0.349   6.036
 2133TIP3    H2 6343   6.452   0.283   5.908
 2134TIP3   OH2 6344   4.979   6.438   0.032
 2134TIP3    H1 6345   5.022   6.489   0.100
 2134TIP3    H2 6346   4.897   6.484   0.015
 2135TIP3   OH2 6347   7.090   7.616   6.585
 2135TIP3    H1 6348   6.997   7.601   6.569
 2135TIP3    H2 6349   7.115   7.549   6.649
 2136TIP3   OH2 6350   3.782   3.976   3.266
 2136TIP3    H1 6351   3.744   3.983   3.354
 2136TIP3    H2 6352   3.752   3.891   3.234
 2137TIP3   OH2 6353   1.053   3.099   0.413
 2137TIP3    H1 6354   0.980   3.057   0.368
 2137TIP3    H2 6355   1.128   3.042   0.397
 2138TIP3   OH2 6356   2.231   6.989   0.748
 2138TIP3    H1 6357   2.276   7.006   0.665
 2138TIP3    H2 6358   2.273   7.048   0.811
 2139TIP3   OH2 6359   5.388   0.910   5.765
 2139TIP3    H1 6360   5.446   0.942   5.835
 2139TIP3    H2 6361   5.446   0.892   5.692
 2140TIP3   OH2 6362   1.154   7.274   6.375
 2140TIP3    H1 6363   1.155   7.300   6.282
 2140TIP3    H2 6364   1.234   7.223   6.386
 2141TIP3   OH2 6365   1.457   7.322   2.702
 2141TIP3    H1 6366   1.546   7.292   2.687
 2141TIP3    H2 6367   1.457   7.413   2.673
 2142TIP3   OH2 6368   6.583   6.039   0.890
 2142TIP3    H1 6369   6.510   5.979   0.878
 2142TIP3    H2 6370   6.623   6.012   0.973
 2143TIP3   OH2 6371   2.625   5.478   4.930
 2143TIP3    H1 6372   2.534   5.488   4.956
 2143TIP3    H2 6373   2.621   5.457   4.837
 2144TIP3   OH2 6374   5.022   0.403   1.874
 2144TIP3    H1 6375   5.047   0.436   1.961
 2144TIP3    H2 6376   4.933   0.436   1.861
 2145TIP3   OH2 6377   0.358   5.492   0.219
 2145TIP3    H1 6378   0.367   5.521   0.309
 2145TIP3    H2 6379   0.422   5.544   0.170
 2146TIP3   OH2 6380   5.042   6.253   0.684
 2146TIP3    H1 6381   5.073   6.170   0.721
 2146TIP3    H2 6382   4.976   6.228   0.620
 2147TIP3   OH2 6383   5.588   0.911   6.731
 2147TIP3    H1 6384   5.589   0.816   6.716
 2147TIP3    H2 6385   5.501   0.939   6.705
 2148TIP3   OH2 6386   3.029   4.999   6.017
 2148TIP3    H1 6387   3.112   5.044   6.026
 2148TIP3    H2 6388   2.977   5.028   6.092
 2149TIP3   OH2 6389   3.299   1.080   1.672
 2149TIP3    H1 6390   3.300   1.174   1.657
 2149TIP3    H2 6391   3.234   1.067   1.741
 2150TIP3   OH2 6392   7.114   5.405   1.843
 2150TIP3    H1 6393   7.029   5.361   1.842
 2150TIP3    H2 6394   7.135   5.419   1.751
 2151TIP3   OH2 6395   4.875   1.820   4.855
 2151TIP3    H1 6396   4.936   1.836   4.783
 2151TIP3    H2 6397   4.907   1.740   4.897
 2152TIP3   OH2 6398   1.010   0.571   1.168
 2152TIP3    H1 6399   1.088   0.605   1.211
 2152TIP3    H2 6400   0.937   0.607   1.218
 2153TIP3   OH2 6401   4.667   3.562   3.394
 2153TIP3    H1 6402   4.743   3.559   3.335
 2153TIP3    H2 6403   4.662   3.474   3.430
 2154TIP3   OH2 6404   1.230   2.699   5.760
 2154TIP3    H1 6405   1.231   2.764   5.690
 2154TIP3    H2 6406   1.263   2.745   5.836
 2155TIP3   OH2 6407   7.482   1.542   4.001
 2155TIP3    H1 6408   7.527   1.494   3.931
 2155TIP3    H2 6409   7.460   1.626   3.962
 2156TIP3   OH2 6410   1.614   4.222   2.194
 2156TIP3    H1 6411   1.641   4.298   2.141
 2156TIP3    H2 6412   1.572   4.261   2.271
 2157TIP3   OH2 6413   0.966   1.393   0.528
 2157TIP3    H1 6414   1.020   1.333   0.477
 2157TIP3    H2 6415   0.904   1.337   0.574
 2158TIP3   OH2 6416   5.959   1.595   5.380
 2158TIP3    H1 6417   5.887   1.625   5.324
 2158TIP3    H2 6418   5.988   1.675   5.424
 2159TIP3   OH2 6419   6.400   3.743   2.296
 2159TIP3    H1 6420   6.312   3.750   2.261
 2159TIP3    H2 6421   6.457   3.760   2.221
 2160TIP3   OH2 6422   5.083   2.555   2.930
 2160TIP3    H1 6423   5.107   2.642   2.899
 2160TIP3    H2 6424   5.123   2.548   3.017
 2161TIP3   OH2 6425   3.815   1.161   0.459
 2161TIP3    H1 6426   3.908   1.160   0.482
 2161TIP3    H2 6427   3.779   1.083   0.501
 2162TIP3   OH2 6428   4.614   1.464   2.839
 2162TIP3    H1 6429   4.678   1.410   2.793
 2162TIP3    H2 6430   4.532   1.416   2.832
 2163TIP3   OH2 6431   1.983   0.183   3.052
 2163TIP3    H1 6432   1.950   0.203   2.964
 2163TIP3    H2 6433   1.983   0.087   3.056
 2164TIP3   OH2 6434   8.177   1.854   2.748
 2164TIP3    H1 6435   8.116   1.822   2.815
 2164TIP3    H2 6436   8.186   1.780   2.688
 2165TIP3   OH2 6437   3.291   4.482   4.519
 2165TIP3    H1 6438   3.313   4.390   4.503
 2165TIP3    H2 6439   3.274   4.487   4.613
 2166TIP3   OH2 6440   6.757   6.597   1.166
 2166TIP3    H1 6441   6.749   6.502   1.165
 2166TIP3    H2 6442   6.807   6.618   1.088
 2167TIP3   OH2 6443   6.827   3.014   3.878
 2167TIP3    H1 6444   6.855   2.954   3.809
 2167TIP3    H2 6445   6.802   3.094   3.831
 2168TIP3   OH2 6446   4.788   0.466   5.578
 2168TIP3    H1 6447   4.767   0.415   5.656
 2168TIP3    H2 6448   4.881   0.448   5.562
 2169TIP3   OH2 6449   1.325   6.691   2.206
 2169TIP3    H1 6450   1.409   6.738   2.202
 2169TIP3    H2 6451   1.261   6.759   2.226
 2170TIP3   OH2 6452   6.007   1.033   3.856
 2170TIP3    H1 6453   6.052   1.108   3.817
 2170TIP3    H2 6454   5.917   1.063   3.868
 2171TIP3   OH2 6455   2.643   7.401   1.698
 2171TIP3    H1 6456   2.668   7.492   1.682
 2171TIP3    H2 6457   2.677   7.353   1.623
 2172TIP3   OH2 6458   5.431   1.086   6.403
 2172TIP3    H1 6459   5.449   0.993   6.393
 2172TIP3    H2 6460   5.376   1.092   6.481
 2173TIP3   OH2 6461   4.549   5.629   2.007
 2173TIP3    H1 6462   4.593   5.668   2.082
 2173TIP3    H2 6463   4.522   5.704   1.953
 2174TIP3   OH2 6464   3.588   2.204   4.649
 2174TIP3    H1 6465   3.643   2.263   4.700
 2174TIP3    H2 6466   3.647   2.166   4.584
 2175TIP3   OH2 6467   4.239   4.452   5.207
 2175TIP3    H1 6468   4.316   4.487   5.253
 2175TIP3    H2 6469   4.213   4.522   5.148
 2176TIP3   OH2 6470   0.657   3.855   6.243
 2176TIP3    H1 6471   0.722   3.845   6.312
 2176TIP3    H2 6472   0.673   3.943   6.207
 2177TIP3   OH2 6473   2.473   2.791   5.821
 2177TIP3    H1 6474   2.561   2.753   5.814
 2177TIP3    H2 6475   2.486   2.884   5.802
 2178TIP3   OH2 6476   7.041   5.065   1.552
 2178TIP3    H1 6477   6.963   5.041   1.602
 2178TIP3    H2 6478   7.107   5.001   1.577
 2179TIP3   OH2 6479   6.587   6.371   1.758
 2179TIP3    H1 6480   6.504   6.369   1.710
 2179TIP3    H2 6481   6.592   6.459   1.793
 2180TIP3   OH2 6482   1.937   7.326   5.580
 2180TIP3    H1 6483   1.989   7.360   5.507
 2180TIP3    H2 6484   1.939   7.231   5.568
 2181TIP3   OH2 6485   2.690   7.396   3.764
 2181TIP3    H1 6486   2.621   7.347   3.718
 2181TIP3    H2 6487   2.734   7.446   3.694
 2182TIP3   OH2 6488   0.260   6.651   0.785
 2182TIP3    H1 6489   0.339   6.601   0.805
 2182TIP3    H2 6490   0.247   6.707   0.862
 2183TIP3   OH2 6491   2.265   4.848   3.838
 2183TIP3    H1 6492   2.259   4.886   3.926
 2183TIP3    H2 6493   2.208   4.902   3.784
 2184TIP3   OH2 6494   0.307   2.935   5.067
 2184TIP3    H1 6495   0.246   2.951   5.140
 2184TIP3    H2 6496   0.251   2.937   4.989
 2185TIP3   OH2 6497   3.267   5.789   3.906
 2185TIP3    H1 6498   3.268   5.857   3.974
 2185TIP3    H2 6499   3.337   5.729   3.932
 2186TIP3   OH2 6500   7.643   5.836   3.605
 2186TIP3    H1 6501   7.626   5.879   3.689
 2186TIP3    H2 6502   7.560   5.841   3.558
 2187TIP3   OH2 6503   0.715   5.787   3.836
 2187TIP3    H1 6504   0.723   5.826   3.923
 2187TIP3    H2 6505   0.805   5.778   3.805
 2188TIP3   OH2 6506   6.040   4.640   5.881
 2188TIP3    H1 6507   5.975   4.690   5.931
 2188TIP3    H2 6508   6.122   4.687   5.894
 2189TIP3   OH2 6509   2.029   6.444   3.181
 2189TIP3    H1 6510   2.035   6.361   3.228
 2189TIP3    H2 6511   1.956   6.490   3.223
 2190TIP3   OH2 6512   4.106   1.225   4.902
 2190TIP3    H1 6513   4.068   1.223   4.814
 2190TIP3    H2 6514   4.051   1.287   4.950
 2191TIP3   OH2 6515   5.166   6.213   0.360
 2191TIP3    H1 6516   5.116   6.156   0.418
 2191TIP3    H2 6517   5.113   6.218   0.280
 2192TIP3   OH2 6518   5.092   7.248   4.838
 2192TIP3    H1 6519   5.145   7.171   4.818
 2192TIP3    H2 6520   5.007   7.213   4.865
 2193TIP3   OH2 6521   7.767   6.695   0.528
 2193TIP3    H1 6522   7.835   6.717   0.465
 2193TIP3    H2 6523   7.689   6.740   0.496
 2194TIP3   OH2 6524   3.228   6.192   3.302
 2194TIP3    H1 6525   3.246   6.248   3.226
 2194TIP3    H2 6526   3.226   6.253   3.376
 2195TIP3   OH2 6527   2.137   7.690   2.854
 2195TIP3    H1 6528   2.151   7.614   2.911
 2195TIP3    H2 6529   2.165   7.660   2.768
 2196TIP3   OH2 6530   0.682   6.326   2.146
 2196TIP3    H1 6531   0.671   6.363   2.059
 2196TIP3    H2 6532   0.760   6.270   2.139
 2197TIP3   OH2 6533   3.332   1.989   5.470
 2197TIP3    H1 6534   3.302   2.047   5.541
 2197TIP3    H2 6535   3.251   1.953   5.434
 2198TIP3   OH2 6536   1.206   0.487   4.004
 2198TIP3    H1 6537   1.152   0.530   3.939
 2198TIP3    H2 6538   1.151   0.482   4.082
 2199TIP3   OH2 6539   3.847   1.469   4.940
 2199TIP3    H1 6540   3.788   1.432   4.874
 2199TIP3    H2 6541   3.891   1.541   4.895
 2200TIP3   OH2 6542   7.478   0.740   2.812
 2200TIP3    H1 6543   7.408   0.756   2.748
 2200TIP3    H2 6544   7.432   0.733   2.896
 2201TIP3   OH2 6545   6.898   7.364   2.716
 2201TIP3    H1 6546   6.808   7.369   2.683
 2201TIP3    H2 6547   6.939   7.296   2.663
 2202TIP3   OH2 6548   0.790   7.789   5.722
 2202TIP3    H1 6549   0.760   7.858   5.663
 2202TIP3    H2 6550   0.710   7.759   5.765
 2203TIP3   OH2 6551   3.528   2.396   4.399
 2203TIP3    H1 6552   3.434   2.415   4.394
 2203TIP3    H2 6553   3.540   2.359   4.487
 2204TIP3   OH2 6554   0.240   1.141   5.327
 2204TIP3    H1 6555   0.286   1.112   5.405
 2204TIP3    H2 6556   0.148   1.149   5.354
 2205TIP3   OH2 6557   2.888   1.421   5.512
 2205TIP3    H1 6558   2.950   1.494   5.506
 2205TIP3    H2 6559   2.836   1.427   5.432
 2206TIP3   OH2 6560   4.645   3.967   1.269
 2206TIP3    H1 6561   4.584   3.991   1.199
 2206TIP3    H2 6562   4.652   3.871   1.263
 2207TIP3   OH2 6563   1.421   4.632   4.714
 2207TIP3    H1 6564   1.356   4.663   4.651
 2207TIP3    H2 6565   1.373   4.621   4.795
 2208TIP3   OH2 6566   6.703   5.243   1.047
 2208TIP3    H1 6567   6.789   5.263   1.009
 2208TIP3    H2 6568   6.718   5.245   1.142
 2209TIP3   OH2 6569   3.982   5.571   3.189
 2209TIP3    H1 6570   4.025   5.655   3.198
 2209TIP3    H2 6571   3.988   5.530   3.275
 2210TIP3   OH2 6572   3.189   5.256   1.344
 2210TIP3    H1 6573   3.167   5.315   1.271
 2210TIP3    H2 6574   3.245   5.308   1.401
 2211TIP3   OH2 6575   1.594   3.673   5.251
 2211TIP3    H1 6576   1.656   3.614   5.292
 2211TIP3    H2 6577   1.508   3.637   5.272
 2212TIP3   OH2 6578   0.135   6.344   1.579
 2212TIP3    H1 6579   0.138   6.336   1.674
 2212TIP3    H2 6580   0.101   6.433   1.563
 2213TIP3   OH2 6581   1.317   0.397   1.025
 2213TIP3    H1 6582   1.268   0.330   1.072
 2213TIP3    H2 6583   1.262   0.419   0.950
 2214TIP3   OH2 6584   7.563   6.231   5.059
 2214TIP3    H1 6585   7.582   6.324   5.045
 2214TIP3    H2 6586   7.645   6.186   5.040
 2215TIP3   OH2 6587   6.925   6.151   6.220
 2215TIP3    H1 6588   6.968   6.104   6.291
 2215TIP3    H2 6589   6.878   6.083   6.171
 2216TIP3   OH2 6590   8.173   4.532   5.452
 2216TIP3    H1 6591   8.260   4.534   5.410
 2216TIP3    H2 6592   8.124   4.466   5.402
 2217TIP3   OH2 6593   0.828   7.552   1.218
 2217TIP3    H1 6594   0.736   7.545   1.191
 2217TIP3    H2 6595   0.876   7.564   1.136
 2218TIP3   OH2 6596   4.813   0.599   4.851
 2218TIP3    H1 6597   4.756   0.525   4.871
 2218TIP3    H2 6598   4.774   0.639   4.773
 2219TIP3   OH2 6599   1.191   5.084   4.184
 2219TIP3    H1 6600   1.113   5.134   4.158
 2219TIP3    H2 6601   1.227   5.133   4.257
 2220TIP3   OH2 6602   1.775   4.073   6.771
 2220TIP3    H1 6603   1.865   4.066   6.803
 2220TIP3    H2 6604   1.755   3.985   6.739
 2221TIP3   OH2 6605   6.491   0.641   0.503
 2221TIP3    H1 6606   6.428   0.635   0.575
 2221TIP3    H2 6607   6.517   0.733   0.502
 2222TIP3   OH2 6608   0.912   2.522   1.427
 2222TIP3    H1 6609   0.987   2.474   1.392
 2222TIP3    H2 6610   0.939   2.550   1.514
 2223TIP3   OH2 6611   5.042   5.173   0.158
 2223TIP3    H1 6612   5.017   5.252   0.110
 2223TIP3    H2 6613   5.110   5.201   0.218
 2224TIP3   OH2 6614   3.990   2.839   6.031
 2224TIP3    H1 6615   3.963   2.752   6.002
 2224TIP3    H2 6616   4.002   2.830   6.126
 2225TIP3   OH2 6617   6.319   5.246   0.114
 2225TIP3    H1 6618   6.250   5.239   0.180
 2225TIP3    H2 6619   6.305   5.331   0.073
 2226TIP3   OH2 6620   0.507   6.683   0.485
 2226TIP3    H1 6621   0.597   6.715   0.493
 2226TIP3    H2 6622   0.516   6.588   0.485
 2227TIP3   OH2 6623   5.782   2.309   4.678
 2227TIP3    H1 6624   5.823   2.310   4.764
 2227TIP3    H2 6625   5.826   2.380   4.630
 2228TIP3   OH2 6626   5.724   4.421   2.354
 2228TIP3    H1 6627   5.787   4.493   2.347
 2228TIP3    H2 6628   5.774   4.350   2.395
 2229TIP3   OH2 6629   8.205   1.683   1.861
 2229TIP3    H1 6630   8.244   1.770   1.848
 2229TIP3    H2 6631   8.267   1.622   1.820
 2230TIP3   OH2 6632   5.410   1.296   2.278
 2230TIP3    H1 6633   5.387   1.337   2.195
 2230TIP3    H2 6634   5.468   1.224   2.255
 2231TIP3   OH2 6635   3.200   6.616   2.091
 2231TIP3    H1 6636   3.108   6.593   2.104
 2231TIP3    H2 6637   3.200   6.678   2.018
 2232TIP3   OH2 6638   3.829   2.614   5.478
 2232TIP3    H1 6639   3.861   2.683   5.536
 2232TIP3    H2 6640   3.745   2.588   5.515
 2233TIP3   OH2 6641   1.285   7.637   6.481
 2233TIP3    H1 6642   1.192   7.638   6.460
 2233TIP3    H2 6643   1.314   7.549   6.456
 2234TIP3   OH2 6644   4.569   2.097   2.275
 2234TIP3    H1 6645   4.481   2.114   2.310
 2234TIP3    H2 6646   4.557   2.098   2.180
 2235TIP3   OH2 6647   1.036   4.428   5.766
 2235TIP3    H1 6648   0.997   4.514   5.753
 2235TIP3    H2 6649   1.090   4.414   5.689
 2236TIP3   OH2 6650   6.529   5.451   0.901
 2236TIP3    H1 6651   6.522   5.540   0.936
 2236TIP3    H2 6652   6.600   5.411   0.952
 2237TIP3   OH2 6653   7.101   7.142   2.465
 2237TIP3    H1 6654   7.077   7.219   2.413
 2237TIP3    H2 6655   7.024   7.086   2.463
 2238TIP3   OH2 6656   7.215   6.648   5.226
 2238TIP3    H1 6657   7.151   6.582   5.256
 2238TIP3    H2 6658   7.184   6.730   5.264
 2239TIP3   OH2 6659   1.844   5.883   4.245
 2239TIP3    H1 6660   1.865   5.812   4.305
 2239TIP3    H2 6661   1.929   5.917   4.218
 2240TIP3   OH2 6662   5.185   6.792   6.756
 2240TIP3    H1 6663   5.279   6.779   6.769
 2240TIP3    H2 6664   5.176   6.802   6.661
 2241TIP3   OH2 6665   6.407   1.362   5.129
 2241TIP3    H1 6666   6.383   1.415   5.204
 2241TIP3    H2 6667   6.323   1.342   5.087
 2242TIP3   OH2 6668   2.234   6.141   1.129
 2242TIP3    H1 6669   2.290   6.081   1.080
 2242TIP3    H2 6670   2.247   6.117   1.221
 2243TIP3   OH2 6671   6.553   7.046   2.749
 2243TIP3    H1 6672   6.485   6.989   2.784
 2243TIP3    H2 6673   6.532   7.133   2.782
 2244TIP3   OH2 6674   2.498   4.161   1.273
 2244TIP3    H1 6675   2.454   4.102   1.335
 2244TIP3    H2 6676   2.447   4.242   1.277
 2245TIP3   OH2 6677   0.854   6.600   6.616
 2245TIP3    H1 6678   0.900   6.584   6.698
 2245TIP3    H2 6679   0.805   6.681   6.631
 2246TIP3   OH2 6680   3.551   7.594   1.421
 2246TIP3    H1 6681   3.535   7.582   1.515
 2246TIP3    H2 6682   3.641   7.563   1.408
 2247TIP3   OH2 6683   1.405   7.588   4.487
 2247TIP3    H1 6684   1.334   7.596   4.551
 2247TIP3    H2 6685   1.371   7.629   4.408
 2248TIP3   OH2 6686   0.586   6.576   3.101
 2248TIP3    H1 6687   0.658   6.532   3.147
 2248TIP3    H2 6688   0.615   6.580   3.010
 2249TIP3   OH2 6689   3.512   6.629   5.474
 2249TIP3    H1 6690   3.465   6.666   5.549
 2249TIP3    H2 6691   3.448   6.570   5.432
 2250TIP3   OH2 6692   7.331   3.000   4.324
 2250TIP3    H1 6693   7.387   2.951   4.384
 2250TIP3    H2 6694   7.274   2.933   4.285
 2251TIP3   OH2 6695   4.631   7.786   5.735
 2251TIP3    H1 6696   4.663   7.710   5.686
 2251TIP3    H2 6697   4.548   7.757   5.773
 2252TIP3   OH2 6698   4.068   0.736   5.462
 2252TIP3    H1 6699   4.005   0.790   5.510
 2252TIP3    H2 6700   4.050   0.647   5.492
 2253TIP3   OH2 6701   7.551   5.038   1.673
 2253TIP3    H1 6702   7.487   5.109   1.683
 2253TIP3    H2 6703   7.613   5.071   1.607
 2254TIP3   OH2 6704   3.554   3.811   6.485
 2254TIP3    H1 6705   3.516   3.862   6.413
 2254TIP3    H2 6706   3.486   3.748   6.508
 2255TIP3   OH2 6707   7.709   6.924   0.276
 2255TIP3    H1 6708   7.803   6.905   0.280
 2255TIP3    H2 6709   7.676   6.870   0.205
 2256TIP3   OH2 6710   2.462   5.217   3.945
 2256TIP3    H1 6711   2.511   5.135   3.946
 2256TIP3    H2 6712   2.399   5.208   4.017
 2257TIP3   OH2 6713   7.502   2.180   0.626
 2257TIP3    H1 6714   7.541   2.260   0.591
 2257TIP3    H2 6715   7.421   2.208   0.667
 2258TIP3   OH2 6716   7.598   2.124   0.328
 2258TIP3    H1 6717   7.559   2.147   0.244
 2258TIP3    H2 6718   7.613   2.207   0.372
 2259TIP3   OH2 6719   2.186   1.443   4.565
 2259TIP3    H1 6720   2.104   1.396   4.546
 2259TIP3    H2 6721   2.158   1.528   4.597
 2260TIP3   OH2 6722   1.451   6.545   3.988
 2260TIP3    H1 6723   1.472   6.462   3.943
 2260TIP3    H2 6724   1.405   6.596   3.922
 2261TIP3   OH2 6725   2.357   0.401   5.139
 2261TIP3    H1 6726   2.391   0.324   5.094
 2261TIP3    H2 6727   2.294   0.365   5.202
 2262TIP3   OH2 6728   3.022   3.617   2.835
 2262TIP3    H1 6729   2.996   3.587   2.922
 2262TIP3    H2 6730   2.964   3.690   2.816
 2263TIP3   OH2 6731   5.718   1.459   5.241
 2263TIP3    H1 6732   5.766   1.413   5.172
 2263TIP3    H2 6733   5.685   1.538   5.198
 2264TIP3   OH2 6734   3.547   7.509   2.343
 2264TIP3    H1 6735   3.504   7.477   2.263
 2264TIP3    H2 6736   3.489   7.579   2.374
 2265TIP3   OH2 6737   0.662   3.172   4.525
 2265TIP3    H1 6738   0.751   3.173   4.488
 2265TIP3    H2 6739   0.636   3.264   4.529
 2266TIP3   OH2 6740   0.076   6.393   5.674
 2266TIP3    H1 6741   0.065   6.336   5.598
 2266TIP3    H2 6742   0.077   6.333   5.748
 2267TIP3   OH2 6743   2.391   2.053   4.727
 2267TIP3    H1 6744   2.337   2.011   4.794
 2267TIP3    H2 6745   2.439   1.981   4.686
 2268TIP3   OH2 6746   0.087   6.524   4.739
 2268TIP3    H1 6747   0.042   6.478   4.668
 2268TIP3    H2 6748   0.032   6.509   4.816
 2269TIP3   OH2 6749   2.730   6.575   4.192
 2269TIP3    H1 6750   2.822   6.549   4.195
 2269TIP3    H2 6751   2.691   6.518   4.126
 2270TIP3   OH2 6752   6.973   2.267   3.707
 2270TIP3    H1 6753   6.944   2.334   3.769
 2270TIP3    H2 6754   6.892   2.232   3.670
 2271TIP3   OH2 6755   6.353   3.439   3.859
 2271TIP3    H1 6756   6.338   3.479   3.944
 2271TIP3    H2 6757   6.388   3.352   3.879
 2272TIP3   OH2 6758   1.868   7.206   6.007
 2272TIP3    H1 6759   1.912   7.287   6.031
 2272TIP3    H2 6760   1.934   7.156   5.959
 2273TIP3   OH2 6761   4.720   2.942   0.341
 2273TIP3    H1 6762   4.751   3.011   0.282
 2273TIP3    H2 6763   4.628   2.929   0.317
 2274TIP3   OH2 6764   1.127   7.056   5.235
 2274TIP3    H1 6765   1.201   7.014   5.279
 2274TIP3    H2 6766   1.070   7.085   5.306
 2275TIP3   OH2 6767   3.182   3.378   6.347
 2275TIP3    H1 6768   3.120   3.380   6.275
 2275TIP3    H2 6769   3.236   3.300   6.331
 2276TIP3   OH2 6770   8.153   5.052   3.671
 2276TIP3    H1 6771   8.174   5.119   3.606
 2276TIP3    H2 6772   8.171   4.969   3.626
 2277TIP3   OH2 6773   8.049   1.486   5.078
 2277TIP3    H1 6774   8.033   1.500   5.172
 2277TIP3    H2 6775   8.064   1.392   5.070
 2278TIP3   OH2 6776   0.075   1.912   0.741
 2278TIP3    H1 6777   0.163   1.887   0.715
 2278TIP3    H2 6778   0.070   1.891   0.834
 2279TIP3   OH2 6779   4.981   3.192   4.684
 2279TIP3    H1 6780   4.962   3.161   4.772
 2279TIP3    H2 6781   5.029   3.119   4.643
 2280TIP3   OH2 6782   1.150   0.063   2.183
 2280TIP3    H1 6783   1.168   0.156   2.171
 2280TIP3    H2 6784   1.063   0.060   2.222
 2281TIP3   OH2 6785   1.509   3.136   0.229
 2281TIP3    H1 6786   1.446   3.155   0.298
 2281TIP3    H2 6787   1.457   3.133   0.149
 2282TIP3   OH2 6788   0.321   4.404   2.835
 2282TIP3    H1 6789   0.409   4.366   2.843
 2282TIP3    H2 6790   0.307   4.412   2.741
 2283TIP3   OH2 6791   0.425   3.359   3.147
 2283TIP3    H1 6792   0.403   3.433   3.090
 2283TIP3    H2 6793   0.465   3.399   3.224
 2284TIP3   OH2 6794   0.113   2.243   4.479
 2284TIP3    H1 6795   0.132   2.184   4.552
 2284TIP3    H2 6796   0.140   2.329   4.510
 2285TIP3   OH2 6797   0.793   3.076   4.834
 2285TIP3    H1 6798   0.780   3.165   4.866
 2285TIP3    H2 6799   0.853   3.086   4.760
 2286TIP3   OH2 6800   2.935   0.478   5.753
 2286TIP3    H1 6801   3.016   0.524   5.774
 2286TIP3    H2 6802   2.886   0.478   5.834
 2287TIP3   OH2 6803   7.081   1.536   6.615
 2287TIP3    H1 6804   7.158   1.482   6.596
 2287TIP3    H2 6805   7.052   1.506   6.702
 2288TIP3   OH2 6806   7.027   4.667   4.848
 2288TIP3    H1 6807   7.017   4.620   4.931
 2288TIP3    H2 6808   7.012   4.601   4.781
 2289TIP3   OH2 6809   0.194   6.537   0.527
 2289TIP3    H1 6810   0.227   6.581   0.606
 2289TIP3    H2 6811   0.120   6.590   0.498
 2290TIP3   OH2 6812   3.098   1.027   5.384
 2290TIP3    H1 6813   3.129   1.038   5.474
 2290TIP3    H2 6814   3.012   1.069   5.384
 2291TIP3   OH2 6815   4.246   3.017   3.454
 2291TIP3    H1 6816   4.198   3.050   3.379
 2291TIP3    H2 6817   4.317   3.080   3.468
 2292TIP3   OH2 6818   5.093   4.571   1.951
 2292TIP3    H1 6819   5.108   4.507   1.882
 2292TIP3    H2 6820   5.147   4.541   2.024
 2293TIP3   OH2 6821   5.200   2.380   2.738
 2293TIP3    H1 6822   5.239   2.302   2.778
 2293TIP3    H2 6823   5.166   2.430   2.811
 2294TIP3   OH2 6824   7.351   0.440   1.791
 2294TIP3    H1 6825   7.278   0.429   1.851
 2294TIP3    H2 6826   7.427   0.450   1.848
 2295TIP3   OH2 6827   3.380   4.040   1.797
 2295TIP3    H1 6828   3.436   4.109   1.759
 2295TIP3    H2 6829   3.407   3.960   1.751
 2296TIP3   OH2 6830   1.194   2.548   0.636
 2296TIP3    H1 6831   1.273   2.592   0.669
 2296TIP3    H2 6832   1.224   2.493   0.564
 2297TIP3   OH2 6833   6.150   3.720   2.184
 2297TIP3    H1 6834   6.157   3.648   2.121
 2297TIP3    H2 6835   6.139   3.798   2.130
 2298TIP3   OH2 6836   2.203   3.665   2.031
 2298TIP3    H1 6837   2.298   3.672   2.023
 2298TIP3    H2 6838   2.170   3.752   2.010
 2299TIP3   OH2 6839   1.827   1.703   2.931
 2299TIP3    H1 6840   1.919   1.692   2.953
 2299TIP3    H2 6841   1.780   1.690   3.013
 2300TIP3   OH2 6842   4.358   0.506   4.656
 2300TIP3    H1 6843   4.324   0.595   4.660
 2300TIP3    H2 6844   4.382   0.493   4.564
 2301TIP3   OH2 6845   3.126   6.922   6.388
 2301TIP3    H1 6846   3.089   6.862   6.452
 2301TIP3    H2 6847   3.159   6.865   6.318
 2302TIP3   OH2 6848   5.687   5.695   2.754
 2302TIP3    H1 6849   5.664   5.647   2.674
 2302TIP3    H2 6850   5.612   5.752   2.770
 2303TIP3   OH2 6851   4.655   3.813   6.142
 2303TIP3    H1 6852   4.646   3.908   6.142
 2303TIP3    H2 6853   4.596   3.783   6.073
 2304TIP3   OH2 6854   3.920   0.707   1.726
 2304TIP3    H1 6855   3.975   0.728   1.801
 2304TIP3    H2 6856   3.838   0.676   1.763
 2305TIP3   OH2 6857   2.787   2.468   3.215
 2305TIP3    H1 6858   2.815   2.554   3.248
 2305TIP3    H2 6859   2.785   2.412   3.293
 2306TIP3   OH2 6860   6.853   6.509   3.403
 2306TIP3    H1 6861   6.869   6.515   3.309
 2306TIP3    H2 6862   6.941   6.509   3.442
 2307TIP3   OH2 6863   5.905   6.954   4.452
 2307TIP3    H1 6864   5.834   6.963   4.389
 2307TIP3    H2 6865   5.883   6.875   4.502
 2308TIP3   OH2 6866   0.395   4.945   3.972
 2308TIP3    H1 6867   0.362   4.886   4.040
 2308TIP3    H2 6868   0.318   4.971   3.923
 2309TIP3   OH2 6869   3.116   4.314   5.924
 2309TIP3    H1 6870   3.072   4.241   5.880
 2309TIP3    H2 6871   3.049   4.381   5.933
 2310TIP3   OH2 6872   7.898   7.696   3.864
 2310TIP3    H1 6873   7.926   7.625   3.922
 2310TIP3    H2 6874   7.979   7.725   3.821
 2311TIP3   OH2 6875   5.891   4.291   5.229
 2311TIP3    H1 6876   5.968   4.338   5.259
 2311TIP3    H2 6877   5.851   4.349   5.164
 2312TIP3   OH2 6878   5.476   5.649   1.520
 2312TIP3    H1 6879   5.458   5.569   1.570
 2312TIP3    H2 6880   5.519   5.618   1.440
 2313TIP3   OH2 6881   2.208   4.428   0.128
 2313TIP3    H1 6882   2.258   4.509   0.112
 2313TIP3    H2 6883   2.264   4.358   0.095
 2314TIP3   OH2 6884   6.954   0.857   0.066
 2314TIP3    H1 6885   6.977   0.854  -0.027
 2314TIP3    H2 6886   6.863   0.827   0.069
 2315TIP3   OH2 6887   7.597   0.404   3.044
 2315TIP3    H1 6888   7.598   0.311   3.066
 2315TIP3    H2 6889   7.506   0.423   3.024
 2316TIP3   OH2 6890   3.282   1.445   3.959
 2316TIP3    H1 6891   3.346   1.502   4.002
 2316TIP3    H2 6892   3.264   1.377   4.024
 2317TIP3   OH2 6893   6.657   0.031   3.713
 2317TIP3    H1 6894   6.744   0.042   3.675
 2317TIP3    H2 6895   6.673  -0.002   3.801
 2318TIP3   OH2 6896   0.339   5.915   2.287
 2318TIP3    H1 6897   0.393   5.943   2.213
 2318TIP3    H2 6898   0.286   5.992   2.308
 2319TIP3   OH2 6899   8.084   2.833   3.673
 2319TIP3    H1 6900   8.004   2.797   3.635
 2319TIP3    H2 6901   8.079   2.811   3.766
 2320TIP3   OH2 6902   7.010   6.924   0.756
 2320TIP3    H1 6903   7.065   6.926   0.677
 2320TIP3    H2 6904   7.009   7.014   0.786
 2321TIP3   OH2 6905   2.202   1.150   0.361
 2321TIP3    H1 6906   2.140   1.082   0.336
 2321TIP3    H2 6907   2.157   1.198   0.431
 2322TIP3   OH2 6908   8.014   6.385   6.435
 2322TIP3    H1 6909   8.001   6.473   6.471
 2322TIP3    H2 6910   7.976   6.388   6.348
 2323TIP3   OH2 6911   3.881   0.144   5.500
 2323TIP3    H1 6912   3.947   0.190   5.447
 2323TIP3    H2 6913   3.881   0.191   5.583
 2324TIP3   OH2 6914   4.920   6.472   5.778
 2324TIP3    H1 6915   4.842   6.524   5.761
 2324TIP3    H2 6916   4.991   6.537   5.785
 2325TIP3   OH2 6917   1.749   1.360   6.745
 2325TIP3    H1 6918   1.796   1.306   6.809
 2325TIP3    H2 6919   1.819   1.405   6.697
 2326TIP3   OH2 6920   8.085   0.315   4.698
 2326TIP3    H1 6921   8.067   0.301   4.605
 2326TIP3    H2 6922   8.063   0.408   4.712
 2327TIP3   OH2 6923   6.445   6.304   5.349
 2327TIP3    H1 6924   6.504   6.246   5.398
 2327TIP3    H2 6925   6.358   6.284   5.382
 2328TIP3   OH2 6926   0.432   6.838   3.414
 2328TIP3    H1 6927   0.435   6.764   3.474
 2328TIP3    H2 6928   0.492   6.902   3.451
 2329TIP3   OH2 6929   2.077   3.531   4.413
 2329TIP3    H1 6930   2.081   3.549   4.319
 2329TIP3    H2 6931   2.031   3.447   4.419
 2330TIP3   OH2 6932   5.433   3.984   6.429
 2330TIP3    H1 6933   5.464   4.060   6.478
 2330TIP3    H2 6934   5.392   4.021   6.351
 2331TIP3   OH2 6935   6.867   7.160   5.767
 2331TIP3    H1 6936   6.780   7.122   5.752
 2331TIP3    H2 6937   6.858   7.211   5.847
 2332TIP3   OH2 6938   3.548   4.888   4.131
 2332TIP3    H1 6939   3.562   4.973   4.173
 2332TIP3    H2 6940   3.473   4.851   4.178
 2333TIP3   OH2 6941   5.036   3.373   1.204
 2333TIP3    H1 6942   4.945   3.351   1.182
 2333TIP3    H2 6943   5.036   3.468   1.214
 2334TIP3   OH2 6944   7.500   1.437   4.250
 2334TIP3    H1 6945   7.565   1.471   4.310
 2334TIP3    H2 6946   7.529   1.466   4.163
 2335TIP3   OH2 6947   2.422   7.667   1.798
 2335TIP3    H1 6948   2.397   7.752   1.764
 2335TIP3    H2 6949   2.511   7.679   1.832
 2336TIP3   OH2 6950   0.548   2.193   0.739
 2336TIP3    H1 6951   0.640   2.212   0.720
 2336TIP3    H2 6952   0.501   2.217   0.659
 2337TIP3   OH2 6953   0.343   0.044   4.992
 2337TIP3    H1 6954   0.431   0.079   4.977
 2337TIP3    H2 6955   0.294   0.118   5.029
 2338TIP3   OH2 6956   3.218   6.175   0.488
 2338TIP3    H1 6957   3.192   6.092   0.528
 2338TIP3    H2 6958   3.301   6.197   0.530
 2339TIP3   OH2 6959   5.792   4.634   2.616
 2339TIP3    H1 6960   5.806   4.539   2.615
 2339TIP3    H2 6961   5.698   4.644   2.631
 2340TIP3   OH2 6962   7.925   2.835   4.063
 2340TIP3    H1 6963   7.913   2.901   3.995
 2340TIP3    H2 6964   7.970   2.763   4.019
 2341TIP3   OH2 6965   7.228   7.708   5.348
 2341TIP3    H1 6966   7.164   7.657   5.398
 2341TIP3    H2 6967   7.179   7.786   5.321
 2342TIP3   OH2 6968   0.312   2.677   3.737
 2342TIP3    H1 6969   0.307   2.744   3.669
 2342TIP3    H2 6970   0.224   2.674   3.774
 2343TIP3   OH2 6971   2.396   3.261   4.106
 2343TIP3    H1 6972   2.334   3.245   4.177
 2343TIP3    H2 6973   2.412   3.174   4.068
 2344TIP3   OH2 6974   4.298   3.840   2.536
 2344TIP3    H1 6975   4.241   3.916   2.548
 2344TIP3    H2 6976   4.355   3.841   2.613
 2345TIP3   OH2 6977   2.635   0.087   3.161
 2345TIP3    H1 6978   2.556   0.039   3.189
 2345TIP3    H2 6979   2.669   0.125   3.242
 2346TIP3   OH2 6980   7.805   2.579   2.588
 2346TIP3    H1 6981   7.846   2.587   2.674
 2346TIP3    H2 6982   7.713   2.560   2.606
 2347TIP3   OH2 6983   2.359   7.699   1.083
 2347TIP3    H1 6984   2.306   7.777   1.069
 2347TIP3    H2 6985   2.420   7.697   1.009
 2348TIP3   OH2 6986   5.740   4.792   5.289
 2348TIP3    H1 6987   5.660   4.831   5.324
 2348TIP3    H2 6988   5.810   4.853   5.313
 2349TIP3   OH2 6989   3.668   3.628   6.157
 2349TIP3    H1 6990   3.590   3.682   6.171
 2349TIP3    H2 6991   3.740   3.690   6.152
 2350TIP3   OH2 6992   6.553   0.122   6.420
 2350TIP3    H1 6993   6.496   0.067   6.366
 2350TIP3    H2 6994   6.614   0.060   6.461
 2351TIP3   OH2 6995   4.380   4.194   6.625
 2351TIP3    H1 6996   4.435   4.116   6.625
 2351TIP3    H2 6997   4.427   4.257   6.571
 2352TIP3   OH2 6998   3.245   4.930   1.890
 2352TIP3    H1 6999   3.206   5.014   1.865
 2352TIP3    H2 7000   3.205   4.866   1.832
 2353TIP3   OH2 7001   6.022   1.140   2.008
 2353TIP3    H1 7002   6.062   1.217   1.966
 2353TIP3    H2 7003   6.077   1.067   1.979
 2354TIP3   OH2 7004   0.929   3.765   4.788
 2354TIP3    H1 7005   0.888   3.679   4.786
 2354TIP3    H2 7006   0.982   3.765   4.868
 2355TIP3   OH2 7007   2.549   6.209   1.499
 2355TIP3    H1 7008   2.487   6.210   1.572
 2355TIP3    H2 7009   2.635   6.221   1.540
 2356TIP3   OH2 7010   0.070   7.052   6.436
 2356TIP3    H1 7011   0.060   7.147   6.430
 2356TIP3    H2 7012   0.161   7.039   6.462
 2357TIP3   OH2 7013   4.419   7.303   0.772
 2357TIP3    H1 7014   4.386   7.272   0.688
 2357TIP3    H2 7015   4.391   7.236   0.835
 2358TIP3   OH2 7016   7.679   3.628   4.832
 2358TIP3    H1 7017   7.674   3.647   4.739
 2358TIP3    H2 7018   7.595   3.656   4.867
 2359TIP3   OH2 7019   7.965   3.803   3.638
 2359TIP3    H1 7020   8.057   3.829   3.636
 2359TIP3    H2 7021   7.920   3.877   3.680
 2360TIP3   OH2 7022   1.043   1.618   0.311
 2360TIP3    H1 7023   1.099   1.679   0.263
 2360TIP3    H2 7024   1.104   1.569   0.367
 2361TIP3   OH2 7025   2.660   6.326   1.197
 2361TIP3    H1 7026   2.660   6.391   1.126
 2361TIP3    H2 7027   2.576   6.339   1.242
 2362TIP3   OH2 7028   7.663   4.519   3.297
 2362TIP3    H1 7029   7.646   4.461   3.371
 2362TIP3    H2 7030   7.623   4.476   3.222
 2363TIP3   OH2 7031   4.115   4.080   2.535
 2363TIP3    H1 7032   4.118   4.133   2.456
 2363TIP3    H2 7033   4.022   4.063   2.550
 2364TIP3   OH2 7034   8.095   7.454   2.386
 2364TIP3    H1 7035   8.133   7.441   2.299
 2364TIP3    H2 7036   8.118   7.544   2.409
 2365TIP3   OH2 7037   4.906   2.621   4.159
 2365TIP3    H1 7038   4.834   2.629   4.221
 2365TIP3    H2 7039   4.893   2.535   4.118
 2366TIP3   OH2 7040   0.288   1.579   1.240
 2366TIP3    H1 7041   0.294   1.534   1.156
 2366TIP3    H2 7042   0.207   1.547   1.279
 2367TIP3   OH2 7043   3.722   7.497   6.032
 2367TIP3    H1 7044   3.728   7.592   6.039
 2367TIP3    H2 7045   3.663   7.482   5.959
 2368TIP3   OH2 7046   2.749   6.089   6.503
 2368TIP3    H1 7047   2.731   6.168   6.452
 2368TIP3    H2 7048   2.841   6.097   6.528
 2369TIP3   OH2 7049   4.770   4.078   3.334
 2369TIP3    H1 7050   4.692   4.123   3.302
 2369TIP3    H2 7051   4.770   3.994   3.287
 2370TIP3   OH2 7052   5.602   4.164   4.891
 2370TIP3    H1 7053   5.545   4.130   4.960
 2370TIP3    H2 7054   5.649   4.087   4.859
 2371TIP3   OH2 7055   4.044   4.891   4.347
 2371TIP3    H1 7056   4.079   4.972   4.383
 2371TIP3    H2 7057   4.042   4.831   4.422
 2372TIP3   OH2 7058   6.457   0.956   5.802
 2372TIP3    H1 7059   6.440   0.923   5.714
 2372TIP3    H2 7060   6.506   0.886   5.845
 2373TIP3   OH2 7061   5.833   1.013   2.678
 2373TIP3    H1 7062   5.776   1.085   2.705
 2373TIP3    H2 7063   5.799   0.937   2.725
 2374TIP3   OH2 7064   1.014   0.809   5.362
 2374TIP3    H1 7065   1.042   0.808   5.454
 2374TIP3    H2 7066   0.919   0.822   5.366
 2375TIP3   OH2 7067   7.994   7.082   6.609
 2375TIP3    H1 7068   7.998   7.118   6.698
 2375TIP3    H2 7069   8.051   7.138   6.557
 2376TIP3   OH2 7070   7.674   3.494   3.537
 2376TIP3    H1 7071   7.743   3.492   3.470
 2376TIP3    H2 7072   7.706   3.439   3.607
 2377TIP3   OH2 7073   4.439   7.389   5.197
 2377TIP3    H1 7074   4.410   7.307   5.157
 2377TIP3    H2 7075   4.363   7.447   5.191
 2378TIP3   OH2 7076   4.044   0.906   2.207
 2378TIP3    H1 7077   3.978   0.967   2.243
 2378TIP3    H2 7078   4.123   0.959   2.200
 2379TIP3   OH2 7079   3.257   2.668   1.739
 2379TIP3    H1 7080   3.288   2.756   1.759
 2379TIP3    H2 7081   3.231   2.671   1.647
 2380TIP3   OH2 7082   0.454   0.401   4.181
 2380TIP3    H1 7083   0.411   0.322   4.149
 2380TIP3    H2 7084   0.413   0.418   4.266
 2381TIP3   OH2 7085   4.273   2.393   5.470
 2381TIP3    H1 7086   4.186   2.411   5.506
 2381TIP3    H2 7087   4.255   2.348   5.387
 2382TIP3   OH2 7088   4.930   5.373   1.394
 2382TIP3    H1 7089   4.921   5.390   1.488
 2382TIP3    H2 7090   4.857   5.314   1.373
 2383TIP3   OH2 7091   1.690   5.930   5.057
 2383TIP3    H1 7092   1.725   5.973   5.134
 2383TIP3    H2 7093   1.751   5.953   4.987
 2384TIP3   OH2 7094   4.701   7.333   5.826
 2384TIP3    H1 7095   4.764   7.336   5.898
 2384TIP3    H2 7096   4.619   7.364   5.864
 2385TIP3   OH2 7097   3.030   0.030   4.948
 2385TIP3    H1 7098   3.093   0.057   4.881
 2385TIP3    H2 7099   3.075  -0.039   4.997
 2386TIP3   OH2 7100   3.604   1.391   4.486
 2386TIP3    H1 7101   3.597   1.398   4.391
 2386TIP3    H2 7102   3.637   1.477   4.513
 2387TIP3   OH2 7103   1.422   5.186   6.409
 2387TIP3    H1 7104   1.408   5.265   6.461
 2387TIP3    H2 7105   1.425   5.217   6.318
 2388TIP3   OH2 7106   0.593   2.958   4.682
 2388TIP3    H1 7107   0.666   2.975   4.742
 2388TIP3    H2 7108   0.600   3.026   4.615
 2389TIP3   OH2 7109   0.937   5.947   3.993
 2389TIP3    H1 7110   0.894   6.022   3.953
 2389TIP3    H2 7111   0.955   5.975   4.082
 2390TIP3   OH2 7112   5.450   2.982   3.349
 2390TIP3    H1 7113   5.368   2.934   3.336
 2390TIP3    H2 7114   5.499   2.929   3.412
 2391TIP3   OH2 7115   2.283   4.015   2.928
 2391TIP3    H1 7116   2.259   4.093   2.978
 2391TIP3    H2 7117   2.358   3.979   2.976
 2392TIP3   OH2 7118   0.833   6.964   4.312
 2392TIP3    H1 7119   0.825   7.059   4.307
 2392TIP3    H2 7120   0.866   6.947   4.400
 2393TIP3   OH2 7121   2.134   6.785   1.391
 2393TIP3    H1 7122   2.110   6.788   1.484
 2393TIP3    H2 7123   2.076   6.719   1.353
 2394TIP3   OH2 7124   7.212   1.269   3.756
 2394TIP3    H1 7125   7.157   1.207   3.804
 2394TIP3    H2 7126   7.299   1.229   3.755
 2395TIP3   OH2 7127   8.029   0.212   6.253
 2395TIP3    H1 7128   8.092   0.219   6.325
 2395TIP3    H2 7129   8.048   0.286   6.196
 2396TIP3   OH2 7130   3.990   3.723   2.775
 2396TIP3    H1 7131   3.968   3.669   2.699
 2396TIP3    H2 7132   4.069   3.681   2.812
 2397TIP3   OH2 7133   2.314   6.602   5.054
 2397TIP3    H1 7134   2.331   6.574   4.964
 2397TIP3    H2 7135   2.219   6.615   5.059
 2398TIP3   OH2 7136   0.747   3.268   6.327
 2398TIP3    H1 7137   0.724   3.256   6.419
 2398TIP3    H2 7138   0.683   3.216   6.278
 2399TIP3   OH2 7139   8.107   4.119   3.423
 2399TIP3    H1 7140   8.145   4.031   3.428
 2399TIP3    H2 7141   8.145   4.156   3.344
 2400TIP3   OH2 7142   3.106   3.060   6.546
 2400TIP3    H1 7143   3.066   3.085   6.463
 2400TIP3    H2 7144   3.163   3.133   6.567
 2401TIP3   OH2 7145   1.107   7.229   2.122
 2401TIP3    H1 7146   1.166   7.239   2.197
 2401TIP3    H2 7147   1.164   7.236   2.045
 2402TIP3   OH2 7148   0.314   1.360   2.235
 2402TIP3    H1 7149   0.264   1.413   2.297
 2402TIP3    H2 7150   0.402   1.356   2.273
 2403TIP3   OH2 7151   2.626   3.313   5.634
 2403TIP3    H1 7152   2.710   3.345   5.603
 2403TIP3    H2 7153   2.585   3.272   5.558
 2404TIP3   OH2 7154   3.867   3.301   6.390
 2404TIP3    H1 7155   3.804   3.302   6.318
 2404TIP3    H2 7156   3.933   3.237   6.364
 2405TIP3   OH2 7157   5.746   3.454   5.908
 2405TIP3    H1 7158   5.811   3.521   5.887
 2405TIP3    H2 7159   5.688   3.452   5.832
 2406TIP3   OH2 7160   5.814   1.844   1.019
 2406TIP3    H1 7161   5.759   1.894   1.078
 2406TIP3    H2 7162   5.823   1.758   1.060
 2407TIP3   OH2 7163   8.109   2.719   6.392
 2407TIP3    H1 7164   8.160   2.753   6.319
 2407TIP3    H2 7165   8.115   2.624   6.385
 2408TIP3   OH2 7166   7.782   2.084   4.102
 2408TIP3    H1 7167   7.875   2.070   4.118
 2408TIP3    H2 7168   7.779   2.129   4.017
 2409TIP3   OH2 7169   7.659   1.202   4.983
 2409TIP3    H1 7170   7.628   1.281   5.029
 2409TIP3    H2 7171   7.738   1.231   4.937
 2410TIP3   OH2 7172   8.050   1.660   0.600
 2410TIP3    H1 7173   8.038   1.755   0.601
 2410TIP3    H2 7174   7.968   1.625   0.635
 2411TIP3   OH2 7175   6.058   1.262   3.232
 2411TIP3    H1 7176   6.103   1.244   3.314
 2411TIP3    H2 7177   6.027   1.176   3.202
 2412TIP3   OH2 7178   0.703   4.525   6.094
 2412TIP3    H1 7179   0.614   4.504   6.121
 2412TIP3    H2 7180   0.751   4.442   6.102
 2413TIP3   OH2 7181   7.167   3.790   1.336
 2413TIP3    H1 7182   7.177   3.699   1.363
 2413TIP3    H2 7183   7.229   3.839   1.390
 2414TIP3   OH2 7184   6.343   2.286   3.602
 2414TIP3    H1 7185   6.272   2.225   3.581
 2414TIP3    H2 7186   6.315   2.369   3.564
 2415TIP3   OH2 7187   8.121   5.436   4.186
 2415TIP3    H1 7188   8.193   5.495   4.210
 2415TIP3    H2 7189   8.104   5.385   4.266
 2416TIP3   OH2 7190   7.771   2.792   5.865
 2416TIP3    H1 7191   7.766   2.697   5.871
 2416TIP3    H2 7192   7.727   2.824   5.944
 2417TIP3   OH2 7193   3.001   3.119   0.302
 2417TIP3    H1 7194   2.912   3.092   0.325
 2417TIP3    H2 7195   3.050   3.038   0.295
 2418TIP3   OH2 7196   5.670   5.901   0.512
 2418TIP3    H1 7197   5.679   5.837   0.442
 2418TIP3    H2 7198   5.642   5.850   0.588
 2419TIP3   OH2 7199   7.736   7.176   2.168
 2419TIP3    H1 7200   7.826   7.144   2.161
 2419TIP3    H2 7201   7.731   7.213   2.256
 2420TIP3   OH2 7202   6.854   0.048   2.676
 2420TIP3    H1 7203   6.904  -0.033   2.686
 2420TIP3    H2 7204   6.905   0.101   2.614
 2421TIP3   OH2 7205   4.622   6.718   1.147
 2421TIP3    H1 7206   4.629   6.695   1.240
 2421TIP3    H2 7207   4.709   6.698   1.111
 2422TIP3   OH2 7208   1.250   3.767   6.269
 2422TIP3    H1 7209   1.194   3.746   6.194
 2422TIP3    H2 7210   1.306   3.690   6.280
 2423TIP3   OH2 7211   1.409   1.803   2.329
 2423TIP3    H1 7212   1.321   1.772   2.306
 2423TIP3    H2 7213   1.445   1.835   2.246
 2424TIP3   OH2 7214   4.708   3.872   3.124
 2424TIP3    H1 7215   4.782   3.830   3.168
 2424TIP3    H2 7216   4.724   3.858   3.031
 2425TIP3   OH2 7217   0.928   7.103   3.984
 2425TIP3    H1 7218   0.884   7.159   4.048
 2425TIP3    H2 7219   0.971   7.165   3.924
 2426TIP3   OH2 7220   1.732   5.193   1.480
 2426TIP3    H1 7221   1.679   5.137   1.537
 2426TIP3    H2 7222   1.819   5.152   1.479
 2427TIP3   OH2 7223   0.076   1.935   1.177
 2427TIP3    H1 7224   0.132   1.908   1.105
 2427TIP3    H2 7225  -0.005   1.886   1.164
 2428TIP3   OH2 7226   7.136   7.202   3.618
 2428TIP3    H1 7227   7.192   7.186   3.694
 2428TIP3    H2 7228   7.147   7.295   3.599
 2429TIP3   OH2 7229   0.574   4.076   0.419
 2429TIP3    H1 7230   0.486   4.111   0.406
 2429TIP3    H2 7231   0.563   4.007   0.485
 2430TIP3   OH2 7232   8.261   5.556   1.169
 2430TIP3    H1 7233   8.275   5.500   1.245
 2430TIP3    H2 7234   8.302   5.640   1.194
 2431TIP3   OH2 7235   3.655   6.729   6.399
 2431TIP3    H1 7236   3.622   6.819   6.401
 2431TIP3    H2 7237   3.601   6.685   6.334
 2432TIP3   OH2 7238   2.362   1.567   5.203
 2432TIP3    H1 7239   2.426   1.584   5.134
 2432TIP3    H2 7240   2.363   1.646   5.257
 2433TIP3   OH2 7241   6.111   7.350   6.063
 2433TIP3    H1 7242   6.118   7.298   5.983
 2433TIP3    H2 7243   6.128   7.288   6.134
 2434TIP3   OH2 7244   7.395   3.858   0.870
 2434TIP3    H1 7245   7.463   3.848   0.803
 2434TIP3    H2 7246   7.313   3.861   0.821
 2435TIP3   OH2 7247   6.801   2.740   6.783
 2435TIP3    H1 7248   6.793   2.832   6.757
 2435TIP3    H2 7249   6.765   2.691   6.709
 2436TIP3   OH2 7250   7.481   6.652   0.294
 2436TIP3    H1 7251   7.488   6.560   0.268
 2436TIP3    H2 7252   7.481   6.650   0.389
 2437TIP3   OH2 7253   1.004   2.548   5.716
 2437TIP3    H1 7254   1.092   2.587   5.714
 2437TIP3    H2 7255   1.020   2.454   5.730
 2438TIP3   OH2 7256   5.022   1.535   1.932
 2438TIP3    H1 7257   5.069   1.483   1.866
 2438TIP3    H2 7258   4.958   1.474   1.969
 2439TIP3   OH2 7259   0.927   7.064   2.669
 2439TIP3    H1 7260   0.857   7.114   2.710
 2439TIP3    H2 7261   0.892   6.975   2.661
 2440TIP3   OH2 7262   1.560   5.340   0.558
 2440TIP3    H1 7263   1.575   5.266   0.500
 2440TIP3    H2 7264   1.618   5.409   0.525
 2441TIP3   OH2 7265   5.044   1.389   3.258
 2441TIP3    H1 7266   5.016   1.442   3.333
 2441TIP3    H2 7267   5.131   1.358   3.281
 2442TIP3   OH2 7268   2.125   5.447   3.865
 2442TIP3    H1 7269   2.083   5.484   3.787
 2442TIP3    H2 7270   2.076   5.367   3.883
 2443TIP3   OH2 7271   4.819   7.529   3.308
 2443TIP3    H1 7272   4.889   7.536   3.373
 2443TIP3    H2 7273   4.739   7.544   3.358
 2444TIP3   OH2 7274   7.745   1.187   4.180
 2444TIP3    H1 7275   7.809   1.131   4.135
 2444TIP3    H2 7276   7.750   1.271   4.133
 2445TIP3   OH2 7277   6.665   0.319   3.553
 2445TIP3    H1 7278   6.643   0.409   3.531
 2445TIP3    H2 7279   6.663   0.316   3.649
 2446TIP3   OH2 7280   3.544   4.558   1.448
 2446TIP3    H1 7281   3.561   4.532   1.539
 2446TIP3    H2 7282   3.541   4.476   1.400
 2447TIP3   OH2 7283   0.518   7.330   0.839
 2447TIP3    H1 7284   0.422   7.331   0.840
 2447TIP3    H2 7285   0.541   7.371   0.756
 2448TIP3   OH2 7286   6.545   6.806   2.232
 2448TIP3    H1 7287   6.617   6.782   2.174
 2448TIP3    H2 7288   6.499   6.876   2.186
 2449TIP3   OH2 7289   0.140   5.678   1.319
 2449TIP3    H1 7290   0.168   5.636   1.400
 2449TIP3    H2 7291   0.180   5.625   1.249
 2450TIP3   OH2 7292   7.633   6.480   1.514
 2450TIP3    H1 7293   7.665   6.440   1.594
 2450TIP3    H2 7294   7.707   6.532   1.482
 2451TIP3   OH2 7295   5.721   5.294   0.414
 2451TIP3    H1 7296   5.793   5.294   0.477
 2451TIP3    H2 7297   5.743   5.224   0.352
 2452TIP3   OH2 7298   3.431   4.826   2.450
 2452TIP3    H1 7299   3.392   4.891   2.392
 2452TIP3    H2 7300   3.366   4.814   2.519
 2453TIP3   OH2 7301   1.537   6.864   1.970
 2453TIP3    H1 7302   1.491   6.866   1.886
 2453TIP3    H2 7303   1.474   6.901   2.032
 2454TIP3   OH2 7304   2.507   0.585   0.691
 2454TIP3    H1 7305   2.441   0.635   0.738
 2454TIP3    H2 7306   2.536   0.518   0.754
 2455TIP3   OH2 7307   6.873   0.949   1.775
 2455TIP3    H1 7308   6.898   0.960   1.683
 2455TIP3    H2 7309   6.896   0.859   1.796
 2456TIP3   OH2 7310   6.032   1.884   0.588
 2456TIP3    H1 7311   6.127   1.900   0.584
 2456TIP3    H2 7312   6.001   1.943   0.656
 2457TIP3   OH2 7313   6.192   7.496   4.462
 2457TIP3    H1 7314   6.141   7.524   4.537
 2457TIP3    H2 7315   6.130   7.494   4.389
 2458TIP3   OH2 7316   3.965   7.772   2.260
 2458TIP3    H1 7317   3.945   7.715   2.185
 2458TIP3    H2 7318   4.011   7.715   2.321
 2459TIP3   OH2 7319   4.962   6.723   4.089
 2459TIP3    H1 7320   4.921   6.809   4.094
 2459TIP3    H2 7321   4.991   6.715   3.997
 2460TIP3   OH2 7322   5.327   0.067   1.512
 2460TIP3    H1 7323   5.379   0.016   1.574
 2460TIP3    H2 7324   5.388   0.135   1.481
 2461TIP3   OH2 7325   1.378   7.722   4.205
 2461TIP3    H1 7326   1.338   7.804   4.233
 2461TIP3    H2 7327   1.461   7.748   4.164
 2462TIP3   OH2 7328   1.638   6.798   0.050
 2462TIP3    H1 7329   1.633   6.707   0.019
 2462TIP3    H2 7330   1.731   6.810   0.073
 2463TIP3   OH2 7331   0.478   5.148   2.985
 2463TIP3    H1 7332   0.567   5.116   2.970
 2463TIP3    H2 7333   0.439   5.153   2.897
 2464TIP3   OH2 7334   5.979   5.684   1.673
 2464TIP3    H1 7335   5.967   5.658   1.582
 2464TIP3    H2 7336   5.990   5.602   1.721
 2465TIP3   OH2 7337   1.033   3.091   0.114
 2465TIP3    H1 7338   0.959   3.056   0.163
 2465TIP3    H2 7339   1.066   3.163   0.168
 2466TIP3   OH2 7340   2.232   2.701   5.716
 2466TIP3    H1 7341   2.305   2.754   5.751
 2466TIP3    H2 7342   2.240   2.617   5.762
 2467TIP3   OH2 7343   3.429   6.403   0.321
 2467TIP3    H1 7344   3.505   6.454   0.349
 2467TIP3    H2 7345   3.420   6.334   0.386
 2468TIP3   OH2 7346   7.624   1.514   5.914
 2468TIP3    H1 7347   7.642   1.560   5.996
 2468TIP3    H2 7348   7.701   1.530   5.860
 2469TIP3   OH2 7349   3.833   2.296   3.701
 2469TIP3    H1 7350   3.816   2.208   3.666
 2469TIP3    H2 7351   3.898   2.282   3.770
 2470TIP3   OH2 7352   6.089   4.330   0.945
 2470TIP3    H1 7353   5.997   4.346   0.925
 2470TIP3    H2 7354   6.097   4.234   0.948
 2471TIP3   OH2 7355   5.199   4.185   2.037
 2471TIP3    H1 7356   5.253   4.177   1.959
 2471TIP3    H2 7357   5.131   4.118   2.026
 2472TIP3   OH2 7358   0.048   4.704   2.343
 2472TIP3    H1 7359   0.051   4.782   2.398
 2472TIP3    H2 7360   0.060   4.631   2.403
 2473TIP3   OH2 7361   5.154   5.062   1.878
 2473TIP3    H1 7362   5.185   5.109   1.800
 2473TIP3    H2 7363   5.073   5.107   1.902
 2474TIP3   OH2 7364   0.110   7.786   1.836
 2474TIP3    H1 7365   0.074   7.875   1.844
 2474TIP3    H2 7366   0.044   7.730   1.874
 2475TIP3   OH2 7367   7.443   3.362   2.234
 2475TIP3    H1 7368   7.530   3.324   2.226
 2475TIP3    H2 7369   7.453   3.431   2.299
 2476TIP3   OH2 7370   0.168   4.501   0.823
 2476TIP3    H1 7371   0.258   4.478   0.847
 2476TIP3    H2 7372   0.120   4.499   0.905
 2477TIP3   OH2 7373   2.852   2.386   0.360
 2477TIP3    H1 7374   2.910   2.453   0.395
 2477TIP3    H2 7375   2.872   2.383   0.266
 2478TIP3   OH2 7376   7.514   2.151   2.755
 2478TIP3    H1 7377   7.435   2.202   2.773
 2478TIP3    H2 7378   7.568   2.162   2.832
 2479TIP3   OH2 7379   4.206   0.306   6.511
 2479TIP3    H1 7380   4.137   0.355   6.556
 2479TIP3    H2 7381   4.161   0.258   6.442
 2480TIP3   OH2 7382   4.192   3.067   1.428
 2480TIP3    H1 7383   4.174   3.072   1.334
 2480TIP3    H2 7384   4.247   3.143   1.446
 2481TIP3   OH2 7385   3.996   7.678   5.846
 2481TIP3    H1 7386   4.063   7.660   5.780
 2481TIP3    H2 7387   3.994   7.773   5.853
 2482TIP3   OH2 7388   6.825   3.562   5.399
 2482TIP3    H1 7389   6.881   3.582   5.324
 2482TIP3    H2 7390   6.885   3.524   5.463
 2483TIP3   OH2 7391   4.869   2.241   1.013
 2483TIP3    H1 7392   4.930   2.209   0.946
 2483TIP3    H2 7393   4.907   2.212   1.095
 2484TIP3   OH2 7394   3.762   1.940   5.354
 2484TIP3    H1 7395   3.691   1.991   5.315
 2484TIP3    H2 7396   3.758   1.855   5.310
 2485TIP3   OH2 7397   7.291   4.633   3.131
 2485TIP3    H1 7398   7.293   4.540   3.112
 2485TIP3    H2 7399   7.211   4.645   3.183
 2486TIP3   OH2 7400   1.435   2.521   4.085
 2486TIP3    H1 7401   1.501   2.452   4.093
 2486TIP3    H2 7402   1.444   2.572   4.166
 2487TIP3   OH2 7403   6.959   5.711   1.032
 2487TIP3    H1 7404   6.990   5.728   1.121
 2487TIP3    H2 7405   6.867   5.737   1.032
 2488TIP3   OH2 7406   7.995   2.058   1.069
 2488TIP3    H1 7407   7.914   2.037   1.023
 2488TIP3    H2 7408   7.993   2.153   1.080
 2489TIP3   OH2 7409   3.765   0.438   4.854
 2489TIP3    H1 7410   3.826   0.444   4.780
 2489TIP3    H2 7411   3.764   0.345   4.877
 2490TIP3   OH2 7412   2.809   1.398   0.155
 2490TIP3    H1 7413   2.822   1.430   0.066
 2490TIP3    H2 7414   2.736   1.449   0.189
 2491TIP3   OH2 7415   6.434   0.598   4.974
 2491TIP3    H1 7416   6.394   0.684   4.968
 2491TIP3    H2 7417   6.447   0.583   5.068
 2492TIP3   OH2 7418   5.776   5.422   1.823
 2492TIP3    H1 7419   5.847   5.467   1.868
 2492TIP3    H2 7420   5.735   5.489   1.770
 2493TIP3   OH2 7421   4.410   6.187   3.324
 2493TIP3    H1 7422   4.396   6.276   3.357
 2493TIP3    H2 7423   4.495   6.162   3.359
 2494TIP3   OH2 7424   3.728   5.648   6.020
 2494TIP3    H1 7425   3.635   5.634   6.003
 2494TIP3    H2 7426   3.766   5.661   5.933
 2495TIP3   OH2 7427   3.521   4.604   4.428
 2495TIP3    H1 7428   3.521   4.602   4.333
 2495TIP3    H2 7429   3.443   4.554   4.453
 2496TIP3   OH2 7430   0.464   6.143   6.162
 2496TIP3    H1 7431   0.493   6.210   6.100
 2496TIP3    H2 7432   0.518   6.157   6.240
 2497TIP3   OH2 7433   7.628   2.067   6.343
 2497TIP3    H1 7434   7.594   1.984   6.311
 2497TIP3    H2 7435   7.591   2.132   6.283
 2498TIP3   OH2 7436   7.950   5.450   0.369
 2498TIP3    H1 7437   7.945   5.436   0.275
 2498TIP3    H2 7438   8.035   5.492   0.383
 2499TIP3   OH2 7439   7.614   0.614   1.253
 2499TIP3    H1 7440   7.651   0.645   1.335
 2499TIP3    H2 7441   7.684   0.625   1.189
 2500TIP3   OH2 7442   2.145   6.521   0.115
 2500TIP3    H1 7443   2.188   6.537   0.199
 2500TIP3    H2 7444   2.169   6.432   0.092
 2501TIP3   OH2 7445   3.059   7.675   2.340
 2501TIP3    H1 7446   3.053   7.592   2.293
 2501TIP3    H2 7447   2.976   7.681   2.388
 2502TIP3   OH2 7448   3.568   3.168   0.112
 2502TIP3    H1 7449   3.619   3.087   0.105
 2502TIP3    H2 7450   3.634   3.238   0.105
 2503TIP3   OH2 7451   5.050   3.043   4.928
 2503TIP3    H1 7452   5.103   3.022   5.005
 2503TIP3    H2 7453   5.032   2.958   4.888
 2504TIP3   OH2 7454   7.651   5.799   1.271
 2504TIP3    H1 7455   7.561   5.828   1.254
 2504TIP3    H2 7456   7.668   5.827   1.361
 2505TIP3   OH2 7457   3.079   0.677   5.523
 2505TIP3    H1 7458   2.996   0.705   5.563
 2505TIP3    H2 7459   3.084   0.727   5.442
 2506TIP3   OH2 7460   5.113   1.047   4.338
 2506TIP3    H1 7461   5.176   1.102   4.385
 2506TIP3    H2 7462   5.058   1.108   4.289
 2507TIP3   OH2 7463   0.592   1.570   4.661
 2507TIP3    H1 7464   0.606   1.566   4.567
 2507TIP3    H2 7465   0.582   1.478   4.688
 2508TIP3   OH2 7466   5.990   0.658   6.224
 2508TIP3    H1 7467   6.000   0.569   6.258
 2508TIP3    H2 7468   5.967   0.711   6.300
 2509TIP3   OH2 7469   0.364   2.035   3.691
 2509TIP3    H1 7470   0.434   2.073   3.637
 2509TIP3    H2 7471   0.356   1.945   3.660
 2510TIP3   OH2 7472   6.431   6.413   0.290
 2510TIP3    H1 7473   6.445   6.336   0.345
 2510TIP3    H2 7474   6.473   6.392   0.207
 2511TIP3   OH2 7475   7.187   1.230   4.864
 2511TIP3    H1 7476   7.225   1.147   4.893
 2511TIP3    H2 7477   7.231   1.250   4.782
 2512TIP3   OH2 7478   4.421   5.929   5.316
 2512TIP3    H1 7479   4.478   5.967   5.383
 2512TIP3    H2 7480   4.360   5.999   5.293
 2513TIP3   OH2 7481   0.828   3.983   5.289
 2513TIP3    H1 7482   0.917   3.959   5.264
 2513TIP3    H2 7483   0.778   3.981   5.208
 2514TIP3   OH2 7484   5.528   4.315   3.854
 2514TIP3    H1 7485   5.518   4.387   3.792
 2514TIP3    H2 7486   5.618   4.285   3.843
 2515TIP3   OH2 7487   7.996   2.512   3.486
 2515TIP3    H1 7488   8.068   2.450   3.475
 2515TIP3    H2 7489   7.955   2.487   3.569
 2516TIP3   OH2 7490   0.424   3.445   0.660
 2516TIP3    H1 7491   0.515   3.475   0.667
 2516TIP3    H2 7492   0.372   3.520   0.685
 2517TIP3   OH2 7493   5.738   1.971   2.537
 2517TIP3    H1 7494   5.739   1.905   2.467
 2517TIP3    H2 7495   5.830   1.978   2.564
 2518TIP3   OH2 7496   7.451   4.367   0.248
 2518TIP3    H1 7497   7.415   4.455   0.249
 2518TIP3    H2 7498   7.441   4.338   0.157
 2519TIP3   OH2 7499   5.706   5.678   5.161
 2519TIP3    H1 7500   5.655   5.660   5.082
 2519TIP3    H2 7501   5.641   5.681   5.231
 2520TIP3   OH2 7502   4.696   7.790   0.266
 2520TIP3    H1 7503   4.730   7.836   0.343
 2520TIP3    H2 7504   4.644   7.718   0.301
 2521TIP3   OH2 7505   3.136   4.222   4.800
 2521TIP3    H1 7506   3.183   4.241   4.881
 2521TIP3    H2 7507   3.122   4.308   4.759
 2522TIP3   OH2 7508   3.018   5.640   3.915
 2522TIP3    H1 7509   3.077   5.704   3.874
 2522TIP3    H2 7510   2.951   5.693   3.958
 2523TIP3   OH2 7511   1.539   3.395   5.402
 2523TIP3    H1 7512   1.463   3.419   5.350
 2523TIP3    H2 7513   1.553   3.469   5.461
 2524TIP3   OH2 7514   1.820   2.162   5.677
 2524TIP3    H1 7515   1.762   2.188   5.749
 2524TIP3    H2 7516   1.761   2.151   5.602
 2525TIP3   OH2 7517   8.046   1.927   3.206
 2525TIP3    H1 7518   8.099   1.909   3.284
 2525TIP3    H2 7519   7.956   1.912   3.235
 2526TIP3   OH2 7520   4.755   5.477   0.225
 2526TIP3    H1 7521   4.781   5.444   0.139
 2526TIP3    H2 7522   4.820   5.544   0.245
 2527TIP3   OH2 7523   5.877   6.475   6.725
 2527TIP3    H1 7524   5.920   6.461   6.641
 2527TIP3    H2 7525   5.903   6.563   6.751
 2528TIP3   OH2 7526   7.504   4.697   6.050
 2528TIP3    H1 7527   7.581   4.658   6.008
 2528TIP3    H2 7528   7.472   4.761   5.986
 2529TIP3   OH2 7529   5.767   1.054   0.142
 2529TIP3    H1 7530   5.861   1.066   0.123
 2529TIP3    H2 7531   5.725   1.125   0.093
 2530TIP3   OH2 7532   1.417   6.823   6.002
 2530TIP3    H1 7533   1.443   6.770   5.927
 2530TIP3    H2 7534   1.472   6.902   5.996
 2531TIP3   OH2 7535   1.900   0.867   1.139
 2531TIP3    H1 7536   1.947   0.783   1.138
 2531TIP3    H2 7537   1.850   0.866   1.057
 2532TIP3   OH2 7538   1.665   0.958   1.256
 2532TIP3    H1 7539   1.598   0.889   1.249
 2532TIP3    H2 7540   1.740   0.924   1.208
 2533TIP3   OH2 7541   2.554   5.693   2.451
 2533TIP3    H1 7542   2.638   5.651   2.434
 2533TIP3    H2 7543   2.497   5.622   2.481
 2534TIP3   OH2 7544   5.528   2.913   1.966
 2534TIP3    H1 7545   5.606   2.858   1.958
 2534TIP3    H2 7546   5.456   2.855   1.945
 2535TIP3   OH2 7547   5.286   2.467   1.673
 2535TIP3    H1 7548   5.198   2.480   1.636
 2535TIP3    H2 7549   5.343   2.520   1.617
 2536TIP3   OH2 7550   3.919   1.046   2.896
 2536TIP3    H1 7551   3.963   1.076   2.976
 2536TIP3    H2 7552   3.861   0.975   2.926
 2537TIP3   OH2 7553   2.985   0.244   1.077
 2537TIP3    H1 7554   3.002   0.156   1.111
 2537TIP3    H2 7555   2.957   0.294   1.154
 2538TIP3   OH2 7556   2.873   3.377   5.523
 2538TIP3    H1 7557   2.948   3.417   5.568
 2538TIP3    H2 7558   2.902   3.368   5.433
 2539TIP3   OH2 7559   2.349   5.514   2.856
 2539TIP3    H1 7560   2.299   5.590   2.885
 2539TIP3    H2 7561   2.318   5.496   2.768
 2540TIP3   OH2 7562   1.572   2.365   6.339
 2540TIP3    H1 7563   1.563   2.282   6.292
 2540TIP3    H2 7564   1.537   2.346   6.426
 2541TIP3   OH2 7565   1.371   0.922   6.376
 2541TIP3    H1 7566   1.344   0.979   6.449
 2541TIP3    H2 7567   1.388   0.837   6.417
 2542TIP3   OH2 7568   5.196   3.260   0.410
 2542TIP3    H1 7569   5.285   3.296   0.408
 2542TIP3    H2 7570   5.208   3.167   0.395
 2543TIP3   OH2 7571   6.037   6.073   3.867
 2543TIP3    H1 7572   5.959   6.020   3.883
 2543TIP3    H2 7573   6.098   6.013   3.822
 2544TIP3   OH2 7574   4.397   1.970   0.860
 2544TIP3    H1 7575   4.386   2.062   0.883
 2544TIP3    H2 7576   4.374   1.922   0.940
 2545TIP3   OH2 7577   2.333   3.985   0.026
 2545TIP3    H1 7578   2.239   3.988   0.041
 2545TIP3    H2 7579   2.361   4.077   0.032
 2546TIP3   OH2 7580   1.554   0.326   4.801
 2546TIP3    H1 7581   1.583   0.411   4.834
 2546TIP3    H2 7582   1.583   0.325   4.710
 2547TIP3   OH2 7583   7.253   1.990   3.062
 2547TIP3    H1 7584   7.300   2.029   3.136
 2547TIP3    H2 7585   7.261   2.055   2.991
 2548TIP3   OH2 7586   6.213   4.512   3.594
 2548TIP3    H1 7587   6.177   4.431   3.630
 2548TIP3    H2 7588   6.240   4.562   3.671
 2549TIP3   OH2 7589   6.763   4.531   5.497
 2549TIP3    H1 7590   6.713   4.450   5.491
 2549TIP3    H2 7591   6.717   4.592   5.440
 2550TIP3   OH2 7592   2.502   3.059   1.198
 2550TIP3    H1 7593   2.526   2.994   1.264
 2550TIP3    H2 7594   2.583   3.107   1.182
 2551TIP3   OH2 7595   0.953   4.287   2.018
 2551TIP3    H1 7596   0.957   4.199   1.980
 2551TIP3    H2 7597   0.986   4.276   2.107
 2552TIP3   OH2 7598   7.373   6.011   2.367
 2552TIP3    H1 7599   7.322   5.939   2.404
 2552TIP3    H2 7600   7.387   6.071   2.440
 2553TIP3   OH2 7601   2.486   0.987   6.301
 2553TIP3    H1 7602   2.515   0.957   6.387
 2553TIP3    H2 7603   2.567   1.007   6.254
 2554TIP3   OH2 7604   4.226   7.414   2.806
 2554TIP3    H1 7605   4.165   7.394   2.735
 2554TIP3    H2 7606   4.193   7.364   2.881
 2555TIP3   OH2 7607   6.955   6.624   1.397
 2555TIP3    H1 7608   6.945   6.529   1.402
 2555TIP3    H2 7609   6.888   6.652   1.333
 2556TIP3   OH2 7610   0.654   5.772   5.516
 2556TIP3    H1 7611   0.675   5.865   5.509
 2556TIP3    H2 7612   0.569   5.770   5.560
 2557TIP3   OH2 7613   1.303   0.375   3.494
 2557TIP3    H1 7614   1.331   0.387   3.403
 2557TIP3    H2 7615   1.326   0.284   3.514
 2558TIP3   OH2 7616   5.686   3.431   3.714
 2558TIP3    H1 7617   5.676   3.509   3.768
 2558TIP3    H2 7618   5.624   3.368   3.751
 2559TIP3   OH2 7619   7.243   7.255   4.856
 2559TIP3    H1 7620   7.222   7.230   4.946
 2559TIP3    H2 7621   7.188   7.330   4.837
 2560TIP3   OH2 7622   2.992   6.149   4.032
 2560TIP3    H1 7623   3.054   6.116   4.097
 2560TIP3    H2 7624   3.043   6.211   3.979
 2561TIP3   OH2 7625   7.915   2.723   0.016
 2561TIP3    H1 7626   8.001   2.761  -0.001
 2561TIP3    H2 7627   7.922   2.632  -0.013
 2562TIP3   OH2 7628   6.572   4.569   3.538
 2562TIP3    H1 7629   6.527   4.486   3.552
 2562TIP3    H2 7630   6.510   4.636   3.566
 2563TIP3   OH2 7631   1.057   3.411   5.070
 2563TIP3    H1 7632   1.118   3.340   5.089
 2563TIP3    H2 7633   1.039   3.451   5.156
 2564TIP3   OH2 7634   6.545   1.744   1.383
 2564TIP3    H1 7635   6.589   1.764   1.465
 2564TIP3    H2 7636   6.456   1.779   1.394
 2565TIP3   OH2 7637   4.108   3.583   3.921
 2565TIP3    H1 7638   4.054   3.613   3.848
 2565TIP3    H2 7639   4.127   3.662   3.971
 2566TIP3   OH2 7640   7.330   0.741   6.290
 2566TIP3    H1 7641   7.385   0.819   6.280
 2566TIP3    H2 7642   7.244   0.769   6.259
 2567TIP3   OH2 7643   4.375   2.714   4.239
 2567TIP3    H1 7644   4.349   2.634   4.195
 2567TIP3    H2 7645   4.346   2.784   4.182
 2568TIP3   OH2 7646   1.362   1.056   1.746
 2568TIP3    H1 7647   1.309   1.008   1.809
 2568TIP3    H2 7648   1.429   0.994   1.718
 2569TIP3   OH2 7649   8.310   2.288   5.952
 2569TIP3    H1 7650   8.235   2.278   5.893
 2569TIP3    H2 7651   8.323   2.383   5.959
 2570TIP3   OH2 7652   5.108   4.857   4.770
 2570TIP3    H1 7653   5.034   4.801   4.747
 2570TIP3    H2 7654   5.172   4.843   4.701
 2571TIP3   OH2 7655   2.814   7.607   0.084
 2571TIP3    H1 7656   2.862   7.584   0.163
 2571TIP3    H2 7657   2.739   7.658   0.115
 2572TIP3   OH2 7658   3.632   4.833   1.921
 2572TIP3    H1 7659   3.697   4.845   1.990
 2572TIP3    H2 7660   3.558   4.791   1.966
 2573TIP3   OH2 7661   2.945   2.798   6.580
 2573TIP3    H1 7662   2.997   2.878   6.574
 2573TIP3    H2 7663   2.966   2.750   6.500
 2574TIP3   OH2 7664   3.375   0.408   2.048
 2574TIP3    H1 7665   3.426   0.470   2.101
 2574TIP3    H2 7666   3.436   0.337   2.030
 2575TIP3   OH2 7667   3.482   0.209   1.791
 2575TIP3    H1 7668   3.503   0.120   1.818
 2575TIP3    H2 7669   3.386   0.212   1.792
 2576TIP3   OH2 7670   2.052   5.364   3.444
 2576TIP3    H1 7671   2.078   5.389   3.355
 2576TIP3    H2 7672   1.978   5.304   3.431
 2577TIP3   OH2 7673   6.506   1.746   5.937
 2577TIP3    H1 7674   6.492   1.806   5.865
 2577TIP3    H2 7675   6.428   1.691   5.939
 2578TIP3   OH2 7676   2.069   7.346   2.333
 2578TIP3    H1 7677   2.089   7.253   2.321
 2578TIP3    H2 7678   1.978   7.354   2.307
 2579TIP3   OH2 7679   7.255   3.998   1.508
 2579TIP3    H1 7680   7.204   4.074   1.536
 2579TIP3    H2 7681   7.346   4.028   1.512
 2580TIP3   OH2 7682   1.741   0.220   0.506
 2580TIP3    H1 7683   1.692   0.302   0.514
 2580TIP3    H2 7684   1.708   0.180   0.426
 2581TIP3   OH2 7685   2.877   7.321   2.444
 2581TIP3    H1 7686   2.785   7.336   2.423
 2581TIP3    H2 7687   2.898   7.387   2.510
 2582TIP3   OH2 7688   4.542   2.939   4.557
 2582TIP3    H1 7689   4.454   2.969   4.533
 2582TIP3    H2 7690   4.586   2.925   4.473
 2583TIP3   OH2 7691   5.468   0.830   5.119
 2583TIP3    H1 7692   5.454   0.920   5.148
 2583TIP3    H2 7693   5.380   0.799   5.096
 2584TIP3   OH2 7694   1.736   4.810   5.473
 2584TIP3    H1 7695   1.723   4.718   5.496
 2584TIP3    H2 7696   1.831   4.820   5.466
 2585TIP3   OH2 7697   3.439   5.639   5.441
 2585TIP3    H1 7698   3.505   5.672   5.503
 2585TIP3    H2 7699   3.488   5.627   5.359
 2586TIP3   OH2 7700   1.282   5.108   3.600
 2586TIP3    H1 7701   1.303   5.200   3.615
 2586TIP3    H2 7702   1.193   5.097   3.635
 2587TIP3   OH2 7703   4.103   6.649   1.489
 2587TIP3    H1 7704   4.111   6.623   1.581
 2587TIP3    H2 7705   4.133   6.573   1.440
 2588TIP3   OH2 7706   0.322   4.286   3.387
 2588TIP3    H1 7707   0.353   4.323   3.470
 2588TIP3    H2 7708   0.257   4.349   3.356
 2589TIP3   OH2 7709   3.182   2.960   2.170
 2589TIP3    H1 7710   3.238   3.038   2.168
 2589TIP3    H2 7711   3.129   2.967   2.091
 2590TIP3   OH2 7712   8.149   0.417   5.800
 2590TIP3    H1 7713   8.221   0.441   5.858
 2590TIP3    H2 7714   8.088   0.490   5.806
 2591TIP3   OH2 7715   5.159   4.220   4.315
 2591TIP3    H1 7716   5.098   4.149   4.294
 2591TIP3    H2 7717   5.126   4.295   4.266
 2592TIP3   OH2 7718   6.643   1.438   4.067
 2592TIP3    H1 7719   6.622   1.474   4.153
 2592TIP3    H2 7720   6.733   1.404   4.077
 2593TIP3   OH2 7721   5.874   7.785   2.649
 2593TIP3    H1 7722   5.827   7.703   2.667
 2593TIP3    H2 7723   5.806   7.851   2.642
 2594TIP3   OH2 7724   2.525   4.758   0.250
 2594TIP3    H1 7725   2.433   4.772   0.225
 2594TIP3    H2 7726   2.532   4.798   0.337
 2595TIP3   OH2 7727   5.146   0.320   2.317
 2595TIP3    H1 7728   5.144   0.397   2.260
 2595TIP3    H2 7729   5.067   0.329   2.370
 2596TIP3   OH2 7730   5.932   0.367   5.825
 2596TIP3    H1 7731   5.897   0.428   5.760
 2596TIP3    H2 7732   5.871   0.294   5.826
 2597TIP3   OH2 7733   2.788   3.653   3.116
 2597TIP3    H1 7734   2.843   3.714   3.166
 2597TIP3    H2 7735   2.792   3.685   3.026
 2598TIP3   OH2 7736   4.698   1.234   5.965
 2598TIP3    H1 7737   4.768   1.298   5.972
 2598TIP3    H2 7738   4.741   1.150   5.978
 2599TIP3   OH2 7739   0.510   1.569   5.999
 2599TIP3    H1 7740   0.516   1.650   6.050
 2599TIP3    H2 7741   0.428   1.578   5.950
 2600TIP3   OH2 7742   3.638   6.360   0.019
 2600TIP3    H1 7743   3.674   6.414   0.090
 2600TIP3    H2 7744   3.712   6.305  -0.008
 2601TIP3   OH2 7745   0.128   7.397   3.953
 2601TIP3    H1 7746   0.089   7.311   3.939
 2601TIP3    H2 7747   0.127   7.439   3.867
 2602TIP3   OH2 7748   3.921   3.632   1.953
 2602TIP3    H1 7749   4.012   3.659   1.969
 2602TIP3    H2 7750   3.927   3.572   1.878
 2603TIP3   OH2 7751   6.346   6.556   2.558
 2603TIP3    H1 7752   6.291   6.605   2.497
 2603TIP3    H2 7753   6.416   6.520   2.503
 2604TIP3   OH2 7754   6.854   3.488   4.606
 2604TIP3    H1 7755   6.912   3.467   4.679
 2604TIP3    H2 7756   6.887   3.572   4.573
 2605TIP3   OH2 7757   0.476   7.151   1.107
 2605TIP3    H1 7758   0.512   7.196   1.183
 2605TIP3    H2 7759   0.551   7.109   1.066
 2606TIP3   OH2 7760   4.555   2.849   0.561
 2606TIP3    H1 7761   4.558   2.937   0.599
 2606TIP3    H2 7762   4.627   2.847   0.498
 2607TIP3   OH2 7763   1.389   1.742   1.442
 2607TIP3    H1 7764   1.310   1.756   1.389
 2607TIP3    H2 7765   1.436   1.672   1.397
 2608TIP3   OH2 7766   5.883   3.783   2.838
 2608TIP3    H1 7767   5.846   3.746   2.757
 2608TIP3    H2 7768   5.829   3.861   2.854
 2609TIP3   OH2 7769   2.159   6.380   2.556
 2609TIP3    H1 7770   2.132   6.298   2.515
 2609TIP3    H2 7771   2.175   6.356   2.648
 2610TIP3   OH2 7772   5.483   0.766   0.026
 2610TIP3    H1 7773   5.573   0.780   0.057
 2610TIP3    H2 7774   5.487   0.682  -0.019
 2611TIP3   OH2 7775   3.743   5.288   4.452
 2611TIP3    H1 7776   3.772   5.361   4.507
 2611TIP3    H2 7777   3.802   5.290   4.377
 2612TIP3   OH2 7778   0.196   0.290   6.494
 2612TIP3    H1 7779   0.158   0.367   6.535
 2612TIP3    H2 7780   0.269   0.324   6.442
 2613TIP3   OH2 7781   2.163   2.997   3.910
 2613TIP3    H1 7782   2.252   2.965   3.895
 2613TIP3    H2 7783   2.151   3.065   3.844
 2614TIP3   OH2 7784   7.837   4.958   2.589
 2614TIP3    H1 7785   7.903   5.026   2.602
 2614TIP3    H2 7786   7.797   4.947   2.675
 2615TIP3   OH2 7787   3.315   0.329   2.898
 2615TIP3    H1 7788   3.249   0.266   2.871
 2615TIP3    H2 7789   3.392   0.308   2.844
 2616TIP3   OH2 7790   7.656   4.917   4.065
 2616TIP3    H1 7791   7.731   4.860   4.077
 2616TIP3    H2 7792   7.590   4.862   4.023
 2617TIP3   OH2 7793   1.038   3.882   0.366
 2617TIP3    H1 7794   0.951   3.847   0.347
 2617TIP3    H2 7795   1.049   3.956   0.306
 2618TIP3   OH2 7796   5.013   3.947   1.475
 2618TIP3    H1 7797   4.999   3.925   1.383
 2618TIP3    H2 7798   4.967   3.878   1.524
 2619TIP3   OH2 7799   0.590   0.905   1.375
 2619TIP3    H1 7800   0.623   0.947   1.454
 2619TIP3    H2 7801   0.646   0.827   1.364
 2620TIP3   OH2 7802   1.819   7.616   5.011
 2620TIP3    H1 7803   1.853   7.544   4.958
 2620TIP3    H2 7804   1.886   7.684   5.005
 2621TIP3   OH2 7805   7.416   0.224   2.272
 2621TIP3    H1 7806   7.496   0.201   2.320
 2621TIP3    H2 7807   7.433   0.195   2.183
 2622TIP3   OH2 7808   0.919   2.742   1.264
 2622TIP3    H1 7809   0.908   2.654   1.298
 2622TIP3    H2 7810   0.881   2.799   1.331
 2623TIP3   OH2 7811   5.911   2.219   3.448
 2623TIP3    H1 7812   5.870   2.305   3.435
 2623TIP3    H2 7813   5.849   2.171   3.503
 2624TIP3   OH2 7814   2.502   5.946   5.984
 2624TIP3    H1 7815   2.453   5.945   6.067
 2624TIP3    H2 7816   2.435   5.938   5.916
 2625TIP3   OH2 7817   4.191   1.192   6.707
 2625TIP3    H1 7818   4.179   1.217   6.799
 2625TIP3    H2 7819   4.278   1.226   6.684
 2626TIP3   OH2 7820   3.914   1.463   2.592
 2626TIP3    H1 7821   3.999   1.451   2.551
 2626TIP3    H2 7822   3.933   1.507   2.674
 2627TIP3   OH2 7823   7.388   0.270   6.451
 2627TIP3    H1 7824   7.313   0.212   6.465
 2627TIP3    H2 7825   7.349   0.357   6.441
 2628TIP3   OH2 7826   5.883   3.190   2.724
 2628TIP3    H1 7827   5.791   3.188   2.749
 2628TIP3    H2 7828   5.897   3.276   2.685
 2629TIP3   OH2 7829   0.748   2.912   2.754
 2629TIP3    H1 7830   0.817   2.906   2.820
 2629TIP3    H2 7831   0.794   2.904   2.670
 2630TIP3   OH2 7832   3.658   6.144   0.423
 2630TIP3    H1 7833   3.718   6.215   0.445
 2630TIP3    H2 7834   3.661   6.137   0.328
 2631TIP3   OH2 7835   3.757   4.620   2.121
 2631TIP3    H1 7836   3.817   4.551   2.094
 2631TIP3    H2 7837   3.799   4.661   2.196
 2632TIP3   OH2 7838   7.202   3.314   0.070
 2632TIP3    H1 7839   7.111   3.285   0.073
 2632TIP3    H2 7840   7.209   3.364  -0.012
 2633TIP3   OH2 7841   1.662   6.355   1.847
 2633TIP3    H1 7842   1.738   6.369   1.903
 2633TIP3    H2 7843   1.687   6.396   1.764
 2634TIP3   OH2 7844   5.320   1.818   5.912
 2634TIP3    H1 7845   5.296   1.882   5.979
 2634TIP3    H2 7846   5.393   1.858   5.865
 2635TIP3   OH2 7847   7.316   1.038   6.476
 2635TIP3    H1 7848   7.353   1.020   6.389
 2635TIP3    H2 7849   7.376   0.995   6.537
 2636TIP3   OH2 7850   2.009   1.783   5.090
 2636TIP3    H1 7851   1.930   1.794   5.142
 2636TIP3    H2 7852   2.079   1.822   5.143
 2637TIP3   OH2 7853   7.302   0.339   4.581
 2637TIP3    H1 7854   7.251   0.324   4.501
 2637TIP3    H2 7855   7.268   0.274   4.643
 2638TIP3   OH2 7856   0.059   3.822   3.153
 2638TIP3    H1 7857  -0.008   3.789   3.093
 2638TIP3    H2 7858   0.009   3.852   3.229
 2639TIP3   OH2 7859   3.340   0.212   6.402
 2639TIP3    H1 7860   3.422   0.229   6.448
 2639TIP3    H2 7861   3.346   0.120   6.376
 2640TIP3   OH2 7862   5.800   2.395   1.507
 2640TIP3    H1 7863   5.848   2.389   1.590
 2640TIP3    H2 7864   5.777   2.487   1.498
 2641TIP3   OH2 7865   2.898   2.842   3.889
 2641TIP3    H1 7866   2.969   2.819   3.828
 2641TIP3    H2 7867   2.827   2.873   3.832
 2642TIP3   OH2 7868   2.214   7.028   2.621
 2642TIP3    H1 7869   2.131   6.995   2.657
 2642TIP3    H2 7870   2.278   6.962   2.645
 2643TIP3   OH2 7871   0.447   6.431   6.606
 2643TIP3    H1 7872   0.379   6.470   6.661
 2643TIP3    H2 7873   0.469   6.498   6.542
 2644TIP3   OH2 7874   0.554   3.806   1.316
 2644TIP3    H1 7875   0.549   3.716   1.347
 2644TIP3    H2 7876   0.469   3.844   1.337
 2645TIP3   OH2 7877   7.029   6.575   0.186
 2645TIP3    H1 7878   7.073   6.639   0.242
 2645TIP3    H2 7879   6.949   6.552   0.233
 2646TIP3   OH2 7880   1.710   4.464   3.099
 2646TIP3    H1 7881   1.704   4.531   3.167
 2646TIP3    H2 7882   1.624   4.466   3.056
 2647TIP3   OH2 7883   0.501   0.643   0.175
 2647TIP3    H1 7884   0.417   0.623   0.218
 2647TIP3    H2 7885   0.547   0.699   0.238
 2648TIP3   OH2 7886   1.262   7.641   2.206
 2648TIP3    H1 7887   1.274   7.668   2.115
 2648TIP3    H2 7888   1.198   7.703   2.242
 2649TIP3   OH2 7889   5.410   0.672   3.607
 2649TIP3    H1 7890   5.484   0.693   3.551
 2649TIP3    H2 7891   5.447   0.619   3.677
 2650TIP3   OH2 7892   8.125   2.325   4.069
 2650TIP3    H1 7893   8.045   2.375   4.087
 2650TIP3    H2 7894   8.193   2.391   4.056
 2651TIP3   OH2 7895   0.853   1.295   4.760
 2651TIP3    H1 7896   0.826   1.384   4.737
 2651TIP3    H2 7897   0.892   1.304   4.847
 2652TIP3   OH2 7898   4.537   2.706   6.206
 2652TIP3    H1 7899   4.483   2.642   6.160
 2652TIP3    H2 7900   4.609   2.725   6.146
 2653TIP3   OH2 7901   0.284   4.072   4.782
 2653TIP3    H1 7902   0.331   4.071   4.698
 2653TIP3    H2 7903   0.340   4.121   4.841
 2654TIP3   OH2 7904   4.975   2.268   2.573
 2654TIP3    H1 7905   5.045   2.306   2.627
 2654TIP3    H2 7906   4.982   2.313   2.489
 2655TIP3   OH2 7907   3.398   4.004   1.221
 2655TIP3    H1 7908   3.432   3.939   1.159
 2655TIP3    H2 7909   3.352   4.068   1.166
 2656TIP3   OH2 7910   2.390   0.414   3.879
 2656TIP3    H1 7911   2.323   0.447   3.940
 2656TIP3    H2 7912   2.371   0.458   3.796
 2657TIP3   OH2 7913   0.214   6.686   6.383
 2657TIP3    H1 7914   0.244   6.710   6.471
 2657TIP3    H2 7915   0.126   6.650   6.397
 2658TIP3   OH2 7916   2.577   0.482   1.778
 2658TIP3    H1 7917   2.647   0.516   1.723
 2658TIP3    H2 7918   2.512   0.553   1.780
 2659TIP3   OH2 7919   3.155   5.699   5.537
 2659TIP3    H1 7920   3.233   5.674   5.586
 2659TIP3    H2 7921   3.113   5.616   5.515
 2660TIP3   OH2 7922   3.344   5.427   6.245
 2660TIP3    H1 7923   3.398   5.495   6.205
 2660TIP3    H2 7924   3.400   5.349   6.245
 2661TIP3   OH2 7925   5.943   7.336   1.621
 2661TIP3    H1 7926   5.866   7.300   1.576
 2661TIP3    H2 7927   5.998   7.260   1.639
 2662TIP3   OH2 7928   3.026   6.563   5.372
 2662TIP3    H1 7929   3.040   6.646   5.417
 2662TIP3    H2 7930   3.089   6.503   5.413
 2663TIP3   OH2 7931   5.360   0.043   5.014
 2663TIP3    H1 7932   5.265   0.051   5.028
 2663TIP3    H2 7933   5.382  -0.043   5.051
 2664TIP3   OH2 7934   6.653   2.311   3.315
 2664TIP3    H1 7935   6.605   2.290   3.395
 2664TIP3    H2 7936   6.639   2.237   3.257
 2665TIP3   OH2 7937   0.058   0.415   4.167
 2665TIP3    H1 7938  -0.023   0.364   4.160
 2665TIP3    H2 7939   0.100   0.405   4.081
 2666TIP3   OH2 7940   1.536   6.019   0.475
 2666TIP3    H1 7941   1.507   6.109   0.493
 2666TIP3    H2 7942   1.540   5.977   0.560
 2667TIP3   OH2 7943   6.503   4.519   1.241
 2667TIP3    H1 7944   6.515   4.424   1.236
 2667TIP3    H2 7945   6.409   4.532   1.228
 2668TIP3   OH2 7946   1.718   7.261   2.707
 2668TIP3    H1 7947   1.799   7.302   2.676
 2668TIP3    H2 7948   1.746   7.204   2.779
 2669TIP3   OH2 7949   6.546   3.879   1.748
 2669TIP3    H1 7950   6.638   3.866   1.772
 2669TIP3    H2 7951   6.526   3.806   1.690
 2670TIP3   OH2 7952   1.122   6.833   6.423
 2670TIP3    H1 7953   1.173   6.888   6.364
 2670TIP3    H2 7954   1.079   6.769   6.366
 2671TIP3   OH2 7955   1.824   7.111   6.504
 2671TIP3    H1 7956   1.908   7.114   6.551
 2671TIP3    H2 7957   1.787   7.198   6.517
 2672TIP3   OH2 7958   5.984   6.162   2.714
 2672TIP3    H1 7959   6.034   6.180   2.634
 2672TIP3    H2 7960   5.947   6.074   2.699
 2673TIP3   OH2 7961   4.826   1.463   2.312
 2673TIP3    H1 7962   4.816   1.368   2.303
 2673TIP3    H2 7963   4.871   1.491   2.233
 2674TIP3   OH2 7964   4.578   1.896   3.646
 2674TIP3    H1 7965   4.535   1.912   3.563
 2674TIP3    H2 7966   4.521   1.834   3.691
 2675TIP3   OH2 7967   2.183   7.256   4.509
 2675TIP3    H1 7968   2.120   7.213   4.567
 2675TIP3    H2 7969   2.181   7.348   4.534
 2676TIP3   OH2 7970   3.639   5.157   6.597
 2676TIP3    H1 7971   3.714   5.212   6.575
 2676TIP3    H2 7972   3.602   5.197   6.676
 2677TIP3   OH2 7973   6.009   2.832   1.531
 2677TIP3    H1 7974   6.047   2.854   1.616
 2677TIP3    H2 7975   5.965   2.913   1.504
 2678TIP3   OH2 7976   1.832   6.765   0.512
 2678TIP3    H1 7977   1.816   6.702   0.443
 2678TIP3    H2 7978   1.797   6.848   0.478
 2679TIP3   OH2 7979   0.881   5.728   3.558
 2679TIP3    H1 7980   0.801   5.769   3.593
 2679TIP3    H2 7981   0.945   5.799   3.557
 2680TIP3   OH2 7982   3.105   0.616   1.221
 2680TIP3    H1 7983   3.105   0.668   1.140
 2680TIP3    H2 7984   3.019   0.574   1.222
 2681TIP3   OH2 7985   1.918   6.942   5.462
 2681TIP3    H1 7986   1.975   6.963   5.388
 2681TIP3    H2 7987   1.834   6.918   5.421
 2682TIP3   OH2 7988   2.561   1.280   6.456
 2682TIP3    H1 7989   2.487   1.242   6.503
 2682TIP3    H2 7990   2.597   1.345   6.516
 2683TIP3   OH2 7991   6.660   1.556   1.556
 2683TIP3    H1 7992   6.639   1.638   1.601
 2683TIP3    H2 7993   6.689   1.583   1.469
 2684TIP3   OH2 7994   2.508   1.038   4.417
 2684TIP3    H1 7995   2.526   1.023   4.510
 2684TIP3    H2 7996   2.593   1.057   4.379
 2685TIP3   OH2 7997   8.231   4.705   2.702
 2685TIP3    H1 7998   8.238   4.612   2.724
 2685TIP3    H2 7999   8.144   4.715   2.665
 2686TIP3   OH2 8000   0.931   5.447   4.429
 2686TIP3    H1 8001   0.972   5.514   4.484
 2686TIP3    H2 8002   0.957   5.364   4.468
 2687TIP3   OH2 8003   7.613   2.871   3.244
 2687TIP3    H1 8004   7.585   2.860   3.153
 2687TIP3    H2 8005   7.671   2.797   3.260
 2688TIP3   OH2 8006   7.108   6.051   3.072
 2688TIP3    H1 8007   7.128   5.977   3.130
 2688TIP3    H2 8008   7.025   6.085   3.104
 2689TIP3   OH2 8009   3.481   7.168   5.915
 2689TIP3    H1 8010   3.469   7.187   6.008
 2689TIP3    H2 8011   3.487   7.073   5.910
 2690TIP3   OH2 8012   4.968   3.464   2.401
 2690TIP3    H1 8013   5.025   3.388   2.394
 2690TIP3    H2 8014   4.880   3.428   2.407
 2691TIP3   OH2 8015   3.574   1.764   5.894
 2691TIP3    H1 8016   3.568   1.673   5.925
 2691TIP3    H2 8017   3.493   1.805   5.924
 2692TIP3   OH2 8018   2.143   4.189   0.952
 2692TIP3    H1 8019   2.220   4.139   0.928
 2692TIP3    H2 8020   2.077   4.124   0.975
 2693TIP3   OH2 8021   0.249   7.005   2.557
 2693TIP3    H1 8022   0.323   7.047   2.513
 2693TIP3    H2 8023   0.261   7.025   2.649
 2694TIP3   OH2 8024   1.882   1.320   2.848
 2694TIP3    H1 8025   1.965   1.333   2.802
 2694TIP3    H2 8026   1.829   1.396   2.824
 2695TIP3   OH2 8027   4.050   2.769   2.352
 2695TIP3    H1 8028   4.144   2.764   2.339
 2695TIP3    H2 8029   4.038   2.845   2.410
 2696TIP3   OH2 8030   3.414   5.850   3.090
 2696TIP3    H1 8031   3.441   5.938   3.061
 2696TIP3    H2 8032   3.494   5.811   3.124
 2697TIP3   OH2 8033   4.509   4.262   0.331
 2697TIP3    H1 8034   4.541   4.321   0.262
 2697TIP3    H2 8035   4.519   4.174   0.293
 2698TIP3   OH2 8036   7.584   5.726   2.328
 2698TIP3    H1 8037   7.599   5.675   2.249
 2698TIP3    H2 8038   7.662   5.780   2.337
 2699TIP3   OH2 8039   2.645   7.561   1.958
 2699TIP3    H1 8040   2.658   7.487   2.017
 2699TIP3    H2 8041   2.565   7.540   1.910
 2700TIP3   OH2 8042   1.096   4.157   0.947
 2700TIP3    H1 8043   1.058   4.227   0.894
 2700TIP3    H2 8044   1.091   4.190   1.037
 2701TIP3   OH2 8045   3.871   7.662   1.987
 2701TIP3    H1 8046   3.844   7.694   1.901
 2701TIP3    H2 8047   3.790   7.651   2.036
 2702TIP3   OH2 8048   7.486   7.310   3.351
 2702TIP3    H1 8049   7.420   7.241   3.345
 2702TIP3    H2 8050   7.564   7.265   3.382
 2703TIP3   OH2 8051   7.648   3.417   0.978
 2703TIP3    H1 8052   7.692   3.500   0.961
 2703TIP3    H2 8053   7.656   3.368   0.895
 2704TIP3   OH2 8054   0.417   3.002   5.411
 2704TIP3    H1 8055   0.487   3.018   5.474
 2704TIP3    H2 8056   0.414   3.081   5.357
 2705TIP3   OH2 8057   0.765   3.961   1.413
 2705TIP3    H1 8058   0.745   3.873   1.380
 2705TIP3    H2 8059   0.686   3.988   1.459
 2706TIP3   OH2 8060   4.186   6.357   5.333
 2706TIP3    H1 8061   4.232   6.392   5.409
 2706TIP3    H2 8062   4.124   6.426   5.309
 2707TIP3   OH2 8063   5.590   4.693   4.658
 2707TIP3    H1 8064   5.585   4.653   4.571
 2707TIP3    H2 8065   5.598   4.618   4.718
 2708TIP3   OH2 8066   4.154   4.987   6.176
 2708TIP3    H1 8067   4.169   5.054   6.109
 2708TIP3    H2 8068   4.142   4.906   6.126
 2709TIP3   OH2 8069   3.054   3.904   2.333
 2709TIP3    H1 8070   3.019   3.977   2.283
 2709TIP3    H2 8071   3.133   3.878   2.287
 2710TIP3   OH2 8072   1.185   2.977   3.276
 2710TIP3    H1 8073   1.227   3.050   3.324
 2710TIP3    H2 8074   1.183   3.007   3.185
 2711TIP3   OH2 8075   6.495   5.060   2.209
 2711TIP3    H1 8076   6.477   5.118   2.283
 2711TIP3    H2 8077   6.569   5.007   2.238
 2712TIP3   OH2 8078   1.658   0.842   4.638
 2712TIP3    H1 8079   1.729   0.869   4.581
 2712TIP3    H2 8080   1.609   0.923   4.657
 2713TIP3   OH2 8081   3.253   3.847   1.553
 2713TIP3    H1 8082   3.263   3.756   1.526
 2713TIP3    H2 8083   3.209   3.842   1.638
 2714TIP3   OH2 8084   2.051   6.206   4.061
 2714TIP3    H1 8085   1.985   6.247   4.006
 2714TIP3    H2 8086   2.133   6.220   4.014
 2715TIP3   OH2 8087   4.210   5.641   1.312
 2715TIP3    H1 8088   4.156   5.705   1.265
 2715TIP3    H2 8089   4.201   5.666   1.404
 2716TIP3   OH2 8090   7.422   1.692   5.390
 2716TIP3    H1 8091   7.383   1.605   5.385
 2716TIP3    H2 8092   7.360   1.743   5.441
 2717TIP3   OH2 8093   1.950   7.811   1.877
 2717TIP3    H1 8094   2.026   7.866   1.858
 2717TIP3    H2 8095   1.980   7.721   1.860
 2718TIP3   OH2 8096   5.821   6.863   0.352
 2718TIP3    H1 8097   5.878   6.878   0.277
 2718TIP3    H2 8098   5.738   6.832   0.314
 2719TIP3   OH2 8099   8.283   6.878   2.489
 2719TIP3    H1 8100   8.305   6.847   2.402
 2719TIP3    H2 8101   8.238   6.803   2.530
 2720TIP3   OH2 8102   1.616   4.807   0.835
 2720TIP3    H1 8103   1.638   4.845   0.920
 2720TIP3    H2 8104   1.588   4.881   0.782
 2721TIP3   OH2 8105   2.236   3.476   4.738
 2721TIP3    H1 8106   2.197   3.424   4.667
 2721TIP3    H2 8107   2.238   3.566   4.704
 2722TIP3   OH2 8108   7.801   3.534   6.381
 2722TIP3    H1 8109   7.776   3.614   6.426
 2722TIP3    H2 8110   7.833   3.563   6.295
 2723TIP3   OH2 8111   8.284   2.550   2.277
 2723TIP3    H1 8112   8.334   2.469   2.264
 2723TIP3    H2 8113   8.198   2.520   2.306
 2724TIP3   OH2 8114   4.884   2.877   5.829
 2724TIP3    H1 8115   4.891   2.965   5.867
 2724TIP3    H2 8116   4.970   2.861   5.791
 2725TIP3   OH2 8117   7.704   6.887   0.782
 2725TIP3    H1 8118   7.696   6.792   0.791
 2725TIP3    H2 8119   7.625   6.913   0.734
 2726TIP3   OH2 8120   7.930   1.611   1.840
 2726TIP3    H1 8121   8.025   1.620   1.849
 2726TIP3    H2 8122   7.918   1.535   1.784
 2727TIP3   OH2 8123   7.988   1.022   5.921
 2727TIP3    H1 8124   8.043   1.048   5.847
 2727TIP3    H2 8125   8.018   1.077   5.993
 2728TIP3   OH2 8126   1.545   5.018   5.547
 2728TIP3    H1 8127   1.507   5.033   5.460
 2728TIP3    H2 8128   1.599   4.939   5.536
 2729TIP3   OH2 8129   4.177   2.665   1.198
 2729TIP3    H1 8130   4.136   2.720   1.265
 2729TIP3    H2 8131   4.217   2.593   1.247
 2730TIP3   OH2 8132   7.959   2.327   4.404
 2730TIP3    H1 8133   8.033   2.276   4.371
 2730TIP3    H2 8134   7.904   2.341   4.327
 2731TIP3   OH2 8135   5.549   6.899   2.635
 2731TIP3    H1 8136   5.632   6.851   2.634
 2731TIP3    H2 8137   5.552   6.951   2.715
 2732TIP3   OH2 8138   3.445   6.241   6.697
 2732TIP3    H1 8139   3.482   6.155   6.716
 2732TIP3    H2 8140   3.352   6.223   6.679
 2733TIP3   OH2 8141   5.907   3.706   4.321
 2733TIP3    H1 8142   5.952   3.783   4.287
 2733TIP3    H2 8143   5.918   3.712   4.416
 2734TIP3   OH2 8144   7.120   3.531   0.493
 2734TIP3    H1 8145   7.131   3.614   0.446
 2734TIP3    H2 8146   7.039   3.494   0.457
 2735TIP3   OH2 8147   6.598   2.676   3.801
 2735TIP3    H1 8148   6.608   2.734   3.726
 2735TIP3    H2 8149   6.510   2.695   3.834
 2736TIP3   OH2 8150   2.573   7.622   6.737
 2736TIP3    H1 8151   2.552   7.692   6.674
 2736TIP3    H2 8152   2.505   7.556   6.722
 2737TIP3   OH2 8153   4.504   6.016   0.130
 2737TIP3    H1 8154   4.432   5.957   0.150
 2737TIP3    H2 8155   4.552   6.024   0.212
 2738TIP3   OH2 8156   6.323   1.843   4.833
 2738TIP3    H1 8157   6.326   1.877   4.923
 2738TIP3    H2 8158   6.415   1.824   4.812
 2739TIP3   OH2 8159   5.815   6.944   1.068
 2739TIP3    H1 8160   5.818   7.038   1.088
 2739TIP3    H2 8161   5.896   6.909   1.106
 2740TIP3   OH2 8162   4.596   2.221   4.203
 2740TIP3    H1 8163   4.605   2.142   4.256
 2740TIP3    H2 8164   4.679   2.267   4.213
 2741TIP3   OH2 8165   6.258   1.609   6.105
 2741TIP3    H1 8166   6.198   1.653   6.045
 2741TIP3    H2 8167   6.254   1.517   6.080
 2742TIP3   OH2 8168   4.914   1.803   5.455
 2742TIP3    H1 8169   4.829   1.786   5.413
 2742TIP3    H2 8170   4.966   1.726   5.433
 2743TIP3   OH2 8171   1.003   3.204   3.653
 2743TIP3    H1 8172   0.911   3.226   3.642
 2743TIP3    H2 8173   1.051   3.268   3.601
 2744TIP3   OH2 8174   5.734   2.762   1.859
 2744TIP3    H1 8175   5.749   2.810   1.777
 2744TIP3    H2 8176   5.719   2.672   1.830
 2745TIP3   OH2 8177   2.368   3.280   1.064
 2745TIP3    H1 8178   2.410   3.197   1.087
 2745TIP3    H2 8179   2.298   3.290   1.129
 2746TIP3   OH2 8180   6.663   4.246   2.376
 2746TIP3    H1 8181   6.649   4.159   2.413
 2746TIP3    H2 8182   6.645   4.306   2.448
 2747TIP3   OH2 8183   7.267   4.901   0.748
 2747TIP3    H1 8184   7.330   4.971   0.730
 2747TIP3    H2 8185   7.294   4.829   0.690
 2748TIP3   OH2 8186   5.836   1.360   0.977
 2748TIP3    H1 8187   5.891   1.292   1.014
 2748TIP3    H2 8188   5.772   1.314   0.923
 2749TIP3   OH2 8189   3.011   0.433   6.071
 2749TIP3    H1 8190   2.936   0.475   6.030
 2749TIP3    H2 8191   3.047   0.376   6.002
 2750TIP3   OH2 8192   8.176   0.686   4.124
 2750TIP3    H1 8193   8.225   0.614   4.165
 2750TIP3    H2 8194   8.087   0.674   4.155
 2751TIP3   OH2 8195   3.960   4.082   2.887
 2751TIP3    H1 8196   3.914   4.089   2.804
 2751TIP3    H2 8197   3.891   4.077   2.953
 2752TIP3   OH2 8198   3.412   5.453   5.714
 2752TIP3    H1 8199   3.358   5.419   5.785
 2752TIP3    H2 8200   3.353   5.457   5.639
 2753TIP3   OH2 8201   7.665   1.187   5.636
 2753TIP3    H1 8202   7.720   1.178   5.559
 2753TIP3    H2 8203   7.603   1.257   5.614
 2754TIP3   OH2 8204   4.133   5.543   2.882
 2754TIP3    H1 8205   4.140   5.628   2.838
 2754TIP3    H2 8206   4.181   5.554   2.964
 2755TIP3   OH2 8207   6.353   7.184   4.788
 2755TIP3    H1 8208   6.279   7.236   4.819
 2755TIP3    H2 8209   6.313   7.111   4.741
 2756TIP3   OH2 8210   3.874   4.556   1.400
 2756TIP3    H1 8211   3.965   4.587   1.401
 2756TIP3    H2 8212   3.836   4.590   1.481
 2757TIP3   OH2 8213   2.886   1.464   6.322
 2757TIP3    H1 8214   2.821   1.503   6.264
 2757TIP3    H2 8215   2.934   1.403   6.266
 2758TIP3   OH2 8216   1.233   3.031   1.029
 2758TIP3    H1 8217   1.180   2.952   1.027
 2758TIP3    H2 8218   1.204   3.081   0.952
 2759TIP3   OH2 8219   6.202   1.541   5.650
 2759TIP3    H1 8220   6.184   1.577   5.737
 2759TIP3    H2 8221   6.156   1.600   5.590
 2760TIP3   OH2 8222   6.194   0.156   1.744
 2760TIP3    H1 8223   6.246   0.125   1.818
 2760TIP3    H2 8224   6.208   0.090   1.676
 2761TIP3   OH2 8225   5.965   0.802   2.467
 2761TIP3    H1 8226   5.909   0.863   2.515
 2761TIP3    H2 8227   5.970   0.839   2.379
 2762TIP3   OH2 8228   7.265   3.284   4.400
 2762TIP3    H1 8229   7.329   3.213   4.406
 2762TIP3    H2 8230   7.184   3.241   4.371
 2763TIP3   OH2 8231   5.938   0.410   6.358
 2763TIP3    H1 8232   5.994   0.377   6.428
 2763TIP3    H2 8233   5.869   0.459   6.403
 2764TIP3   OH2 8234   1.646   1.166   2.010
 2764TIP3    H1 8235   1.685   1.127   2.088
 2764TIP3    H2 8236   1.556   1.134   2.009
 2765TIP3   OH2 8237   0.509   4.694   1.185
 2765TIP3    H1 8238   0.568   4.761   1.150
 2765TIP3    H2 8239   0.567   4.621   1.206
 2766TIP3   OH2 8240   1.260   1.225   6.251
 2766TIP3    H1 8241   1.352   1.243   6.230
 2766TIP3    H2 8242   1.245   1.137   6.215
 2767TIP3   OH2 8243   4.358   0.414   1.685
 2767TIP3    H1 8244   4.390   0.433   1.597
 2767TIP3    H2 8245   4.432   0.372   1.728
 2768TIP3   OH2 8246   3.437   3.897   6.250
 2768TIP3    H1 8247   3.430   3.872   6.158
 2768TIP3    H2 8248   3.369   3.964   6.262
 2769TIP3   OH2 8249   3.906   1.956   1.021
 2769TIP3    H1 8250   3.952   2.014   0.961
 2769TIP3    H2 8251   3.824   2.001   1.040
 2770TIP3   OH2 8252   7.025   6.371   6.064
 2770TIP3    H1 8253   6.998   6.304   6.127
 2770TIP3    H2 8254   6.977   6.349   5.984
 2771TIP3   OH2 8255   6.315   5.622   3.580
 2771TIP3    H1 8256   6.263   5.700   3.558
 2771TIP3    H2 8257   6.406   5.651   3.574
 2772TIP3   OH2 8258   0.081   6.045   1.721
 2772TIP3    H1 8259   0.078   6.077   1.630
 2772TIP3    H2 8260   0.015   6.097   1.767
 2773TIP3   OH2 8261   8.121   2.318   5.276
 2773TIP3    H1 8262   8.088   2.265   5.349
 2773TIP3    H2 8263   8.196   2.268   5.244
 2774TIP3   OH2 8264   7.614   4.324   4.199
 2774TIP3    H1 8265   7.603   4.395   4.263
 2774TIP3    H2 8266   7.654   4.367   4.123
 2775TIP3   OH2 8267   0.952   2.112   3.254
 2775TIP3    H1 8268   0.944   2.018   3.234
 2775TIP3    H2 8269   1.026   2.141   3.201
 2776TIP3   OH2 8270   6.644   7.325   1.228
 2776TIP3    H1 8271   6.649   7.376   1.147
 2776TIP3    H2 8272   6.714   7.361   1.283
 2777TIP3   OH2 8273   5.846   2.923   0.943
 2777TIP3    H1 8274   5.898   3.001   0.961
 2777TIP3    H2 8275   5.870   2.861   1.011
 2778TIP3   OH2 8276   2.242   1.153   4.761
 2778TIP3    H1 8277   2.313   1.215   4.744
 2778TIP3    H2 8278   2.180   1.168   4.690
 2779TIP3   OH2 8279   7.884   0.244   2.011
 2779TIP3    H1 8280   7.978   0.239   1.999
 2779TIP3    H2 8281   7.871   0.228   2.105
 2780TIP3   OH2 8282   7.093   1.418   1.538
 2780TIP3    H1 8283   7.003   1.385   1.532
 2780TIP3    H2 8284   7.083   1.513   1.549
 2781TIP3   OH2 8285   3.845   5.310   4.209
 2781TIP3    H1 8286   3.767   5.306   4.154
 2781TIP3    H2 8287   3.915   5.336   4.149
 2782TIP3   OH2 8288   7.022   4.714   5.414
 2782TIP3    H1 8289   6.934   4.740   5.388
 2782TIP3    H2 8290   7.043   4.640   5.357
 2783TIP3   OH2 8291   7.606   2.913   5.628
 2783TIP3    H1 8292   7.577   3.004   5.620
 2783TIP3    H2 8293   7.604   2.895   5.722
 2784TIP3   OH2 8294   3.377   7.333   3.632
 2784TIP3    H1 8295   3.353   7.376   3.551
 2784TIP3    H2 8296   3.470   7.312   3.622
 2785TIP3   OH2 8297   5.863   3.910   6.221
 2785TIP3    H1 8298   5.940   3.895   6.166
 2785TIP3    H2 8299   5.816   3.826   6.218
 2786TIP3   OH2 8300   0.001   1.291   0.863
 2786TIP3    H1 8301  -0.070   1.354   0.880
 2786TIP3    H2 8302   0.080   1.344   0.859
 2787TIP3   OH2 8303   4.381   4.266   5.002
 2787TIP3    H1 8304   4.362   4.195   5.063
 2787TIP3    H2 8305   4.322   4.337   5.027
 2788TIP3   OH2 8306   4.363   5.498   0.005
 2788TIP3    H1 8307   4.428   5.569   0.004
 2788TIP3    H2 8308   4.415   5.418   0.015
 2789TIP3   OH2 8309   4.108   4.332   2.918
 2789TIP3    H1 8310   4.024   4.286   2.917
 2789TIP3    H2 8311   4.157   4.294   2.845
 2790TIP3   OH2 8312   1.462   7.532   1.974
 2790TIP3    H1 8313   1.385   7.495   1.931
 2790TIP3    H2 8314   1.504   7.457   2.015
 2791TIP3   OH2 8315   6.135   7.235   4.322
 2791TIP3    H1 8316   6.199   7.301   4.348
 2791TIP3    H2 8317   6.055   7.285   4.303
 2792TIP3   OH2 8318   2.428   7.085   0.931
 2792TIP3    H1 8319   2.404   6.994   0.948
 2792TIP3    H2 8320   2.470   7.114   1.011
 2793TIP3   OH2 8321   3.510   3.449   1.782
 2793TIP3    H1 8322   3.573   3.462   1.853
 2793TIP3    H2 8323   3.502   3.354   1.775
 2794TIP3   OH2 8324   6.875   0.056   1.697
 2794TIP3    H1 8325   6.845   0.097   1.616
 2794TIP3    H2 8326   6.970   0.048   1.687
 2795TIP3   OH2 8327   2.926   4.849   6.697
 2795TIP3    H1 8328   3.012   4.858   6.737
 2795TIP3    H2 8329   2.944   4.847   6.603
 2796TIP3   OH2 8330   3.664   0.675   0.162
 2796TIP3    H1 8331   3.690   0.764   0.185
 2796TIP3    H2 8332   3.609   0.685   0.084
 2797TIP3   OH2 8333   5.250   3.207   0.103
 2797TIP3    H1 8334   5.179   3.158   0.144
 2797TIP3    H2 8335   5.306   3.233   0.176
 2798TIP3   OH2 8336   2.526   5.466   1.889
 2798TIP3    H1 8337   2.549   5.463   1.982
 2798TIP3    H2 8338   2.465   5.540   1.882
 2799TIP3   OH2 8339   6.621   2.199   0.198
 2799TIP3    H1 8340   6.572   2.120   0.178
 2799TIP3    H2 8341   6.713   2.176   0.182
 2800TIP3   OH2 8342   6.328   3.865   2.926
 2800TIP3    H1 8343   6.392   3.818   2.872
 2800TIP3    H2 8344   6.254   3.880   2.867
 2801TIP3   OH2 8345   6.670   5.165   2.704
 2801TIP3    H1 8346   6.692   5.156   2.796
 2801TIP3    H2 8347   6.750   5.143   2.657
 2802TIP3   OH2 8348   4.055   5.703   0.902
 2802TIP3    H1 8349   4.003   5.747   0.835
 2802TIP3    H2 8350   4.063   5.613   0.870
 2803TIP3   OH2 8351   1.873   1.044   2.881
 2803TIP3    H1 8352   1.857   1.038   2.787
 2803TIP3    H2 8353   1.878   1.138   2.898
 2804TIP3   OH2 8354   1.907   5.370   2.908
 2804TIP3    H1 8355   1.869   5.430   2.972
 2804TIP3    H2 8356   1.886   5.409   2.823
 2805TIP3   OH2 8357   0.373   5.266   3.904
 2805TIP3    H1 8358   0.279   5.282   3.905
 2805TIP3    H2 8359   0.395   5.247   3.995
 2806TIP3   OH2 8360   6.676   0.714   5.421
 2806TIP3    H1 8361   6.685   0.806   5.396
 2806TIP3    H2 8362   6.596   0.711   5.473
 2807TIP3   OH2 8363   1.993   3.399   4.148
 2807TIP3    H1 8364   2.045   3.469   4.109
 2807TIP3    H2 8365   1.903   3.429   4.141
 2808TIP3   OH2 8366   5.258   1.280   6.292
 2808TIP3    H1 8367   5.310   1.359   6.281
 2808TIP3    H2 8368   5.322   1.209   6.285
 2809TIP3   OH2 8369   3.629   5.869   5.413
 2809TIP3    H1 8370   3.697   5.815   5.372
 2809TIP3    H2 8371   3.670   5.954   5.425
 2810TIP3   OH2 8372   7.099   4.998   3.273
 2810TIP3    H1 8373   7.190   5.029   3.270
 2810TIP3    H2 8374   7.070   4.999   3.181
 2811TIP3   OH2 8375   5.550   1.990   3.927
 2811TIP3    H1 8376   5.632   1.955   3.892
 2811TIP3    H2 8377   5.577   2.040   4.005
 2812TIP3   OH2 8378   7.135   0.078   1.153
 2812TIP3    H1 8379   7.042   0.096   1.140
 2812TIP3    H2 8380   7.137  -0.001   1.206
 2813TIP3   OH2 8381   0.528   2.093   6.304
 2813TIP3    H1 8382   0.583   2.033   6.253
 2813TIP3    H2 8383   0.573   2.101   6.388
 2814TIP3   OH2 8384   7.560   7.615   2.468
 2814TIP3    H1 8385   7.652   7.618   2.496
 2814TIP3    H2 8386   7.528   7.704   2.482
 2815TIP3   OH2 8387   2.001   7.516   6.654
 2815TIP3    H1 8388   1.965   7.504   6.742
 2815TIP3    H2 8389   1.993   7.610   6.638
 2816TIP3   OH2 8390   3.183   0.442   4.275
 2816TIP3    H1 8391   3.226   0.357   4.268
 2816TIP3    H2 8392   3.245   0.505   4.238
 2817TIP3   OH2 8393   5.423   1.601   0.656
 2817TIP3    H1 8394   5.442   1.687   0.694
 2817TIP3    H2 8395   5.508   1.557   0.653
 2818TIP3   OH2 8396   4.554   4.386   6.508
 2818TIP3    H1 8397   4.564   4.353   6.418
 2818TIP3    H2 8398   4.562   4.481   6.499
 2819TIP3   OH2 8399   3.356   4.827   0.615
 2819TIP3    H1 8400   3.304   4.747   0.627
 2819TIP3    H2 8401   3.294   4.890   0.577
 2820TIP3   OH2 8402   7.673   1.237   5.924
 2820TIP3    H1 8403   7.695   1.188   5.844
 2820TIP3    H2 8404   7.666   1.328   5.896
 2821TIP3   OH2 8405   3.392   0.321   0.395
 2821TIP3    H1 8406   3.418   0.269   0.471
 2821TIP3    H2 8407   3.462   0.386   0.385
 2822TIP3   OH2 8408   6.520   4.158   0.763
 2822TIP3    H1 8409   6.455   4.223   0.789
 2822TIP3    H2 8410   6.548   4.185   0.676
 2823TIP3   OH2 8411   3.576   2.442   4.987
 2823TIP3    H1 8412   3.612   2.436   4.899
 2823TIP3    H2 8413   3.648   2.475   5.040
 2824TIP3   OH2 8414   7.692   5.119   2.375
 2824TIP3    H1 8415   7.745   5.131   2.296
 2824TIP3    H2 8416   7.754   5.086   2.441
 2825TIP3   OH2 8417   7.472   4.174   5.496
 2825TIP3    H1 8418   7.378   4.166   5.513
 2825TIP3    H2 8419   7.503   4.084   5.491
 2826TIP3   OH2 8420   3.038   1.882   3.017
 2826TIP3    H1 8421   2.996   1.892   2.931
 2826TIP3    H2 8422   3.083   1.966   3.030
 2827TIP3   OH2 8423   7.719   4.457   2.437
 2827TIP3    H1 8424   7.707   4.550   2.454
 2827TIP3    H2 8425   7.630   4.423   2.428
 2828TIP3   OH2 8426   6.933   7.387   1.096
 2828TIP3    H1 8427   6.851   7.422   1.063
 2828TIP3    H2 8428   6.917   7.369   1.188
 2829TIP3   OH2 8429   2.580   1.730   5.466
 2829TIP3    H1 8430   2.657   1.753   5.518
 2829TIP3    H2 8431   2.611   1.662   5.406
 2830TIP3   OH2 8432   1.986   7.042   4.198
 2830TIP3    H1 8433   1.994   6.980   4.126
 2830TIP3    H2 8434   2.075   7.048   4.234
 2831TIP3   OH2 8435   6.145   3.860   2.704
 2831TIP3    H1 8436   6.194   3.875   2.623
 2831TIP3    H2 8437   6.053   3.870   2.679
 2832TIP3   OH2 8438   5.790   3.933   1.631
 2832TIP3    H1 8439   5.735   3.942   1.709
 2832TIP3    H2 8440   5.871   3.979   1.653
 2833TIP3   OH2 8441   1.458   4.641   2.491
 2833TIP3    H1 8442   1.377   4.679   2.458
 2833TIP3    H2 8443   1.430   4.575   2.554
 2834TIP3   OH2 8444   0.826   5.478   0.615
 2834TIP3    H1 8445   0.894   5.541   0.590
 2834TIP3    H2 8446   0.793   5.510   0.699
 2835TIP3   OH2 8447   0.454   1.788   0.164
 2835TIP3    H1 8448   0.465   1.881   0.181
 2835TIP3    H2 8449   0.415   1.783   0.077
 2836TIP3   OH2 8450   0.678   7.349   2.160
 2836TIP3    H1 8451   0.704   7.340   2.251
 2836TIP3    H2 8452   0.599   7.296   2.151
 2837TIP3   OH2 8453   0.937   2.463   4.389
 2837TIP3    H1 8454   1.025   2.442   4.359
 2837TIP3    H2 8455   0.880   2.443   4.315
 2838TIP3   OH2 8456   6.031   7.068   5.697
 2838TIP3    H1 8457   6.071   7.084   5.611
 2838TIP3    H2 8458   6.006   6.976   5.695
 2839TIP3   OH2 8459   0.525   5.089   2.139
 2839TIP3    H1 8460   0.563   5.069   2.224
 2839TIP3    H2 8461   0.470   5.166   2.154
 2840TIP3   OH2 8462   8.125   4.747   1.248
 2840TIP3    H1 8463   8.055   4.703   1.199
 2840TIP3    H2 8464   8.103   4.840   1.243
 2841TIP3   OH2 8465   1.767   1.734   6.564
 2841TIP3    H1 8466   1.829   1.758   6.495
 2841TIP3    H2 8467   1.803   1.773   6.644
 2842TIP3   OH2 8468   7.388   6.014   5.454
 2842TIP3    H1 8469   7.304   6.028   5.497
 2842TIP3    H2 8470   7.432   5.948   5.509
 2843TIP3   OH2 8471   1.238   4.965   3.166
 2843TIP3    H1 8472   1.225   4.874   3.139
 2843TIP3    H2 8473   1.291   5.004   3.096
 2844TIP3   OH2 8474   6.605   0.143   4.136
 2844TIP3    H1 8475   6.672   0.099   4.189
 2844TIP3    H2 8476   6.566   0.074   4.084
 2845TIP3   OH2 8477   6.315   2.503   1.075
 2845TIP3    H1 8478   6.271   2.420   1.088
 2845TIP3    H2 8479   6.354   2.497   0.988
 2846TIP3   OH2 8480   0.175   0.205   5.173
 2846TIP3    H1 8481   0.109   0.139   5.151
 2846TIP3    H2 8482   0.128   0.271   5.223
 2847TIP3   OH2 8483   1.838   4.785   4.920
 2847TIP3    H1 8484   1.835   4.691   4.937
 2847TIP3    H2 8485   1.928   4.810   4.940
 2848TIP3   OH2 8486   7.655   3.679   0.397
 2848TIP3    H1 8487   7.694   3.735   0.464
 2848TIP3    H2 8488   7.604   3.615   0.447
 2849TIP3   OH2 8489   8.063   2.157   0.697
 2849TIP3    H1 8490   8.020   2.220   0.639
 2849TIP3    H2 8491   8.025   2.073   0.675
 2850TIP3   OH2 8492   0.304   6.991   1.804
 2850TIP3    H1 8493   0.396   7.016   1.796
 2850TIP3    H2 8494   0.266   7.059   1.859
 2851TIP3   OH2 8495   7.771   6.466   4.446
 2851TIP3    H1 8496   7.723   6.541   4.482
 2851TIP3    H2 8497   7.705   6.397   4.439
 2852TIP3   OH2 8498   4.480   6.908   2.440
 2852TIP3    H1 8499   4.465   6.813   2.449
 2852TIP3    H2 8500   4.524   6.934   2.520
 2853TIP3   OH2 8501   3.251   5.978   6.308
 2853TIP3    H1 8502   3.222   5.951   6.395
 2853TIP3    H2 8503   3.301   6.058   6.323
 2854TIP3   OH2 8504   1.142   3.371   4.470
 2854TIP3    H1 8505   1.184   3.457   4.477
 2854TIP3    H2 8506   1.213   3.309   4.485
 2855TIP3   OH2 8507   6.045   5.553   3.938
 2855TIP3    H1 8508   5.995   5.515   4.010
 2855TIP3    H2 8509   6.071   5.640   3.970
 2856TIP3   OH2 8510   3.513   0.300   2.447
 2856TIP3    H1 8511   3.519   0.292   2.352
 2856TIP3    H2 8512   3.455   0.375   2.461
 2857TIP3   OH2 8513   5.888   2.006   5.025
 2857TIP3    H1 8514   5.972   1.973   5.058
 2857TIP3    H2 8515   5.900   2.100   5.017
 2858TIP3   OH2 8516   2.285   1.107   0.752
 2858TIP3    H1 8517   2.249   1.193   0.771
 2858TIP3    H2 8518   2.299   1.067   0.838
 2859TIP3   OH2 8519   4.498   4.758   3.752
 2859TIP3    H1 8520   4.525   4.691   3.689
 2859TIP3    H2 8521   4.569   4.761   3.816
 2860TIP3   OH2 8522   6.126   0.196   1.300
 2860TIP3    H1 8523   6.129   0.100   1.298
 2860TIP3    H2 8524   6.116   0.221   1.208
 2861TIP3   OH2 8525   2.657   3.256   2.085
 2861TIP3    H1 8526   2.580   3.297   2.124
 2861TIP3    H2 8527   2.724   3.325   2.087
 2862TIP3   OH2 8528   2.247   7.086   1.867
 2862TIP3    H1 8529   2.242   7.138   1.948
 2862TIP3    H2 8530   2.160   7.096   1.827
 2863TIP3   OH2 8531   8.296   0.690   2.013
 2863TIP3    H1 8532   8.296   0.610   2.066
 2863TIP3    H2 8533   8.223   0.742   2.047
 2864TIP3   OH2 8534   5.780   7.319   6.247
 2864TIP3    H1 8535   5.816   7.231   6.236
 2864TIP3    H2 8536   5.700   7.306   6.298
 2865TIP3   OH2 8537   2.028   0.179   4.082
 2865TIP3    H1 8538   1.964   0.118   4.044
 2865TIP3    H2 8539   2.027   0.254   4.024
 2866TIP3   OH2 8540   0.464   0.944   0.535
 2866TIP3    H1 8541   0.408   0.966   0.609
 2866TIP3    H2 8542   0.416   0.975   0.458
 2867TIP3   OH2 8543   5.164   1.353   0.133
 2867TIP3    H1 8544   5.229   1.303   0.082
 2867TIP3    H2 8545   5.216   1.412   0.187
 2868TIP3   OH2 8546   0.384   7.331   2.503
 2868TIP3    H1 8547   0.416   7.242   2.517
 2868TIP3    H2 8548   0.438   7.385   2.560
 2869TIP3   OH2 8549   5.130   3.660   2.762
 2869TIP3    H1 8550   5.072   3.583   2.762
 2869TIP3    H2 8551   5.175   3.655   2.846
 2870TIP3   OH2 8552   2.140   0.629   5.216
 2870TIP3    H1 8553   2.182   0.714   5.205
 2870TIP3    H2 8554   2.183   0.572   5.152
 2871TIP3   OH2 8555   4.379   5.234   5.442
 2871TIP3    H1 8556   4.383   5.218   5.348
 2871TIP3    H2 8557   4.345   5.323   5.450
 2872TIP3   OH2 8558   2.732   2.994   0.309
 2872TIP3    H1 8559   2.701   3.077   0.273
 2872TIP3    H2 8560   2.660   2.933   0.296
 2873TIP3   OH2 8561   3.834   7.079   5.778
 2873TIP3    H1 8562   3.926   7.054   5.764
 2873TIP3    H2 8563   3.799   7.092   5.690
 2874TIP3   OH2 8564   3.277   6.871   2.502
 2874TIP3    H1 8565   3.267   6.775   2.506
 2874TIP3    H2 8566   3.216   6.898   2.434
 2875TIP3   OH2 8567   0.688   3.218   2.547
 2875TIP3    H1 8568   0.677   3.309   2.518
 2875TIP3    H2 8569   0.606   3.198   2.592
 2876TIP3   OH2 8570   0.627   6.893   6.037
 2876TIP3    H1 8571   0.669   6.976   6.059
 2876TIP3    H2 8572   0.666   6.829   6.097
 2877TIP3   OH2 8573   5.986   0.334   3.840
 2877TIP3    H1 8574   5.974   0.398   3.911
 2877TIP3    H2 8575   6.080   0.333   3.825
 2878TIP3   OH2 8576   5.743   2.782   4.794
 2878TIP3    H1 8577   5.837   2.775   4.779
 2878TIP3    H2 8578   5.704   2.718   4.734
 2879TIP3   OH2 8579   3.469   5.853   5.190
 2879TIP3    H1 8580   3.501   5.834   5.278
 2879TIP3    H2 8581   3.519   5.929   5.162
 2880TIP3   OH2 8582   2.044   2.889   0.251
 2880TIP3    H1 8583   2.126   2.898   0.203
 2880TIP3    H2 8584   1.998   2.818   0.206
 2881TIP3   OH2 8585   0.892   1.625   2.366
 2881TIP3    H1 8586   0.822   1.688   2.385
 2881TIP3    H2 8587   0.972   1.678   2.361
 2882TIP3   OH2 8588   6.086   2.567   2.936
 2882TIP3    H1 8589   6.077   2.524   3.021
 2882TIP3    H2 8590   5.999   2.599   2.916
 2883TIP3   OH2 8591   3.301   4.717   0.359
 2883TIP3    H1 8592   3.393   4.714   0.384
 2883TIP3    H2 8593   3.301   4.753   0.270
 2884TIP3   OH2 8594   3.838   0.784   5.607
 2884TIP3    H1 8595   3.756   0.821   5.640
 2884TIP3    H2 8596   3.835   0.692   5.634
 2885TIP3   OH2 8597   7.559   0.383   5.900
 2885TIP3    H1 8598   7.533   0.410   5.988
 2885TIP3    H2 8599   7.569   0.288   5.906
 2886TIP3   OH2 8600   5.040   3.586   2.172
 2886TIP3    H1 8601   5.007   3.585   2.262
 2886TIP3    H2 8602   4.961   3.588   2.118
 2887TIP3   OH2 8603   7.956   7.462   5.108
 2887TIP3    H1 8604   7.935   7.463   5.015
 2887TIP3    H2 8605   7.873   7.482   5.151
 2888TIP3   OH2 8606   5.903   3.013   0.597
 2888TIP3    H1 8607   5.833   2.980   0.653
 2888TIP3    H2 8608   5.871   3.098   0.565
 2889TIP3   OH2 8609   0.061   2.117   1.385
 2889TIP3    H1 8610   0.126   2.083   1.447
 2889TIP3    H2 8611   0.060   2.052   1.314
 2890TIP3   OH2 8612   7.151   6.977   1.887
 2890TIP3    H1 8613   7.100   6.947   1.962
 2890TIP3    H2 8614   7.234   6.931   1.893
 2891TIP3   OH2 8615   6.858   1.761   4.797
 2891TIP3    H1 8616   6.922   1.697   4.768
 2891TIP3    H2 8617   6.873   1.838   4.741
 2892TIP3   OH2 8618   6.152   2.659   5.361
 2892TIP3    H1 8619   6.152   2.743   5.315
 2892TIP3    H2 8620   6.067   2.655   5.404
 2893TIP3   OH2 8621   1.749   4.441   2.133
 2893TIP3    H1 8622   1.781   4.504   2.069
 2893TIP3    H2 8623   1.719   4.494   2.207
 2894TIP3   OH2 8624   1.319   0.698   1.634
 2894TIP3    H1 8625   1.268   0.696   1.554
 2894TIP3    H2 8626   1.255   0.690   1.704
 2895TIP3   OH2 8627   1.450   7.109   5.716
 2895TIP3    H1 8628   1.526   7.161   5.740
 2895TIP3    H2 8629   1.487   7.030   5.675
 2896TIP3   OH2 8630   3.192   1.822   2.176
 2896TIP3    H1 8631   3.129   1.882   2.215
 2896TIP3    H2 8632   3.142   1.772   2.112
 2897TIP3   OH2 8633   7.006   7.509   5.843
 2897TIP3    H1 8634   7.075   7.575   5.846
 2897TIP3    H2 8635   6.972   7.514   5.753
 2898TIP3   OH2 8636   1.336   1.996   4.050
 2898TIP3    H1 8637   1.397   1.927   4.024
 2898TIP3    H2 8638   1.293   1.961   4.128
 2899TIP3   OH2 8639   0.500   1.593   0.858
 2899TIP3    H1 8640   0.516   1.503   0.886
 2899TIP3    H2 8641   0.406   1.598   0.845
 2900TIP3   OH2 8642   5.551   5.192   6.065
 2900TIP3    H1 8643   5.507   5.171   5.983
 2900TIP3    H2 8644   5.522   5.125   6.127
 2901TIP3   OH2 8645   3.644   2.429   6.123
 2901TIP3    H1 8646   3.710   2.378   6.077
 2901TIP3    H2 8647   3.570   2.368   6.134
 2902TIP3   OH2 8648   0.580   7.244   6.537
 2902TIP3    H1 8649   0.621   7.313   6.485
 2902TIP3    H2 8650   0.652   7.184   6.559
 2903TIP3   OH2 8651   2.017   6.601   3.463
 2903TIP3    H1 8652   1.974   6.589   3.548
 2903TIP3    H2 8653   2.049   6.514   3.440
 2904TIP3   OH2 8654   6.801   7.815   3.009
 2904TIP3    H1 8655   6.824   7.725   2.989
 2904TIP3    H2 8656   6.729   7.835   2.950
 2905TIP3   OH2 8657   3.765   4.535   5.097
 2905TIP3    H1 8658   3.703   4.603   5.124
 2905TIP3    H2 8659   3.848   4.560   5.137
 2906TIP3   OH2 8660   3.785   3.950   0.676
 2906TIP3    H1 8661   3.850   3.908   0.620
 2906TIP3    H2 8662   3.702   3.912   0.648
 2907TIP3   OH2 8663   4.839   0.245   6.512
 2907TIP3    H1 8664   4.749   0.251   6.546
 2907TIP3    H2 8665   4.828   0.222   6.419
 2908TIP3   OH2 8666   7.937   1.039   5.587
 2908TIP3    H1 8667   7.871   1.050   5.519
 2908TIP3    H2 8668   8.015   1.008   5.540
 2909TIP3   OH2 8669   7.449   5.573   0.465
 2909TIP3    H1 8670   7.469   5.566   0.558
 2909TIP3    H2 8671   7.534   5.576   0.422
 2910TIP3   OH2 8672   4.675   7.519   4.506
 2910TIP3    H1 8673   4.708   7.554   4.588
 2910TIP3    H2 8674   4.748   7.528   4.445
 2911TIP3   OH2 8675   1.931   7.041   1.759
 2911TIP3    H1 8676   1.929   7.065   1.666
 2911TIP3    H2 8677   1.952   6.947   1.758
 2912TIP3   OH2 8678   3.823   0.180   4.963
 2912TIP3    H1 8679   3.872   0.098   4.955
 2912TIP3    H2 8680   3.889   0.245   4.987
 2913TIP3   OH2 8681   5.101   6.639   1.260
 2913TIP3    H1 8682   5.082   6.733   1.259
 2913TIP3    H2 8683   5.143   6.622   1.176
 2914TIP3   OH2 8684   0.710   4.032   3.320
 2914TIP3    H1 8685   0.618   4.012   3.337
 2914TIP3    H2 8686   0.759   3.969   3.373
 2915TIP3   OH2 8687   1.210   1.454   0.747
 2915TIP3    H1 8688   1.124   1.458   0.705
 2915TIP3    H2 8689   1.238   1.364   0.735
 2916TIP3   OH2 8690   2.849   2.837   0.822
 2916TIP3    H1 8691   2.930   2.811   0.778
 2916TIP3    H2 8692   2.803   2.891   0.757
 2917TIP3   OH2 8693   5.712   0.065   0.880
 2917TIP3    H1 8694   5.670   0.144   0.916
 2917TIP3    H2 8695   5.690  -0.004   0.943
 2918TIP3   OH2 8696   7.766   7.471   6.099
 2918TIP3    H1 8697   7.844   7.468   6.043
 2918TIP3    H2 8698   7.713   7.543   6.063
 2919TIP3   OH2 8699   2.390   7.128   6.157
 2919TIP3    H1 8700   2.481   7.132   6.129
 2919TIP3    H2 8701   2.358   7.044   6.122
 2920TIP3   OH2 8702   7.168   4.349   3.031
 2920TIP3    H1 8703   7.168   4.347   2.936
 2920TIP3    H2 8704   7.076   4.346   3.056
 2921TIP3   OH2 8705   1.808   6.724   2.482
 2921TIP3    H1 8706   1.873   6.791   2.503
 2921TIP3    H2 8707   1.779   6.691   2.568
 2922TIP3   OH2 8708   2.145   4.896   2.970
 2922TIP3    H1 8709   2.117   4.987   2.969
 2922TIP3    H2 8710   2.226   4.897   3.022
 2923TIP3   OH2 8711   4.642   4.630   6.193
 2923TIP3    H1 8712   4.723   4.602   6.150
 2923TIP3    H2 8713   4.653   4.725   6.204
 2924TIP3   OH2 8714   2.061   3.847   5.553
 2924TIP3    H1 8715   2.084   3.805   5.471
 2924TIP3    H2 8716   1.971   3.820   5.570
 2925TIP3   OH2 8717   4.342   0.882   5.134
 2925TIP3    H1 8718   4.314   0.803   5.180
 2925TIP3    H2 8719   4.395   0.929   5.199
 2926TIP3   OH2 8720   2.235   1.768   1.589
 2926TIP3    H1 8721   2.268   1.762   1.499
 2926TIP3    H2 8722   2.238   1.862   1.609
 2927TIP3   OH2 8723   2.487   4.621   6.175
 2927TIP3    H1 8724   2.462   4.587   6.261
 2927TIP3    H2 8725   2.539   4.699   6.194
 2928TIP3   OH2 8726   3.759   2.149   4.446
 2928TIP3    H1 8727   3.794   2.155   4.357
 2928TIP3    H2 8728   3.828   2.105   4.496
 2929TIP3   OH2 8729   6.180   4.055   6.524
 2929TIP3    H1 8730   6.165   4.101   6.442
 2929TIP3    H2 8731   6.210   4.123   6.585
 2930TIP3   OH2 8732   2.787   3.261   6.478
 2930TIP3    H1 8733   2.787   3.357   6.469
 2930TIP3    H2 8734   2.745   3.230   6.399
 2931TIP3   OH2 8735   0.900   3.910   3.935
 2931TIP3    H1 8736   0.858   3.890   3.852
 2931TIP3    H2 8737   0.943   3.829   3.961
 2932TIP3   OH2 8738   7.818   6.880   5.087
 2932TIP3    H1 8739   7.743   6.919   5.042
 2932TIP3    H2 8740   7.879   6.859   5.017
 2933TIP3   OH2 8741   6.142   6.522   5.761
 2933TIP3    H1 8742   6.056   6.551   5.792
 2933TIP3    H2 8743   6.126   6.496   5.670
 2934TIP3   OH2 8744   0.084   1.026   4.430
 2934TIP3    H1 8745  -0.006   1.027   4.463
 2934TIP3    H2 8746   0.086   0.955   4.367
 2935TIP3   OH2 8747   4.040   4.060   3.350
 2935TIP3    H1 8748   4.097   4.066   3.274
 2935TIP3    H2 8749   3.959   4.021   3.317
 2936TIP3   OH2 8750   2.687   0.056   3.717
 2936TIP3    H1 8751   2.735   0.124   3.669
 2936TIP3    H2 8752   2.614   0.103   3.758
 2937TIP3   OH2 8753   2.250   7.836   5.125
 2937TIP3    H1 8754   2.289   7.763   5.076
 2937TIP3    H2 8755   2.158   7.837   5.096
 2938TIP3   OH2 8756   8.119   4.605   0.836
 2938TIP3    H1 8757   8.076   4.645   0.760
 2938TIP3    H2 8758   8.200   4.654   0.846
 2939TIP3   OH2 8759   4.052   5.003   1.222
 2939TIP3    H1 8760   4.103   5.083   1.219
 2939TIP3    H2 8761   4.109   4.939   1.265
 2940TIP3   OH2 8762   2.788   1.160   6.376
 2940TIP3    H1 8763   2.701   1.180   6.411
 2940TIP3    H2 8764   2.847   1.217   6.425
 2941TIP3   OH2 8765   6.487   1.490   6.516
 2941TIP3    H1 8766   6.560   1.524   6.567
 2941TIP3    H2 8767   6.457   1.565   6.465
 2942TIP3   OH2 8768   0.787   2.788   3.518
 2942TIP3    H1 8769   0.812   2.798   3.610
 2942TIP3    H2 8770   0.855   2.835   3.469
 2943TIP3   OH2 8771   4.317   4.388   0.487
 2943TIP3    H1 8772   4.380   4.334   0.439
 2943TIP3    H2 8773   4.235   4.340   0.482
 2944TIP3   OH2 8774   2.582   0.769   3.519
 2944TIP3    H1 8775   2.608   0.850   3.476
 2944TIP3    H2 8776   2.626   0.772   3.604
 2945TIP3   OH2 8777   5.164   5.680   4.164
 2945TIP3    H1 8778   5.222   5.605   4.151
 2945TIP3    H2 8779   5.221   5.749   4.196
 2946TIP3   OH2 8780   2.951   5.553   4.909
 2946TIP3    H1 8781   2.866   5.512   4.893
 2946TIP3    H2 8782   2.991   5.499   4.977
 2947TIP3   OH2 8783   4.334   6.309   2.172
 2947TIP3    H1 8784   4.380   6.383   2.134
 2947TIP3    H2 8785   4.363   6.233   2.121
 2948TIP3   OH2 8786   6.424   4.912   1.276
 2948TIP3    H1 8787   6.391   4.999   1.298
 2948TIP3    H2 8788   6.417   4.907   1.181
 2949TIP3   OH2 8789   3.375   3.278   1.185
 2949TIP3    H1 8790   3.315   3.205   1.167
 2949TIP3    H2 8791   3.322   3.342   1.233
 2950TIP3   OH2 8792   6.950   6.467   5.634
 2950TIP3    H1 8793   6.910   6.530   5.576
 2950TIP3    H2 8794   7.033   6.507   5.660
 2951TIP3   OH2 8795   7.432   2.088   1.001
 2951TIP3    H1 8796   7.370   2.155   1.031
 2951TIP3    H2 8797   7.480   2.130   0.929
 2952TIP3   OH2 8798   3.108   0.547   2.939
 2952TIP3    H1 8799   3.167   0.472   2.927
 2952TIP3    H2 8800   3.022   0.508   2.952
 2953TIP3   OH2 8801   3.066   5.830   2.728
 2953TIP3    H1 8802   2.977   5.812   2.696
 2953TIP3    H2 8803   3.061   5.812   2.822
 2954TIP3   OH2 8804   2.220   7.541   4.483
 2954TIP3    H1 8805   2.306   7.498   4.481
 2954TIP3    H2 8806   2.230   7.617   4.426
 2955TIP3   OH2 8807   4.571   5.844   4.498
 2955TIP3    H1 8808   4.511   5.792   4.444
 2955TIP3    H2 8809   4.515   5.890   4.560
 2956TIP3   OH2 8810   0.931   4.170   3.201
 2956TIP3    H1 8811   0.897   4.260   3.195
 2956TIP3    H2 8812   0.858   4.119   3.235
 2957TIP3   OH2 8813   7.931   6.528   2.146
 2957TIP3    H1 8814   8.023   6.511   2.126
 2957TIP3    H2 8815   7.933   6.607   2.201
 2958TIP3   OH2 8816   6.199   4.687   2.215
 2958TIP3    H1 8817   6.163   4.684   2.304
 2958TIP3    H2 8818   6.293   4.699   2.228
 2959TIP3   OH2 8819   6.509   7.625   4.960
 2959TIP3    H1 8820   6.469   7.614   4.874
 2959TIP3    H2 8821   6.435   7.642   5.019
 2960TIP3   OH2 8822   4.042   0.276   3.740
 2960TIP3    H1 8823   4.054   0.247   3.830
 2960TIP3    H2 8824   3.967   0.335   3.743
 2961TIP3   OH2 8825   3.910   1.027   1.372
 2961TIP3    H1 8826   3.869   1.112   1.353
 2961TIP3    H2 8827   3.855   0.963   1.326
 2962TIP3   OH2 8828   2.313   6.870   6.095
 2962TIP3    H1 8829   2.239   6.913   6.137
 2962TIP3    H2 8830   2.278   6.838   6.011
 2963TIP3   OH2 8831   7.702   3.962   5.603
 2963TIP3    H1 8832   7.739   4.007   5.527
 2963TIP3    H2 8833   7.714   3.869   5.585
 2964TIP3   OH2 8834   7.446   6.982   4.511
 2964TIP3    H1 8835   7.361   6.983   4.553
 2964TIP3    H2 8836   7.452   7.066   4.465
 2965TIP3   OH2 8837   5.293   6.136   6.250
 2965TIP3    H1 8838   5.269   6.064   6.191
 2965TIP3    H2 8839   5.371   6.104   6.296
 2966TIP3   OH2 8840   1.308   1.576   0.431
 2966TIP3    H1 8841   1.363   1.649   0.404
 2966TIP3    H2 8842   1.250   1.614   0.498
 2967TIP3   OH2 8843   1.572   1.174   5.630
 2967TIP3    H1 8844   1.607   1.260   5.606
 2967TIP3    H2 8845   1.487   1.193   5.669
 2968TIP3   OH2 8846   4.734   4.902   6.299
 2968TIP3    H1 8847   4.742   4.936   6.388
 2968TIP3    H2 8848   4.824   4.886   6.271
 2969TIP3   OH2 8849   2.805   3.342   4.080
 2969TIP3    H1 8850   2.821   3.400   4.155
 2969TIP3    H2 8851   2.716   3.366   4.051
 2970TIP3   OH2 8852   5.631   1.132   2.258
 2970TIP3    H1 8853   5.721   1.116   2.286
 2970TIP3    H2 8854   5.612   1.061   2.197
 2971TIP3   OH2 8855   7.543   0.656   3.659
 2971TIP3    H1 8856   7.593   0.667   3.578
 2971TIP3    H2 8857   7.528   0.746   3.689
 2972TIP3   OH2 8858   7.215   3.541   1.509
 2972TIP3    H1 8859   7.240   3.466   1.455
 2972TIP3    H2 8860   7.295   3.593   1.517
 2973TIP3   OH2 8861   1.018   1.798   3.234
 2973TIP3    H1 8862   0.985   1.713   3.204
 2973TIP3    H2 8863   1.044   1.843   3.154
 2974TIP3   OH2 8864   7.448   5.103   0.670
 2974TIP3    H1 8865   7.463   5.178   0.727
 2974TIP3    H2 8866   7.527   5.050   0.678
 2975TIP3   OH2 8867   5.426   1.066   4.248
 2975TIP3    H1 8868   5.394   0.985   4.209
 2975TIP3    H2 8869   5.508   1.084   4.204
 2976TIP3   OH2 8870   2.893   4.031   6.138
 2976TIP3    H1 8871   2.912   4.111   6.187
 2976TIP3    H2 8872   2.827   4.057   6.074
 2977TIP3   OH2 8873   0.748   6.560   5.746
 2977TIP3    H1 8874   0.756   6.500   5.820
 2977TIP3    H2 8875   0.762   6.647   5.785
 2978TIP3   OH2 8876   6.940   6.654   2.584
 2978TIP3    H1 8877   6.954   6.615   2.498
 2978TIP3    H2 8878   6.850   6.630   2.607
 2979TIP3   OH2 8879   3.397   7.386   2.111
 2979TIP3    H1 8880   3.322   7.337   2.144
 2979TIP3    H2 8881   3.473   7.338   2.145
 2980TIP3   OH2 8882   4.336   7.228   1.776
 2980TIP3    H1 8883   4.309   7.145   1.737
 2980TIP3    H2 8884   4.329   7.213   1.871
 2981TIP3   OH2 8885   3.632   5.303   5.630
 2981TIP3    H1 8886   3.568   5.353   5.680
 2981TIP3    H2 8887   3.708   5.361   5.624
 2982TIP3   OH2 8888   0.709   7.457   6.415
 2982TIP3    H1 8889   0.784   7.433   6.360
 2982TIP3    H2 8890   0.738   7.533   6.464
 2983TIP3   OH2 8891   1.787   2.943   4.626
 2983TIP3    H1 8892   1.697   2.911   4.623
 2983TIP3    H2 8893   1.813   2.933   4.718
 2984TIP3   OH2 8894   4.976   5.080   4.416
 2984TIP3    H1 8895   5.055   5.119   4.379
 2984TIP3    H2 8896   4.904   5.126   4.371
 2985TIP3   OH2 8897   5.349   5.371   6.647
 2985TIP3    H1 8898   5.259   5.366   6.678
 2985TIP3    H2 8899   5.356   5.299   6.583
 2986TIP3   OH2 8900   2.621   7.113   4.725
 2986TIP3    H1 8901   2.698   7.167   4.707
 2986TIP3    H2 8902   2.577   7.157   4.798
 2987TIP3   OH2 8903   5.060   2.907   2.417
 2987TIP3    H1 8904   4.976   2.903   2.371
 2987TIP3    H2 8905   5.037   2.925   2.508
 2988TIP3   OH2 8906   4.402   5.343   1.721
 2988TIP3    H1 8907   4.333   5.277   1.729
 2988TIP3    H2 8908   4.418   5.350   1.627
 2989TIP3   OH2 8909   5.070   1.102   2.665
 2989TIP3    H1 8910   4.995   1.140   2.621
 2989TIP3    H2 8911   5.143   1.161   2.644
 2990TIP3   OH2 8912   2.397   1.840   4.291
 2990TIP3    H1 8913   2.400   1.783   4.369
 2990TIP3    H2 8914   2.339   1.912   4.316
 2991TIP3   OH2 8915   2.084   2.829   6.204
 2991TIP3    H1 8916   2.083   2.861   6.294
 2991TIP3    H2 8917   2.177   2.815   6.185
 2992TIP3   OH2 8918   7.032   4.420   5.008
 2992TIP3    H1 8919   7.029   4.428   5.104
 2992TIP3    H2 8920   6.985   4.339   4.990
 2993TIP3   OH2 8921   4.212   4.202   2.041
 2993TIP3    H1 8922   4.261   4.174   1.964
 2993TIP3    H2 8923   4.246   4.290   2.060
 2994TIP3   OH2 8924   6.785   1.403   4.896
 2994TIP3    H1 8925   6.731   1.469   4.940
 2994TIP3    H2 8926   6.862   1.394   4.952
 2995TIP3   OH2 8927   7.984   3.618   5.280
 2995TIP3    H1 8928   8.015   3.537   5.239
 2995TIP3    H2 8929   8.020   3.688   5.225
 2996TIP3   OH2 8930   5.260   1.100   5.392
 2996TIP3    H1 8931   5.227   1.127   5.478
 2996TIP3    H2 8932   5.345   1.061   5.410
 2997TIP3   OH2 8933   7.462   2.091   0.093
 2997TIP3    H1 8934   7.466   2.171   0.040
 2997TIP3    H2 8935   7.522   2.030   0.050
 2998TIP3   OH2 8936   2.859   5.319   6.211
 2998TIP3    H1 8937   2.810   5.371   6.146
 2998TIP3    H2 8938   2.882   5.382   6.279
 2999TIP3   OH2 8939   6.608   5.985   2.368
 2999TIP3    H1 8940   6.684   5.991   2.427
 2999TIP3    H2 8941   6.615   6.063   2.313
 3000TIP3   OH2 8942   8.217   6.644   6.487
 3000TIP3    H1 8943   8.198   6.734   6.513
 3000TIP3    H2 8944   8.220   6.595   6.569
 3001TIP3   OH2 8945   7.870   5.518   2.701
 3001TIP3    H1 8946   7.919   5.570   2.764
 3001TIP3    H2 8947   7.934   5.495   2.634
 3002TIP3   OH2 8948   3.040   2.503   2.520
 3002TIP3    H1 8949   2.954   2.544   2.514
 3002TIP3    H2 8950   3.054   2.462   2.435
 3003TIP3   OH2 8951   1.509   5.641   1.665
 3003TIP3    H1 8952   1.462   5.559   1.675
 3003TIP3    H2 8953   1.465   5.702   1.723
 3004TIP3   OH2 8954   6.021   4.569   0.678
 3004TIP3    H1 8955   6.012   4.634   0.747
 3004TIP3    H2 8956   5.960   4.598   0.610
 3005TIP3   OH2 8957   1.592   2.306   5.174
 3005TIP3    H1 8958   1.659   2.336   5.236
 3005TIP3    H2 8959   1.602   2.363   5.098
 3006TIP3   OH2 8960   7.559   7.381   1.427
 3006TIP3    H1 8961   7.584   7.418   1.512
 3006TIP3    H2 8962   7.628   7.319   1.407
 3007TIP3   OH2 8963   0.763   1.487   2.093
 3007TIP3    H1 8964   0.808   1.534   2.164
 3007TIP3    H2 8965   0.834   1.448   2.042
 3008TIP3   OH2 8966   3.948   0.054   5.231
 3008TIP3    H1 8967   3.939   0.133   5.177
 3008TIP3    H2 8968   4.021   0.074   5.290
 3009TIP3   OH2 8969   8.217   4.740   2.115
 3009TIP3    H1 8970   8.269   4.705   2.187
 3009TIP3    H2 8971   8.129   4.750   2.152
 3010TIP3   OH2 8972   3.839   6.472   0.198
 3010TIP3    H1 8973   3.858   6.384   0.165
 3010TIP3    H2 8974   3.820   6.460   0.291
 3011TIP3   OH2 8975   3.667   4.376   3.770
 3011TIP3    H1 8976   3.706   4.405   3.853
 3011TIP3    H2 8977   3.730   4.404   3.704
 3012TIP3   OH2 8978   7.010   3.093   5.966
 3012TIP3    H1 8979   6.959   3.075   5.887
 3012TIP3    H2 8980   6.962   3.163   6.009
 3013TIP3   OH2 8981   7.928   0.148   4.893
 3013TIP3    H1 8982   7.939   0.197   4.812
 3013TIP3    H2 8983   7.867   0.199   4.945
 3014TIP3   OH2 8984   4.421   4.230   1.751
 3014TIP3    H1 8985   4.394   4.138   1.753
 3014TIP3    H2 8986   4.505   4.231   1.796
 3015TIP3   OH2 8987   4.883   0.264   1.067
 3015TIP3    H1 8988   4.938   0.243   0.992
 3015TIP3    H2 8989   4.899   0.193   1.130
 3016TIP3   OH2 8990   2.655   2.043   3.346
 3016TIP3    H1 8991   2.741   2.052   3.305
 3016TIP3    H2 8992   2.610   1.978   3.293
 3017TIP3   OH2 8993   4.411   0.401   4.019
 3017TIP3    H1 8994   4.464   0.427   3.944
 3017TIP3    H2 8995   4.473   0.363   4.081
 3018TIP3   OH2 8996   0.998   0.634   6.036
 3018TIP3    H1 8997   1.074   0.643   5.978
 3018TIP3    H2 8998   1.024   0.679   6.117
 3019TIP3   OH2 8999   6.438   2.709   1.638
 3019TIP3    H1 9000   6.413   2.661   1.559
 3019TIP3    H2 9001   6.464   2.796   1.605
 3020TIP3   OH2 9002   2.278   6.364   2.100
 3020TIP3    H1 9003   2.343   6.404   2.042
 3020TIP3    H2 9004   2.261   6.431   2.166
 3021TIP3   OH2 9005   6.171   6.097   6.389
 3021TIP3    H1 9006   6.193   6.131   6.302
 3021TIP3    H2 9007   6.183   6.002   6.381
 3022TIP3   OH2 9008   2.607   4.912   6.289
 3022TIP3    H1 9009   2.644   4.974   6.226
 3022TIP3    H2 9010   2.669   4.912   6.362
 3023TIP3   OH2 9011   5.942   5.986   0.088
 3023TIP3    H1 9012   6.002   6.049   0.128
 3023TIP3    H2 9013   5.963   5.903   0.131
 3024TIP3   OH2 9014   1.524   3.746   3.726
 3024TIP3    H1 9015   1.603   3.778   3.769
 3024TIP3    H2 9016   1.529   3.781   3.637
 3025TIP3   OH2 9017   4.547   6.448   2.059
 3025TIP3    H1 9018   4.556   6.361   2.021
 3025TIP3    H2 9019   4.604   6.446   2.136
 3026TIP3   OH2 9020   4.311   6.073   2.478
 3026TIP3    H1 9021   4.275   5.986   2.466
 3026TIP3    H2 9022   4.299   6.091   2.572
 3027TIP3   OH2 9023   7.744   4.079   6.008
 3027TIP3    H1 9024   7.818   4.019   6.000
 3027TIP3    H2 9025   7.721   4.101   5.918
 3028TIP3   OH2 9026   8.016   3.455   6.715
 3028TIP3    H1 9027   7.980   3.514   6.781
 3028TIP3    H2 9028   7.957   3.380   6.714
 3029TIP3   OH2 9029   0.174   6.889   5.954
 3029TIP3    H1 9030   0.107   6.820   5.958
 3029TIP3    H2 9031   0.124   6.970   5.945
 3030TIP3   OH2 9032   2.277   3.020   6.468
 3030TIP3    H1 9033   2.193   2.975   6.455
 3030TIP3    H2 9034   2.260   3.110   6.440
 3031TIP3   OH2 9035   3.306   2.829   4.641
 3031TIP3    H1 9036   3.234   2.766   4.653
 3031TIP3    H2 9037   3.336   2.813   4.551
 3032TIP3   OH2 9038   5.352   2.260   1.363
 3032TIP3    H1 9039   5.420   2.253   1.431
 3032TIP3    H2 9040   5.322   2.351   1.370
 3033TIP3   OH2 9041   0.102   2.399   3.115
 3033TIP3    H1 9042   0.151   2.392   3.197
 3033TIP3    H2 9043   0.060   2.314   3.104
 3034TIP3   OH2 9044   8.179   1.259   4.495
 3034TIP3    H1 9045   8.146   1.301   4.574
 3034TIP3    H2 9046   8.143   1.170   4.498
 3035TIP3   OH2 9047   8.147   4.814   1.514
 3035TIP3    H1 9048   8.163   4.759   1.437
 3035TIP3    H2 9049   8.139   4.751   1.586
 3036TIP3   OH2 9050   2.708   5.312   2.977
 3036TIP3    H1 9051   2.804   5.321   2.979
 3036TIP3    H2 9052   2.681   5.365   2.903
 3037TIP3   OH2 9053   2.362   7.151   3.030
 3037TIP3    H1 9054   2.348   7.245   3.022
 3037TIP3    H2 9055   2.275   7.112   3.021
 3038TIP3   OH2 9056   3.371   3.554   6.206
 3038TIP3    H1 9057   3.305   3.490   6.234
 3038TIP3    H2 9058   3.350   3.571   6.114
 3039TIP3   OH2 9059   1.917   2.542   5.577
 3039TIP3    H1 9060   1.929   2.620   5.631
 3039TIP3    H2 9061   1.993   2.487   5.597
 3040TIP3   OH2 9062   2.214   7.331   6.206
 3040TIP3    H1 9063   2.280   7.269   6.177
 3040TIP3    H2 9064   2.226   7.338   6.300
 3041TIP3   OH2 9065   1.895   0.340   3.300
 3041TIP3    H1 9066   1.906   0.290   3.220
 3041TIP3    H2 9067   1.878   0.430   3.270
 3042TIP3   OH2 9068   2.093   1.675   6.186
 3042TIP3    H1 9069   2.098   1.620   6.108
 3042TIP3    H2 9070   2.170   1.652   6.237
 3043TIP3   OH2 9071   3.766   5.330   5.896
 3043TIP3    H1 9072   3.830   5.330   5.826
 3043TIP3    H2 9073   3.818   5.341   5.976
 3044TIP3   OH2 9074   0.242   4.656   4.771
 3044TIP3    H1 9075   0.218   4.623   4.858
 3044TIP3    H2 9076   0.231   4.581   4.713
 3045TIP3   OH2 9077   4.822   2.128   6.033
 3045TIP3    H1 9078   4.914   2.115   6.008
 3045TIP3    H2 9079   4.786   2.039   6.038
 3046TIP3   OH2 9080   0.412   4.033   0.660
 3046TIP3    H1 9081   0.482   4.098   0.671
 3046TIP3    H2 9082   0.332   4.084   0.657
 3047TIP3   OH2 9083   3.508   3.657   4.777
 3047TIP3    H1 9084   3.439   3.709   4.819
 3047TIP3    H2 9085   3.508   3.686   4.685
 3048TIP3   OH2 9086   5.937   5.750   4.886
 3048TIP3    H1 9087   5.920   5.723   4.976
 3048TIP3    H2 9088   5.853   5.785   4.855
 3049TIP3   OH2 9089   1.923   5.765   3.933
 3049TIP3    H1 9090   1.859   5.818   3.981
 3049TIP3    H2 9091   2.008   5.797   3.963
 3050TIP3   OH2 9092   8.015   5.474   0.829
 3050TIP3    H1 9093   7.975   5.446   0.747
 3050TIP3    H2 9094   8.089   5.414   0.841
 3051TIP3   OH2 9095   0.588   4.081   3.072
 3051TIP3    H1 9096   0.613   4.050   3.159
 3051TIP3    H2 9097   0.494   4.095   3.077
 3052TIP3   OH2 9098   7.229   0.648   3.373
 3052TIP3    H1 9099   7.176   0.673   3.297
 3052TIP3    H2 9100   7.209   0.556   3.386
 3053TIP3   OH2 9101   5.600   6.693   4.600
 3053TIP3    H1 9102   5.510   6.726   4.612
 3053TIP3    H2 9103   5.604   6.669   4.508
 3054TIP3   OH2 9104   4.137   5.377   1.933
 3054TIP3    H1 9105   4.169   5.318   2.002
 3054TIP3    H2 9106   4.062   5.332   1.896
 3055TIP3   OH2 9107   6.909   6.308   1.037
 3055TIP3    H1 9108   6.902   6.293   0.943
 3055TIP3    H2 9109   6.820   6.295   1.070
 3056TIP3   OH2 9110   5.500   0.393   5.309
 3056TIP3    H1 9111   5.410   0.386   5.342
 3056TIP3    H2 9112   5.496   0.353   5.222
 3057TIP3   OH2 9113   3.688   6.390   1.542
 3057TIP3    H1 9114   3.753   6.373   1.611
 3057TIP3    H2 9115   3.667   6.303   1.507
 3058TIP3   OH2 9116   3.180   0.243   5.539
 3058TIP3    H1 9117   3.145   0.305   5.475
 3058TIP3    H2 9118   3.105   0.189   5.564
 3059TIP3   OH2 9119   6.895   1.239   6.081
 3059TIP3    H1 9120   6.955   1.213   6.150
 3059TIP3    H2 9121   6.951   1.251   6.004
 3060TIP3   OH2 9122   3.307   1.600   6.724
 3060TIP3    H1 9123   3.239   1.652   6.766
 3060TIP3    H2 9124   3.259   1.538   6.668
 3061TIP3   OH2 9125   6.399   5.325   6.402
 3061TIP3    H1 9126   6.338   5.353   6.471
 3061TIP3    H2 9127   6.477   5.379   6.417
 3062TIP3   OH2 9128   4.315   4.344   1.528
 3062TIP3    H1 9129   4.368   4.304   1.597
 3062TIP3    H2 9130   4.366   4.333   1.448
 3063TIP3   OH2 9131   7.205   6.250   2.561
 3063TIP3    H1 9132   7.260   6.220   2.634
 3063TIP3    H2 9133   7.135   6.184   2.555
 3064TIP3   OH2 9134   4.534   4.500   0.137
 3064TIP3    H1 9135   4.591   4.563   0.182
 3064TIP3    H2 9136   4.448   4.542   0.137
 3065TIP3   OH2 9137   6.573   6.921   1.061
 3065TIP3    H1 9138   6.532   6.986   1.118
 3065TIP3    H2 9139   6.651   6.965   1.027
 3066TIP3   OH2 9140   6.561   2.120   3.147
 3066TIP3    H1 9141   6.646   2.075   3.139
 3066TIP3    H2 9142   6.497   2.052   3.128
 3067TIP3   OH2 9143   2.402   2.380   0.202
 3067TIP3    H1 9144   2.334   2.447   0.207
 3067TIP3    H2 9145   2.446   2.384   0.287
 3068TIP3   OH2 9146   6.430   3.462   5.034
 3068TIP3    H1 9147   6.369   3.515   5.085
 3068TIP3    H2 9148   6.421   3.374   5.070
 3069TIP3   OH2 9149   8.198   4.054   0.475
 3069TIP3    H1 9150   8.232   4.069   0.387
 3069TIP3    H2 9151   8.272   4.017   0.523
 3070TIP3   OH2 9152   7.840   6.719   1.664
 3070TIP3    H1 9153   7.824   6.758   1.578
 3070TIP3    H2 9154   7.862   6.793   1.721
 3071TIP3   OH2 9155   4.246   2.036   3.422
 3071TIP3    H1 9156   4.164   2.004   3.386
 3071TIP3    H2 9157   4.222   2.075   3.506
 3072TIP3   OH2 9158   1.895   4.924   2.218
 3072TIP3    H1 9159   1.855   4.846   2.257
 3072TIP3    H2 9160   1.986   4.920   2.247
 3073TIP3   OH2 9161   6.952   2.297   1.644
 3073TIP3    H1 9162   6.860   2.271   1.635
 3073TIP3    H2 9163   6.948   2.392   1.655
 3074TIP3   OH2 9164   3.004   7.282   5.523
 3074TIP3    H1 9165   2.952   7.343   5.577
 3074TIP3    H2 9166   2.967   7.290   5.435
 3075TIP3   OH2 9167   5.389   5.966   0.272
 3075TIP3    H1 9168   5.378   5.924   0.357
 3075TIP3    H2 9169   5.416   6.056   0.292
 3076TIP3   OH2 9170   0.445   7.216   3.186
 3076TIP3    H1 9171   0.371   7.211   3.245
 3076TIP3    H2 9172   0.406   7.221   3.099
 3077TIP3   OH2 9173   4.240   0.139   4.573
 3077TIP3    H1 9174   4.149   0.111   4.565
 3077TIP3    H2 9175   4.238   0.204   4.643
 3078TIP3   OH2 9176   7.848   2.259   4.681
 3078TIP3    H1 9177   7.926   2.291   4.637
 3078TIP3    H2 9178   7.832   2.172   4.643
 3079TIP3   OH2 9179   3.055   5.963   0.622
 3079TIP3    H1 9180   3.072   5.927   0.535
 3079TIP3    H2 9181   2.988   5.906   0.659
 3080TIP3   OH2 9182   7.269   5.111   3.643
 3080TIP3    H1 9183   7.328   5.149   3.577
 3080TIP3    H2 9184   7.268   5.175   3.714
 3081TIP3   OH2 9185   5.175   7.344   3.160
 3081TIP3    H1 9186   5.080   7.341   3.150
 3081TIP3    H2 9187   5.204   7.407   3.095
 3082TIP3   OH2 9188   0.214   0.769   5.764
 3082TIP3    H1 9189   0.192   0.700   5.826
 3082TIP3    H2 9190   0.292   0.737   5.719
 3083TIP3   OH2 9191   6.219   5.661   2.131
 3083TIP3    H1 9192   6.168   5.628   2.057
 3083TIP3    H2 9193   6.187   5.750   2.144
 3084TIP3   OH2 9194   6.116   5.311   0.862
 3084TIP3    H1 9195   6.054   5.324   0.791
 3084TIP3    H2 9196   6.108   5.218   0.885
 3085TIP3   OH2 9197   7.722   3.095   0.895
 3085TIP3    H1 9198   7.793   3.108   0.958
 3085TIP3    H2 9199   7.739   3.158   0.825
 3086TIP3   OH2 9200   2.183   6.865   4.293
 3086TIP3    H1 9201   2.276   6.847   4.310
 3086TIP3    H2 9202   2.156   6.798   4.231
 3087TIP3   OH2 9203   4.082   0.158   1.610
 3087TIP3    H1 9204   4.166   0.147   1.653
 3087TIP3    H2 9205   4.053   0.246   1.636
 3088TIP3   OH2 9206   3.919   5.720   2.453
 3088TIP3    H1 9207   3.998   5.673   2.426
 3088TIP3    H2 9208   3.885   5.759   2.372
 3089TIP3   OH2 9209   1.046   0.234   0.683
 3089TIP3    H1 9210   1.049   0.152   0.634
 3089TIP3    H2 9211   0.994   0.293   0.629
 3090TIP3   OH2 9212   1.796   1.533   0.172
 3090TIP3    H1 9213   1.879   1.487   0.165
 3090TIP3    H2 9214   1.731   1.469   0.143
 3091TIP3   OH2 9215   1.417   2.772   0.979
 3091TIP3    H1 9216   1.437   2.695   0.927
 3091TIP3    H2 9217   1.480   2.838   0.950
 3092TIP3   OH2 9218   1.499   6.627   5.830
 3092TIP3    H1 9219   1.594   6.617   5.826
 3092TIP3    H2 9220   1.464   6.543   5.801
 3093TIP3   OH2 9221   1.150   2.731   5.274
 3093TIP3    H1 9222   1.226   2.679   5.248
 3093TIP3    H2 9223   1.094   2.669   5.322
 3094TIP3   OH2 9224   2.599   1.192   3.617
 3094TIP3    H1 9225   2.510   1.189   3.652
 3094TIP3    H2 9226   2.601   1.123   3.551
 3095TIP3   OH2 9227   0.612   4.513   3.389
 3095TIP3    H1 9228   0.619   4.421   3.414
 3095TIP3    H2 9229   0.520   4.535   3.406
 3096TIP3   OH2 9230   4.688   3.491   0.233
 3096TIP3    H1 9231   4.650   3.487   0.145
 3096TIP3    H2 9232   4.765   3.434   0.229
 3097TIP3   OH2 9233   5.361   0.790   1.896
 3097TIP3    H1 9234   5.328   0.774   1.985
 3097TIP3    H2 9235   5.404   0.708   1.872
 3098TIP3   OH2 9236   4.487   5.282   0.563
 3098TIP3    H1 9237   4.418   5.342   0.535
 3098TIP3    H2 9238   4.545   5.276   0.486
 3099TIP3   OH2 9239   5.622   3.313   4.550
 3099TIP3    H1 9240   5.527   3.321   4.561
 3099TIP3    H2 9241   5.649   3.254   4.620
 3100TIP3   OH2 9242   4.695   6.210   6.578
 3100TIP3    H1 9243   4.642   6.280   6.618
 3100TIP3    H2 9244   4.736   6.167   6.652
 3101TIP3   OH2 9245   3.395   1.695   4.046
 3101TIP3    H1 9246   3.304   1.724   4.037
 3101TIP3    H2 9247   3.440   1.740   3.974
 3102TIP3   OH2 9248   4.086   0.763   0.675
 3102TIP3    H1 9249   4.139   0.727   0.604
 3102TIP3    H2 9250   4.030   0.690   0.702
 3103TIP3   OH2 9251   2.233   5.001   2.055
 3103TIP3    H1 9252   2.175   5.066   2.096
 3103TIP3    H2 9253   2.214   5.007   1.962
 3104TIP3   OH2 9254   6.216   5.084   3.970
 3104TIP3    H1 9255   6.213   5.179   3.956
 3104TIP3    H2 9256   6.307   5.067   3.994
 3105TIP3   OH2 9257   2.667   5.400   6.551
 3105TIP3    H1 9258   2.709   5.400   6.637
 3105TIP3    H2 9259   2.732   5.439   6.493
 3106TIP3   OH2 9260   3.990   5.217   0.121
 3106TIP3    H1 9261   3.901   5.249   0.136
 3106TIP3    H2 9262   4.015   5.176   0.204
 3107TIP3   OH2 9263   1.543   2.522   1.632
 3107TIP3    H1 9264   1.624   2.555   1.670
 3107TIP3    H2 9265   1.572   2.455   1.569
 3108TIP3   OH2 9266   3.913   6.818   3.358
 3108TIP3    H1 9267   3.932   6.738   3.407
 3108TIP3    H2 9268   3.960   6.807   3.275
 3109TIP3   OH2 9269   3.512   1.224   5.078
 3109TIP3    H1 9270   3.495   1.315   5.103
 3109TIP3    H2 9271   3.510   1.176   5.161
 3110TIP3   OH2 9272   0.271   2.608   0.601
 3110TIP3    H1 9273   0.249   2.525   0.644
 3110TIP3    H2 9274   0.199   2.667   0.625
 3111TIP3   OH2 9275   0.235   3.187   2.440
 3111TIP3    H1 9276   0.248   3.095   2.463
 3111TIP3    H2 9277   0.319   3.215   2.404
 3112TIP3   OH2 9278   1.207   1.364   1.041
 3112TIP3    H1 9279   1.237   1.355   0.951
 3112TIP3    H2 9280   1.112   1.357   1.036
 3113TIP3   OH2 9281   3.872   7.357   3.074
 3113TIP3    H1 9282   3.834   7.363   2.986
 3113TIP3    H2 9283   3.920   7.439   3.085
 3114TIP3   OH2 9284   3.925   0.539   0.609
 3114TIP3    H1 9285   3.853   0.476   0.604
 3114TIP3    H2 9286   4.004   0.486   0.599
 3115TIP3   OH2 9287   4.379   6.265   4.081
 3115TIP3    H1 9288   4.297   6.222   4.106
 3115TIP3    H2 9289   4.401   6.227   3.996
 3116TIP3   OH2 9290   3.825   0.354   2.347
 3116TIP3    H1 9291   3.842   0.403   2.428
 3116TIP3    H2 9292   3.887   0.389   2.284
 3117TIP3   OH2 9293   4.318   0.792   4.765
 3117TIP3    H1 9294   4.233   0.790   4.722
 3117TIP3    H2 9295   4.311   0.863   4.829
 3118TIP3   OH2 9296   0.729   1.057   4.083
 3118TIP3    H1 9297   0.690   1.091   4.003
 3118TIP3    H2 9298   0.695   1.113   4.153
 3119TIP3   OH2 9299   0.105   1.662   4.919
 3119TIP3    H1 9300   0.160   1.737   4.943
 3119TIP3    H2 9301   0.161   1.610   4.862
 3120TIP3   OH2 9302   4.841   4.891   3.088
 3120TIP3    H1 9303   4.767   4.881   3.148
 3120TIP3    H2 9304   4.862   4.984   3.092
 3121TIP3   OH2 9305   7.030   1.031   2.249
 3121TIP3    H1 9306   6.951   1.005   2.201
 3121TIP3    H2 9307   7.005   1.027   2.341
 3122TIP3   OH2 9308   7.804   5.846   5.078
 3122TIP3    H1 9309   7.896   5.819   5.069
 3122TIP3    H2 9310   7.762   5.815   4.998
 3123TIP3   OH2 9311   0.341   5.107   1.016
 3123TIP3    H1 9312   0.299   5.022   1.008
 3123TIP3    H2 9313   0.399   5.098   1.091
 3124TIP3   OH2 9314   7.017   5.725   5.627
 3124TIP3    H1 9315   7.092   5.732   5.569
 3124TIP3    H2 9316   7.003   5.631   5.636
 3125TIP3   OH2 9317   4.621   3.586   2.210
 3125TIP3    H1 9318   4.541   3.551   2.171
 3125TIP3    H2 9319   4.614   3.561   2.303
 3126TIP3   OH2 9320   3.400   0.732   2.207
 3126TIP3    H1 9321   3.307   0.731   2.230
 3126TIP3    H2 9322   3.428   0.822   2.228
 3127TIP3   OH2 9323   6.680   4.402   2.598
 3127TIP3    H1 9324   6.655   4.434   2.685
 3127TIP3    H2 9325   6.613   4.437   2.539
 3128TIP3   OH2 9326   0.884   0.443   2.806
 3128TIP3    H1 9327   0.790   0.437   2.790
 3128TIP3    H2 9328   0.923   0.385   2.740
 3129TIP3   OH2 9329   0.995   4.954   0.694
 3129TIP3    H1 9330   1.089   4.970   0.684
 3129TIP3    H2 9331   0.954   5.034   0.662
 3130TIP3   OH2 9332   1.040   0.168   6.701
 3130TIP3    H1 9333   0.970   0.104   6.691
 3130TIP3    H2 9334   1.118   0.123   6.671
 3131TIP3   OH2 9335   6.903   6.983   1.184
 3131TIP3    H1 9336   6.909   6.900   1.138
 3131TIP3    H2 9337   6.913   6.961   1.276
 3132TIP3   OH2 9338   1.287   2.452   3.494
 3132TIP3    H1 9339   1.263   2.545   3.500
 3132TIP3    H2 9340   1.217   2.413   3.441
 3133TIP3   OH2 9341   0.884   2.542   6.202
 3133TIP3    H1 9342   0.925   2.518   6.285
 3133TIP3    H2 9343   0.807   2.485   6.197
 3134TIP3   OH2 9344   3.102   6.924   2.995
 3134TIP3    H1 9345   3.065   7.004   2.958
 3134TIP3    H2 9346   3.102   6.862   2.923
 3135TIP3   OH2 9347   5.610   6.503   5.327
 3135TIP3    H1 9348   5.607   6.492   5.232
 3135TIP3    H2 9349   5.591   6.416   5.362
 3136TIP3   OH2 9350   5.821   3.803   2.058
 3136TIP3    H1 9351   5.800   3.749   2.135
 3136TIP3    H2 9352   5.799   3.748   1.983
 3137TIP3   OH2 9353   7.549   3.127   2.791
 3137TIP3    H1 9354   7.536   3.039   2.826
 3137TIP3    H2 9355   7.644   3.135   2.782
 3138TIP3   OH2 9356   6.263   1.177   5.290
 3138TIP3    H1 9357   6.339   1.186   5.348
 3138TIP3    H2 9358   6.204   1.248   5.317
 3139TIP3   OH2 9359   3.879   3.199   0.576
 3139TIP3    H1 9360   3.898   3.206   0.670
 3139TIP3    H2 9361   3.966   3.197   0.535
 3140TIP3   OH2 9362   0.968   3.732   1.451
 3140TIP3    H1 9363   0.983   3.640   1.430
 3140TIP3    H2 9364   0.921   3.730   1.535
 3141TIP3   OH2 9365   6.369   2.133   4.438
 3141TIP3    H1 9366   6.345   2.188   4.513
 3141TIP3    H2 9367   6.295   2.143   4.377
 3142TIP3   OH2 9368   5.145   5.180   1.450
 3142TIP3    H1 9369   5.078   5.165   1.517
 3142TIP3    H2 9370   5.107   5.249   1.395
 3143TIP3   OH2 9371   6.353   2.682   2.038
 3143TIP3    H1 9372   6.260   2.695   2.055
 3143TIP3    H2 9373   6.393   2.675   2.125
 3144TIP3   OH2 9374   1.641   3.571   1.458
 3144TIP3    H1 9375   1.684   3.638   1.512
 3144TIP3    H2 9376   1.611   3.619   1.381
 3145TIP3   OH2 9377   7.037   1.575   4.727
 3145TIP3    H1 9378   7.039   1.508   4.659
 3145TIP3    H2 9379   7.112   1.555   4.783
 3146TIP3   OH2 9380   3.143   6.008   5.520
 3146TIP3    H1 9381   3.233   6.022   5.551
 3146TIP3    H2 9382   3.139   5.915   5.498
 3147TIP3   OH2 9383   0.089   5.841   4.237
 3147TIP3    H1 9384   0.184   5.847   4.244
 3147TIP3    H2 9385   0.068   5.752   4.263
 3148TIP3   OH2 9386   5.433   0.079   2.574
 3148TIP3    H1 9387   5.359   0.046   2.625
 3148TIP3    H2 9388   5.471   0.149   2.628
 3149TIP3   OH2 9389   7.295   3.627   3.974
 3149TIP3    H1 9390   7.206   3.614   3.940
 3149TIP3    H2 9391   7.324   3.709   3.935
 3150TIP3   OH2 9392   1.242   3.440   5.463
 3150TIP3    H1 9393   1.240   3.503   5.535
 3150TIP3    H2 9394   1.197   3.363   5.496
 3151TIP3   OH2 9395   0.164   1.313   1.105
 3151TIP3    H1 9396   0.099   1.294   1.037
 3151TIP3    H2 9397   0.117   1.304   1.187
 3152TIP3   OH2 9398   1.555   2.087   2.312
 3152TIP3    H1 9399   1.638   2.043   2.331
 3152TIP3    H2 9400   1.548   2.084   2.216
 3153TIP3   OH2 9401   7.358   6.490   2.588
 3153TIP3    H1 9402   7.328   6.400   2.602
 3153TIP3    H2 9403   7.337   6.508   2.496
 3154TIP3   OH2 9404   3.708   0.806   5.284
 3154TIP3    H1 9405   3.773   0.819   5.353
 3154TIP3    H2 9406   3.752   0.747   5.221
 3155TIP3   OH2 9407   3.472   1.731   1.137
 3155TIP3    H1 9408   3.384   1.754   1.167
 3155TIP3    H2 9409   3.530   1.770   1.202
 3156TIP3   OH2 9410   3.499   3.824   1.010
 3156TIP3    H1 9411   3.495   3.774   0.928
 3156TIP3    H2 9412   3.588   3.857   1.014
 3157TIP3   OH2 9413   6.604   6.244   5.798
 3157TIP3    H1 9414   6.551   6.178   5.841
 3157TIP3    H2 9415   6.547   6.321   5.791
 3158TIP3   OH2 9416   5.640   3.491   1.856
 3158TIP3    H1 9417   5.706   3.560   1.847
 3158TIP3    H2 9418   5.668   3.442   1.933
 3159TIP3   OH2 9419   1.217   0.469   4.433
 3159TIP3    H1 9420   1.166   0.502   4.358
 3159TIP3    H2 9421   1.305   0.455   4.397
 3160TIP3   OH2 9422   1.532   3.498   4.655
 3160TIP3    H1 9423   1.523   3.592   4.641
 3160TIP3    H2 9424   1.627   3.484   4.665
 3161TIP3   OH2 9425   7.337   3.448   0.303
 3161TIP3    H1 9426   7.296   3.392   0.238
 3161TIP3    H2 9427   7.285   3.436   0.382
 3162TIP3   OH2 9428   5.456   3.735   0.852
 3162TIP3    H1 9429   5.360   3.726   0.854
 3162TIP3    H2 9430   5.471   3.827   0.829
 3163TIP3   OH2 9431   3.732   2.411   4.748
 3163TIP3    H1 9432   3.695   2.499   4.743
 3163TIP3    H2 9433   3.824   2.424   4.770
 3164TIP3   OH2 9434   1.433   3.223   3.168
 3164TIP3    H1 9435   1.357   3.247   3.116
 3164TIP3    H2 9436   1.508   3.239   3.110
 3165TIP3   OH2 9437   5.707   0.183   1.248
 3165TIP3    H1 9438   5.749   0.187   1.334
 3165TIP3    H2 9439   5.730   0.097   1.214
 3166TIP3   OH2 9440   5.078   2.869   5.583
 3166TIP3    H1 9441   5.170   2.876   5.561
 3166TIP3    H2 9442   5.055   2.778   5.561
 3167TIP3   OH2 9443   5.819   3.162   5.548
 3167TIP3    H1 9444   5.745   3.223   5.547
 3167TIP3    H2 9445   5.881   3.202   5.609
 3168TIP3   OH2 9446   4.099   3.860   6.206
 3168TIP3    H1 9447   4.160   3.897   6.142
 3168TIP3    H2 9448   4.116   3.910   6.286
 3169TIP3   OH2 9449   4.753   3.422   5.568
 3169TIP3    H1 9450   4.724   3.483   5.635
 3169TIP3    H2 9451   4.682   3.359   5.559
 3170TIP3   OH2 9452   4.526   1.565   0.109
 3170TIP3    H1 9453   4.465   1.527   0.173
 3170TIP3    H2 9454   4.494   1.655   0.097
 3171TIP3   OH2 9455   1.494   4.457   6.066
 3171TIP3    H1 9456   1.415   4.416   6.032
 3171TIP3    H2 9457   1.496   4.543   6.024
 3172TIP3   OH2 9458   6.923   3.077   5.441
 3172TIP3    H1 9459   6.999   3.040   5.396
 3172TIP3    H2 9460   6.849   3.059   5.383
 3173TIP3   OH2 9461   1.029   3.632   0.954
 3173TIP3    H1 9462   0.980   3.714   0.951
 3173TIP3    H2 9463   1.112   3.656   0.996
 3174TIP3   OH2 9464   5.882   5.079   1.146
 3174TIP3    H1 9465   5.814   5.035   1.094
 3174TIP3    H2 9466   5.953   5.095   1.084
 3175TIP3   OH2 9467   2.451   2.452   1.274
 3175TIP3    H1 9468   2.462   2.486   1.185
 3175TIP3    H2 9469   2.408   2.367   1.262
 3176TIP3   OH2 9470   6.490   4.367   2.930
 3176TIP3    H1 9471   6.457   4.369   3.019
 3176TIP3    H2 9472   6.426   4.313   2.882
 3177TIP3   OH2 9473   3.556  -0.026   4.093
 3177TIP3    H1 9474   3.535   0.057   4.136
 3177TIP3    H2 9475   3.521  -0.017   4.004
 3178TIP3   OH2 9476   0.839   4.552   4.159
 3178TIP3    H1 9477   0.797   4.638   4.165
 3178TIP3    H2 9478   0.856   4.527   4.250
 3179TIP3   OH2 9479   0.118   7.179   4.312
 3179TIP3    H1 9480   0.149   7.266   4.337
 3179TIP3    H2 9481   0.045   7.161   4.371
 3180TIP3   OH2 9482   1.961   7.354   3.326
 3180TIP3    H1 9483   1.943   7.347   3.419
 3180TIP3    H2 9484   2.055   7.336   3.317
 3181TIP3   OH2 9485   5.492   3.703   3.299
 3181TIP3    H1 9486   5.442   3.678   3.377
 3181TIP3    H2 9487   5.477   3.797   3.290
 3182TIP3   OH2 9488   6.219   2.807   1.769
 3182TIP3    H1 9489   6.271   2.868   1.822
 3182TIP3    H2 9490   6.282   2.767   1.710
 3183TIP3   OH2 9491   0.548   7.074   2.493
 3183TIP3    H1 9492   0.565   7.019   2.569
 3183TIP3    H2 9493   0.582   7.025   2.419
 3184TIP3   OH2 9494   2.288   6.592   1.502
 3184TIP3    H1 9495   2.263   6.500   1.490
 3184TIP3    H2 9496   2.231   6.640   1.443
 3185TIP3   OH2 9497   0.998   3.952   2.530
 3185TIP3    H1 9498   0.982   3.884   2.464
 3185TIP3    H2 9499   0.948   3.923   2.607
 3186TIP3   OH2 9500   5.752   2.698   1.524
 3186TIP3    H1 9501   5.839   2.738   1.533
 3186TIP3    H2 9502   5.714   2.740   1.447
 3187TIP3   OH2 9503   5.498   4.349   0.786
 3187TIP3    H1 9504   5.545   4.322   0.865
 3187TIP3    H2 9505   5.412   4.376   0.818
 3188TIP3   OH2 9506   5.326   0.330   3.082
 3188TIP3    H1 9507   5.243   0.321   3.129
 3188TIP3    H2 9508   5.381   0.382   3.140
 3189TIP3   OH2 9509   7.557   5.602   5.716
 3189TIP3    H1 9510   7.637   5.563   5.680
 3189TIP3    H2 9511   7.537   5.548   5.793
 3190TIP3   OH2 9512   0.726  -0.009   4.494
 3190TIP3    H1 9513   0.797  -0.008   4.430
 3190TIP3    H2 9514   0.654   0.036   4.451
 3191TIP3   OH2 9515   3.472   2.858   0.122
 3191TIP3    H1 9516   3.480   2.790   0.055
 3191TIP3    H2 9517   3.394   2.834   0.171
 3192TIP3   OH2 9518   6.528   1.675   3.676
 3192TIP3    H1 9519   6.602   1.642   3.726
 3192TIP3    H2 9520   6.484   1.597   3.642
 3193TIP3   OH2 9521   1.507   1.948   0.074
 3193TIP3    H1 9522   1.413   1.961   0.086
 3193TIP3    H2 9523   1.515   1.859   0.038
 3194TIP3   OH2 9524   3.267   3.226   2.161
 3194TIP3    H1 9525   3.180   3.237   2.123
 3194TIP3    H2 9526   3.312   3.308   2.142
 3195TIP3   OH2 9527   4.399   3.828   6.272
 3195TIP3    H1 9528   4.380   3.895   6.207
 3195TIP3    H2 9529   4.367   3.864   6.355
 3196TIP3   OH2 9530   2.466   2.252   1.605
 3196TIP3    H1 9531   2.409   2.329   1.611
 3196TIP3    H2 9532   2.548   2.280   1.647
 3197TIP3   OH2 9533   7.039   2.960   5.224
 3197TIP3    H1 9534   7.024   3.021   5.152
 3197TIP3    H2 9535   6.964   2.900   5.221
 3198TIP3   OH2 9536   1.020   6.268   3.579
 3198TIP3    H1 9537   0.984   6.192   3.625
 3198TIP3    H2 9538   0.955   6.290   3.513
 3199TIP3   OH2 9539   1.476   3.365   4.070
 3199TIP3    H1 9540   1.482   3.273   4.095
 3199TIP3    H2 9541   1.404   3.400   4.123
 3200TIP3   OH2 9542   0.851   2.964   1.472
 3200TIP3    H1 9543   0.805   3.048   1.475
 3200TIP3    H2 9544   0.941   2.986   1.452
 3201TIP3   OH2 9545   8.120   6.394   0.560
 3201TIP3    H1 9546   8.139   6.486   0.543
 3201TIP3    H2 9547   8.042   6.396   0.615
 3202TIP3   OH2 9548   4.135   2.494   0.799
 3202TIP3    H1 9549   4.205   2.555   0.776
 3202TIP3    H2 9550   4.055   2.545   0.790
 3203TIP3   OH2 9551   2.065   2.836   0.516
 3203TIP3    H1 9552   2.034   2.747   0.536
 3203TIP3    H2 9553   2.072   2.838   0.420
 3204TIP3   OH2 9554   6.468   3.794   4.995
 3204TIP3    H1 9555   6.551   3.793   5.042
 3204TIP3    H2 9556   6.484   3.850   4.919
 3205TIP3   OH2 9557   6.793   2.990   5.808
 3205TIP3    H1 9558   6.699   2.975   5.815
 3205TIP3    H2 9559   6.833   2.912   5.847
 3206TIP3   OH2 9560   7.277   2.891   1.746
 3206TIP3    H1 9561   7.239   2.841   1.674
 3206TIP3    H2 9562   7.278   2.982   1.715
 3207TIP3   OH2 9563   8.096   4.839   1.854
 3207TIP3    H1 9564   8.183   4.877   1.867
 3207TIP3    H2 9565   8.060   4.830   1.942
 3208TIP3   OH2 9566   3.110   0.596   6.602
 3208TIP3    H1 9567   3.021   0.600   6.567
 3208TIP3    H2 9568   3.098   0.593   6.697
 3209TIP3   OH2 9569   7.805   0.351   1.314
 3209TIP3    H1 9570   7.870   0.417   1.287
 3209TIP3    H2 9571   7.732   0.402   1.349
 3210TIP3   OH2 9572   4.990   3.399   2.772
 3210TIP3    H1 9573   5.033   3.324   2.813
 3210TIP3    H2 9574   4.968   3.369   2.684
 3211TIP3   OH2 9575   3.549   5.539   6.716
 3211TIP3    H1 9576   3.638   5.565   6.693
 3211TIP3    H2 9577   3.561   5.470   6.782
 3212TIP3   OH2 9578   6.305   7.629   2.599
 3212TIP3    H1 9579   6.386   7.674   2.573
 3212TIP3    H2 9580   6.235   7.685   2.566
 3213TIP3   OH2 9581   1.547   2.084   5.874
 3213TIP3    H1 9582   1.483   2.077   5.944
 3213TIP3    H2 9583   1.496   2.101   5.795
 3214TIP3   OH2 9584   8.236   6.875   0.921
 3214TIP3    H1 9585   8.149   6.894   0.887
 3214TIP3    H2 9586   8.279   6.960   0.928
 3215TIP3   OH2 9587   7.817   5.573   6.374
 3215TIP3    H1 9588   7.904   5.536   6.389
 3215TIP3    H2 9589   7.819   5.657   6.420
 3216TIP3   OH2 9590   7.671   7.016   5.873
 3216TIP3    H1 9591   7.586   6.975   5.889
 3216TIP3    H2 9592   7.679   7.082   5.942
 3217TIP3   OH2 9593   1.648   4.289   6.429
 3217TIP3    H1 9594   1.684   4.368   6.471
 3217TIP3    H2 9595   1.676   4.296   6.338
 3218TIP3   OH2 9596   0.527   7.458   2.746
 3218TIP3    H1 9597   0.476   7.539   2.748
 3218TIP3    H2 9598   0.617   7.488   2.733
 3219TIP3   OH2 9599   1.843   0.255   2.789
 3219TIP3    H1 9600   1.853   0.206   2.707
 3219TIP3    H2 9601   1.750   0.276   2.794
 3220TIP3   OH2 9602   3.499   1.017   2.565
 3220TIP3    H1 9603   3.523   0.928   2.593
 3220TIP3    H2 9604   3.465   1.006   2.476
 3221TIP3   OH2 9605   1.617   1.517   0.687
 3221TIP3    H1 9606   1.559   1.502   0.762
 3221TIP3    H2 9607   1.611   1.610   0.669
 3222TIP3   OH2 9608   3.414   0.954   0.620
 3222TIP3    H1 9609   3.388   0.940   0.711
 3222TIP3    H2 9610   3.332   0.976   0.575
 3223TIP3   OH2 9611   0.114   2.297   1.187
 3223TIP3    H1 9612   0.089   2.274   1.098
 3223TIP3    H2 9613   0.072   2.231   1.242
 3224TIP3   OH2 9614   2.479   7.835   2.758
 3224TIP3    H1 9615   2.438   7.870   2.837
 3224TIP3    H2 9616   2.517   7.752   2.786
 3225TIP3   OH2 9617   7.833   4.467   1.070
 3225TIP3    H1 9618   7.740   4.481   1.053
 3225TIP3    H2 9619   7.874   4.552   1.055
 3226TIP3   OH2 9620   4.752   1.750   0.867
 3226TIP3    H1 9621   4.733   1.664   0.905
 3226TIP3    H2 9622   4.697   1.754   0.789
 3227TIP3   OH2 9623   2.174   0.961   2.563
 3227TIP3    H1 9624   2.180   1.020   2.637
 3227TIP3    H2 9625   2.080   0.947   2.550
 3228TIP3   OH2 9626   0.751   1.291   2.972
 3228TIP3    H1 9627   0.667   1.253   3.000
 3228TIP3    H2 9628   0.734   1.385   2.965
 3229TIP3   OH2 9629   5.296   6.689   0.774
 3229TIP3    H1 9630   5.261   6.617   0.722
 3229TIP3    H2 9631   5.374   6.717   0.727
 3230TIP3   OH2 9632   1.131   6.237   2.899
 3230TIP3    H1 9633   1.204   6.230   2.836
 3230TIP3    H2 9634   1.082   6.314   2.869
 3231TIP3   OH2 9635   2.687   7.214   1.899
 3231TIP3    H1 9636   2.728   7.132   1.872
 3231TIP3    H2 9637   2.691   7.269   1.820
 3232TIP3   OH2 9638   2.843   4.470   3.551
 3232TIP3    H1 9639   2.928   4.427   3.543
 3232TIP3    H2 9640   2.816   4.453   3.641
 3233TIP3   OH2 9641   3.352   7.202   4.346
 3233TIP3    H1 9642   3.389   7.209   4.434
 3233TIP3    H2 9643   3.417   7.242   4.289
 3234TIP3   OH2 9644   2.971   4.247   5.204
 3234TIP3    H1 9645   2.975   4.169   5.259
 3234TIP3    H2 9646   2.935   4.315   5.262
 3235TIP3   OH2 9647   5.760   4.904   3.741
 3235TIP3    H1 9648   5.847   4.905   3.780
 3235TIP3    H2 9649   5.711   4.841   3.793
 3236TIP3   OH2 9650   3.447   0.544   4.170
 3236TIP3    H1 9651   3.450   0.624   4.224
 3236TIP3    H2 9652   3.539   0.525   4.152
 3237TIP3   OH2 9653   1.608   3.252   0.621
 3237TIP3    H1 9654   1.645   3.174   0.580
 3237TIP3    H2 9655   1.658   3.263   0.701
 3238TIP3   OH2 9656   3.445   5.331   1.729
 3238TIP3    H1 9657   3.422   5.238   1.720
 3238TIP3    H2 9658   3.430   5.350   1.822
 3239TIP3   OH2 9659   7.086   5.264   4.543
 3239TIP3    H1 9660   7.144   5.318   4.489
 3239TIP3    H2 9661   7.020   5.232   4.482
 3240TIP3   OH2 9662   1.693   1.779   0.778
 3240TIP3    H1 9663   1.771   1.787   0.833
 3240TIP3    H2 9664   1.704   1.846   0.710
 3241TIP3   OH2 9665   2.895   6.951   0.371
 3241TIP3    H1 9666   2.928   6.953   0.461
 3241TIP3    H2 9667   2.909   7.039   0.338
 3242TIP3   OH2 9668   0.699   3.175   5.873
 3242TIP3    H1 9669   0.682   3.235   5.800
 3242TIP3    H2 9670   0.789   3.147   5.859
 3243TIP3   OH2 9671   1.767   0.872   6.783
 3243TIP3    H1 9672   1.697   0.848   6.844
 3243TIP3    H2 9673   1.721   0.905   6.706
 3244TIP3   OH2 9674   4.909   1.457   4.800
 3244TIP3    H1 9675   4.972   1.514   4.844
 3244TIP3    H2 9676   4.963   1.408   4.737
 3245TIP3   OH2 9677   0.557   0.794   5.841
 3245TIP3    H1 9678   0.553   0.762   5.751
 3245TIP3    H2 9679   0.650   0.806   5.859
 3246TIP3   OH2 9680   6.438   0.710   1.047
 3246TIP3    H1 9681   6.462   0.629   1.003
 3246TIP3    H2 9682   6.510   0.770   1.028
 3247TIP3   OH2 9683   5.230   7.116   5.611
 3247TIP3    H1 9684   5.148   7.075   5.635
 3247TIP3    H2 9685   5.224   7.205   5.645
 3248TIP3   OH2 9686   3.520   4.952   5.896
 3248TIP3    H1 9687   3.556   4.879   5.946
 3248TIP3    H2 9688   3.541   5.030   5.948
 3249TIP3   OH2 9689   7.839   0.899   1.758
 3249TIP3    H1 9690   7.792   0.845   1.694
 3249TIP3    H2 9691   7.894   0.838   1.806
 3250TIP3   OH2 9692   1.843   6.282   5.769
 3250TIP3    H1 9693   1.790   6.331   5.706
 3250TIP3    H2 9694   1.866   6.201   5.723
 3251TIP3   OH2 9695   1.041   3.004   5.795
 3251TIP3    H1 9696   0.999   2.925   5.828
 3251TIP3    H2 9697   0.989   3.029   5.719
 3252TIP3   OH2 9698   7.578   1.414   5.156
 3252TIP3    H1 9699   7.565   1.353   5.228
 3252TIP3    H2 9700   7.614   1.493   5.198
 3253TIP3   OH2 9701   1.097   2.250   5.713
 3253TIP3    H1 9702   1.108   2.209   5.628
 3253TIP3    H2 9703   1.173   2.307   5.723
 3254TIP3   OH2 9704   7.977   1.410   6.331
 3254TIP3    H1 9705   7.913   1.390   6.263
 3254TIP3    H2 9706   7.957   1.348   6.401
 3255TIP3   OH2 9707   6.015   6.776   5.716
 3255TIP3    H1 9708   6.096   6.733   5.743
 3255TIP3    H2 9709   5.946   6.724   5.757
 3256TIP3   OH2 9710   7.682   3.292   4.669
 3256TIP3    H1 9711   7.774   3.316   4.669
 3256TIP3    H2 9712   7.660   3.283   4.576
 3257TIP3   OH2 9713   5.061   0.118   0.066
 3257TIP3    H1 9714   5.103   0.173   0.133
 3257TIP3    H2 9715   4.975   0.098   0.102
 3258TIP3   OH2 9716   7.147   2.713   0.488
 3258TIP3    H1 9717   7.178   2.645   0.427
 3258TIP3    H2 9718   7.053   2.716   0.475
 3259TIP3   OH2 9719   6.981   1.657   3.757
 3259TIP3    H1 9720   7.046   1.600   3.716
 3259TIP3    H2 9721   7.021   1.682   3.841
 3260TIP3   OH2 9722   3.603   7.710   3.086
 3260TIP3    H1 9723   3.669   7.700   3.017
 3260TIP3    H2 9724   3.599   7.804   3.102
 3261TIP3   OH2 9725   4.168   1.680   5.845
 3261TIP3    H1 9726   4.091   1.707   5.795
 3261TIP3    H2 9727   4.154   1.587   5.861
 3262TIP3   OH2 9728   0.894   0.105   3.593
 3262TIP3    H1 9729   0.957   0.062   3.535
 3262TIP3    H2 9730   0.946   0.167   3.644
 3263TIP3   OH2 9731   1.811   7.247   0.689
 3263TIP3    H1 9732   1.725   7.209   0.673
 3263TIP3    H2 9733   1.856   7.242   0.605
 3264TIP3   OH2 9734   1.079   0.195   5.159
 3264TIP3    H1 9735   1.063   0.283   5.194
 3264TIP3    H2 9736   1.016   0.139   5.205
 3265TIP3   OH2 9737   0.406   1.812   1.729
 3265TIP3    H1 9738   0.395   1.773   1.816
 3265TIP3    H2 9739   0.404   1.738   1.669
 3266TIP3   OH2 9740   7.870   7.019   0.582
 3266TIP3    H1 9741   7.824   6.946   0.624
 3266TIP3    H2 9742   7.879   6.991   0.490
 3267TIP3   OH2 9743   1.394   6.366   1.856
 3267TIP3    H1 9744   1.483   6.335   1.872
 3267TIP3    H2 9745   1.406   6.448   1.808
 3268TIP3   OH2 9746   4.372   5.354   2.703
 3268TIP3    H1 9747   4.355   5.270   2.658
 3268TIP3    H2 9748   4.467   5.363   2.700
 3269TIP3   OH2 9749   3.135   3.310   3.580
 3269TIP3    H1 9750   3.227   3.331   3.596
 3269TIP3    H2 9751   3.087   3.369   3.639
 3270TIP3   OH2 9752   1.621   4.713   0.561
 3270TIP3    H1 9753   1.640   4.745   0.649
 3270TIP3    H2 9754   1.526   4.725   0.552
 3271TIP3   OH2 9755   5.971   4.735   1.841
 3271TIP3    H1 9756   6.000   4.667   1.781
 3271TIP3    H2 9757   5.894   4.773   1.798
 3272TIP3   OH2 9758   6.580   6.107   3.186
 3272TIP3    H1 9759   6.494   6.088   3.222
 3272TIP3    H2 9760   6.598   6.197   3.214
 3273TIP3   OH2 9761   3.320   5.700   2.873
 3273TIP3    H1 9762   3.379   5.750   2.816
 3273TIP3    H2 9763   3.321   5.749   2.956
 3274TIP3   OH2 9764   7.315   4.919   6.630
 3274TIP3    H1 9765   7.278   4.861   6.695
 3274TIP3    H2 9766   7.268   5.002   6.641
 3275TIP3   OH2 9767   4.327   6.815   3.118
 3275TIP3    H1 9768   4.385   6.766   3.060
 3275TIP3    H2 9769   4.313   6.757   3.193
 3276TIP3   OH2 9770   7.101   7.404   2.367
 3276TIP3    H1 9771   7.179   7.441   2.408
 3276TIP3    H2 9772   7.028   7.446   2.412
 3277TIP3   OH2 9773   7.550   2.752   4.020
 3277TIP3    H1 9774   7.552   2.816   3.949
 3277TIP3    H2 9775   7.628   2.771   4.073
 3278TIP3   OH2 9776   5.918   3.799   5.668
 3278TIP3    H1 9777   6.008   3.830   5.684
 3278TIP3    H2 9778   5.924   3.750   5.586
 3279TIP3   OH2 9779   5.521   1.694   5.162
 3279TIP3    H1 9780   5.507   1.783   5.131
 3279TIP3    H2 9781   5.535   1.643   5.083
 3280TIP3   OH2 9782   2.645   3.867   5.737
 3280TIP3    H1 9783   2.642   3.958   5.768
 3280TIP3    H2 9784   2.579   3.822   5.789
 3281TIP3   OH2 9785   4.229   5.495   5.402
 3281TIP3    H1 9786   4.164   5.551   5.444
 3281TIP3    H2 9787   4.297   5.555   5.373
 3282TIP3   OH2 9788   4.525   1.482   4.264
 3282TIP3    H1 9789   4.436   1.449   4.253
 3282TIP3    H2 9790   4.574   1.407   4.298
 3283TIP3   OH2 9791   3.512   0.471   3.315
 3283TIP3    H1 9792   3.510   0.452   3.222
 3283TIP3    H2 9793   3.424   0.451   3.346
 3284TIP3   OH2 9794   1.773   2.860   6.641
 3284TIP3    H1 9795   1.854   2.900   6.612
 3284TIP3    H2 9796   1.704   2.914   6.601
 3285TIP3   OH2 9797   0.853   5.247   5.231
 3285TIP3    H1 9798   0.922   5.236   5.166
 3285TIP3    H2 9799   0.900   5.264   5.313
 3286TIP3   OH2 9800   7.948   1.462   5.325
 3286TIP3    H1 9801   7.870   1.509   5.353
 3286TIP3    H2 9802   8.013   1.478   5.393
 3287TIP3   OH2 9803   0.791   1.827   4.222
 3287TIP3    H1 9804   0.789   1.744   4.175
 3287TIP3    H2 9805   0.865   1.874   4.185
 3288TIP3   OH2 9806   1.504   1.566   4.403
 3288TIP3    H1 9807   1.574   1.578   4.339
 3288TIP3    H2 9808   1.545   1.585   4.488
 3289TIP3   OH2 9809   4.779   6.195   0.296
 3289TIP3    H1 9810   4.857   6.141   0.297
 3289TIP3    H2 9811   4.809   6.281   0.267
 3290TIP3   OH2 9812   0.470   6.816   1.585
 3290TIP3    H1 9813   0.481   6.902   1.624
 3290TIP3    H2 9814   0.409   6.771   1.644
 3291TIP3   OH2 9815   8.159   3.742   4.961
 3291TIP3    H1 9816   8.130   3.669   4.907
 3291TIP3    H2 9817   8.248   3.760   4.931
 3292TIP3   OH2 9818   7.462   4.376   3.156
 3292TIP3    H1 9819   7.367   4.372   3.171
 3292TIP3    H2 9820   7.471   4.377   3.060
 3293TIP3   OH2 9821   2.479   0.615   5.733
 3293TIP3    H1 9822   2.542   0.585   5.799
 3293TIP3    H2 9823   2.503   0.706   5.717
 3294TIP3   OH2 9824   0.224   6.748   4.625
 3294TIP3    H1 9825   0.195   6.669   4.670
 3294TIP3    H2 9826   0.156   6.813   4.642
 3295TIP3   OH2 9827   5.221   1.131   1.316
 3295TIP3    H1 9828   5.180   1.174   1.241
 3295TIP3    H2 9829   5.177   1.167   1.392
 3296TIP3   OH2 9830   3.739   7.705   3.324
 3296TIP3    H1 9831   3.768   7.795   3.309
 3296TIP3    H2 9832   3.704   7.677   3.239
 3297TIP3   OH2 9833   7.243   2.783   4.184
 3297TIP3    H1 9834   7.164   2.730   4.193
 3297TIP3    H2 9835   7.226   2.839   4.108
 3298TIP3   OH2 9836   7.411   1.341   3.384
 3298TIP3    H1 9837   7.427   1.309   3.296
 3298TIP3    H2 9838   7.316   1.354   3.388
 3299TIP3   OH2 9839   4.619   0.634   4.253
 3299TIP3    H1 9840   4.586   0.545   4.246
 3299TIP3    H2 9841   4.648   0.657   4.165
 3300TIP3   OH2 9842   3.644   1.615   4.648
 3300TIP3    H1 9843   3.664   1.698   4.606
 3300TIP3    H2 9844   3.606   1.639   4.732
 3301TIP3   OH2 9845   8.205   7.347   4.168
 3301TIP3    H1 9846   8.188   7.280   4.235
 3301TIP3    H2 9847   8.283   7.315   4.122
 3302TIP3   OH2 9848   6.838   5.507   4.979
 3302TIP3    H1 9849   6.769   5.570   4.958
 3302TIP3    H2 9850   6.802   5.455   5.051
 3303TIP3   OH2 9851   6.028   3.383   6.178
 3303TIP3    H1 9852   5.952   3.330   6.154
 3303TIP3    H2 9853   6.013   3.407   6.269
 3304TIP3   OH2 9854   2.144   3.019   5.739
 3304TIP3    H1 9855   2.108   2.996   5.824
 3304TIP3    H2 9856   2.094   2.967   5.676
 3305TIP3   OH2 9857   6.402   6.911   2.474
 3305TIP3    H1 9858   6.472   6.848   2.458
 3305TIP3    H2 9859   6.434   6.993   2.434
 3306TIP3   OH2 9860   2.608   0.821   5.462
 3306TIP3    H1 9861   2.574   0.740   5.423
 3306TIP3    H2 9862   2.570   0.891   5.409
 3307TIP3   OH2 9863   4.349   0.983   6.398
 3307TIP3    H1 9864   4.428   0.963   6.349
 3307TIP3    H2 9865   4.372   0.966   6.489
 3308TIP3   OH2 9866   5.548   6.163   0.483
 3308TIP3    H1 9867   5.611   6.091   0.481
 3308TIP3    H2 9868   5.482   6.135   0.546
 3309TIP3   OH2 9869   6.794   0.904   2.303
 3309TIP3    H1 9870   6.731   0.974   2.288
 3309TIP3    H2 9871   6.754   0.827   2.261
 3310TIP3   OH2 9872   0.745   0.809   5.371
 3310TIP3    H1 9873   0.722   0.729   5.418
 3310TIP3    H2 9874   0.675   0.820   5.307
 3311TIP3   OH2 9875   3.861   1.257   2.197
 3311TIP3    H1 9876   3.918   1.210   2.257
 3311TIP3    H2 9877   3.787   1.285   2.252
 3312TIP3   OH2 9878   7.848   2.382   2.113
 3312TIP3    H1 9879   7.884   2.466   2.142
 3312TIP3    H2 9880   7.837   2.392   2.019
 3313TIP3   OH2 9881   1.341   2.640   1.215
 3313TIP3    H1 9882   1.434   2.618   1.216
 3313TIP3    H2 9883   1.327   2.679   1.129
 3314TIP3   OH2 9884   0.046   3.271   3.834
 3314TIP3    H1 9885   0.019   3.224   3.755
 3314TIP3    H2 9886   0.134   3.240   3.852
 3315TIP3   OH2 9887   7.648   5.046   3.347
 3315TIP3    H1 9888   7.699   5.028   3.426
 3315TIP3    H2 9889   7.621   4.960   3.315
 3316TIP3   OH2 9890   6.853   6.298   5.430
 3316TIP3    H1 9891   6.891   6.320   5.515
 3316TIP3    H2 9892   6.773   6.250   5.452
 3317TIP3   OH2 9893   5.411   0.149   2.282
 3317TIP3    H1 9894   5.428   0.119   2.371
 3317TIP3    H2 9895   5.360   0.229   2.293
 3318TIP3   OH2 9896   3.085   0.202   2.833
 3318TIP3    H1 9897   3.122   0.113   2.829
 3318TIP3    H2 9898   3.023   0.198   2.906
 3319TIP3   OH2 9899   3.127   4.675   0.672
 3319TIP3    H1 9900   3.157   4.585   0.657
 3319TIP3    H2 9901   3.033   4.673   0.655
 3320TIP3   OH2 9902   2.487   0.412   6.738
 3320TIP3    H1 9903   2.558   0.368   6.691
 3320TIP3    H2 9904   2.501   0.388   6.830
 3321TIP3   OH2 9905   6.619   3.220   6.192
 3321TIP3    H1 9906   6.635   3.128   6.214
 3321TIP3    H2 9907   6.524   3.230   6.201
 3322TIP3   OH2 9908   8.146   7.718   0.465
 3322TIP3    H1 9909   8.060   7.744   0.498
 3322TIP3    H2 9910   8.141   7.623   0.456
 3323TIP3   OH2 9911   6.285   1.967   6.648
 3323TIP3    H1 9912   6.295   2.062   6.651
 3323TIP3    H2 9913   6.338   1.934   6.720
 3324TIP3   OH2 9914   6.210   1.175   0.072
 3324TIP3    H1 9915   6.202   1.270   0.063
 3324TIP3    H2 9916   6.303   1.159   0.087
 3325TIP3   OH2 9917   0.637   5.501   0.396
 3325TIP3    H1 9918   0.558   5.454   0.422
 3325TIP3    H2 9919   0.693   5.497   0.473
 3326TIP3   OH2 9920   3.082   5.291   3.499
 3326TIP3    H1 9921   2.988   5.297   3.479
 3326TIP3    H2 9922   3.089   5.327   3.588
 3327TIP3   OH2 9923   5.336   5.875   0.531
 3327TIP3    H1 9924   5.367   5.798   0.579
 3327TIP3    H2 9925   5.350   5.949   0.590
 3328TIP3   OH2 9926   2.285   0.882   4.790
 3328TIP3    H1 9927   2.267   0.974   4.808
 3328TIP3    H2 9928   2.213   0.835   4.833
 3329TIP3   OH2 9929   5.463   2.370   5.728
 3329TIP3    H1 9930   5.430   2.294   5.681
 3329TIP3    H2 9931   5.549   2.386   5.690
 3330TIP3   OH2 9932   2.312   6.509   3.713
 3330TIP3    H1 9933   2.356   6.583   3.755
 3330TIP3    H2 9934   2.330   6.521   3.620
 3331TIP3   OH2 9935   3.500   4.861   6.666
 3331TIP3    H1 9936   3.512   4.955   6.675
 3331TIP3    H2 9937   3.554   4.823   6.735
 3332TIP3   OH2 9938   5.152   5.932   3.931
 3332TIP3    H1 9939   5.198   5.858   3.970
 3332TIP3    H2 9940   5.154   5.913   3.837
 3333TIP3   OH2 9941   7.552   2.678   5.261
 3333TIP3    H1 9942   7.467   2.702   5.222
 3333TIP3    H2 9943   7.570   2.591   5.225
 3334TIP3   OH2 9944   6.900   2.564   1.596
 3334TIP3    H1 9945   6.935   2.615   1.669
 3334TIP3    H2 9946   6.930   2.611   1.518
 3335TIP3   OH2 9947   2.822   2.795   2.203
 3335TIP3    H1 9948   2.840   2.887   2.183
 3335TIP3    H2 9949   2.729   2.784   2.183
 3336TIP3   OH2 9950   3.868   6.038   3.135
 3336TIP3    H1 9951   3.864   6.125   3.175
 3336TIP3    H2 9952   3.947   6.039   3.082
 3337TIP3   OH2 9953   3.516   1.524   6.029
 3337TIP3    H1 9954   3.448   1.498   6.091
 3337TIP3    H2 9955   3.526   1.449   5.971
 3338TIP3   OH2 9956   6.918   0.066   0.677
 3338TIP3    H1 9957   6.959   0.097   0.597
 3338TIP3    H2 9958   6.991   0.043   0.735
 3339TIP3   OH2 9959   4.276   0.707   5.315
 3339TIP3    H1 9960   4.333   0.673   5.384
 3339TIP3    H2 9961   4.207   0.753   5.362
 3340TIP3   OH2 9962   7.713   6.015   6.092
 3340TIP3    H1 9963   7.776   6.071   6.138
 3340TIP3    H2 9964   7.760   5.934   6.075
 3341TIP3   OH2 9965   2.003   4.253   5.286
 3341TIP3    H1 9966   2.098   4.250   5.279
 3341TIP3    H2 9967   1.984   4.342   5.317
 3342TIP3   OH2 9968   5.017   0.478   5.429
 3342TIP3    H1 9969   5.039   0.408   5.367
 3342TIP3    H2 9970   5.082   0.546   5.413
 3343TIP3   OH2 9971   4.391   4.738   1.584
 3343TIP3    H1 9972   4.350   4.702   1.663
 3343TIP3    H2 9973   4.483   4.712   1.592
 3344TIP3   OH2 9974   1.620   4.890   6.117
 3344TIP3    H1 9975   1.551   4.833   6.083
 3344TIP3    H2 9976   1.663   4.838   6.185
 3345TIP3   OH2 9977   1.756   6.500   1.636
 3345TIP3    H1 9978   1.790   6.584   1.667
 3345TIP3    H2 9979   1.765   6.504   1.541
 3346TIP3   OH2 9980   6.991   6.048   3.725
 3346TIP3    H1 9981   6.975   6.143   3.726
 3346TIP3    H2 9982   7.012   6.028   3.634
 3347TIP3   OH2 9983   1.561   0.389   5.666
 3347TIP3    H1 9984   1.554   0.463   5.727
 3347TIP3    H2 9985   1.613   0.423   5.593
 3348TIP3   OH2 9986   5.568   4.166   5.365
 3348TIP3    H1 9987   5.612   4.249   5.380
 3348TIP3    H2 9988   5.537   4.139   5.451
 3349TIP3   OH2 9989   5.787   0.467   0.242
 3349TIP3    H1 9990   5.765   0.379   0.272
 3349TIP3    H2 9991   5.779   0.521   0.320
 3350TIP3   OH2 9992   0.611   3.004   3.397
 3350TIP3    H1 9993   0.536   2.956   3.362
 3350TIP3    H2 9994   0.679   2.938   3.410
 3351TIP3   OH2 9995   5.581   1.382   6.197
 3351TIP3    H1 9996   5.609   1.472   6.180
 3351TIP3    H2 9997   5.527   1.360   6.121
 3352TIP3   OH2 9998   2.733   3.953   4.910
 3352TIP3    H1 9999   2.819   3.911   4.916
 3352TIP3    H210000   2.705   3.964   5.001
 3353TIP3   OH210001   5.167   6.912   4.958
 3353TIP3    H110002   5.236   6.886   5.019
 3353TIP3    H210003   5.178   6.853   4.883
 3354TIP3   OH210004   0.073   5.241   1.647
 3354TIP3    H110005   0.062   5.153   1.611
 3354TIP3    H210006   0.168   5.254   1.649
 3355TIP3   OH210007   6.906   2.056   0.886
 3355TIP3    H110008   6.956   2.137   0.877
 3355TIP3    H210009   6.910   2.015   0.799
 3356TIP3   OH210010   2.768   0.951   2.576
 3356TIP3    H110011   2.727   0.870   2.548
 3356TIP3    H210012   2.856   0.948   2.540
 3357TIP3   OH210013   4.437   0.462   6.438
 3357TIP3    H110014   4.404   0.537   6.388
 3357TIP3    H210015   4.359   0.413   6.462
 3358TIP3   OH210016   1.580   5.327   1.332
 3358TIP3    H110017   1.656   5.283   1.371
 3358TIP3    H210018   1.504   5.277   1.363
 3359TIP3   OH210019   6.570   4.592   0.819
 3359TIP3    H110020   6.657   4.612   0.852
 3359TIP3    H210021   6.569   4.629   0.731
 3360TIP3   OH210022   6.504   1.066   5.092
 3360TIP3    H110023   6.479   1.144   5.142
 3360TIP3    H210024   6.491   0.993   5.153
 3361TIP3   OH210025   0.980   6.002   3.679
 3361TIP3    H110026   0.951   6.011   3.770
 3361TIP3    H210027   1.075   6.014   3.683
 3362TIP3   OH210028   1.160   1.246   0.350
 3362TIP3    H110029   1.153   1.154   0.325
 3362TIP3    H210030   1.195   1.290   0.273
 3363TIP3   OH210031   4.114   4.451   5.678
 3363TIP3    H110032   4.055   4.488   5.613
 3363TIP3    H210033   4.198   4.444   5.633
 3364TIP3   OH210034   0.800   6.407   3.164
 3364TIP3    H110035   0.887   6.435   3.136
 3364TIP3    H210036   0.785   6.453   3.246
 3365TIP3   OH210037   3.637   1.983   3.028
 3365TIP3    H110038   3.617   2.002   2.936
 3365TIP3    H210039   3.553   1.957   3.066
 3366TIP3   OH210040   2.469   2.160   0.515
 3366TIP3    H110041   2.529   2.174   0.442
 3366TIP3    H210042   2.389   2.127   0.474
 3367TIP3   OH210043   6.323   6.695   5.340
 3367TIP3    H110044   6.339   6.656   5.426
 3367TIP3    H210045   6.358   6.783   5.347
 3368TIP3   OH210046   3.942   5.569   4.277
 3368TIP3    H110047   4.028   5.572   4.320
 3368TIP3    H210048   3.928   5.476   4.258
 3369TIP3   OH210049   4.271   6.191   2.737
 3369TIP3    H110050   4.180   6.214   2.721
 3369TIP3    H210051   4.316   6.275   2.748
 3370TIP3   OH210052   2.482   5.905   3.221
 3370TIP3    H110053   2.464   5.997   3.202
 3370TIP3    H210054   2.522   5.871   3.140
 3371TIP3   OH210055   7.650   5.414   3.592
 3371TIP3    H110056   7.717   5.349   3.613
 3371TIP3    H210057   7.646   5.470   3.670
 3372TIP3   OH210058   2.895   4.547   3.033
 3372TIP3    H110059   2.854   4.583   3.111
 3372TIP3    H210060   2.866   4.604   2.962
 3373TIP3   OH210061   0.707   4.158   2.168
 3373TIP3    H110062   0.667   4.080   2.132
 3373TIP3    H210063   0.799   4.154   2.140
 3374TIP3   OH210064   2.071   3.065   2.449
 3374TIP3    H110065   1.988   3.075   2.402
 3374TIP3    H210066   2.057   3.109   2.532
 3375TIP3   OH210067   4.769   1.666   0.065
 3375TIP3    H110068   4.815   1.612   0.001
 3375TIP3    H210069   4.710   1.605   0.109
 3376TIP3   OH210070   0.266   4.569   2.136
 3376TIP3    H110071   0.235   4.652   2.171
 3376TIP3    H210072   0.250   4.576   2.041
 3377TIP3   OH210073   8.017   0.952   0.340
 3377TIP3    H110074   8.076   0.877   0.352
 3377TIP3    H210075   8.076   1.026   0.322
 3378TIP3   OH210076   1.086   0.310   4.876
 3378TIP3    H110077   0.993   0.319   4.853
 3378TIP3    H210078   1.130   0.292   4.793
 3379TIP3   OH210079   3.772   0.718   3.323
 3379TIP3    H110080   3.824   0.653   3.371
 3379TIP3    H210081   3.731   0.668   3.252
 3380TIP3   OH210082   7.652   5.374   0.243
 3380TIP3    H110083   7.670   5.287   0.278
 3380TIP3    H210084   7.719   5.387   0.176
 3381TIP3   OH210085   6.399   3.239   4.213
 3381TIP3    H110086   6.428   3.257   4.302
 3381TIP3    H210087   6.363   3.322   4.181
 3382TIP3   OH210088   3.987   4.571   3.845
 3382TIP3    H110089   3.924   4.547   3.913
 3382TIP3    H210090   3.991   4.493   3.789
 3383TIP3   OH210091   2.119   3.596   0.035
 3383TIP3    H110092   2.136   3.575   0.126
 3383TIP3    H210093   2.206   3.607  -0.004
 3384TIP3   OH210094   0.377   1.871   1.216
 3384TIP3    H110095   0.431   1.835   1.146
 3384TIP3    H210096   0.337   1.794   1.257
 3385TIP3   OH210097   3.641   1.465   5.374
 3385TIP3    H110098   3.699   1.394   5.349
 3385TIP3    H210099   3.597   1.490   5.292
 3386TIP3   OH210100   3.611   0.221   4.579
 3386TIP3    H110101   3.665   0.297   4.557
 3386TIP3    H210102   3.521   0.250   4.565
 3387TIP3   OH210103   6.373   0.739   2.170
 3387TIP3    H110104   6.369   0.825   2.212
 3387TIP3    H210105   6.464   0.729   2.144
 3388TIP3   OH210106   2.135   3.149   3.671
 3388TIP3    H110107   2.146   3.235   3.710
 3388TIP3    H210108   2.224   3.122   3.647
 3389TIP3   OH210109   5.150   1.786   2.294
 3389TIP3    H110110   5.116   1.832   2.370
 3389TIP3    H210111   5.079   1.789   2.230
 3390TIP3   OH210112   7.788   1.242   2.829
 3390TIP3    H110113   7.696   1.223   2.847
 3390TIP3    H210114   7.834   1.162   2.852
 3391TIP3   OH210115   7.672   0.248   6.430
 3391TIP3    H110116   7.578   0.263   6.428
 3391TIP3    H210117   7.682   0.156   6.453
 3392TIP3   OH210118   6.878   6.360   0.004
 3392TIP3    H110119   6.913   6.352   0.093
 3392TIP3    H210120   6.955   6.359  -0.053
 3393TIP3   OH210121   5.612   1.904   1.262
 3393TIP3    H110122   5.584   1.851   1.188
 3393TIP3    H210123   5.593   1.994   1.237
 3394TIP3   OH210124   0.153   0.282   5.661
 3394TIP3    H110125   0.076   0.225   5.663
 3394TIP3    H210126   0.215   0.240   5.720
 3395TIP3   OH210127   5.459   4.111   2.933
 3395TIP3    H110128   5.409   4.031   2.951
 3395TIP3    H210129   5.487   4.140   3.020
 3396TIP3   OH210130   0.728   3.639   5.050
 3396TIP3    H110131   0.718   3.560   5.103
 3396TIP3    H210132   0.696   3.614   4.963
 3397TIP3   OH210133   0.806   5.607   2.053
 3397TIP3    H110134   0.807   5.623   1.958
 3397TIP3    H210135   0.856   5.679   2.090
 3398TIP3   OH210136   4.572   7.646   2.229
 3398TIP3    H110137   4.564   7.689   2.144
 3398TIP3    H210138   4.608   7.560   2.209
 3399TIP3   OH210139   1.579   6.332   4.908
 3399TIP3    H110140   1.656   6.376   4.872
 3399TIP3    H210141   1.506   6.392   4.891
 3400TIP3   OH210142   8.145   3.549   4.786
 3400TIP3    H110143   8.177   3.568   4.698
 3400TIP3    H210144   8.101   3.465   4.779
 3401TIP3   OH210145   7.454   2.846   4.781
 3401TIP3    H110146   7.441   2.864   4.688
 3401TIP3    H210147   7.548   2.858   4.795
 3402TIP3   OH210148   4.023   0.615   2.879
 3402TIP3    H110149   3.931   0.643   2.880
 3402TIP3    H210150   4.023   0.533   2.929
 3403TIP3   OH210151   1.343   1.764   5.026
 3403TIP3    H110152   1.264   1.804   5.062
 3403TIP3    H210153   1.375   1.828   4.961
 3404TIP3   OH210154   7.931   6.632   2.388
 3404TIP3    H110155   8.011   6.648   2.438
 3404TIP3    H210156   7.860   6.660   2.446
 3405TIP3   OH210157   6.373   6.247   5.028
 3405TIP3    H110158   6.395   6.205   5.111
 3405TIP3    H210159   6.396   6.339   5.040
 3406TIP3   OH210160   0.952   5.784   5.775
 3406TIP3    H110161   1.040   5.822   5.773
 3406TIP3    H210162   0.944   5.749   5.864
 3407TIP3   OH210163   4.977   2.770   4.886
 3407TIP3    H110164   4.933   2.779   4.801
 3407TIP3    H210165   4.909   2.736   4.945
 3408TIP3   OH210166   1.193   6.178   0.357
 3408TIP3    H110167   1.168   6.087   0.372
 3408TIP3    H210168   1.112   6.227   0.366
 3409TIP3   OH210169   5.892   6.336   2.030
 3409TIP3    H110170   5.933   6.390   2.098
 3409TIP3    H210171   5.873   6.398   1.960
 3410TIP3   OH210172   7.120   1.466   1.865
 3410TIP3    H110173   7.175   1.414   1.923
 3410TIP3    H210174   7.085   1.403   1.802
 3411TIP3   OH210175   5.149   4.338   2.758
 3411TIP3    H110176   5.133   4.258   2.809
 3411TIP3    H210177   5.157   4.308   2.668
 3412TIP3   OH210178   0.392   7.568   0.459
 3412TIP3    H110179   0.329   7.498   0.475
 3412TIP3    H210180   0.419   7.555   0.368
 3413TIP3   OH210181   2.491   7.692   3.636
 3413TIP3    H110182   2.458   7.735   3.715
 3413TIP3    H210183   2.582   7.721   3.629
 3414TIP3   OH210184   1.404   7.701   3.117
 3414TIP3    H110185   1.455   7.760   3.171
 3414TIP3    H210186   1.464   7.674   3.047
 3415TIP3   OH210187   5.004   5.433   1.950
 3415TIP3    H110188   4.960   5.514   1.928
 3415TIP3    H210189   4.934   5.368   1.954
 3416TIP3   OH210190   0.763   5.916   1.975
 3416TIP3    H110191   0.849   5.957   1.965
 3416TIP3    H210192   0.751   5.867   1.895
 3417TIP3   OH210193   1.750   0.951   5.036
 3417TIP3    H110194   1.808   0.910   4.972
 3417TIP3    H210195   1.773   0.910   5.119
 3418TIP3   OH210196   4.307   5.172   5.741
 3418TIP3    H110197   4.346   5.206   5.662
 3418TIP3    H210198   4.357   5.092   5.761
 3419TIP3   OH210199   7.184   4.192   5.518
 3419TIP3    H110200   7.137   4.275   5.523
 3419TIP3    H210201   7.147   4.148   5.442
 3420TIP3   OH210202   4.049   7.283   0.782
 3420TIP3    H110203   4.007   7.362   0.814
 3420TIP3    H210204   4.015   7.213   0.838
 3421TIP3   OH210205   0.190   6.109   4.635
 3421TIP3    H110206   0.254   6.054   4.681
 3421TIP3    H210207   0.209   6.095   4.542
 3422TIP3   OH210208   0.983   5.285   0.251
 3422TIP3    H110209   1.077   5.284   0.266
 3422TIP3    H210210   0.972   5.241   0.166
 3423TIP3   OH210211   3.718   0.635   0.816
 3423TIP3    H110212   3.688   0.654   0.727
 3423TIP3    H210213   3.809   0.606   0.805
 3424TIP3   OH210214   7.982   5.371   3.450
 3424TIP3    H110215   7.890   5.348   3.460
 3424TIP3    H210216   8.017   5.308   3.387
 3425TIP3   OH210217   2.691   0.231   4.301
 3425TIP3    H110218   2.712   0.235   4.395
 3425TIP3    H210219   2.727   0.313   4.266
 3426TIP3   OH210220   6.215   6.569   0.253
 3426TIP3    H110221   6.298   6.526   0.271
 3426TIP3    H210222   6.161   6.502   0.212
 3427TIP3   OH210223   2.842   1.282   3.328
 3427TIP3    H110224   2.844   1.345   3.256
 3427TIP3    H210225   2.855   1.197   3.286
 3428TIP3   OH210226   8.011   0.520   1.242
 3428TIP3    H110227   8.078   0.489   1.182
 3428TIP3    H210228   8.048   0.598   1.282
 3429TIP3   OH210229   0.382   3.020   2.996
 3429TIP3    H110230   0.432   3.099   3.016
 3429TIP3    H210231   0.448   2.954   2.974
 3430TIP3   OH210232   4.199   4.245   4.698
 3430TIP3    H110233   4.149   4.285   4.627
 3430TIP3    H210234   4.142   4.251   4.774
 3431TIP3   OH210235   3.584   2.676   6.029
 3431TIP3    H110236   3.617   2.602   6.081
 3431TIP3    H210237   3.510   2.639   5.980
 3432TIP3   OH210238   1.533   3.595   5.584
 3432TIP3    H110239   1.512   3.576   5.675
 3432TIP3    H210240   1.566   3.684   5.585
 3433TIP3   OH210241   7.262   3.297   4.937
 3433TIP3    H110242   7.238   3.263   5.024
 3433TIP3    H210243   7.354   3.272   4.926
 3434TIP3   OH210244   6.012   3.557   6.406
 3434TIP3    H110245   6.094   3.562   6.455
 3434TIP3    H210246   5.946   3.595   6.465
 3435TIP3   OH210247   1.134   5.793   6.594
 3435TIP3    H110248   1.134   5.886   6.617
 3435TIP3    H210249   1.192   5.753   6.660
 3436TIP3   OH210250   5.412   5.985   3.120
 3436TIP3    H110251   5.403   5.987   3.216
 3436TIP3    H210252   5.388   5.895   3.096
 3437TIP3   OH210253   5.604   6.416   0.590
 3437TIP3    H110254   5.589   6.453   0.677
 3437TIP3    H210255   5.530   6.357   0.576
 3438TIP3   OH210256   2.718   1.901   0.924
 3438TIP3    H110257   2.682   1.989   0.917
 3438TIP3    H210258   2.800   1.905   0.875
 3439TIP3   OH210259   3.663   0.039   2.931
 3439TIP3    H110260   3.617  -0.038   2.966
 3439TIP3    H210261   3.755   0.017   2.938
 3440TIP3   OH210262   1.208   0.886   1.180
 3440TIP3    H110263   1.208   0.982   1.174
 3440TIP3    H210264   1.151   0.858   1.109
 3441TIP3   OH210265   4.122   6.967   5.299
 3441TIP3    H110266   4.191   6.911   5.265
 3441TIP3    H210267   4.042   6.934   5.258
 3442TIP3   OH210268   0.489   7.162   5.931
 3442TIP3    H110269   0.480   7.087   5.872
 3442TIP3    H210270   0.515   7.234   5.874
 3443TIP3   OH210271   6.134   1.153   6.530
 3443TIP3    H110272   6.135   1.203   6.611
 3443TIP3    H210273   6.091   1.210   6.466
 3444TIP3   OH210274   2.434   0.996   2.463
 3444TIP3    H110275   2.341   0.982   2.475
 3444TIP3    H210276   2.460   1.051   2.538
 3445TIP3   OH210277   6.259   7.707   3.384
 3445TIP3    H110278   6.165   7.724   3.388
 3445TIP3    H210279   6.294   7.744   3.465
 3446TIP3   OH210280   5.621   1.231   5.702
 3446TIP3    H110281   5.526   1.233   5.712
 3446TIP3    H210282   5.652   1.309   5.748
 3447TIP3   OH210283   3.816   7.247   2.440
 3447TIP3    H110284   3.861   7.198   2.371
 3447TIP3    H210285   3.813   7.337   2.407
 3448TIP3   OH210286   5.530   1.040   5.979
 3448TIP3    H110287   5.535   1.070   6.070
 3448TIP3    H210288   5.619   1.015   5.956
 3449TIP3   OH210289   3.045   7.185   4.057
 3449TIP3    H110290   3.099   7.221   3.987
 3449TIP3    H210291   3.054   7.090   4.047
 3450TIP3   OH210292   0.816   1.571   1.698
 3450TIP3    H110293   0.740   1.543   1.748
 3450TIP3    H210294   0.878   1.603   1.764
 3451TIP3   OH210295   4.533   0.156   0.323
 3451TIP3    H110296   4.542   0.113   0.238
 3451TIP3    H210297   4.622   0.187   0.343
 3452TIP3   OH210298   3.582   1.872   4.216
 3452TIP3    H110299   3.546   1.961   4.219
 3452TIP3    H210300   3.509   1.818   4.185
 3453TIP3   OH210301   3.261   6.260   1.371
 3453TIP3    H110302   3.219   6.258   1.285
 3453TIP3    H210303   3.192   6.288   1.431
 3454TIP3   OH210304   5.550   0.332   4.561
 3454TIP3    H110305   5.498   0.306   4.485
 3454TIP3    H210306   5.640   0.339   4.528
 3455TIP3   OH210307   3.260   1.378   1.297
 3455TIP3    H110308   3.328   1.352   1.235
 3455TIP3    H210309   3.308   1.406   1.375
 3456TIP3   OH210310   1.583   3.050   5.408
 3456TIP3    H110311   1.646   3.092   5.350
 3456TIP3    H210312   1.506   3.034   5.353
 3457TIP3   OH210313   6.683   2.521   5.791
 3457TIP3    H110314   6.739   2.462   5.741
 3457TIP3    H210315   6.653   2.586   5.727
 3458TIP3   OH210316   6.711   4.983   6.747
 3458TIP3    H110317   6.617   4.984   6.729
 3458TIP3    H210318   6.728   4.894   6.778
 3459TIP3   OH210319   7.299   1.331   4.438
 3459TIP3    H110320   7.371   1.286   4.481
 3459TIP3    H210321   7.339   1.375   4.363
 3460TIP3   OH210322   6.328   5.141   1.390
 3460TIP3    H110323   6.244   5.185   1.383
 3460TIP3    H210324   6.381   5.178   1.319
 3461TIP3   OH210325   4.228   3.575   3.495
 3461TIP3    H110326   4.212   3.666   3.469
 3461TIP3    H210327   4.140   3.536   3.499
 3462TIP3   OH210328   5.905   2.552   5.460
 3462TIP3    H110329   5.826   2.500   5.453
 3462TIP3    H210330   5.967   2.496   5.506
 3463TIP3   OH210331   0.921   3.509   1.714
 3463TIP3    H110332   0.962   3.501   1.628
 3463TIP3    H210333   0.840   3.458   1.707
 3464TIP3   OH210334   4.933   1.301   0.555
 3464TIP3    H110335   4.943   1.394   0.576
 3464TIP3    H210336   5.004   1.258   0.603
 3465TIP3   OH210337   4.700   1.298   3.196
 3465TIP3    H110338   4.621   1.259   3.235
 3465TIP3    H210339   4.771   1.240   3.224
 3466TIP3   OH210340   0.445   6.195   3.700
 3466TIP3    H110341   0.532   6.159   3.719
 3466TIP3    H210342   0.456   6.290   3.706
 3467TIP3   OH210343   1.111   2.854   0.645
 3467TIP3    H110344   1.134   2.777   0.698
 3467TIP3    H210345   1.097   2.818   0.557
 3468TIP3   OH210346   6.891   4.180   2.749
 3468TIP3    H110347   6.803   4.170   2.783
 3468TIP3    H210348   6.915   4.270   2.771
 3469TIP3   OH210349   7.327   0.787   3.053
 3469TIP3    H110350   7.292   0.873   3.031
 3469TIP3    H210351   7.366   0.798   3.140
 3470TIP3   OH210352   1.000   0.806   1.798
 3470TIP3    H110353   1.095   0.815   1.794
 3470TIP3    H210354   0.984   0.716   1.772
 3471TIP3   OH210355   0.701   0.267   3.432
 3471TIP3    H110356   0.754   0.346   3.441
 3471TIP3    H210357   0.751   0.199   3.478
 3472TIP3   OH210358   7.520   2.157   4.547
 3472TIP3    H110359   7.470   2.238   4.538
 3472TIP3    H210360   7.560   2.144   4.462
 3473TIP3   OH210361   3.001   1.873   3.929
 3473TIP3    H110362   3.002   1.849   3.836
 3473TIP3    H210363   3.007   1.789   3.975
 3474TIP3   OH210364   1.258   0.693   0.603
 3474TIP3    H110365   1.232   0.678   0.512
 3474TIP3    H210366   1.353   0.683   0.603
 3475TIP3   OH210367   0.226   2.707   0.334
 3475TIP3    H110368   0.306   2.757   0.351
 3475TIP3    H210369   0.211   2.658   0.415
 3476TIP3   OH210370   5.076   7.272   0.244
 3476TIP3    H110371   5.167   7.280   0.213
 3476TIP3    H210372   5.045   7.190   0.204
 3477TIP3   OH210373   3.759   6.130   6.793
 3477TIP3    H110374   3.783   6.192   6.725
 3477TIP3    H210375   3.690   6.076   6.754
 3478TIP3   OH210376   6.648   0.497   6.751
 3478TIP3    H110377   6.700   0.508   6.672
 3478TIP3    H210378   6.701   0.534   6.821
 3479TIP3   OH210379   3.472   5.169   6.353
 3479TIP3    H110380   3.413   5.136   6.421
 3479TIP3    H210381   3.551   5.196   6.401
 3480TIP3   OH210382   2.960   0.947   3.482
 3480TIP3    H110383   3.019   0.967   3.410
 3480TIP3    H210384   2.990   1.003   3.554
 3481TIP3   OH210385   6.747   6.990   4.569
 3481TIP3    H110386   6.824   6.942   4.539
 3481TIP3    H210387   6.678   6.923   4.578
 3482TIP3   OH210388   1.215   6.227   5.903
 3482TIP3    H110389   1.161   6.296   5.942
 3482TIP3    H210390   1.292   6.272   5.870
 3483TIP3   OH210391   4.821   3.321   4.292
 3483TIP3    H110392   4.894   3.261   4.276
 3483TIP3    H210393   4.763   3.274   4.351
 3484TIP3   OH210394   2.659   5.875   0.382
 3484TIP3    H110395   2.585   5.894   0.325
 3484TIP3    H210396   2.737   5.886   0.327
 3485TIP3   OH210397   6.009   1.710   4.219
 3485TIP3    H110398   5.972   1.726   4.132
 3485TIP3    H210399   6.103   1.723   4.208
 3486TIP3   OH210400   6.389   7.370   5.269
 3486TIP3    H110401   6.430   7.332   5.192
 3486TIP3    H210402   6.300   7.333   5.269
 3487TIP3   OH210403   7.852   1.952   3.650
 3487TIP3    H110404   7.858   2.007   3.573
 3487TIP3    H210405   7.851   1.862   3.616
 3488TIP3   OH210406   7.978   4.348   5.816
 3488TIP3    H110407   8.037   4.354   5.892
 3488TIP3    H210408   7.982   4.435   5.776
 3489TIP3   OH210409   1.266   7.523   3.286
 3489TIP3    H110410   1.315   7.452   3.327
 3489TIP3    H210411   1.332   7.569   3.234
 3490TIP3   OH210412   4.675   4.663   0.322
 3490TIP3    H110413   4.678   4.675   0.417
 3490TIP3    H210414   4.684   4.752   0.286
 3491TIP3   OH210415   1.972   2.781   5.700
 3491TIP3    H110416   1.957   2.752   5.790
 3491TIP3    H210417   2.067   2.788   5.693
 3492TIP3   OH210418   6.380   0.288   5.732
 3492TIP3    H110419   6.329   0.340   5.669
 3492TIP3    H210420   6.458   0.261   5.683
 3493TIP3   OH210421   3.942   6.252   0.935
 3493TIP3    H110422   4.016   6.282   0.988
 3493TIP3    H210423   3.866   6.294   0.975
 3494TIP3   OH210424   4.321   1.604   0.722
 3494TIP3    H110425   4.255   1.536   0.727
 3494TIP3    H210426   4.324   1.630   0.630
 3495TIP3   OH210427   1.486   0.145   4.176
 3495TIP3    H110428   1.540   0.153   4.254
 3495TIP3    H210429   1.433   0.224   4.175
 3496TIP3   OH210430   1.397   4.367   4.539
 3496TIP3    H110431   1.369   4.290   4.589
 3496TIP3    H210432   1.376   4.441   4.596
 3497TIP3   OH210433   0.317   6.404   3.522
 3497TIP3    H110434   0.225   6.380   3.506
 3497TIP3    H210435   0.362   6.320   3.531
 3498TIP3   OH210436   7.114   1.217   4.212
 3498TIP3    H110437   7.192   1.191   4.261
 3498TIP3    H210438   7.041   1.192   4.269
 3499TIP3   OH210439   2.347   4.723   3.611
 3499TIP3    H110440   2.383   4.796   3.561
 3499TIP3    H210441   2.319   4.761   3.694
 3500TIP3   OH210442   3.335   2.599   6.364
 3500TIP3    H110443   3.310   2.579   6.455
 3500TIP3    H210444   3.407   2.539   6.345
 3501TIP3   OH210445   4.862   5.849   4.382
 3501TIP3    H110446   4.775   5.843   4.420
 3501TIP3    H210447   4.851   5.907   4.306
 3502TIP3   OH210448   2.700   7.171   2.633
 3502TIP3    H110449   2.645   7.142   2.706
 3502TIP3    H210450   2.760   7.098   2.617
 3503TIP3   OH210451   6.083   7.212   3.621
 3503TIP3    H110452   5.990   7.200   3.642
 3503TIP3    H210453   6.129   7.182   3.700
 3504TIP3   OH210454   0.464   0.155   2.855
 3504TIP3    H110455   0.531   0.121   2.795
 3504TIP3    H210456   0.476   0.104   2.935
 3505TIP3   OH210457   6.744   6.694   4.701
 3505TIP3    H110458   6.769   6.661   4.787
 3505TIP3    H210459   6.825   6.730   4.665
 3506TIP3   OH210460   7.182   5.649   2.520
 3506TIP3    H110461   7.269   5.640   2.560
 3506TIP3    H210462   7.121   5.628   2.590
 3507TIP3   OH210463   1.888   6.286   1.517
 3507TIP3    H110464   1.847   6.351   1.574
 3507TIP3    H210465   1.834   6.208   1.526
 3508TIP3   OH210466   2.863   1.154   5.451
 3508TIP3    H110467   2.792   1.127   5.509
 3508TIP3    H210468   2.894   1.237   5.488
 3509TIP3   OH210469   2.385   6.387   3.380
 3509TIP3    H110470   2.429   6.452   3.435
 3509TIP3    H210471   2.428   6.393   3.295
 3510TIP3   OH210472   6.101   2.055   4.330
 3510TIP3    H110473   6.017   2.047   4.376
 3510TIP3    H210474   6.078   2.062   4.238
 3511TIP3   OH210475   1.243   2.510   2.287
 3511TIP3    H110476   1.314   2.512   2.351
 3511TIP3    H210477   1.288   2.511   2.202
 3512TIP3   OH210478   2.148   2.129   0.517
 3512TIP3    H110479   2.082   2.101   0.580
 3512TIP3    H210480   2.164   2.221   0.538
 3513TIP3   OH210481   5.109   4.976   6.095
 3513TIP3    H110482   5.056   4.935   6.026
 3513TIP3    H210483   5.045   5.000   6.163
 3514TIP3   OH210484   6.425   7.126   1.165
 3514TIP3    H110485   6.482   7.194   1.201
 3514TIP3    H210486   6.350   7.124   1.225
 3515TIP3   OH210487   4.182   1.921   6.329
 3515TIP3    H110488   4.212   1.868   6.256
 3515TIP3    H210489   4.230   2.003   6.321
 3516TIP3   OH210490   3.901   6.340   5.918
 3516TIP3    H110491   3.882   6.331   6.011
 3516TIP3    H210492   3.841   6.408   5.887
 3517TIP3   OH210493   7.213   4.183   4.116
 3517TIP3    H110494   7.163   4.112   4.158
 3517TIP3    H210495   7.205   4.166   4.022
 3518TIP3   OH210496   6.136   5.691   5.564
 3518TIP3    H110497   6.230   5.706   5.572
 3518TIP3    H210498   6.110   5.742   5.486
 3519TIP3   OH210499   4.619   3.262   6.356
 3519TIP3    H110500   4.697   3.296   6.312
 3519TIP3    H210501   4.592   3.187   6.303
 3520TIP3   OH210502   5.796   3.926   0.124
 3520TIP3    H110503   5.842   3.850   0.088
 3520TIP3    H210504   5.704   3.910   0.103
 3521TIP3   OH210505   2.652   2.120   1.217
 3521TIP3    H110506   2.699   2.194   1.255
 3521TIP3    H210507   2.666   2.129   1.122
 3522TIP3   OH210508   5.136   3.257   0.819
 3522TIP3    H110509   5.142   3.352   0.807
 3522TIP3    H210510   5.078   3.228   0.748
 3523TIP3   OH210511   6.276   2.553   2.710
 3523TIP3    H110512   6.361   2.587   2.737
 3523TIP3    H210513   6.217   2.579   2.781
 3524TIP3   OH210514   3.380   7.565   1.897
 3524TIP3    H110515   3.297   7.608   1.918
 3524TIP3    H210516   3.394   7.502   1.968
 3525TIP3   OH210517   6.342   2.500   6.729
 3525TIP3    H110518   6.435   2.504   6.751
 3525TIP3    H210519   6.323   2.584   6.689
 3526TIP3   OH210520   6.852   1.761   1.809
 3526TIP3    H110521   6.929   1.799   1.852
 3526TIP3    H210522   6.830   1.684   1.863
 3527TIP3   OH210523   4.375   0.008   2.716
 3527TIP3    H110524   4.447   0.021   2.778
 3527TIP3    H210525   4.296   0.032   2.764
 3528TIP3   OH210526   0.800   3.499   2.432
 3528TIP3    H110527   0.784   3.460   2.346
 3528TIP3    H210528   0.835   3.586   2.412
 3529TIP3   OH210529   2.909   0.870   4.173
 3529TIP3    H110530   2.994   0.833   4.193
 3529TIP3    H210531   2.860   0.798   4.133
 3530TIP3   OH210532   2.050   1.192   2.353
 3530TIP3    H110533   2.006   1.220   2.273
 3530TIP3    H210534   2.129   1.148   2.323
 3531TIP3   OH210535   1.165   5.904   1.598
 3531TIP3    H110536   1.101   5.870   1.535
 3531TIP3    H210537   1.112   5.926   1.675
 3532TIP3   OH210538   7.644   0.215   3.619
 3532TIP3    H110539   7.730   0.242   3.654
 3532TIP3    H210540   7.660   0.199   3.526
 3533TIP3   OH210541   4.581   5.889   1.930
 3533TIP3    H110542   4.645   5.947   1.888
 3533TIP3    H210543   4.600   5.896   2.023
 3534TIP3   OH210544   1.010   4.279   0.312
 3534TIP3    H110545   0.970   4.250   0.394
 3534TIP3    H210546   0.982   4.214   0.248
 3535TIP3   OH210547   0.749   0.543   2.201
 3535TIP3    H110548   0.662   0.519   2.170
 3535TIP3    H210549   0.745   0.637   2.217
 3536TIP3   OH210550   1.538   0.036   1.248
 3536TIP3    H110551   1.622   0.001   1.278
 3536TIP3    H210552   1.480   0.024   1.323
 3537TIP3   OH210553   7.362   6.648   2.831
 3537TIP3    H110554   7.367   6.585   2.759
 3537TIP3    H210555   7.324   6.726   2.791
 3538TIP3   OH210556   2.548   5.546   4.675
 3538TIP3    H110557   2.473   5.588   4.635
 3538TIP3    H210558   2.618   5.611   4.670
 3539TIP3   OH210559   5.197   6.857   2.646
 3539TIP3    H110560   5.124   6.895   2.597
 3539TIP3    H210561   5.214   6.919   2.717
 3540TIP3   OH210562   0.215   3.334   6.461
 3540TIP3    H110563   0.161   3.363   6.535
 3540TIP3    H210564   0.286   3.397   6.456
 3541TIP3   OH210565   6.964   4.323   0.148
 3541TIP3    H110566   6.990   4.238   0.112
 3541TIP3    H210567   7.024   4.385   0.108
 3542TIP3   OH210568   0.817   5.023   6.179
 3542TIP3    H110569   0.797   5.088   6.247
 3542TIP3    H210570   0.814   4.939   6.224
 3543TIP3   OH210571   3.927   7.664   2.656
 3543TIP3    H110572   3.964   7.730   2.598
 3543TIP3    H210573   3.892   7.714   2.730
 3544TIP3   OH210574   5.962   0.918   5.234
 3544TIP3    H110575   5.950   1.003   5.276
 3544TIP3    H210576   5.873   0.886   5.220
 3545TIP3   OH210577   0.980   2.315   3.688
 3545TIP3    H110578   1.001   2.229   3.723
 3545TIP3    H210579   1.038   2.375   3.735
 3546TIP3   OH210580   3.696   3.463   1.992
 3546TIP3    H110581   3.767   3.523   1.967
 3546TIP3    H210582   3.694   3.466   2.088
 3547TIP3   OH210583   4.339   7.704   5.828
 3547TIP3    H110584   4.319   7.746   5.745
 3547TIP3    H210585   4.311   7.766   5.895
 3548TIP3   OH210586   5.765   0.112   0.598
 3548TIP3    H110587   5.756   0.125   0.692
 3548TIP3    H210588   5.835   0.047   0.589
 3549TIP3   OH210589   6.272   0.066   6.526
 3549TIP3    H110590   6.181   0.092   6.540
 3549TIP3    H210591   6.286   0.078   6.432
 3550TIP3   OH210592   0.890   0.642   5.704
 3550TIP3    H110593   0.961   0.679   5.651
 3550TIP3    H210594   0.878   0.704   5.775
 3551TIP3   OH210595   0.377   5.011   5.459
 3551TIP3    H110596   0.381   5.091   5.512
 3551TIP3    H210597   0.309   4.958   5.500
 3552TIP3   OH210598   5.032   2.916   4.583
 3552TIP3    H110599   4.945   2.910   4.624
 3552TIP3    H210600   5.020   2.877   4.496
 3553TIP3   OH210601   1.852   2.046   3.140
 3553TIP3    H110602   1.882   2.122   3.090
 3553TIP3    H210603   1.931   1.992   3.151
 3554TIP3   OH210604   7.965   2.334   0.521
 3554TIP3    H110605   8.031   2.390   0.480
 3554TIP3    H210606   7.942   2.271   0.453
 3555TIP3   OH210607   0.637   6.155   2.798
 3555TIP3    H110608   0.730   6.175   2.811
 3555TIP3    H210609   0.600   6.155   2.886
 3556TIP3   OH210610   2.725   3.514   6.414
 3556TIP3    H110611   2.803   3.569   6.409
 3556TIP3    H210612   2.686   3.519   6.326
 3557TIP3   OH210613   0.801   0.101   6.305
 3557TIP3    H110614   0.746   0.076   6.230
 3557TIP3    H210615   0.749   0.078   6.382
 3558TIP3   OH210616   4.360   1.421   5.316
 3558TIP3    H110617   4.345   1.497   5.372
 3558TIP3    H210618   4.401   1.357   5.374
 3559TIP3   OH210619   2.117   4.168   1.521
 3559TIP3    H110620   2.086   4.250   1.559
 3559TIP3    H210621   2.189   4.142   1.578
 3560TIP3   OH210622   4.814   5.769   1.427
 3560TIP3    H110623   4.783   5.731   1.345
 3560TIP3    H210624   4.907   5.787   1.411
 3561TIP3   OH210625   7.612   1.918   0.539
 3561TIP3    H110626   7.626   1.950   0.450
 3561TIP3    H210627   7.546   1.978   0.575
 3562TIP3   OH210628   8.097   3.722   1.523
 3562TIP3    H110629   8.027   3.726   1.588
 3562TIP3    H210630   8.051   3.715   1.439
 3563TIP3   OH210631   8.299   4.045   4.312
 3563TIP3    H110632   8.209   4.015   4.297
 3563TIP3    H210633   8.344   3.968   4.348
 3564TIP3   OH210634   5.824   4.044   5.344
 3564TIP3    H110635   5.729   4.050   5.361
 3564TIP3    H210636   5.846   4.129   5.306
 3565TIP3   OH210637   1.315   6.052   6.103
 3565TIP3    H110638   1.271   6.111   6.041
 3565TIP3    H210639   1.404   6.087   6.109
 3566TIP3   OH210640   2.496   2.597   6.149
 3566TIP3    H110641   2.535   2.522   6.194
 3566TIP3    H210642   2.570   2.642   6.107
 3567TIP3   OH210643   4.483   3.701   1.851
 3567TIP3    H110644   4.413   3.636   1.858
 3567TIP3    H210645   4.469   3.760   1.925
 3568TIP3   OH210646   4.297   4.562   1.768
 3568TIP3    H110647   4.354   4.547   1.843
 3568TIP3    H210648   4.244   4.483   1.761
 3569TIP3   OH210649   7.172  -0.020   5.121
 3569TIP3    H110650   7.110   0.053   5.113
 3569TIP3    H210651   7.255   0.017   5.093
 3570TIP3   OH210652   2.054   7.207   4.734
 3570TIP3    H110653   2.022   7.139   4.793
 3570TIP3    H210654   2.010   7.287   4.764
 3571TIP3   OH210655   0.412   6.024   5.536
 3571TIP3    H110656   0.428   6.098   5.594
 3571TIP3    H210657   0.412   5.947   5.593
 3572TIP3   OH210658   6.139   2.139   4.942
 3572TIP3    H110659   6.124   2.110   4.852
 3572TIP3    H210660   6.182   2.224   4.932
 3573TIP3   OH210661   4.638   0.083   4.026
 3573TIP3    H110662   4.608   0.005   4.072
 3573TIP3    H210663   4.639   0.151   4.093
 3574TIP3   OH210664   2.528   4.561   5.861
 3574TIP3    H110665   2.599   4.550   5.924
 3574TIP3    H210666   2.448   4.548   5.912
 3575TIP3   OH210667   2.303   7.486   2.250
 3575TIP3    H110668   2.306   7.578   2.227
 3575TIP3    H210669   2.215   7.473   2.287
 3576TIP3   OH210670   2.969   1.996   0.108
 3576TIP3    H110671   2.924   2.073   0.075
 3576TIP3    H210672   2.961   1.932   0.037
 3577TIP3   OH210673   0.381   6.046   1.818
 3577TIP3    H110674   0.393   5.989   1.742
 3577TIP3    H210675   0.286   6.054   1.827
 3578TIP3   OH210676   0.301   5.061   4.345
 3578TIP3    H110677   0.344   4.980   4.318
 3578TIP3    H210678   0.318   5.067   4.439
 3579TIP3   OH210679   2.271   2.267   5.396
 3579TIP3    H110680   2.197   2.262   5.456
 3579TIP3    H210681   2.254   2.345   5.343
 3580TIP3   OH210682   3.604   2.326   1.877
 3580TIP3    H110683   3.565   2.378   1.806
 3580TIP3    H210684   3.674   2.382   1.911
 3581TIP3   OH210685   4.196   1.338   2.928
 3581TIP3    H110686   4.241   1.289   2.997
 3581TIP3    H210687   4.116   1.370   2.969
 3582TIP3   OH210688   5.672   1.123   1.673
 3582TIP3    H110689   5.583   1.150   1.697
 3582TIP3    H210690   5.683   1.154   1.584
 3583TIP3   OH210691   1.908   6.967   2.486
 3583TIP3    H110692   1.968   7.030   2.446
 3583TIP3    H210693   1.822   7.006   2.476
 3584TIP3   OH210694   1.082   6.841   5.086
 3584TIP3    H110695   1.068   6.919   5.139
 3584TIP3    H210696   1.072   6.768   5.148
 3585TIP3   OH210697   0.629   1.824   4.466
 3585TIP3    H110698   0.588   1.852   4.384
 3585TIP3    H210699   0.680   1.746   4.441
 3586TIP3   OH210700   3.501   1.769   0.402
 3586TIP3    H110701   3.539   1.794   0.487
 3586TIP3    H210702   3.574   1.775   0.340
 3587TIP3   OH210703   2.115   1.447   1.524
 3587TIP3    H110704   2.162   1.496   1.592
 3587TIP3    H210705   2.026   1.441   1.557
 3588TIP3   OH210706   5.250   6.094   4.418
 3588TIP3    H110707   5.158   6.117   4.434
 3588TIP3    H210708   5.286   6.081   4.506
 3589TIP3   OH210709   2.719   2.143   5.674
 3589TIP3    H110710   2.643   2.161   5.618
 3589TIP3    H210711   2.733   2.224   5.722
 3590TIP3   OH210712   3.985   6.726   1.054
 3590TIP3    H110713   3.896   6.733   1.021
 3590TIP3    H210714   3.979   6.753   1.146
 3591TIP3   OH210715   0.381   5.809   1.291
 3591TIP3    H110716   0.308   5.753   1.318
 3591TIP3    H210717   0.442   5.749   1.248
 3592TIP3   OH210718   0.907   0.468   1.976
 3592TIP3    H110719   0.860   0.504   2.051
 3592TIP3    H210720   0.988   0.434   2.012
 3593TIP3   OH210721   5.053   3.313   3.433
 3593TIP3    H110722   5.083   3.257   3.505
 3593TIP3    H210723   4.987   3.369   3.472
 3594TIP3   OH210724   7.185   4.376   5.864
 3594TIP3    H110725   7.225   4.289   5.871
 3594TIP3    H210726   7.093   4.361   5.885
 3595TIP3   OH210727   0.478   3.397   6.691
 3595TIP3    H110728   0.384   3.382   6.696
 3595TIP3    H210729   0.491   3.437   6.605
 3596TIP3   OH210730   2.572   4.607   5.174
 3596TIP3    H110731   2.603   4.696   5.190
 3596TIP3    H210732   2.506   4.592   5.243
 3597TIP3   OH210733   2.173   3.300   4.534
 3597TIP3    H110734   2.122   3.231   4.578
 3597TIP3    H210735   2.183   3.268   4.444
 3598TIP3   OH210736   7.740   3.687   5.732
 3598TIP3    H110737   7.711   3.726   5.815
 3598TIP3    H210738   7.824   3.729   5.714
 3599TIP3   OH210739   6.062   2.479   3.676
 3599TIP3    H110740   6.025   2.567   3.671
 3599TIP3    H210741   6.099   2.464   3.589
 3600TIP3   OH210742   5.430   5.643   2.937
 3600TIP3    H110743   5.480   5.606   2.865
 3600TIP3    H210744   5.441   5.738   2.927
 3601TIP3   OH210745   7.217   1.032   1.411
 3601TIP3    H110746   7.202   1.123   1.388
 3601TIP3    H210747   7.275   1.034   1.487
 3602TIP3   OH210748   7.348   4.204   3.790
 3602TIP3    H110749   7.321   4.273   3.851
 3602TIP3    H210750   7.334   4.243   3.703
 3603TIP3   OH210751   6.750   0.198   6.760
 3603TIP3    H110752   6.715   0.284   6.785
 3603TIP3    H210753   6.674   0.152   6.723
 3604TIP3   OH210754   4.267   5.347   0.306
 3604TIP3    H110755   4.202   5.412   0.333
 3604TIP3    H210756   4.339   5.399   0.271
 3605TIP3   OH210757   4.443   0.774   6.556
 3605TIP3    H110758   4.514   0.736   6.504
 3605TIP3    H210759   4.484   0.847   6.602
 3606TIP3   OH210760   0.693   0.792   1.768
 3606TIP3    H110761   0.687   0.873   1.718
 3606TIP3    H210762   0.786   0.777   1.779
 3607TIP3   OH210763   2.189   5.847   1.201
 3607TIP3    H110764   2.251   5.896   1.255
 3607TIP3    H210765   2.122   5.816   1.263
 3608TIP3   OH210766   6.365   6.403   3.931
 3608TIP3    H110767   6.413   6.322   3.915
 3608TIP3    H210768   6.275   6.382   3.907
 3609TIP3   OH210769   8.078   1.551   2.636
 3609TIP3    H110770   8.126   1.505   2.704
 3609TIP3    H210771   7.986   1.535   2.656
 3610TIP3   OH210772   1.887   2.387   5.983
 3610TIP3    H110773   1.982   2.382   5.978
 3610TIP3    H210774   1.866   2.361   6.072
 3611TIP3   OH210775   5.414   2.369   5.999
 3611TIP3    H110776   5.430   2.275   6.010
 3611TIP3    H210777   5.442   2.387   5.909
 3612TIP3   OH210778   1.656   6.502   6.569
 3612TIP3    H110779   1.662   6.406   6.578
 3612TIP3    H210780   1.567   6.517   6.539
 3613TIP3   OH210781   0.028   1.589   3.768
 3613TIP3    H110782   0.038   1.571   3.675
 3613TIP3    H210783   0.045   1.683   3.776
 3614TIP3   OH210784   6.044   6.865   2.045
 3614TIP3    H110785   6.028   6.845   2.137
 3614TIP3    H210786   5.957   6.860   2.004
 3615TIP3   OH210787   3.382   3.645   5.540
 3615TIP3    H110788   3.327   3.568   5.522
 3615TIP3    H210789   3.409   3.634   5.631
 3616TIP3   OH210790   1.221   6.404   5.510
 3616TIP3    H110791   1.261   6.377   5.427
 3616TIP3    H210792   1.134   6.363   5.509
 3617TIP3   OH210793   3.245   2.204   3.419
 3617TIP3    H110794   3.258   2.124   3.471
 3617TIP3    H210795   3.150   2.212   3.411
 3618TIP3   OH210796   7.356   0.884   3.364
 3618TIP3    H110797   7.421   0.875   3.434
 3618TIP3    H210798   7.294   0.813   3.379
 3619TIP3   OH210799   5.301   7.776   0.287
 3619TIP3    H110800   5.368   7.786   0.355
 3619TIP3    H210801   5.328   7.836   0.218
 3620TIP3   OH210802   5.851   3.659   1.793
 3620TIP3    H110803   5.940   3.631   1.816
 3620TIP3    H210804   5.860   3.696   1.705
 3621TIP3   OH210805   5.587   3.586   4.703
 3621TIP3    H110806   5.561   3.498   4.674
 3621TIP3    H210807   5.626   3.626   4.626
 3622TIP3   OH210808   0.055   6.156   3.431
 3622TIP3    H110809  -0.039   6.172   3.435
 3622TIP3    H210810   0.075   6.113   3.515
 3623TIP3   OH210811   1.329   2.987   3.612
 3623TIP3    H110812   1.361   3.061   3.561
 3623TIP3    H210813   1.324   2.915   3.549
 3624TIP3   OH210814   3.384   6.279   2.653
 3624TIP3    H110815   3.332   6.307   2.729
 3624TIP3    H210816   3.472   6.264   2.688
 3625TIP3   OH210817   6.917   7.312   4.674
 3625TIP3    H110818   6.851   7.367   4.630
 3625TIP3    H210819   6.867   7.241   4.712
 3626TIP3   OH210820   4.197   0.956   1.779
 3626TIP3    H110821   4.107   0.967   1.747
 3626TIP3    H210822   4.221   0.868   1.752
 3627TIP3   OH210823   5.136   2.704   2.156
 3627TIP3    H110824   5.055   2.706   2.106
 3627TIP3    H210825   5.183   2.783   2.129
 3628TIP3   OH210826   1.428   1.476   1.273
 3628TIP3    H110827   1.516   1.515   1.275
 3628TIP3    H210828   1.443   1.383   1.287
 3629TIP3   OH210829   4.392   3.084   1.950
 3629TIP3    H110830   4.421   3.159   2.003
 3629TIP3    H210831   4.307   3.110   1.915
 3630TIP3   OH210832   2.069   5.510   4.673
 3630TIP3    H110833   2.095   5.468   4.755
 3630TIP3    H210834   1.993   5.461   4.643
 3631TIP3   OH210835   4.582   7.429   0.507
 3631TIP3    H110836   4.520   7.360   0.484
 3631TIP3    H210837   4.581   7.431   0.603
 3632TIP3   OH210838   0.799   1.022   2.438
 3632TIP3    H110839   0.743   1.073   2.497
 3632TIP3    H210840   0.848   0.964   2.497
 3633TIP3   OH210841   3.707   0.314   1.708
 3633TIP3    H110842   3.711   0.321   1.612
 3633TIP3    H210843   3.623   0.271   1.725
 3634TIP3   OH210844   6.810   4.687   2.543
 3634TIP3    H110845   6.790   4.741   2.620
 3634TIP3    H210846   6.813   4.597   2.576
 3635TIP3   OH210847   4.744   6.143   1.171
 3635TIP3    H110848   4.725   6.221   1.224
 3635TIP3    H210849   4.724   6.169   1.082
 3636TIP3   OH210850   1.124   3.301   1.237
 3636TIP3    H110851   1.085   3.305   1.149
 3636TIP3    H210852   1.172   3.383   1.246
 3637TIP3   OH210853   7.038   2.584   0.151
 3637TIP3    H110854   7.108   2.528   0.184
 3637TIP3    H210855   6.966   2.524   0.130
 3638TIP3   OH210856   4.592   1.770   5.385
 3638TIP3    H110857   4.624   1.680   5.380
 3638TIP3    H210858   4.505   1.762   5.425
 3639TIP3   OH210859   5.155   2.508   1.052
 3639TIP3    H110860   5.103   2.488   1.130
 3639TIP3    H210861   5.093   2.550   0.993
 3640TIP3   OH210862   7.552   1.894   0.848
 3640TIP3    H110863   7.516   1.962   0.905
 3640TIP3    H210864   7.475   1.852   0.810
 3641TIP3   OH210865   2.610   4.656   2.003
 3641TIP3    H110866   2.592   4.724   1.938
 3641TIP3    H210867   2.536   4.659   2.063
 3642TIP3   OH210868   7.007   2.307   5.009
 3642TIP3    H110869   6.927   2.359   5.018
 3642TIP3    H210870   6.976   2.218   4.995
 3643TIP3   OH210871   2.562   6.660   1.500
 3643TIP3    H110872   2.483   6.607   1.516
 3643TIP3    H210873   2.533   6.750   1.514
 3644TIP3   OH210874   4.558   0.690   2.190
 3644TIP3    H110875   4.553   0.596   2.205
 3644TIP3    H210876   4.620   0.722   2.255
 3645TIP3   OH210877   6.614   6.356   4.851
 3645TIP3    H110878   6.580   6.276   4.811
 3645TIP3    H210879   6.626   6.333   4.943
 3646TIP3   OH210880   7.503   4.125   6.564
 3646TIP3    H110881   7.522   4.214   6.593
 3646TIP3    H210882   7.408   4.122   6.557
 3647TIP3   OH210883   8.077   6.119   6.440
 3647TIP3    H110884   8.087   6.212   6.460
 3647TIP3    H210885   8.128   6.074   6.508
 3648TIP3   OH210886   0.414   0.854   3.875
 3648TIP3    H110887   0.395   0.915   3.947
 3648TIP3    H210888   0.462   0.782   3.917
 3649TIP3   OH210889   7.713   3.234   1.913
 3649TIP3    H110890   7.808   3.231   1.928
 3649TIP3    H210891   7.704   3.213   1.820
 3650TIP3   OH210892   5.673   7.582   2.405
 3650TIP3    H110893   5.587   7.542   2.389
 3650TIP3    H210894   5.736   7.519   2.371
 3651TIP3   OH210895   6.989   2.196   5.517
 3651TIP3    H110896   6.934   2.118   5.509
 3651TIP3    H210897   7.028   2.207   5.430
 3652TIP3   OH210898   4.727   7.199   6.637
 3652TIP3    H110899   4.736   7.130   6.702
 3652TIP3    H210900   4.712   7.279   6.688
 3653TIP3   OH210901   7.432   4.180   1.234
 3653TIP3    H110902   7.408   4.089   1.252
 3653TIP3    H210903   7.462   4.180   1.143
 3654TIP3   OH210904   1.531  -0.009   4.893
 3654TIP3    H110905   1.587  -0.039   4.965
 3654TIP3    H210906   1.475   0.058   4.933
 3655TIP3   OH210907   3.839   7.086   6.041
 3655TIP3    H110908   3.771   7.038   6.089
 3655TIP3    H210909   3.810   7.083   5.950
 3656TIP3   OH210910   3.148   0.564   0.291
 3656TIP3    H110911   3.162   0.518   0.373
 3656TIP3    H210912   3.065   0.611   0.303
 3657TIP3   OH210913   4.144   6.109   3.309
 3657TIP3    H110914   4.139   6.108   3.405
 3657TIP3    H210915   4.236   6.127   3.291
 3658TIP3   OH210916   1.301   3.557   4.986
 3658TIP3    H110917   1.393   3.580   4.978
 3658TIP3    H210918   1.282   3.507   4.907
 3659TIP3   OH210919   5.859   5.887   5.236
 3659TIP3    H110920   5.802   5.819   5.200
 3659TIP3    H210921   5.835   5.966   5.187
 3660TIP3   OH210922   5.154   2.725   4.119
 3660TIP3    H110923   5.064   2.694   4.129
 3660TIP3    H210924   5.185   2.683   4.038
 3661TIP3   OH210925   6.837   6.029   1.133
 3661TIP3    H110926   6.802   6.035   1.222
 3661TIP3    H210927   6.906   6.096   1.130
 3662TIP3   OH210928   7.585   2.361   6.748
 3662TIP3    H110929   7.527   2.320   6.812
 3662TIP3    H210930   7.532   2.371   6.669
 3663TIP3   OH210931   7.204   7.241   1.843
 3663TIP3    H110932   7.183   7.150   1.863
 3663TIP3    H210933   7.158   7.292   1.909
 3664TIP3   OH210934   7.855   3.988   1.356
 3664TIP3    H110935   7.882   4.001   1.447
 3664TIP3    H210936   7.905   3.911   1.327
 3665TIP3   OH210937   4.540   5.170   0.819
 3665TIP3    H110938   4.471   5.221   0.861
 3665TIP3    H210939   4.528   5.185   0.726
 3666TIP3   OH210940   0.759   4.347   4.803
 3666TIP3    H110941   0.790   4.343   4.893
 3666TIP3    H210942   0.666   4.324   4.808
 3667TIP3   OH210943   0.669   4.689   3.155
 3667TIP3    H110944   0.639   4.650   3.237
 3667TIP3    H210945   0.636   4.779   3.159
 3668TIP3   OH210946   0.400   3.410   2.826
 3668TIP3    H110947   0.418   3.316   2.824
 3668TIP3    H210948   0.449   3.446   2.752
 3669TIP3   OH210949   1.564   2.698   2.939
 3669TIP3    H110950   1.601   2.615   2.907
 3669TIP3    H210951   1.476   2.701   2.903
 3670TIP3   OH210952   7.255   3.949   0.566
 3670TIP3    H110953   7.216   3.919   0.648
 3670TIP3    H210954   7.259   4.044   0.575
 3671TIP3   OH210955   7.344   3.603   5.813
 3671TIP3    H110956   7.249   3.607   5.808
 3671TIP3    H210957   7.365   3.632   5.902
 3672TIP3   OH210958   3.293   7.570   5.994
 3672TIP3    H110959   3.240   7.633   5.945
 3672TIP3    H210960   3.384   7.593   5.972
 3673TIP3   OH210961   5.369   4.880   5.224
 3673TIP3    H110962   5.328   4.871   5.138
 3673TIP3    H210963   5.296   4.902   5.282
 3674TIP3   OH210964   1.292   7.508   1.401
 3674TIP3    H110965   1.366   7.565   1.380
 3674TIP3    H210966   1.218   7.548   1.355
 3675TIP3   OH210967   5.406   5.291   5.439
 3675TIP3    H110968   5.311   5.285   5.425
 3675TIP3    H210969   5.421   5.241   5.519
 3676TIP3   OH210970   4.136   1.308   4.008
 3676TIP3    H110971   4.056   1.359   4.008
 3676TIP3    H210972   4.157   1.296   4.100
 3677TIP3   OH210973   6.689   3.196   2.899
 3677TIP3    H110974   6.637   3.178   2.821
 3677TIP3    H210975   6.764   3.245   2.867
 3678TIP3   OH210976   2.512   7.060   2.074
 3678TIP3    H110977   2.435   7.105   2.108
 3678TIP3    H210978   2.541   7.115   2.001
 3679TIP3   OH210979   3.386   6.637   5.063
 3679TIP3    H110980   3.352   6.684   5.140
 3679TIP3    H210981   3.319   6.650   4.996
 3680TIP3   OH210982   1.561   5.417   6.746
 3680TIP3    H110983   1.583   5.464   6.826
 3680TIP3    H210984   1.591   5.328   6.762
 3681TIP3   OH210985   5.649   2.426   3.608
 3681TIP3    H110986   5.561   2.463   3.601
 3681TIP3    H210987   5.665   2.385   3.523
 3682TIP3   OH210988   2.648   1.627   1.384
 3682TIP3    H110989   2.653   1.692   1.314
 3682TIP3    H210990   2.578   1.567   1.357
 3683TIP3   OH210991   6.839   0.629   4.424
 3683TIP3    H110992   6.767   0.651   4.365
 3683TIP3    H210993   6.796   0.586   4.499
 3684TIP3   OH210994   2.148   5.428   2.641
 3684TIP3    H110995   2.110   5.501   2.689
 3684TIP3    H210996   2.087   5.411   2.570
 3685TIP3   OH210997   7.135   1.938   2.059
 3685TIP3    H110998   7.121   1.845   2.080
 3685TIP3    H210999   7.057   1.982   2.093
 3686TIP3   OH211000   5.197   3.639   2.505
 3686TIP3    H111001   5.172   3.634   2.597
 3686TIP3    H211002   5.134   3.584   2.459
 3687TIP3   OH211003   5.408   3.354   1.971
 3687TIP3    H111004   5.325   3.401   1.964
 3687TIP3    H211005   5.443   3.353   1.882
 3688TIP3   OH211006   1.676   4.701   6.307
 3688TIP3    H111007   1.605   4.672   6.365
 3688TIP3    H211008   1.748   4.641   6.325
 3689TIP3   OH211009   8.282   7.400   2.807
 3689TIP3    H111010   8.232   7.476   2.838
 3689TIP3    H211011   8.308   7.423   2.718
 3690TIP3   OH211012   1.820   5.987   1.640
 3690TIP3    H111013   1.786   5.916   1.586
 3690TIP3    H211014   1.785   5.971   1.727
 3691TIP3   OH211015   5.442   2.398   1.004
 3691TIP3    H111016   5.526   2.427   1.039
 3691TIP3    H211017   5.377   2.447   1.055
 3692TIP3   OH211018   1.712   1.732   1.757
 3692TIP3    H111019   1.753   1.749   1.841
 3692TIP3    H211020   1.785   1.720   1.696
 3693TIP3   OH211021   1.982   3.524   5.657
 3693TIP3    H111022   1.965   3.579   5.733
 3693TIP3    H211023   1.950   3.437   5.683
 3694TIP3   OH211024   1.996   5.420   0.223
 3694TIP3    H111025   1.908   5.408   0.188
 3694TIP3    H211026   1.983   5.454   0.311
 3695TIP3   OH211027   0.529   4.652   2.667
 3695TIP3    H111028   0.486   4.631   2.584
 3695TIP3    H211029   0.468   4.710   2.712
 3696TIP3   OH211030   3.274   5.284   2.626
 3696TIP3    H111031   3.342   5.226   2.591
 3696TIP3    H211032   3.240   5.330   2.549
 3697TIP3   OH211033   4.837   3.846   5.793
 3697TIP3    H111034   4.932   3.856   5.781
 3697TIP3    H211035   4.806   3.936   5.804
 3698TIP3   OH211036   3.722   5.812   2.914
 3698TIP3    H111037   3.728   5.821   3.009
 3698TIP3    H211038   3.723   5.717   2.899
 3699TIP3   OH211039   2.481   2.642   0.809
 3699TIP3    H111040   2.471   2.603   0.896
 3699TIP3    H211041   2.436   2.726   0.815
 3700TIP3   OH211042   4.340   6.787   1.428
 3700TIP3    H111043   4.311   6.789   1.337
 3700TIP3    H211044   4.268   6.747   1.476
 3701TIP3   OH211045   6.434   1.518   5.476
 3701TIP3    H111046   6.369   1.533   5.408
 3701TIP3    H211047   6.411   1.580   5.545
 3702TIP3   OH211048   1.574   6.366   5.241
 3702TIP3    H111049   1.638   6.319   5.187
 3702TIP3    H211050   1.522   6.416   5.178
 3703TIP3   OH211051   7.210   3.743   3.578
 3703TIP3    H111052   7.237   3.824   3.535
 3703TIP3    H211053   7.291   3.692   3.586
 3704TIP3   OH211054   3.347   0.394   6.696
 3704TIP3    H111055   3.326   0.434   6.611
 3704TIP3    H211056   3.275   0.331   6.710
 3705TIP3   OH211057   8.185   7.249   6.004
 3705TIP3    H111058   8.246   7.314   6.040
 3705TIP3    H211059   8.109   7.300   5.977
 3706TIP3   OH211060   0.703   2.235   4.735
 3706TIP3    H111061   0.771   2.250   4.801
 3706TIP3    H211062   0.714   2.307   4.673
 3707TIP3   OH211063   3.205   5.308   1.004
 3707TIP3    H111064   3.115   5.293   1.034
 3707TIP3    H211065   3.238   5.222   0.980
 3708TIP3   OH211066   2.933   0.188   5.703
 3708TIP3    H111067   2.910   0.280   5.710
 3708TIP3    H211068   2.949   0.159   5.793
 3709TIP3   OH211069   3.321   3.461   4.504
 3709TIP3    H111070   3.238   3.459   4.456
 3709TIP3    H211071   3.298   3.433   4.592
 3710TIP3   OH211072   6.284   2.286   6.285
 3710TIP3    H111073   6.352   2.247   6.230
 3710TIP3    H211074   6.208   2.230   6.272
 3711TIP3   OH211075   5.564   5.902   0.020
 3711TIP3    H111076   5.563   5.809   0.043
 3711TIP3    H211077   5.533   5.946   0.100
 3712TIP3   OH211078   6.246   0.608   0.649
 3712TIP3    H111079   6.212   0.691   0.682
 3712TIP3    H211080   6.172   0.569   0.602
 3713TIP3   OH211081   1.520   1.803   3.965
 3713TIP3    H111082   1.615   1.810   3.959
 3713TIP3    H211083   1.504   1.709   3.974
 3714TIP3   OH211084   0.646   1.215   4.557
 3714TIP3    H111085   0.648   1.193   4.650
 3714TIP3    H211086   0.736   1.203   4.527
 3715TIP3   OH211087   6.285   1.881   3.435
 3715TIP3    H111088   6.246   1.958   3.394
 3715TIP3    H211089   6.237   1.871   3.517
 3716TIP3   OH211090   5.822   2.159   1.385
 3716TIP3    H111091   5.814   2.245   1.426
 3716TIP3    H211092   5.759   2.161   1.313
 3717TIP3   OH211093   1.291   4.358   4.848
 3717TIP3    H111094   1.274   4.264   4.858
 3717TIP3    H211095   1.385   4.367   4.862
 3718TIP3   OH211096   5.577   7.834   4.101
 3718TIP3    H111097   5.514   7.832   4.029
 3718TIP3    H211098   5.621   7.749   4.097
 3719TIP3   OH211099   3.488   7.048   5.245
 3719TIP3    H111100   3.407   7.093   5.221
 3719TIP3    H211101   3.487   7.046   5.341
 3720TIP3   OH211102   4.677   6.230  -0.008
 3720TIP3    H111103   4.675   6.318   0.030
 3720TIP3    H211104   4.628   6.176   0.055
 3721TIP3   OH211105   0.483   7.145   4.036
 3721TIP3    H111106   0.406   7.090   4.051
 3721TIP3    H211107   0.453   7.234   4.053
 3722TIP3   OH211108   4.993   6.498   1.962
 3722TIP3    H111109   5.003   6.578   1.911
 3722TIP3    H211110   4.932   6.521   2.032
 3723TIP3   OH211111   2.942   2.983   1.235
 3723TIP3    H111112   2.905   3.070   1.246
 3723TIP3    H211113   2.867   2.924   1.234
 3724TIP3   OH211114   6.725   4.365   4.859
 3724TIP3    H111115   6.641   4.346   4.899
 3724TIP3    H211116   6.788   4.314   4.910
 3725TIP3   OH211117   0.389   1.773   4.616
 3725TIP3    H111118   0.379   1.686   4.654
 3725TIP3    H211119   0.483   1.783   4.603
 3726TIP3   OH211120   3.043   1.982   6.648
 3726TIP3    H111121   3.111   1.996   6.714
 3726TIP3    H211122   2.961   1.981   6.697
 3727TIP3   OH211123   2.683   6.579   5.492
 3727TIP3    H111124   2.761   6.598   5.545
 3727TIP3    H211125   2.718   6.549   5.408
 3728TIP3   OH211126   1.125   5.316   3.966
 3728TIP3    H111127   1.130   5.253   3.894
 3728TIP3    H211128   1.049   5.288   4.017
 3729TIP3   OH211129   6.885   3.215   4.974
 3729TIP3    H111130   6.920   3.261   4.897
 3729TIP3    H211131   6.822   3.277   5.011
 3730TIP3   OH211132   5.641   4.299   4.410
 3730TIP3    H111133   5.694   4.257   4.477
 3730TIP3    H211134   5.550   4.284   4.439
 3731TIP3   OH211135   0.637   6.142   1.797
 3731TIP3    H111136   0.544   6.118   1.796
 3731TIP3    H211137   0.683   6.058   1.803
 3732TIP3   OH211138   5.491   3.725   2.095
 3732TIP3    H111139   5.511   3.650   2.152
 3732TIP3    H211140   5.396   3.736   2.103
 3733TIP3   OH211141   1.907   3.208   4.815
 3733TIP3    H111142   1.871   3.287   4.775
 3733TIP3    H211143   1.927   3.150   4.741
 3734TIP3   OH211144   1.148   0.375   2.106
 3734TIP3    H111145   1.219   0.351   2.047
 3734TIP3    H211146   1.178   0.456   2.148
 3735TIP3   OH211147   0.434   5.032   0.355
 3735TIP3    H111148   0.348   5.027   0.397
 3735TIP3    H211149   0.425   5.103   0.291
 3736TIP3   OH211150   2.347   7.176   3.890
 3736TIP3    H111151   2.307   7.245   3.943
 3736TIP3    H211152   2.305   7.095   3.921
 3737TIP3   OH211153   8.004   0.786   2.639
 3737TIP3    H111154   7.969   0.871   2.611
 3737TIP3    H211155   7.932   0.746   2.689
 3738TIP3   OH211156   4.957   3.405   0.212
 3738TIP3    H111157   4.974   3.499   0.222
 3738TIP3    H211158   5.042   3.364   0.227
 3739TIP3   OH211159   5.788   7.760   0.470
 3739TIP3    H111160   5.793   7.731   0.561
 3739TIP3    H211161   5.750   7.685   0.423
 3740TIP3   OH211162   3.817   0.882   3.574
 3740TIP3    H111163   3.832   0.881   3.479
 3740TIP3    H211164   3.761   0.958   3.588
 3741TIP3   OH211165   3.513   0.778   6.070
 3741TIP3    H111166   3.424   0.794   6.039
 3741TIP3    H211167   3.542   0.701   6.023
 3742TIP3   OH211168   5.593   5.940   3.355
 3742TIP3    H111169   5.572   5.865   3.411
 3742TIP3    H211170   5.689   5.948   3.361
 3743TIP3   OH211171   3.140   6.371   3.981
 3743TIP3    H111172   3.220   6.354   3.932
 3743TIP3    H211173   3.170   6.391   4.069
 3744TIP3   OH211174   7.934   5.900   1.781
 3744TIP3    H111175   7.962   5.817   1.819
 3744TIP3    H211176   7.861   5.929   1.836
 3745TIP3   OH211177   7.996   3.955   6.007
 3745TIP3    H111178   8.040   3.871   6.019
 3745TIP3    H211179   8.062   4.020   6.032
 3746TIP3   OH211180   6.567   5.036   3.975
 3746TIP3    H111181   6.575   5.080   3.891
 3746TIP3    H211182   6.580   4.943   3.955
 3747TIP3   OH211183   3.714   6.521   3.151
 3747TIP3    H111184   3.738   6.583   3.081
 3747TIP3    H211185   3.790   6.465   3.160
 3748TIP3   OH211186   0.955   1.192   0.837
 3748TIP3    H111187   0.938   1.277   0.879
 3748TIP3    H211188   0.878   1.139   0.859
 3749TIP3   OH211189   1.045   4.510   1.892
 3749TIP3    H111190   0.998   4.431   1.920
 3749TIP3    H211191   1.087   4.486   1.810
 3750TIP3   OH211192   4.857   4.395   0.597
 3750TIP3    H111193   4.868   4.454   0.671
 3750TIP3    H211194   4.946   4.366   0.576
 3751TIP3   OH211195   7.402   7.024   5.930
 3751TIP3    H111196   7.400   7.076   6.011
 3751TIP3    H211197   7.354   6.944   5.953
 3752TIP3   OH211198   2.278   6.011   4.411
 3752TIP3    H111199   2.291   5.998   4.504
 3752TIP3    H211200   2.233   5.931   4.382
 3753TIP3   OH211201   5.920   6.681   4.544
 3753TIP3    H111202   5.844   6.676   4.602
 3753TIP3    H211203   5.995   6.690   4.604
 3754TIP3   OH211204   3.265   5.739   2.302
 3754TIP3    H111205   3.205   5.671   2.269
 3754TIP3    H211206   3.241   5.818   2.253
 3755TIP3   OH211207   7.062   0.641   0.577
 3755TIP3    H111208   7.069   0.580   0.503
 3755TIP3    H211209   6.968   0.646   0.595
 3756TIP3   OH211210   2.191   4.458   2.598
 3756TIP3    H111211   2.172   4.371   2.634
 3756TIP3    H211212   2.105   4.495   2.577
 3757TIP3   OH211213   1.219   3.688   3.095
 3757TIP3    H111214   1.225   3.652   3.006
 3757TIP3    H211215   1.296   3.655   3.140
 3758TIP3   OH211216   5.639   0.777   2.292
 3758TIP3    H111217   5.580   0.760   2.366
 3758TIP3    H211218   5.726   0.755   2.324
 3759TIP3   OH211219   5.238   5.981   1.694
 3759TIP3    H111220   5.263   5.938   1.776
 3759TIP3    H211221   5.190   6.059   1.722
 3760TIP3   OH211222   7.494   2.826   4.456
 3760TIP3    H111223   7.498   2.780   4.540
 3760TIP3    H211224   7.566   2.789   4.405
 3761TIP3   OH211225   6.657   5.669   5.913
 3761TIP3    H111226   6.673   5.649   5.821
 3761TIP3    H211227   6.589   5.606   5.940
 3762TIP3   OH211228   1.660   6.612   6.217
 3762TIP3    H111229   1.682   6.554   6.144
 3762TIP3    H211230   1.573   6.583   6.245
 3763TIP3   OH211231   0.498   1.004   1.141
 3763TIP3    H111232   0.496   1.095   1.171
 3763TIP3    H211233   0.540   0.957   1.213
 3764TIP3   OH211234   0.093   5.663   2.974
 3764TIP3    H111235   0.151   5.738   2.989
 3764TIP3    H211236   0.151   5.587   2.972
 3765TIP3   OH211237   5.027   2.577   3.216
 3765TIP3    H111238   5.105   2.540   3.258
 3765TIP3    H211239   4.954   2.551   3.273
 3766TIP3   OH211240   2.504   3.020   6.335
 3766TIP3    H111241   2.475   2.943   6.285
 3766TIP3    H211242   2.425   3.052   6.378
 3767TIP3   OH211243   3.340   3.135   4.830
 3767TIP3    H111244   3.348   3.229   4.813
 3767TIP3    H211245   3.430   3.103   4.829
 3768TIP3   OH211246   4.125   1.461   3.378
 3768TIP3    H111247   4.198   1.399   3.376
 3768TIP3    H211248   4.066   1.427   3.445
 3769TIP3   OH211249   7.840   2.609   6.499
 3769TIP3    H111250   7.850   2.550   6.573
 3769TIP3    H211251   7.915   2.669   6.506
 3770TIP3   OH211252   0.165   7.183   5.697
 3770TIP3    H111253   0.085   7.231   5.677
 3770TIP3    H211254   0.161   7.168   5.792
 3771TIP3   OH211255   6.859   0.513   5.462
 3771TIP3    H111256   6.789   0.575   5.441
 3771TIP3    H211257   6.908   0.556   5.533
 3772TIP3   OH211258   4.231   2.227   5.995
 3772TIP3    H111259   4.198   2.316   5.980
 3772TIP3    H211260   4.207   2.207   6.085
 3773TIP3   OH211261   0.117   5.138   2.764
 3773TIP3    H111262   0.064   5.082   2.708
 3773TIP3    H211263   0.094   5.111   2.853
 3774TIP3   OH211264   4.114   0.911   3.495
 3774TIP3    H111265   4.078   0.822   3.496
 3774TIP3    H211266   4.206   0.899   3.470
 3775TIP3   OH211267   7.679   6.341   6.770
 3775TIP3    H111268   7.631   6.296   6.699
 3775TIP3    H211269   7.671   6.283   6.845
 3776TIP3   OH211270   0.794   4.163   2.689
 3776TIP3    H111271   0.752   4.186   2.772
 3776TIP3    H211272   0.809   4.069   2.694
 3777TIP3   OH211273   0.547   1.938   6.608
 3777TIP3    H111274   0.496   1.876   6.556
 3777TIP3    H211275   0.491   2.016   6.614
 3778TIP3   OH211276   0.594   3.764   6.556
 3778TIP3    H111277   0.651   3.700   6.514
 3778TIP3    H211278   0.570   3.824   6.485
 3779TIP3   OH211279   1.385   5.076   2.981
 3779TIP3    H111280   1.426   5.028   2.909
 3779TIP3    H211281   1.368   5.164   2.946
 3780TIP3   OH211282   2.608   0.346   0.804
 3780TIP3    H111283   2.531   0.311   0.848
 3780TIP3    H211284   2.682   0.314   0.856
 3781TIP3   OH211285   4.723   4.122   1.720
 3781TIP3    H111286   4.699   4.030   1.733
 3781TIP3    H211287   4.676   4.147   1.640
 3782TIP3   OH211288   2.504   6.729   5.641
 3782TIP3    H111289   2.551   6.677   5.575
 3782TIP3    H211290   2.424   6.679   5.658
 3783TIP3   OH211291   0.904   0.124   5.364
 3783TIP3    H111292   0.849   0.202   5.375
 3783TIP3    H211293   0.972   0.133   5.430
 3784TIP3   OH211294   3.456   0.144   5.535
 3784TIP3    H111295   3.363   0.162   5.545
 3784TIP3    H211296   3.475   0.159   5.443
 3785TIP3   OH211297   4.371   0.474   2.808
 3785TIP3    H111298   4.397   0.475   2.716
 3785TIP3    H211299   4.345   0.383   2.825
 3786TIP3   OH211300   4.865   0.491   4.277
 3786TIP3    H111301   4.811   0.570   4.277
 3786TIP3    H211302   4.944   0.515   4.229
 3787TIP3   OH211303   0.585   0.211   5.303
 3787TIP3    H111304   0.626   0.285   5.348
 3787TIP3    H211305   0.503   0.197   5.352
 3788TIP3   OH211306   8.310   3.286   6.641
 3788TIP3    H111307   8.285   3.221   6.707
 3788TIP3    H211308   8.254   3.268   6.566
 3789TIP3   OH211309   3.715   5.424   1.245
 3789TIP3    H111310   3.659   5.355   1.280
 3789TIP3    H211311   3.773   5.447   1.318
 3790TIP3   OH211312   6.264   3.103   1.234
 3790TIP3    H111313   6.285   3.197   1.242
 3790TIP3    H211314   6.275   3.069   1.323
 3791TIP3   OH211315   5.555   2.717   3.493
 3791TIP3    H111316   5.474   2.674   3.520
 3791TIP3    H211317   5.617   2.646   3.477
 3792TIP3   OH211318   1.932   2.882   4.874
 3792TIP3    H111319   1.926   2.807   4.933
 3792TIP3    H211320   1.985   2.946   4.922
 3793TIP3   OH211321   6.445   2.685   3.285
 3793TIP3    H111322   6.414   2.770   3.316
 3793TIP3    H211323   6.386   2.622   3.325
 3794TIP3   OH211324   8.051   2.383   6.548
 3794TIP3    H111325   8.001   2.348   6.474
 3794TIP3    H211326   7.987   2.387   6.620
 3795TIP3   OH211327   1.371   0.745   3.849
 3795TIP3    H111328   1.465   0.728   3.843
 3795TIP3    H211329   1.339   0.734   3.759
 3796TIP3   OH211330   4.809   3.574   0.697
 3796TIP3    H111331   4.887   3.530   0.666
 3796TIP3    H211332   4.806   3.656   0.647
 3797TIP3   OH211333   1.311   1.259   5.325
 3797TIP3    H111334   1.263   1.184   5.289
 3797TIP3    H211335   1.396   1.255   5.281
 3798TIP3   OH211336   0.666   4.810   3.466
 3798TIP3    H111337   0.705   4.762   3.540
 3798TIP3    H211338   0.581   4.768   3.452
 3799TIP3   OH211339   1.279   4.197   4.207
 3799TIP3    H111340   1.248   4.139   4.137
 3799TIP3    H211341   1.212   4.190   4.275
 3800TIP3   OH211342   7.952   5.199   2.637
 3800TIP3    H111343   7.996   5.230   2.716
 3800TIP3    H211344   8.001   5.239   2.565
 3801TIP3   OH211345   6.489   6.582   3.220
 3801TIP3    H111346   6.538   6.639   3.279
 3801TIP3    H211347   6.410   6.632   3.197
 3802TIP3   OH211348   6.823   1.606   1.243
 3802TIP3    H111349   6.906   1.561   1.258
 3802TIP3    H211350   6.822   1.679   1.305
 3803TIP3   OH211351   2.980   6.380   1.412
 3803TIP3    H111352   2.966   6.466   1.374
 3803TIP3    H211353   2.953   6.319   1.344
 3804TIP3   OH211354   1.675   2.382   4.824
 3804TIP3    H111355   1.766   2.350   4.821
 3804TIP3    H211356   1.682   2.471   4.859
 3805TIP3   OH211357   4.816   1.196   2.232
 3805TIP3    H111358   4.835   1.121   2.176
 3805TIP3    H211359   4.832   1.164   2.321
 3806TIP3   OH211360   6.318   2.685   0.484
 3806TIP3    H111361   6.351   2.659   0.570
 3806TIP3    H211362   6.229   2.650   0.482
 3807TIP3   OH211363   7.309   0.041   2.592
 3807TIP3    H111364   7.398   0.028   2.559
 3807TIP3    H211365   7.322   0.080   2.679
 3808TIP3   OH211366   1.908   0.829   6.014
 3808TIP3    H111367   1.918   0.794   6.103
 3808TIP3    H211368   1.890   0.753   5.960
 3809TIP3   OH211369   0.174   7.692   3.263
 3809TIP3    H111370   0.265   7.706   3.235
 3809TIP3    H211371   0.156   7.765   3.323
 3810TIP3   OH211372   1.013   2.490   5.336
 3810TIP3    H111373   0.957   2.471   5.410
 3810TIP3    H211374   0.959   2.470   5.259
 3811TIP3   OH211375   0.200   4.003   6.480
 3811TIP3    H111376   0.194   3.920   6.529
 3811TIP3    H211377   0.292   4.009   6.456
 3812TIP3   OH211378   6.082   6.882   1.198
 3812TIP3    H111379   6.084   6.828   1.276
 3812TIP3    H211380   6.134   6.833   1.133
 3813TIP3   OH211381   3.558   7.802   0.936
 3813TIP3    H111382   3.578   7.890   0.904
 3813TIP3    H211383   3.587   7.745   0.865
 3814TIP3   OH211384   8.227   2.027   6.410
 3814TIP3    H111385   8.303   1.985   6.371
 3814TIP3    H211386   8.224   2.114   6.369
 3815TIP3   OH211387   3.614   0.847   0.989
 3815TIP3    H111388   3.529   0.869   0.950
 3815TIP3    H211389   3.649   0.779   0.932
 3816TIP3   OH211390   1.436   3.237   0.991
 3816TIP3    H111391   1.434   3.281   0.906
 3816TIP3    H211392   1.360   3.179   0.991
 3817TIP3   OH211393   1.949   4.477   4.220
 3817TIP3    H111394   1.855   4.471   4.200
 3817TIP3    H211395   1.953   4.540   4.292
 3818TIP3   OH211396   3.042   1.447   0.359
 3818TIP3    H111397   3.048   1.536   0.395
 3818TIP3    H211398   3.009   1.460   0.270
 3819TIP3   OH211399   6.398   5.620   4.699
 3819TIP3    H111400   6.414   5.565   4.623
 3819TIP3    H211401   6.303   5.632   4.701
 3820TIP3   OH211402   1.236   7.766   0.150
 3820TIP3    H111403   1.261   7.718   0.071
 3820TIP3    H211404   1.272   7.854   0.136
 3821TIP3   OH211405   7.760   3.568   3.025
 3821TIP3    H111406   7.842   3.533   2.990
 3821TIP3    H211407   7.697   3.497   3.014
 3822TIP3   OH211408   6.198   1.386   4.788
 3822TIP3    H111409   6.290   1.361   4.799
 3822TIP3    H211410   6.150   1.303   4.798
 3823TIP3   OH211411   4.476   7.740   4.639
 3823TIP3    H111412   4.445   7.828   4.663
 3823TIP3    H211413   4.561   7.755   4.598
 3824TIP3   OH211414   1.864   3.904   2.059
 3824TIP3    H111415   1.900   3.902   1.970
 3824TIP3    H211416   1.775   3.937   2.048
 3825TIP3   OH211417   4.572   1.737   1.125
 3825TIP3    H111418   4.510   1.664   1.115
 3825TIP3    H211419   4.517   1.815   1.123
 3826TIP3   OH211420   5.666   2.967   0.724
 3826TIP3    H111421   5.585   2.922   0.750
 3826TIP3    H211422   5.725   2.954   0.799
 3827TIP3   OH211423   1.119   3.501   2.421
 3827TIP3    H111424   1.139   3.474   2.511
 3827TIP3    H211425   1.126   3.421   2.369
 3828TIP3   OH211426   2.403   7.031   5.836
 3828TIP3    H111427   2.318   6.993   5.854
 3828TIP3    H211428   2.385   7.123   5.815
 3829TIP3   OH211429   3.564   6.138   3.659
 3829TIP3    H111430   3.503   6.064   3.658
 3829TIP3    H211431   3.508   6.215   3.673
 3830TIP3   OH211432   1.807   1.077   5.949
 3830TIP3    H111433   1.849   0.991   5.950
 3830TIP3    H211434   1.760   1.081   6.032
 3831TIP3   OH211435   7.801   5.113   5.899
 3831TIP3    H111436   7.815   5.063   5.979
 3831TIP3    H211437   7.718   5.080   5.864
 3832TIP3   OH211438   4.299   3.297   1.496
 3832TIP3    H111439   4.222   3.351   1.515
 3832TIP3    H211440   4.373   3.356   1.510
 3833TIP3   OH211441   5.769   1.790   3.460
 3833TIP3    H111442   5.792   1.729   3.390
 3833TIP3    H211443   5.849   1.800   3.512
 3834TIP3   OH211444   6.540   5.741   1.604
 3834TIP3    H111445   6.483   5.746   1.680
 3834TIP3    H211446   6.526   5.652   1.570
 3835TIP3   OH211447   3.909   0.450   2.620
 3835TIP3    H111448   3.907   0.544   2.636
 3835TIP3    H211449   3.848   0.413   2.683
 3836TIP3   OH211450   1.558   3.614   4.986
 3836TIP3    H111451   1.553   3.640   5.078
 3836TIP3    H211452   1.648   3.631   4.961
 3837TIP3   OH211453   7.403   0.135   2.008
 3837TIP3    H111454   7.399   0.228   1.988
 3837TIP3    H211455   7.419   0.092   1.924
 3838TIP3   OH211456   4.931   4.672   4.632
 3838TIP3    H111457   4.969   4.634   4.553
 3838TIP3    H211458   4.917   4.597   4.690
 3839TIP3   OH211459   7.710   6.144   0.674
 3839TIP3    H111460   7.630   6.196   0.663
 3839TIP3    H211461   7.681   6.066   0.721
 3840TIP3   OH211462   7.513   6.144   1.767
 3840TIP3    H111463   7.420   6.134   1.789
 3840TIP3    H211464   7.513   6.201   1.691
 3841TIP3   OH211465   0.754   2.511   4.188
 3841TIP3    H111466   0.812   2.455   4.136
 3841TIP3    H211467   0.738   2.588   4.132
 3842TIP3   OH211468   7.019   6.841   2.926
 3842TIP3    H111469   6.956   6.880   2.865
 3842TIP3    H211470   7.080   6.794   2.869
 3843TIP3   OH211471   0.998   5.670   3.971
 3843TIP3    H111472   0.993   5.765   3.970
 3843TIP3    H211473   1.084   5.650   3.934
 3844TIP3   OH211474   5.768   7.201   4.737
 3844TIP3    H111475   5.696   7.149   4.773
 3844TIP3    H211476   5.819   7.137   4.686
 3845TIP3   OH211477   5.579   5.274   0.701
 3845TIP3    H111478   5.633   5.343   0.741
 3845TIP3    H211479   5.641   5.220   0.652
 3846TIP3   OH211480   4.730   0.104   6.261
 3846TIP3    H111481   4.785   0.066   6.193
 3846TIP3    H211482   4.666   0.036   6.281
 3847TIP3   OH211483   1.935   6.107   6.611
 3847TIP3    H111484   1.997   6.175   6.589
 3847TIP3    H211485   1.973   6.027   6.575
 3848TIP3   OH211486   1.576   2.110   2.864
 3848TIP3    H111487   1.589   2.155   2.948
 3848TIP3    H211488   1.662   2.072   2.845
 3849TIP3   OH211489   6.927   4.341   5.917
 3849TIP3    H111490   6.934   4.266   5.858
 3849TIP3    H211491   6.850   4.388   5.887
 3850TIP3   OH211492   7.404   3.659   4.961
 3850TIP3    H111493   7.382   3.747   4.933
 3850TIP3    H211494   7.356   3.647   5.043
 3851TIP3   OH211495   6.827   4.474   3.616
 3851TIP3    H111496   6.742   4.514   3.597
 3851TIP3    H211497   6.847   4.421   3.540
 3852TIP3   OH211498   5.705   6.668   3.878
 3852TIP3    H111499   5.628   6.667   3.934
 3852TIP3    H211500   5.740   6.579   3.884
 3853TIP3   OH211501   5.843   7.266   4.375
 3853TIP3    H111502   5.800   7.182   4.388
 3853TIP3    H211503   5.787   7.329   4.421
 3854TIP3   OH211504   2.638   6.865   5.840
 3854TIP3    H111505   2.567   6.929   5.842
 3854TIP3    H211506   2.609   6.798   5.778
 3855TIP3   OH211507   7.473   7.325   4.015
 3855TIP3    H111508   7.430   7.385   3.954
 3855TIP3    H211509   7.561   7.362   4.027
 3856TIP3   OH211510   2.331   1.185   5.298
 3856TIP3    H111511   2.417   1.222   5.320
 3856TIP3    H211512   2.331   1.178   5.203
 3857TIP3   OH211513   4.229   0.774   3.100
 3857TIP3    H111514   4.310   0.724   3.089
 3857TIP3    H211515   4.258   0.864   3.113
 3858TIP3   OH211516   5.142   5.603   2.232
 3858TIP3    H111517   5.106   5.557   2.157
 3858TIP3    H211518   5.071   5.607   2.296
 3859TIP3   OH211519   3.208   4.543   3.388
 3859TIP3    H111520   3.181   4.599   3.315
 3859TIP3    H211521   3.166   4.459   3.370
 3860TIP3   OH211522   2.335   1.309   5.711
 3860TIP3    H111523   2.247   1.273   5.701
 3860TIP3    H211524   2.349   1.362   5.632
 3861TIP3   OH211525   7.227   2.982   3.718
 3861TIP3    H111526   7.303   2.997   3.774
 3861TIP3    H211527   7.164   2.937   3.774
 3862TIP3   OH211528   7.471   0.983   6.245
 3862TIP3    H111529   7.564   0.986   6.269
 3862TIP3    H211530   7.457   1.064   6.196
 3863TIP3   OH211531   1.662   5.406   1.070
 3863TIP3    H111532   1.648   5.385   1.162
 3863TIP3    H211533   1.720   5.481   1.070
 3864TIP3   OH211534   1.214   0.611   3.631
 3864TIP3    H111535   1.254   0.660   3.558
 3864TIP3    H211536   1.241   0.521   3.616
 3865TIP3   OH211537   1.092   5.538   5.484
 3865TIP3    H111538   0.999   5.532   5.508
 3865TIP3    H211539   1.103   5.471   5.416
 3866TIP3   OH211540   4.554   2.900   6.572
 3866TIP3    H111541   4.476   2.889   6.518
 3866TIP3    H211542   4.624   2.859   6.521
 3867TIP3   OH211543   1.504   0.797   1.127
 3867TIP3    H111544   1.489   0.814   1.034
 3867TIP3    H211545   1.426   0.833   1.171
 3868TIP3   OH211546   4.751   0.989   6.072
 3868TIP3    H111547   4.809   0.915   6.054
 3868TIP3    H211548   4.680   0.952   6.124
 3869TIP3   OH211549   7.732   4.237   5.748
 3869TIP3    H111550   7.816   4.278   5.768
 3869TIP3    H211551   7.750   4.179   5.674
 3870TIP3   OH211552   5.759   5.767   2.038
 3870TIP3    H111553   5.829   5.703   2.037
 3870TIP3    H211554   5.691   5.728   2.094
 3871TIP3   OH211555   2.226   7.385   4.034
 3871TIP3    H111556   2.184   7.468   4.057
 3871TIP3    H211557   2.212   7.329   4.111
 3872TIP3   OH211558   1.148   5.544   0.709
 3872TIP3    H111559   1.157   5.636   0.733
 3872TIP3    H211560   1.084   5.509   0.770
 3873TIP3   OH211561   3.694   5.116   1.635
 3873TIP3    H111562   3.761   5.080   1.577
 3873TIP3    H211563   3.636   5.042   1.653
 3874TIP3   OH211564   6.261   5.354   5.577
 3874TIP3    H111565   6.254   5.287   5.645
 3874TIP3    H211566   6.312   5.424   5.618
 3875TIP3   OH211567   2.299   3.546   5.015
 3875TIP3    H111568   2.263   3.522   5.101
 3875TIP3    H211569   2.270   3.636   5.002
 3876TIP3   OH211570   2.620   2.626   4.132
 3876TIP3    H111571   2.574   2.649   4.213
 3876TIP3    H211572   2.682   2.698   4.118
 3877TIP3   OH211573   2.291   1.824   1.881
 3877TIP3    H111574   2.382   1.852   1.876
 3877TIP3    H211575   2.274   1.782   1.796
 3878TIP3   OH211576   4.010   5.341   1.386
 3878TIP3    H111577   4.015   5.436   1.396
 3878TIP3    H211578   4.097   5.315   1.355
 3879TIP3   OH211579   4.443   5.276   5.162
 3879TIP3    H111580   4.458   5.305   5.071
 3879TIP3    H211581   4.512   5.213   5.179
 3880TIP3   OH211582   1.377   5.307   2.528
 3880TIP3    H111583   1.319   5.247   2.481
 3880TIP3    H211584   1.465   5.281   2.501
 3881TIP3   OH211585   0.215   5.770   5.220
 3881TIP3    H111586   0.250   5.681   5.214
 3881TIP3    H211587   0.186   5.790   5.131
 3882TIP3   OH211588   3.422   6.839   4.289
 3882TIP3    H111589   3.428   6.909   4.225
 3882TIP3    H211590   3.476   6.768   4.253
 3883TIP3   OH211591   2.746   2.097   4.705
 3883TIP3    H111592   2.756   2.031   4.637
 3883TIP3    H211593   2.833   2.102   4.746
 3884TIP3   OH211594   7.723   4.915   5.219
 3884TIP3    H111595   7.682   4.869   5.292
 3884TIP3    H211596   7.707   5.008   5.238
 3885TIP3   OH211597   6.915   2.048   4.962
 3885TIP3    H111598   7.002   2.011   4.947
 3885TIP3    H211599   6.898   2.030   5.055
 3886TIP3   OH211600   7.024   3.564   5.178
 3886TIP3    H111601   6.999   3.583   5.088
 3886TIP3    H211602   7.118   3.550   5.175
 3887TIP3   OH211603   1.787   0.853   5.588
 3887TIP3    H111604   1.828   0.938   5.600
 3887TIP3    H211605   1.860   0.792   5.579
 3888TIP3   OH211606   1.068   4.417   5.188
 3888TIP3    H111607   1.069   4.465   5.105
 3888TIP3    H211608   1.105   4.331   5.166
 3889TIP3   OH211609   2.930   3.617   2.308
 3889TIP3    H111610   2.977   3.537   2.331
 3889TIP3    H211611   2.999   3.679   2.281
 3890TIP3   OH211612   1.695   5.489   5.472
 3890TIP3    H111613   1.619   5.545   5.458
 3890TIP3    H211614   1.673   5.407   5.429
 3891TIP3   OH211615   2.021   6.203   6.347
 3891TIP3    H111616   2.071   6.238   6.421
 3891TIP3    H211617   1.954   6.269   6.331
 3892TIP3   OH211618   2.948   4.630   2.551
 3892TIP3    H111619   2.916   4.606   2.464
 3892TIP3    H211620   3.042   4.613   2.548
 3893TIP3   OH211621   8.004   4.689   5.309
 3893TIP3    H111622   8.068   4.671   5.378
 3893TIP3    H211623   7.919   4.687   5.353
 3894TIP3   OH211624   1.043   0.842   0.955
 3894TIP3    H111625   1.003   0.766   0.912
 3894TIP3    H211626   0.975   0.876   1.013
 3895TIP3   OH211627   5.500   3.002   4.612
 3895TIP3    H111628   5.565   3.056   4.656
 3895TIP3    H211629   5.551   2.933   4.568
 3896TIP3   OH211630   6.346   0.050   4.893
 3896TIP3    H111631   6.387  -0.036   4.899
 3896TIP3    H211632   6.266   0.042   4.946
 3897TIP3   OH211633   2.343   1.839   3.417
 3897TIP3    H111634   2.307   1.796   3.495
 3897TIP3    H211635   2.304   1.927   3.418
 3898TIP3   OH211636   6.575   0.901   0.598
 3898TIP3    H111637   6.652   0.907   0.654
 3898TIP3    H211638   6.591   0.963   0.527
 3899TIP3   OH211639   5.685   6.669   2.285
 3899TIP3    H111640   5.632   6.624   2.350
 3899TIP3    H211641   5.654   6.636   2.201
 3900TIP3   OH211642   7.131   3.751   2.642
 3900TIP3    H111643   7.225   3.733   2.631
 3900TIP3    H211644   7.126   3.846   2.657
 3901TIP3   OH211645   1.771   3.259   5.493
 3901TIP3    H111646   1.808   3.332   5.542
 3901TIP3    H211647   1.685   3.290   5.464
 3902TIP3   OH211648   5.300   5.735   2.536
 3902TIP3    H111649   5.251   5.804   2.581
 3902TIP3    H211650   5.268   5.654   2.575
 3903TIP3   OH211651   1.294   1.135   4.320
 3903TIP3    H111652   1.326   1.206   4.375
 3903TIP3    H211653   1.311   1.055   4.370
 3904TIP3   OH211654   2.713   6.352   6.734
 3904TIP3    H111655   2.770   6.379   6.807
 3904TIP3    H211656   2.732   6.415   6.665
 3905TIP3   OH211657   5.149   4.034   5.204
 3905TIP3    H111658   5.208   3.965   5.173
 3905TIP3    H211659   5.064   4.012   5.164
 3906TIP3   OH211660   7.729   4.793   0.218
 3906TIP3    H111661   7.691   4.752   0.140
 3906TIP3    H211662   7.802   4.737   0.242
 3907TIP3   OH211663   0.462   5.432   5.726
 3907TIP3    H111664   0.426   5.484   5.798
 3907TIP3    H211665   0.554   5.421   5.747
 3908TIP3   OH211666   2.867   2.155   4.997
 3908TIP3    H111667   2.943   2.209   5.016
 3908TIP3    H211668   2.884   2.072   5.041
 3909TIP3   OH211669   3.215   3.943   2.662
 3909TIP3    H111670   3.121   3.930   2.673
 3909TIP3    H211671   3.222   4.029   2.622
 3910TIP3   OH211672   6.930   6.903   2.438
 3910TIP3    H111673   6.926   6.828   2.497
 3910TIP3    H211674   6.851   6.953   2.458
 3911TIP3   OH211675   1.008   1.271   3.510
 3911TIP3    H111676   0.997   1.310   3.423
 3911TIP3    H211677   1.061   1.335   3.558
 3912TIP3   OH211678   2.839   4.842   4.602
 3912TIP3    H111679   2.901   4.863   4.672
 3912TIP3    H211680   2.881   4.773   4.552
 3913TIP3   OH211681   6.026   5.294   5.949
 3913TIP3    H111682   6.115   5.256   5.953
 3913TIP3    H211683   6.030   5.356   5.877
 3914TIP3   OH211684   4.177   0.480   4.129
 3914TIP3    H111685   4.209   0.569   4.115
 3914TIP3    H211686   4.248   0.424   4.097
 3915TIP3   OH211687   3.027   3.039   6.191
 3915TIP3    H111688   3.036   2.945   6.208
 3915TIP3    H211689   3.052   3.049   6.099
 3916TIP3   OH211690   2.461   3.630   0.100
 3916TIP3    H111691   2.418   3.692   0.160
 3916TIP3    H211692   2.545   3.670   0.079
 3917TIP3   OH211693   2.805   3.314   2.766
 3917TIP3    H111694   2.889   3.328   2.809
 3917TIP3    H211695   2.745   3.373   2.812
 3918TIP3   OH211696   3.437   1.543   4.262
 3918TIP3    H111697   3.359   1.548   4.316
 3918TIP3    H211698   3.424   1.609   4.194
 3919TIP3   OH211699   2.117   7.555   3.626
 3919TIP3    H111700   2.069   7.615   3.569
 3919TIP3    H211701   2.184   7.516   3.570
 3920TIP3   OH211702   5.169   7.418   3.690
 3920TIP3    H111703   5.194   7.436   3.599
 3920TIP3    H211704   5.171   7.323   3.697
 3921TIP3   OH211705   1.396   6.719   3.780
 3921TIP3    H111706   1.388   6.794   3.839
 3921TIP3    H211707   1.355   6.748   3.698
 3922TIP3   OH211708   3.117   1.566   5.196
 3922TIP3    H111709   3.195   1.618   5.213
 3922TIP3    H211710   3.054   1.627   5.157
 3923TIP3   OH211711   7.884   6.240   2.568
 3923TIP3    H111712   7.902   6.332   2.588
 3923TIP3    H211713   7.961   6.193   2.599
 3924TIP3   OH211714   3.218   4.192   2.830
 3924TIP3    H111715   3.225   4.280   2.792
 3924TIP3    H211716   3.250   4.134   2.761
 3925TIP3   OH211717   2.911   7.132   2.241
 3925TIP3    H111718   2.886   7.165   2.327
 3925TIP3    H211719   2.857   7.181   2.179
 3926TIP3   OH211720   3.484   5.377   4.345
 3926TIP3    H111721   3.570   5.340   4.326
 3926TIP3    H211722   3.488   5.467   4.314
 3927TIP3   OH211723   5.185   5.846   3.013
 3927TIP3    H111724   5.110   5.805   2.971
 3927TIP3    H211725   5.261   5.812   2.965
 3928TIP3   OH211726   2.055   7.447   1.520
 3928TIP3    H111727   2.135   7.486   1.556
 3928TIP3    H211728   2.054   7.474   1.429
 3929TIP3   OH211729   7.717   7.086   6.631
 3929TIP3    H111730   7.663   7.014   6.663
 3929TIP3    H211731   7.807   7.056   6.646
 3930TIP3   OH211732   2.120   2.349   4.338
 3930TIP3    H111733   2.206   2.315   4.360
 3930TIP3    H211734   2.134   2.400   4.258
 3931TIP3   OH211735   2.388   4.069   0.902
 3931TIP3    H111736   2.473   4.048   0.940
 3931TIP3    H211737   2.387   4.023   0.818
 3932TIP3   OH211738   3.174   6.662   3.350
 3932TIP3    H111739   3.079   6.654   3.355
 3932TIP3    H211740   3.188   6.749   3.313
 3933TIP3   OH211741   7.761   6.361   0.233
 3933TIP3    H111742   7.692   6.320   0.182
 3933TIP3    H211743   7.725   6.370   0.321
 3934TIP3   OH211744   5.756   7.208   1.938
 3934TIP3    H111745   5.696   7.217   1.864
 3934TIP3    H211746   5.704   7.231   2.015
 3935TIP3   OH211747   2.735   3.384   4.986
 3935TIP3    H111748   2.689   3.458   4.946
 3935TIP3    H211749   2.782   3.422   5.060
 3936TIP3   OH211750   1.331   6.514   6.532
 3936TIP3    H111751   1.255   6.545   6.482
 3936TIP3    H211752   1.387   6.591   6.541
 3937TIP3   OH211753   5.847   4.131   4.239
 3937TIP3    H111754   5.852   4.212   4.187
 3937TIP3    H211755   5.757   4.102   4.230
 3938TIP3   OH211756   4.513   4.679   3.212
 3938TIP3    H111757   4.542   4.755   3.163
 3938TIP3    H211758   4.592   4.643   3.252
 3939TIP3   OH211759   7.684   7.795   1.112
 3939TIP3    H111760   7.630   7.745   1.173
 3939TIP3    H211761   7.689   7.882   1.152
 3940TIP3   OH211762   2.065   2.331   3.122
 3940TIP3    H111763   2.143   2.383   3.102
 3940TIP3    H211764   2.098   2.254   3.167
 3941TIP3   OH211765   0.810   0.407   6.245
 3941TIP3    H111766   0.822   0.313   6.255
 3941TIP3    H211767   0.899   0.442   6.237
 3942TIP3   OH211768   0.298   4.248   4.082
 3942TIP3    H111769   0.253   4.330   4.104
 3942TIP3    H211770   0.386   4.258   4.120
 3943TIP3   OH211771   8.107   5.691   4.533
 3943TIP3    H111772   8.083   5.608   4.493
 3943TIP3    H211773   8.054   5.696   4.613
 3944TIP3   OH211774   0.356   4.713   6.237
 3944TIP3    H111775   0.334   4.746   6.150
 3944TIP3    H211776   0.407   4.783   6.277
 3945TIP3   OH211777   7.623   7.690   3.162
 3945TIP3    H111778   7.544   7.637   3.154
 3945TIP3    H211779   7.600   7.760   3.224
 3946TIP3   OH211780   1.347   0.941   5.644
 3946TIP3    H111781   1.376   0.996   5.571
 3946TIP3    H211782   1.424   0.889   5.668
 3947TIP3   OH211783   6.578   5.491   0.081
 3947TIP3    H111784   6.616   5.571   0.046
 3947TIP3    H211785   6.483   5.504   0.074
 3948TIP3   OH211786   7.147   2.622   5.447
 3948TIP3    H111787   7.199   2.547   5.418
 3948TIP3    H211788   7.066   2.616   5.396
 3949TIP3   OH211789   1.250   5.020   2.324
 3949TIP3    H111790   1.244   4.928   2.351
 3949TIP3    H211791   1.159   5.047   2.310
 3950TIP3   OH211792   3.100   0.081   3.769
 3950TIP3    H111793   3.006   0.069   3.766
 3950TIP3    H211794   3.124   0.108   3.681
 3951TIP3   OH211795   1.391   4.285   1.006
 3951TIP3    H111796   1.342   4.211   0.970
 3951TIP3    H211797   1.483   4.263   0.991
 3952TIP3   OH211798   2.901   1.845   2.759
 3952TIP3    H111799   2.812   1.862   2.790
 3952TIP3    H211800   2.894   1.765   2.708
 3953TIP3   OH211801   4.779   3.179   0.876
 3953TIP3    H111802   4.811   3.177   0.786
 3953TIP3    H211803   4.684   3.183   0.868
 3954TIP3   OH211804   6.745   7.159   0.464
 3954TIP3    H111805   6.734   7.135   0.372
 3954TIP3    H211806   6.777   7.249   0.462
 3955TIP3   OH211807   0.737   6.575   3.378
 3955TIP3    H111808   0.732   6.670   3.363
 3955TIP3    H211809   0.720   6.565   3.472
 3956TIP3   OH211810   6.659   0.274   3.116
 3956TIP3    H111811   6.666   0.369   3.105
 3956TIP3    H211812   6.657   0.239   3.027
 3957TIP3   OH211813   5.481   4.435   2.163
 3957TIP3    H111814   5.500   4.409   2.253
 3957TIP3    H211815   5.527   4.371   2.109
 3958TIP3   OH211816   4.597   6.481   0.579
 3958TIP3    H111817   4.686   6.499   0.549
 3958TIP3    H211818   4.546   6.472   0.498
 3959TIP3   OH211819   4.077   6.546   3.279
 3959TIP3    H111820   4.138   6.505   3.341
 3959TIP3    H211821   3.997   6.493   3.287
 3960TIP3   OH211822   4.682   6.516   0.021
 3960TIP3    H111823   4.656   6.588  -0.037
 3960TIP3    H211824   4.719   6.558   0.098
 3961TIP3   OH211825   3.774   4.960   6.458
 3961TIP3    H111826   3.779   4.869   6.488
 3961TIP3    H211827   3.725   5.005   6.527
 3962TIP3   OH211828   3.537   0.028   1.449
 3962TIP3    H111829   3.463  -0.011   1.403
 3962TIP3    H211830   3.599   0.049   1.379
 3963TIP3   OH211831   2.967   2.771   5.234
 3963TIP3    H111832   3.040   2.744   5.177
 3963TIP3    H211833   2.891   2.725   5.200
 3964TIP3   OH211834   5.077   5.327   0.781
 3964TIP3    H111835   4.996   5.358   0.821
 3964TIP3    H211836   5.126   5.286   0.853
 3965TIP3   OH211837   4.913   5.149   1.958
 3965TIP3    H111838   4.946   5.115   2.041
 3965TIP3    H211839   4.821   5.123   1.956
 3966TIP3   OH211840   4.420   7.363   0.285
 3966TIP3    H111841   4.331   7.353   0.250
 3966TIP3    H211842   4.452   7.445   0.247
 3967TIP3   OH211843   4.869   6.486   4.177
 3967TIP3    H111844   4.911   6.570   4.157
 3967TIP3    H211845   4.808   6.472   4.105
 3968TIP3   OH211846   1.694   1.892   3.615
 3968TIP3    H111847   1.786   1.869   3.602
 3968TIP3    H211848   1.656   1.816   3.659
 3969TIP3   OH211849   7.904   2.279   2.783
 3969TIP3    H111850   7.899   2.366   2.823
 3969TIP3    H211851   7.827   2.273   2.728
 3970TIP3   OH211852   8.071   2.427   4.671
 3970TIP3    H111853   8.078   2.506   4.725
 3970TIP3    H211854   8.016   2.453   4.597
 3971TIP3   OH211855   1.985   7.765   6.565
 3971TIP3    H111856   2.066   7.761   6.514
 3971TIP3    H211857   1.916   7.745   6.502
 3972TIP3   OH211858   7.933   2.394   3.725
 3972TIP3    H111859   7.842   2.425   3.729
 3972TIP3    H211860   7.978   2.446   3.792
 3973TIP3   OH211861   6.281   2.828   3.497
 3973TIP3    H111862   6.247   2.857   3.582
 3973TIP3    H211863   6.282   2.733   3.503
 3974TIP3   OH211864   3.234   3.727   1.234
 3974TIP3    H111865   3.213   3.820   1.237
 3974TIP3    H211866   3.329   3.723   1.228
 3975TIP3   OH211867   5.784   1.297   5.041
 3975TIP3    H111868   5.858   1.304   4.980
 3975TIP3    H211869   5.727   1.231   5.001
 3976TIP3   OH211870   3.163   3.520   1.848
 3976TIP3    H111871   3.204   3.542   1.764
 3976TIP3    H211872   3.106   3.446   1.828
 3977TIP3   OH211873   5.001   0.461   6.454
 3977TIP3    H111874   4.940   0.404   6.501
 3977TIP3    H211875   4.947   0.531   6.419
 3978TIP3   OH211876   3.911   0.693   0.313
 3978TIP3    H111877   3.825   0.693   0.270
 3978TIP3    H211878   3.942   0.603   0.304
 3979TIP3   OH211879   4.513   3.326   5.108
 3979TIP3    H111880   4.571   3.250   5.105
 3979TIP3    H211881   4.456   3.309   5.184
 3980TIP3   OH211882   3.983   7.588   3.167
 3980TIP3    H111883   3.993   7.678   3.135
 3980TIP3    H211884   4.023   7.590   3.254
 3981TIP3   OH211885   6.333   7.696   0.606
 3981TIP3    H111886   6.313   7.622   0.549
 3981TIP3    H211887   6.295   7.672   0.691
 3982TIP3   OH211888   6.814   7.224   4.377
 3982TIP3    H111889   6.812   7.155   4.444
 3982TIP3    H211890   6.722   7.239   4.356
 3983TIP3   OH211891   1.991   7.058   3.246
 3983TIP3    H111892   2.031   7.133   3.289
 3983TIP3    H211893   1.905   7.049   3.287
 3984TIP3   OH211894   1.956   3.087   5.055
 3984TIP3    H111895   1.938   3.146   4.982
 3984TIP3    H211896   2.022   3.133   5.108
 3985TIP3   OH211897   6.866   4.837   4.035
 3985TIP3    H111898   6.818   4.756   4.019
 3985TIP3    H211899   6.911   4.822   4.118
 3986TIP3   OH211900   5.103   5.725   1.863
 3986TIP3    H111901   5.127   5.701   1.774
 3986TIP3    H211902   5.185   5.751   1.904
 3987TIP3   OH211903   3.393   5.231   0.059
 3987TIP3    H111904   3.372   5.304   0.001
 3987TIP3    H211905   3.437   5.168   0.002
 3988TIP3   OH211906   6.394   4.084   1.878
 3988TIP3    H111907   6.368   4.139   1.804
 3988TIP3    H211908   6.449   4.017   1.839
 3989TIP3   OH211909   0.375   6.753   4.397
 3989TIP3    H111910   0.320   6.767   4.474
 3989TIP3    H211911   0.418   6.837   4.382
 3990TIP3   OH211912   7.722   3.145   6.125
 3990TIP3    H111913   7.801   3.117   6.079
 3990TIP3    H211914   7.692   3.066   6.170
 3991TIP3   OH211915   4.074   0.216   4.001
 3991TIP3    H111916   4.052   0.271   4.075
 3991TIP3    H211917   4.162   0.184   4.021
 3992TIP3   OH211918   2.655   2.201   0.304
 3992TIP3    H111919   2.670   2.216   0.211
 3992TIP3    H211920   2.691   2.278   0.347
 3993TIP3   OH211921   1.643   0.548   1.175
 3993TIP3    H111922   1.558   0.517   1.144
 3993TIP3    H211923   1.635   0.644   1.176
 3994TIP3   OH211924   0.316   0.252   0.467
 3994TIP3    H111925   0.238   0.306   0.482
 3994TIP3    H211926   0.281   0.165   0.445
 3995TIP3   OH211927   7.345   4.322   3.525
 3995TIP3    H111928   7.434   4.298   3.499
 3995TIP3    H211929   7.339   4.415   3.504
 3996TIP3   OH211930   3.387   3.837   3.659
 3996TIP3    H111931   3.419   3.783   3.587
 3996TIP3    H211932   3.466   3.864   3.705
 3997TIP3   OH211933   3.533   0.735   1.372
 3997TIP3    H111934   3.479   0.675   1.423
 3997TIP3    H211935   3.470   0.784   1.318
 3998TIP3   OH211936   4.936   6.011   2.229
 3998TIP3    H111937   4.998   5.939   2.217
 3998TIP3    H211938   4.924   6.016   2.324
 3999TIP3   OH211939   2.014   1.222   4.627
 3999TIP3    H111940   1.956   1.170   4.571
 3999TIP3    H211941   1.956   1.256   4.696
 4000TIP3   OH211942   7.329   1.595   0.560
 4000TIP3    H111943   7.341   1.501   0.575
 4000TIP3    H211944   7.235   1.605   0.545
 4001TIP3   OH211945   2.927   4.443   0.083
 4001TIP3    H111946   3.013   4.402   0.086
 4001TIP3    H211947   2.928   4.508   0.154
 4002TIP3   OH211948   1.064   3.751   5.422
 4002TIP3    H111949   1.025   3.812   5.486
 4002TIP3    H211950   1.150   3.730   5.459
 4003TIP3   OH211951   3.950   0.425   5.333
 4003TIP3    H111952   3.902   0.492   5.284
 4003TIP3    H211953   4.011   0.389   5.269
 4004TIP3   OH211954   1.873   3.641   0.590
 4004TIP3    H111955   1.858   3.645   0.684
 4004TIP3    H211956   1.785   3.641   0.551
 4005TIP3   OH211957   3.699   3.615   5.682
 4005TIP3    H111958   3.776   3.657   5.721
 4005TIP3    H211959   3.632   3.622   5.750
 4006TIP3   OH211960   2.296   3.548   1.602
 4006TIP3    H111961   2.256   3.635   1.588
 4006TIP3    H211962   2.278   3.529   1.695
 4007TIP3   OH211963   4.124   2.028   1.805
 4007TIP3    H111964   4.081   1.968   1.743
 4007TIP3    H211965   4.209   1.987   1.822
 4008TIP3   OH211966   7.614   3.767   3.169
 4008TIP3    H111967   7.681   3.719   3.120
 4008TIP3    H211968   7.653   3.780   3.256
 4009TIP3   OH211969   0.819   4.510   6.396
 4009TIP3    H111970   0.842   4.419   6.410
 4009TIP3    H211971   0.724   4.509   6.384
 4010TIP3   OH211972   3.159   7.260   3.185
 4010TIP3    H111973   3.190   7.228   3.101
 4010TIP3    H211974   3.232   7.246   3.245
 4011TIP3   OH211975   4.117   3.302   0.865
 4011TIP3    H111976   4.163   3.289   0.948
 4011TIP3    H211977   4.183   3.286   0.798
 4012TIP3   OH211978   0.504   6.421   4.678
 4012TIP3    H111979   0.470   6.419   4.767
 4012TIP3    H211980   0.553   6.340   4.668
 4013TIP3   OH211981   2.096   0.179   1.450
 4013TIP3    H111982   2.092   0.095   1.495
 4013TIP3    H211983   2.037   0.170   1.375
 4014TIP3   OH211984   1.215   0.227   3.852
 4014TIP3    H111985   1.213   0.184   3.938
 4014TIP3    H211986   1.183   0.315   3.869
 4015TIP3   OH211987   7.771   3.848   0.985
 4015TIP3    H111988   7.734   3.875   0.901
 4015TIP3    H211989   7.770   3.927   1.039
 4016TIP3   OH211990   3.926   0.941   5.099
 4016TIP3    H111991   3.929   1.022   5.047
 4016TIP3    H211992   4.013   0.934   5.137
 4017TIP3   OH211993   6.653   5.245   2.069
 4017TIP3    H111994   6.603   5.169   2.099
 4017TIP3    H211995   6.691   5.283   2.149
 4018TIP3   OH211996   2.001   5.782   0.467
 4018TIP3    H111997   1.953   5.858   0.434
 4018TIP3    H211998   2.057   5.756   0.394
 4019TIP3   OH211999   6.845   2.057   5.232
 4019TIP3    H112000   6.756   2.045   5.198
 4019TIP3    H212001   6.861   1.980   5.286
 4020TIP3   OH212002   6.285   6.917   4.689
 4020TIP3    H112003   6.380   6.902   4.684
 4020TIP3    H212004   6.257   6.925   4.598
 4021TIP3   OH212005   1.150   1.509   3.509
 4021TIP3    H112006   1.245   1.513   3.522
 4021TIP3    H212007   1.138   1.494   3.415
 4022TIP3   OH212008   1.990   0.161   1.930
 4022TIP3    H112009   2.057   0.221   1.963
 4022TIP3    H212010   2.026   0.074   1.945
 4023TIP3   OH212011   7.223   0.627   3.656
 4023TIP3    H112012   7.278   0.684   3.710
 4023TIP3    H212013   7.276   0.609   3.578
 4024TIP3   OH212014   6.510   3.903   6.190
 4024TIP3    H112015   6.428   3.884   6.236
 4024TIP3    H212016   6.485   3.969   6.125
 4025TIP3   OH212017   7.438   2.219   6.198
 4025TIP3    H112018   7.454   2.195   6.106
 4025TIP3    H212019   7.385   2.298   6.193
 4026TIP3   OH212020   5.522   5.363   4.140
 4026TIP3    H112021   5.498   5.318   4.221
 4026TIP3    H212022   5.488   5.306   4.071
 4027TIP3   OH212023   3.429   3.355   0.701
 4027TIP3    H112024   3.413   3.283   0.762
 4027TIP3    H212025   3.513   3.335   0.661
 4028TIP3   OH212026   7.916   6.599   4.243
 4028TIP3    H112027   7.865   6.558   4.313
 4028TIP3    H212028   7.871   6.682   4.226
 4029TIP3   OH212029   6.295   7.406   2.993
 4029TIP3    H112030   6.288   7.491   2.949
 4029TIP3    H212031   6.215   7.359   2.967
 4030TIP3   OH212032   2.477   3.457   6.546
 4030TIP3    H112033   2.515   3.381   6.590
 4030TIP3    H212034   2.553   3.504   6.511
 4031TIP3   OH212035   3.898   3.088   1.624
 4031TIP3    H112036   3.927   3.016   1.679
 4031TIP3    H212037   3.956   3.161   1.648
 4032TIP3   OH212038   6.087   0.434   2.765
 4032TIP3    H112039   6.070   0.504   2.827
 4032TIP3    H212040   6.114   0.479   2.685
 4033TIP3   OH212041   7.677   0.372   2.276
 4033TIP3    H112042   7.694   0.280   2.297
 4033TIP3    H212043   7.593   0.391   2.317
 4034TIP3   OH212044   7.049   5.713   4.967
 4034TIP3    H112045   7.077   5.805   4.961
 4034TIP3    H212046   7.031   5.700   5.060
 4035TIP3   OH212047   2.997   5.097   1.530
 4035TIP3    H112048   3.073   5.144   1.495
 4035TIP3    H212049   3.019   5.083   1.623
 4036TIP3   OH212050   4.706   7.387   2.330
 4036TIP3    H112051   4.690   7.296   2.355
 4036TIP3    H212052   4.687   7.438   2.409
 4037TIP3   OH212053   4.144   7.620   2.458
 4037TIP3    H112054   4.164   7.534   2.422
 4037TIP3    H212055   4.228   7.665   2.463
 4038TIP3   OH212056   4.559   1.250   6.430
 4038TIP3    H112057   4.492   1.314   6.453
 4038TIP3    H212058   4.617   1.296   6.369
 4039TIP3   OH212059   7.376   1.632   1.386
 4039TIP3    H112060   7.420   1.704   1.433
 4039TIP3    H212061   7.283   1.656   1.389
 4040TIP3   OH212062   1.079   3.462   5.905
 4040TIP3    H112063   0.991   3.450   5.871
 4040TIP3    H212064   1.099   3.382   5.952
 4041TIP3   OH212065   7.050   4.445   1.740
 4041TIP3    H112066   6.972   4.416   1.693
 4041TIP3    H212067   7.042   4.541   1.741
 4042TIP3   OH212068   0.161   3.302   0.701
 4042TIP3    H112069   0.241   3.353   0.704
 4042TIP3    H212070   0.179   3.233   0.636
 4043TIP3   OH212071   2.479   5.265   4.626
 4043TIP3    H112072   2.462   5.258   4.532
 4043TIP3    H212073   2.483   5.360   4.643
 4044TIP3   OH212074   3.880   6.306   2.972
 4044TIP3    H112075   3.932   6.303   3.052
 4044TIP3    H212076   3.939   6.276   2.903
 4045TIP3   OH212077   5.989   7.244   2.276
 4045TIP3    H112078   6.025   7.155   2.268
 4045TIP3    H212079   5.997   7.281   2.188
 4046TIP3   OH212080   3.340   6.684   1.661
 4046TIP3    H112081   3.248   6.662   1.647
 4046TIP3    H212082   3.345   6.778   1.642
 4047TIP3   OH212083   7.665   7.359   5.790
 4047TIP3    H112084   7.584   7.399   5.822
 4047TIP3    H212085   7.675   7.280   5.842
 4048TIP3   OH212086   1.886   3.595   5.930
 4048TIP3    H112087   1.946   3.553   5.992
 4048TIP3    H212088   1.897   3.689   5.946
 4049TIP3   OH212089   7.297   7.291   3.006
 4049TIP3    H112090   7.329   7.201   3.008
 4049TIP3    H212091   7.208   7.286   3.040
 4050TIP3   OH212092   4.560   1.290   0.615
 4050TIP3    H112093   4.620   1.225   0.651
 4050TIP3    H212094   4.475   1.268   0.654
 4051TIP3   OH212095   1.456   1.152   0.271
 4051TIP3    H112096   1.495   1.220   0.217
 4051TIP3    H212097   1.420   1.198   0.347
 4052TIP3   OH212098   6.505   2.563   1.856
 4052TIP3    H112099   6.463   2.601   1.933
 4052TIP3    H212100   6.466   2.608   1.781
 4053TIP3   OH212101   2.886   6.682   5.655
 4053TIP3    H112102   2.902   6.725   5.740
 4053TIP3    H212103   2.904   6.750   5.590
 4054TIP3   OH212104   1.338   0.378   5.482
 4054TIP3    H112105   1.423   0.373   5.526
 4054TIP3    H212106   1.349   0.447   5.417
 4055TIP3   OH212107   7.623   5.775   4.198
 4055TIP3    H112108   7.558   5.761   4.267
 4055TIP3    H212109   7.682   5.700   4.204
 4056TIP3   OH212110   4.189   3.126   2.327
 4056TIP3    H112111   4.244   3.101   2.401
 4056TIP3    H212112   4.248   3.175   2.270
 4057TIP3   OH212113   1.086   2.990   5.243
 4057TIP3    H112114   1.007   3.003   5.192
 4057TIP3    H212115   1.104   2.896   5.236
 4058TIP3   OH212116   0.142   0.297   1.036
 4058TIP3    H112117   0.186   0.226   0.989
 4058TIP3    H212118   0.123   0.260   1.122
 4059TIP3   OH212119   1.253   0.962   0.082
 4059TIP3    H112120   1.224   0.897   0.146
 4059TIP3    H212121   1.233   1.046   0.123
 4060TIP3   OH212122   6.368   6.007   0.481
 4060TIP3    H112123   6.408   6.089   0.451
 4060TIP3    H212124   6.277   6.030   0.499
 4061TIP3   OH212125   8.213   1.993   5.593
 4061TIP3    H112126   8.174   2.017   5.508
 4061TIP3    H212127   8.185   2.063   5.652
 4062TIP3   OH212128   7.057   2.556   5.134
 4062TIP3    H112129   7.050   2.620   5.063
 4062TIP3    H212130   7.083   2.475   5.091
 4063TIP3   OH212131   7.251   1.516   5.667
 4063TIP3    H112132   7.195   1.445   5.635
 4063TIP3    H212133   7.192   1.573   5.715
 4064TIP3   OH212134   0.274   4.814   5.983
 4064TIP3    H112135   0.225   4.891   6.012
 4064TIP3    H212136   0.347   4.849   5.933
 4065TIP3   OH212137   1.318   6.206   4.232
 4065TIP3    H112138   1.406   6.178   4.259
 4065TIP3    H212139   1.319   6.301   4.240
 4066TIP3   OH212140   8.042   0.484   3.576
 4066TIP3    H112141   8.075   0.399   3.545
 4066TIP3    H212142   8.114   0.520   3.628
 4067TIP3   OH212143   2.186   4.437   0.431
 4067TIP3    H112144   2.146   4.450   0.345
 4067TIP3    H212145   2.177   4.522   0.474
 4068TIP3   OH212146   0.943   5.485   0.930
 4068TIP3    H112147   0.981   5.407   0.969
 4068TIP3    H212148   0.853   5.486   0.962
 4069TIP3   OH212149   0.648   2.996   6.646
 4069TIP3    H112150   0.603   3.056   6.588
 4069TIP3    H212151   0.586   2.924   6.659
 4070TIP3   OH212152   1.850   2.647   2.313
 4070TIP3    H112153   1.795   2.667   2.389
 4070TIP3    H212154   1.804   2.575   2.269
 4071TIP3   OH212155   4.675   6.058   1.721
 4071TIP3    H112156   4.732   5.984   1.700
 4071TIP3    H212157   4.587   6.027   1.701
 4072TIP3   OH212158   4.539   6.889   1.633
 4072TIP3    H112159   4.520   6.867   1.542
 4072TIP3    H212160   4.586   6.812   1.667
 4073TIP3   OH212161   6.650   7.516   3.490
 4073TIP3    H112162   6.653   7.425   3.461
 4073TIP3    H212163   6.681   7.515   3.580
 4074TIP3   OH212164   2.522   5.248   5.548
 4074TIP3    H112165   2.549   5.295   5.627
 4074TIP3    H212166   2.495   5.162   5.580
 4075TIP3   OH212167   3.434   7.626   4.471
 4075TIP3    H112168   3.416   7.596   4.382
 4075TIP3    H212169   3.348   7.632   4.513
 4076TIP3   OH212170   5.130   1.344   1.152
 4076TIP3    H112171   5.051   1.395   1.131
 4076TIP3    H212172   5.193   1.410   1.183
 4077TIP3   OH212173   4.670   7.136   1.683
 4077TIP3    H112174   4.608   7.064   1.672
 4077TIP3    H212175   4.645   7.199   1.616
 4078TIP3   OH212176   0.708   6.179   3.051
 4078TIP3    H112177   0.721   6.272   3.066
 4078TIP3    H212178   0.796   6.142   3.051
 4079TIP3   OH212179   7.000   4.010   4.479
 4079TIP3    H112180   6.983   4.096   4.517
 4079TIP3    H212181   7.091   4.014   4.448
 4080TIP3   OH212182   4.245   1.364   4.538
 4080TIP3    H112183   4.157   1.350   4.573
 4080TIP3    H212184   4.278   1.439   4.587
 4081TIP3   OH212185   1.832   4.500   5.006
 4081TIP3    H112186   1.834   4.408   4.983
 4081TIP3    H212187   1.773   4.505   5.082
 4082TIP3   OH212188   3.567   6.905   5.025
 4082TIP3    H112189   3.531   6.953   5.100
 4082TIP3    H212190   3.601   6.824   5.064
 4083TIP3   OH212191   0.484   3.252   2.348
 4083TIP3    H112192   0.480   3.345   2.326
 4083TIP3    H212193   0.573   3.225   2.325
 4084TIP3   OH212194   2.188   3.463   1.841
 4084TIP3    H112195   2.178   3.528   1.911
 4084TIP3    H212196   2.142   3.386   1.874
 4085TIP3   OH212197   4.944   7.524   0.213
 4085TIP3    H112198   4.861   7.502   0.172
 4085TIP3    H212199   4.982   7.440   0.238
 4086TIP3   OH212200   3.693   3.496   5.386
 4086TIP3    H112201   3.653   3.493   5.299
 4086TIP3    H212202   3.671   3.583   5.419
 4087TIP3   OH212203   6.657   7.183   5.446
 4087TIP3    H112204   6.698   7.257   5.400
 4087TIP3    H212205   6.693   7.187   5.534
 4088TIP3   OH212206   5.821   0.506   2.971
 4088TIP3    H112207   5.852   0.416   2.983
 4088TIP3    H212208   5.729   0.496   2.946
 4089TIP3   OH212209   7.203   6.712   3.649
 4089TIP3    H112210   7.185   6.628   3.607
 4089TIP3    H212211   7.123   6.763   3.634
 4090TIP3   OH212212   1.899   5.042   0.678
 4090TIP3    H112213   1.920   5.110   0.743
 4090TIP3    H212214   1.803   5.041   0.676
 4091TIP3   OH212215   7.085   0.885   6.258
 4091TIP3    H112216   7.101   0.970   6.300
 4091TIP3    H212217   7.063   0.906   6.168
 4092TIP3   OH212218   8.106   2.171   1.868
 4092TIP3    H112219   8.192   2.128   1.869
 4092TIP3    H212220   8.122   2.255   1.824
 4093TIP3   OH212221   7.228   5.241   2.284
 4093TIP3    H112222   7.218   5.277   2.196
 4093TIP3    H212223   7.309   5.281   2.317
 4094TIP3   OH212224   3.887   0.722   3.785
 4094TIP3    H112225   3.878   0.782   3.711
 4094TIP3    H212226   3.973   0.743   3.822
 4095TIP3   OH212227   7.742   7.425   4.091
 4095TIP3    H112228   7.775   7.343   4.054
 4095TIP3    H212229   7.783   7.493   4.038
 4096TIP3   OH212230   2.144   2.309   2.308
 4096TIP3    H112231   2.146   2.215   2.326
 4096TIP3    H212232   2.096   2.347   2.382
 4097TIP3   OH212233   1.680   0.136   5.598
 4097TIP3    H112234   1.661   0.225   5.628
 4097TIP3    H212235   1.659   0.137   5.505
 4098TIP3   OH212236   7.339   7.550   3.925
 4098TIP3    H112237   7.373   7.624   3.975
 4098TIP3    H212238   7.287   7.589   3.855
 4099TIP3   OH212239   3.672   4.338   6.673
 4099TIP3    H112240   3.722   4.306   6.748
 4099TIP3    H212241   3.625   4.415   6.706
 4100TIP3   OH212242   2.425   4.510   4.663
 4100TIP3    H112243   2.445   4.502   4.757
 4100TIP3    H212244   2.481   4.581   4.633
 4101TIP3   OH212245   0.792   6.817   5.844
 4101TIP3    H112246   0.870   6.844   5.893
 4101TIP3    H212247   0.719   6.841   5.901
 4102TIP3   OH212248   7.883   6.853   5.923
 4102TIP3    H112249   7.960   6.911   5.923
 4102TIP3    H212250   7.818   6.901   5.872
 4103TIP3   OH212251   5.531   2.589   2.821
 4103TIP3    H112252   5.541   2.684   2.820
 4103TIP3    H212253   5.491   2.570   2.906
 4104TIP3   OH212254   7.892   5.310   0.589
 4104TIP3    H112255   7.891   5.215   0.584
 4104TIP3    H212256   7.907   5.339   0.498
 4105TIP3   OH212257   7.760   4.454   1.951
 4105TIP3    H112258   7.728   4.534   1.911
 4105TIP3    H212259   7.804   4.483   2.031
 4106TIP3   OH212260   6.219   4.659   5.553
 4106TIP3    H112261   6.283   4.610   5.502
 4106TIP3    H212262   6.154   4.594   5.580
 4107TIP3   OH212263   2.241   1.810   4.878
 4107TIP3    H112264   2.176   1.842   4.814
 4107TIP3    H212265   2.211   1.722   4.900
 4108TIP3   OH212266   1.050   3.363   0.987
 4108TIP3    H112267   1.034   3.457   0.972
 4108TIP3    H212268   0.999   3.319   0.919
 4109TIP3   OH212269   4.334   6.345   2.456
 4109TIP3    H112270   4.376   6.272   2.502
 4109TIP3    H212271   4.381   6.351   2.373
 4110TIP3   OH212272   7.808   5.088   3.893
 4110TIP3    H112273   7.773   5.012   3.938
 4110TIP3    H212274   7.883   5.116   3.946
 4111TIP3   OH212275   1.877   4.019   6.359
 4111TIP3    H112276   1.945   4.028   6.425
 4111TIP3    H212277   1.802   4.068   6.395
 4112TIP3   OH212278   3.903   5.428   5.671
 4112TIP3    H112279   3.953   5.347   5.669
 4112TIP3    H212280   3.934   5.477   5.595
 4113TIP3   OH212281   5.262   0.863   1.172
 4113TIP3    H112282   5.177   0.896   1.201
 4113TIP3    H212283   5.260   0.872   1.077
 4114TIP3   OH212284   3.678   3.275   2.393
 4114TIP3    H112285   3.707   3.294   2.482
 4114TIP3    H212286   3.583   3.267   2.400
 4115TIP3   OH212287   1.216   1.593   2.913
 4115TIP3    H112288   1.230   1.625   2.824
 4115TIP3    H212289   1.303   1.563   2.942
 4116TIP3   OH212290   5.728   1.121   3.880
 4116TIP3    H112291   5.669   1.057   3.839
 4116TIP3    H212292   5.729   1.195   3.819
 4117TIP3   OH212293   1.351   3.593   5.270
 4117TIP3    H112294   1.296   3.571   5.195
 4117TIP3    H212295   1.314   3.544   5.343
 4118TIP3   OH212296   4.849   4.954   4.624
 4118TIP3    H112297   4.894   5.024   4.576
 4118TIP3    H212298   4.908   4.879   4.617
 4119TIP3   OH212299   2.324   6.945   6.748
 4119TIP3    H112300   2.399   6.929   6.804
 4119TIP3    H212301   2.355   6.925   6.660
 4120TIP3   OH212302   5.914   4.710   5.624
 4120TIP3    H112303   5.859   4.788   5.628
 4120TIP3    H212304   5.960   4.709   5.708
 4121TIP3   OH212305   5.089   1.212   5.601
 4121TIP3    H112306   5.073   1.306   5.609
 4121TIP3    H212307   5.003   1.172   5.612
 4122TIP3   OH212308   1.292   1.484   0.179
 4122TIP3    H112309   1.315   1.515   0.267
 4122TIP3    H212310   1.256   1.562   0.136
 4123TIP3   OH212311   2.611   0.740   2.423
 4123TIP3    H112312   2.552   0.671   2.391
 4123TIP3    H212313   2.559   0.820   2.419
 4124TIP3   OH212314   3.385   0.810   1.759
 4124TIP3    H112315   3.372   0.898   1.725
 4124TIP3    H212316   3.309   0.794   1.815
 4125TIP3   OH212317   7.625   6.310   1.307
 4125TIP3    H112318   7.705   6.259   1.315
 4125TIP3    H212319   7.617   6.356   1.391
 4126TIP3   OH212320   0.361   0.938   1.746
 4126TIP3    H112321   0.377   1.033   1.753
 4126TIP3    H212322   0.267   0.931   1.729
 4127TIP3   OH212323   2.318   7.002   1.609
 4127TIP3    H112324   2.236   7.028   1.568
 4127TIP3    H212325   2.302   7.010   1.703
 4128TIP3   OH212326   4.423   1.537   1.506
 4128TIP3    H112327   4.377   1.472   1.453
 4128TIP3    H212328   4.509   1.546   1.467
 4129TIP3   OH212329   5.672   3.254   6.669
 4129TIP3    H112330   5.614   3.224   6.599
 4129TIP3    H212331   5.614   3.302   6.729
 4130TIP3   OH212332   2.925   2.063   3.266
 4130TIP3    H112333   3.004   2.084   3.217
 4130TIP3    H212334   2.924   1.967   3.272
 4131TIP3   OH212335   2.726   4.321   0.765
 4131TIP3    H112336   2.761   4.382   0.700
 4131TIP3    H212337   2.631   4.334   0.762
 4132TIP3   OH212338   4.692   5.654   5.191
 4132TIP3    H112339   4.720   5.566   5.167
 4132TIP3    H212340   4.746   5.678   5.266
 4133TIP3   OH212341   3.287   2.624   5.572
 4133TIP3    H112342   3.235   2.546   5.593
 4133TIP3    H212343   3.223   2.688   5.540
 4134TIP3   OH212344   1.478   3.876   3.175
 4134TIP3    H112345   1.561   3.847   3.214
 4134TIP3    H212346   1.415   3.872   3.247
 4135TIP3   OH212347   5.451   7.795   1.650
 4135TIP3    H112348   5.413   7.798   1.737
 4135TIP3    H212349   5.487   7.706   1.643
 4136TIP3   OH212350   8.264   5.663   4.965
 4136TIP3    H112351   8.349   5.620   4.975
 4136TIP3    H212352   8.264   5.696   4.876
 4137TIP3   OH212353   0.613   5.638   0.166
 4137TIP3    H112354   0.671   5.599   0.101
 4137TIP3    H212355   0.618   5.579   0.241
 4138TIP3   OH212356   5.838   6.968   6.451
 4138TIP3    H112357   5.907   6.908   6.422
 4138TIP3    H212358   5.820   7.023   6.374
 4139TIP3   OH212359   5.887   0.506   5.173
 4139TIP3    H112360   5.950   0.440   5.144
 4139TIP3    H212361   5.821   0.508   5.103
 4140TIP3   OH212362   3.272   2.692   2.258
 4140TIP3    H112363   3.226   2.770   2.287
 4140TIP3    H212364   3.302   2.713   2.170
 4141TIP3   OH212365   4.588   2.302   6.671
 4141TIP3    H112366   4.654   2.371   6.656
 4141TIP3    H212367   4.550   2.287   6.585
 4142TIP3   OH212368   3.034   3.277   5.315
 4142TIP3    H112369   3.115   3.318   5.283
 4142TIP3    H212370   3.026   3.196   5.264
 4143TIP3   OH212371   2.125   2.302   4.692
 4143TIP3    H112372   2.111   2.346   4.608
 4143TIP3    H212373   2.202   2.346   4.729
 4144TIP3   OH212374   1.341   5.458   4.621
 4144TIP3    H112375   1.436   5.469   4.627
 4144TIP3    H212376   1.320   5.395   4.689
 4145TIP3   OH212377   0.948   0.778  -0.002
 4145TIP3    H112378   0.944   0.704   0.059
 4145TIP3    H212379   0.962   0.854   0.054
 4146TIP3   OH212380   3.165   3.607   0.962
 4146TIP3    H112381   3.241   3.582   1.014
 4146TIP3    H212382   3.141   3.528   0.914
 4147TIP3   OH212383   3.226   4.528   2.247
 4147TIP3    H112384   3.158   4.489   2.301
 4147TIP3    H212385   3.296   4.551   2.309
 4148TIP3   OH212386   5.350   1.853   1.367
 4148TIP3    H112387   5.435   1.892   1.386
 4148TIP3    H212388   5.306   1.918   1.311
 4149TIP3   OH212389   6.493   6.716   0.436
 4149TIP3    H112390   6.440   6.754   0.506
 4149TIP3    H212391   6.530   6.791   0.390
 4150TIP3   OH212392   4.691   6.186   0.911
 4150TIP3    H112393   4.689   6.246   0.836
 4150TIP3    H212394   4.658   6.103   0.876
 4151TIP3   OH212395   4.851   2.102   2.355
 4151TIP3    H112396   4.761   2.093   2.322
 4151TIP3    H212397   4.858   2.194   2.379
 4152TIP3   OH212398   2.717   6.853   3.303
 4152TIP3    H112399   2.669   6.933   3.281
 4152TIP3    H212400   2.653   6.783   3.297
 4153TIP3   OH212401   6.495   7.143   3.880
 4153TIP3    H112402   6.531   7.131   3.792
 4153TIP3    H212403   6.537   7.075   3.933
 4154TIP3   OH212404   0.993   6.612   1.389
 4154TIP3    H112405   0.964   6.692   1.344
 4154TIP3    H212406   0.975   6.629   1.482
 4155TIP3   OH212407   2.575   4.753   4.787
 4155TIP3    H112408   2.548   4.823   4.847
 4155TIP3    H212409   2.612   4.685   4.843
 4156TIP3   OH212410   0.322   7.314   4.746
 4156TIP3    H112411   0.395   7.357   4.790
 4156TIP3    H212412   0.339   7.220   4.759
 4157TIP3   OH212413   7.492   6.029   2.969
 4157TIP3    H112414   7.568   6.081   2.995
 4157TIP3    H212415   7.484   5.963   3.038
 4158TIP3   OH212416   1.772   6.418   4.225
 4158TIP3    H112417   1.774   6.346   4.161
 4158TIP3    H212418   1.852   6.467   4.208
 4159TIP3   OH212419   6.952   4.898   1.249
 4159TIP3    H112420   6.895   4.943   1.311
 4159TIP3    H212421   6.934   4.805   1.263
 4160TIP3   OH212422   7.219   2.874   5.474
 4160TIP3    H112423   7.218   2.778   5.476
 4160TIP3    H212424   7.306   2.897   5.442
 4161TIP3   OH212425   5.063   3.711   3.480
 4161TIP3    H112426   5.029   3.630   3.517
 4161TIP3    H212427   4.985   3.762   3.456
 4162TIP3   OH212428   3.516   3.015   1.055
 4162TIP3    H112429   3.551   3.059   1.133
 4162TIP3    H212430   3.433   2.978   1.084
 4163TIP3   OH212431   8.200   5.866   0.992
 4163TIP3    H112432   8.227   5.930   1.058
 4163TIP3    H212433   8.108   5.848   1.012
 4164TIP3   OH212434   0.870   7.096   4.988
 4164TIP3    H112435   0.836   7.067   5.072
 4164TIP3    H212436   0.798   7.080   4.926
 4165TIP3   OH212437   0.854   0.980   3.567
 4165TIP3    H112438   0.928   0.984   3.506
 4165TIP3    H212439   0.841   1.071   3.594
 4166TIP3   OH212440   5.386   2.860   0.113
 4166TIP3    H112441   5.419   2.888   0.028
 4166TIP3    H212442   5.294   2.839   0.098
 4167TIP3   OH212443   0.237   2.688   1.414
 4167TIP3    H112444   0.147   2.680   1.446
 4167TIP3    H212445   0.230   2.674   1.319
 4168TIP3   OH212446   7.398   6.867   3.540
 4168TIP3    H112447   7.329   6.827   3.593
 4168TIP3    H212448   7.428   6.796   3.482
 4169TIP3   OH212449   5.518   4.702   2.605
 4169TIP3    H112450   5.527   4.649   2.525
 4169TIP3    H212451   5.450   4.657   2.656
 4170TIP3   OH212452   7.059   4.529   0.516
 4170TIP3    H112453   7.009   4.577   0.582
 4170TIP3    H212454   7.145   4.517   0.555
 4171TIP3   OH212455   4.305   4.672   0.129
 4171TIP3    H112456   4.232   4.621   0.165
 4171TIP3    H212457   4.282   4.763   0.147
 4172TIP3   OH212458   4.827   6.830   3.420
 4172TIP3    H112459   4.790   6.895   3.360
 4172TIP3    H212460   4.860   6.881   3.494
 4173TIP3   OH212461   4.260   5.787   3.879
 4173TIP3    H112462   4.314   5.774   3.802
 4173TIP3    H212463   4.198   5.856   3.855
 4174TIP3   OH212464   5.467   0.568   1.769
 4174TIP3    H112465   5.394   0.507   1.775
 4174TIP3    H212466   5.544   0.514   1.788
 4175TIP3   OH212467   0.947   7.402   4.939
 4175TIP3    H112468   0.939   7.312   4.968
 4175TIP3    H212469   1.024   7.436   4.985
 4176TIP3   OH212470   7.339   5.352   2.032
 4176TIP3    H112471   7.267   5.364   1.970
 4176TIP3    H212472   7.414   5.394   1.990
 4177TIP3   OH212473   1.775   3.135   1.085
 4177TIP3    H112474   1.811   3.047   1.074
 4177TIP3    H212475   1.686   3.120   1.117
 4178TIP3   OH212476   6.488   4.844   5.298
 4178TIP3    H112477   6.462   4.869   5.387
 4178TIP3    H212478   6.478   4.748   5.297
 4179TIP3   OH212479   2.301   5.748   1.558
 4179TIP3    H112480   2.224   5.806   1.557
 4179TIP3    H212481   2.375   5.808   1.558
 4180TIP3   OH212482   3.281   5.867   1.693
 4180TIP3    H112483   3.357   5.925   1.702
 4180TIP3    H212484   3.295   5.821   1.611
 4181TIP3   OH212485   4.496   5.562   0.315
 4181TIP3    H112486   4.478   5.593   0.403
 4181TIP3    H212487   4.583   5.521   0.320
 4182TIP3   OH212488   0.856   3.302   2.781
 4182TIP3    H112489   0.881   3.225   2.831
 4182TIP3    H212490   0.803   3.268   2.709
 4183TIP3   OH212491   8.172   6.875   6.630
 4183TIP3    H112492   8.104   6.942   6.616
 4183TIP3    H212493   8.254   6.923   6.623
 4184TIP3   OH212494   6.793   3.068   1.093
 4184TIP3    H112495   6.784   3.110   1.008
 4184TIP3    H212496   6.703   3.055   1.123
 4185TIP3   OH212497   3.079   1.351   6.103
 4185TIP3    H112498   3.110   1.427   6.054
 4185TIP3    H212499   3.103   1.276   6.048
 4186TIP3   OH212500   1.516   7.492   2.276
 4186TIP3    H112501   1.538   7.416   2.221
 4186TIP3    H212502   1.430   7.520   2.244
 4187TIP3   OH212503   1.274   4.829   2.057
 4187TIP3    H112504   1.201   4.776   2.089
 4187TIP3    H212505   1.350   4.799   2.107
 4188TIP3   OH212506   4.137   1.392   0.737
 4188TIP3    H112507   4.048   1.421   0.718
 4188TIP3    H212508   4.143   1.305   0.698
 4189TIP3   OH212509   4.275   7.498   4.584
 4189TIP3    H112510   4.348   7.508   4.645
 4189TIP3    H212511   4.230   7.582   4.586
 4190TIP3   OH212512   7.994   0.656   5.832
 4190TIP3    H112513   7.938   0.716   5.783
 4190TIP3    H212514   7.936   0.615   5.896
 4191TIP3   OH212515   1.984   5.832   1.029
 4191TIP3    H112516   2.001   5.919   0.991
 4191TIP3    H212517   2.050   5.822   1.097
 4192TIP3   OH212518   2.406   0.036   1.686
 4192TIP3    H112519   2.434  -0.022   1.757
 4192TIP3    H212520   2.386   0.118   1.729
 4193TIP3   OH212521   0.119   4.156   0.647
 4193TIP3    H112522   0.102   4.063   0.631
 4193TIP3    H212523   0.111   4.166   0.742
 4194TIP3   OH212524   6.718   5.528   2.026
 4194TIP3    H112525   6.740   5.510   1.935
 4194TIP3    H212526   6.673   5.449   2.056
 4195TIP3   OH212527   5.649   0.061   2.165
 4195TIP3    H112528   5.716   0.084   2.230
 4195TIP3    H212529   5.571   0.110   2.192
 4196TIP3   OH212530   2.417   4.199   0.567
 4196TIP3    H112531   2.346   4.134   0.562
 4196TIP3    H212532   2.496   4.150   0.544
 4197TIP3   OH212533   4.947   3.946   3.668
 4197TIP3    H112534   4.989   3.888   3.605
 4197TIP3    H212535   4.898   3.887   3.726
 4198TIP3   OH212536   6.511   5.155   6.029
 4198TIP3    H112537   6.572   5.197   5.969
 4198TIP3    H212538   6.564   5.093   6.079
 4199TIP3   OH212539   1.005   1.237   3.895
 4199TIP3    H112540   1.076   1.261   3.835
 4199TIP3    H212541   1.050   1.196   3.969
 4200TIP3   OH212542   6.199   2.010   3.734
 4200TIP3    H112543   6.242   2.088   3.770
 4200TIP3    H212544   6.252   1.937   3.766
 4201TIP3   OH212545   1.560   5.694   5.777
 4201TIP3    H112546   1.470   5.717   5.752
 4201TIP3    H212547   1.572   5.605   5.743
 4202TIP3   OH212548   7.871   1.582   4.632
 4202TIP3    H112549   7.916   1.630   4.562
 4202TIP3    H212550   7.941   1.559   4.693
 4203TIP3   OH212551   5.809   7.459   4.632
 4203TIP3    H112552   5.754   7.495   4.702
 4203TIP3    H212553   5.842   7.377   4.667
 4204TIP3   OH212554   0.749   0.059   3.819
 4204TIP3    H112555   0.807   0.085   3.748
 4204TIP3    H212556   0.685   0.000   3.778
 4205TIP3   OH212557   8.162   3.531   1.793
 4205TIP3    H112558   8.185   3.613   1.748
 4205TIP3    H212559   8.225   3.524   1.864
 4206TIP3   OH212560   7.861   5.068   4.621
 4206TIP3    H112561   7.923   5.140   4.611
 4206TIP3    H212562   7.894   5.018   4.695
 4207TIP3   OH212563   5.369   7.252   0.168
 4207TIP3    H112564   5.377   7.160   0.142
 4207TIP3    H212565   5.409   7.300   0.096
 4208TIP3   OH212566   6.238   7.762   4.912
 4208TIP3    H112567   6.206   7.852   4.916
 4208TIP3    H212568   6.277   7.746   4.998
 4209TIP3   OH212569   4.142   4.789   6.396
 4209TIP3    H112570   4.232   4.801   6.365
 4209TIP3    H212571   4.089   4.838   6.333
 4210TIP3   OH212572   1.515   3.814   5.975
 4210TIP3    H112573   1.551   3.807   6.064
 4210TIP3    H212574   1.527   3.906   5.952
 4211TIP3   OH212575   7.262   6.146   4.157
 4211TIP3    H112576   7.355   6.164   4.170
 4211TIP3    H212577   7.219   6.231   4.163
 4212TIP3   OH212578   3.702   2.691   4.389
 4212TIP3    H112579   3.711   2.606   4.346
 4212TIP3    H212580   3.610   2.715   4.378
 4213TIP3   OH212581   5.320   4.602   3.673
 4213TIP3    H112582   5.363   4.634   3.594
 4213TIP3    H212583   5.243   4.555   3.641
 4214TIP3   OH212584   2.335   4.864   6.339
 4214TIP3    H112585   2.428   4.883   6.336
 4214TIP3    H212586   2.329   4.776   6.377
 4215TIP3   OH212587   2.306   0.019   4.508
 4215TIP3    H112588   2.341  -0.063   4.472
 4215TIP3    H212589   2.286   0.072   4.431
 4216TIP3   OH212590   7.925   1.339   5.619
 4216TIP3    H112591   8.008   1.350   5.665
 4216TIP3    H212592   7.913   1.244   5.614
 4217TIP3   OH212593   1.633   2.564   5.072
 4217TIP3    H112594   1.593   2.585   5.156
 4217TIP3    H212595   1.610   2.637   5.015
 4218TIP3   OH212596   8.060   0.753   0.991
 4218TIP3    H112597   8.064   0.669   0.946
 4218TIP3    H212598   8.150   0.767   1.023
 4219TIP3   OH212599   5.925   7.450   5.698
 4219TIP3    H112600   5.868   7.409   5.632
 4219TIP3    H212601   6.007   7.468   5.651
 4220TIP3   OH212602   8.304   7.415   0.849
 4220TIP3    H112603   8.215   7.442   0.829
 4220TIP3    H212604   8.294   7.330   0.892
 4221TIP3   OH212605   1.599   4.362   4.803
 4221TIP3    H112606   1.592   4.345   4.709
 4221TIP3    H212607   1.641   4.447   4.809
 4222TIP3   OH212608   1.521   3.490   0.088
 4222TIP3    H112609   1.507   3.397   0.072
 4222TIP3    H212610   1.506   3.532   0.003
 4223TIP3   OH212611   5.637   7.562   4.102
 4223TIP3    H112612   5.667   7.524   4.184
 4223TIP3    H212613   5.543   7.541   4.098
 4224TIP3   OH212614   7.390   7.200   2.639
 4224TIP3    H112615   7.346   7.184   2.556
 4224TIP3    H212616   7.338   7.151   2.703
 4225TIP3   OH212617   6.914   5.882   6.118
 4225TIP3    H112618   6.965   5.851   6.193
 4225TIP3    H212619   6.953   5.839   6.042
 4226TIP3   OH212620   2.311   0.895   3.270
 4226TIP3    H112621   2.368   0.821   3.289
 4226TIP3    H212622   2.335   0.961   3.336
 4227TIP3   OH212623   7.148   4.647   6.626
 4227TIP3    H112624   7.094   4.707   6.678
 4227TIP3    H212625   7.203   4.603   6.691
 4228TIP3   OH212626   2.520   6.415   5.699
 4228TIP3    H112627   2.580   6.453   5.764
 4228TIP3    H212628   2.433   6.432   5.734
 4229TIP3   OH212629   1.737   7.134   1.414
 4229TIP3    H112630   1.746   7.120   1.320
 4229TIP3    H212631   1.736   7.045   1.451
 4230TIP3   OH212632   7.972   4.990   5.558
 4230TIP3    H112633   7.930   5.069   5.524
 4230TIP3    H212634   7.911   4.956   5.623
 4231TIP3   OH212635   8.235   4.355   5.173
 4231TIP3    H112636   8.201   4.310   5.250
 4231TIP3    H212637   8.162   4.407   5.141
 4232TIP3   OH212638   6.859   6.336   0.310
 4232TIP3    H112639   6.792   6.402   0.331
 4232TIP3    H212640   6.836   6.261   0.364
 4233TIP3   OH212641   4.087   1.148   2.401
 4233TIP3    H112642   4.087   1.225   2.457
 4233TIP3    H212643   4.068   1.075   2.461
 4234TIP3   OH212644   2.333   6.921   6.476
 4234TIP3    H112645   2.264   6.944   6.413
 4234TIP3    H212646   2.405   6.979   6.455
 4235TIP3   OH212647   6.348   6.743   1.917
 4235TIP3    H112648   6.434   6.722   1.880
 4235TIP3    H212649   6.289   6.739   1.843
 4236TIP3   OH212650   2.938   4.058   5.391
 4236TIP3    H112651   2.893   4.116   5.452
 4236TIP3    H212652   3.031   4.071   5.410
 4237TIP3   OH212653   0.282   5.475   3.021
 4237TIP3    H112654   0.292   5.410   3.091
 4237TIP3    H212655   0.368   5.516   3.014
 4238TIP3   OH212656   0.146   7.327   1.428
 4238TIP3    H112657   0.237   7.356   1.427
 4238TIP3    H212658   0.136   7.284   1.513
 4239TIP3   OH212659   2.468   0.310   6.215
 4239TIP3    H112660   2.457   0.341   6.305
 4239TIP3    H212661   2.397   0.352   6.167
 4240TIP3   OH212662   3.352   2.860   3.582
 4240TIP3    H112663   3.330   2.777   3.540
 4240TIP3    H212664   3.442   2.850   3.610
 4241TIP3   OH212665   2.032   5.159   3.037
 4241TIP3    H112666   1.969   5.124   3.100
 4241TIP3    H212667   1.978   5.209   2.975
 4242TIP3   OH212668   6.704   0.640   1.908
 4242TIP3    H112669   6.769   0.598   1.851
 4242TIP3    H212670   6.619   0.615   1.871
 4243TIP3   OH212671   6.172   0.007   3.881
 4243TIP3    H112672   6.199  -0.013   3.792
 4243TIP3    H212673   6.176   0.103   3.886
 4244TIP3   OH212674   5.471   3.589   5.836
 4244TIP3    H112675   5.538   3.636   5.886
 4244TIP3    H212676   5.478   3.625   5.748
 4245TIP3   OH212677   8.256   7.078   4.756
 4245TIP3    H112678   8.325   7.055   4.693
 4245TIP3    H212679   8.197   7.135   4.708
 4246TIP3   OH212680   7.394   5.993   6.489
 4246TIP3    H112681   7.422   5.989   6.397
 4246TIP3    H212682   7.435   6.071   6.524
 4247TIP3   OH212683   1.719   3.111   5.889
 4247TIP3    H112684   1.676   3.177   5.944
 4247TIP3    H212685   1.777   3.064   5.949
 4248TIP3   OH212686   3.610   2.707   6.738
 4248TIP3    H112687   3.561   2.776   6.694
 4248TIP3    H212688   3.547   2.636   6.749
 4249TIP3   OH212689   1.478   5.653   5.446
 4249TIP3    H112690   1.427   5.656   5.364
 4249TIP3    H212691   1.413   5.662   5.515
 4250TIP3   OH212692   3.219   1.491   2.299
 4250TIP3    H112693   3.233   1.585   2.293
 4250TIP3    H212694   3.305   1.456   2.322
 4251TIP3   OH212695   0.072   6.815   0.676
 4251TIP3    H112696   0.149   6.765   0.704
 4251TIP3    H212697   0.022   6.830   0.757
 4252TIP3   OH212698   0.047   0.282   2.371
 4252TIP3    H112699   0.141   0.280   2.391
 4252TIP3    H212700   0.010   0.209   2.421
 4253TIP3   OH212701   6.959   7.380   4.946
 4253TIP3    H112702   6.948   7.356   4.854
 4253TIP3    H212703   6.874   7.413   4.973
 4254TIP3   OH212704   5.967   5.307   2.284
 4254TIP3    H112705   5.991   5.265   2.202
 4254TIP3    H212706   6.050   5.325   2.328
 4255TIP3   OH212707   4.834   3.620   0.429
 4255TIP3    H112708   4.776   3.567   0.374
 4255TIP3    H212709   4.800   3.710   0.418
 4256TIP3   OH212710   2.927   6.438   0.858
 4256TIP3    H112711   2.919   6.379   0.784
 4256TIP3    H212712   2.838   6.444   0.894
 4257TIP3   OH212713   0.921   6.017   0.256
 4257TIP3    H112714   0.878   5.984   0.335
 4257TIP3    H212715   0.894   6.109   0.251
 4258TIP3   OH212716   3.570   0.236   6.569
 4258TIP3    H112717   3.549   0.303   6.633
 4258TIP3    H212718   3.571   0.154   6.619
 4259TIP3   OH212719   6.982   0.202   0.433
 4259TIP3    H112720   7.045   0.273   0.425
 4259TIP3    H212721   6.916   0.221   0.367
 4260TIP3   OH212722   5.771   6.365   3.829
 4260TIP3    H112723   5.714   6.299   3.788
 4260TIP3    H212724   5.825   6.398   3.757
 4261TIP3   OH212725   2.399   0.431   4.784
 4261TIP3    H112726   2.456   0.412   4.710
 4261TIP3    H212727   2.417   0.362   4.848
 4262TIP3   OH212728   6.345   7.393   2.487
 4262TIP3    H112729   6.336   7.425   2.397
 4262TIP3    H212730   6.317   7.466   2.542
 4263TIP3   OH212731   3.219   7.765   0.297
 4263TIP3    H112732   3.246   7.750   0.388
 4263TIP3    H212733   3.302   7.775   0.249
 4264TIP3   OH212734   5.921   0.984   1.670
 4264TIP3    H112735   5.928   0.952   1.580
 4264TIP3    H212736   6.002   0.954   1.712
 4265TIP3   OH212737   5.988   5.181   2.039
 4265TIP3    H112738   6.068   5.137   2.069
 4265TIP3    H212739   6.017   5.233   1.964
 4266TIP3   OH212740   3.610   6.150   4.760
 4266TIP3    H112741   3.689   6.147   4.706
 4266TIP3    H212742   3.573   6.237   4.745
 4267TIP3   OH212743   6.016   6.460   5.535
 4267TIP3    H112744   5.953   6.388   5.539
 4267TIP3    H212745   5.970   6.530   5.490
 4268TIP3   OH212746   6.368   7.744   3.145
 4268TIP3    H112747   6.459   7.772   3.136
 4268TIP3    H212748   6.349   7.753   3.239
 4269TIP3   OH212749   3.547   1.104   5.573
 4269TIP3    H112750   3.593   1.123   5.491
 4269TIP3    H212751   3.559   1.010   5.586
 4270TIP3   OH212752   3.133   1.615   6.361
 4270TIP3    H112753   3.091   1.700   6.348
 4270TIP3    H212754   3.061   1.552   6.357
 4271TIP3   OH212755   7.653   5.688   0.960
 4271TIP3    H112756   7.638   5.705   1.053
 4271TIP3    H212757   7.690   5.600   0.958
 4272TIP3   OH212758   3.313   0.378   4.887
 4272TIP3    H112759   3.306   0.356   4.980
 4272TIP3    H212760   3.284   0.299   4.841
 4273TIP3   OH212761   4.826   6.229   4.283
 4273TIP3    H112762   4.866   6.179   4.211
 4273TIP3    H212763   4.810   6.316   4.245
 4274TIP3   OH212764   2.517   0.161   3.892
 4274TIP3    H112765   2.459   0.230   3.860
 4274TIP3    H212766   2.516   0.170   3.987
 4275TIP3   OH212767   6.449   3.533   5.484
 4275TIP3    H112768   6.368   3.543   5.534
 4275TIP3    H212769   6.517   3.522   5.551
 4276TIP3   OH212770   4.355   2.044   0.400
 4276TIP3    H112771   4.359   2.060   0.306
 4276TIP3    H212772   4.425   1.980   0.416
 4277TIP3   OH212773   6.810   5.843   3.631
 4277TIP3    H112774   6.741   5.907   3.610
 4277TIP3    H212775   6.883   5.897   3.660
 4278TIP3   OH212776   5.591   4.403   5.886
 4278TIP3    H112777   5.621   4.457   5.813
 4278TIP3    H212778   5.638   4.438   5.962
 4279TIP3   OH212779   6.106   7.813   6.123
 4279TIP3    H112780   6.172   7.747   6.104
 4279TIP3    H212781   6.023   7.767   6.118
 4280TIP3   OH212782   7.996   4.427   1.373
 4280TIP3    H112783   7.913   4.472   1.357
 4280TIP3    H212784   8.049   4.444   1.296
 4281TIP3   OH212785   5.220   3.927   4.920
 4281TIP3    H112786   5.144   3.872   4.901
 4281TIP3    H212787   5.288   3.896   4.861
 4282TIP3   OH212788   1.678   4.956   1.068
 4282TIP3    H112789   1.661   4.886   1.132
 4282TIP3    H212790   1.773   4.964   1.066
 4283TIP3   OH212791   7.621   0.697   5.518
 4283TIP3    H112792   7.572   0.626   5.561
 4283TIP3    H212793   7.625   0.766   5.584
 4284TIP3   OH212794   3.924   0.726   1.150
 4284TIP3    H112795   4.010   0.765   1.165
 4284TIP3    H212796   3.862   0.792   1.181
 4285TIP3   OH212797   6.293   3.614   5.859
 4285TIP3    H112798   6.383   3.646   5.852
 4285TIP3    H212799   6.278   3.606   5.953
 4286TIP3   OH212800   5.507   3.249   0.517
 4286TIP3    H112801   5.552   3.295   0.588
 4286TIP3    H212802   5.459   3.179   0.560
 4287TIP3   OH212803   7.153   4.868   3.545
 4287TIP3    H112804   7.172   4.934   3.612
 4287TIP3    H212805   7.143   4.918   3.464
 4288TIP3   OH212806   3.818   0.268   5.755
 4288TIP3    H112807   3.727   0.285   5.729
 4288TIP3    H212808   3.811   0.235   5.845
 4289TIP3   OH212809   4.224   1.515   3.821
 4289TIP3    H112810   4.228   1.465   3.902
 4289TIP3    H212811   4.173   1.459   3.761
 4290TIP3   OH212812   2.390   6.717   2.290
 4290TIP3    H112813   2.407   6.808   2.314
 4290TIP3    H212814   2.359   6.720   2.200
 4291TIP3   OH212815   3.299   1.048   2.897
 4291TIP3    H112816   3.310   1.091   2.981
 4291TIP3    H212817   3.314   1.117   2.832
 4292TIP3   OH212818   3.263   0.604   1.430
 4292TIP3    H112819   3.215   0.674   1.472
 4292TIP3    H212820   3.221   0.594   1.344
 4293TIP3   OH212821   3.056   2.824   3.670
 4293TIP3    H112822   3.066   2.906   3.622
 4293TIP3    H212823   3.118   2.764   3.629
 4294TIP3   OH212824   3.144   4.785   2.969
 4294TIP3    H112825   3.189   4.714   2.923
 4294TIP3    H212826   3.140   4.856   2.905
 4295TIP3   OH212827   4.331   1.045   4.909
 4295TIP3    H112828   4.348   1.005   4.994
 4295TIP3    H212829   4.253   1.099   4.923
 4296TIP3   OH212830   0.892   1.998   5.538
 4296TIP3    H112831   0.856   2.037   5.459
 4296TIP3    H212832   0.853   2.049   5.609
 4297TIP3   OH212833   3.707   6.805   5.920
 4297TIP3    H112834   3.611   6.809   5.924
 4297TIP3    H212835   3.731   6.865   5.850
 4298TIP3   OH212836   0.778   4.240   5.808
 4298TIP3    H112837   0.769   4.334   5.821
 4298TIP3    H212838   0.846   4.231   5.741
 4299TIP3   OH212839   5.537   6.209   6.493
 4299TIP3    H112840   5.563   6.250   6.410
 4299TIP3    H212841   5.452   6.249   6.513
 4300TIP3   OH212842   3.855   5.027   5.814
 4300TIP3    H112843   3.779   5.073   5.779
 4300TIP3    H212844   3.930   5.077   5.782
 4301TIP3   OH212845   6.617   5.602   4.076
 4301TIP3    H112846   6.614   5.597   4.172
 4301TIP3    H212847   6.706   5.631   4.056
 4302TIP3   OH212848   4.942   1.519   1.097
 4302TIP3    H112849   4.926   1.598   1.147
 4302TIP3    H212850   4.855   1.484   1.078
 4303TIP3   OH212851   7.187   5.338   0.617
 4303TIP3    H112852   7.238   5.327   0.697
 4303TIP3    H212853   7.131   5.260   0.612
 4304TIP3   OH212854   5.177   5.402   5.255
 4304TIP3    H112855   5.087   5.369   5.257
 4304TIP3    H212856   5.220   5.352   5.186
 4305TIP3   OH212857   2.706   0.990   3.400
 4305TIP3    H112858   2.793   0.967   3.432
 4305TIP3    H212859   2.722   1.041   3.321
 4306TIP3   OH212860   3.624   3.097   4.961
 4306TIP3    H112861   3.627   3.096   4.865
 4306TIP3    H212862   3.645   3.008   4.987
 4307TIP3   OH212863   3.173   1.232   4.910
 4307TIP3    H112864   3.189   1.148   4.866
 4307TIP3    H212865   3.231   1.293   4.866
 4308TIP3   OH212866   7.964   6.912   2.217
 4308TIP3    H112867   7.914   6.907   2.299
 4308TIP3    H212868   7.900   6.889   2.149
 4309TIP3   OH212869   8.166   0.831   1.705
 4309TIP3    H112870   8.131   0.879   1.629
 4309TIP3    H212871   8.096   0.836   1.770
 4310TIP3   OH212872   5.368   2.897   6.360
 4310TIP3    H112873   5.357   2.836   6.432
 4310TIP3    H212874   5.317   2.974   6.385
 4311TIP3   OH212875   2.839   0.667   1.898
 4311TIP3    H112876   2.866   0.596   1.840
 4311TIP3    H212877   2.872   0.643   1.984
 4312TIP3   OH212878   6.266   3.520   4.318
 4312TIP3    H112879   6.213   3.521   4.398
 4312TIP3    H212880   6.357   3.524   4.350
 4313TIP3   OH212881   3.421   0.585   1.052
 4313TIP3    H112882   3.464   0.667   1.074
 4313TIP3    H212883   3.358   0.608   0.984
 4314TIP3   OH212884   7.454   3.281   5.938
 4314TIP3    H112885   7.464   3.292   5.844
 4314TIP3    H212886   7.534   3.318   5.976
 4315TIP3   OH212887   0.769   1.851   0.610
 4315TIP3    H112888   0.757   1.770   0.560
 4315TIP3    H212889   0.789   1.917   0.543
 4316TIP3   OH212890   3.470   5.724   2.012
 4316TIP3    H112891   3.512   5.793   2.064
 4316TIP3    H212892   3.379   5.754   2.001
 4317TIP3   OH212893   6.453   4.087   0.271
 4317TIP3    H112894   6.365   4.120   0.291
 4317TIP3    H212895   6.501   4.095   0.354
 4318TIP3   OH212896   8.222   4.738   0.404
 4318TIP3    H112897   8.298   4.680   0.395
 4318TIP3    H212898   8.166   4.695   0.469
 4319TIP3   OH212899   6.862   2.707   4.199
 4319TIP3    H112900   6.772   2.696   4.230
 4319TIP3    H212901   6.892   2.618   4.179
 4320TIP3   OH212902   4.187   1.954   4.886
 4320TIP3    H112903   4.138   1.962   4.968
 4320TIP3    H212904   4.201   1.859   4.876
 4321TIP3   OH212905   3.667   0.905   4.412
 4321TIP3    H112906   3.611   0.965   4.461
 4321TIP3    H212907   3.736   0.961   4.377
 4322TIP3   OH212908   3.569   6.440   6.250
 4322TIP3    H112909   3.555   6.470   6.340
 4322TIP3    H212910   3.562   6.519   6.197
 4323TIP3   OH212911   6.480   0.319   5.020
 4323TIP3    H112912   6.494   0.412   5.002
 4323TIP3    H212913   6.438   0.285   4.941
 4324TIP3   OH212914   1.633   2.273   3.077
 4324TIP3    H112915   1.661   2.235   3.160
 4324TIP3    H212916   1.578   2.347   3.102
 4325TIP3   OH212917   1.745   5.050   5.901
 4325TIP3    H112918   1.698   4.985   5.953
 4325TIP3    H212919   1.779   5.112   5.966
 4326TIP3   OH212920   3.845   5.588   1.440
 4326TIP3    H112921   3.811   5.581   1.529
 4326TIP3    H212922   3.778   5.640   1.394
 4327TIP3   OH212923   1.303   7.136   1.505
 4327TIP3    H112924   1.313   7.064   1.442
 4327TIP3    H212925   1.338   7.212   1.460
 4328TIP3   OH212926   7.606   1.036   0.054
 4328TIP3    H112927   7.665   1.025  -0.021
 4328TIP3    H212928   7.519   1.046   0.015
 4329TIP3   OH212929   5.325   2.538   1.371
 4329TIP3    H112930   5.310   2.633   1.365
 4329TIP3    H212931   5.415   2.526   1.343
 4330TIP3   OH212932   1.973   0.630   5.426
 4330TIP3    H112933   2.042   0.619   5.361
 4330TIP3    H212934   1.892   0.624   5.376
 4331TIP3   OH212935   2.743   1.798   5.966
 4331TIP3    H112936   2.652   1.812   5.941
 4331TIP3    H212937   2.783   1.755   5.890
 4332TIP3   OH212938   0.161   4.718   4.393
 4332TIP3    H112939   0.177   4.798   4.443
 4332TIP3    H212940   0.076   4.687   4.424
 4333TIP3   OH212941   2.562   7.050   3.226
 4333TIP3    H112942   2.501   7.047   3.153
 4333TIP3    H212943   2.583   7.143   3.235
 4334TIP3   OH212944   0.596   7.282   3.392
 4334TIP3    H112945   0.534   7.337   3.441
 4334TIP3    H212946   0.551   7.263   3.310
 4335TIP3   OH212947   7.961   4.360   5.305
 4335TIP3    H112948   7.904   4.296   5.347
 4335TIP3    H212949   7.902   4.431   5.279
 4336TIP3   OH212950   2.418   7.715   5.647
 4336TIP3    H112951   2.427   7.654   5.574
 4336TIP3    H212952   2.353   7.674   5.705
 4337TIP3   OH212953   3.542   6.078   2.014
 4337TIP3    H112954   3.529   6.164   2.055
 4337TIP3    H212955   3.525   6.015   2.084
 4338TIP3   OH212956   0.321   1.298   3.063
 4338TIP3    H112957   0.371   1.226   3.103
 4338TIP3    H212958   0.315   1.274   2.971
 4339TIP3   OH212959   0.456   2.680   2.107
 4339TIP3    H112960   0.518   2.723   2.166
 4339TIP3    H212961   0.386   2.649   2.165
 4340TIP3   OH212962   6.491   7.824   1.644
 4340TIP3    H112963   6.530   7.738   1.658
 4340TIP3    H212964   6.518   7.875   1.720
 4341TIP3   OH212965   7.042   2.552   1.852
 4341TIP3    H112966   6.967   2.494   1.838
 4341TIP3    H212967   7.109   2.497   1.891
 4342TIP3   OH212968   2.649   4.190   4.225
 4342TIP3    H112969   2.677   4.107   4.264
 4342TIP3    H212970   2.574   4.218   4.279
 4343TIP3   OH212971   6.489   3.362   5.902
 4343TIP3    H112972   6.436   3.320   5.970
 4343TIP3    H212973   6.465   3.317   5.821
 4344TIP3   OH212974   2.595   3.526   2.833
 4344TIP3    H112975   2.517   3.572   2.863
 4344TIP3    H212976   2.663   3.593   2.828
 4345TIP3   OH212977   1.601   7.247   3.705
 4345TIP3    H112978   1.676   7.228   3.761
 4345TIP3    H212979   1.636   7.240   3.616
 4346TIP3   OH212980   1.952   6.188   3.248
 4346TIP3    H112981   2.024   6.128   3.271
 4346TIP3    H212982   1.876   6.153   3.295
 4347TIP3   OH212983   7.320   2.757   6.376
 4347TIP3    H112984   7.254   2.814   6.415
 4347TIP3    H212985   7.271   2.705   6.312
 4348TIP3   OH212986   5.222   4.642   3.954
 4348TIP3    H112987   5.302   4.678   3.992
 4348TIP3    H212988   5.215   4.686   3.869
 4349TIP3   OH212989   1.339   3.260   0.024
 4349TIP3    H112990   1.293   3.258  -0.060
 4349TIP3    H212991   1.277   3.298   0.085
 4350TIP3   OH212992   2.620   4.748   1.003
 4350TIP3    H112993   2.619   4.743   0.908
 4350TIP3    H212994   2.543   4.800   1.026
 4351TIP3   OH212995   7.898   0.863   3.810
 4351TIP3    H112996   7.939   0.840   3.893
 4351TIP3    H212997   7.885   0.779   3.766
 4352TIP3   OH212998   6.668   5.223   0.105
 4352TIP3    H112999   6.622   5.307   0.105
 4352TIP3    H213000   6.706   5.217   0.193
 4353TIP3   OH213001   7.158   4.304   1.923
 4353TIP3    H113002   7.123   4.359   1.853
 4353TIP3    H213003   7.226   4.252   1.881
 4354TIP3   OH213004   4.436   5.196   3.528
 4354TIP3    H113005   4.453   5.127   3.592
 4354TIP3    H213006   4.351   5.173   3.491
 4355TIP3   OH213007   4.519   6.034   2.743
 4355TIP3    H113008   4.542   5.942   2.733
 4355TIP3    H213009   4.424   6.035   2.753
 4356TIP3   OH213010   4.447   7.190   0.515
 4356TIP3    H113011   4.403   7.181   0.430
 4356TIP3    H213012   4.441   7.103   0.554
 4357TIP3   OH213013   5.861   6.190   5.110
 4357TIP3    H113014   5.896   6.279   5.102
 4357TIP3    H213015   5.771   6.196   5.078
 4358TIP3   OH213016   5.364   7.119   6.552
 4358TIP3    H113017   5.278   7.134   6.592
 4358TIP3    H213018   5.423   7.107   6.627
 4359TIP3   OH213019   3.736   6.538   5.853
 4359TIP3    H113020   3.734   6.629   5.880
 4359TIP3    H213021   3.759   6.540   5.760
 4360TIP3   OH213022   2.976   5.786   0.977
 4360TIP3    H113023   2.940   5.771   1.064
 4360TIP3    H213024   3.031   5.709   0.960
 4361TIP3   OH213025   4.578   2.496   2.045
 4361TIP3    H113026   4.501   2.496   1.987
 4361TIP3    H213027   4.545   2.461   2.128
 4362TIP3   OH213028   5.392   7.709   2.941
 4362TIP3    H113029   5.346   7.776   2.890
 4362TIP3    H213030   5.479   7.704   2.900
 4363TIP3   OH213031   1.943   1.838   6.370
 4363TIP3    H113032   1.922   1.915   6.317
 4363TIP3    H213033   1.985   1.778   6.309
 4364TIP3   OH213034   0.495   0.126   4.408
 4364TIP3    H113035   0.418   0.073   4.424
 4364TIP3    H213036   0.525   0.100   4.321
 4365TIP3   OH213037   2.485   0.564   4.253
 4365TIP3    H113038   2.532   0.620   4.315
 4365TIP3    H213039   2.407   0.615   4.230
 4366TIP3   OH213040   4.202   7.040   2.847
 4366TIP3    H113041   4.152   7.094   2.908
 4366TIP3    H213042   4.151   6.959   2.838
 4367TIP3   OH213043   1.900   0.612   0.517
 4367TIP3    H113044   1.862   0.699   0.504
 4367TIP3    H213045   1.910   0.604   0.612
 4368TIP3   OH213046   3.143   6.144   5.784
 4368TIP3    H113047   3.078   6.089   5.741
 4368TIP3    H213048   3.117   6.144   5.876
 4369TIP3   OH213049   7.758   6.475   3.662
 4369TIP3    H113050   7.665   6.472   3.638
 4369TIP3    H213051   7.794   6.394   3.627
 4370TIP3   OH213052   2.947   0.446   1.776
 4370TIP3    H113053   3.041   0.440   1.796
 4370TIP3    H213054   2.943   0.486   1.689
 4371TIP3   OH213055   0.975   2.774   4.801
 4371TIP3    H113056   0.963   2.864   4.831
 4371TIP3    H213057   1.044   2.780   4.735
 4372TIP3   OH213058   3.195   3.699   6.378
 4372TIP3    H113059   3.170   3.700   6.286
 4372TIP3    H213060   3.234   3.613   6.392
 4373TIP3   OH213061   7.759   5.332   6.184
 4373TIP3    H113062   7.774   5.411   6.236
 4373TIP3    H213063   7.760   5.260   6.248
 4374TIP3   OH213064   2.760   4.811   4.200
 4374TIP3    H113065   2.830   4.783   4.141
 4374TIP3    H213066   2.795   4.797   4.288
 4375TIP3   OH213067   4.447   4.881   6.502
 4375TIP3    H113068   4.497   4.958   6.474
 4375TIP3    H213069   4.363   4.917   6.532
 4376TIP3   OH213070   5.776   6.660   3.558
 4376TIP3    H113071   5.726   6.698   3.485
 4376TIP3    H213072   5.756   6.716   3.633
 4377TIP3   OH213073   5.909   4.013   0.604
 4377TIP3    H113074   5.873   3.980   0.687
 4377TIP3    H213075   5.900   4.108   0.610
 4378TIP3   OH213076   6.819   2.425   0.084
 4378TIP3    H113077   6.752   2.493   0.072
 4378TIP3    H213078   6.820   2.379   0.000
 4379TIP3   OH213079   6.112   3.305   4.710
 4379TIP3    H113080   6.084   3.373   4.649
 4379TIP3    H213081   6.208   3.309   4.708
 4380TIP3   OH213082   4.362   1.444   6.464
 4380TIP3    H113083   4.347   1.517   6.403
 4380TIP3    H213084   4.398   1.485   6.543
 4381TIP3   OH213085   5.282   5.827   3.680
 4381TIP3    H113086   5.258   5.864   3.595
 4381TIP3    H213087   5.224   5.752   3.692
 4382TIP3   OH213088   4.936   2.917   0.501
 4382TIP3    H113089   4.885   2.908   0.420
 4382TIP3    H213090   5.025   2.891   0.478
 4383TIP3   OH213091   4.072   6.479   0.038
 4383TIP3    H113092   3.988   6.518   0.063
 4383TIP3    H213093   4.100   6.529  -0.038
 4384TIP3   OH213094   6.792   3.565   6.752
 4384TIP3    H113095   6.781   3.502   6.680
 4384TIP3    H213096   6.739   3.641   6.726
 4385TIP3   OH213097   1.346   4.980   1.176
 4385TIP3    H113098   1.340   5.037   1.253
 4385TIP3    H213099   1.418   5.017   1.125
 4386TIP3   OH213100   8.122   0.740   1.357
 4386TIP3    H113101   8.076   0.778   1.432
 4386TIP3    H213102   8.214   0.758   1.373
 4387TIP3   OH213103   6.094   3.103   1.951
 4387TIP3    H113104   6.106   3.153   2.031
 4387TIP3    H213105   6.043   3.026   1.978
 4388TIP3   OH213106   6.828   2.526   2.441
 4388TIP3    H113107   6.800   2.486   2.524
 4388TIP3    H213108   6.913   2.486   2.423
 4389TIP3   OH213109   5.741   3.264   4.305
 4389TIP3    H113110   5.821   3.295   4.347
 4389TIP3    H213111   5.682   3.242   4.377
 4390TIP3   OH213112   4.803   2.990   1.590
 4390TIP3    H113113   4.727   3.039   1.619
 4390TIP3    H213114   4.776   2.951   1.507
 4391TIP3   OH213115   4.195   0.497   2.290
 4391TIP3    H113116   4.235   0.416   2.324
 4391TIP3    H213117   4.126   0.466   2.231
 4392TIP3   OH213118   8.289   5.309   6.691
 4392TIP3    H113119   8.217   5.266   6.646
 4392TIP3    H213120   8.253   5.334   6.776
 4393TIP3   OH213121   5.064   7.072   2.502
 4393TIP3    H113122   5.070   7.166   2.518
 4393TIP3    H213123   5.065   7.064   2.407
 4394TIP3   OH213124   7.946   1.271   3.636
 4394TIP3    H113125   8.024   1.297   3.686
 4394TIP3    H213126   7.874   1.275   3.699
 4395TIP3   OH213127   5.932   4.103   3.462
 4395TIP3    H113128   5.874   4.043   3.509
 4395TIP3    H213129   5.984   4.046   3.406
 4396TIP3   OH213130   0.616   2.248   6.519
 4396TIP3    H113131   0.601   2.334   6.557
 4396TIP3    H213132   0.708   2.228   6.539
 4397TIP3   OH213133   3.062   1.499   0.947
 4397TIP3    H113134   3.096   1.588   0.933
 4397TIP3    H213135   3.119   1.443   0.896
 4398TIP3   OH213136   1.022   0.260   2.631
 4398TIP3    H113137   1.011   0.198   2.558
 4398TIP3    H213138   1.100   0.310   2.608
 4399TIP3   OH213139   5.081   0.106   2.931
 4399TIP3    H113140   5.066   0.151   3.014
 4399TIP3    H213141   4.998   0.062   2.913
 4400TIP3   OH213142   0.495   5.930   5.932
 4400TIP3    H113143   0.431   5.989   5.970
 4400TIP3    H213144   0.523   5.874   6.004
 4401TIP3   OH213145   3.979   1.802   1.673
 4401TIP3    H113146   3.904   1.751   1.704
 4401TIP3    H213147   4.049   1.737   1.662
 4402TIP3   OH213148   5.564   6.788   0.284
 4402TIP3    H113149   5.524   6.702   0.269
 4402TIP3    H213150   5.491   6.849   0.287
 4403TIP3   OH213151   5.765   6.404   6.008
 4403TIP3    H113152   5.688   6.391   6.065
 4403TIP3    H213153   5.840   6.387   6.066
 4404TIP3   OH213154   1.845   3.610   5.407
 4404TIP3    H113155   1.875   3.589   5.496
 4404TIP3    H213156   1.883   3.541   5.353
 4405TIP3   OH213157   5.023   4.950   1.302
 4405TIP3    H113158   4.958   4.990   1.243
 4405TIP3    H213159   5.076   5.023   1.332
 4406TIP3   OH213160   1.901   4.095   1.225
 4406TIP3    H113161   1.895   4.110   1.131
 4406TIP3    H213162   1.995   4.096   1.244
 4407TIP3   OH213163   6.104   6.513   4.407
 4407TIP3    H113164   6.157   6.467   4.471
 4407TIP3    H213165   6.040   6.561   4.459
 4408TIP3   OH213166   3.090   3.044   3.488
 4408TIP3    H113167   3.182   3.019   3.475
 4408TIP3    H213168   3.095   3.135   3.517
 4409TIP3   OH213169   5.870   1.546   5.896
 4409TIP3    H113170   5.800   1.529   5.833
 4409TIP3    H213171   5.916   1.462   5.904
 4410TIP3   OH213172   6.691   1.170   0.513
 4410TIP3    H113173   6.759   1.108   0.487
 4410TIP3    H213174   6.718   1.253   0.473
 4411TIP3   OH213175   6.248   2.726   4.855
 4411TIP3    H113176   6.239   2.749   4.947
 4411TIP3    H213177   6.339   2.698   4.846
 4412TIP3   OH213178   5.118   1.958   6.573
 4412TIP3    H113179   5.163   2.012   6.508
 4412TIP3    H213180   5.048   2.015   6.606
 4413TIP3   OH213181   0.150   2.394   3.649
 4413TIP3    H113182   0.232   2.412   3.694
 4413TIP3    H213183   0.082   2.427   3.707
 4414TIP3   OH213184   2.471   1.843   5.027
 4414TIP3    H113185   2.533   1.915   5.015
 4414TIP3    H213186   2.393   1.872   4.979
 4415TIP3   OH213187   1.870   1.373   4.846
 4415TIP3    H113188   1.915   1.440   4.899
 4415TIP3    H213189   1.801   1.340   4.903
 4416TIP3   OH213190   2.448   7.556   4.007
 4416TIP3    H113191   2.379   7.492   4.018
 4416TIP3    H213192   2.440   7.585   3.916
 4417TIP3   OH213193   2.632   7.430   4.913
 4417TIP3    H113194   2.611   7.341   4.941
 4417TIP3    H213195   2.708   7.455   4.965
 4418TIP3   OH213196   3.253   2.823   5.788
 4418TIP3    H113197   3.294   2.737   5.782
 4418TIP3    H213198   3.277   2.866   5.706
 4419TIP3   OH213199   1.093   4.129   0.630
 4419TIP3    H113200   1.041   4.196   0.675
 4419TIP3    H213201   1.029   4.076   0.583
 4420TIP3   OH213202   1.249   4.467   4.127
 4420TIP3    H113203   1.278   4.384   4.164
 4420TIP3    H213204   1.211   4.444   4.042
 4421TIP3   OH213205   3.888   2.429   2.500
 4421TIP3    H113206   3.842   2.499   2.545
 4421TIP3    H213207   3.846   2.349   2.531
 4422TIP3   OH213208   5.354   1.637   1.864
 4422TIP3    H113209   5.351   1.719   1.914
 4422TIP3    H213210   5.294   1.651   1.791
 4423TIP3   OH213211   0.132   5.865   0.443
 4423TIP3    H113212   0.157   5.809   0.369
 4423TIP3    H213213   0.046   5.899   0.419
 4424TIP3   OH213214   0.472   1.377   4.881
 4424TIP3    H113215   0.411   1.310   4.914
 4424TIP3    H213216   0.559   1.343   4.903
 4425TIP3   OH213217   4.769   4.165   0.015
 4425TIP3    H113218   4.704   4.113   0.063
 4425TIP3    H213219   4.724   4.191  -0.066
 4426TIP3   OH213220   5.215   6.456   0.641
 4426TIP3    H113221   5.261   6.432   0.560
 4426TIP3    H213222   5.144   6.393   0.647
 4427TIP3   OH213223   1.535   0.937   2.295
 4427TIP3    H113224   1.524   0.923   2.389
 4427TIP3    H213225   1.536   0.850   2.257
 4428TIP3   OH213226   5.108   5.462   1.164
 4428TIP3    H113227   5.169   5.528   1.196
 4428TIP3    H213228   5.044   5.453   1.234
 4429TIP3   OH213229   0.495   0.654   4.383
 4429TIP3    H113230   0.463   0.612   4.463
 4429TIP3    H213231   0.420   0.653   4.324
 4430TIP3   OH213232   1.898   0.263   4.458
 4430TIP3    H113233   1.946   0.307   4.529
 4430TIP3    H213234   1.960   0.199   4.423
 4431TIP3   OH213235   4.381   1.765   3.785
 4431TIP3    H113236   4.403   1.798   3.872
 4431TIP3    H213237   4.318   1.695   3.802
 4432TIP3   OH213238   0.892   1.704   4.517
 4432TIP3    H113239   0.895   1.800   4.517
 4432TIP3    H213240   0.904   1.679   4.426
 4433TIP3   OH213241   3.356   4.270   6.425
 4433TIP3    H113242   3.438   4.248   6.468
 4433TIP3    H213243   3.366   4.361   6.397
 4434TIP3   OH213244   3.673   0.950   0.586
 4434TIP3    H113245   3.583   0.966   0.614
 4434TIP3    H213246   3.667   0.873   0.530
 4435TIP3   OH213247   5.861   0.473   4.737
 4435TIP3    H113248   5.943   0.467   4.687
 4435TIP3    H213249   5.834   0.382   4.748
 4436TIP3   OH213250   3.820   2.199   3.089
 4436TIP3    H113251   3.776   2.115   3.082
 4436TIP3    H213252   3.911   2.177   3.112
 4437TIP3   OH213253   4.996   7.474   2.319
 4437TIP3    H113254   4.904   7.460   2.297
 4437TIP3    H213255   5.016   7.560   2.283
 4438TIP3   OH213256   1.665   2.021   6.584
 4438TIP3    H113257   1.658   2.048   6.492
 4438TIP3    H213258   1.644   1.928   6.584
 4439TIP3   OH213259   7.912   1.259   1.166
 4439TIP3    H113260   7.904   1.294   1.078
 4439TIP3    H213261   7.822   1.260   1.201
 4440TIP3   OH213262   1.435   1.802   0.348
 4440TIP3    H113263   1.517   1.824   0.304
 4440TIP3    H213264   1.428   1.868   0.418
 4441TIP3   OH213265   3.255   4.717   5.991
 4441TIP3    H113266   3.319   4.781   6.023
 4441TIP3    H213267   3.170   4.758   6.009
 4442TIP3   OH213268   3.659   1.665   3.856
 4442TIP3    H113269   3.746   1.656   3.894
 4442TIP3    H213270   3.636   1.577   3.827
 4443TIP3   OH213271   6.218   0.942   2.006
 4443TIP3    H113272   6.260   0.938   2.092
 4443TIP3    H213273   6.290   0.933   1.944
 4444TIP3   OH213274   1.694   1.710   3.180
 4444TIP3    H113275   1.681   1.793   3.227
 4444TIP3    H213276   1.772   1.672   3.221
 4445TIP3   OH213277   0.432   5.254   0.803
 4445TIP3    H113278   0.491   5.312   0.851
 4445TIP3    H213279   0.401   5.192   0.869
 4446TIP3   OH213280   6.108   1.690   5.887
 4446TIP3    H113281   6.026   1.641   5.879
 4446TIP3    H213282   6.080   1.781   5.894
 4447TIP3   OH213283   3.754   7.076   5.502
 4447TIP3    H113284   3.752   7.131   5.424
 4447TIP3    H213285   3.847   7.063   5.520
 4448TIP3   OH213286   5.833   7.814   4.713
 4448TIP3    H113287   5.747   7.772   4.717
 4448TIP3    H213288   5.858   7.827   4.804
 4449TIP3   OH213289   5.224   4.949   0.424
 4449TIP3    H113290   5.264   4.973   0.340
 4449TIP3    H213291   5.262   5.011   0.486
 4450TIP3   OH213292   4.628   2.419   5.607
 4450TIP3    H113293   4.666   2.386   5.526
 4450TIP3    H213294   4.674   2.370   5.676
 4451TIP3   OH213295   3.988   1.295   4.652
 4451TIP3    H113296   3.953   1.383   4.642
 4451TIP3    H213297   3.932   1.240   4.597
 4452TIP3   OH213298   6.359   2.143   2.015
 4452TIP3    H113299   6.416   2.138   1.938
 4452TIP3    H213300   6.279   2.097   1.989
 4453TIP3   OH213301   5.508   6.502   2.527
 4453TIP3    H113302   5.593   6.541   2.546
 4453TIP3    H213303   5.494   6.439   2.598
 4454TIP3   OH213304   2.536   6.174   3.371
 4454TIP3    H113305   2.454   6.213   3.401
 4454TIP3    H213306   2.550   6.099   3.430
 4455TIP3   OH213307   0.295   2.564   2.309
 4455TIP3    H113308   0.232   2.500   2.275
 4455TIP3    H213309   0.325   2.527   2.392
 4456TIP3   OH213310   4.061   5.041   4.586
 4456TIP3    H113311   4.041   5.115   4.644
 4456TIP3    H213312   4.153   5.023   4.602
 4457TIP3   OH213313   7.953   1.523   5.983
 4457TIP3    H113314   7.960   1.429   5.997
 4457TIP3    H213315   7.873   1.549   6.029
 4458TIP3   OH213316   1.599   2.586   6.181
 4458TIP3    H113317   1.661   2.648   6.218
 4458TIP3    H213318   1.584   2.522   6.250
 4459TIP3   OH213319   6.471   2.965   5.537
 4459TIP3    H113320   6.507   2.912   5.466
 4459TIP3    H213321   6.494   2.917   5.616
 4460TIP3   OH213322   3.270   4.940   6.256
 4460TIP3    H113323   3.210   4.960   6.328
 4460TIP3    H213324   3.265   5.017   6.199
 4461TIP3   OH213325   3.918   3.296   1.878
 4461TIP3    H113326   3.955   3.285   1.965
 4461TIP3    H213327   3.823   3.290   1.891
 4462TIP3   OH213328   5.558   3.802   0.003
 4462TIP3    H113329   5.500   3.852   0.061
 4462TIP3    H213330   5.573   3.719   0.050
 4463TIP3   OH213331   4.545   7.217   1.291
 4463TIP3    H113332   4.633   7.198   1.324
 4463TIP3    H213333   4.494   7.239   1.369
 4464TIP3   OH213334   5.723   6.367   4.261
 4464TIP3    H113335   5.754   6.297   4.202
 4464TIP3    H213336   5.774   6.355   4.341
 4465TIP3   OH213337   0.633   4.227   1.375
 4465TIP3    H113338   0.648   4.167   1.449
 4465TIP3    H213339   0.661   4.313   1.408
 4466TIP3   OH213340   3.039   3.262   1.615
 4466TIP3    H113341   2.945   3.246   1.609
 4466TIP3    H213342   3.077   3.176   1.636
 4467TIP3   OH213343   6.443   5.721   5.333
 4467TIP3    H113344   6.433   5.700   5.240
 4467TIP3    H213345   6.407   5.645   5.379
 4468TIP3   OH213346   5.381   1.563   4.588
 4468TIP3    H113347   5.360   1.527   4.674
 4468TIP3    H213348   5.439   1.638   4.606
 4469TIP3   OH213349   2.615   2.380   0.017
 4469TIP3    H113350   2.627   2.475   0.012
 4469TIP3    H213351   2.552   2.367   0.087
 4470TIP3   OH213352   3.957   1.134   6.100
 4470TIP3    H113353   4.031   1.159   6.155
 4470TIP3    H213354   3.997   1.104   6.018
 4471TIP3   OH213355   3.238   3.536   2.337
 4471TIP3    H113356   3.325   3.495   2.341
 4471TIP3    H213357   3.225   3.573   2.424
 4472TIP3   OH213358   8.121   3.029   0.662
 4472TIP3    H113359   8.128   2.954   0.721
 4472TIP3    H213360   8.196   3.021   0.603
 4473TIP3   OH213361   6.677   2.178   1.593
 4473TIP3    H113362   6.729   2.143   1.521
 4473TIP3    H213363   6.635   2.256   1.557
 4474TIP3   OH213364   7.316   7.747   2.966
 4474TIP3    H113365   7.247   7.747   2.899
 4474TIP3    H213366   7.280   7.691   3.036
 4475TIP3   OH213367   5.247   1.400   6.599
 4475TIP3    H113368   5.243   1.380   6.506
 4475TIP3    H213369   5.329   1.449   6.610
 4476TIP3   OH213370  -0.022   2.574   0.811
 4476TIP3    H113371   0.061   2.535   0.781
 4476TIP3    H213372  -0.025   2.555   0.904
 4477TIP3   OH213373   1.382   1.487   3.795
 4477TIP3    H113374   1.402   1.471   3.887
 4477TIP3    H213375   1.453   1.543   3.764
 4478TIP3   OH213376   6.282   6.562   0.644
 4478TIP3    H113377   6.307   6.537   0.555
 4478TIP3    H213378   6.331   6.643   0.661
 4479TIP3   OH213379   2.279   4.122   0.305
 4479TIP3    H113380   2.218   4.095   0.237
 4479TIP3    H213381   2.234   4.195   0.349
 4480TIP3   OH213382   2.256   2.567   3.094
 4480TIP3    H113383   2.344   2.552   3.127
 4480TIP3    H213384   2.223   2.641   3.145
 4481TIP3   OH213385   5.476   3.615   1.670
 4481TIP3    H113386   5.407   3.664   1.713
 4481TIP3    H213387   5.528   3.578   1.741
 4482TIP3   OH213388   3.380   6.246   5.042
 4482TIP3    H113389   3.328   6.176   5.003
 4482TIP3    H213390   3.318   6.294   5.097
 4483TIP3   OH213391   4.413   3.803   2.794
 4483TIP3    H113392   4.371   3.731   2.841
 4483TIP3    H213393   4.359   3.880   2.813
 4484TIP3   OH213394   6.753   1.996   2.576
 4484TIP3    H113395   6.838   2.036   2.558
 4484TIP3    H213396   6.712   1.986   2.490
 4485TIP3   OH213397   5.003   4.712   5.727
 4485TIP3    H113398   5.085   4.761   5.718
 4485TIP3    H213399   4.950   4.740   5.652
 4486TIP3   OH213400   2.956   3.684   6.527
 4486TIP3    H113401   3.018   3.684   6.454
 4486TIP3    H213402   3.011   3.693   6.605
 4487TIP3   OH213403   6.190   6.855   6.073
 4487TIP3    H113404   6.267   6.897   6.110
 4487TIP3    H213405   6.144   6.818   6.149
 4488TIP3   OH213406   2.077   6.191   4.662
 4488TIP3    H113407   2.028   6.182   4.581
 4488TIP3    H213408   2.010   6.201   4.730
 4489TIP3   OH213409   5.325   6.708   2.461
 4489TIP3    H113410   5.355   6.617   2.471
 4489TIP3    H213411   5.319   6.742   2.550
 4490TIP3   OH213412   0.717   2.906   5.580
 4490TIP3    H113413   0.686   2.996   5.592
 4490TIP3    H213414   0.803   2.915   5.541
 4491TIP3   OH213415   0.876   1.405   2.542
 4491TIP3    H113416   0.891   1.483   2.489
 4491TIP3    H213417   0.874   1.436   2.632
 4492TIP3   OH213418   1.359   6.383   6.250
 4492TIP3    H113419   1.285   6.335   6.286
 4492TIP3    H213420   1.322   6.467   6.222
 4493TIP3   OH213421   7.326   1.971   3.955
 4493TIP3    H113422   7.249   1.940   3.908
 4493TIP3    H213423   7.306   1.956   4.047
 4494TIP3   OH213424   5.733   1.731   2.945
 4494TIP3    H113425   5.698   1.697   2.863
 4494TIP3    H213426   5.771   1.816   2.923
 4495TIP3   OH213427   6.644   6.353   3.264
 4495TIP3    H113428   6.701   6.403   3.323
 4495TIP3    H213429   6.574   6.414   3.241
 4496TIP3   OH213430   8.123   5.150   4.788
 4496TIP3    H113431   8.178   5.173   4.864
 4496TIP3    H213432   8.116   5.055   4.792
 4497TIP3   OH213433   2.750   7.796   1.917
 4497TIP3    H113434   2.785   7.810   2.005
 4497TIP3    H213435   2.704   7.712   1.922
 4498TIP3   OH213436   1.957   3.353   1.118
 4498TIP3    H113437   1.930   3.381   1.206
 4498TIP3    H213438   1.904   3.275   1.101
 4499TIP3   OH213439   0.924   2.786   5.856
 4499TIP3    H113440   0.832   2.812   5.853
 4499TIP3    H213441   0.923   2.693   5.833
 4500TIP3   OH213442   6.665   7.556   4.177
 4500TIP3    H113443   6.690   7.647   4.193
 4500TIP3    H213444   6.748   7.510   4.166
 4501TIP3   OH213445   7.511   5.887   4.966
 4501TIP3    H113446   7.470   5.942   5.034
 4501TIP3    H213447   7.479   5.799   4.985
 4502TIP3   OH213448   4.064   7.607   6.277
 4502TIP3    H113449   4.041   7.535   6.218
 4502TIP3    H213450   4.083   7.680   6.219
 4503TIP3   OH213451   2.807   4.067   4.027
 4503TIP3    H113452   2.763   4.096   4.107
 4503TIP3    H213453   2.735   4.043   3.968
 4504TIP3   OH213454   7.919   2.010   1.349
 4504TIP3    H113455   7.952   2.011   1.259
 4504TIP3    H213456   7.851   1.943   1.350
 4505TIP3   OH213457   0.076   4.171   1.727
 4505TIP3    H113458   0.106   4.232   1.660
 4505TIP3    H213459   0.022   4.107   1.680
 4506TIP3   OH213460   5.714   3.844   4.052
 4506TIP3    H113461   5.795   3.856   4.003
 4506TIP3    H213462   5.743   3.820   4.140
 4507TIP3   OH213463   2.618   0.211   0.047
 4507TIP3    H113464   2.656   0.242   0.129
 4507TIP3    H213465   2.691   0.206  -0.014
 4508TIP3   OH213466   8.030   0.934   6.592
 4508TIP3    H113467   8.011   0.899   6.505
 4508TIP3    H213468   8.120   0.906   6.610
 4509TIP3   OH213469   7.956   3.603   4.459
 4509TIP3    H113470   7.960   3.639   4.547
 4509TIP3    H213471   8.047   3.600   4.429
 4510TIP3   OH213472   5.793   2.814   5.813
 4510TIP3    H113473   5.703   2.842   5.800
 4510TIP3    H213474   5.828   2.876   5.877
 4511TIP3   OH213475   5.364   6.735   2.163
 4511TIP3    H113476   5.349   6.645   2.136
 4511TIP3    H213477   5.325   6.741   2.250
 4512TIP3   OH213478   3.594   3.354   3.023
 4512TIP3    H113479   3.578   3.424   2.960
 4512TIP3    H213480   3.575   3.394   3.108
 4513TIP3   OH213481   1.337   5.737   2.513
 4513TIP3    H113482   1.339   5.761   2.606
 4513TIP3    H213483   1.414   5.779   2.476
 4514TIP3   OH213484   0.199   0.135   1.832
 4514TIP3    H113485   0.283   0.116   1.789
 4514TIP3    H213486   0.177   0.054   1.878
 4515TIP3   OH213487   4.043   2.946   5.111
 4515TIP3    H113488   4.079   3.010   5.050
 4515TIP3    H213489   4.106   2.944   5.183
 4516TIP3   OH213490   4.692   1.555   5.808
 4516TIP3    H113491   4.662   1.533   5.896
 4516TIP3    H213492   4.619   1.603   5.769
 4517TIP3   OH213493   7.941   0.439   3.885
 4517TIP3    H113494   7.852   0.475   3.884
 4517TIP3    H213495   7.997   0.512   3.860
 4518TIP3   OH213496   7.744   1.633   6.133
 4518TIP3    H113497   7.794   1.620   6.214
 4518TIP3    H213498   7.718   1.725   6.136
 4519TIP3   OH213499   0.987   4.609   6.598
 4519TIP3    H113500   0.927   4.591   6.525
 4519TIP3    H213501   0.951   4.559   6.671
 4520TIP3   OH213502   5.785   5.436   0.786
 4520TIP3    H113503   5.837   5.417   0.707
 4520TIP3    H213504   5.784   5.532   0.791
 4521TIP3   OH213505   7.457   4.666   5.079
 4521TIP3    H113506   7.434   4.728   5.010
 4521TIP3    H213507   7.543   4.694   5.109
 4522TIP3   OH213508   5.552   0.810   4.847
 4522TIP3    H113509   5.522   0.837   4.760
 4522TIP3    H213510   5.485   0.750   4.878
 4523TIP3   OH213511   0.641   0.471   1.376
 4523TIP3    H113512   0.646   0.451   1.283
 4523TIP3    H213513   0.551   0.451   1.401
 4524TIP3   OH213514   8.273   0.221   3.823
 4524TIP3    H113515   8.311   0.146   3.776
 4524TIP3    H213516   8.210   0.181   3.883
 4525TIP3   OH213517   6.766   7.151   4.839
 4525TIP3    H113518   6.714   7.104   4.773
 4525TIP3    H213519   6.711   7.151   4.917
 4526TIP3   OH213520   2.591   6.970   1.190
 4526TIP3    H113521   2.596   6.883   1.150
 4526TIP3    H213522   2.522   6.962   1.257
 4527TIP3   OH213523   5.047   1.198   6.707
 4527TIP3    H113524   5.127   1.232   6.667
 4527TIP3    H213525   4.982   1.267   6.691
 4528TIP3   OH213526   3.077   7.144   4.606
 4528TIP3    H113527   3.085   7.145   4.511
 4528TIP3    H213528   3.017   7.216   4.626
 4529TIP3   OH213529   2.644   3.658   4.287
 4529TIP3    H113530   2.552   3.647   4.261
 4529TIP3    H213531   2.654   3.602   4.364
 4530TIP3   OH213532   2.651   0.244   2.933
 4530TIP3    H113533   2.627   0.173   2.993
 4530TIP3    H213534   2.719   0.293   2.979
 4531TIP3   OH213535   1.251   6.014   3.727
 4531TIP3    H113536   1.340   6.020   3.691
 4531TIP3    H213537   1.265   6.000   3.821
 4532TIP3   OH213538   7.093   5.824   0.809
 4532TIP3    H113539   7.137   5.758   0.757
 4532TIP3    H213540   7.056   5.776   0.883
 4533TIP3   OH213541   8.057   0.973   4.060
 4533TIP3    H113542   8.073   1.067   4.054
 4533TIP3    H213543   7.993   0.964   4.131
 4534TIP3   OH213544   6.526   7.059   4.321
 4534TIP3    H113545   6.478   7.060   4.405
 4534TIP3    H213546   6.509   7.146   4.284
 4535TIP3   OH213547   5.712   1.717   1.431
 4535TIP3    H113548   5.694   1.791   1.373
 4535TIP3    H213549   5.644   1.721   1.497
 4536TIP3   OH213550   5.980   6.425   3.998
 4536TIP3    H113551   6.042   6.472   3.943
 4536TIP3    H213552   5.903   6.412   3.943
 4537TIP3   OH213553   4.077   2.956   5.789
 4537TIP3    H113554   4.038   2.939   5.874
 4537TIP3    H213555   4.061   3.049   5.773
 4538TIP3   OH213556   0.943   4.390   6.026
 4538TIP3    H113557   0.943   4.295   6.036
 4538TIP3    H213558   0.969   4.405   5.935
 4539TIP3   OH213559   5.713   4.388   2.703
 4539TIP3    H113560   5.643   4.325   2.689
 4539TIP3    H213561   5.790   4.349   2.662
 4540TIP3   OH213562   6.973   0.431   2.391
 4540TIP3    H113563   6.898   0.420   2.332
 4540TIP3    H213564   7.040   0.372   2.356
 4541TIP3   OH213565   4.329   0.416   0.783
 4541TIP3    H113566   4.364   0.327   0.783
 4541TIP3    H213567   4.283   0.423   0.699
 4542TIP3   OH213568   4.055   1.862   5.114
 4542TIP3    H113569   4.055   1.952   5.146
 4542TIP3    H213570   4.044   1.809   5.193
 4543TIP3   OH213571   1.417   6.790   0.353
 4543TIP3    H113572   1.507   6.777   0.384
 4543TIP3    H213573   1.421   6.870   0.301
 4544TIP3   OH213574   4.242   0.182   2.906
 4544TIP3    H113575   4.150   0.203   2.925
 4544TIP3    H213576   4.284   0.179   2.992
 4545TIP3   OH213577   1.797   6.448   4.775
 4545TIP3    H113578   1.871   6.504   4.755
 4545TIP3    H213579   1.761   6.423   4.689
 4546TIP3   OH213580   6.577   5.796   6.492
 4546TIP3    H113581   6.607   5.869   6.439
 4546TIP3    H213582   6.652   5.774   6.547
 4547TIP3   OH213583   3.512   7.275   0.961
 4547TIP3    H113584   3.538   7.303   0.873
 4547TIP3    H213585   3.417   7.262   0.955
 4548TIP3   OH213586   1.511   3.036   4.725
 4548TIP3    H113587   1.560   3.118   4.728
 4548TIP3    H213588   1.421   3.061   4.746
 4549TIP3   OH213589   4.508   2.505   5.303
 4549TIP3    H113590   4.584   2.544   5.346
 4549TIP3    H213591   4.502   2.417   5.341
 4550TIP3   OH213592   4.173   6.548   0.704
 4550TIP3    H113593   4.254   6.499   0.718
 4550TIP3    H213594   4.195   6.638   0.727
 4551TIP3   OH213595   1.263   0.059   2.573
 4551TIP3    H113596   1.315   0.044   2.494
 4551TIP3    H213597   1.328   0.065   2.643
 4552TIP3   OH213598   3.136   2.471   4.785
 4552TIP3    H113599   3.119   2.430   4.870
 4552TIP3    H213600   3.224   2.440   4.761
 4553TIP3   OH213601   6.133   6.213   2.470
 4553TIP3    H113602   6.119   6.194   2.377
 4553TIP3    H213603   6.218   6.173   2.490
 4554TIP3   OH213604   0.164   6.927   3.376
 4554TIP3    H113605   0.247   6.907   3.419
 4554TIP3    H213606   0.168   7.021   3.359
 4555TIP3   OH213607   2.600   5.235   2.617
 4555TIP3    H113608   2.551   5.252   2.697
 4555TIP3    H213609   2.668   5.172   2.644
 4556TIP3   OH213610   2.388   2.832   4.278
 4556TIP3    H113611   2.409   2.909   4.332
 4556TIP3    H213612   2.367   2.763   4.341
 4557TIP3   OH213613   0.072   2.781   1.718
 4557TIP3    H113614   0.090   2.875   1.722
 4557TIP3    H213615  -0.017   2.772   1.754
 4558TIP3   OH213616   2.955   4.123   5.774
 4558TIP3    H113617   2.985   4.034   5.752
 4558TIP3    H213618   2.948   4.167   5.689
 4559TIP3   OH213619   4.629   3.230   1.387
 4559TIP3    H113620   4.713   3.214   1.431
 4559TIP3    H213621   4.575   3.271   1.455
 4560TIP3   OH213622   4.456   6.775   2.164
 4560TIP3    H113623   4.459   6.861   2.205
 4560TIP3    H213624   4.438   6.714   2.236
 4561TIP3   OH213625   6.337   2.850   6.399
 4561TIP3    H113626   6.347   2.810   6.485
 4561TIP3    H213627   6.304   2.778   6.344
 4562TIP3   OH213628   5.023   3.384   0.580
 4562TIP3    H113629   5.087   3.350   0.518
 4562TIP3    H213630   4.978   3.454   0.532
 4563TIP3   OH213631   6.058   3.099   1.661
 4563TIP3    H113632   6.068   3.098   1.756
 4563TIP3    H213633   5.984   3.158   1.646
 4564TIP3   OH213634   3.856   0.744   6.189
 4564TIP3    H113635   3.859   0.712   6.279
 4564TIP3    H213636   3.782   0.697   6.149
 4565TIP3   OH213637   5.090   2.128   4.629
 4565TIP3    H113638   5.000   2.098   4.616
 4565TIP3    H213639   5.084   2.224   4.623
 4566TIP3   OH213640   7.100   0.897   3.622
 4566TIP3    H113641   7.087   0.818   3.675
 4566TIP3    H213642   7.062   0.875   3.537
 4567TIP3   OH213643   2.217   2.922   4.963
 4567TIP3    H113644   2.310   2.914   4.986
 4567TIP3    H213645   2.205   2.861   4.890
 4568TIP3   OH213646   5.842   6.419   3.161
 4568TIP3    H113647   5.777   6.358   3.197
 4568TIP3    H213648   5.900   6.364   3.108
 4569TIP3   OH213649   5.551   3.232   6.047
 4569TIP3    H113650   5.533   3.307   6.104
 4569TIP3    H213651   5.638   3.203   6.073
 4570TIP3   OH213652   2.298   1.655   2.758
 4570TIP3    H113653   2.381   1.677   2.715
 4570TIP3    H213654   2.297   1.559   2.761
 4571TIP3   OH213655   2.397   1.663   4.513
 4571TIP3    H113656   2.305   1.670   4.540
 4571TIP3    H213657   2.445   1.716   4.577
 4572TIP3   OH213658   0.135   4.944   1.249
 4572TIP3    H113659   0.153   4.899   1.331
 4572TIP3    H213660   0.189   4.900   1.184
 4573TIP3   OH213661   0.715   4.838   1.059
 4573TIP3    H113662   0.796   4.822   1.106
 4573TIP3    H213663   0.737   4.905   0.994
 4574TIP3   OH213664   6.849   6.924   5.091
 4574TIP3    H113665   6.887   6.887   5.171
 4574TIP3    H213666   6.868   6.860   5.023
 4575TIP3   OH213667   7.091   6.533   2.859
 4575TIP3    H113668   7.070   6.504   2.948
 4575TIP3    H213669   7.180   6.568   2.866
 4576TIP3   OH213670   5.429   2.303   0.750
 4576TIP3    H113671   5.426   2.296   0.845
 4576TIP3    H213672   5.374   2.378   0.729
 4577TIP3   OH213673   2.000   3.638   1.527
 4577TIP3    H113674   2.062   3.613   1.459
 4577TIP3    H213675   2.003   3.734   1.528
 4578TIP3   OH213676   1.498   2.567   5.398
 4578TIP3    H113677   1.428   2.502   5.411
 4578TIP3    H213678   1.579   2.515   5.398
 4579TIP3   OH213679   3.998   2.064   2.898
 4579TIP3    H113680   3.993   1.990   2.838
 4579TIP3    H213681   3.985   2.025   2.985
 4580TIP3   OH213682   6.791   5.474   3.037
 4580TIP3    H113683   6.844   5.405   2.997
 4580TIP3    H213684   6.795   5.547   2.974
 4581TIP3   OH213685   7.763   0.787   6.506
 4581TIP3    H113686   7.715   0.706   6.518
 4581TIP3    H213687   7.848   0.760   6.473
 4582TIP3   OH213688   1.330   5.145   5.995
 4582TIP3    H113689   1.408   5.197   6.013
 4582TIP3    H213690   1.350   5.100   5.913
 4583TIP3   OH213691   6.332   0.912   0.293
 4583TIP3    H113692   6.426   0.907   0.276
 4583TIP3    H213693   6.324   0.901   0.388
 4584TIP3   OH213694   0.243   7.646   1.627
 4584TIP3    H113695   0.306   7.584   1.664
 4584TIP3    H213696   0.196   7.681   1.702
 4585TIP3   OH213697   2.645   0.852   1.745
 4585TIP3    H113698   2.708   0.783   1.766
 4585TIP3    H213699   2.609   0.879   1.829
 4586TIP3   OH213700   5.162   4.397   1.727
 4586TIP3    H113701   5.144   4.479   1.682
 4586TIP3    H213702   5.092   4.338   1.700
 4587TIP3   OH213703   2.661   6.126   2.289
 4587TIP3    H113704   2.605   6.155   2.360
 4587TIP3    H213705   2.711   6.053   2.325
 4588TIP3   OH213706   2.925   1.116   4.047
 4588TIP3    H113707   2.917   1.031   4.091
 4588TIP3    H213708   2.891   1.101   3.959
 4589TIP3   OH213709   6.732   6.931   4.140
 4589TIP3    H113710   6.824   6.937   4.168
 4589TIP3    H213711   6.683   6.972   4.211
 4590TIP3   OH213712   5.232   2.427   3.296
 4590TIP3    H113713   5.205   2.338   3.320
 4590TIP3    H213714   5.309   2.414   3.240
 4591TIP3   OH213715   4.470   6.569   0.968
 4591TIP3    H113716   4.450   6.497   1.027
 4591TIP3    H213717   4.501   6.639   1.024
 4592TIP3   OH213718   7.045   1.772   2.509
 4592TIP3    H113719   6.994   1.783   2.589
 4592TIP3    H213720   7.136   1.787   2.536
 4593TIP3   OH213721   2.154   6.688   0.911
 4593TIP3    H113722   2.064   6.655   0.905
 4593TIP3    H213723   2.209   6.610   0.897
 4594TIP3   OH213724   4.999   1.280   1.752
 4594TIP3    H113725   4.942   1.255   1.824
 4594TIP3    H213726   4.966   1.232   1.676
 4595TIP3   OH213727   2.822   1.368   0.981
 4595TIP3    H113728   2.904   1.417   0.978
 4595TIP3    H213729   2.792   1.366   0.891
 4596TIP3   OH213730   5.337   1.545   3.684
 4596TIP3    H113731   5.358   1.638   3.695
 4596TIP3    H213732   5.374   1.503   3.762
 4597TIP3   OH213733   1.273   6.767   1.463
 4597TIP3    H113734   1.200   6.708   1.444
 4597TIP3    H213735   1.257   6.843   1.406
 4598TIP3   OH213736   0.330   4.223   0.352
 4598TIP3    H113737   0.259   4.241   0.291
 4598TIP3    H213738   0.307   4.273   0.430
 4599TIP3   OH213739   3.318   1.782   3.155
 4599TIP3    H113740   3.298   1.808   3.065
 4599TIP3    H213741   3.355   1.861   3.195
 4600TIP3   OH213742   6.712   2.750   6.455
 4600TIP3    H113743   6.678   2.818   6.396
 4600TIP3    H213744   6.807   2.756   6.445
 4601TIP3   OH213745   7.675   3.406   6.016
 4601TIP3    H113746   7.726   3.422   5.936
 4601TIP3    H213747   7.720   3.332   6.058
 4602TIP3   OH213748   8.278   4.173   0.225
 4602TIP3    H113749   8.350   4.161   0.163
 4602TIP3    H213750   8.201   4.139   0.179
 4603TIP3   OH213751   6.263   4.485   0.122
 4603TIP3    H113752   6.232   4.422   0.056
 4603TIP3    H213753   6.300   4.430   0.191
 4604TIP3   OH213754   4.776   2.890   4.713
 4604TIP3    H113755   4.694   2.889   4.663
 4604TIP3    H213756   4.768   2.967   4.770
 4605TIP3   OH213757   1.945   6.468   6.388
 4605TIP3    H113758   1.952   6.484   6.482
 4605TIP3    H213759   1.853   6.444   6.374
 4606TIP3   OH213760   4.123   3.776   2.083
 4606TIP3    H113761   4.047   3.817   2.125
 4606TIP3    H213762   4.197   3.831   2.109
 4607TIP3   OH213763   5.584   1.546   4.926
 4607TIP3    H113764   5.585   1.616   4.861
 4607TIP3    H213765   5.654   1.487   4.900
 4608TIP3   OH213766   3.696   5.031   4.873
 4608TIP3    H113767   3.738   5.028   4.787
 4608TIP3    H213768   3.609   5.066   4.857
 4609TIP3   OH213769   0.607   7.243   5.425
 4609TIP3    H113770   0.638   7.332   5.410
 4609TIP3    H213771   0.522   7.254   5.468
 4610TIP3   OH213772   3.625   1.862   0.642
 4610TIP3    H113773   3.578   1.835   0.722
 4610TIP3    H213774   3.717   1.866   0.669
 4611TIP3   OH213775   5.376   0.028   4.403
 4611TIP3    H113776   5.455   0.075   4.374
 4611TIP3    H213777   5.349  -0.022   4.325
 4612TIP3   OH213778   1.484   6.135   2.099
 4612TIP3    H113779   1.512   6.067   2.038
 4612TIP3    H213780   1.399   6.164   2.065
 4613TIP3   OH213781   5.151   0.971   3.252
 4613TIP3    H113782   5.216   1.041   3.246
 4613TIP3    H213783   5.128   0.951   3.161
 4614TIP3   OH213784   3.316   6.601   2.401
 4614TIP3    H113785   3.312   6.579   2.308
 4614TIP3    H213786   3.365   6.529   2.440
 4615TIP3   OH213787   0.679   0.734   3.086
 4615TIP3    H113788   0.714   0.649   3.060
 4615TIP3    H213789   0.614   0.714   3.153
 4616TIP3   OH213790   2.971   4.730   4.047
 4616TIP3    H113791   3.031   4.791   4.003
 4616TIP3    H213792   3.025   4.653   4.065
 4617TIP3   OH213793   0.147   4.208   1.990
 4617TIP3    H113794   0.231   4.243   1.961
 4617TIP3    H213795   0.093   4.209   1.910
 4618TIP3   OH213796   5.759   1.070   1.947
 4618TIP3    H113797   5.828   1.071   2.014
 4618TIP3    H213798   5.729   1.161   1.942
 4619TIP3   OH213799   6.077   6.053   4.122
 4619TIP3    H113800   6.064   6.077   4.031
 4619TIP3    H213801   6.110   6.133   4.164
 4620TIP3   OH213802   2.914   0.556   4.840
 4620TIP3    H113803   2.874   0.538   4.755
 4620TIP3    H213804   2.969   0.633   4.824
 4621TIP3   OH213805   6.392   0.522   3.970
 4621TIP3    H113806   6.332   0.449   3.959
 4621TIP3    H213807   6.473   0.481   4.004
 4622TIP3   OH213808   7.701   5.193   6.514
 4622TIP3    H113809   7.694   5.124   6.580
 4622TIP3    H213810   7.739   5.149   6.438
 4623TIP3   OH213811   3.678   1.949   4.944
 4623TIP3    H113812   3.612   2.001   4.992
 4623TIP3    H213813   3.631   1.870   4.917
 4624TIP3   OH213814   6.798   4.944   0.645
 4624TIP3    H113815   6.781   4.987   0.560
 4624TIP3    H213816   6.751   4.998   0.708
 4625TIP3   OH213817   4.553   6.845   2.751
 4625TIP3    H113818   4.605   6.812   2.824
 4625TIP3    H213819   4.483   6.781   2.740
 4626TIP3   OH213820   5.190   5.228   1.012
 4626TIP3    H113821   5.282   5.242   0.986
 4626TIP3    H213822   5.168   5.307   1.062
 4627TIP3   OH213823   0.524   7.761   2.144
 4627TIP3    H113824   0.603   7.726   2.103
 4627TIP3    H213825   0.528   7.732   2.235
 4628TIP3   OH213826   0.297   2.657   5.687
 4628TIP3    H113827   0.348   2.694   5.760
 4628TIP3    H213828   0.338   2.572   5.670
 4629TIP3   OH213829   0.514   2.057   4.828
 4629TIP3    H113830   0.431   2.067   4.783
 4629TIP3    H213831   0.574   2.116   4.783
 4630TIP3   OH213832   4.453   0.668   3.491
 4630TIP3    H113833   4.541   0.698   3.469
 4630TIP3    H213834   4.452   0.575   3.467
 4631TIP3   OH213835   2.365   3.704   4.220
 4631TIP3    H113836   2.372   3.797   4.242
 4631TIP3    H213837   2.287   3.697   4.166
 4632TIP3   OH213838   6.602   3.267   6.647
 4632TIP3    H113839   6.616   3.285   6.740
 4632TIP3    H213840   6.518   3.220   6.645
 4633TIP3   OH213841   6.472   5.208   1.160
 4633TIP3    H113842   6.428   5.269   1.102
 4633TIP3    H213843   6.556   5.190   1.117
 4634TIP3   OH213844   1.826   6.331   3.658
 4634TIP3    H113845   1.879   6.405   3.628
 4634TIP3    H213846   1.754   6.328   3.596
 4635TIP3   OH213847   5.727   0.678   6.180
 4635TIP3    H113848   5.707   0.690   6.087
 4635TIP3    H213849   5.821   0.694   6.187
 4636TIP3   OH213850   4.258   2.096   4.446
 4636TIP3    H113851   4.296   2.183   4.457
 4636TIP3    H213852   4.310   2.039   4.501
 4637TIP3   OH213853   3.774   1.916   4.662
 4637TIP3    H113854   3.861   1.955   4.661
 4637TIP3    H213855   3.737   1.941   4.747
 4638TIP3   OH213856   4.270   4.193   3.620
 4638TIP3    H113857   4.279   4.117   3.562
 4638TIP3    H213858   4.301   4.267   3.568
 4639TIP3   OH213859   7.029   1.338   0.338
 4639TIP3    H113860   6.980   1.274   0.286
 4639TIP3    H213861   7.116   1.339   0.298
 4640TIP3   OH213862   3.969   1.379   3.576
 4640TIP3    H113863   3.908   1.375   3.650
 4640TIP3    H213864   4.000   1.289   3.566
 4641TIP3   OH213865   3.699   7.193   1.868
 4641TIP3    H113866   3.613   7.152   1.863
 4641TIP3    H213867   3.757   7.124   1.899
 4642TIP3   OH213868   2.985   2.637   4.617
 4642TIP3    H113869   3.026   2.638   4.531
 4642TIP3    H213870   3.045   2.586   4.672
 4643TIP3   OH213871   3.457   2.247   3.147
 4643TIP3    H113872   3.435   2.336   3.119
 4643TIP3    H213873   3.545   2.232   3.114
 4644TIP3   OH213874   6.900   4.526   4.653
 4644TIP3    H113875   6.873   4.512   4.562
 4644TIP3    H213876   6.823   4.504   4.704
 4645TIP3   OH213877   0.386   5.237   0.145
 4645TIP3    H113878   0.354   5.241   0.055
 4645TIP3    H213879   0.389   5.328   0.173
 4646TIP3   OH213880   7.425   5.759   4.413
 4646TIP3    H113881   7.420   5.812   4.492
 4646TIP3    H213882   7.423   5.668   4.444
 4647TIP3   OH213883   2.492   0.532   5.988
 4647TIP3    H113884   2.454   0.576   6.064
 4647TIP3    H213885   2.426   0.468   5.962
 4648TIP3   OH213886   0.557   5.033   1.638
 4648TIP3    H113887   0.636   5.027   1.690
 4648TIP3    H213888   0.586   5.019   1.548
 4649TIP3   OH213889   1.215   2.658   4.010
 4649TIP3    H113890   1.296   2.612   4.031
 4649TIP3    H213891   1.219   2.738   4.063
 4650TIP3   OH213892   1.805   0.720   3.599
 4650TIP3    H113893   1.890   0.676   3.595
 4650TIP3    H213894   1.774   0.720   3.509
 4651TIP3   OH213895   6.236   5.595   1.391
 4651TIP3    H113896   6.283   5.660   1.339
 4651TIP3    H213897   6.149   5.633   1.404
 4652TIP3   OH213898   3.961   2.217   0.371
 4652TIP3    H113899   3.973   2.126   0.343
 4652TIP3    H213900   4.035   2.234   0.430
 4653TIP3   OH213901   8.139   7.172   1.284
 4653TIP3    H113902   8.181   7.092   1.316
 4653TIP3    H213903   8.110   7.150   1.195
 4654TIP3   OH213904   0.925   7.104   2.302
 4654TIP3    H113905   0.879   7.159   2.366
 4654TIP3    H213906   0.972   7.166   2.247
 4655TIP3   OH213907   6.898   4.361   4.198
 4655TIP3    H113908   6.905   4.371   4.103
 4655TIP3    H213909   6.897   4.267   4.212
 4656TIP3   OH213910   5.488   3.260   3.799
 4656TIP3    H113911   5.528   3.177   3.773
 4656TIP3    H213912   5.394   3.241   3.803
 4657TIP3   OH213913   7.112   4.975   2.383
 4657TIP3    H113914   7.066   4.976   2.299
 4657TIP3    H213915   7.196   5.016   2.365
 4658TIP3   OH213916   0.855   7.665   3.452
 4658TIP3    H113917   0.872   7.588   3.506
 4658TIP3    H213918   0.778   7.706   3.493
 4659TIP3   OH213919   5.577   7.461   5.398
 4659TIP3    H113920   5.588   7.466   5.303
 4659TIP3    H213921   5.487   7.432   5.410
 4660TIP3   OH213922   1.809   3.054   4.290
 4660TIP3    H113923   1.780   2.964   4.307
 4660TIP3    H213924   1.894   3.044   4.248
 4661TIP3   OH213925   0.659   0.626   5.545
 4661TIP3    H113926   0.671   0.532   5.530
 4661TIP3    H213927   0.719   0.648   5.616
 4662TIP3   OH213928   7.645   3.744   3.769
 4662TIP3    H113929   7.594   3.758   3.849
 4662TIP3    H213930   7.700   3.668   3.789
 4663TIP3   OH213931   1.168   2.783   3.572
 4663TIP3    H113932   1.145   2.791   3.664
 4663TIP3    H213933   1.101   2.726   3.535
 4664TIP3   OH213934   2.452   0.697   4.661
 4664TIP3    H113935   2.439   0.627   4.724
 4664TIP3    H213936   2.384   0.761   4.682
 4665TIP3   OH213937   3.973   6.858   3.664
 4665TIP3    H113938   4.033   6.790   3.697
 4665TIP3    H213939   3.952   6.910   3.741
 4666TIP3   OH213940   5.418   5.344   0.939
 4666TIP3    H113941   5.471   5.321   0.862
 4666TIP3    H213942   5.405   5.438   0.933
 4667TIP3   OH213943   5.254   6.760   4.116
 4667TIP3    H113944   5.274   6.777   4.208
 4667TIP3    H213945   5.165   6.723   4.117
 4668TIP3   OH213946   4.232   1.718   6.536
 4668TIP3    H113947   4.295   1.735   6.605
 4668TIP3    H213948   4.211   1.804   6.500
 4669TIP3   OH213949   5.561   5.867   5.930
 4669TIP3    H113950   5.475   5.862   5.888
 4669TIP3    H213951   5.561   5.793   5.991
 4670TIP3   OH213952   5.970   1.664   1.537
 4670TIP3    H113953   5.967   1.690   1.629
 4670TIP3    H213954   5.881   1.678   1.505
 4671TIP3   OH213955   6.772   7.007   1.618
 4671TIP3    H113956   6.832   6.988   1.545
 4671TIP3    H213957   6.767   7.103   1.620
 4672TIP3   OH213958   3.613   1.955   3.447
 4672TIP3    H113959   3.688   1.984   3.499
 4672TIP3    H213960   3.618   1.859   3.451
 4673TIP3   OH213961   0.408   1.805   2.579
 4673TIP3    H113962   0.338   1.868   2.593
 4673TIP3    H213963   0.402   1.745   2.654
 4674TIP3   OH213964   5.053   7.699   1.614
 4674TIP3    H113965   5.099   7.703   1.530
 4674TIP3    H213966   4.971   7.746   1.598
 4675TIP3   OH213967   0.434   7.520   6.341
 4675TIP3    H113968   0.396   7.473   6.415
 4675TIP3    H213969   0.522   7.486   6.332
 4676TIP3   OH213970   7.195   4.399   0.947
 4676TIP3    H113971   7.182   4.353   1.030
 4676TIP3    H213972   7.288   4.421   0.946
 4677TIP3   OH213973   4.530   0.464   4.872
 4677TIP3    H113974   4.490   0.503   4.950
 4677TIP3    H213975   4.463   0.474   4.804
 4678TIP3   OH213976   4.995   0.812   4.481
 4678TIP3    H113977   5.013   0.897   4.441
 4678TIP3    H213978   4.917   0.828   4.535
 4679TIP3   OH213979   0.458   0.168   2.071
 4679TIP3    H113980   0.411   0.086   2.056
 4679TIP3    H213981   0.394   0.237   2.051
 4680TIP3   OH213982   1.722   5.110   4.105
 4680TIP3    H113983   1.727   5.024   4.145
 4680TIP3    H213984   1.638   5.111   4.059
 4681TIP3   OH213985   3.851   5.137   1.398
 4681TIP3    H113986   3.905   5.083   1.341
 4681TIP3    H213987   3.900   5.219   1.408
 4682TIP3   OH213988   2.202   2.123   4.046
 4682TIP3    H113989   2.168   2.111   3.957
 4682TIP3    H213990   2.126   2.116   4.103
 4683TIP3   OH213991   0.096   4.568   5.052
 4683TIP3    H113992   0.118   4.601   5.139
 4683TIP3    H213993   0.022   4.509   5.067
 4684TIP3   OH213994   3.990   4.576   6.322
 4684TIP3    H113995   4.052   4.633   6.368
 4684TIP3    H213996   3.913   4.575   6.378
 4685TIP3   OH213997   4.970   5.223   5.309
 4685TIP3    H113998   5.029   5.155   5.274
 4685TIP3    H213999   4.934   5.183   5.389
 4686TIP3   OH214000   5.237   0.223   5.296
 4686TIP3    H114001   5.152   0.180   5.282
 4686TIP3    H214002   5.256   0.265   5.212
 4687TIP3   OH214003   0.376   6.932   5.433
 4687TIP3    H114004   0.335   7.016   5.453
 4687TIP3    H214005   0.423   6.909   5.513
 4688TIP3   OH214006   4.684   3.219   3.528
 4688TIP3    H114007   4.708   3.181   3.613
 4688TIP3    H214008   4.738   3.172   3.465
 4689TIP3   OH214009   1.273   7.620   5.228
 4689TIP3    H114010   1.338   7.661   5.170
 4689TIP3    H214011   1.210   7.690   5.247
 4690TIP3   OH214012   4.837   4.271   1.006
 4690TIP3    H114013   4.882   4.330   0.947
 4690TIP3    H214014   4.747   4.303   1.009
 4691TIP3   OH214015   6.057   4.991   3.698
 4691TIP3    H114016   6.114   5.019   3.769
 4691TIP3    H214017   6.021   5.072   3.662
 4692TIP3   OH214018   6.334   3.974   2.535
 4692TIP3    H114019   6.326   4.003   2.444
 4692TIP3    H214020   6.414   3.921   2.536
 4693TIP3   OH214021   3.065   4.704   1.108
 4693TIP3    H114022   3.116   4.771   1.062
 4693TIP3    H214023   2.993   4.684   1.048
 4694TIP3   OH214024   6.043   2.135   5.433
 4694TIP3    H114025   6.133   2.144   5.400
 4694TIP3    H214026   6.039   2.045   5.465
 4695TIP3   OH214027   4.956   2.334   5.192
 4695TIP3    H114028   4.933   2.416   5.236
 4695TIP3    H214029   5.047   2.319   5.216
 4696TIP3   OH214030   5.095   2.440   0.606
 4696TIP3    H114031   5.080   2.347   0.588
 4696TIP3    H214032   5.011   2.482   0.587
 4697TIP3   OH214033   3.187   5.649   3.561
 4697TIP3    H114034   3.193   5.745   3.566
 4697TIP3    H214035   3.278   5.620   3.553
 4698TIP3   OH214036   0.876   3.080   3.197
 4698TIP3    H114037   0.793   3.120   3.225
 4698TIP3    H214038   0.926   3.070   3.278
 4699TIP3   OH214039   6.256   5.073   2.081
 4699TIP3    H114040   6.237   4.981   2.062
 4699TIP3    H214041   6.344   5.073   2.117
 4700TIP3   OH214042   0.173   3.243   5.117
 4700TIP3    H114043   0.092   3.191   5.112
 4700TIP3    H214044   0.180   3.284   5.030
 4701TIP3   OH214045   6.853   3.224   5.666
 4701TIP3    H114046   6.870   3.191   5.578
 4701TIP3    H214047   6.837   3.145   5.718
 4702TIP3   OH214048   3.843   4.787   4.185
 4702TIP3    H114049   3.770   4.817   4.239
 4702TIP3    H214050   3.918   4.839   4.213
 4703TIP3   OH214051   1.642   3.624   2.059
 4703TIP3    H114052   1.735   3.635   2.077
 4703TIP3    H214053   1.598   3.676   2.126
 4704TIP3   OH214054   4.744   1.805   6.194
 4704TIP3    H114055   4.800   1.871   6.234
 4704TIP3    H214056   4.799   1.726   6.189
 4705TIP3   OH214057   1.087   2.356   1.938
 4705TIP3    H114058   1.177   2.373   1.910
 4705TIP3    H214059   1.044   2.441   1.933
 4706TIP3   OH214060   8.013   0.141   3.137
 4706TIP3    H114061   7.985   0.117   3.049
 4706TIP3    H214062   7.968   0.224   3.154
 4707TIP3   OH214063   6.496   6.918   6.511
 4707TIP3    H114064   6.574   6.974   6.502
 4707TIP3    H214065   6.524   6.848   6.570
 4708TIP3   OH214066   7.236   5.860   1.786
 4708TIP3    H114067   7.258   5.785   1.841
 4708TIP3    H214068   7.231   5.934   1.846
 4709TIP3   OH214069   3.857   4.788   2.343
 4709TIP3    H114070   3.937   4.827   2.380
 4709TIP3    H214071   3.787   4.845   2.372
 4710TIP3   OH214072   4.418   1.083   4.337
 4710TIP3    H114073   4.465   1.031   4.272
 4710TIP3    H214074   4.485   1.109   4.400
 4711TIP3   OH214075   8.161   6.415   3.972
 4711TIP3    H114076   8.248   6.405   4.010
 4711TIP3    H214077   8.168   6.377   3.885
 4712TIP3   OH214078   2.575   3.419   3.970
 4712TIP3    H114079   2.551   3.511   3.958
 4712TIP3    H214080   2.494   3.378   4.002
 4713TIP3   OH214081   7.822   2.200   4.966
 4713TIP3    H114082   7.766   2.188   4.889
 4713TIP3    H214083   7.868   2.282   4.948
 4714TIP3   OH214084   4.001   4.709   2.739
 4714TIP3    H114085   3.919   4.662   2.755
 4714TIP3    H214086   3.977   4.801   2.741
 4715TIP3   OH214087   1.296   2.304   0.783
 4715TIP3    H114088   1.227   2.357   0.744
 4715TIP3    H214089   1.352   2.279   0.709
 4716TIP3   OH214090   6.254   6.669   3.866
 4716TIP3    H114091   6.225   6.755   3.897
 4716TIP3    H214092   6.181   6.637   3.813
 4717TIP3   OH214093   3.929   3.628   3.730
 4717TIP3    H114094   3.884   3.553   3.691
 4717TIP3    H214095   3.975   3.670   3.657
 4718TIP3   OH214096   5.631   4.848   0.255
 4718TIP3    H114097   5.543   4.839   0.218
 4718TIP3    H214098   5.687   4.796   0.197
 4719TIP3   OH214099   7.930   3.414   2.872
 4719TIP3    H114100   7.939   3.330   2.828
 4719TIP3    H214101   8.017   3.454   2.865
 4720TIP3   OH214102   7.784   4.437   4.004
 4720TIP3    H114103   7.814   4.419   3.914
 4720TIP3    H214104   7.821   4.523   4.024
 4721TIP3   OH214105   4.507   1.222   4.571
 4721TIP3    H114106   4.530   1.227   4.663
 4721TIP3    H214107   4.415   1.245   4.567
 4722TIP3   OH214108   5.128   6.027   0.791
 4722TIP3    H114109   5.117   5.934   0.770
 4722TIP3    H214110   5.102   6.034   0.882
 4723TIP3   OH214111   5.908   1.439   5.643
 4723TIP3    H114112   5.961   1.422   5.565
 4723TIP3    H214113   5.911   1.534   5.653
 4724TIP3   OH214114   6.610   2.705   2.710
 4724TIP3    H114115   6.645   2.741   2.792
 4724TIP3    H214116   6.549   2.772   2.679
 4725TIP3   OH214117   7.824   4.054   2.668
 4725TIP3    H114118   7.884   4.014   2.731
 4725TIP3    H214119   7.875   4.126   2.629
 4726TIP3   OH214120   0.191   2.595   1.157
 4726TIP3    H114121   0.285   2.581   1.152
 4726TIP3    H214122   0.152   2.508   1.151
 4727TIP3   OH214123   2.505   5.921   6.496
 4727TIP3    H114124   2.508   5.835   6.455
 4727TIP3    H214125   2.590   5.960   6.476
 4728TIP3   OH214126   2.750   2.907   5.023
 4728TIP3    H114127   2.825   2.945   4.978
 4728TIP3    H214128   2.767   2.812   5.022
 4729TIP3   OH214129   7.340   6.483   6.582
 4729TIP3    H114130   7.412   6.448   6.531
 4729TIP3    H214131   7.381   6.522   6.659
 4730TIP3   OH214132   3.049   4.293   0.407
 4730TIP3    H114133   3.098   4.351   0.350
 4730TIP3    H214134   2.957   4.305   0.381
 4731TIP3   OH214135   2.102   5.549   4.133
 4731TIP3    H114136   2.123   5.533   4.041
 4731TIP3    H214137   2.017   5.507   4.146
 4732TIP3   OH214138   6.411   3.326   0.444
 4732TIP3    H114139   6.453   3.244   0.469
 4732TIP3    H214140   6.473   3.394   0.471
 4733TIP3   OH214141   2.215   0.899   1.503
 4733TIP3    H114142   2.266   0.935   1.430
 4733TIP3    H214143   2.130   0.876   1.463
 4734TIP3   OH214144   7.815   4.799   5.759
 4734TIP3    H114145   7.753   4.871   5.742
 4734TIP3    H214146   7.779   4.753   5.835
 4735TIP3   OH214147   3.504   0.829   4.683
 4735TIP3    H114148   3.593   0.864   4.688
 4735TIP3    H214149   3.514   0.736   4.702
 4736TIP3   OH214150   8.120   6.790   1.186
 4736TIP3    H114151   8.142   6.832   1.270
 4736TIP3    H214152   8.167   6.842   1.121
 4737TIP3   OH214153   7.529   0.344   6.677
 4737TIP3    H114154   7.484   0.297   6.606
 4737TIP3    H214155   7.461   0.366   6.740
 4738TIP3   OH214156   1.343   5.718   4.095
 4738TIP3    H114157   1.274   5.667   4.137
 4738TIP3    H214158   1.380   5.772   4.166
 4739TIP3   OH214159   4.929   2.631   6.250
 4739TIP3    H114160   4.916   2.559   6.189
 4739TIP3    H214161   5.022   2.653   6.241
 4740TIP3   OH214162   3.620   7.003   0.033
 4740TIP3    H114163   3.560   6.966  -0.032
 4740TIP3    H214164   3.565   7.064   0.083
 4741TIP3   OH214165   3.046   7.093   1.346
 4741TIP3    H114166   3.076   7.157   1.411
 4741TIP3    H214167   2.960   7.066   1.378
 4742TIP3   OH214168   3.641   5.267   4.004
 4742TIP3    H114169   3.569   5.253   3.943
 4742TIP3    H214170   3.712   5.213   3.971
 4743TIP3   OH214171   5.011   2.185   0.610
 4743TIP3    H114172   5.035   2.134   0.687
 4743TIP3    H214173   4.919   2.164   0.595
 4744TIP3   OH214174   2.862   3.886   1.207
 4744TIP3    H114175   2.874   3.802   1.164
 4744TIP3    H214176   2.914   3.947   1.156
 4745TIP3   OH214177   5.532   7.245   5.776
 4745TIP3    H114178   5.593   7.299   5.826
 4745TIP3    H214179   5.447   7.262   5.816
 4746TIP3   OH214180   1.433   0.875   4.246
 4746TIP3    H114181   1.351   0.883   4.196
 4746TIP3    H214182   1.482   0.807   4.200
 4747TIP3   OH214183   1.950   4.083   3.664
 4747TIP3    H114184   1.932   4.100   3.756
 4747TIP3    H214185   2.023   4.141   3.643
 4748TIP3   OH214186   6.034   4.960   6.023
 4748TIP3    H114187   6.110   5.016   6.006
 4748TIP3    H214188   5.962   5.005   5.980
 4749TIP3   OH214189   5.146   4.057   6.144
 4749TIP3    H114190   5.094   3.981   6.120
 4749TIP3    H214191   5.087   4.111   6.197
 4750TIP3   OH214192   0.754   7.602   4.875
 4750TIP3    H114193   0.806   7.562   4.945
 4750TIP3    H214194   0.782   7.693   4.873
 4751TIP3   OH214195   4.076   2.716   5.361
 4751TIP3    H114196   3.995   2.732   5.409
 4751TIP3    H214197   4.136   2.785   5.390
 4752TIP3   OH214198   7.338   2.310   2.585
 4752TIP3    H114199   7.329   2.223   2.548
 4752TIP3    H214200   7.301   2.302   2.673
 4753TIP3   OH214201   5.331   2.651   1.922
 4753TIP3    H114202   5.318   2.590   1.850
 4753TIP3    H214203   5.249   2.700   1.927
 4754TIP3   OH214204   4.598   0.096   6.758
 4754TIP3    H114205   4.591   0.163   6.690
 4754TIP3    H214206   4.638   0.021   6.715
 4755TIP3   OH214207   5.394   3.401   3.492
 4755TIP3    H114208   5.381   3.495   3.496
 4755TIP3    H214209   5.429   3.377   3.577
 4756TIP3   OH214210   0.241   1.998   0.005
 4756TIP3    H114211   0.220   1.908   0.029
 4756TIP3    H214212   0.156   2.039  -0.013
 4757TIP3   OH214213   4.632   6.777   4.079
 4757TIP3    H114214   4.544   6.739   4.069
 4757TIP3    H214215   4.685   6.731   4.014
 4758TIP3   OH214216   8.032   4.151   5.068
 4758TIP3    H114217   8.066   4.074   5.113
 4758TIP3    H214218   8.015   4.215   5.137
 4759TIP3   OH214219   2.123   6.946   5.906
 4759TIP3    H114220   2.042   6.896   5.913
 4759TIP3    H214221   2.109   7.004   5.832
 4760TIP3   OH214222   5.016   3.038   6.768
 4760TIP3    H114223   4.978   3.113   6.724
 4760TIP3    H214224   4.941   2.987   6.797
 4761TIP3   OH214225   0.022   0.075   0.331
 4761TIP3    H114226  -0.010   0.119   0.411
 4761TIP3    H214227   0.112   0.050   0.352
 4762TIP3   OH214228   7.815   2.245   1.679
 4762TIP3    H114229   7.845   2.314   1.621
 4762TIP3    H214230   7.895   2.199   1.705
 4763TIP3   OH214231   3.885   1.994   5.810
 4763TIP3    H114232   3.792   2.001   5.788
 4763TIP3    H214233   3.925   2.073   5.775
 4764TIP3   OH214234   4.851   5.726   5.392
 4764TIP3    H114235   4.796   5.756   5.464
 4764TIP3    H214236   4.879   5.638   5.417
 4765TIP3   OH214237   5.009   5.034   2.860
 4765TIP3    H114238   4.932   5.069   2.905
 4765TIP3    H214239   5.080   5.041   2.924
 4766TIP3   OH214240   4.654   5.824   2.570
 4766TIP3    H114241   4.583   5.800   2.510
 4766TIP3    H214242   4.631   5.781   2.652
 4767TIP3   OH214243   2.403   4.383   3.199
 4767TIP3    H114244   2.462   4.420   3.133
 4767TIP3    H214245   2.447   4.398   3.282
 4768TIP3   OH214246   2.994   1.109   4.677
 4768TIP3    H114247   2.925   1.109   4.743
 4768TIP3    H214248   3.004   1.202   4.653
 4769TIP3   OH214249   1.955   2.772   5.298
 4769TIP3    H114250   1.926   2.764   5.207
 4769TIP3    H214251   2.044   2.806   5.292
 4770TIP3   OH214252   3.054   3.801   6.117
 4770TIP3    H114253   3.017   3.887   6.099
 4770TIP3    H214254   2.995   3.740   6.074
 4771TIP3   OH214255   6.967   6.782   4.513
 4771TIP3    H114256   6.956   6.810   4.422
 4771TIP3    H214257   7.061   6.774   4.526
 4772TIP3   OH214258   4.578   2.981   4.290
 4772TIP3    H114259   4.587   2.932   4.209
 4772TIP3    H214260   4.507   3.043   4.274
 4773TIP3   OH214261   3.619   2.399   1.140
 4773TIP3    H114262   3.542   2.343   1.149
 4773TIP3    H214263   3.586   2.488   1.144
 4774TIP3   OH214264   6.472   1.672   4.642
 4774TIP3    H114265   6.472   1.616   4.719
 4774TIP3    H214266   6.398   1.641   4.590
 4775TIP3   OH214267   1.350   3.126   6.109
 4775TIP3    H114268   1.349   3.032   6.090
 4775TIP3    H214269   1.355   3.168   6.023
 4776TIP3   OH214270   2.113   4.685   2.101
 4776TIP3    H114271   2.166   4.746   2.153
 4776TIP3    H214272   2.171   4.612   2.083
 4777TIP3   OH214273   1.623   4.146   0.916
 4777TIP3    H114274   1.656   4.194   0.992
 4777TIP3    H214275   1.690   4.079   0.900
 4778TIP3   OH214276   6.988   0.344   3.615
 4778TIP3    H114277   6.902   0.383   3.600
 4778TIP3    H214278   6.984   0.259   3.570
 4779TIP3   OH214279   7.629   6.026   4.742
 4779TIP3    H114280   7.608   6.023   4.835
 4779TIP3    H214281   7.718   6.062   4.739
 4780TIP3   OH214282   2.834   4.797   1.764
 4780TIP3    H114283   2.761   4.820   1.821
 4780TIP3    H214284   2.831   4.701   1.759
 4781TIP3   OH214285   7.163   4.218   4.606
 4781TIP3    H114286   7.241   4.203   4.551
 4781TIP3    H214287   7.138   4.309   4.587
 4782TIP3   OH214288   6.405   1.238   0.551
 4782TIP3    H114289   6.410   1.166   0.613
 4782TIP3    H214290   6.496   1.267   0.540
 4783TIP3   OH214291   8.216   5.812   2.365
 4783TIP3    H114292   8.133   5.850   2.336
 4783TIP3    H214293   8.246   5.870   2.435
 4784TIP3   OH214294   4.330   5.730   1.702
 4784TIP3    H114295   4.249   5.746   1.654
 4784TIP3    H214296   4.301   5.699   1.788
 4785TIP3   OH214297   2.549   5.224   0.540
 4785TIP3    H114298   2.537   5.258   0.452
 4785TIP3    H214299   2.505   5.288   0.597
 4786TIP3   OH214300   0.523   6.923   2.905
 4786TIP3    H114301   0.486   6.896   2.989
 4786TIP3    H214302   0.486   7.010   2.890
 4787TIP3   OH214303   3.551   6.094   3.048
 4787TIP3    H114304   3.643   6.068   3.051
 4787TIP3    H214305   3.545   6.169   3.108
 4788TIP3   OH214306   1.696   2.113   2.072
 4788TIP3    H114307   1.657   2.177   2.013
 4788TIP3    H214308   1.790   2.120   2.056
 4789TIP3   OH214309   5.351   3.845   2.677
 4789TIP3    H114310   5.271   3.870   2.630
 4789TIP3    H214311   5.324   3.842   2.769
 4790TIP3   OH214312   7.976   4.057   4.085
 4790TIP3    H114313   7.971   4.107   4.003
 4790TIP3    H214314   7.947   4.118   4.152
 4791TIP3   OH214315   7.089   7.619   2.728
 4791TIP3    H114316   7.123   7.539   2.689
 4791TIP3    H214317   7.026   7.590   2.794
 4792TIP3   OH214318   4.025   7.394   6.074
 4792TIP3    H114319   3.931   7.403   6.062
 4792TIP3    H214320   4.043   7.301   6.062
 4793TIP3   OH214321   7.043   2.057   2.792
 4793TIP3    H114322   7.016   2.076   2.702
 4793TIP3    H214323   7.039   1.962   2.799
 4794TIP3   OH214324   0.395   2.249   4.036
 4794TIP3    H114325   0.356   2.332   4.007
 4794TIP3    H214326   0.488   2.267   4.043
 4795TIP3   OH214327   2.462   1.743   0.457
 4795TIP3    H114328   2.371   1.720   0.440
 4795TIP3    H214329   2.461   1.781   0.545
 4796TIP3   OH214330   2.421   4.958   3.494
 4796TIP3    H114331   2.502   4.998   3.524
 4796TIP3    H214332   2.359   5.031   3.488
 4797TIP3   OH214333   6.856   5.108   4.011
 4797TIP3    H114334   6.860   5.012   4.016
 4797TIP3    H214335   6.766   5.129   4.032
 4798TIP3   OH214336   0.948   3.448   6.393
 4798TIP3    H114337   0.952   3.405   6.479
 4798TIP3    H214338   0.909   3.383   6.335
 4799TIP3   OH214339   8.069   6.150   1.491
 4799TIP3    H114340   8.126   6.143   1.568
 4799TIP3    H214341   8.049   6.059   1.468
 4800TIP3   OH214342   1.043   5.911   1.897
 4800TIP3    H114343   1.030   5.826   1.855
 4800TIP3    H214344   1.026   5.975   1.828
 4801TIP3   OH214345   2.542   2.848   6.779
 4801TIP3    H114346   2.566   2.773   6.834
 4801TIP3    H214347   2.569   2.821   6.691
 4802TIP3   OH214348   2.194   3.192   0.757
 4802TIP3    H114349   2.207   3.153   0.844
 4802TIP3    H214350   2.130   3.134   0.715
 4803TIP3   OH214351   2.632   2.425   6.333
 4803TIP3    H114352   2.652   2.338   6.368
 4803TIP3    H214353   2.681   2.485   6.390
 4804TIP3   OH214354   7.242   6.435   1.507
 4804TIP3    H114355   7.209   6.525   1.510
 4804TIP3    H214356   7.236   6.404   1.597
 4805TIP3   OH214357   4.706   1.799   2.985
 4805TIP3    H114358   4.658   1.796   2.902
 4805TIP3    H214359   4.701   1.710   3.020
 4806TIP3   OH214360   2.153   4.544   4.998
 4806TIP3    H114361   2.095   4.470   4.980
 4806TIP3    H214362   2.116   4.584   5.077
 4807TIP3   OH214363   4.368   5.589   3.653
 4807TIP3    H114364   4.276   5.568   3.665
 4807TIP3    H214365   4.415   5.510   3.679
 4808TIP3   OH214366   1.438   3.581   3.198
 4808TIP3    H114367   1.475   3.520   3.134
 4808TIP3    H214368   1.514   3.614   3.247
 4809TIP3   OH214369   5.467   7.665   6.468
 4809TIP3    H114370   5.405   7.708   6.525
 4809TIP3    H214371   5.538   7.729   6.457
 4810TIP3   OH214372   6.344   7.756   5.172
 4810TIP3    H114373   6.335   7.846   5.202
 4810TIP3    H214374   6.415   7.720   5.224
 4811TIP3   OH214375   6.238   4.334   4.950
 4811TIP3    H114376   6.197   4.355   4.867
 4811TIP3    H214377   6.270   4.419   4.983
 4812TIP3   OH214378   6.392   2.903   0.652
 4812TIP3    H114379   6.307   2.940   0.676
 4812TIP3    H214380   6.371   2.839   0.583
 4813TIP3   OH214381   4.586   7.538   3.005
 4813TIP3    H114382   4.549   7.501   3.085
 4813TIP3    H214383   4.546   7.489   2.934
 4814TIP3   OH214384   5.539   7.212   2.115
 4814TIP3    H114385   5.496   7.160   2.047
 4814TIP3    H214386   5.471   7.227   2.181
 4815TIP3   OH214387   0.435   1.041   5.852
 4815TIP3    H114388   0.463   0.953   5.878
 4815TIP3    H214389   0.440   1.093   5.932
 4816TIP3   OH214390   2.390   6.226   6.203
 4816TIP3    H114391   2.316   6.283   6.223
 4816TIP3    H214392   2.350   6.140   6.188
 4817TIP3   OH214393   7.098   3.898   5.986
 4817TIP3    H114394   7.011   3.861   5.975
 4817TIP3    H214395   7.135   3.852   6.062
 4818TIP3   OH214396   1.927   1.905   0.883
 4818TIP3    H114397   1.909   1.855   0.963
 4818TIP3    H214398   2.023   1.914   0.881
 4819TIP3   OH214399   0.478   2.581   1.237
 4819TIP3    H114400   0.425   2.525   1.293
 4819TIP3    H214401   0.567   2.547   1.246
 4820TIP3   OH214402   2.248   5.198   4.137
 4820TIP3    H114403   2.202   5.114   4.137
 4820TIP3    H214404   2.187   5.259   4.179
 4821TIP3   OH214405   1.767   4.566   0.846
 4821TIP3    H114406   1.722   4.492   0.805
 4821TIP3    H214407   1.698   4.630   0.861
 4822TIP3   OH214408   1.848   5.577   0.594
 4822TIP3    H114409   1.870   5.590   0.686
 4822TIP3    H214410   1.916   5.625   0.546
 4823TIP3   OH214411   0.999   5.178   5.490
 4823TIP3    H114412   0.909   5.148   5.503
 4823TIP3    H214413   1.037   5.177   5.577
 4824TIP3   OH214414   2.213   0.562   3.197
 4824TIP3    H114415   2.187   0.506   3.124
 4824TIP3    H214416   2.158   0.640   3.187
 4825TIP3   OH214417   6.011   1.239   2.785
 4825TIP3    H114418   5.978   1.152   2.763
 4825TIP3    H214419   6.086   1.221   2.843
 4826TIP3   OH214420   5.430   4.386   0.509
 4826TIP3    H114421   5.475   4.336   0.577
 4826TIP3    H214422   5.500   4.426   0.457
 4827TIP3   OH214423   1.525   0.118   0.328
 4827TIP3    H114424   1.467   0.184   0.368
 4827TIP3    H214425   1.586   0.169   0.275
 4828TIP3   OH214426   6.648   0.877   2.779
 4828TIP3    H114427   6.577   0.940   2.785
 4828TIP3    H214428   6.613   0.806   2.725
 4829TIP3   OH214429   6.142   3.375   5.869
 4829TIP3    H114430   6.208   3.326   5.918
 4829TIP3    H214431   6.151   3.465   5.900
 4830TIP3   OH214432   5.474   5.891   2.840
 4830TIP3    H114433   5.418   5.962   2.808
 4830TIP3    H214434   5.521   5.930   2.914
 4831TIP3   OH214435   6.556   6.657   3.794
 4831TIP3    H114436   6.622   6.725   3.799
 4831TIP3    H214437   6.568   6.617   3.708
 4832TIP3   OH214438   0.424   3.879   4.993
 4832TIP3    H114439   0.415   3.926   4.910
 4832TIP3    H214440   0.358   3.809   4.987
 4833TIP3   OH214441   0.724   2.069   1.627
 4833TIP3    H114442   0.673   2.018   1.564
 4833TIP3    H214443   0.694   2.037   1.712
 4834TIP3   OH214444   2.946   1.928   0.791
 4834TIP3    H114445   2.971   1.996   0.728
 4834TIP3    H214446   3.028   1.899   0.830
 4835TIP3   OH214447   8.089   4.497   0.113
 4835TIP3    H114448   8.166   4.475   0.164
 4835TIP3    H214449   8.117   4.489   0.022
 4836TIP3   OH214450   2.333   3.950   6.523
 4836TIP3    H114451   2.354   3.985   6.436
 4836TIP3    H214452   2.331   3.855   6.511
 4837TIP3   OH214453   4.382   2.452   6.510
 4837TIP3    H114454   4.309   2.391   6.521
 4837TIP3    H214455   4.374   2.512   6.584
 4838TIP3   OH214456   8.103   0.380   1.512
 4838TIP3    H114457   8.131   0.431   1.436
 4838TIP3    H214458   8.183   0.370   1.564
 4839TIP3   OH214459   1.348   5.845   2.117
 4839TIP3    H114460   1.420   5.837   2.180
 4839TIP3    H214461   1.317   5.935   2.126
 4840TIP3   OH214462   0.376   4.316   1.206
 4840TIP3    H114463   0.389   4.276   1.120
 4840TIP3    H214464   0.446   4.280   1.260
 4841TIP3   OH214465   0.398   2.229   1.667
 4841TIP3    H114466   0.417   2.322   1.656
 4841TIP3    H214467   0.320   2.227   1.722
 4842TIP3   OH214468   8.303   0.436   2.108
 4842TIP3    H114469   8.324   0.395   2.191
 4842TIP3    H214470   8.210   0.416   2.093
 4843TIP3   OH214471   0.697   3.196   0.387
 4843TIP3    H114472   0.608   3.202   0.420
 4843TIP3    H214473   0.732   3.284   0.396
 4844TIP3   OH214474   0.309   0.403   3.797
 4844TIP3    H114475   0.278   0.313   3.809
 4844TIP3    H214476   0.404   0.396   3.802
 4845TIP3   OH214477   6.027   7.542   4.264
 4845TIP3    H114478   5.933   7.525   4.271
 4845TIP3    H214479   6.034   7.628   4.223
 4846TIP3   OH214480   4.120   1.441   5.602
 4846TIP3    H114481   4.107   1.348   5.582
 4846TIP3    H214482   4.112   1.446   5.697
 4847TIP3   OH214483   7.938   6.821   6.334
 4847TIP3    H114484   8.021   6.866   6.319
 4847TIP3    H214485   7.878   6.860   6.271
 4848TIP3   OH214486   1.771   4.747   3.669
 4848TIP3    H114487   1.828   4.726   3.742
 4848TIP3    H214488   1.814   4.707   3.593
 4849TIP3   OH214489   0.604   3.938   5.937
 4849TIP3    H114490   0.670   4.003   5.960
 4849TIP3    H214491   0.521   3.976   5.966
 4850TIP3   OH214492   8.112   3.680   5.974
 4850TIP3    H114493   8.122   3.660   5.881
 4850TIP3    H214494   8.189   3.641   6.016
 4851TIP3   OH214495   0.499   4.502   5.404
 4851TIP3    H114496   0.586   4.466   5.386
 4851TIP3    H214497   0.485   4.567   5.335
 4852TIP3   OH214498   5.171   7.349   6.171
 4852TIP3    H114499   5.237   7.280   6.169
 4852TIP3    H214500   5.127   7.338   6.255
 4853TIP3   OH214501   2.467   2.803   4.617
 4853TIP3    H114502   2.481   2.853   4.536
 4853TIP3    H214503   2.524   2.726   4.607
 4854TIP3   OH214504   1.780   3.324   2.075
 4854TIP3    H114505   1.750   3.398   2.022
 4854TIP3    H214506   1.865   3.352   2.109
 4855TIP3   OH214507   0.787   6.407   5.184
 4855TIP3    H114508   0.860   6.428   5.127
 4855TIP3    H214509   0.735   6.488   5.187
 4856TIP3   OH214510   6.537   5.811   2.160
 4856TIP3    H114511   6.604   5.847   2.219
 4856TIP3    H214512   6.458   5.861   2.181
 4857TIP3   OH214513   8.094   4.876   6.691
 4857TIP3    H114514   8.063   4.806   6.633
 4857TIP3    H214515   8.151   4.832   6.753
 4858TIP3   OH214516   3.383   4.282   2.060
 4858TIP3    H114517   3.332   4.318   1.987
 4858TIP3    H214518   3.469   4.264   2.022
 4859TIP3   OH214519   1.242   0.571   6.701
 4859TIP3    H114520   1.155   0.551   6.735
 4859TIP3    H214521   1.275   0.487   6.669
 4860TIP3   OH214522   3.440   0.161   3.079
 4860TIP3    H114523   3.413   0.229   3.016
 4860TIP3    H214524   3.513   0.116   3.036
 4861TIP3   OH214525   7.601   6.556   2.475
 4861TIP3    H114526   7.520   6.574   2.523
 4861TIP3    H214527   7.670   6.589   2.532
 4862TIP3   OH214528   5.798   3.936   0.874
 4862TIP3    H114529   5.744   3.915   0.950
 4862TIP3    H214530   5.867   3.992   0.908
 4863TIP3   OH214531   5.714   0.861   4.439
 4863TIP3    H114532   5.629   0.822   4.460
 4863TIP3    H214533   5.771   0.832   4.511
 4864TIP3   OH214534   7.289   0.802   2.194
 4864TIP3    H114535   7.377   0.816   2.229
 4864TIP3    H214536   7.255   0.890   2.182
 4865TIP3   OH214537   4.339   3.374   5.335
 4865TIP3    H114538   4.248   3.346   5.329
 4865TIP3    H214539   4.335   3.461   5.374
 4866TIP3   OH214540   4.984   1.170   0.968
 4866TIP3    H114541   4.922   1.118   1.019
 4866TIP3    H214542   5.033   1.219   1.033
 4867TIP3   OH214543   4.892   5.975   3.754
 4867TIP3    H114544   4.932   6.056   3.722
 4867TIP3    H214545   4.820   5.958   3.692
 4868TIP3   OH214546   6.721   2.155   3.759
 4868TIP3    H114547   6.746   2.063   3.751
 4868TIP3    H214548   6.633   2.160   3.721
 4869TIP3   OH214549   1.859   7.608   2.690
 4869TIP3    H114550   1.879   7.514   2.691
 4869TIP3    H214551   1.830   7.626   2.601
 4870TIP3   OH214552   7.285   4.121   5.898
 4870TIP3    H114553   7.345   4.072   5.841
 4870TIP3    H214554   7.220   4.057   5.925
 4871TIP3   OH214555   3.737   4.921   3.269
 4871TIP3    H114556   3.791   4.948   3.194
 4871TIP3    H214557   3.678   4.855   3.233
 4872TIP3   OH214558   4.754   3.820   5.529
 4872TIP3    H114559   4.673   3.771   5.518
 4872TIP3    H214560   4.764   3.829   5.624
 4873TIP3   OH214561   6.852   5.541   6.151
 4873TIP3    H114562   6.888   5.583   6.229
 4873TIP3    H214563   6.833   5.613   6.092
 4874TIP3   OH214564   6.612   2.884   3.640
 4874TIP3    H114565   6.596   2.979   3.637
 4874TIP3    H214566   6.603   2.856   3.549
 4875TIP3   OH214567   5.069   6.148   1.494
 4875TIP3    H114568   5.119   6.204   1.433
 4875TIP3    H214569   5.131   6.079   1.519
 4876TIP3   OH214570   7.932   1.143   0.098
 4876TIP3    H114571   7.987   1.076   0.140
 4876TIP3    H214572   7.865   1.093   0.052
 4877TIP3   OH214573   4.803   3.787   3.825
 4877TIP3    H114574   4.725   3.837   3.802
 4877TIP3    H214575   4.775   3.695   3.821
 4878TIP3   OH214576   0.173   2.342   2.220
 4878TIP3    H114577   0.203   2.372   2.134
 4878TIP3    H214578   0.094   2.291   2.201
 4879TIP3   OH214579   7.421   0.076   5.075
 4879TIP3    H114580   7.430   0.162   5.034
 4879TIP3    H214581   7.511   0.043   5.082
 4880TIP3   OH214582   3.010   2.567   1.770
 4880TIP3    H114583   3.098   2.604   1.764
 4880TIP3    H214584   3.024   2.473   1.784
 4881TIP3   OH214585   6.299   2.574   5.582
 4881TIP3    H114586   6.235   2.629   5.537
 4881TIP3    H214587   6.268   2.485   5.566
 4882TIP3   OH214588   1.751   3.488   2.566
 4882TIP3    H114589   1.830   3.519   2.521
 4882TIP3    H214590   1.777   3.481   2.657
 4883TIP3   OH214591   1.305   3.537   6.413
 4883TIP3    H114592   1.309   3.518   6.507
 4883TIP3    H214593   1.259   3.461   6.376
 4884TIP3   OH214594   6.107   3.368   0.352
 4884TIP3    H114595   6.201   3.377   0.333
 4884TIP3    H214596   6.083   3.283   0.314
 4885TIP3   OH214597   0.250   1.362   1.554
 4885TIP3    H114598   0.315   1.386   1.619
 4885TIP3    H214599   0.279   1.277   1.521
 4886TIP3   OH214600   6.459   2.872   5.240
 4886TIP3    H114601   6.472   2.806   5.309
 4886TIP3    H214602   6.489   2.829   5.160
 4887TIP3   OH214603   7.993   0.353   5.570
 4887TIP3    H114604   8.062   0.405   5.612
 4887TIP3    H214605   7.924   0.347   5.636
 4888TIP3   OH214606   5.781   4.010   1.367
 4888TIP3    H114607   5.799   3.978   1.456
 4888TIP3    H214608   5.691   4.044   1.372
 4889TIP3   OH214609   6.627   2.079   6.523
 4889TIP3    H114610   6.722   2.088   6.527
 4889TIP3    H214611   6.595   2.123   6.602
 4890TIP3   OH214612   3.081   3.628   0.570
 4890TIP3    H114613   3.170   3.595   0.558
 4890TIP3    H214614   3.093   3.719   0.597
 4891TIP3   OH214615   7.909   4.259   4.249
 4891TIP3    H114616   7.832   4.301   4.211
 4891TIP3    H214617   7.920   4.302   4.334
 4892TIP3   OH214618   1.610   4.124   4.967
 4892TIP3    H114619   1.700   4.134   4.998
 4892TIP3    H214620   1.600   4.193   4.902
 4893TIP3   OH214621   6.863   3.509   0.338
 4893TIP3    H114622   6.866   3.524   0.244
 4893TIP3    H214623   6.829   3.591   0.375
 4894TIP3   OH214624   4.866   4.862   2.370
 4894TIP3    H114625   4.879   4.783   2.319
 4894TIP3    H214626   4.899   4.933   2.315
 4895TIP3   OH214627   3.221   1.629   0.028
 4895TIP3    H114628   3.213   1.680  -0.053
 4895TIP3    H214629   3.156   1.667   0.086
 4896TIP3   OH214630   4.134   5.648   0.120
 4896TIP3    H114631   4.193   5.578   0.093
 4896TIP3    H214632   4.049   5.623   0.084
 4897TIP3   OH214633   0.825   7.617   3.025
 4897TIP3    H114634   0.901   7.648   3.074
 4897TIP3    H214635   0.757   7.603   3.091
 4898TIP3   OH214636   1.512   3.257   5.133
 4898TIP3    H114637   1.604   3.235   5.118
 4898TIP3    H214638   1.511   3.299   5.219
 4899TIP3   OH214639   5.521   5.882   5.599
 4899TIP3    H114640   5.524   5.946   5.670
 4899TIP3    H214641   5.455   5.819   5.627
 4900TIP3   OH214642   2.345   2.308   2.620
 4900TIP3    H114643   2.406   2.298   2.547
 4900TIP3    H214644   2.285   2.377   2.592
 4901TIP3   OH214645   4.160   3.094   0.245
 4901TIP3    H114646   4.151   3.119   0.337
 4901TIP3    H214647   4.072   3.104   0.209
 4902TIP3   OH214648   1.408   3.471   3.654
 4902TIP3    H114649   1.423   3.560   3.687
 4902TIP3    H214650   1.495   3.437   3.636
 4903TIP3   OH214651   6.334   2.227   6.744
 4903TIP3    H114652   6.321   2.321   6.759
 4903TIP3    H214653   6.427   2.220   6.721
 4904TIP3   OH214654   6.876   6.609   0.484
 4904TIP3    H114655   6.805   6.618   0.420
 4904TIP3    H214656   6.898   6.698   0.509
 4905TIP3   OH214657   7.387   7.647   3.617
 4905TIP3    H114658   7.363   7.570   3.566
 4905TIP3    H214659   7.304   7.677   3.655
 4906TIP3   OH214660   1.943   3.823   6.162
 4906TIP3    H114661   2.012   3.773   6.205
 4906TIP3    H214662   1.936   3.904   6.212
 4907TIP3   OH214663   8.128   5.416   5.015
 4907TIP3    H114664   8.172   5.398   5.098
 4907TIP3    H214665   8.169   5.496   4.983
 4908TIP3   OH214666   3.482   7.383   2.698
 4908TIP3    H114667   3.390   7.374   2.724
 4908TIP3    H214668   3.478   7.421   2.610
 4909TIP3   OH214669   3.533   5.575   0.360
 4909TIP3    H114670   3.553   5.593   0.452
 4909TIP3    H214671   3.470   5.503   0.363
 4910TIP3   OH214672   6.102   5.022   4.998
 4910TIP3    H114673   6.157   4.944   4.998
 4910TIP3    H214674   6.030   5.001   5.058
 4911TIP3   OH214675   1.692   2.936   3.921
 4911TIP3    H114676   1.657   3.025   3.912
 4911TIP3    H214677   1.652   2.887   3.849
 4912TIP3   OH214678   7.260   6.574   0.754
 4912TIP3    H114679   7.164   6.581   0.759
 4912TIP3    H214680   7.281   6.496   0.807
 4913TIP3   OH214681   1.716   5.355   0.198
 4913TIP3    H114682   1.627   5.390   0.192
 4913TIP3    H214683   1.723   5.294   0.125
 4914TIP3   OH214684   2.996   1.820   3.634
 4914TIP3    H114685   3.056   1.813   3.560
 4914TIP3    H214686   2.920   1.767   3.609
 4915TIP3   OH214687   1.171   2.319   4.259
 4915TIP3    H114688   1.193   2.253   4.324
 4915TIP3    H214689   1.256   2.350   4.226
 4916TIP3   OH214690   1.977   2.959   5.963
 4916TIP3    H114691   1.988   3.044   6.005
 4916TIP3    H214692   2.017   2.897   6.024
 4917TIP3   OH214693   2.618   4.249   4.748
 4917TIP3    H114694   2.678   4.228   4.677
 4917TIP3    H214695   2.674   4.291   4.814
 4918TIP3   OH214696   2.266   3.423   5.574
 4918TIP3    H114697   2.174   3.439   5.596
 4918TIP3    H214698   2.293   3.355   5.636
 4919TIP3   OH214699   6.183   0.381   6.593
 4919TIP3    H114700   6.122   0.423   6.653
 4919TIP3    H214701   6.213   0.303   6.640
 4920TIP3   OH214702   1.212   5.347   4.955
 4920TIP3    H114703   1.296   5.310   4.928
 4920TIP3    H214704   1.218   5.440   4.933
 4921TIP3   OH214705   0.184   2.375   0.727
 4921TIP3    H114706   0.148   2.312   0.665
 4921TIP3    H214707   0.211   2.322   0.802
 4922TIP3   OH214708   8.046   6.187   0.869
 4922TIP3    H114709   7.990   6.238   0.810
 4922TIP3    H214710   8.129   6.235   0.870
 4923TIP3   OH214711   6.384   1.689   2.320
 4923TIP3    H114712   6.353   1.628   2.387
 4923TIP3    H214713   6.380   1.775   2.361
 4924TIP3   OH214714   0.224   3.137   3.503
 4924TIP3    H114715   0.237   3.161   3.411
 4924TIP3    H214716   0.129   3.129   3.512
 4925TIP3   OH214717   1.558   0.050   6.470
 4925TIP3    H114718   1.557  -0.032   6.519
 4925TIP3    H214719   1.471   0.056   6.432
 4926TIP3   OH214720   7.563   7.650   6.729
 4926TIP3    H114721   7.634   7.595   6.761
 4926TIP3    H214722   7.605   7.709   6.666
 4927TIP3   OH214723   4.134   7.411   3.360
 4927TIP3    H114724   4.154   7.410   3.267
 4927TIP3    H214725   4.215   7.380   3.403
 4928TIP3   OH214726   2.620   7.752   3.188
 4928TIP3    H114727   2.586   7.810   3.256
 4928TIP3    H214728   2.554   7.683   3.181
 4929TIP3   OH214729   5.823   1.347   0.479
 4929TIP3    H114730   5.900   1.378   0.527
 4929TIP3    H214731   5.817   1.254   0.501
 4930TIP3   OH214732   3.091   5.655   3.277
 4930TIP3    H114733   3.119   5.745   3.261
 4930TIP3    H214734   3.116   5.638   3.368
 4931TIP3   OH214735   6.685   4.955   6.101
 4931TIP3    H114736   6.699   4.915   6.187
 4931TIP3    H214737   6.767   4.939   6.054
 4932TIP3   OH214738   1.001   5.241   2.547
 4932TIP3    H114739   0.926   5.274   2.496
 4932TIP3    H214740   1.047   5.183   2.486
 4933TIP3   OH214741   5.901   1.609   1.835
 4933TIP3    H114742   5.917   1.581   1.926
 4933TIP3    H214743   5.806   1.603   1.824
 4934TIP3   OH214744   2.701   2.987   0.671
 4934TIP3    H114745   2.748   3.049   0.726
 4934TIP3    H214746   2.618   3.030   0.651
 4935TIP3   OH214747   0.472   2.394   3.564
 4935TIP3    H114748   0.446   2.310   3.527
 4935TIP3    H214749   0.559   2.378   3.601
 4936TIP3   OH214750   1.063   7.298   1.572
 4936TIP3    H114751   1.151   7.273   1.543
 4936TIP3    H214752   1.073   7.386   1.607
 4937TIP3   OH214753   4.912   1.962   0.828
 4937TIP3    H114754   4.867   1.884   0.795
 4937TIP3    H214755   4.972   1.929   0.895
 4938TIP3   OH214756   5.211   2.997   1.572
 4938TIP3    H114757   5.181   2.940   1.501
 4938TIP3    H214758   5.291   2.956   1.604
 4939TIP3   OH214759   1.432   2.289   0.497
 4939TIP3    H114760   1.526   2.293   0.481
 4939TIP3    H214761   1.394   2.345   0.429
 4940TIP3   OH214762   2.651   5.659   4.437
 4940TIP3    H114763   2.670   5.575   4.478
 4940TIP3    H214764   2.675   5.646   4.345
 4941TIP3   OH214765   8.038   1.432   3.417
 4941TIP3    H114766   7.966   1.390   3.465
 4941TIP3    H214767   7.994   1.483   3.349
 4942TIP3   OH214768   5.758   3.550   5.657
 4942TIP3    H114769   5.781   3.569   5.566
 4942TIP3    H214770   5.827   3.590   5.709
 4943TIP3   OH214771   2.418   5.529   3.779
 4943TIP3    H114772   2.356   5.499   3.847
 4943TIP3    H214773   2.504   5.521   3.820
 4944TIP3   OH214774   4.881   4.495   5.270
 4944TIP3    H114775   4.923   4.421   5.225
 4944TIP3    H214776   4.874   4.563   5.203
 4945TIP3   OH214777   7.324   5.331   6.665
 4945TIP3    H114778   7.306   5.375   6.748
 4945TIP3    H214779   7.247   5.275   6.650
 4946TIP3   OH214780   4.854   6.274   5.992
 4946TIP3    H114781   4.931   6.234   5.952
 4946TIP3    H214782   4.860   6.367   5.967
 4947TIP3   OH214783   2.110   4.160   5.597
 4947TIP3    H114784   2.123   4.095   5.665
 4947TIP3    H214785   2.105   4.110   5.516
 4948TIP3   OH214786   6.302   2.182   5.357
 4948TIP3    H114787   6.374   2.226   5.404
 4948TIP3    H214788   6.335   2.093   5.342
 4949TIP3   OH214789   6.329   4.866   4.947
 4949TIP3    H114790   6.396   4.903   5.004
 4949TIP3    H214791   6.318   4.931   4.878
 4950TIP3   OH214792   5.155   7.155   0.873
 4950TIP3    H114793   5.180   7.153   0.781
 4950TIP3    H214794   5.170   7.066   0.904
 4951TIP3   OH214795   6.711   3.707   6.248
 4951TIP3    H114796   6.639   3.769   6.237
 4951TIP3    H214797   6.671   3.621   6.237
 4952TIP3   OH214798   3.471   3.698   4.030
 4952TIP3    H114799   3.557   3.663   4.010
 4952TIP3    H214800   3.445   3.654   4.111
 4953TIP3   OH214801   3.262   2.747   6.736
 4953TIP3    H114802   3.307   2.787   6.662
 4953TIP3    H214803   3.232   2.662   6.704
 4954TIP3   OH214804   2.433   7.477   2.646
 4954TIP3    H114805   2.504   7.511   2.700
 4954TIP3    H214806   2.381   7.554   2.623
 4955TIP3   OH214807   4.097   3.174   4.530
 4955TIP3    H114808   4.116   3.240   4.463
 4955TIP3    H214809   4.031   3.214   4.585
 4956TIP3   OH214810   0.706   4.492   2.453
 4956TIP3    H114811   0.617   4.526   2.443
 4956TIP3    H214812   0.752   4.561   2.501
 4957TIP3   OH214813   7.873   3.007   4.411
 4957TIP3    H114814   7.818   3.085   4.421
 4957TIP3    H214815   7.817   2.944   4.366
 4958TIP3   OH214816   5.074   0.280   4.907
 4958TIP3    H114817   5.146   0.249   4.852
 4958TIP3    H214818   4.996   0.270   4.853
 4959TIP3   OH214819   8.158   5.334   5.774
 4959TIP3    H114820   8.170   5.276   5.849
 4959TIP3    H214821   8.240   5.384   5.769
 4960TIP3   OH214822   0.645   1.264   5.378
 4960TIP3    H114823   0.666   1.346   5.333
 4960TIP3    H214824   0.652   1.284   5.471
 4961TIP3   OH214825   2.875   5.230   0.618
 4961TIP3    H114826   2.954   5.269   0.656
 4961TIP3    H214827   2.805   5.250   0.681
 4962TIP3   OH214828   7.240   0.146   4.784
 4962TIP3    H114829   7.183   0.144   4.862
 4962TIP3    H214830   7.319   0.191   4.814
 4963TIP3   OH214831   5.583   6.030   4.455
 4963TIP3    H114832   5.660   5.976   4.439
 4963TIP3    H214833   5.603   6.077   4.536
 4964TIP3   OH214834   4.863   5.468   3.798
 4964TIP3    H114835   4.889   5.393   3.851
 4964TIP3    H214836   4.879   5.544   3.854
 4965TIP3   OH214837   5.668   4.930   4.209
 4965TIP3    H114838   5.743   4.913   4.266
 4965TIP3    H214839   5.700   4.992   4.144
 4966TIP3   OH214840   7.832   2.847   3.550
 4966TIP3    H114841   7.874   2.912   3.494
 4966TIP3    H214842   7.769   2.896   3.602
 4967TIP3   OH214843   2.572   4.049   2.410
 4967TIP3    H114844   2.640   3.989   2.377
 4967TIP3    H214845   2.537   4.005   2.488
 4968TIP3   OH214846   1.212   3.036   2.998
 4968TIP3    H114847   1.232   2.964   2.938
 4968TIP3    H214848   1.295   3.084   3.007
 4969TIP3   OH214849   8.328   3.704   4.211
 4969TIP3    H114850   8.259   3.770   4.209
 4969TIP3    H214851   8.305   3.648   4.285
 4970TIP3   OH214852   7.419   2.747   3.628
 4970TIP3    H114853   7.363   2.694   3.572
 4970TIP3    H214854   7.383   2.735   3.716
 4971TIP3   OH214855   1.319   6.225   5.294
 4971TIP3    H114856   1.275   6.235   5.209
 4971TIP3    H214857   1.397   6.280   5.286
 4972TIP3   OH214858   0.440   0.984   0.876
 4972TIP3    H114859   0.451   0.983   0.971
 4972TIP3    H214860   0.382   0.910   0.857
 4973TIP3   OH214861   5.135   5.865   3.393
 4973TIP3    H114862   5.203   5.798   3.386
 4973TIP3    H214863   5.053   5.815   3.400
 4974TIP3   OH214864   2.883   4.204   3.248
 4974TIP3    H114865   2.969   4.233   3.279
 4974TIP3    H214866   2.882   4.228   3.155
 4975TIP3   OH214867   5.789   0.149   0.282
 4975TIP3    H114868   5.755   0.149   0.193
 4975TIP3    H214869   5.824   0.062   0.295
 4976TIP3   OH214870   4.792   3.904   0.368
 4976TIP3    H114871   4.843   3.957   0.307
 4976TIP3    H214872   4.752   3.966   0.428
 4977TIP3   OH214873   0.829   3.052   5.133
 4977TIP3    H114874   0.817   3.106   5.054
 4977TIP3    H214875   0.774   2.975   5.118
 4978TIP3   OH214876   4.406   2.790   2.049
 4978TIP3    H114877   4.402   2.758   2.139
 4978TIP3    H214878   4.379   2.881   2.055
 4979TIP3   OH214879   3.148   2.128   6.166
 4979TIP3    H114880   3.218   2.071   6.134
 4979TIP3    H214881   3.124   2.092   6.251
 4980TIP3   OH214882   0.871   1.565   4.752
 4980TIP3    H114883   0.793   1.595   4.799
 4980TIP3    H214884   0.876   1.621   4.675
 4981TIP3   OH214885   6.961   0.909   3.386
 4981TIP3    H114886   6.961   1.004   3.373
 4981TIP3    H214887   6.996   0.874   3.304
 4982TIP3   OH214888   7.120   4.445   2.796
 4982TIP3    H114889   7.093   4.442   2.704
 4982TIP3    H214890   7.208   4.480   2.794
 4983TIP3   OH214891   4.953   5.776   1.084
 4983TIP3    H114892   4.905   5.701   1.121
 4983TIP3    H214893   5.008   5.807   1.156
 4984TIP3   OH214894   1.902   6.735   6.006
 4984TIP3    H114895   1.981   6.689   5.976
 4984TIP3    H214896   1.837   6.718   5.939
 4985TIP3   OH214897   8.075   5.158   6.635
 4985TIP3    H114898   8.099   5.070   6.664
 4985TIP3    H214899   7.985   5.149   6.602
 4986TIP3   OH214900   4.703   2.703   0.809
 4986TIP3    H114901   4.641   2.665   0.872
 4986TIP3    H214902   4.648   2.737   0.739
 4987TIP3   OH214903   3.134   2.874   0.025
 4987TIP3    H114904   3.196   2.942  -0.004
 4987TIP3    H214905   3.157   2.857   0.116
 4988TIP3   OH214906   3.198   2.753   0.998
 4988TIP3    H114907   3.147   2.715   1.069
 4988TIP3    H214908   3.169   2.707   0.920
 4989TIP3   OH214909   2.750   6.783   6.089
 4989TIP3    H114910   2.674   6.802   6.034
 4989TIP3    H214911   2.742   6.844   6.163
 4990TIP3   OH214912   5.174   0.189   5.572
 4990TIP3    H114913   5.164   0.094   5.581
 4990TIP3    H214914   5.203   0.202   5.482
 4991TIP3   OH214915   3.955   3.168   4.270
 4991TIP3    H114916   4.012   3.116   4.327
 4991TIP3    H214917   3.928   3.108   4.201
 4992TIP3   OH214918   4.346   4.004   5.173
 4992TIP3    H114919   4.287   4.041   5.239
 4992TIP3    H214920   4.328   3.910   5.175
 4993TIP3   OH214921   6.667   3.681   4.756
 4993TIP3    H114922   6.686   3.684   4.850
 4993TIP3    H214923   6.715   3.605   4.724
 4994TIP3   OH214924   1.342   4.731   5.703
 4994TIP3    H114925   1.322   4.711   5.612
 4994TIP3    H214926   1.259   4.723   5.749
 4995TIP3   OH214927   4.027   6.236   4.620
 4995TIP3    H114928   3.948   6.217   4.570
 4995TIP3    H214929   4.008   6.319   4.663
 4996TIP3   OH214930   2.689   0.587   1.526
 4996TIP3    H114931   2.688   0.627   1.439
 4996TIP3    H214932   2.664   0.496   1.510
 4997TIP3   OH214933   3.414   1.561   6.349
 4997TIP3    H114934   3.324   1.577   6.319
 4997TIP3    H214935   3.428   1.468   6.330
 4998TIP3   OH214936   0.904   4.969   4.482
 4998TIP3    H114937   0.930   5.061   4.481
 4998TIP3    H214938   0.980   4.923   4.517
 4999TIP3   OH214939   2.145   5.927   5.477
 4999TIP3    H114940   2.119   5.837   5.458
 4999TIP3    H214941   2.217   5.944   5.415
 5000TIP3   OH214942   3.297   3.166   1.464
 5000TIP3    H114943   3.351   3.234   1.425
 5000TIP3    H214944   3.261   3.206   1.543
 5001TIP3   OH214945   5.057   0.465   5.724
 5001TIP3    H114946   5.067   0.469   5.819
 5001TIP3    H214947   5.105   0.387   5.698
 5002TIP3   OH214948   8.191   0.855   3.826
 5002TIP3    H114949   8.138   0.847   3.746
 5002TIP3    H214950   8.277   0.883   3.795
 5003TIP3   OH214951   2.843   1.758   0.562
 5003TIP3    H114952   2.816   1.821   0.495
 5003TIP3    H214953   2.862   1.812   0.639
 5004TIP3   OH214954   4.809   6.816   0.496
 5004TIP3    H114955   4.796   6.891   0.554
 5004TIP3    H214956   4.729   6.812   0.443
 5005TIP3   OH214957   5.730   0.625   2.066
 5005TIP3    H114958   5.703   0.692   2.128
 5005TIP3    H214959   5.659   0.561   2.067
 5006TIP3   OH214960   2.651   1.967   3.062
 5006TIP3    H114961   2.729   1.911   3.062
 5006TIP3    H214962   2.586   1.918   3.112
 5007TIP3   OH214963   3.828   0.026   1.590
 5007TIP3    H114964   3.799   0.088   1.524
 5007TIP3    H214965   3.924   0.033   1.590
 5008TIP3   OH214966   2.773   5.913   5.659
 5008TIP3    H114967   2.747   5.890   5.570
 5008TIP3    H214968   2.740   6.002   5.672
 5009TIP3   OH214969   1.401   0.971   5.232
 5009TIP3    H114970   1.436   0.924   5.308
 5009TIP3    H214971   1.380   0.903   5.169
 5010TIP3   OH214972   1.580   6.504   0.020
 5010TIP3    H114973   1.529   6.467   0.091
 5010TIP3    H214974   1.669   6.474   0.036
 5011TIP3   OH214975   7.573   3.351   2.964
 5011TIP3    H114976   7.568   3.276   2.904
 5011TIP3    H214977   7.491   3.348   3.013
 5012TIP3   OH214978   7.316   0.605   1.236
 5012TIP3    H114979   7.405   0.641   1.238
 5012TIP3    H214980   7.259   0.682   1.240
 5013TIP3   OH214981   2.545   2.652   3.875
 5013TIP3    H114982   2.575   2.612   3.956
 5013TIP3    H214983   2.615   2.636   3.812
 5014TIP3   OH214984   1.714   7.483   0.820
 5014TIP3    H114985   1.669   7.511   0.740
 5014TIP3    H214986   1.759   7.402   0.796
 5015TIP3   OH214987   1.175   1.888   6.055
 5015TIP3    H114988   1.192   1.949   6.126
 5015TIP3    H214989   1.228   1.919   5.982
 5016TIP3   OH214990   4.394   0.446   4.366
 5016TIP3    H114991   4.319   0.487   4.323
 5016TIP3    H214992   4.383   0.353   4.346
 5017TIP3   OH214993   6.056   5.227   3.545
 5017TIP3    H114994   5.972   5.226   3.499
 5017TIP3    H214995   6.052   5.305   3.600
 5018TIP3   OH214996   2.037   3.166   6.138
 5018TIP3    H114997   1.982   3.141   6.212
 5018TIP3    H214998   2.104   3.223   6.175
 5019TIP3   OH214999   2.012   4.586   5.285
 5019TIP3    H115000   1.926   4.559   5.317
 5019TIP3    H215001   2.039   4.655   5.346
 5020TIP3   OH215002   1.874   3.431   4.996
 5020TIP3    H115003   1.899   3.431   5.088
 5020TIP3    H215004   1.927   3.362   4.956
 5021TIP3   OH215005   1.617   1.971   4.234
 5021TIP3    H115006   1.525   1.945   4.236
 5021TIP3    H215007   1.665   1.889   4.250
 5022TIP3   OH215008   7.271   5.599   6.326
 5022TIP3    H115009   7.327   5.540   6.378
 5022TIP3    H215010   7.331   5.638   6.262
 5023TIP3   OH215011   1.608   6.406   2.438
 5023TIP3    H115012   1.513   6.410   2.435
 5023TIP3    H215013   1.636   6.437   2.352
 5024TIP3   OH215014   5.837   1.821   6.782
 5024TIP3    H115015   5.923   1.842   6.746
 5024TIP3    H215016   5.785   1.792   6.706
 5025TIP3   OH215017   5.975   5.268   0.075
 5025TIP3    H115018   6.019   5.198   0.123
 5025TIP3    H215019   5.981   5.242  -0.017
 5026TIP3   OH215020   2.426   6.198   1.738
 5026TIP3    H115021   2.435   6.271   1.799
 5026TIP3    H215022   2.333   6.176   1.740
 5027TIP3   OH215023   2.626   1.567   0.327
 5027TIP3    H115024   2.568   1.595   0.397
 5027TIP3    H215025   2.669   1.488   0.361
 5028TIP3   OH215026   0.903   3.699   2.052
 5028TIP3    H115027   0.833   3.643   2.018
 5028TIP3    H215028   0.972   3.693   1.986
 5029TIP3   OH215029   3.230   7.627   4.634
 5029TIP3    H115030   3.227   7.532   4.635
 5029TIP3    H215031   3.190   7.654   4.717
 5030TIP3   OH215032   5.178   4.775   0.781
 5030TIP3    H115033   5.187   4.748   0.873
 5030TIP3    H215034   5.250   4.730   0.736
 5031TIP3   OH215035   6.958   3.290   1.798
 5031TIP3    H115036   6.955   3.270   1.704
 5031TIP3    H215037   7.025   3.359   1.805
 5032TIP3   OH215038   1.744   4.629   2.573
 5032TIP3    H115039   1.679   4.694   2.600
 5032TIP3    H215040   1.708   4.589   2.494
 5033TIP3   OH215041   1.191   2.879   5.512
 5033TIP3    H115042   1.134   2.950   5.540
 5033TIP3    H215043   1.163   2.859   5.422
 5034TIP3   OH215044   2.235   2.148   3.235
 5034TIP3    H115045   2.294   2.222   3.245
 5034TIP3    H215046   2.193   2.139   3.321
 5035TIP3   OH215047   0.123   7.013   6.743
 5035TIP3    H115048   0.093   7.101   6.719
 5035TIP3    H215049   0.131   7.017   6.839
 5036TIP3   OH215050   5.585   2.452   0.244
 5036TIP3    H115051   5.520   2.521   0.230
 5036TIP3    H215052   5.540   2.371   0.223
 5037TIP3   OH215053   4.754   4.828   1.395
 5037TIP3    H115054   4.768   4.860   1.483
 5037TIP3    H215055   4.842   4.819   1.358
 5038TIP3   OH215056   5.108   6.907   0.626
 5038TIP3    H115057   5.139   6.996   0.613
 5038TIP3    H215058   5.020   6.918   0.664
 5039TIP3   OH215059   4.166   4.779   3.996
 5039TIP3    H115060   4.124   4.703   4.037
 5039TIP3    H215061   4.093   4.829   3.958
 5040TIP3   OH215062   4.810   3.457   6.215
 5040TIP3    H115063   4.788   3.448   6.123
 5040TIP3    H215064   4.905   3.463   6.218
 5041TIP3   OH215065   5.709   2.476   1.802
 5041TIP3    H115066   5.796   2.442   1.781
 5041TIP3    H215067   5.690   2.439   1.888
 5042TIP3   OH215068   2.954   3.202   3.257
 5042TIP3    H115069   2.988   3.142   3.323
 5042TIP3    H215070   2.947   3.286   3.302
 5043TIP3   OH215071   5.262   6.708   2.950
 5043TIP3    H115072   5.273   6.616   2.925
 5043TIP3    H215073   5.310   6.716   3.033
 5044TIP3   OH215074   8.228   1.799   4.105
 5044TIP3    H115075   8.241   1.704   4.113
 5044TIP3    H215076   8.308   1.836   4.141
 5045TIP3   OH215077   2.287   3.847   5.711
 5045TIP3    H115078   2.245   3.847   5.797
 5045TIP3    H215079   2.215   3.835   5.649
 5046TIP3   OH215080   0.210   2.162   2.762
 5046TIP3    H115081   0.214   2.163   2.666
 5046TIP3    H215082   0.174   2.248   2.785
 5047TIP3   OH215083   3.985   2.072   4.669
 5047TIP3    H115084   4.031   2.099   4.748
 5047TIP3    H215085   4.000   2.144   4.607
 5048TIP3   OH215086   7.322   2.422   4.215
 5048TIP3    H115087   7.387   2.356   4.190
 5048TIP3    H215088   7.270   2.435   4.137
 5049TIP3   OH215089   8.045   7.240   2.879
 5049TIP3    H115090   7.983   7.307   2.847
 5049TIP3    H215091   8.131   7.281   2.870
 5050TIP3   OH215092   6.671   6.292   5.101
 5050TIP3    H115093   6.697   6.359   5.164
 5050TIP3    H215094   6.708   6.211   5.135
 5051TIP3   OH215095   1.239   7.069   3.002
 5051TIP3    H115096   1.235   7.165   3.000
 5051TIP3    H215097   1.298   7.049   3.074
 5052TIP3   OH215098   7.268   1.034   2.954
 5052TIP3    H115099   7.272   1.081   3.037
 5052TIP3    H215100   7.240   1.100   2.891
 5053TIP3   OH215101   0.971   5.718   0.494
 5053TIP3    H115102   1.044   5.775   0.517
 5053TIP3    H215103   0.897   5.777   0.480
 5054TIP3   OH215104   0.269   6.820   6.619
 5054TIP3    H115105   0.215   6.886   6.662
 5054TIP3    H215106   0.315   6.869   6.550
 5055TIP3   OH215107   7.659   2.368   3.554
 5055TIP3    H115108   7.567   2.353   3.531
 5055TIP3    H215109   7.663   2.462   3.571
 5056TIP3   OH215110   1.224   5.643   1.492
 5056TIP3    H115111   1.237   5.737   1.501
 5056TIP3    H215112   1.279   5.618   1.419
 5057TIP3   OH215113   3.946   6.769   5.691
 5057TIP3    H115114   4.016   6.780   5.755
 5057TIP3    H215115   3.962   6.838   5.626
 5058TIP3   OH215116   7.748   1.816   6.611
 5058TIP3    H115117   7.793   1.875   6.551
 5058TIP3    H215118   7.695   1.873   6.665
 5059TIP3   OH215119   6.984   7.460   3.418
 5059TIP3    H115120   6.904   7.420   3.452
 5059TIP3    H215121   6.956   7.547   3.388
 5060TIP3   OH215122   5.173   3.548   2.995
 5060TIP3    H115123   5.167   3.581   3.085
 5060TIP3    H215124   5.232   3.473   3.002
 5061TIP3   OH215125   5.379   0.525   6.291
 5061TIP3    H115126   5.475   0.527   6.297
 5061TIP3    H215127   5.354   0.443   6.332
 5062TIP3   OH215128   4.635   6.181   4.476
 5062TIP3    H115129   4.681   6.224   4.405
 5062TIP3    H215130   4.569   6.127   4.432
 5063TIP3   OH215131   8.050   2.071   4.864
 5063TIP3    H115132   8.000   2.128   4.922
 5063TIP3    H215133   7.984   2.021   4.816
 5064TIP3   OH215134   0.538   1.669   3.693
 5064TIP3    H115135   0.552   1.697   3.784
 5064TIP3    H215136   0.625   1.644   3.663
 5065TIP3   OH215137   3.126   7.487   1.118
 5065TIP3    H115138   3.221   7.486   1.129
 5065TIP3    H215139   3.107   7.411   1.063
 5066TIP3   OH215140   0.255   5.570   4.920
 5066TIP3    H115141   0.323   5.635   4.937
 5066TIP3    H215142   0.299   5.502   4.869
 5067TIP3   OH215143   2.856   0.832   5.613
 5067TIP3    H115144   2.780   0.855   5.666
 5067TIP3    H215145   2.819   0.809   5.528
 5068TIP3   OH215146   6.002   7.048   4.917
 5068TIP3    H115147   6.098   7.041   4.924
 5068TIP3    H215148   5.981   7.129   4.964
 5069TIP3   OH215149   6.759   5.554   1.327
 5069TIP3    H115150   6.814   5.534   1.403
 5069TIP3    H215151   6.819   5.591   1.263
 5070TIP3   OH215152   5.094   2.067   3.706
 5070TIP3    H115153   5.127   1.980   3.686
 5070TIP3    H215154   5.058   2.060   3.794
 5071TIP3   OH215155   5.764   6.351   1.154
 5071TIP3    H115156   5.776   6.437   1.194
 5071TIP3    H215157   5.847   6.333   1.110
 5072TIP3   OH215158   6.091   0.674   4.196
 5072TIP3    H115159   5.996   0.682   4.206
 5072TIP3    H215160   6.111   0.724   4.117
 5073TIP3   OH215161   6.713   5.348   5.912
 5073TIP3    H115162   6.684   5.400   5.987
 5073TIP3    H215163   6.808   5.352   5.915
 5074TIP3   OH215164   3.182   0.773   4.584
 5074TIP3    H115165   3.178   0.768   4.679
 5074TIP3    H215166   3.147   0.860   4.563
 5075TIP3   OH215167   3.702   4.450   1.716
 5075TIP3    H115168   3.738   4.539   1.715
 5075TIP3    H215169   3.734   4.412   1.797
 5076TIP3   OH215170   3.874   6.088   2.255
 5076TIP3    H115171   3.837   6.144   2.187
 5076TIP3    H215172   3.936   6.144   2.301
 5077TIP3   OH215173   8.243   6.007   0.772
 5077TIP3    H115174   8.180   6.070   0.807
 5077TIP3    H215175   8.247   5.938   0.839
 5078TIP3   OH215176   6.844   4.557   6.737
 5078TIP3    H115177   6.898   4.584   6.662
 5078TIP3    H215178   6.804   4.638   6.768
 5079TIP3   OH215179   6.092   5.287   4.230
 5079TIP3    H115180   6.029   5.347   4.189
 5079TIP3    H215181   6.108   5.324   4.317
 5080TIP3   OH215182   6.970   6.887   4.270
 5080TIP3    H115183   7.040   6.951   4.270
 5080TIP3    H215184   7.002   6.817   4.213
 5081TIP3   OH215185   7.894   5.399   1.673
 5081TIP3    H115186   7.900   5.407   1.578
 5081TIP3    H215187   7.801   5.389   1.691
 5082TIP3   OH215188   2.609   2.073   4.968
 5082TIP3    H115189   2.582   2.075   4.876
 5082TIP3    H215190   2.704   2.060   4.965
 5083TIP3   OH215191   0.368   3.750   2.504
 5083TIP3    H115192   0.277   3.720   2.515
 5083TIP3    H215193   0.374   3.773   2.411
 5084TIP3   OH215194   2.309   0.304   0.140
 5084TIP3    H115195   2.246   0.260   0.195
 5084TIP3    H215196   2.362   0.234   0.102
 5085TIP3   OH215197   7.181   2.535   0.784
 5085TIP3    H115198   7.244   2.591   0.738
 5085TIP3    H215199   7.157   2.586   0.862
 5086TIP3   OH215200   4.969   2.943   0.996
 5086TIP3    H115201   5.014   3.027   1.006
 5086TIP3    H215202   4.877   2.967   0.982
 5087TIP3   OH215203   3.791   2.470   1.985
 5087TIP3    H115204   3.799   2.542   2.047
 5087TIP3    H215205   3.877   2.463   1.945
 5088TIP3   OH215206   2.288   7.703   2.611
 5088TIP3    H115207   2.333   7.766   2.668
 5088TIP3    H215208   2.293   7.743   2.524
 5089TIP3   OH215209   5.386   5.085   5.651
 5089TIP3    H115210   5.315   5.021   5.654
 5089TIP3    H215211   5.445   5.059   5.721
 5090TIP3   OH215212   7.815   4.615   6.377
 5090TIP3    H115213   7.865   4.629   6.457
 5090TIP3    H215214   7.748   4.552   6.401
 5091TIP3   OH215215   2.657   6.828   0.481
 5091TIP3    H115216   2.573   6.845   0.437
 5091TIP3    H215217   2.722   6.838   0.412
 5092TIP3   OH215218   1.524   3.293   4.860
 5092TIP3    H115219   1.573   3.368   4.893
 5092TIP3    H215220   1.462   3.272   4.930
 5093TIP3   OH215221   3.167   7.261   2.886
 5093TIP3    H115222   3.188   7.204   2.813
 5093TIP3    H215223   3.082   7.300   2.863
 5094TIP3   OH215224   7.177   5.269   0.348
 5094TIP3    H115225   7.201   5.308   0.431
 5094TIP3    H215226   7.100   5.318   0.319
 5095TIP3   OH215227   1.490   2.327   2.408
 5095TIP3    H115228   1.473   2.326   2.502
 5095TIP3    H215229   1.502   2.234   2.385
 5096TIP3   OH215230   2.635   4.885   5.253
 5096TIP3    H115231   2.713   4.855   5.300
 5096TIP3    H215232   2.609   4.965   5.299
 5097TIP3   OH215233   2.256   3.422   3.046
 5097TIP3    H115234   2.212   3.347   3.086
 5097TIP3    H215235   2.200   3.497   3.065
 5098TIP3   OH215236   1.115   7.288   6.769
 5098TIP3    H115237   1.053   7.329   6.709
 5098TIP3    H215238   1.145   7.358   6.826
 5099TIP3   OH215239   1.483   0.367   0.724
 5099TIP3    H115240   1.401   0.410   0.749
 5099TIP3    H215241   1.506   0.407   0.640
 5100TIP3   OH215242   3.355   1.568   4.521
 5100TIP3    H115243   3.429   1.508   4.531
 5100TIP3    H215244   3.389   1.653   4.552
 5101TIP3   OH215245   3.821   2.109   4.083
 5101TIP3    H115246   3.764   2.157   4.143
 5101TIP3    H215247   3.854   2.176   4.023
 5102TIP3   OH215248   4.883   1.341   0.256
 5102TIP3    H115249   4.907   1.323   0.347
 5102TIP3    H215250   4.965   1.329   0.207
 5103TIP3   OH215251   6.704   2.373   5.336
 5103TIP3    H115252   6.760   2.412   5.403
 5103TIP3    H215253   6.742   2.287   5.319
 5104TIP3   OH215254   2.426   3.163   2.764
 5104TIP3    H115255   2.381   3.223   2.705
 5104TIP3    H215256   2.356   3.117   2.810
 5105TIP3   OH215257   6.543   0.426   6.373
 5105TIP3    H115258   6.611   0.434   6.441
 5105TIP3    H215259   6.533   0.332   6.360
 5106TIP3   OH215260   6.970   2.906   1.180
 5106TIP3    H115261   6.898   2.965   1.159
 5106TIP3    H215262   7.046   2.963   1.188
 5107TIP3   OH215263   5.851   2.727   0.659
 5107TIP3    H115264   5.928   2.756   0.707
 5107TIP3    H215265   5.874   2.740   0.567
 5108TIP3   OH215266   1.826   0.269   5.240
 5108TIP3    H115267   1.770   0.339   5.272
 5108TIP3    H215268   1.766   0.196   5.224
 5109TIP3   OH215269   4.960   2.625   0.891
 5109TIP3    H115270   4.866   2.640   0.880
 5109TIP3    H215271   5.001   2.694   0.838
 5110TIP3   OH215272   1.862   4.367   3.532
 5110TIP3    H115273   1.896   4.321   3.456
 5110TIP3    H215274   1.810   4.301   3.579
 5111TIP3   OH215275   1.091   6.932   1.899
 5111TIP3    H115276   1.022   6.916   1.963
 5111TIP3    H215277   1.044   6.959   1.820
 5112TIP3   OH215278   1.524   4.602   3.687
 5112TIP3    H115279   1.611   4.642   3.693
 5112TIP3    H215280   1.527   4.529   3.749
 5113TIP3   OH215281  -0.017   0.814   6.643
 5113TIP3    H115282   0.065   0.829   6.596
 5113TIP3    H215283   0.006   0.826   6.736
 5114TIP3   OH215284   5.870   0.946   6.614
 5114TIP3    H115285   5.783   0.951   6.654
 5114TIP3    H215286   5.930   0.935   6.688
 5115TIP3   OH215287   3.646   7.263   3.614
 5115TIP3    H115288   3.724   7.301   3.574
 5115TIP3    H215289   3.645   7.173   3.584
 5116TIP3   OH215290   1.601   1.478   2.743
 5116TIP3    H115291   1.524   1.487   2.688
 5116TIP3    H215292   1.580   1.527   2.823
 5117TIP3   OH215293   3.326   7.651   2.413
 5117TIP3    H115294   3.251   7.642   2.354
 5117TIP3    H215295   3.376   7.724   2.377
 5118TIP3   OH215296   4.928   5.355   5.741
 5118TIP3    H115297   4.939   5.398   5.826
 5118TIP3    H215298   4.937   5.262   5.759
 5119TIP3   OH215299   3.134   3.971   3.175
 5119TIP3    H115300   3.167   4.060   3.160
 5119TIP3    H215301   3.111   3.939   3.088
 5120TIP3   OH215302   1.877   6.772   3.099
 5120TIP3    H115303   1.910   6.694   3.054
 5120TIP3    H215304   1.950   6.834   3.097
 5121TIP3   OH215305   8.051   4.619   6.561
 5121TIP3    H115306   8.087   4.588   6.478
 5121TIP3    H215307   8.074   4.551   6.624
 5122TIP3   OH215308   4.412   7.071   3.036
 5122TIP3    H115309   4.375   6.998   3.086
 5122TIP3    H215310   4.340   7.102   2.980
 5123TIP3   OH215311   2.281   5.126   0.849
 5123TIP3    H115312   2.356   5.184   0.832
 5123TIP3    H215313   2.271   5.076   0.768
 5124TIP3   OH215314   2.190   0.437   1.707
 5124TIP3    H115315   2.114   0.421   1.651
 5124TIP3    H215316   2.186   0.531   1.726
 5125TIP3   OH215317   1.833   3.932   0.322
 5125TIP3    H115318   1.860   4.020   0.350
 5125TIP3    H215319   1.802   3.945   0.233
 5126TIP3   OH215320   1.396   1.325   3.429
 5126TIP3    H115321   1.347   1.367   3.358
 5126TIP3    H215322   1.487   1.349   3.413
 5127TIP3   OH215323   0.048   7.585   4.469
 5127TIP3    H115324   0.072   7.542   4.550
 5127TIP3    H215325   0.118   7.562   4.407
 5128TIP3   OH215326   6.826   0.626   0.315
 5128TIP3    H115327   6.768   0.672   0.254
 5128TIP3    H215328   6.803   0.534   0.306
 5129TIP3   OH215329   2.304   6.110   2.215
 5129TIP3    H115330   2.290   6.193   2.168
 5129TIP3    H215331   2.253   6.046   2.165
 5130TIP3   OH215332   6.414   0.870   1.845
 5130TIP3    H115333   6.458   0.916   1.773
 5130TIP3    H215334   6.414   0.778   1.818
 5131TIP3   OH215335   2.005   1.964   5.694
 5131TIP3    H115336   1.950   2.042   5.685
 5131TIP3    H215337   2.077   1.978   5.632
 5132TIP3   OH215338   2.294   4.388   4.318
 5132TIP3    H115339   2.313   4.329   4.390
 5132TIP3    H215340   2.287   4.331   4.241
 5133TIP3   OH215341   1.318   4.081   1.348
 5133TIP3    H115342   1.291   3.990   1.337
 5133TIP3    H215343   1.410   4.083   1.320
 5134TIP3   OH215344   2.141   2.821   1.161
 5134TIP3    H115345   2.071   2.756   1.163
 5134TIP3    H215346   2.113   2.883   1.094
 5135TIP3   OH215347   4.173   6.070   5.839
 5135TIP3    H115348   4.094   6.036   5.796
 5135TIP3    H215349   4.232   6.090   5.767
 5136TIP3   OH215350   0.184   4.585   3.016
 5136TIP3    H115351   0.208   4.672   2.986
 5136TIP3    H215352   0.245   4.526   2.972
 5137TIP3   OH215353   0.885   3.854   5.911
 5137TIP3    H115354   0.799   3.896   5.922
 5137TIP3    H215355   0.878   3.773   5.962
 5138TIP3   OH215356   3.335   0.204   0.156
 5138TIP3    H115357   3.376   0.219   0.242
 5138TIP3    H215358   3.375   0.270   0.099
 5139TIP3   OH215359   6.908   4.227   2.217
 5139TIP3    H115360   6.876   4.214   2.128
 5139TIP3    H215361   6.828   4.229   2.271
 5140TIP3   OH215362   6.677   1.436   6.737
 5140TIP3    H115363   6.719   1.460   6.819
 5140TIP3    H215364   6.722   1.356   6.709
 5141TIP3   OH215365   0.138   7.188   4.909
 5141TIP3    H115366   0.062   7.162   4.858
 5141TIP3    H215367   0.157   7.278   4.879
 5142TIP3   OH215368   0.141   6.834   3.107
 5142TIP3    H115369   0.234   6.815   3.091
 5142TIP3    H215370   0.139   6.870   3.196
 5143TIP3   OH215371   3.766   3.555   3.504
 5143TIP3    H115372   3.682   3.597   3.526
 5143TIP3    H215373   3.743   3.492   3.436
 5144TIP3   OH215374   3.754   3.600   3.960
 5144TIP3    H115375   3.814   3.641   3.898
 5144TIP3    H215376   3.801   3.523   3.992
 5145TIP3   OH215377   3.705   7.005   3.539
 5145TIP3    H115378   3.752   6.966   3.465
 5145TIP3    H215379   3.613   6.984   3.522
 5146TIP3   OH215380   2.619   7.045   5.262
 5146TIP3    H115381   2.606   7.032   5.356
 5146TIP3    H215382   2.573   6.971   5.222
 5147TIP3   OH215383   4.088   6.781   4.883
 5147TIP3    H115384   4.115   6.738   4.964
 5147TIP3    H215385   3.994   6.793   4.893
 5148TIP3   OH215386   3.290   6.524   4.477
 5148TIP3    H115387   3.200   6.551   4.498
 5148TIP3    H215388   3.344   6.568   4.543
 5149TIP3   OH215389   5.867   1.399   3.551
 5149TIP3    H115390   5.783   1.386   3.507
 5149TIP3    H215391   5.923   1.329   3.519
 5150TIP3   OH215392   4.166   5.600   6.470
 5150TIP3    H115393   4.135   5.522   6.423
 5150TIP3    H215394   4.174   5.667   6.402
 5151TIP3   OH215395   5.070   6.066   3.122
 5151TIP3    H115396   5.061   6.037   3.213
 5151TIP3    H215397   5.103   5.990   3.075
 5152TIP3   OH215398   0.647   2.923   6.277
 5152TIP3    H115399   0.627   3.006   6.234
 5152TIP3    H215400   0.665   2.862   6.205
 5153TIP3   OH215401   6.652   4.247   1.951
 5153TIP3    H115402   6.740   4.211   1.936
 5153TIP3    H215403   6.593   4.186   1.906
 5154TIP3   OH215404   1.674   2.115   5.423
 5154TIP3    H115405   1.743   2.054   5.395
 5154TIP3    H215406   1.710   2.202   5.403
 5155TIP3   OH215407   2.064   4.888   3.457
 5155TIP3    H115408   2.049   4.877   3.364
 5155TIP3    H215409   2.040   4.804   3.496
 5156TIP3   OH215410   2.525   0.233   2.042
 5156TIP3    H115411   2.487   0.255   1.957
 5156TIP3    H215412   2.522   0.138   2.046
 5157TIP3   OH215413   0.208   5.111   2.223
 5157TIP3    H115414   0.264   5.034   2.238
 5157TIP3    H215415   0.216   5.127   2.129
 5158TIP3   OH215416   2.327   2.618   2.122
 5158TIP3    H115417   2.293   2.688   2.067
 5158TIP3    H215418   2.320   2.653   2.211
 5159TIP3   OH215419   5.107   6.589   1.515
 5159TIP3    H115420   5.113   6.674   1.559
 5159TIP3    H215421   5.118   6.610   1.422
 5160TIP3   OH215422   7.045   3.399   4.796
 5160TIP3    H115423   7.115   3.357   4.846
 5160TIP3    H215424   7.076   3.395   4.705
 5161TIP3   OH215425   0.151   5.846   6.053
 5161TIP3    H115426   0.098   5.905   6.107
 5161TIP3    H215427   0.198   5.791   6.115
 5162TIP3   OH215428   7.136   6.083   1.250
 5162TIP3    H115429   7.191   6.161   1.260
 5162TIP3    H215430   7.158   6.050   1.163
 5163TIP3   OH215431   6.207   3.805   4.628
 5163TIP3    H115432   6.300   3.825   4.614
 5163TIP3    H215433   6.161   3.869   4.574
 5164TIP3   OH215434   3.622   3.379   4.801
 5164TIP3    H115435   3.576   3.463   4.804
 5164TIP3    H215436   3.639   3.358   4.893
 5165TIP3   OH215437   4.658   5.539   4.258
 5165TIP3    H115438   4.638   5.538   4.352
 5165TIP3    H215439   4.745   5.500   4.252
 5166TIP3   OH215440   4.844   7.306   2.091
 5166TIP3    H115441   4.822   7.298   2.184
 5166TIP3    H215442   4.824   7.220   2.054
 5167TIP3   OH215443   8.226   5.875   2.018
 5167TIP3    H115444   8.309   5.923   2.023
 5167TIP3    H215445   8.253   5.785   2.001
 5168TIP3   OH215446   5.186   2.046   1.248
 5168TIP3    H115447   5.209   2.058   1.156
 5168TIP3    H215448   5.215   2.127   1.290
 5169TIP3   OH215449   5.795   3.093   3.648
 5169TIP3    H115450   5.725   3.079   3.711
 5169TIP3    H215451   5.875   3.069   3.695
 5170TIP3   OH215452   3.228   1.085   3.766
 5170TIP3    H115453   3.215   1.179   3.777
 5170TIP3    H215454   3.246   1.075   3.672
 5171TIP3   OH215455   6.519   2.973   5.866
 5171TIP3    H115456   6.444   3.031   5.855
 5171TIP3    H215457   6.487   2.901   5.920
 5172TIP3   OH215458   5.434   3.089   6.644
 5172TIP3    H115459   5.395   3.139   6.716
 5172TIP3    H215460   5.367   3.090   6.576
 5173TIP3   OH215461   1.005   1.876   4.016
 5173TIP3    H115462   1.042   1.789   4.029
 5173TIP3    H215463   1.070   1.936   4.053
 5174TIP3   OH215464   0.049   5.006   6.350
 5174TIP3    H115465   0.124   5.039   6.399
 5174TIP3    H215466   0.039   4.915   6.379
 5175TIP3   OH215467   3.613   4.042   5.346
 5175TIP3    H115468   3.605   3.963   5.400
 5175TIP3    H215469   3.619   4.113   5.409
 5176TIP3   OH215470   6.454   3.088   4.977
 5176TIP3    H115471   6.489   3.012   5.023
 5176TIP3    H215472   6.402   3.134   5.042
 5177TIP3   OH215473   8.248   5.964   0.218
 5177TIP3    H115474   8.218   5.993   0.131
 5177TIP3    H215475   8.235   6.041   0.273
 5178TIP3   OH215476   4.013   2.673   4.197
 5178TIP3    H115477   3.958   2.667   4.118
 5178TIP3    H215478   3.971   2.613   4.259
 5179TIP3   OH215479   6.564   7.429   4.643
 5179TIP3    H115480   6.487   7.452   4.694
 5179TIP3    H215481   6.547   7.340   4.612
 5180TIP3   OH215482   2.186   5.287   5.962
 5180TIP3    H115483   2.235   5.355   6.009
 5180TIP3    H215484   2.249   5.217   5.949
 5181TIP3   OH215485   3.305   2.806   6.051
 5181TIP3    H115486   3.241   2.840   5.988
 5181TIP3    H215487   3.359   2.746   6.000
 5182TIP3   OH215488   7.698   7.281   4.628
 5182TIP3    H115489   7.724   7.293   4.536
 5182TIP3    H215490   7.603   7.282   4.626
 5183TIP3   OH215491   8.259   5.255   4.575
 5183TIP3    H115492   8.223   5.226   4.659
 5183TIP3    H215493   8.181   5.274   4.522
 5184TIP3   OH215494   0.982   1.002   3.310
 5184TIP3    H115495   1.054   1.059   3.337
 5184TIP3    H215496   1.022   0.938   3.251
 5185TIP3   OH215497   4.389   6.938   0.604
 5185TIP3    H115498   4.420   6.852   0.633
 5185TIP3    H215499   4.336   6.970   0.677
 5186TIP3   OH215500   6.525   3.743   0.639
 5186TIP3    H115501   6.610   3.699   0.640
 5186TIP3    H215502   6.517   3.782   0.726
 5187TIP3   OH215503   7.866   0.369   1.685
 5187TIP3    H115504   7.921   0.302   1.724
 5187TIP3    H215505   7.922   0.412   1.620
 5188TIP3   OH215506   6.657   3.880   0.859
 5188TIP3    H115507   6.740   3.912   0.822
 5188TIP3    H215508   6.658   3.910   0.950
 5189TIP3   OH215509   2.278   0.113   2.550
 5189TIP3    H115510   2.196   0.096   2.596
 5189TIP3    H215511   2.309   0.027   2.524
 5190TIP3   OH215512   6.869   0.769   2.553
 5190TIP3    H115513   6.890   0.842   2.611
 5190TIP3    H215514   6.871   0.806   2.465
 5191TIP3   OH215515   1.578   1.996   1.797
 5191TIP3    H115516   1.631   1.917   1.785
 5191TIP3    H215517   1.511   1.970   1.859
 5192TIP3   OH215518   0.717   0.329   4.259
 5192TIP3    H115519   0.630   0.358   4.232
 5192TIP3    H215520   0.741   0.262   4.195
 5193TIP3   OH215521   2.195   1.672   3.239
 5193TIP3    H115522   2.255   1.704   3.307
 5193TIP3    H215523   2.231   1.587   3.214
 5194TIP3   OH215524   2.934   1.136   1.119
 5194TIP3    H115525   2.887   1.209   1.079
 5194TIP3    H215526   2.902   1.134   1.209
 5195TIP3   OH215527   8.203   7.585   6.303
 5195TIP3    H115528   8.242   7.511   6.256
 5195TIP3    H215529   8.155   7.634   6.236
 5196TIP3   OH215530   8.251   2.815   2.119
 5196TIP3    H115531   8.336   2.855   2.137
 5196TIP3    H215532   8.255   2.730   2.163
 5197TIP3   OH215533   3.747   3.289   5.117
 5197TIP3    H115534   3.711   3.219   5.064
 5197TIP3    H215535   3.836   3.301   5.084
 5198TIP3   OH215536   6.996   4.773   0.688
 5198TIP3    H115537   6.918   4.827   0.685
 5198TIP3    H215538   7.052   4.807   0.618
 5199TIP3   OH215539   7.507   5.329   2.351
 5199TIP3    H115540   7.571   5.258   2.345
 5199TIP3    H215541   7.558   5.409   2.339
 5200TIP3   OH215542   5.632   3.541   2.265
 5200TIP3    H115543   5.685   3.599   2.319
 5200TIP3    H215544   5.694   3.502   2.203
 5201TIP3   OH215545   7.891   1.918   0.593
 5201TIP3    H115546   7.855   1.924   0.682
 5201TIP3    H215547   7.813   1.917   0.537
 5202TIP3   OH215548   7.494   2.181   5.901
 5202TIP3    H115549   7.558   2.117   5.932
 5202TIP3    H215550   7.540   2.229   5.832
 5203TIP3   OH215551   4.261   2.929   0.631
 5203TIP3    H115552   4.336   2.886   0.589
 5203TIP3    H215553   4.299   2.979   0.703
 5204TIP3   OH215554   7.599   0.211   1.557
 5204TIP3    H115555   7.644   0.257   1.486
 5204TIP3    H215556   7.525   0.268   1.580
 5205TIP3   OH215557   3.551   4.038   4.713
 5205TIP3    H115558   3.512   3.963   4.667
 5205TIP3    H215559   3.549   4.013   4.805
 5206TIP3   OH215560   4.000   4.167   5.561
 5206TIP3    H115561   3.979   4.173   5.468
 5206TIP3    H215562   4.096   4.164   5.564
 5207TIP3   OH215563   0.462   3.245   4.043
 5207TIP3    H115564   0.459   3.242   4.139
 5207TIP3    H215565   0.548   3.209   4.021
 5208TIP3   OH215566   4.331   6.509   3.770
 5208TIP3    H115567   4.242   6.513   3.737
 5208TIP3    H215568   4.321   6.496   3.865
 5209TIP3   OH215569   2.239   3.261   6.361
 5209TIP3    H115570   2.220   3.331   6.423
 5209TIP3    H215571   2.324   3.285   6.323
 5210TIP3   OH215572   2.359   0.597   1.122
 5210TIP3    H115573   2.311   0.673   1.088
 5210TIP3    H215574   2.334   0.525   1.066
 5211TIP3   OH215575   6.686   6.550   0.290
 5211TIP3    H115576   6.634   6.520   0.215
 5211TIP3    H215577   6.620   6.581   0.353
 5212TIP3   OH215578   6.094   7.046   1.688
 5212TIP3    H115579   6.164   7.020   1.748
 5212TIP3    H215580   6.130   7.032   1.601
 5213TIP3   OH215581   0.129   3.951   5.948
 5213TIP3    H115582   0.102   3.935   6.038
 5213TIP3    H215583   0.215   3.993   5.955
 5214TIP3   OH215584   6.424   5.342   4.584
 5214TIP3    H115585   6.397   5.290   4.660
 5214TIP3    H215586   6.343   5.362   4.538
 5215TIP3   OH215587   7.798   0.615   1.072
 5215TIP3    H115588   7.796   0.564   0.991
 5215TIP3    H215589   7.891   0.634   1.086
 5216TIP3   OH215590   2.582   2.161   6.428
 5216TIP3    H115591   2.528   2.120   6.361
 5216TIP3    H215592   2.608   2.088   6.486
 5217TIP3   OH215593   8.300   5.371   6.417
 5217TIP3    H115594   8.303   5.352   6.511
 5217TIP3    H215595   8.269   5.290   6.378
 5218TIP3   OH215596   4.490   0.929   1.149
 5218TIP3    H115597   4.543   0.852   1.168
 5218TIP3    H215598   4.455   0.955   1.234
 5219TIP3   OH215599   1.937   4.253   1.913
 5219TIP3    H115600   1.977   4.211   1.988
 5219TIP3    H215601   1.928   4.345   1.939
 5220TIP3   OH215602   7.208   1.718   2.986
 5220TIP3    H115603   7.194   1.661   3.062
 5220TIP3    H215604   7.224   1.804   3.023
 5221TIP3   OH215605   0.102   3.889   2.624
 5221TIP3    H115606   0.084   3.903   2.532
 5221TIP3    H215607   0.134   3.799   2.629
 5222TIP3   OH215608   5.078   3.218   5.480
 5222TIP3    H115609   5.163   3.254   5.454
 5222TIP3    H215610   5.092   3.124   5.487
 5223TIP3   OH215611   4.350   5.234   4.515
 5223TIP3    H115612   4.275   5.263   4.463
 5223TIP3    H215613   4.345   5.138   4.513
 5224TIP3   OH215614   8.194   5.582   1.962
 5224TIP3    H115615   8.213   5.496   1.924
 5224TIP3    H215616   8.258   5.592   2.032
 5225TIP3   OH215617   4.733   7.094   1.932
 5225TIP3    H115618   4.698   7.104   1.843
 5225TIP3    H215619   4.790   7.018   1.928
 5226TIP3   OH215620   3.066   5.396   3.209
 5226TIP3    H115621   3.122   5.347   3.270
 5226TIP3    H215622   3.078   5.488   3.234
 5227TIP3   OH215623   7.830   6.973   2.820
 5227TIP3    H115624   7.921   6.999   2.804
 5227TIP3    H215625   7.798   7.036   2.883
 5228TIP3   OH215626   7.950   3.075   5.973
 5228TIP3    H115627   7.981   3.156   6.015
 5228TIP3    H215628   7.994   3.074   5.888
 5229TIP3   OH215629   2.298   3.864   3.282
 5229TIP3    H115630   2.384   3.822   3.279
 5229TIP3    H215631   2.316   3.958   3.276
 5230TIP3   OH215632   0.436   5.399   6.747
 5230TIP3    H115633   0.420   5.483   6.790
 5230TIP3    H215634   0.532   5.391   6.745
 5231TIP3   OH215635   0.930   2.039   2.690
 5231TIP3    H115636   0.885   1.960   2.719
 5231TIP3    H215637   0.866   2.109   2.700
 5232TIP3   OH215638   1.920   4.443   2.480
 5232TIP3    H115639   1.881   4.487   2.556
 5232TIP3    H215640   1.902   4.350   2.495
 5233TIP3   OH215641   0.996   7.714   3.228
 5233TIP3    H115642   0.931   7.695   3.296
 5233TIP3    H215643   1.069   7.754   3.275
 5234TIP3   OH215644   7.077   4.277   1.188
 5234TIP3    H115645   7.049   4.192   1.222
 5234TIP3    H215646   7.076   4.335   1.264
 5235TIP3   OH215647   6.514   5.378   1.860
 5235TIP3    H115648   6.555   5.313   1.917
 5235TIP3    H215649   6.451   5.329   1.808
 5236TIP3   OH215650   3.616   0.833   4.970
 5236TIP3    H115651   3.657   0.807   5.053
 5236TIP3    H215652   3.688   0.841   4.908
 5237TIP3   OH215653   5.796   4.908   1.742
 5237TIP3    H115654   5.719   4.898   1.798
 5237TIP3    H215655   5.795   5.001   1.718
 5238TIP3   OH215656   6.937   6.883   3.748
 5238TIP3    H115657   6.934   6.882   3.653
 5238TIP3    H215658   6.985   6.962   3.770
 5239TIP3   OH215659   5.760   6.385   4.817
 5239TIP3    H115660   5.715   6.461   4.854
 5239TIP3    H215661   5.842   6.379   4.865
 5240TIP3   OH215662   4.628   6.410   4.034
 5240TIP3    H115663   4.534   6.396   4.042
 5240TIP3    H215664   4.658   6.338   3.978
 5241TIP3   OH215665   0.904   1.232   1.887
 5241TIP3    H115666   0.924   1.139   1.876
 5241TIP3    H215667   0.987   1.272   1.912
 5242TIP3   OH215668   6.120   5.682   4.683
 5242TIP3    H115669   6.124   5.755   4.621
 5242TIP3    H215670   6.029   5.680   4.712
 5243TIP3   OH215671   2.824   4.105   0.241
 5243TIP3    H115672   2.829   4.044   0.315
 5243TIP3    H215673   2.805   4.190   0.282
 5244TIP3   OH215674   0.839   3.214  -0.025
 5244TIP3    H115675   0.874   3.299   0.000
 5244TIP3    H215676   0.878   3.153   0.037
 5245TIP3   OH215677   7.356   5.132   4.925
 5245TIP3    H115678   7.431   5.111   4.870
 5245TIP3    H215679   7.280   5.112   4.871
 5246TIP3   OH215680   6.060   5.053   1.670
 5246TIP3    H115681   5.980   5.004   1.693
 5246TIP3    H215682   6.040   5.093   1.586
 5247TIP3   OH215683   2.993   3.837   4.964
 5247TIP3    H115684   3.011   3.879   5.048
 5247TIP3    H215685   3.016   3.745   4.978
 5248TIP3   OH215686   3.154   5.475   2.788
 5248TIP3    H115687   3.217   5.428   2.734
 5248TIP3    H215688   3.194   5.561   2.802
 5249TIP3   OH215689   0.644   2.807   4.103
 5249TIP3    H115690   0.677   2.791   4.014
 5249TIP3    H215691   0.549   2.814   4.092
 5250TIP3   OH215692   4.918   4.920   0.101
 5250TIP3    H115693   4.952   5.005   0.132
 5250TIP3    H215694   4.982   4.892   0.036
 5251TIP3   OH215695   7.779   5.274   3.235
 5251TIP3    H115696   7.743   5.188   3.254
 5251TIP3    H215697   7.813   5.267   3.146
 5252TIP3   OH215698   7.658   2.446   4.757
 5252TIP3    H115699   7.724   2.386   4.722
 5252TIP3    H215700   7.679   2.453   4.850
 5253TIP3   OH215701   6.660   7.130   6.580
 5253TIP3    H115702   6.745   7.170   6.599
 5253TIP3    H215703   6.598   7.203   6.586
 5254TIP3   OH215704   3.063   5.559   6.609
 5254TIP3    H115705   3.155   5.553   6.582
 5254TIP3    H215706   3.018   5.594   6.533
 5255TIP3   OH215707   4.979   2.715   3.597
 5255TIP3    H115708   4.889   2.735   3.570
 5255TIP3    H215709   4.974   2.625   3.630
 5256TIP3   OH215710   7.673   0.772   6.027
 5256TIP3    H115711   7.685   0.805   5.938
 5256TIP3    H215712   7.596   0.716   6.023
 5257TIP3   OH215713   4.320   5.350   0.877
 5257TIP3    H115714   4.290   5.385   0.961
 5257TIP3    H215715   4.266   5.394   0.811
 5258TIP3   OH215716   1.414   5.383   5.355
 5258TIP3    H115717   1.403   5.369   5.449
 5258TIP3    H215718   1.495   5.337   5.333
 5259TIP3   OH215719   2.818   7.776   1.388
 5259TIP3    H115720   2.911   7.792   1.405
 5259TIP3    H215721   2.797   7.834   1.314
 5260TIP3   OH215722   2.695   0.492   3.480
 5260TIP3    H115723   2.776   0.541   3.464
 5260TIP3    H215724   2.625   0.551   3.451
 5261TIP3   OH215725   6.682   4.702   4.261
 5261TIP3    H115726   6.650   4.695   4.351
 5261TIP3    H215727   6.778   4.705   4.270
 5262TIP3   OH215728   0.047   3.059   0.465
 5262TIP3    H115729   0.092   2.979   0.493
 5262TIP3    H215730   0.117   3.114   0.430
 5263TIP3   OH215731   6.155   0.767   4.693
 5263TIP3    H115732   6.191   0.854   4.672
 5263TIP3    H215733   6.232   0.711   4.703
 5264TIP3   OH215734   1.981   4.274   5.833
 5264TIP3    H115735   1.890   4.285   5.809
 5264TIP3    H215736   1.978   4.247   5.925
 5265TIP3   OH215737   5.933   3.351   3.008
 5265TIP3    H115738   5.874   3.289   2.966
 5265TIP3    H215739   6.002   3.296   3.045
 5266TIP3   OH215740   1.734   0.288   2.149
 5266TIP3    H115741   1.713   0.208   2.197
 5266TIP3    H215742   1.807   0.264   2.092
 5267TIP3   OH215743   6.872   6.296   5.844
 5267TIP3    H115744   6.903   6.355   5.775
 5267TIP3    H215745   6.776   6.301   5.837
 5268TIP3   OH215746   2.254   1.033   2.842
 5268TIP3    H115747   2.346   1.042   2.869
 5268TIP3    H215748   2.204   1.054   2.920
 5269TIP3   OH215749   3.972   3.643   2.378
 5269TIP3    H115750   3.972   3.737   2.362
 5269TIP3    H215751   4.050   3.627   2.431
 5270TIP3   OH215752   1.902   3.520   3.370
 5270TIP3    H115753   1.961   3.450   3.397
 5270TIP3    H215754   1.903   3.581   3.443
 5271TIP3   OH215755   5.112   4.662   6.155
 5271TIP3    H115756   5.120   4.746   6.200
 5271TIP3    H215757   5.198   4.649   6.114
 5272TIP3   OH215758   7.191   1.321   2.424
 5272TIP3    H115759   7.106   1.278   2.423
 5272TIP3    H215760   7.184   1.388   2.491
 5273TIP3   OH215761   5.663   3.086   1.152
 5273TIP3    H115762   5.716   3.164   1.165
 5273TIP3    H215763   5.691   3.052   1.067
 5274TIP3   OH215764   4.410   4.856   3.426
 5274TIP3    H115765   4.436   4.795   3.357
 5274TIP3    H215766   4.448   4.819   3.506
 5275TIP3   OH215767   6.494   2.712   5.681
 5275TIP3    H115768   6.477   2.713   5.775
 5275TIP3    H215769   6.416   2.672   5.643
 5276TIP3   OH215770   7.440   3.920   5.761
 5276TIP3    H115771   7.479   3.836   5.785
 5276TIP3    H215772   7.484   3.944   5.679
 5277TIP3   OH215773   3.712   3.891   5.884
 5277TIP3    H115774   3.784   3.879   5.946
 5277TIP3    H215775   3.751   3.940   5.811
 5278TIP3   OH215776   3.766   1.244   1.054
 5278TIP3    H115777   3.860   1.260   1.067
 5278TIP3    H215778   3.734   1.224   1.142
 5279TIP3   OH215779   7.806   2.920   1.235
 5279TIP3    H115780   7.724   2.950   1.273
 5279TIP3    H215781   7.813   2.966   1.152
 5280TIP3   OH215782   6.604   2.948   4.025
 5280TIP3    H115783   6.663   2.915   4.092
 5280TIP3    H215784   6.657   2.948   3.945
 5281TIP3   OH215785   7.782   7.220   2.436
 5281TIP3    H115786   7.787   7.248   2.528
 5281TIP3    H215787   7.873   7.202   2.412
 5282TIP3   OH215788   7.021   0.794   6.712
 5282TIP3    H115789   6.931   0.825   6.704
 5282TIP3    H215790   7.067   0.866   6.756
 5283TIP3   OH215791   3.219   4.875   1.477
 5283TIP3    H115792   3.132   4.856   1.441
 5283TIP3    H215793   3.225   4.820   1.555
 5284TIP3   OH215794   1.420   3.220   1.436
 5284TIP3    H115795   1.395   3.309   1.409
 5284TIP3    H215796   1.445   3.230   1.528
 5285TIP3   OH215797   7.040   5.835   0.004
 5285TIP3    H115798   7.098   5.761   0.021
 5285TIP3    H215799   7.057   5.895   0.076
 5286TIP3   OH215800   2.189   4.951   1.266
 5286TIP3    H115801   2.239   4.945   1.184
 5286TIP3    H215802   2.241   5.008   1.322
 5287TIP3   OH215803   0.233   0.208   2.710
 5287TIP3    H115804   0.210   0.270   2.779
 5287TIP3    H215805   0.307   0.159   2.746
 5288TIP3   OH215806   4.689   6.012   3.513
 5288TIP3    H115807   4.681   5.996   3.420
 5288TIP3    H215808   4.622   5.958   3.553
 5289TIP3   OH215809   1.493   7.054   2.844
 5289TIP3    H115810   1.427   7.027   2.908
 5289TIP3    H215811   1.483   7.149   2.838
 5290TIP3   OH215812   0.913   1.393   3.235
 5290TIP3    H115813   0.841   1.441   3.276
 5290TIP3    H215814   0.870   1.332   3.175
 5291TIP3   OH215815   5.858   6.647   5.418
 5291TIP3    H115816   5.787   6.593   5.384
 5291TIP3    H215817   5.928   6.639   5.353
 5292TIP3   OH215818   0.680   0.365   0.851
 5292TIP3    H115819   0.744   0.302   0.819
 5292TIP3    H215820   0.596   0.318   0.850
 5293TIP3   OH215821   1.261   7.117   4.993
 5293TIP3    H115822   1.328   7.049   4.990
 5293TIP3    H215823   1.203   7.091   5.065
 5294TIP3   OH215824   5.432   5.641   6.670
 5294TIP3    H115825   5.403   5.550   6.669
 5294TIP3    H215826   5.428   5.666   6.763
 5295TIP3   OH215827   5.925   6.856   3.051
 5295TIP3    H115828   5.911   6.919   2.980
 5295TIP3    H215829   5.842   6.808   3.057
 5296TIP3   OH215830   2.768   3.870   2.358
 5296TIP3    H115831   2.858   3.842   2.341
 5296TIP3    H215832   2.732   3.801   2.414
 5297TIP3   OH215833   7.910   0.145   2.279
 5297TIP3    H115834   7.953   0.223   2.315
 5297TIP3    H215835   7.863   0.107   2.354
 5298TIP3   OH215836   6.119   5.815   5.305
 5298TIP3    H115837   6.031   5.841   5.278
 5298TIP3    H215838   6.174   5.892   5.290
 5299TIP3   OH215839   1.935   0.398   1.546
 5299TIP3    H115840   1.892   0.325   1.590
 5299TIP3    H215841   1.982   0.357   1.473
 5300TIP3   OH215842   7.380   6.822   2.487
 5300TIP3    H115843   7.350   6.888   2.424
 5300TIP3    H215844   7.432   6.761   2.434
 5301TIP3   OH215845   7.663   6.636   3.880
 5301TIP3    H115846   7.738   6.637   3.939
 5301TIP3    H215847   7.697   6.598   3.799
 5302TIP3   OH215848   0.908   5.748   6.435
 5302TIP3    H115849   0.950   5.665   6.411
 5302TIP3    H215850   0.978   5.801   6.471
 5303TIP3   OH215851   7.772   1.700   0.854
 5303TIP3    H115852   7.765   1.644   0.777
 5303TIP3    H215853   7.700   1.763   0.844
 5304TIP3   OH215854   1.511   5.410   3.202
 5304TIP3    H115855   1.567   5.410   3.124
 5304TIP3    H215856   1.422   5.407   3.168
 5305TIP3   OH215857   3.922   1.094   4.367
 5305TIP3    H115858   3.910   1.189   4.357
 5305TIP3    H215859   3.918   1.061   4.277
 5306TIP3   OH215860   6.412   5.012   0.657
 5306TIP3    H115861   6.373   5.065   0.727
 5306TIP3    H215862   6.497   4.986   0.692
 5307TIP3   OH215863   3.405   4.493   3.114
 5307TIP3    H115864   3.351   4.498   3.034
 5307TIP3    H215865   3.451   4.576   3.118
 5308TIP3   OH215866   8.250   4.178   2.361
 5308TIP3    H115867   8.281   4.087   2.364
 5308TIP3    H215868   8.322   4.226   2.319
 5309TIP3   OH215869   0.530   6.334   5.965
 5309TIP3    H115870   0.569   6.321   5.879
 5309TIP3    H215871   0.437   6.347   5.949
 5310TIP3   OH215872   6.683   6.896   3.866
 5310TIP3    H115873   6.698   6.923   3.956
 5310TIP3    H215874   6.766   6.911   3.822
 5311TIP3   OH215875   2.773   6.748   1.049
 5311TIP3    H115876   2.859   6.780   1.076
 5311TIP3    H215877   2.752   6.800   0.972
 5312TIP3   OH215878   5.119   5.601   4.704
 5312TIP3    H115879   5.098   5.691   4.677
 5312TIP3    H215880   5.056   5.547   4.657
 5313TIP3   OH215881   3.665   4.227   1.977
 5313TIP3    H115882   3.706   4.236   1.891
 5313TIP3    H215883   3.735   4.195   2.034
 5314TIP3   OH215884   3.813   2.683   0.133
 5314TIP3    H115885   3.866   2.738   0.191
 5314TIP3    H215886   3.786   2.609   0.189
 5315TIP3   OH215887   1.901   3.633   2.114
 5315TIP3    H115888   1.990   3.631   2.079
 5315TIP3    H215889   1.887   3.724   2.140
 5316TIP3   OH215890   4.306   4.266   1.066
 5316TIP3    H115891   4.354   4.328   1.121
 5316TIP3    H215892   4.234   4.317   1.029
 5317TIP3   OH215893   5.289   1.214   3.270
 5317TIP3    H115894   5.331   1.253   3.194
 5317TIP3    H215895   5.358   1.209   3.337
 5318TIP3   OH215896   4.505   6.755   6.344
 5318TIP3    H115897   4.497   6.659   6.340
 5318TIP3    H215898   4.417   6.785   6.368
 5319TIP3   OH215899   1.009   1.316   5.070
 5319TIP3    H115900   1.017   1.243   5.131
 5319TIP3    H215901   1.087   1.310   5.014
 5320TIP3   OH215902   7.876   2.144   3.849
 5320TIP3    H115903   7.842   2.076   3.791
 5320TIP3    H215904   7.873   2.224   3.797
 5321TIP3   OH215905   5.175   6.632   4.849
 5321TIP3    H115906   5.107   6.642   4.783
 5321TIP3    H215907   5.130   6.591   4.924
 5322TIP3   OH215908   6.540   0.889   4.473
 5322TIP3    H115909   6.595   0.967   4.475
 5322TIP3    H215910   6.582   0.831   4.411
 5323TIP3   OH215911   3.034   7.147   3.429
 5323TIP3    H115912   3.084   7.146   3.511
 5323TIP3    H215913   3.101   7.149   3.361
 5324TIP3   OH215914   2.184   2.813   0.781
 5324TIP3    H115915   2.179   2.718   0.796
 5324TIP3    H215916   2.142   2.825   0.696
 5325TIP3   OH215917   1.953   1.789   4.790
 5325TIP3    H115918   1.877   1.803   4.735
 5325TIP3    H215919   1.918   1.786   4.879
 5326TIP3   OH215920   2.179   6.428   6.221
 5326TIP3    H115921   2.100   6.391   6.182
 5326TIP3    H215922   2.158   6.438   6.314
 5327TIP3   OH215923   1.100   4.396   5.471
 5327TIP3    H115924   1.064   4.412   5.383
 5327TIP3    H215925   1.192   4.423   5.464
 5328TIP3   OH215926   6.001   6.103   1.397
 5328TIP3    H115927   6.077   6.058   1.436
 5328TIP3    H215928   6.033   6.133   1.311
 5329TIP3   OH215929   5.970   1.537   2.553
 5329TIP3    H115930   6.009   1.539   2.465
 5329TIP3    H215931   6.003   1.616   2.595
 5330TIP3   OH215932   5.689   5.511   2.524
 5330TIP3    H115933   5.774   5.489   2.563
 5330TIP3    H215934   5.643   5.428   2.517
 5331TIP3   OH215935   7.721   6.865   6.173
 5331TIP3    H115936   7.786   6.855   6.104
 5331TIP3    H215937   7.654   6.800   6.153
 5332TIP3   OH215938   4.607   0.156   5.530
 5332TIP3    H115939   4.611   0.065   5.558
 5332TIP3    H215940   4.633   0.206   5.608
 5333TIP3   OH215941   1.672   2.673   0.030
 5333TIP3    H115942   1.646   2.716   0.111
 5333TIP3    H215943   1.608   2.703  -0.035
 5334TIP3   OH215944   7.583   3.875   6.651
 5334TIP3    H115945   7.667   3.861   6.607
 5334TIP3    H215946   7.553   3.960   6.619
 5335TIP3   OH215947   6.173   6.132   3.136
 5335TIP3    H115948   6.204   6.124   3.046
 5335TIP3    H215949   6.177   6.226   3.154
 5336TIP3   OH215950   0.528   4.867   6.381
 5336TIP3    H115951   0.541   4.848   6.474
 5336TIP3    H215952   0.573   4.950   6.367
 5337TIP3   OH215953   3.254   7.627   1.585
 5337TIP3    H115954   3.322   7.565   1.609
 5337TIP3    H215955   3.246   7.685   1.661
 5338TIP3   OH215956   4.104   6.032   3.835
 5338TIP3    H115957   4.108   6.087   3.913
 5338TIP3    H215958   4.058   6.085   3.770
 5339TIP3   OH215959   5.517   0.219   0.243
 5339TIP3    H115960   5.456   0.283   0.208
 5339TIP3    H215961   5.577   0.200   0.170
 5340TIP3   OH215962   2.957   7.022   1.951
 5340TIP3    H115963   2.891   6.964   1.914
 5340TIP3    H215964   2.932   7.031   2.043
 5341TIP3   OH215965   3.079   3.739   3.515
 5341TIP3    H115966   3.086   3.825   3.556
 5341TIP3    H215967   3.034   3.685   3.581
 5342TIP3   OH215968   1.909   5.189   6.075
 5342TIP3    H115969   1.996   5.202   6.038
 5342TIP3    H215970   1.861   5.269   6.054
 5343TIP3   OH215971   3.123   6.539   5.647
 5343TIP3    H115972   3.045   6.594   5.643
 5343TIP3    H215973   3.193   6.598   5.676
 5344TIP3   OH215974   2.377   6.819   0.989
 5344TIP3    H115975   2.399   6.766   1.065
 5344TIP3    H215976   2.303   6.772   0.949
 5345TIP3   OH215977   2.338   5.383   6.192
 5345TIP3    H115978   2.418   5.356   6.237
 5345TIP3    H215979   2.271   5.323   6.224
 5346TIP3   OH215980   4.648   1.853   5.895
 5346TIP3    H115981   4.584   1.921   5.917
 5346TIP3    H215982   4.599   1.790   5.842
 5347TIP3   OH215983   2.801   5.909   2.422
 5347TIP3    H115984   2.814   5.814   2.415
 5347TIP3    H215985   2.804   5.926   2.516
 5348TIP3   OH215986   1.927   0.997   0.474
 5348TIP3    H115987   1.907   0.985   0.566
 5348TIP3    H215988   1.853   0.957   0.428
 5349TIP3   OH215989   6.759   2.017   5.714
 5349TIP3    H115990   6.745   2.064   5.796
 5349TIP3    H215991   6.771   1.926   5.740
 5350TIP3   OH215992   1.443   7.062   2.445
 5350TIP3    H115993   1.535   7.087   2.444
 5350TIP3    H215994   1.442   6.975   2.485
 5351TIP3   OH215995   8.299   2.137   3.039
 5351TIP3    H115996   8.242   2.060   3.035
 5351TIP3    H215997   8.258   2.200   2.980
 5352TIP3   OH215998   0.356   7.686   5.660
 5352TIP3    H115999   0.440   7.657   5.626
 5352TIP3    H216000   0.291   7.636   5.611
 5353TIP3   OH216001   6.914   4.133   1.943
 5353TIP3    H116002   6.953   4.046   1.947
 5353TIP3    H216003   6.972   4.182   1.884
 5354TIP3   OH216004   4.075   5.736   1.533
 5354TIP3    H116005   4.006   5.670   1.524
 5354TIP3    H216006   4.040   5.812   1.487
 5355TIP3   OH216007   0.419   6.346   1.863
 5355TIP3    H116008   0.476   6.271   1.880
 5355TIP3    H216009   0.348   6.337   1.927
 5356TIP3   OH216010   0.715   6.088   5.843
 5356TIP3    H116011   0.640   6.040   5.878
 5356TIP3    H216012   0.678   6.141   5.772
 5357TIP3   OH216013   1.490   4.942   2.759
 5357TIP3    H116014   1.551   4.896   2.816
 5357TIP3    H216015   1.545   4.991   2.698
 5358TIP3   OH216016   3.294   5.761   2.574
 5358TIP3    H116017   3.215   5.773   2.626
 5358TIP3    H216018   3.264   5.719   2.493
 5359TIP3   OH216019   6.548   3.058   3.360
 5359TIP3    H116020   6.593   2.987   3.314
 5359TIP3    H216021   6.618   3.106   3.404
 5360TIP3   OH216022   7.776   7.153   4.316
 5360TIP3    H116023   7.723   7.135   4.239
 5360TIP3    H216024   7.741   7.094   4.383
 5361TIP3   OH216025   5.101   5.394   6.406
 5361TIP3    H116026   5.053   5.415   6.486
 5361TIP3    H216027   5.097   5.474   6.354
 5362TIP3   OH216028   2.626   5.892   0.680
 5362TIP3    H116029   2.639   5.904   0.586
 5362TIP3    H216030   2.699   5.837   0.708
 5363TIP3   OH216031   7.983   6.833   4.871
 5363TIP3    H116032   8.058   6.877   4.913
 5363TIP3    H216033   8.022   6.770   4.812
 5364TIP3   OH216034   4.896   7.755   1.993
 5364TIP3    H116035   4.803   7.770   2.007
 5364TIP3    H216036   4.916   7.799   1.911
 5365TIP3   OH216037   5.499   7.204   3.475
 5365TIP3    H116038   5.511   7.195   3.380
 5365TIP3    H216039   5.511   7.115   3.509
 5366TIP3   OH216040   1.083   0.294   1.159
 5366TIP3    H116041   1.135   0.278   1.238
 5366TIP3    H216042   1.047   0.381   1.171
 5367TIP3   OH216043   4.848   2.214   4.319
 5367TIP3    H116044   4.889   2.287   4.366
 5367TIP3    H216045   4.890   2.214   4.233
 5368TIP3   OH216046   0.424   1.507   0.501
 5368TIP3    H116047   0.352   1.535   0.444
 5368TIP3    H216048   0.464   1.588   0.531
 5369TIP3   OH216049   6.016   7.281   5.061
 5369TIP3    H116050   5.926   7.312   5.051
 5369TIP3    H216051   6.065   7.330   4.996
 5370TIP3   OH216052   6.616   6.653   1.794
 5370TIP3    H116053   6.671   6.648   1.872
 5370TIP3    H216054   6.672   6.691   1.726
 5371TIP3   OH216055   5.617   1.863   6.360
 5371TIP3    H116056   5.693   1.834   6.310
 5371TIP3    H216057   5.606   1.955   6.336
 5372TIP3   OH216058   4.043   3.599   6.221
 5372TIP3    H116059   4.070   3.690   6.211
 5372TIP3    H216060   4.014   3.593   6.312
 5373TIP3   OH216061   7.854   7.404   3.160
 5373TIP3    H116062   7.779   7.455   3.131
 5373TIP3    H216063   7.841   7.318   3.122
 5374TIP3   OH216064   7.404   2.682   0.629
 5374TIP3    H116065   7.470   2.667   0.562
 5374TIP3    H216066   7.323   2.700   0.581
 5375TIP3   OH216067   2.112   2.559   4.527
 5375TIP3    H116068   2.084   2.496   4.460
 5375TIP3    H216069   2.207   2.564   4.517
 5376TIP3   OH216070   0.298   2.283   5.927
 5376TIP3    H116071   0.323   2.192   5.946
 5376TIP3    H216072   0.203   2.284   5.936
 5377TIP3   OH216073   1.688   7.175   3.448
 5377TIP3    H116074   1.752   7.113   3.483
 5377TIP3    H216075   1.739   7.234   3.392
 5378TIP3   OH216076   1.369   0.481   0.285
 5378TIP3    H116077   1.313   0.558   0.281
 5378TIP3    H216078   1.412   0.478   0.200
 5379TIP3   OH216079   0.684   6.796   5.416
 5379TIP3    H116080   0.749   6.756   5.473
 5379TIP3    H216081   0.606   6.804   5.471
 5380TIP3   OH216082   5.979   1.147   1.067
 5380TIP3    H116083   6.074   1.144   1.070
 5380TIP3    H216084   5.951   1.130   1.157
 5381TIP3   OH216085   6.287   7.708   1.074
 5381TIP3    H116086   6.303   7.798   1.102
 5381TIP3    H216087   6.346   7.694   1.001
 5382TIP3   OH216088   3.215   1.128   2.102
 5382TIP3    H116089   3.302   1.149   2.066
 5382TIP3    H216090   3.160   1.114   2.026
 5383TIP3   OH216091   8.068   2.007   4.147
 5383TIP3    H116092   8.119   2.077   4.188
 5383TIP3    H216093   8.132   1.938   4.129
 5384TIP3   OH216094   0.711   1.789   3.087
 5384TIP3    H116095   0.626   1.834   3.089
 5384TIP3    H216096   0.713   1.738   3.169
 5385TIP3   OH216097   7.433   0.331   2.614
 5385TIP3    H116098   7.348   0.368   2.591
 5385TIP3    H216099   7.495   0.376   2.557
 5386TIP3   OH216100   3.096   5.193   6.290
 5386TIP3    H116101   3.164   5.216   6.227
 5386TIP3    H216102   3.024   5.253   6.271
 5387TIP3   OH216103   2.460   6.027   3.927
 5387TIP3    H116104   2.507   6.105   3.898
 5387TIP3    H216105   2.416   6.055   4.007
 5388TIP3   OH216106   4.322   1.841   1.816
 5388TIP3    H116107   4.405   1.815   1.857
 5388TIP3    H216108   4.341   1.840   1.722
 5389TIP3   OH216109   6.076   0.592   2.083
 5389TIP3    H116110   6.013   0.545   2.137
 5389TIP3    H216111   6.024   0.659   2.038
 5390TIP3   OH216112   2.548   4.358   1.873
 5390TIP3    H116113   2.560   4.420   1.944
 5390TIP3    H216114   2.633   4.314   1.864
 5391TIP3   OH216115   5.968   3.230   3.322
 5391TIP3    H116116   5.888   3.183   3.298
 5391TIP3    H216117   6.027   3.215   3.248
 5392TIP3   OH216118   4.476   4.927   1.906
 5392TIP3    H116119   4.532   4.849   1.908
 5392TIP3    H216120   4.538   5.000   1.901
 5393TIP3   OH216121   8.138   0.502   3.243
 5393TIP3    H116122   8.160   0.444   3.315
 5393TIP3    H216123   8.215   0.504   3.187
 5394TIP3   OH216124   7.820   4.115   3.376
 5394TIP3    H116125   7.915   4.118   3.383
 5394TIP3    H216126   7.797   4.026   3.403
 5395TIP3   OH216127   0.623   3.102   2.891
 5395TIP3    H116128   0.661   3.026   2.847
 5395TIP3    H216129   0.699   3.150   2.923
 5396TIP3   OH216130   6.995   7.435   3.927
 5396TIP3    H116131   6.967   7.526   3.921
 5396TIP3    H216132   6.963   7.406   4.013
 5397TIP3   OH216133   0.917   2.094   0.521
 5397TIP3    H116134   0.940   2.144   0.443
 5397TIP3    H216135   1.000   2.058   0.552
 5398TIP3   OH216136   1.894   1.549   5.520
 5398TIP3    H116137   1.969   1.561   5.578
 5398TIP3    H216138   1.930   1.509   5.441
 5399TIP3   OH216139   6.619   0.060   0.938
 5399TIP3    H116140   6.606  -0.033   0.955
 5399TIP3    H216141   6.542   0.102   0.974
 5400TIP3   OH216142   4.223   6.553   4.718
 5400TIP3    H116143   4.131   6.542   4.743
 5400TIP3    H216144   4.239   6.647   4.725
 5401TIP3   OH216145   4.888   2.044   4.073
 5401TIP3    H116146   4.850   2.014   4.155
 5401TIP3    H216147   4.916   1.963   4.029
 5402TIP3   OH216148   0.519   2.073   2.724
 5402TIP3    H116149   0.427   2.098   2.715
 5402TIP3    H216150   0.518   1.977   2.726
 5403TIP3   OH216151   6.996   6.346   3.790
 5403TIP3    H116152   6.922   6.399   3.820
 5403TIP3    H216153   7.002   6.275   3.854
 5404TIP3   OH216154   4.938   7.223   6.057
 5404TIP3    H116155   4.876   7.289   6.087
 5404TIP3    H216156   5.024   7.261   6.074
 5405TIP3   OH216157   1.376   2.533   2.042
 5405TIP3    H116158   1.320   2.599   2.001
 5405TIP3    H216159   1.459   2.579   2.058
 5406TIP3   OH216160   6.660   0.051   0.221
 5406TIP3    H116161   6.727  -0.002   0.177
 5406TIP3    H216162   6.705   0.132   0.244
 5407TIP3   OH216163   1.747   7.154   1.138
 5407TIP3    H116164   1.806   7.171   1.064
 5407TIP3    H216165   1.676   7.217   1.126
 5408TIP3   OH216166   1.523   5.246   6.143
 5408TIP3    H116167   1.580   5.173   6.167
 5408TIP3    H216168   1.582   5.319   6.127
 5409TIP3   OH216169   4.935   2.389   4.497
 5409TIP3    H116170   4.849   2.426   4.516
 5409TIP3    H216171   4.987   2.407   4.575
 5410TIP3   OH216172   6.615   2.712   4.763
 5410TIP3    H116173   6.622   2.796   4.719
 5410TIP3    H216174   6.644   2.648   4.698
 5411TIP3   OH216175   2.414   3.030   3.704
 5411TIP3    H116176   2.465   3.021   3.784
 5411TIP3    H216177   2.466   2.985   3.637
 5412TIP3   OH216178   0.251   2.654   2.710
 5412TIP3    H116179   0.179   2.715   2.725
 5412TIP3    H216180   0.324   2.709   2.682
 5413TIP3   OH216181   8.020   6.344   1.860
 5413TIP3    H116182   8.081   6.417   1.868
 5413TIP3    H216183   7.943   6.382   1.816
 5414TIP3   OH216184   0.919   7.043   3.211
 5414TIP3    H116185   0.990   7.107   3.209
 5414TIP3    H216186   0.864   7.066   3.136
 5415TIP3   OH216187   4.785   4.888   1.650
 5415TIP3    H116188   4.769   4.975   1.688
 5415TIP3    H216189   4.764   4.827   1.721
 5416TIP3   OH216190   1.140   6.502   3.720
 5416TIP3    H116191   1.066   6.525   3.775
 5416TIP3    H216192   1.131   6.408   3.705
 5417TIP3   OH216193   7.842   6.863   1.170
 5417TIP3    H116194   7.817   6.940   1.120
 5417TIP3    H216195   7.905   6.817   1.114
 5418TIP3   OH216196   5.260   1.671   1.604
 5418TIP3    H116197   5.207   1.669   1.524
 5418TIP3    H216198   5.350   1.661   1.573
 5419TIP3   OH216199   1.201   3.861   2.083
 5419TIP3    H116200   1.217   3.767   2.077
 5419TIP3    H216201   1.242   3.886   2.166
 5420TIP3   OH216202   3.007   0.103   1.592
 5420TIP3    H116203   2.936   0.088   1.654
 5420TIP3    H216204   3.025   0.016   1.555
 5421TIP3   OH216205   6.763   2.511   1.907
 5421TIP3    H116206   6.759   2.547   1.995
 5421TIP3    H216207   6.672   2.516   1.875
 5422TIP3   OH216208   7.535   4.434   5.587
 5422TIP3    H116209   7.548   4.340   5.571
 5422TIP3    H216210   7.521   4.441   5.681
 5423TIP3   OH216211   6.701   5.118   6.394
 5423TIP3    H116212   6.702   5.177   6.319
 5423TIP3    H216213   6.708   5.176   6.470
 5424TIP3   OH216214   0.858   0.910   1.167
 5424TIP3    H116215   0.877   0.982   1.227
 5424TIP3    H216216   0.864   0.832   1.222
 5425TIP3   OH216217   2.410   5.757   3.944
 5425TIP3    H116218   2.425   5.852   3.943
 5425TIP3    H216219   2.364   5.739   3.862
 5426TIP3   OH216220   0.487   5.689   6.663
 5426TIP3    H116221   0.547   5.620   6.635
 5426TIP3    H216222   0.541   5.747   6.717
 5427TIP3   OH216223   5.553   5.181   1.422
 5427TIP3    H116224   5.642   5.192   1.456
 5427TIP3    H216225   5.560   5.201   1.329
 5428TIP3   OH216226   4.493   0.638   2.992
 5428TIP3    H116227   4.558   0.576   3.024
 5428TIP3    H216228   4.440   0.588   2.931
 5429TIP3   OH216229   2.250   7.197   4.243
 5429TIP3    H116230   2.346   7.204   4.241
 5429TIP3    H216231   2.226   7.220   4.333
 5430TIP3   OH216232   7.787   0.963   5.155
 5430TIP3    H116233   7.781   0.881   5.204
 5430TIP3    H216234   7.697   0.985   5.132
 5431TIP3   OH216235   3.937   3.411   2.865
 5431TIP3    H116236   3.902   3.459   2.940
 5431TIP3    H216237   3.980   3.334   2.904
 5432TIP3   OH216238   8.112   7.267   4.599
 5432TIP3    H116239   8.039   7.327   4.585
 5432TIP3    H216240   8.190   7.320   4.583
 5433TIP3   OH216241   1.271   3.158   2.557
 5433TIP3    H116242   1.364   3.143   2.545
 5433TIP3    H216243   1.243   3.091   2.619
 5434TIP3   OH216244   2.356   6.982   2.374
 5434TIP3    H116245   2.412   7.059   2.373
 5434TIP3    H216246   2.315   6.984   2.461
 5435TIP3   OH216247   1.528   3.958   3.532
 5435TIP3    H116248   1.497   4.049   3.529
 5435TIP3    H216249   1.461   3.909   3.484
 5436TIP3   OH216250   4.189   3.876   0.829
 5436TIP3    H116251   4.166   3.964   0.799
 5436TIP3    H216252   4.129   3.859   0.902
 5437TIP3   OH216253   5.810   2.561   5.061
 5437TIP3    H116254   5.869   2.626   5.099
 5437TIP3    H216255   5.828   2.564   4.967
 5438TIP3   OH216256   3.017   3.878   4.206
 5438TIP3    H116257   3.016   3.809   4.140
 5438TIP3    H216258   3.039   3.832   4.288
 5439TIP3   OH216259   4.727   3.735   2.707
 5439TIP3    H116260   4.730   3.663   2.771
 5439TIP3    H216261   4.634   3.752   2.695
 5440TIP3   OH216262   5.141   3.439   1.959
 5440TIP3    H116263   5.117   3.476   2.044
 5440TIP3    H216264   5.081   3.480   1.897
 5441TIP3   OH216265   5.867   7.794   6.318
 5441TIP3    H116266   5.823   7.828   6.241
 5441TIP3    H216267   5.813   7.821   6.392
 5442TIP3   OH216268   3.696   5.168   3.041
 5442TIP3    H116269   3.778   5.123   3.061
 5442TIP3    H216270   3.695   5.244   3.100
 5443TIP3   OH216271   8.157   0.653   2.421
 5443TIP3    H116272   8.087   0.710   2.453
 5443TIP3    H216273   8.228   0.712   2.398
 5444TIP3   OH216274   0.931   4.633   5.294
 5444TIP3    H116275   1.011   4.589   5.262
 5444TIP3    H216276   0.874   4.561   5.320
 5445TIP3   OH216277   0.100   5.007   6.070
 5445TIP3    H116278   0.096   5.007   6.166
 5445TIP3    H216279   0.008   5.003   6.043
 5446TIP3   OH216280   1.391   2.217   3.375
 5446TIP3    H116281   1.401   2.138   3.428
 5446TIP3    H216282   1.337   2.275   3.429
 5447TIP3   OH216283   1.886   2.542   3.062
 5447TIP3    H116284   1.856   2.563   3.151
 5447TIP3    H216285   1.959   2.481   3.075
 5448TIP3   OH216286   4.926   7.409   4.183
 5448TIP3    H116287   4.865   7.357   4.130
 5448TIP3    H216288   4.884   7.494   4.192
 5449TIP3   OH216289   8.318   4.709   5.738
 5449TIP3    H116290   8.287   4.742   5.822
 5449TIP3    H216291   8.268   4.759   5.673
 5450TIP3   OH216292   8.281   2.259   6.617
 5450TIP3    H116293   8.301   2.207   6.539
 5450TIP3    H216294   8.199   2.303   6.596
 5451TIP3   OH216295   0.601   1.350   3.207
 5451TIP3    H116296   0.612   1.256   3.227
 5451TIP3    H216297   0.509   1.360   3.186
 5452TIP3   OH216298   6.961   4.389   2.533
 5452TIP3    H116299   6.876   4.401   2.574
 5452TIP3    H216300   6.941   4.377   2.440
 5453TIP3   OH216301   0.105   6.017   5.709
 5453TIP3    H116302   0.124   6.079   5.638
 5453TIP3    H216303   0.119   6.068   5.789
 5454TIP3   OH216304   1.289   0.247   0.407
 5454TIP3    H116305   1.199   0.217   0.393
 5454TIP3    H216306   1.292   0.334   0.367
 5455TIP3   OH216307   6.498   3.901   3.139
 5455TIP3    H116308   6.585   3.885   3.101
 5455TIP3    H216309   6.443   3.924   3.064
 5456TIP3   OH216310   7.120   1.163   6.258
 5456TIP3    H116311   7.045   1.174   6.317
 5456TIP3    H216312   7.186   1.222   6.293
 5457TIP3   OH216313   4.178   0.707   4.421
 5457TIP3    H116314   4.229   0.773   4.467
 5457TIP3    H216315   4.139   0.754   4.347
 5458TIP3   OH216316   5.066   7.127   2.232
 5458TIP3    H116317   5.133   7.190   2.258
 5458TIP3    H216318   5.089   7.102   2.143
 5459TIP3   OH216319   7.525   6.996   3.109
 5459TIP3    H116320   7.432   6.997   3.088
 5459TIP3    H216321   7.568   7.015   3.026
 5460TIP3   OH216322   5.454   6.383   3.800
 5460TIP3    H116323   5.464   6.404   3.893
 5460TIP3    H216324   5.502   6.301   3.788
 5461TIP3   OH216325   8.201   1.851   3.417
 5461TIP3    H116326   8.197   1.872   3.510
 5461TIP3    H216327   8.234   1.761   3.414
 5462TIP3   OH216328   1.263   7.776   5.613
 5462TIP3    H116329   1.208   7.842   5.571
 5462TIP3    H216330   1.201   7.720   5.660
 5463TIP3   OH216331   7.456   5.982   6.217
 5463TIP3    H116332   7.394   6.037   6.168
 5463TIP3    H216333   7.542   6.011   6.187
 5464TIP3   OH216334   5.482   6.945   4.024
 5464TIP3    H116335   5.431   6.865   4.036
 5464TIP3    H216336   5.565   6.928   4.069
 5465TIP3   OH216337   6.169   6.977   4.426
 5465TIP3    H116338   6.181   7.062   4.385
 5465TIP3    H216339   6.075   6.959   4.419
 5466TIP3   OH216340   3.544   6.310   3.204
 5466TIP3    H116341   3.455   6.343   3.193
 5466TIP3    H216342   3.601   6.381   3.176
 5467TIP3   OH216343   8.144   5.666   3.980
 5467TIP3    H116344   8.136   5.634   4.070
 5467TIP3    H216345   8.093   5.604   3.928
 5468TIP3   OH216346   8.074   5.386   2.833
 5468TIP3    H116347   8.107   5.475   2.821
 5468TIP3    H216348   8.102   5.363   2.921
 5469TIP3   OH216349   7.955   3.646   1.009
 5469TIP3    H116350   7.992   3.660   0.922
 5469TIP3    H216351   7.876   3.700   1.010
 5470TIP3   OH216352   6.658   6.613   5.108
 5470TIP3    H116353   6.673   6.628   5.201
 5470TIP3    H216354   6.565   6.595   5.101
 5471TIP3   OH216355   4.192   3.352   3.703
 5471TIP3    H116356   4.162   3.264   3.682
 5471TIP3    H216357   4.138   3.409   3.649
 5472TIP3   OH216358   6.380   0.597   6.769
 5472TIP3    H116359   6.439   0.521   6.770
 5472TIP3    H216360   6.330   0.588   6.688
 5473TIP3   OH216361   5.000   1.399   1.423
 5473TIP3    H116362   4.914   1.438   1.410
 5473TIP3    H216363   4.982   1.308   1.446
 5474TIP3   OH216364   4.226   1.144   5.920
 5474TIP3    H116365   4.313   1.107   5.904
 5474TIP3    H216366   4.196   1.101   6.001
 5475TIP3   OH216367   5.907   6.582   6.245
 5475TIP3    H116368   5.968   6.603   6.316
 5475TIP3    H216369   5.859   6.506   6.277
 5476TIP3   OH216370   4.403   7.630   0.118
 5476TIP3    H116371   4.374   7.614   0.028
 5476TIP3    H216372   4.357   7.710   0.144
 5477TIP3   OH216373   1.379   1.463   2.298
 5477TIP3    H116374   1.474   1.451   2.290
 5477TIP3    H216375   1.368   1.557   2.314
 5478TIP3   OH216376   4.565   5.396   1.037
 5478TIP3    H116377   4.620   5.443   0.974
 5478TIP3    H216378   4.503   5.348   0.983
 5479TIP3   OH216379   0.780   0.204   2.424
 5479TIP3    H116380   0.793   0.287   2.470
 5479TIP3    H216381   0.693   0.211   2.385
 5480TIP3   OH216382   6.785   4.452   1.054
 5480TIP3    H116383   6.832   4.508   1.116
 5480TIP3    H216384   6.694   4.482   1.059
 5481TIP3   OH216385   4.909   2.204   3.568
 5481TIP3    H116386   4.931   2.203   3.475
 5481TIP3    H216387   4.976   2.149   3.609
 5482TIP3   OH216388   3.365   1.964   0.193
 5482TIP3    H116389   3.442   1.950   0.248
 5482TIP3    H216390   3.370   1.894   0.127
 5483TIP3   OH216391   4.406   1.120   0.756
 5483TIP3    H116392   4.331   1.072   0.790
 5483TIP3    H216393   4.450   1.154   0.834
 5484TIP3   OH216394   2.314   0.385   5.496
 5484TIP3    H116395   2.370   0.328   5.444
 5484TIP3    H216396   2.230   0.385   5.450
 5485TIP3   OH216397   4.771   6.116   5.223
 5485TIP3    H116398   4.707   6.133   5.154
 5485TIP3    H216399   4.719   6.085   5.297
 5486TIP3   OH216400   1.438   7.778   1.424
 5486TIP3    H116401   1.396   7.844   1.369
 5486TIP3    H216402   1.447   7.819   1.510
 5487TIP3   OH216403   1.328   0.060   0.675
 5487TIP3    H116404   1.286   0.134   0.719
 5487TIP3    H216405   1.350   0.093   0.588
 5488TIP3   OH216406   8.001   0.744   3.270
 5488TIP3    H116407   7.920   0.693   3.268
 5488TIP3    H216408   8.070   0.677   3.266
 5489TIP3   OH216409   5.372   3.327   4.675
 5489TIP3    H116410   5.381   3.299   4.766
 5489TIP3    H216411   5.324   3.256   4.632
 5490TIP3   OH216412   7.915   6.508   4.908
 5490TIP3    H116413   7.881   6.598   4.907
 5490TIP3    H216414   7.886   6.472   4.992
 5491TIP3   OH216415   3.151   4.192   1.464
 5491TIP3    H116416   3.076   4.132   1.460
 5491TIP3    H216417   3.225   4.136   1.486
 5492TIP3   OH216418   4.506   5.579   1.236
 5492TIP3    H116419   4.503   5.521   1.160
 5492TIP3    H216420   4.419   5.572   1.275
 5493TIP3   OH216421   5.182   2.894   1.890
 5493TIP3    H116422   5.122   2.878   1.817
 5493TIP3    H216423   5.175   2.988   1.907
 5494TIP3   OH216424   3.250   0.385   6.210
 5494TIP3    H116425   3.227   0.320   6.276
 5494TIP3    H216426   3.171   0.395   6.157
 5495TIP3   OH216427   4.953   7.059   4.496
 5495TIP3    H116428   4.949   7.150   4.467
 5495TIP3    H216429   4.896   7.011   4.436
 5496TIP3   OH216430   6.817   0.108   5.826
 5496TIP3    H116431   6.885   0.140   5.885
 5496TIP3    H216432   6.852   0.125   5.738
 5497TIP3   OH216433   7.071   5.339   6.462
 5497TIP3    H116434   7.099   5.426   6.492
 5497TIP3    H216435   7.049   5.292   6.543
 5498TIP3   OH216436   0.074   2.688   4.832
 5498TIP3    H116437   0.056   2.768   4.882
 5498TIP3    H216438   0.158   2.705   4.789
 5499TIP3   OH216439   0.247   1.442   6.315
 5499TIP3    H116440   0.213   1.353   6.319
 5499TIP3    H216441   0.180   1.495   6.358
 5500TIP3   OH216442   6.049   3.422   4.173
 5500TIP3    H116443   6.124   3.465   4.215
 5500TIP3    H216444   6.052   3.332   4.204
 5501TIP3   OH216445   4.438   1.818   0.091
 5501TIP3    H116446   4.379   1.893   0.100
 5501TIP3    H216447   4.521   1.858   0.063
 5502TIP3   OH216448   6.103   6.132   4.973
 5502TIP3    H116449   6.171   6.188   5.010
 5502TIP3    H216450   6.037   6.125   5.041
 5503TIP3   OH216451   1.283   7.759   1.931
 5503TIP3    H116452   1.199   7.717   1.912
 5503TIP3    H216453   1.345   7.718   1.870
 5504TIP3   OH216454   1.891   7.687   0.894
 5504TIP3    H116455   1.960   7.634   0.934
 5504TIP3    H216456   1.820   7.625   0.877
 5505TIP3   OH216457   4.817   2.042   6.512
 5505TIP3    H116458   4.834   2.131   6.481
 5505TIP3    H216459   4.871   1.986   6.456
 5506TIP3   OH216460   4.471   6.372   6.622
 5506TIP3    H116461   4.486   6.451   6.675
 5506TIP3    H216462   4.454   6.406   6.534
 5507TIP3   OH216463   4.809   6.027   4.631
 5507TIP3    H116464   4.781   6.009   4.721
 5507TIP3    H216465   4.730   6.058   4.587
 5508TIP3   OH216466   7.042   0.204   5.011
 5508TIP3    H116467   6.985   0.238   4.942
 5508TIP3    H216468   7.088   0.281   5.045
 5509TIP3   OH216469   1.914   5.947   6.008
 5509TIP3    H116470   1.876   5.961   6.094
 5509TIP3    H216471   2.005   5.977   6.017
 5510TIP3   OH216472   1.417   7.417   0.695
 5510TIP3    H116473   1.469   7.340   0.676
 5510TIP3    H216474   1.467   7.490   0.657
 5511TIP3   OH216475   7.568   1.099   1.386
 5511TIP3    H116476   7.596   1.190   1.398
 5511TIP3    H216477   7.500   1.085   1.452
 5512TIP3   OH216478   0.911   1.060   5.954
 5512TIP3    H116479   0.871   1.147   5.951
 5512TIP3    H216480   0.999   1.073   5.918
 5513TIP3   OH216481   3.572   1.857   4.490
 5513TIP3    H116482   3.606   1.840   4.402
 5513TIP3    H216483   3.647   1.891   4.539
 5514TIP3   OH216484   6.820   2.771   5.198
 5514TIP3    H116485   6.772   2.851   5.217
 5514TIP3    H216486   6.839   2.775   5.105
 5515TIP3   OH216487   5.244   2.968   4.252
 5515TIP3    H116488   5.183   3.039   4.232
 5515TIP3    H216489   5.215   2.894   4.198
 5516TIP3   OH216490   3.877   7.765   6.591
 5516TIP3    H116491   3.800   7.787   6.643
 5516TIP3    H216492   3.855   7.681   6.550
 5517TIP3   OH216493   0.290   1.006   6.619
 5517TIP3    H116494   0.379   1.007   6.583
 5517TIP3    H216495   0.292   1.069   6.691
 5518TIP3   OH216496   3.325   2.279   6.678
 5518TIP3    H116497   3.323   2.188   6.707
 5518TIP3    H216498   3.411   2.311   6.705
 5519TIP3   OH216499   1.669   6.377   5.552
 5519TIP3    H116500   1.640   6.398   5.463
 5519TIP3    H216501   1.614   6.432   5.608
 5520TIP3   OH216502   3.855   0.985   4.116
 5520TIP3    H116503   3.843   1.013   4.025
 5520TIP3    H216504   3.796   0.911   4.127
 5521TIP3   OH216505   7.511   3.423   4.382
 5521TIP3    H116506   7.439   3.440   4.321
 5521TIP3    H216507   7.475   3.447   4.468
 5522TIP3   OH216508   7.793   4.552   4.981
 5522TIP3    H116509   7.753   4.468   4.957
 5522TIP3    H216510   7.754   4.574   5.065
 5523TIP3   OH216511   0.824   1.908   1.849
 5523TIP3    H116512   0.762   1.873   1.912
 5523TIP3    H216513   0.898   1.847   1.851
 5524TIP3   OH216514   4.601   5.887   5.083
 5524TIP3    H116515   4.546   5.944   5.137
 5524TIP3    H216516   4.627   5.816   5.142
 5525TIP3   OH216517   6.160   1.469   0.292
 5525TIP3    H116518   6.081   1.521   0.278
 5525TIP3    H216519   6.140   1.414   0.368
 5526TIP3   OH216520   3.462   4.954   1.010
 5526TIP3    H116521   3.411   4.997   1.079
 5526TIP3    H216522   3.441   5.002   0.931
 5527TIP3   OH216523   5.053   0.242   4.222
 5527TIP3    H116524   5.130   0.286   4.257
 5527TIP3    H216525   4.980   0.275   4.274
 5528TIP3   OH216526   7.575   1.815   3.494
 5528TIP3    H116527   7.661   1.784   3.523
 5528TIP3    H216528   7.513   1.752   3.532
 5529TIP3   OH216529   4.316   6.123   0.833
 5529TIP3    H116530   4.370   6.095   0.759
 5529TIP3    H216531   4.331   6.217   0.840
 5530TIP3   OH216532   7.033   2.278   3.375
 5530TIP3    H116533   7.058   2.371   3.374
 5530TIP3    H216534   6.948   2.277   3.418
 5531TIP3   OH216535   4.435   2.121   5.488
 5531TIP3    H116536   4.477   2.160   5.412
 5531TIP3    H216537   4.400   2.196   5.537
 5532TIP3   OH216538   7.165   6.084   5.639
 5532TIP3    H116539   7.158   6.165   5.589
 5532TIP3    H216540   7.079   6.074   5.681
 5533TIP3   OH216541   4.362   0.894   3.363
 5533TIP3    H116542   4.400   0.881   3.276
 5533TIP3    H216543   4.379   0.812   3.410
 5534TIP3   OH216544   0.203   6.245   6.250
 5534TIP3    H116545   0.257   6.167   6.238
 5534TIP3    H216546   0.262   6.318   6.231
 5535TIP3   OH216547   6.440   0.285   1.128
 5535TIP3    H116548   6.414   0.294   1.220
 5535TIP3    H216549   6.362   0.310   1.079
 5536TIP3   OH216550   0.574   6.579   6.386
 5536TIP3    H116551   0.644   6.570   6.321
 5536TIP3    H216552   0.587   6.666   6.423
 5537TIP3   OH216553   0.560   7.480   5.280
 5537TIP3    H116554   0.586   7.422   5.208
 5537TIP3    H216555   0.601   7.564   5.259
 5538TIP3   OH216556   4.251   3.586   5.886
 5538TIP3    H116557   4.182   3.523   5.908
 5538TIP3    H216558   4.230   3.615   5.798
 5539TIP3   OH216559   5.791   0.430   4.401
 5539TIP3    H116560   5.870   0.462   4.444
 5539TIP3    H216561   5.821   0.355   4.349
 5540TIP3   OH216562   2.408   1.125   3.426
 5540TIP3    H116563   2.367   1.070   3.492
 5540TIP3    H216564   2.410   1.213   3.464
 5541TIP3   OH216565   7.992   0.103   2.880
 5541TIP3    H116566   7.921   0.167   2.884
 5541TIP3    H216567   8.035   0.119   2.796
 5542TIP3   OH216568   0.327   5.598   3.879
 5542TIP3    H116569   0.361   5.508   3.878
 5542TIP3    H216570   0.271   5.602   3.956
 5543TIP3   OH216571   4.784   5.060   6.548
 5543TIP3    H116572   4.848   5.075   6.618
 5543TIP3    H216573   4.703   5.098   6.582
 5544TIP3   OH216574   7.467   5.000   1.190
 5544TIP3    H116575   7.487   4.932   1.126
 5544TIP3    H216576   7.509   5.079   1.154
 5545TIP3   OH216577   0.972   0.049   0.218
 5545TIP3    H116578   1.054   0.029   0.171
 5545TIP3    H216579   0.923   0.105   0.158
 5546TIP3   OH216580   0.277   7.570   5.417
 5546TIP3    H116581   0.274   7.516   5.338
 5546TIP3    H216582   0.327   7.647   5.393
 5547TIP3   OH216583   7.649   1.420   1.167
 5547TIP3    H116584   7.663   1.515   1.160
 5547TIP3    H216585   7.582   1.411   1.235
 5548TIP3   OH216586   5.983   1.685   4.489
 5548TIP3    H116587   5.992   1.710   4.397
 5548TIP3    H216588   6.046   1.741   4.535
 5549TIP3   OH216589   5.585   4.974   2.827
 5549TIP3    H116590   5.670   5.012   2.804
 5549TIP3    H216591   5.603   4.881   2.839
 5550TIP3   OH216592   8.169   5.875   3.060
 5550TIP3    H116593   8.206   5.799   3.105
 5550TIP3    H216594   8.237   5.901   2.997
 5551TIP3   OH216595   8.179   4.186   2.624
 5551TIP3    H116596   8.094   4.191   2.579
 5551TIP3    H216597   8.243   4.178   2.553
 5552TIP3   OH216598   5.523   4.206   0.095
 5552TIP3    H116599   5.552   4.297   0.102
 5552TIP3    H216600   5.533   4.184   0.002
 5553TIP3   OH216601   2.877   2.267   6.453
 5553TIP3    H116602   2.968   2.238   6.447
 5553TIP3    H216603   2.831   2.214   6.388
 5554TIP3   OH216604   5.746   6.179   0.103
 5554TIP3    H116605   5.662   6.187   0.057
 5554TIP3    H216606   5.777   6.092   0.081
 5555TIP3   OH216607   6.012   3.158   4.184
 5555TIP3    H116608   5.983   3.121   4.101
 5555TIP3    H216609   5.952   3.122   4.249
 5556TIP3   OH216610   6.084   0.365   4.592
 5556TIP3    H116611   6.128   0.284   4.619
 5556TIP3    H216612   6.152   0.414   4.546
 5557TIP3   OH216613   3.554   6.421   4.721
 5557TIP3    H116614   3.465   6.429   4.755
 5557TIP3    H216615   3.610   6.441   4.795
 5558TIP3   OH216616   3.633   6.892   1.161
 5558TIP3    H116617   3.611   6.863   1.249
 5558TIP3    H216618   3.690   6.823   1.127
 5559TIP3   OH216619   3.446   4.561   2.422
 5559TIP3    H116620   3.444   4.656   2.425
 5559TIP3    H216621   3.506   4.536   2.492
 5560TIP3   OH216622   1.013   0.933   3.827
 5560TIP3    H116623   1.051   0.992   3.893
 5560TIP3    H216624   1.062   0.951   3.747
 5561TIP3   OH216625   7.427   2.151   5.463
 5561TIP3    H116626   7.381   2.105   5.393
 5561TIP3    H216627   7.372   2.141   5.540
 5562TIP3   OH216628   7.522   4.656   3.548
 5562TIP3    H116629   7.430   4.630   3.539
 5562TIP3    H216630   7.559   4.647   3.460
 5563TIP3   OH216631   8.149   3.407   3.438
 5563TIP3    H116632   8.167   3.338   3.375
 5563TIP3    H216633   8.235   3.436   3.468
 5564TIP3   OH216634   4.100   1.743   2.179
 5564TIP3    H116635   4.009   1.773   2.174
 5564TIP3    H216636   4.152   1.822   2.168
 5565TIP3   OH216637   5.435   0.920   0.277
 5565TIP3    H116638   5.362   0.919   0.339
 5565TIP3    H216639   5.405   0.975   0.205
 5566TIP3   OH216640   5.448   6.367   1.128
 5566TIP3    H116641   5.543   6.365   1.121
 5566TIP3    H216642   5.417   6.328   1.046
 5567TIP3   OH216643   0.515   5.342   6.401
 5567TIP3    H116644   0.557   5.394   6.468
 5567TIP3    H216645   0.483   5.406   6.337
 5568TIP3   OH216646   6.831   2.118   3.171
 5568TIP3    H116647   6.865   2.038   3.212
 5568TIP3    H216648   6.903   2.181   3.177
 5569TIP3   OH216649   5.740   7.159   0.354
 5569TIP3    H116650   5.648   7.183   0.365
 5569TIP3    H216651   5.745   7.068   0.382
 5570TIP3   OH216652   6.171   3.819   3.971
 5570TIP3    H116653   6.226   3.831   3.894
 5570TIP3    H216654   6.217   3.865   4.041
 5571TIP3   OH216655   1.902   0.930   3.146
 5571TIP3    H116656   1.939   0.977   3.071
 5571TIP3    H216657   1.814   0.967   3.156
 5572TIP3   OH216658   5.121  -0.018   3.855
 5572TIP3    H116659   5.027  -0.017   3.873
 5572TIP3    H216660   5.158   0.042   3.920
 5573TIP3   OH216661   2.729   0.773   0.227
 5573TIP3    H116662   2.800   0.735   0.175
 5573TIP3    H216663   2.773   0.811   0.303
 5574TIP3   OH216664   2.719   6.426   3.759
 5574TIP3    H116665   2.809   6.439   3.789
 5574TIP3    H216666   2.686   6.515   3.742
 5575TIP3   OH216667   0.215   3.716   1.799
 5575TIP3    H116668   0.173   3.668   1.871
 5575TIP3    H216669   0.142   3.749   1.747
 5576TIP3   OH216670   3.405   5.701   4.418
 5576TIP3    H116671   3.367   5.640   4.482
 5576TIP3    H216672   3.488   5.728   4.457
 5577TIP3   OH216673   7.581   5.074   0.254
 5577TIP3    H116674   7.506   5.066   0.313
 5577TIP3    H216675   7.542   5.095   0.169
 5578TIP3   OH216676   7.393   4.198   1.835
 5578TIP3    H116677   7.465   4.221   1.894
 5578TIP3    H216678   7.430   4.209   1.747
 5579TIP3   OH216679   3.703   2.165   2.455
 5579TIP3    H116680   3.743   2.082   2.431
 5579TIP3    H216681   3.713   2.171   2.550
 5580TIP3   OH216682   4.685   1.698   2.717
 5580TIP3    H116683   4.649   1.701   2.628
 5580TIP3    H216684   4.661   1.612   2.750
 5581TIP3   OH216685   7.204   5.499   1.614
 5581TIP3    H116686   7.285   5.550   1.601
 5581TIP3    H216687   7.182   5.467   1.527
 5582TIP3   OH216688   3.340   0.615   5.131
 5582TIP3    H116689   3.388   0.618   5.214
 5582TIP3    H216690   3.361   0.698   5.088
 5583TIP3   OH216691   2.119   0.028   3.821
 5583TIP3    H116692   2.183  -0.042   3.832
 5583TIP3    H216693   2.172   0.106   3.803
 5584TIP3   OH216694   0.853   3.923   0.685
 5584TIP3    H116695   0.930   3.915   0.741
 5584TIP3    H216696   0.783   3.880   0.735
 5585TIP3   OH216697   4.523   5.834   3.654
 5585TIP3    H116698   4.453   5.898   3.665
 5585TIP3    H216699   4.478   5.751   3.638
 5586TIP3   OH216700   6.535   0.209   4.664
 5586TIP3    H116701   6.481   0.287   4.678
 5586TIP3    H216702   6.482   0.154   4.606
 5587TIP3   OH216703   8.201   4.270   4.881
 5587TIP3    H116704   8.123   4.302   4.836
 5587TIP3    H216705   8.167   4.216   4.953
 5588TIP3   OH216706   7.122   6.445   3.558
 5588TIP3    H116707   7.078   6.410   3.635
 5588TIP3    H216708   7.100   6.384   3.487
 5589TIP3   OH216709   6.292   1.272   2.849
 5589TIP3    H116710   6.322   1.313   2.930
 5589TIP3    H216711   6.364   1.284   2.787
 5590TIP3   OH216712   3.900   6.419   2.222
 5590TIP3    H116713   3.864   6.412   2.310
 5590TIP3    H216714   3.843   6.483   2.179
 5591TIP3   OH216715   4.059   3.988   1.122
 5591TIP3    H116716   4.034   4.053   1.056
 5591TIP3    H216717   3.976   3.949   1.150
 5592TIP3   OH216718   1.405   6.260   0.583
 5592TIP3    H116719   1.345   6.235   0.653
 5592TIP3    H216720   1.349   6.271   0.507
 5593TIP3   OH216721   7.711   2.498   5.875
 5593TIP3    H116722   7.774   2.483   5.805
 5593TIP3    H216723   7.626   2.491   5.832
 5594TIP3   OH216724   7.325   5.208   3.064
 5594TIP3    H116725   7.409   5.253   3.069
 5594TIP3    H216726   7.337   5.129   3.117
 5595TIP3   OH216727   0.095   2.973   5.250
 5595TIP3    H116728   0.005   2.992   5.225
 5595TIP3    H216729   0.103   3.005   5.340
 5596TIP3   OH216730   7.391   3.698   6.727
 5596TIP3    H116731   7.466   3.753   6.744
 5596TIP3    H216732   7.402   3.668   6.636
 5597TIP3   OH216733   4.849   1.031   5.625
 5597TIP3    H116734   4.908   1.013   5.699
 5597TIP3    H216735   4.838   0.946   5.583
 5598TIP3   OH216736   2.830   3.561   1.807
 5598TIP3    H116737   2.779   3.481   1.801
 5598TIP3    H216738   2.813   3.607   1.725
 5599TIP3   OH216739   1.535   5.542   4.280
 5599TIP3    H116740   1.487   5.461   4.263
 5599TIP3    H216741   1.611   5.539   4.222
 5600TIP3   OH216742   2.798   4.938   5.455
 5600TIP3    H116743   2.865   5.006   5.446
 5600TIP3    H216744   2.820   4.893   5.536
 5601TIP3   OH216745   1.561   5.664   3.355
 5601TIP3    H116746   1.651   5.658   3.388
 5601TIP3    H216747   1.543   5.578   3.318
 5602TIP3   OH216748   8.032   2.345   1.092
 5602TIP3    H116749   8.041   2.422   1.147
 5602TIP3    H216750   8.118   2.336   1.050
 5603TIP3   OH216751   8.183   0.630   2.812
 5603TIP3    H116752   8.276   0.624   2.787
 5603TIP3    H216753   8.143   0.679   2.740
 5604TIP3   OH216754   6.313   0.931   3.330
 5604TIP3    H116755   6.312   1.027   3.328
 5604TIP3    H216756   6.391   0.907   3.279
 5605TIP3   OH216757   5.055   2.269   1.883
 5605TIP3    H116758   5.096   2.307   1.961
 5605TIP3    H216759   5.036   2.344   1.827
 5606TIP3   OH216760   4.348   3.460   3.886
 5606TIP3    H116761   4.288   3.523   3.926
 5606TIP3    H216762   4.293   3.410   3.826
 5607TIP3   OH216763   4.978   4.523   2.875
 5607TIP3    H116764   5.029   4.464   2.820
 5607TIP3    H216765   5.044   4.569   2.928
 5608TIP3   OH216766   4.528   3.077   2.846
 5608TIP3    H116767   4.618   3.077   2.878
 5608TIP3    H216768   4.526   3.009   2.779
 5609TIP3   OH216769   6.387   5.674   3.929
 5609TIP3    H116770   6.467   5.696   3.978
 5609TIP3    H216771   6.357   5.592   3.968
 5610TIP3   OH216772   5.492   6.833   0.577
 5610TIP3    H116773   5.419   6.880   0.538
 5610TIP3    H216774   5.551   6.814   0.504
 5611TIP3   OH216775   5.767   6.375   1.764
 5611TIP3    H116776   5.811   6.306   1.713
 5611TIP3    H216777   5.682   6.338   1.786
 5612TIP3   OH216778   2.986   7.153   6.543
 5612TIP3    H116779   2.914   7.089   6.541
 5612TIP3    H216780   3.048   7.122   6.478
 5613TIP3   OH216781   5.748   4.113   0.330
 5613TIP3    H116782   5.784   4.048   0.269
 5613TIP3    H216783   5.693   4.061   0.389
 5614TIP3   OH216784   5.324   7.227   2.618
 5614TIP3    H116785   5.415   7.236   2.645
 5614TIP3    H216786   5.286   7.167   2.682
 5615TIP3   OH216787   4.371   1.934   1.139
 5615TIP3    H116788   4.282   1.900   1.150
 5615TIP3    H216789   4.360   2.029   1.137
 5616TIP3   OH216790   5.125   5.871   6.682
 5616TIP3    H116791   5.063   5.944   6.677
 5616TIP3    H216792   5.071   5.793   6.688
 5617TIP3   OH216793   7.909   2.322   6.320
 5617TIP3    H116794   7.827   2.298   6.362
 5617TIP3    H216795   7.886   2.393   6.261
 5618TIP3   OH216796   1.593   0.352   2.883
 5618TIP3    H116797   1.498   0.357   2.869
 5618TIP3    H216798   1.617   0.439   2.916
 5619TIP3   OH216799   5.407   7.394   2.929
 5619TIP3    H116800   5.497   7.416   2.953
 5619TIP3    H216801   5.381   7.463   2.868
 5620TIP3   OH216802   3.560   5.481   2.523
 5620TIP3    H116803   3.524   5.541   2.589
 5620TIP3    H216804   3.653   5.475   2.546
 5621TIP3   OH216805   0.811   0.298   4.879
 5621TIP3    H116806   0.805   0.234   4.808
 5621TIP3    H216807   0.821   0.246   4.958
 5622TIP3   OH216808   1.591   3.543   1.776
 5622TIP3    H116809   1.677   3.516   1.745
 5622TIP3    H216810   1.606   3.576   1.865
 5623TIP3   OH216811   7.569   5.441   5.961
 5623TIP3    H116812   7.660   5.438   5.993
 5623TIP3    H216813   7.522   5.489   6.028
 5624TIP3   OH216814   3.413   5.447   2.989
 5624TIP3    H116815   3.348   5.517   3.001
 5624TIP3    H216816   3.463   5.447   3.071
 5625TIP3   OH216817   0.716   6.557   1.643
 5625TIP3    H116818   0.646   6.496   1.619
 5625TIP3    H216819   0.685   6.642   1.614
 5626TIP3   OH216820   4.231   5.179   0.670
 5626TIP3    H116821   4.260   5.204   0.758
 5626TIP3    H216822   4.308   5.195   0.615
 5627TIP3   OH216823   2.771   5.829   1.208
 5627TIP3    H116824   2.714   5.897   1.243
 5627TIP3    H216825   2.718   5.785   1.142
 5628TIP3   OH216826   5.997   2.033   2.343
 5628TIP3    H116827   6.027   2.062   2.430
 5628TIP3    H216828   5.926   2.094   2.321
 5629TIP3   OH216829   7.776   5.120   5.402
 5629TIP3    H116830   7.812   5.182   5.338
 5629TIP3    H216831   7.686   5.150   5.416
 5630TIP3   OH216832   6.538   5.021   3.421
 5630TIP3    H116833   6.462   5.067   3.385
 5630TIP3    H216834   6.614   5.068   3.387
 5631TIP3   OH216835   7.641   6.149   2.468
 5631TIP3    H116836   7.734   6.173   2.472
 5631TIP3    H216837   7.630   6.088   2.541
 5632TIP3   OH216838   1.155   4.436   1.620
 5632TIP3    H116839   1.227   4.387   1.580
 5632TIP3    H216840   1.076   4.405   1.575
 5633TIP3   OH216841   5.687   1.156   2.843
 5633TIP3    H116842   5.710   1.238   2.800
 5633TIP3    H216843   5.591   1.155   2.844
 5634TIP3   OH216844   3.395   4.537   6.323
 5634TIP3    H116845   3.391   4.523   6.229
 5634TIP3    H216846   3.431   4.625   6.333
 5635TIP3   OH216847   7.475   3.967   3.538
 5635TIP3    H116848   7.438   3.879   3.543
 5635TIP3    H216849   7.399   4.025   3.538
 5636TIP3   OH216850   5.542   5.611   0.090
 5636TIP3    H116851   5.526   5.601   0.184
 5636TIP3    H216852   5.458   5.588   0.049
 5637TIP3   OH216853   7.708   0.150   5.617
 5637TIP3    H116854   7.678   0.220   5.559
 5637TIP3    H216855   7.735   0.196   5.697
 5638TIP3   OH216856   1.850   2.316   1.297
 5638TIP3    H116857   1.768   2.320   1.346
 5638TIP3    H216858   1.835   2.247   1.232
 5639TIP3   OH216859   7.934   4.207   2.112
 5639TIP3    H116860   7.965   4.241   2.028
 5639TIP3    H216861   7.922   4.285   2.166
 5640TIP3   OH216862   2.702   0.254   1.046
 5640TIP3    H116863   2.685   0.175   1.097
 5640TIP3    H216864   2.797   0.252   1.029
 5641TIP3   OH216865   8.000   5.644   5.984
 5641TIP3    H116866   8.022   5.663   6.075
 5641TIP3    H216867   7.977   5.551   5.983
 5642TIP3   OH216868   1.889   0.591   5.884
 5642TIP3    H116869   1.805   0.546   5.873
 5642TIP3    H216870   1.939   0.534   5.943
 5643TIP3   OH216871   5.210   7.156   0.596
 5643TIP3    H116872   5.289   7.187   0.551
 5643TIP3    H216873   5.138   7.185   0.540
 5644TIP3   OH216874   4.977   5.324   2.296
 5644TIP3    H116875   5.068   5.334   2.267
 5644TIP3    H216876   4.938   5.409   2.278
 5645TIP3   OH216877   7.431   7.289   4.586
 5645TIP3    H116878   7.387   7.322   4.664
 5645TIP3    H216879   7.360   7.259   4.529
 5646TIP3   OH216880   1.765   6.010   3.900
 5646TIP3    H116881   1.720   6.080   3.948
 5646TIP3    H216882   1.705   5.936   3.904
 5647TIP3   OH216883   2.949   7.158   3.742
 5647TIP3    H116884   2.932   7.244   3.703
 5647TIP3    H216885   2.863   7.115   3.744
 5648TIP3   OH216886   0.462   2.116   5.493
 5648TIP3    H116887   0.433   2.207   5.482
 5648TIP3    H216888   0.400   2.079   5.556
 5649TIP3   OH216889   6.837   6.718   1.628
 5649TIP3    H116890   6.792   6.799   1.606
 5649TIP3    H216891   6.877   6.690   1.546
 5650TIP3   OH216892   4.237   0.574   5.910
 5650TIP3    H116893   4.192   0.491   5.898
 5650TIP3    H216894   4.329   0.554   5.897
 5651TIP3   OH216895   3.693   7.381   4.891
 5651TIP3    H116896   3.637   7.434   4.836
 5651TIP3    H216897   3.781   7.392   4.854
 5652TIP3   OH216898   2.947   7.515   2.653
 5652TIP3    H116899   2.879   7.562   2.604
 5652TIP3    H216900   2.991   7.584   2.703
 5653TIP3   OH216901   1.775   1.687   2.315
 5653TIP3    H116902   1.799   1.756   2.377
 5653TIP3    H216903   1.856   1.668   2.267
 5654TIP3   OH216904   1.081   4.653   0.958
 5654TIP3    H116905   1.046   4.741   0.953
 5654TIP3    H216906   1.144   4.656   1.030
 5655TIP3   OH216907   0.572   2.228   1.371
 5655TIP3    H116908   0.627   2.195   1.442
 5655TIP3    H216909   0.507   2.283   1.414
 5656TIP3   OH216910   7.165   5.432   4.338
 5656TIP3    H116911   7.205   5.361   4.288
 5656TIP3    H216912   7.208   5.512   4.306
 5657TIP3   OH216913   1.532   4.223   5.298
 5657TIP3    H116914   1.606   4.179   5.340
 5657TIP3    H216915   1.496   4.157   5.239
 5658TIP3   OH216916   7.745   0.736   1.513
 5658TIP3    H116917   7.789   0.808   1.468
 5658TIP3    H216918   7.652   0.759   1.510
 5659TIP3   OH216919   2.638   3.037   3.912
 5659TIP3    H116920   2.577   2.993   3.972
 5659TIP3    H216921   2.688   3.096   3.967
 5660TIP3   OH216922   7.717   4.270   4.975
 5660TIP3    H116923   7.624   4.266   4.994
 5660TIP3    H216924   7.748   4.180   4.984
 5661TIP3   OH216925   4.674   4.921   6.022
 5661TIP3    H116926   4.691   4.929   6.116
 5661TIP3    H216927   4.639   5.006   5.996
 5662TIP3   OH216928   7.698   5.927   6.582
 5662TIP3    H116929   7.676   5.945   6.673
 5662TIP3    H216930   7.667   5.838   6.566
 5663TIP3   OH216931   7.663   3.198   2.438
 5663TIP3    H116932   7.711   3.176   2.358
 5663TIP3    H216933   7.695   3.284   2.463
 5664TIP3   OH216934   8.265   6.604   5.326
 5664TIP3    H116935   8.289   6.688   5.285
 5664TIP3    H216936   8.185   6.623   5.375
 5665TIP3   OH216937   5.162   2.458   6.084
 5665TIP3    H116938   5.193   2.530   6.139
 5665TIP3    H216939   5.237   2.400   6.075
 5666TIP3   OH216940   3.642   0.150   1.023
 5666TIP3    H116941   3.606   0.223   0.972
 5666TIP3    H216942   3.599   0.073   0.988
 5667TIP3   OH216943   1.791   5.550   3.096
 5667TIP3    H116944   1.739   5.614   3.047
 5667TIP3    H216945   1.859   5.602   3.138
 5668TIP3   OH216946   5.396   5.169   0.530
 5668TIP3    H116947   5.472   5.211   0.572
 5668TIP3    H216948   5.415   5.173   0.437
 5669TIP3   OH216949   1.833   2.322   0.213
 5669TIP3    H116950   1.792   2.253   0.161
 5669TIP3    H216951   1.926   2.301   0.211
 5670TIP3   OH216952   7.971   2.571   3.212
 5670TIP3    H116953   7.965   2.569   3.308
 5670TIP3    H216954   8.064   2.559   3.194
 5671TIP3   OH216955   3.615   6.443   3.830
 5671TIP3    H116956   3.703   6.478   3.843
 5671TIP3    H216957   3.600   6.448   3.736
 5672TIP3   OH216958   3.639   2.100   0.199
 5672TIP3    H116959   3.637   2.006   0.179
 5672TIP3    H216960   3.571   2.138   0.143
 5673TIP3   OH216961   5.987   6.498   2.234
 5673TIP3    H116962   5.985   6.594   2.229
 5673TIP3    H216963   6.013   6.479   2.324
 5674TIP3   OH216964   1.853   3.577   3.850
 5674TIP3    H116965   1.772   3.597   3.897
 5674TIP3    H216966   1.838   3.490   3.812
 5675TIP3   OH216967   8.090   3.521   2.118
 5675TIP3    H116968   8.012   3.551   2.071
 5675TIP3    H216969   8.089   3.426   2.108
 5676TIP3   OH216970   6.510   4.593   4.455
 5676TIP3    H116971   6.460   4.640   4.521
 5676TIP3    H216972   6.467   4.508   4.447
 5677TIP3   OH216973   1.380   2.943   4.362
 5677TIP3    H116974   1.462   2.965   4.318
 5677TIP3    H216975   1.403   2.938   4.455
 5678TIP3   OH216976   4.037   7.349   5.721
 5678TIP3    H116977   3.964   7.403   5.691
 5678TIP3    H216978   4.019   7.334   5.814
 5679TIP3   OH216979   7.666   2.176   5.321
 5679TIP3    H116980   7.599   2.152   5.384
 5679TIP3    H216981   7.658   2.112   5.250
 5680TIP3   OH216982   2.535   3.930   6.062
 5680TIP3    H116983   2.461   3.980   6.096
 5680TIP3    H216984   2.603   3.996   6.046
 5681TIP3   OH216985   2.106   4.879   4.963
 5681TIP3    H116986   2.182   4.905   4.911
 5681TIP3    H216987   2.143   4.855   5.049
 5682TIP3   OH216988   4.814   2.004   0.139
 5682TIP3    H116989   4.752   1.971   0.075
 5682TIP3    H216990   4.797   1.952   0.218
 5683TIP3   OH216991   1.529   3.823   4.209
 5683TIP3    H116992   1.460   3.849   4.270
 5683TIP3    H216993   1.573   3.906   4.186
 5684TIP3   OH216994   0.651   2.327   3.913
 5684TIP3    H116995   0.679   2.261   3.850
 5684TIP3    H216996   0.733   2.364   3.948
 5685TIP3   OH216997   3.630   6.810   5.317
 5685TIP3    H116998   3.584   6.872   5.373
 5685TIP3    H216999   3.589   6.726   5.335
 5686TIP3   OH217000   4.368   0.722   0.514
 5686TIP3    H117001   4.426   0.794   0.538
 5686TIP3    H217002   4.398   0.648   0.566
 5687TIP3   OH217003   2.714   3.789   6.572
 5687TIP3    H117004   2.720   3.875   6.614
 5687TIP3    H217005   2.804   3.770   6.544
 5688TIP3   OH217006   0.943   6.792   1.602
 5688TIP3    H117007   0.914   6.745   1.681
 5688TIP3    H217008   0.908   6.880   1.613
 5689TIP3   OH217009   4.682   2.276   5.351
 5689TIP3    H117010   4.757   2.216   5.353
 5689TIP3    H217011   4.655   2.277   5.259
 5690TIP3   OH217012   2.248   3.252   4.940
 5690TIP3    H117013   2.235   3.229   5.033
 5690TIP3    H217014   2.204   3.182   4.892
 5691TIP3   OH217015   1.167   0.267   4.613
 5691TIP3    H117016   1.198   0.196   4.558
 5691TIP3    H217017   1.146   0.338   4.552
 5692TIP3   OH217018   4.698   2.482   4.613
 5692TIP3    H117019   4.631   2.547   4.594
 5692TIP3    H217020   4.722   2.499   4.705
 5693TIP3   OH217021   8.290   6.863   5.727
 5693TIP3    H117022   8.296   6.792   5.791
 5693TIP3    H217023   8.240   6.932   5.773
 5694TIP3   OH217024   5.266   1.185   0.438
 5694TIP3    H117025   5.252   1.145   0.352
 5694TIP3    H217026   5.245   1.117   0.501
 5695TIP3   OH217027   6.712   2.055   1.098
 5695TIP3    H117028   6.671   1.974   1.067
 5695TIP3    H217029   6.762   2.087   1.023
 5696TIP3   OH217030   2.599   1.331   2.124
 5696TIP3    H117031   2.619   1.245   2.162
 5696TIP3    H217032   2.509   1.348   2.149
 5697TIP3   OH217033   1.343   4.128   3.172
 5697TIP3    H117034   1.412   4.065   3.192
 5697TIP3    H217035   1.266   4.073   3.156
 5698TIP3   OH217036   2.012   1.024   1.662
 5698TIP3    H117037   2.069   1.088   1.621
 5698TIP3    H217038   1.994   0.960   1.594
 5699TIP3   OH217039   1.742   0.953   4.002
 5699TIP3    H117040   1.656   0.977   3.968
 5699TIP3    H217041   1.724   0.908   4.084
 5700TIP3   OH217042   2.649   1.133   5.611
 5700TIP3    H117043   2.585   1.132   5.682
 5700TIP3    H217044   2.621   1.204   5.553
 5701TIP3   OH217045   5.893   3.321   1.727
 5701TIP3    H117046   5.887   3.289   1.817
 5701TIP3    H217047   5.803   3.340   1.702
 5702TIP3   OH217048   8.149   1.246   1.723
 5702TIP3    H117049   8.126   1.171   1.778
 5702TIP3    H217050   8.065   1.283   1.696
 5703TIP3   OH217051   2.025   2.055   6.594
 5703TIP3    H117052   1.966   1.980   6.588
 5703TIP3    H217053   2.093   2.038   6.529
 5704TIP3   OH217054   5.351   1.714   5.447
 5704TIP3    H117055   5.331   1.780   5.514
 5704TIP3    H217056   5.315   1.751   5.366
 5705TIP3   OH217057   7.745   2.577   0.947
 5705TIP3    H117058   7.656   2.541   0.955
 5705TIP3    H217059   7.770   2.601   1.036
 5706TIP3   OH217060   3.900   1.868   6.449
 5706TIP3    H117061   3.984   1.914   6.454
 5706TIP3    H217062   3.840   1.932   6.413
 5707TIP3   OH217063   4.936   0.882   4.048
 5707TIP3    H117064   4.869   0.938   4.088
 5707TIP3    H217065   4.892   0.840   3.974
 5708TIP3   OH217066   4.558   5.465   6.340
 5708TIP3    H117067   4.515   5.537   6.386
 5708TIP3    H217068   4.642   5.500   6.311
 5709TIP3   OH217069   7.023   1.626   5.802
 5709TIP3    H117070   6.960   1.590   5.864
 5709TIP3    H217071   6.982   1.615   5.716
 5710TIP3   OH217072   1.443   7.463   6.291
 5710TIP3    H117073   1.523   7.513   6.271
 5710TIP3    H217074   1.401   7.450   6.206
 5711TIP3   OH217075   3.874   1.155   5.641
 5711TIP3    H117076   3.801   1.163   5.701
 5711TIP3    H217077   3.875   1.237   5.592
 5712TIP3   OH217078   3.492   2.611   3.701
 5712TIP3    H117079   3.442   2.593   3.621
 5712TIP3    H217080   3.526   2.526   3.728
 5713TIP3   OH217081   0.131   7.576   4.165
 5713TIP3    H117082   0.124   7.495   4.114
 5713TIP3    H217083   0.054   7.627   4.140
 5714TIP3   OH217084   3.336   2.165   0.599
 5714TIP3    H117085   3.294   2.097   0.546
 5714TIP3    H217086   3.425   2.170   0.565
 5715TIP3   OH217087   2.057   1.858   1.268
 5715TIP3    H117088   2.086   1.798   1.198
 5715TIP3    H217089   2.135   1.910   1.288
 5716TIP3   OH217090   6.007   3.111   0.237
 5716TIP3    H117091   6.010   3.148   0.149
 5716TIP3    H217092   6.061   3.032   0.232
 5717TIP3   OH217093   7.270   6.175   1.945
 5717TIP3    H117094   7.257   6.088   1.981
 5717TIP3    H217095   7.287   6.231   2.021
 5718TIP3   OH217096   6.067   2.309   2.794
 5718TIP3    H117097   5.997   2.350   2.743
 5718TIP3    H217098   6.138   2.373   2.793
 5719TIP3   OH217099   1.899   2.867   1.451
 5719TIP3    H117100   1.808   2.887   1.427
 5719TIP3    H217101   1.929   2.808   1.381
 5720TIP3   OH217102   5.675   3.383   1.565
 5720TIP3    H117103   5.638   3.466   1.594
 5720TIP3    H217104   5.599   3.329   1.545
 5721TIP3   OH217105   7.889   4.938   6.088
 5721TIP3    H117106   7.890   4.963   6.180
 5721TIP3    H217107   7.845   4.853   6.087
 5722TIP3   OH217108   4.380   6.560  -0.025
 5722TIP3    H117109   4.457   6.614  -0.043
 5722TIP3    H217110   4.365   6.571   0.069
 5723TIP3   OH217111   1.408   5.514   1.297
 5723TIP3    H117112   1.398   5.531   1.203
 5723TIP3    H217113   1.475   5.446   1.302
 5724TIP3   OH217114   1.208   7.498   2.471
 5724TIP3    H117115   1.243   7.473   2.386
 5724TIP3    H217116   1.171   7.585   2.459
 5725TIP3   OH217117   0.773   1.499   4.070
 5725TIP3    H117118   0.701   1.438   4.085
 5725TIP3    H217119   0.732   1.574   4.027
 5726TIP3   OH217120   0.968   6.434   0.331
 5726TIP3    H117121   0.985   6.395   0.417
 5726TIP3    H217122   0.875   6.416   0.315
 5727TIP3   OH217123   2.426   6.609   6.131
 5727TIP3    H117124   2.408   6.703   6.134
 5727TIP3    H217125   2.340   6.568   6.140
 5728TIP3   OH217126   7.259   6.322   2.999
 5728TIP3    H117127   7.267   6.236   3.040
 5728TIP3    H217128   7.290   6.308   2.909
 5729TIP3   OH217129   3.483   7.158   2.215
 5729TIP3    H117130   3.492   7.098   2.289
 5729TIP3    H217131   3.415   7.119   2.160
 5730TIP3   OH217132   4.458   6.978   1.938
 5730TIP3    H117133   4.416   6.945   1.858
 5730TIP3    H217134   4.528   7.034   1.907
 5731TIP3   OH217135   0.120   2.351   5.483
 5731TIP3    H117136   0.048   2.394   5.529
 5731TIP3    H217137   0.196   2.366   5.539
 5732TIP3   OH217138   8.049   0.488   0.255
 5732TIP3    H117139   7.961   0.523   0.243
 5732TIP3    H217140   8.091   0.547   0.317
 5733TIP3   OH217141   6.209   2.988   5.346
 5733TIP3    H117142   6.190   3.082   5.354
 5733TIP3    H217143   6.305   2.984   5.336
 5734TIP3   OH217144   1.756   5.247   0.859
 5734TIP3    H117145   1.842   5.244   0.902
 5734TIP3    H217146   1.718   5.331   0.887
 5735TIP3   OH217147   7.627   3.525   5.243
 5735TIP3    H117148   7.656   3.444   5.202
 5735TIP3    H217149   7.610   3.502   5.334
 5736TIP3   OH217150   3.551   2.678   1.168
 5736TIP3    H117151   3.515   2.717   1.248
 5736TIP3    H217152   3.635   2.721   1.156
 5737TIP3   OH217153   6.234   1.647   0.803
 5737TIP3    H117154   6.236   1.691   0.888
 5737TIP3    H217155   6.144   1.615   0.796
 5738TIP3   OH217156   7.107   7.199   0.062
 5738TIP3    H117157   7.025   7.206   0.111
 5738TIP3    H217158   7.085   7.231  -0.025
 5739TIP3   OH217159   4.167   6.386   1.483
 5739TIP3    H117160   4.134   6.297   1.466
 5739TIP3    H217161   4.260   6.381   1.460
 5740TIP3   OH217162   2.094   2.268   0.283
 5740TIP3    H117163   2.132   2.196   0.333
 5740TIP3    H217164   2.088   2.341   0.345
 5741TIP3   OH217165   6.668   1.988   2.316
 5741TIP3    H117166   6.730   1.983   2.243
 5741TIP3    H217167   6.599   2.046   2.284
 5742TIP3   OH217168   3.933   3.030   3.260
 5742TIP3    H117169   4.023   3.063   3.253
 5742TIP3    H217170   3.883   3.082   3.196
 5743TIP3   OH217171   5.485   0.526   0.522
 5743TIP3    H117172   5.577   0.503   0.511
 5743TIP3    H217173   5.472   0.599   0.461
 5744TIP3   OH217174   7.162   6.607   6.076
 5744TIP3    H117175   7.110   6.527   6.074
 5744TIP3    H217176   7.209   6.603   6.159
 5745TIP3   OH217177   3.998   2.513   6.469
 5745TIP3    H117178   3.957   2.595   6.494
 5745TIP3    H217179   3.972   2.501   6.377
 5746TIP3   OH217180   4.169   0.334   4.770
 5746TIP3    H117181   4.094   0.370   4.721
 5746TIP3    H217182   4.238   0.399   4.758
 5747TIP3   OH217183   6.995   7.561   5.182
 5747TIP3    H117184   6.997   7.548   5.277
 5747TIP3    H217185   6.965   7.476   5.147
 5748TIP3   OH217186   3.221   7.450   6.697
 5748TIP3    H117187   3.247   7.369   6.741
 5748TIP3    H217188   3.199   7.510   6.769
 5749TIP3   OH217189   8.034   5.934   5.939
 5749TIP3    H117190   8.040   5.980   5.856
 5749TIP3    H217191   8.000   5.848   5.917
 5750TIP3   OH217192   8.042   1.310   2.079
 5750TIP3    H117193   8.001   1.288   2.163
 5750TIP3    H217194   7.968   1.316   2.018
 5751TIP3   OH217195   3.674   5.990   1.247
 5751TIP3    H117196   3.626   6.060   1.290
 5751TIP3    H217197   3.621   5.968   1.170
 5752TIP3   OH217198   0.026   7.321   0.093
 5752TIP3    H117199   0.038   7.369   0.175
 5752TIP3    H217200  -0.064   7.338   0.068
 5753TIP3   OH217201   6.433   2.024   0.070
 5753TIP3    H117202   6.340   2.042   0.088
 5753TIP3    H217203   6.450   2.068  -0.013
 5754TIP3   OH217204   2.462   5.689   0.845
 5754TIP3    H117205   2.511   5.677   0.764
 5754TIP3    H217206   2.372   5.705   0.816
 5755TIP3   OH217207   6.766   3.097   0.037
 5755TIP3    H117208   6.821   3.125   0.110
 5755TIP3    H217209   6.732   3.178  -0.001
 5756TIP3   OH217210   6.275   6.431   6.355
 5756TIP3    H117211   6.355   6.421   6.406
 5756TIP3    H217212   6.288   6.512   6.305
 5757TIP3   OH217213   8.178   1.182   3.425
 5757TIP3    H117214   8.142   1.270   3.432
 5757TIP3    H217215   8.188   1.153   3.516
 5758TIP3   OH217216   5.870   5.877   3.960
 5758TIP3    H117217   5.846   5.824   3.884
 5758TIP3    H217218   5.957   5.845   3.985
 5759TIP3   OH217219   5.340   1.962   6.749
 5759TIP3    H117220   5.302   1.878   6.775
 5759TIP3    H217221   5.265   2.013   6.717
 5760TIP3   OH217222   1.780   0.505   6.645
 5760TIP3    H117223   1.778   0.523   6.739
 5760TIP3    H217224   1.689   0.512   6.616
 5761TIP3   OH217225   0.432   7.833   4.545
 5761TIP3    H117226   0.348   7.851   4.503
 5761TIP3    H217227   0.435   7.738   4.554
 5762TIP3   OH217228   0.795   5.234   3.292
 5762TIP3    H117229   0.727   5.218   3.358
 5762TIP3    H217230   0.873   5.193   3.329
 5763TIP3   OH217231   6.110   3.032   5.704
 5763TIP3    H117232   6.035   3.022   5.646
 5763TIP3    H217233   6.149   2.945   5.709
 5764TIP3   OH217234   2.130   4.462   3.347
 5764TIP3    H117235   2.119   4.368   3.357
 5764TIP3    H217236   2.214   4.473   3.302
 5765TIP3   OH217237   1.006   7.371   3.246
 5765TIP3    H117238   1.000   7.372   3.341
 5765TIP3    H217239   1.072   7.437   3.225
 5766TIP3   OH217240   2.613   0.063   2.689
 5766TIP3    H117241   2.613   0.131   2.757
 5766TIP3    H217242   2.596   0.111   2.608
 5767TIP3   OH217243   6.485   1.480   0.287
 5767TIP3    H117244   6.495   1.516   0.199
 5767TIP3    H217245   6.574   1.459   0.315
 5768TIP3   OH217246   7.195   3.582   3.206
 5768TIP3    H117247   7.283   3.572   3.171
 5768TIP3    H217248   7.192   3.524   3.282
 5769TIP3   OH217249   4.865   6.557   3.465
 5769TIP3    H117250   4.860   6.653   3.462
 5769TIP3    H217251   4.940   6.539   3.520
 5770TIP3   OH217252   3.090   3.954   4.718
 5770TIP3    H117253   3.077   4.045   4.746
 5770TIP3    H217254   3.033   3.903   4.775
 5771TIP3   OH217255   2.587   6.132   2.554
 5771TIP3    H117256   2.661   6.112   2.611
 5771TIP3    H217257   2.532   6.190   2.607
 5772TIP3   OH217258   4.134   1.179   0.583
 5772TIP3    H117259   4.140   1.121   0.659
 5772TIP3    H217260   4.142   1.121   0.508
 5773TIP3   OH217261   5.431   3.947   0.217
 5773TIP3    H117262   5.468   3.917   0.300
 5773TIP3    H217263   5.457   4.039   0.212
 5774TIP3   OH217264   1.374   6.333   1.219
 5774TIP3    H117265   1.390   6.268   1.287
 5774TIP3    H217266   1.311   6.292   1.160
 5775TIP3   OH217267   5.295   5.194   6.402
 5775TIP3    H117268   5.276   5.111   6.358
 5775TIP3    H217269   5.221   5.251   6.380
 5776TIP3   OH217270   2.901   1.716   2.312
 5776TIP3    H117271   2.919   1.808   2.330
 5776TIP3    H217272   2.890   1.712   2.217
 5777TIP3   OH217273   4.765   4.098   5.716
 5777TIP3    H117274   4.840   4.139   5.758
 5777TIP3    H217275   4.757   4.142   5.631
 5778TIP3   OH217276   3.227   2.157   5.656
 5778TIP3    H117277   3.164   2.121   5.718
 5778TIP3    H217278   3.199   2.248   5.643
 5779TIP3   OH217279   8.289   7.028   2.958
 5779TIP3    H117280   8.331   6.950   2.996
 5779TIP3    H217281   8.230   7.059   3.027
 5780TIP3   OH217282   6.376   0.994   2.834
 5780TIP3    H117283   6.353   1.068   2.890
 5780TIP3    H217284   6.353   1.023   2.745
 5781TIP3   OH217285   4.925   6.929   2.730
 5781TIP3    H117286   4.855   6.987   2.760
 5781TIP3    H217287   4.978   6.982   2.671
 5782TIP3   OH217288   5.077   5.387   6.686
 5782TIP3    H117289   5.056   5.353   6.773
 5782TIP3    H217290   5.060   5.481   6.692
 5783TIP3   OH217291   0.438   2.415   4.613
 5783TIP3    H117292   0.516   2.407   4.669
 5783TIP3    H217293   0.473   2.422   4.524
 5784TIP3   OH217294   1.646   7.823   2.165
 5784TIP3    H117295   1.562   7.846   2.127
 5784TIP3    H217296   1.624   7.786   2.251
 5785TIP3   OH217297   7.618   0.456   0.404
 5785TIP3    H117298   7.674   0.529   0.430
 5785TIP3    H217299   7.674   0.379   0.410
 5786TIP3   OH217300   5.714   3.139   0.269
 5786TIP3    H117301   5.679   3.080   0.336
 5786TIP3    H217302   5.808   3.145   0.289
 5787TIP3   OH217303   0.556   0.051   0.914
 5787TIP3    H117304   0.491  -0.015   0.888
 5787TIP3    H217305   0.583   0.024   1.002
 5788TIP3   OH217306   6.335   0.980   4.650
 5788TIP3    H117307   6.296   1.056   4.607
 5788TIP3    H217308   6.405   0.952   4.590
 5789TIP3   OH217309   7.971   7.434   2.054
 5789TIP3    H117310   7.903   7.379   2.092
 5789TIP3    H217311   8.053   7.400   2.090
 5790TIP3   OH217312   0.827   1.710   6.326
 5790TIP3    H117313   0.892   1.675   6.264
 5790TIP3    H217314   0.807   1.635   6.383
 5791TIP3   OH217315   8.195   2.234   2.765
 5791TIP3    H117316   8.229   2.323   2.762
 5791TIP3    H217317   8.101   2.244   2.783
 5792TIP3   OH217318   0.757   1.202   1.107
 5792TIP3    H117319   0.749   1.124   1.052
 5792TIP3    H217320   0.768   1.168   1.196
 5793TIP3   OH217321   5.058   1.632   4.948
 5793TIP3    H117322   5.113   1.709   4.962
 5793TIP3    H217323   5.080   1.574   5.021
 5794TIP3   OH217324   7.330   2.073   6.424
 5794TIP3    H117325   7.262   2.091   6.359
 5794TIP3    H217326   7.408   2.053   6.372
 5795TIP3   OH217327   3.688   0.435   2.793
 5795TIP3    H117328   3.769   0.424   2.842
 5795TIP3    H217329   3.619   0.405   2.853
 5796TIP3   OH217330   1.200   7.376   5.080
 5796TIP3    H117331   1.257   7.453   5.083
 5796TIP3    H217332   1.259   7.303   5.058
 5797TIP3   OH217333   5.359   1.743   3.246
 5797TIP3    H117334   5.421   1.802   3.204
 5797TIP3    H217335   5.326   1.688   3.175
 5798TIP3   OH217336   3.864   4.203   3.519
 5798TIP3    H117337   3.912   4.273   3.564
 5798TIP3    H217338   3.932   4.148   3.481
 5799TIP3   OH217339   7.192   6.887   3.264
 5799TIP3    H117340   7.223   6.976   3.244
 5799TIP3    H217341   7.233   6.832   3.196
 5800TIP3   OH217342   6.274   4.254   3.319
 5800TIP3    H117343   6.251   4.232   3.409
 5800TIP3    H217344   6.191   4.269   3.275
 5801TIP3   OH217345   1.590   4.843   4.178
 5801TIP3    H117346   1.538   4.795   4.114
 5801TIP3    H217347   1.678   4.806   4.170
 5802TIP3   OH217348   7.707   6.373   6.216
 5802TIP3    H117349   7.765   6.298   6.234
 5802TIP3    H217350   7.760   6.431   6.162
 5803TIP3   OH217351   4.771   3.016   2.923
 5803TIP3    H117352   4.788   2.953   2.992
 5803TIP3    H217353   4.812   2.978   2.845
 5804TIP3   OH217354   6.688   5.398   2.359
 5804TIP3    H117355   6.631   5.329   2.393
 5804TIP3    H217356   6.746   5.421   2.431
 5805TIP3   OH217357   7.056   4.608   3.616
 5805TIP3    H117358   7.054   4.700   3.589
 5805TIP3    H217359   6.963   4.584   3.627
 5806TIP3   OH217360   4.876   4.219   1.928
 5806TIP3    H117361   4.827   4.212   1.846
 5806TIP3    H217362   4.938   4.146   1.925
 5807TIP3   OH217363   5.165   1.694   6.514
 5807TIP3    H117364   5.257   1.684   6.489
 5807TIP3    H217365   5.162   1.781   6.556
 5808TIP3   OH217366   6.518   4.171   5.832
 5808TIP3    H117367   6.569   4.091   5.844
 5808TIP3    H217368   6.575   4.229   5.782
 5809TIP3   OH217369   2.835   0.074   6.019
 5809TIP3    H117370   2.916   0.091   6.067
 5809TIP3    H217371   2.783   0.154   6.031
 5810TIP3   OH217372   3.431   4.730   3.441
 5810TIP3    H117373   3.468   4.724   3.530
 5810TIP3    H217374   3.372   4.655   3.435
 5811TIP3   OH217375   1.468   0.427   4.046
 5811TIP3    H117376   1.374   0.440   4.031
 5811TIP3    H217377   1.492   0.359   3.983
 5812TIP3   OH217378   4.503   1.474   3.563
 5812TIP3    H117379   4.409   1.478   3.574
 5812TIP3    H217380   4.520   1.523   3.482
 5813TIP3   OH217381   3.182   0.175   3.514
 5813TIP3    H117382   3.203   0.165   3.421
 5813TIP3    H217383   3.197   0.267   3.532
 5814TIP3   OH217384   3.076   7.791   1.114
 5814TIP3    H117385   3.075   7.698   1.091
 5814TIP3    H217386   3.153   7.826   1.069
 5815TIP3   OH217387   3.888   2.599   2.217
 5815TIP3    H117388   3.954   2.654   2.260
 5815TIP3    H217389   3.825   2.577   2.286
 5816TIP3   OH217390   7.376   5.829   1.293
 5816TIP3    H117391   7.330   5.869   1.219
 5816TIP3    H217392   7.342   5.875   1.370
 5817TIP3   OH217393   4.707   4.607   5.428
 5817TIP3    H117394   4.625   4.623   5.381
 5817TIP3    H217395   4.744   4.530   5.385
 5818TIP3   OH217396   4.248   5.792   6.262
 5818TIP3    H117397   4.322   5.848   6.286
 5818TIP3    H217398   4.202   5.841   6.195
 5819TIP3   OH217399   0.769   5.492   4.225
 5819TIP3    H117400   0.704   5.540   4.276
 5819TIP3    H217401   0.835   5.466   4.289
 5820TIP3   OH217402   7.885   6.171   6.247
 5820TIP3    H117403   7.944   6.186   6.173
 5820TIP3    H217404   7.942   6.143   6.318
 5821TIP3   OH217405   3.593   5.574   2.788
 5821TIP3    H117406   3.651   5.499   2.802
 5821TIP3    H217407   3.522   5.560   2.850
 5822TIP3   OH217408   3.987   3.205   5.759
 5822TIP3    H117409   3.913   3.263   5.747
 5822TIP3    H217410   4.021   3.226   5.847
 5823TIP3   OH217411   2.673   1.967   0.421
 5823TIP3    H117412   2.582   1.957   0.449
 5823TIP3    H217413   2.679   2.059   0.392
 5824TIP3   OH217414   5.223   1.550   5.861
 5824TIP3    H117415   5.267   1.534   5.777
 5824TIP3    H217416   5.250   1.638   5.886
 5825TIP3   OH217417   4.888   6.873   1.892
 5825TIP3    H117418   4.968   6.826   1.867
 5825TIP3    H217419   4.826   6.804   1.915
 5826TIP3   OH217420   4.605   5.159   3.936
 5826TIP3    H117421   4.587   5.110   4.017
 5826TIP3    H217422   4.700   5.167   3.934
 5827TIP3   OH217423   4.201   0.638   6.516
 5827TIP3    H117424   4.142   0.705   6.551
 5827TIP3    H217425   4.281   0.646   6.567
 5828TIP3   OH217426   3.895   0.720   2.595
 5828TIP3    H117427   3.942   0.718   2.512
 5828TIP3    H217428   3.941   0.787   2.647
 5829TIP3   OH217429   0.153   4.084   1.153
 5829TIP3    H117430   0.171   4.105   1.244
 5829TIP3    H217431   0.222   4.022   1.128
 5830TIP3   OH217432   3.188   0.145   1.788
 5830TIP3    H117433   3.118   0.140   1.723
 5830TIP3    H217434   3.142   0.155   1.871
 5831TIP3   OH217435   7.449   2.230   5.038
 5831TIP3    H117436   7.459   2.200   4.948
 5831TIP3    H217437   7.454   2.150   5.091
 5832TIP3   OH217438   0.420   4.587   6.504
 5832TIP3    H117439   0.424   4.645   6.428
 5832TIP3    H217440   0.326   4.573   6.518
 5833TIP3   OH217441   2.586   1.023   5.094
 5833TIP3    H117442   2.654   1.075   5.138
 5833TIP3    H217443   2.513   1.083   5.083
 5834TIP3   OH217444   0.799   7.720   2.508
 5834TIP3    H117445   0.811   7.658   2.580
 5834TIP3    H217446   0.860   7.791   2.527
 5835TIP3   OH217447   1.176   4.690   3.045
 5835TIP3    H117448   1.130   4.680   2.962
 5835TIP3    H217449   1.112   4.728   3.104
 5836TIP3   OH217450   2.654   3.810   5.430
 5836TIP3    H117451   2.610   3.727   5.447
 5836TIP3    H217452   2.632   3.865   5.505
 5837TIP3   OH217453   0.607   0.379   2.778
 5837TIP3    H117454   0.535   0.438   2.803
 5837TIP3    H217455   0.578   0.293   2.809
 5838TIP3   OH217456   7.626   4.318   3.482
 5838TIP3    H117457   7.681   4.334   3.558
 5838TIP3    H217458   7.664   4.240   3.441
 5839TIP3   OH217459   8.030   0.787   0.093
 5839TIP3    H117460   7.946   0.753   0.125
 5839TIP3    H217461   8.092   0.765   0.162
 5840TIP3   OH217462   4.822   7.527   2.882
 5840TIP3    H117463   4.727   7.540   2.891
 5840TIP3    H217464   4.846   7.476   2.959
 5841TIP3   OH217465   4.253   3.421   6.625
 5841TIP3    H117466   4.278   3.479   6.553
 5841TIP3    H217467   4.162   3.398   6.606
 5842TIP3   OH217468   2.144   3.207   4.276
 5842TIP3    H117469   2.101   3.268   4.217
 5842TIP3    H217470   2.101   3.123   4.259
 5843TIP3   OH217471   7.855   3.130   2.989
 5843TIP3    H117472   7.902   3.180   3.055
 5843TIP3    H217473   7.768   3.116   3.027
 5844TIP3   OH217474   3.106   1.430   3.216
 5844TIP3    H117475   3.195   1.443   3.183
 5844TIP3    H217476   3.050   1.469   3.148
 5845TIP3   OH217477   4.880   7.353   3.096
 5845TIP3    H117478   4.870   7.367   3.190
 5845TIP3    H217479   4.831   7.272   3.079
 5846TIP3   OH217480   6.537   6.179   6.136
 5846TIP3    H117481   6.559   6.096   6.092
 5846TIP3    H217482   6.447   6.197   6.110
 5847TIP3   OH217483   6.649   4.809   1.646
 5847TIP3    H117484   6.624   4.863   1.571
 5847TIP3    H217485   6.575   4.750   1.659
 5848TIP3   OH217486   5.001   3.690   5.491
 5848TIP3    H117487   5.015   3.676   5.585
 5848TIP3    H217488   4.930   3.754   5.487
 5849TIP3   OH217489   7.529   0.549   6.138
 5849TIP3    H117490   7.506   0.602   6.215
 5849TIP3    H217491   7.466   0.477   6.140
 5850TIP3   OH217492   2.479   5.928   1.812
 5850TIP3    H117493   2.553   5.943   1.871
 5850TIP3    H217494   2.449   6.015   1.788
 5851TIP3   OH217495   0.502   4.830   4.454
 5851TIP3    H117496   0.574   4.889   4.476
 5851TIP3    H217497   0.491   4.777   4.533
 5852TIP3   OH217498   4.046   0.999   2.637
 5852TIP3    H117499   3.997   1.040   2.708
 5852TIP3    H217500   4.090   0.924   2.678
 5853TIP3   OH217501   2.494   3.601   5.529
 5853TIP3    H117502   2.409   3.561   5.545
 5853TIP3    H217503   2.531   3.552   5.456
 5854TIP3   OH217504   1.474   6.515   3.624
 5854TIP3    H117505   1.402   6.530   3.563
 5854TIP3    H217506   1.457   6.575   3.697
 5855TIP3   OH217507   5.419   3.365   6.528
 5855TIP3    H117508   5.394   3.330   6.613
 5855TIP3    H217509   5.336   3.380   6.483
 5856TIP3   OH217510   3.142   0.218   6.734
 5856TIP3    H117511   3.068   0.231   6.675
 5856TIP3    H217512   3.112   0.151   6.796
 5857TIP3   OH217513   5.123   4.357   0.502
 5857TIP3    H117514   5.178   4.287   0.468
 5857TIP3    H217515   5.172   4.437   0.484
 5858TIP3   OH217516   0.459   4.044   3.388
 5858TIP3    H117517   0.399   3.989   3.438
 5858TIP3    H217518   0.421   4.132   3.396
 5859TIP3   OH217519   1.145   1.886   5.162
 5859TIP3    H117520   1.124   1.975   5.135
 5859TIP3    H217521   1.060   1.845   5.177
 5860TIP3   OH217522   1.278   2.232   5.031
 5860TIP3    H117523   1.205   2.170   5.025
 5860TIP3    H217524   1.320   2.211   5.114
 5861TIP3   OH217525   5.890   2.822   5.144
 5861TIP3    H117526   5.891   2.860   5.232
 5861TIP3    H217527   5.814   2.863   5.102
 5862TIP3   OH217528   3.039   4.399   1.291
 5862TIP3    H117529   3.095   4.350   1.351
 5862TIP3    H217530   3.020   4.480   1.337
 5863TIP3   OH217531   4.927   4.005   6.561
 5863TIP3    H117532   4.923   4.092   6.600
 5863TIP3    H217533   4.846   3.998   6.510
 5864TIP3   OH217534   1.383   3.081   4.091
 5864TIP3    H117535   1.320   3.082   4.163
 5864TIP3    H217536   1.445   3.013   4.115
 5865TIP3   OH217537   5.932   2.216   2.000
 5865TIP3    H117538   5.842   2.186   1.987
 5865TIP3    H217539   5.943   2.286   1.935
 5866TIP3   OH217540   2.105   6.973   6.334
 5866TIP3    H117541   2.017   6.937   6.341
 5866TIP3    H217542   2.093   7.068   6.341
 5867TIP3   OH217543   7.399   5.062   5.182
 5867TIP3    H117544   7.340   4.992   5.210
 5867TIP3    H217545   7.399   5.056   5.086
 5868TIP3   OH217546   5.590   5.010   5.330
 5868TIP3    H117547   5.588   5.104   5.310
 5868TIP3    H217548   5.504   4.978   5.303
 5869TIP3   OH217549   2.806   3.169  -0.004
 5869TIP3    H117550   2.898   3.191   0.009
 5869TIP3    H217551   2.758   3.241   0.037
 5870TIP3   OH217552   4.771   4.865   2.799
 5870TIP3    H117553   4.733   4.861   2.887
 5870TIP3    H217554   4.853   4.913   2.811
 5871TIP3   OH217555   6.141   6.145   4.410
 5871TIP3    H117556   6.101   6.188   4.334
 5871TIP3    H217557   6.068   6.130   4.470
 5872TIP3   OH217558   0.051   7.359   1.877
 5872TIP3    H117559   0.144   7.362   1.855
 5872TIP3    H217560   0.035   7.268   1.902
 5873TIP3   OH217561   3.975   2.950   2.589
 5873TIP3    H117562   3.919   3.026   2.601
 5873TIP3    H217563   4.032   2.949   2.666
 5874TIP3   OH217564   4.245   2.523   0.448
 5874TIP3    H117565   4.257   2.612   0.415
 5874TIP3    H217566   4.151   2.506   0.439
 5875TIP3   OH217567   8.201   4.196   5.405
 5875TIP3    H117568   8.232   4.106   5.391
 5875TIP3    H217569   8.142   4.190   5.480
 5876TIP3   OH217570   4.991   2.966   6.476
 5876TIP3    H117571   4.965   2.893   6.419
 5876TIP3    H217572   4.916   2.977   6.535
 5877TIP3   OH217573   6.226   6.779   6.540
 5877TIP3    H117574   6.308   6.827   6.526
 5877TIP3    H217575   6.252   6.703   6.591
 5878TIP3   OH217576   5.160   1.002   0.268
 5878TIP3    H117577   5.082   0.988   0.322
 5878TIP3    H217578   5.127   0.999   0.178
 5879TIP3   OH217579   3.332   5.214   2.878
 5879TIP3    H117580   3.330   5.252   2.789
 5879TIP3    H217581   3.347   5.289   2.935
 5880TIP3   OH217582   1.676   1.840   5.898
 5880TIP3    H117583   1.725   1.826   5.816
 5880TIP3    H217584   1.631   1.923   5.885
 5881TIP3   OH217585   3.599   1.387   1.921
 5881TIP3    H117586   3.671   1.419   1.975
 5881TIP3    H217587   3.556   1.466   1.889
 5882TIP3   OH217588   1.960   7.628   3.396
 5882TIP3    H117589   1.981   7.539   3.368
 5882TIP3    H217590   1.897   7.659   3.331
 5883TIP3   OH217591   4.307   4.993   4.117
 5883TIP3    H117592   4.252   4.995   4.195
 5883TIP3    H217593   4.288   4.909   4.076
 5884TIP3   OH217594   7.641   7.206   2.913
 5884TIP3    H117595   7.720   7.257   2.898
 5884TIP3    H217596   7.579   7.239   2.848
 5885TIP3   OH217597   1.717   2.047   1.489
 5885TIP3    H117598   1.775   1.979   1.455
 5885TIP3    H217599   1.670   2.004   1.561
 5886TIP3   OH217600   4.960   7.774   4.942
 5886TIP3    H117601   4.932   7.783   5.033
 5886TIP3    H217602   5.055   7.784   4.946
 5887TIP3   OH217603   1.121   4.342   4.470
 5887TIP3    H117604   1.213   4.364   4.486
 5887TIP3    H217605   1.101   4.276   4.536
 5888TIP3   OH217606   2.455   3.726   1.780
 5888TIP3    H117607   2.454   3.674   1.860
 5888TIP3    H217608   2.527   3.789   1.794
 5889TIP3   OH217609   3.788   2.166   1.712
 5889TIP3    H117610   3.730   2.211   1.773
 5889TIP3    H217611   3.754   2.187   1.625
 5890TIP3   OH217612   6.228   7.093   3.829
 5890TIP3    H117613   6.318   7.095   3.861
 5890TIP3    H217614   6.183   7.033   3.890
 5891TIP3   OH217615   6.250   0.794   0.056
 5891TIP3    H117616   6.270   0.856   0.126
 5891TIP3    H217617   6.314   0.723   0.066
 5892TIP3   OH217618   6.849   2.578   5.426
 5892TIP3    H117619   6.854   2.592   5.332
 5892TIP3    H217620   6.834   2.665   5.462
 5893TIP3   OH217621   4.754   0.008   2.583
 5893TIP3    H117622   4.817  -0.038   2.639
 5893TIP3    H217623   4.754   0.098   2.617
 5894TIP3   OH217624   3.846   0.318   0.887
 5894TIP3    H117625   3.891   0.399   0.913
 5894TIP3    H217626   3.785   0.300   0.959
 5895TIP3   OH217627   3.447   2.710   2.802
 5895TIP3    H117628   3.430   2.703   2.708
 5895TIP3    H217629   3.360   2.707   2.842
 5896TIP3   OH217630   3.751   0.979   1.956
 5896TIP3    H117631   3.706   1.035   1.893
 5896TIP3    H217632   3.844   0.994   1.939
 5897TIP3   OH217633   2.034   3.784   3.895
 5897TIP3    H117634   2.006   3.857   3.839
 5897TIP3    H217635   1.969   3.715   3.879
 5898TIP3   OH217636   4.238   5.607   5.683
 5898TIP3    H117637   4.233   5.698   5.652
 5898TIP3    H217638   4.303   5.566   5.627
 5899TIP3   OH217639   5.076   0.682   0.123
 5899TIP3    H117640   5.141   0.622   0.086
 5899TIP3    H217641   5.042   0.730   0.048
 5900TIP3   OH217642   3.772   6.572   5.574
 5900TIP3    H117643   3.819   6.655   5.589
 5900TIP3    H217644   3.685   6.599   5.546
 5901TIP3   OH217645   6.135   3.531   0.031
 5901TIP3    H117646   6.161   3.535  -0.060
 5901TIP3    H217647   6.209   3.491   0.076
 5902TIP3   OH217648   5.186   0.666   5.333
 5902TIP3    H117649   5.220   0.726   5.399
 5902TIP3    H217650   5.184   0.718   5.253
 5903TIP3   OH217651   4.471   1.097   5.296
 5903TIP3    H117652   4.551   1.052   5.324
 5903TIP3    H217653   4.403   1.063   5.354
 5904TIP3   OH217654   5.534   1.526   2.529
 5904TIP3    H117655   5.499   1.596   2.473
 5904TIP3    H217656   5.526   1.447   2.476
 5905TIP3   OH217657   4.528   5.127   6.344
 5905TIP3    H117658   4.575   5.081   6.274
 5905TIP3    H217659   4.573   5.211   6.351
 5906TIP3   OH217660   3.210   6.671   4.870
 5906TIP3    H117661   3.223   6.587   4.824
 5906TIP3    H217662   3.150   6.719   4.813
 5907TIP3   OH217663   4.824   0.533   2.674
 5907TIP3    H117664   4.836   0.557   2.582
 5907TIP3    H217665   4.850   0.610   2.724
 5908TIP3   OH217666   6.574   3.676   5.943
 5908TIP3    H117667   6.611   3.753   5.987
 5908TIP3    H217668   6.606   3.602   5.994
 5909TIP3   OH217669   3.588   4.900   0.774
 5909TIP3    H117670   3.593   4.924   0.866
 5909TIP3    H217671   3.500   4.865   0.762
 5910TIP3   OH217672   0.065   5.634   2.180
 5910TIP3    H117673   0.112   5.589   2.251
 5910TIP3    H217674   0.012   5.699   2.225
 5911TIP3   OH217675   4.187   5.384   4.339
 5911TIP3    H117676   4.162   5.444   4.409
 5911TIP3    H217677   4.257   5.430   4.292
 5912TIP3   OH217678   5.594   1.088   4.949
 5912TIP3    H117679   5.544   1.110   5.028
 5912TIP3    H217680   5.601   0.992   4.952
 5913TIP3   OH217681   3.485   3.165   1.815
 5913TIP3    H117682   3.544   3.167   1.889
 5913TIP3    H217683   3.408   3.117   1.846
 5914TIP3   OH217684   7.657   6.342   2.758
 5914TIP3    H117685   7.694   6.427   2.782
 5914TIP3    H217686   7.722   6.303   2.700
 5915TIP3   OH217687   5.212   3.531   0.841
 5915TIP3    H117688   5.286   3.487   0.883
 5915TIP3    H217689   5.207   3.616   0.886
 5916TIP3   OH217690   2.709   1.944   2.199
 5916TIP3    H117691   2.631   1.959   2.253
 5916TIP3    H217692   2.686   1.870   2.143
 5917TIP3   OH217693   4.422   5.987   4.694
 5917TIP3    H117694   4.487   6.020   4.756
 5917TIP3    H217695   4.395   5.903   4.729
 5918TIP3   OH217696   1.789   2.912   1.701
 5918TIP3    H117697   1.804   3.005   1.690
 5918TIP3    H217698   1.828   2.871   1.624
 5919TIP3   OH217699   0.540   7.722   1.393
 5919TIP3    H117700   0.570   7.726   1.302
 5919TIP3    H217701   0.448   7.695   1.388
 5920TIP3   OH217702   5.130   3.227   2.359
 5920TIP3    H117703   5.190   3.155   2.338
 5920TIP3    H217704   5.096   3.205   2.445
 5921TIP3   OH217705   0.478   5.887   0.555
 5921TIP3    H117706   0.417   5.833   0.604
 5921TIP3    H217707   0.429   5.966   0.534
 5922TIP3   OH217708   6.457   0.766   2.585
 5922TIP3    H117709   6.365   0.788   2.600
 5922TIP3    H217710   6.454   0.690   2.527
 5923TIP3   OH217711   1.263   1.988   5.777
 5923TIP3    H117712   1.318   2.002   5.700
 5923TIP3    H217713   1.190   2.049   5.766
 5924TIP3   OH217714   1.076   6.347   2.365
 5924TIP3    H117715   1.078   6.386   2.452
 5924TIP3    H217716   1.027   6.266   2.376
 5925TIP3   OH217717   3.575   4.591   0.744
 5925TIP3    H117718   3.496   4.625   0.786
 5925TIP3    H217719   3.646   4.645   0.780
 5926TIP3   OH217720   5.809   6.790   5.058
 5926TIP3    H117721   5.743   6.849   5.095
 5926TIP3    H217722   5.759   6.731   5.001
 5927TIP3   OH217723   0.468   4.415  -0.004
 5927TIP3    H117724   0.421   4.489   0.034
 5927TIP3    H217725   0.522   4.382   0.068
 5928TIP3   OH217726   6.795   7.813   5.921
 5928TIP3    H117727   6.849   7.829   5.843
 5928TIP3    H217728   6.724   7.757   5.889
 5929TIP3   OH217729   5.266   3.515   0.550
 5929TIP3    H117730   5.248   3.533   0.642
 5929TIP3    H217731   5.361   3.521   0.542
 5930TIP3   OH217732   0.436   0.174   3.447
 5930TIP3    H117733   0.524   0.211   3.438
 5930TIP3    H217734   0.423   0.122   3.368
 5931TIP3   OH217735   6.755   3.775   5.024
 5931TIP3    H117736   6.773   3.852   5.078
 5931TIP3    H217737   6.835   3.723   5.028
 5932TIP3   OH217738   4.063   7.232   3.923
 5932TIP3    H117739   4.019   7.209   3.841
 5932TIP3    H217740   4.130   7.164   3.933
 5933TIP3   OH217741   2.990   0.540   0.718
 5933TIP3    H117742   2.894   0.545   0.718
 5933TIP3    H217743   3.016   0.572   0.632
 5934TIP3   OH217744   6.213   3.633   5.589
 5934TIP3    H117745   6.167   3.717   5.585
 5934TIP3    H217746   6.243   3.626   5.680
 5935TIP3   OH217747   0.111   1.006   4.960
 5935TIP3    H117748   0.163   1.019   5.039
 5935TIP3    H217749   0.101   1.094   4.923
 5936TIP3   OH217750   4.601   6.236   2.572
 5936TIP3    H117751   4.586   6.167   2.637
 5936TIP3    H217752   4.685   6.274   2.596
 5937TIP3   OH217753   7.343   0.973   2.613
 5937TIP3    H117754   7.320   1.017   2.531
 5937TIP3    H217755   7.321   1.037   2.681
 5938TIP3   OH217756   5.400   3.350   2.926
 5938TIP3    H117757   5.337   3.281   2.907
 5938TIP3    H217758   5.393   3.365   3.020
 5939TIP3   OH217759   1.390   7.316   2.982
 5939TIP3    H117760   1.426   7.323   2.894
 5939TIP3    H217761   1.301   7.352   2.975
 5940TIP3   OH217762   4.772   0.013   5.016
 5940TIP3    H117763   4.694   0.063   5.036
 5940TIP3    H217764   4.815   0.061   4.945
 5941TIP3   OH217765   1.699   0.369   1.350
 5941TIP3    H117766   1.664   0.419   1.276
 5941TIP3    H217767   1.736   0.290   1.310
 5942TIP3   OH217768   1.990   1.573   0.496
 5942TIP3    H117769   1.923   1.630   0.459
 5942TIP3    H217770   2.025   1.622   0.571
 5943TIP3   OH217771   0.765   6.630   2.171
 5943TIP3    H117772   0.785   6.537   2.161
 5943TIP3    H217773   0.850   6.671   2.186
 5944TIP3   OH217774   3.998   7.621   0.455
 5944TIP3    H117775   4.056   7.684   0.413
 5944TIP3    H217776   4.053   7.576   0.519
 5945TIP3   OH217777   7.240   2.602   4.392
 5945TIP3    H117778   7.249   2.526   4.334
 5945TIP3    H217779   7.294   2.669   4.351
 5946TIP3   OH217780   2.233   2.386   0.501
 5946TIP3    H117781   2.243   2.464   0.447
 5946TIP3    H217782   2.308   2.389   0.561
 5947TIP3   OH217783   2.756   7.619   0.588
 5947TIP3    H117784   2.846   7.596   0.612
 5947TIP3    H217785   2.760   7.711   0.563
 5948TIP3   OH217786   4.918   4.239   2.225
 5948TIP3    H117787   4.999   4.259   2.272
 5948TIP3    H217788   4.937   4.261   2.134
 5949TIP3   OH217789   1.767   4.698   3.302
 5949TIP3    H117790   1.809   4.784   3.306
 5949TIP3    H217791   1.840   4.636   3.307
 5950TIP3   OH217792   5.881   4.568   3.797
 5950TIP3    H117793   5.952   4.517   3.836
 5950TIP3    H217794   5.837   4.609   3.872
 5951TIP3   OH217795   3.973   7.456   2.172
 5951TIP3    H117796   3.931   7.490   2.093
 5951TIP3    H217797   3.913   7.479   2.243
 5952TIP3   OH217798   4.785   4.614   2.691
 5952TIP3    H117799   4.774   4.704   2.721
 5952TIP3    H217800   4.855   4.579   2.747
 5953TIP3   OH217801   3.352   3.156   6.280
 5953TIP3    H117802   3.427   3.183   6.333
 5953TIP3    H217803   3.348   3.061   6.291
 5954TIP3   OH217804   3.496   5.881   2.749
 5954TIP3    H117805   3.505   5.861   2.656
 5954TIP3    H217806   3.579   5.854   2.788
 5955TIP3   OH217807   8.246   0.481   3.800
 5955TIP3    H117808   8.334   0.511   3.776
 5955TIP3    H217809   8.256   0.387   3.816
 5956TIP3   OH217810   3.814   4.060   2.520
 5956TIP3    H117811   3.764   4.142   2.518
 5956TIP3    H217812   3.765   4.003   2.579
 5957TIP3   OH217813   6.774   4.002   5.437
 5957TIP3    H117814   6.834   3.952   5.492
 5957TIP3    H217815   6.698   3.944   5.425
 5958TIP3   OH217816   6.695   3.458   3.640
 5958TIP3    H117817   6.614   3.508   3.647
 5958TIP3    H217818   6.743   3.478   3.720
 5959TIP3   OH217819   6.025   2.663   6.619
 5959TIP3    H117820   6.043   2.749   6.656
 5959TIP3    H217821   6.049   2.671   6.527
 5960TIP3   OH217822   4.537   4.923   3.031
 5960TIP3    H117823   4.464   4.862   3.018
 5960TIP3    H217824   4.510   5.003   2.986
 5961TIP3   OH217825   6.653   1.819   3.478
 5961TIP3    H117826   6.599   1.896   3.457
 5961TIP3    H217827   6.602   1.772   3.544
 5962TIP3   OH217828   4.213   4.959   2.739
 5962TIP3    H117829   4.150   5.002   2.798
 5962TIP3    H217830   4.273   5.029   2.713
 5963TIP3   OH217831   0.556   1.422   2.697
 5963TIP3    H117832   0.568   1.471   2.615
 5963TIP3    H217833   0.614   1.466   2.760
 5964TIP3   OH217834   2.518   1.495   4.342
 5964TIP3    H117835   2.515   1.570   4.401
 5964TIP3    H217836   2.440   1.503   4.288
 5965TIP3   OH217837   6.677   1.479   5.132
 5965TIP3    H117838   6.593   1.433   5.134
 5965TIP3    H217839   6.742   1.409   5.141
 5966TIP3   OH217840   2.292   0.130   0.774
 5966TIP3    H117841   2.295   0.071   0.698
 5966TIP3    H217842   2.241   0.082   0.839
 5967TIP3   OH217843   3.457   6.107   1.140
 5967TIP3    H117844   3.445   6.125   1.047
 5967TIP3    H217845   3.381   6.055   1.165
 5968TIP3   OH217846   5.261   5.618   3.431
 5968TIP3    H117847   5.356   5.609   3.426
 5968TIP3    H217848   5.234   5.552   3.495
 5969TIP3   OH217849   3.339   4.459   6.021
 5969TIP3    H117850   3.313   4.550   6.006
 5969TIP3    H217851   3.267   4.407   5.984
 5970TIP3   OH217852   0.244   5.761   0.671
 5970TIP3    H117853   0.236   5.667   0.656
 5970TIP3    H217854   0.187   5.801   0.606
 5971TIP3   OH217855   0.950   3.526   3.747
 5971TIP3    H117856   0.989   3.600   3.794
 5971TIP3    H217857   1.015   3.502   3.682
 5972TIP3   OH217858   1.277   2.410   5.435
 5972TIP3    H117859   1.272   2.412   5.530
 5972TIP3    H217860   1.198   2.455   5.405
 5973TIP3   OH217861   7.304   0.683   6.697
 5973TIP3    H117862   7.363   0.677   6.772
 5973TIP3    H217863   7.225   0.725   6.732
 5974TIP3   OH217864   4.953   2.385   2.325
 5974TIP3    H117865   4.984   2.335   2.250
 5974TIP3    H217866   5.000   2.468   2.320
 5975TIP3   OH217867   4.598   6.013   6.017
 5975TIP3    H117868   4.555   5.958   5.951
 5975TIP3    H217869   4.568   6.102   5.998
 5976TIP3   OH217870   0.771   5.799   4.781
 5976TIP3    H117871   0.796   5.862   4.849
 5976TIP3    H217872   0.820   5.720   4.803
 5977TIP3   OH217873   0.013   6.664   5.937
 5977TIP3    H117874   0.010   6.591   5.875
 5977TIP3    H217875  -0.019   6.627   6.019
 5978TIP3   OH217876   6.993   2.862   6.132
 5978TIP3    H117877   7.014   2.934   6.073
 5978TIP3    H217878   6.951   2.797   6.076
 5979TIP3   OH217879   3.633   1.048   5.886
 5979TIP3    H117880   3.727   1.033   5.876
 5979TIP3    H217881   3.592   0.972   5.844
 5980TIP3   OH217882   3.721   6.332   2.463
 5980TIP3    H117883   3.720   6.250   2.511
 5980TIP3    H217884   3.628   6.354   2.452
 5981TIP3   OH217885   2.018   3.790   4.598
 5981TIP3    H117886   2.064   3.762   4.519
 5981TIP3    H217887   2.046   3.881   4.611
 5982TIP3   OH217888   7.756   7.239   3.403
 5982TIP3    H117889   7.780   7.330   3.420
 5982TIP3    H217890   7.722   7.207   3.487
 5983TIP3   OH217891   0.781   2.004   6.216
 5983TIP3    H117892   0.804   1.921   6.257
 5983TIP3    H217893   0.812   1.996   6.126
 5984TIP3   OH217894   1.697   1.928   0.274
 5984TIP3    H117895   1.649   1.942   0.193
 5984TIP3    H217896   1.786   1.958   0.255
 5985TIP3   OH217897   3.983   0.939   0.478
 5985TIP3    H117898   3.961   0.870   0.416
 5985TIP3    H217899   4.016   0.893   0.555
 5986TIP3   OH217900   2.976   1.364   4.592
 5986TIP3    H117901   3.037   1.432   4.621
 5986TIP3    H217902   2.927   1.405   4.520
 5987TIP3   OH217903   7.277   0.832   5.777
 5987TIP3    H117904   7.354   0.861   5.728
 5987TIP3    H217905   7.296   0.741   5.800
 5988TIP3   OH217906   4.374   3.374   1.793
 5988TIP3    H117907   4.322   3.453   1.802
 5988TIP3    H217908   4.309   3.304   1.782
 5989TIP3   OH217909   1.734   0.819   2.535
 5989TIP3    H117910   1.811   0.766   2.556
 5989TIP3    H217911   1.765   0.910   2.540
 5990TIP3   OH217912   7.196   2.916   2.194
 5990TIP3    H117913   7.216   2.884   2.106
 5990TIP3    H217914   7.168   3.007   2.180
 5991TIP3   OH217915   3.460   1.960   6.700
 5991TIP3    H117916   3.514   2.007   6.764
 5991TIP3    H217917   3.432   1.881   6.746
 5992TIP3   OH217918   3.827   5.503   2.571
 5992TIP3    H117919   3.865   5.585   2.541
 5992TIP3    H217920   3.860   5.492   2.660
 5993TIP3   OH217921   8.300   5.969   4.967
 5993TIP3    H117922   8.335   5.957   4.879
 5993TIP3    H217923   8.213   5.930   4.965
 5994TIP3   OH217924   0.624   6.441   3.631
 5994TIP3    H117925   0.547   6.496   3.616
 5994TIP3    H217926   0.659   6.471   3.715
 5995TIP3   OH217927   4.477   0.567   5.481
 5995TIP3    H117928   4.551   0.574   5.420
 5995TIP3    H217929   4.512   0.597   5.565
 5996TIP3   OH217930   1.116   7.163   3.777
 5996TIP3    H117931   1.117   7.233   3.842
 5996TIP3    H217932   1.208   7.139   3.766
 5997TIP3   OH217933   1.765   7.707   1.309
 5997TIP3    H117934   1.751   7.741   1.397
 5997TIP3    H217935   1.763   7.785   1.252
 5998TIP3   OH217936   0.270   0.726   3.204
 5998TIP3    H117937   0.204   0.794   3.211
 5998TIP3    H217938   0.289   0.720   3.110
 5999TIP3   OH217939   5.419   4.076   3.414
 5999TIP3    H117940   5.450   4.164   3.436
 5999TIP3    H217941   5.385   4.042   3.497
 6000TIP3   OH217942   7.872   3.763   1.704
 6000TIP3    H117943   7.879   3.787   1.796
 6000TIP3    H217944   7.793   3.807   1.674
 6001TIP3   OH217945   3.816   2.592   6.238
 6001TIP3    H117946   3.750   2.532   6.204
 6001TIP3    H217947   3.895   2.571   6.189
 6002TIP3   OH217948   0.606   5.089   4.120
 6002TIP3    H117949   0.692   5.053   4.101
 6002TIP3    H217950   0.545   5.029   4.079
 6003TIP3   OH217951   3.072   1.088   1.859
 6003TIP3    H117952   3.026   1.171   1.859
 6003TIP3    H217953   3.008   1.024   1.890
 6004TIP3   OH217954   7.917   6.695   3.624
 6004TIP3    H117955   7.867   6.772   3.597
 6004TIP3    H217956   7.852   6.625   3.629
 6005TIP3   OH217957   2.283   5.563   4.323
 6005TIP3    H117958   2.359   5.572   4.266
 6005TIP3    H217959   2.209   5.554   4.263
 6006TIP3   OH217960   7.465   1.721   2.858
 6006TIP3    H117961   7.525   1.656   2.895
 6006TIP3    H217962   7.392   1.724   2.920
 6007TIP3   OH217963   7.124   7.171   0.786
 6007TIP3    H117964   7.076   7.251   0.807
 6007TIP3    H217965   7.157   7.185   0.697
 6008TIP3   OH217966   4.330   3.541   2.888
 6008TIP3    H117967   4.249   3.532   2.938
 6008TIP3    H217968   4.400   3.531   2.953
 6009TIP3   OH217969   3.502   7.252   0.264
 6009TIP3    H117970   3.549   7.335   0.274
 6009TIP3    H217971   3.487   7.223   0.354
 6010TIP3   OH217972   4.764   2.001   2.025
 6010TIP3    H117973   4.778   2.091   1.996
 6010TIP3    H217974   4.671   1.985   2.011
 6011TIP3   OH217975   2.220   3.499   2.783
 6011TIP3    H117976   2.256   3.587   2.795
 6011TIP3    H217977   2.248   3.451   2.860
 6012TIP3   OH217978   2.002   1.422   6.635
 6012TIP3    H117979   2.029   1.330   6.641
 6012TIP3    H217980   2.063   1.469   6.690
 6013TIP3   OH217981   2.463   1.558   5.817
 6013TIP3    H117982   2.484   1.511   5.736
 6013TIP3    H217983   2.420   1.492   5.872
 6014TIP3   OH217984   1.496   6.755   6.488
 6014TIP3    H117985   1.467   6.760   6.579
 6014TIP3    H217986   1.583   6.795   6.488
 6015TIP3   OH217987   6.531   1.337   1.432
 6015TIP3    H117988   6.553   1.424   1.464
 6015TIP3    H217989   6.489   1.294   1.506
 6016TIP3   OH217990   3.251   1.132   5.976
 6016TIP3    H117991   3.170   1.082   5.979
 6016TIP3    H217992   3.268   1.146   5.883
 6017TIP3   OH217993   0.036   1.034   0.766
 6017TIP3    H117994  -0.010   1.114   0.793
 6017TIP3    H217995   0.116   1.066   0.723
 6018TIP3   OH217996   1.473   5.566   2.959
 6018TIP3    H117997   1.461   5.502   2.889
 6018TIP3    H217998   1.388   5.571   3.002
 6019TIP3   OH217999   3.790   1.606   6.520
 6019TIP3    H118000   3.707   1.647   6.546
 6019TIP3    H218001   3.843   1.678   6.486
 6020TIP3   OH218002   7.982   4.628   1.670
 6020TIP3    H118003   7.990   4.710   1.718
 6020TIP3    H218004   7.899   4.635   1.623
 6021TIP3   OH218005   3.981   3.636   5.464
 6021TIP3    H118006   3.895   3.613   5.431
 6021TIP3    H218007   3.968   3.655   5.557
 6022TIP3   OH218008   6.005   4.376   5.785
 6022TIP3    H118009   6.002   4.454   5.839
 6022TIP3    H218010   6.099   4.361   5.771
 6023TIP3   OH218011   6.984   4.296   0.782
 6023TIP3    H118012   6.929   4.374   0.782
 6023TIP3    H218013   7.069   4.325   0.814
 6024TIP3   OH218014   4.853   1.778   0.307
 6024TIP3    H118015   4.933   1.734   0.337
 6024TIP3    H218016   4.825   1.726   0.232
 6025TIP3   OH218017   2.179   5.673   0.271
 6025TIP3    H118018   2.228   5.629   0.201
 6025TIP3    H218019   2.146   5.601   0.325
 6026TIP3   OH218020   1.713   6.308   2.141
 6026TIP3    H118021   1.633   6.257   2.130
 6026TIP3    H218022   1.781   6.242   2.156
 6027TIP3   OH218023   1.429   7.304   3.353
 6027TIP3    H118024   1.514   7.262   3.361
 6027TIP3    H218025   1.368   7.233   3.336
 6028TIP3   OH218026   4.618   3.020   6.204
 6028TIP3    H118027   4.534   2.977   6.218
 6028TIP3    H218028   4.668   2.959   6.150
 6029TIP3   OH218029   4.946   4.086   2.880
 6029TIP3    H118030   4.959   4.097   2.786
 6029TIP3    H218031   4.969   3.995   2.898
 6030TIP3   OH218032   3.422   3.897   5.957
 6030TIP3    H118033   3.510   3.878   5.925
 6030TIP3    H218034   3.429   3.987   5.991
 6031TIP3   OH218035   4.171   4.480   2.206
 6031TIP3    H118036   4.195   4.572   2.219
 6031TIP3    H218037   4.252   4.432   2.222
 6032TIP3   OH218038   2.327   5.944   6.189
 6032TIP3    H118039   2.284   5.858   6.182
 6032TIP3    H218040   2.371   5.943   6.274
 6033TIP3   OH218041   0.972   5.067   2.294
 6033TIP3    H118042   0.885   5.047   2.327
 6033TIP3    H218043   0.966   5.052   2.200
 6034TIP3   OH218044   1.604   6.360   3.144
 6034TIP3    H118045   1.664   6.423   3.183
 6034TIP3    H218046   1.536   6.346   3.210
 6035TIP3   OH218047   4.481   7.482   1.182
 6035TIP3    H118048   4.563   7.503   1.137
 6035TIP3    H218049   4.462   7.392   1.156
 6036TIP3   OH218050   4.285   2.185   1.142
 6036TIP3    H118051   4.216   2.252   1.139
 6036TIP3    H218052   4.366   2.235   1.135
 6037TIP3   OH218053   2.537   5.379   5.794
 6037TIP3    H118054   2.521   5.303   5.850
 6037TIP3    H218055   2.496   5.452   5.841
 6038TIP3   OH218056   4.001   6.567   5.342
 6038TIP3    H118057   3.937   6.631   5.310
 6038TIP3    H218058   3.989   6.567   5.436
 6039TIP3   OH218059   3.143   0.369   1.487
 6039TIP3    H118060   3.064   0.424   1.490
 6039TIP3    H218061   3.110   0.279   1.489
 6040TIP3   OH218062   4.966   1.789   2.962
 6040TIP3    H118063   4.872   1.788   2.980
 6040TIP3    H218064   4.972   1.796   2.867
 6041TIP3   OH218065   6.864   4.215   6.631
 6041TIP3    H118066   6.925   4.288   6.616
 6041TIP3    H218067   6.807   4.215   6.554
 6042TIP3   OH218068   7.313   3.129   1.633
 6042TIP3    H118069   7.396   3.153   1.592
 6042TIP3    H218070   7.314   3.173   1.718
 6043TIP3   OH218071   2.911   2.551   5.450
 6043TIP3    H118072   2.823   2.521   5.425
 6043TIP3    H218073   2.915   2.642   5.420
 6044TIP3   OH218074   5.775   5.780   5.766
 6044TIP3    H118075   5.817   5.729   5.836
 6044TIP3    H218076   5.715   5.838   5.812
 6045TIP3   OH218077   4.194   3.853   4.690
 6045TIP3    H118078   4.282   3.825   4.667
 6045TIP3    H218079   4.202   3.894   4.775
 6046TIP3   OH218080   6.108   1.928   6.396
 6046TIP3    H118081   6.186   1.919   6.451
 6046TIP3    H218082   6.142   1.941   6.308
 6047TIP3   OH218083   6.756   3.774   0.423
 6047TIP3    H118084   6.768   3.829   0.500
 6047TIP3    H218085   6.678   3.811   0.381
 6048TIP3   OH218086   5.445   3.470   3.968
 6048TIP3    H118087   5.394   3.524   3.907
 6048TIP3    H218088   5.487   3.404   3.913
 6049TIP3   OH218089   4.821   4.229   5.495
 6049TIP3    H118090   4.855   4.316   5.475
 6049TIP3    H218091   4.881   4.169   5.451
 6050TIP3   OH218092   0.570   4.689   4.903
 6050TIP3    H118093   0.585   4.624   4.971
 6050TIP3    H218094   0.581   4.773   4.947
 6051TIP3   OH218095   1.001   6.023   0.892
 6051TIP3    H118096   0.906   6.023   0.883
 6051TIP3    H218097   1.017   5.989   0.980
 6052TIP3   OH218098   5.754   0.439   0.798
 6052TIP3    H118099   5.840   0.418   0.835
 6052TIP3    H218100   5.691   0.400   0.859
 6053TIP3   OH218101   1.378   1.831   4.297
 6053TIP3    H118102   1.310   1.766   4.283
 6053TIP3    H218103   1.430   1.796   4.370
 6054TIP3   OH218104   4.532   2.014   6.558
 6054TIP3    H118105   4.628   2.011   6.562
 6054TIP3    H218106   4.504   2.008   6.650
 6055TIP3   OH218107   4.008   3.095   6.304
 6055TIP3    H118108   3.996   3.000   6.299
 6055TIP3    H218109   4.067   3.107   6.378
 6056TIP3   OH218110   8.171   5.025   0.444
 6056TIP3    H118111   8.197   4.934   0.430
 6056TIP3    H218112   8.080   5.019   0.475
 6057TIP3   OH218113   0.436   2.159   4.358
 6057TIP3    H118114   0.484   2.148   4.276
 6057TIP3    H218115   0.472   2.239   4.397
 6058TIP3   OH218116   2.050   3.261   3.147
 6058TIP3    H118117   2.049   3.267   3.242
 6058TIP3    H218118   1.970   3.212   3.125
 6059TIP3   OH218119   2.828   1.182   2.323
 6059TIP3    H118120   2.868   1.257   2.278
 6059TIP3    H218121   2.830   1.205   2.416
 6060TIP3   OH218122   2.805   7.468   5.662
 6060TIP3    H118123   2.857   7.474   5.741
 6060TIP3    H218124   2.776   7.557   5.645
 6061TIP3   OH218125   5.108   7.452   0.767
 6061TIP3    H118126   5.132   7.388   0.834
 6061TIP3    H218127   5.111   7.403   0.685
 6062TIP3   OH218128   2.668   6.421   0.233
 6062TIP3    H118129   2.721   6.357   0.185
 6062TIP3    H218130   2.724   6.449   0.305
 6063TIP3   OH218131   4.752   3.182   0.167
 6063TIP3    H118132   4.727   3.223   0.084
 6063TIP3    H218133   4.845   3.202   0.177
 6064TIP3   OH218134   6.950   5.736   3.382
 6064TIP3    H118135   6.881   5.750   3.447
 6064TIP3    H218136   6.935   5.647   3.349
 6065TIP3   OH218137   3.488   7.487   6.608
 6065TIP3    H118138   3.398   7.455   6.617
 6065TIP3    H218139   3.491   7.564   6.665
 6066TIP3   OH218140   6.126   1.708   2.702
 6066TIP3    H118141   6.102   1.792   2.741
 6066TIP3    H218142   6.218   1.717   2.679
 6067TIP3   OH218143   7.563   0.935   3.542
 6067TIP3    H118144   7.557   1.023   3.578
 6067TIP3    H218145   7.654   0.928   3.512
 6068TIP3   OH218146   0.341   4.161   3.131
 6068TIP3    H118147   0.335   4.201   3.218
 6068TIP3    H218148   0.258   4.183   3.088
 6069TIP3   OH218149   7.452   3.438   3.839
 6069TIP3    H118150   7.373   3.385   3.832
 6069TIP3    H218151   7.424   3.519   3.880
 6070TIP3   OH218152   5.576   7.684   4.742
 6070TIP3    H118153   5.518   7.689   4.818
 6070TIP3    H218154   5.517   7.683   4.666
 6071TIP3   OH218155   7.811   0.639   0.239
 6071TIP3    H118156   7.771   0.610   0.321
 6071TIP3    H218157   7.741   0.685   0.193
 6072TIP3   OH218158   5.664   3.268   0.842
 6072TIP3    H118159   5.623   3.196   0.794
 6072TIP3    H218160   5.592   3.327   0.863
 6073TIP3   OH218161   7.762   2.241   0.018
 6073TIP3    H118162   7.838   2.256  -0.038
 6073TIP3    H218163   7.772   2.151   0.048
 6074TIP3   OH218164   1.765   1.402   5.294
 6074TIP3    H118165   1.762   1.373   5.203
 6074TIP3    H218166   1.733   1.327   5.344
 6075TIP3   OH218167   6.921   1.117   3.635
 6075TIP3    H118168   6.833   1.120   3.598
 6075TIP3    H218169   6.950   1.027   3.620
 6076TIP3   OH218170   0.853   0.967   4.498
 6076TIP3    H118171   0.774   0.942   4.451
 6076TIP3    H218172   0.914   0.995   4.431
 6077TIP3   OH218173   5.706   2.560   4.361
 6077TIP3    H118174   5.747   2.506   4.294
 6077TIP3    H218175   5.622   2.516   4.379
 6078TIP3   OH218176   3.272   7.107   4.787
 6078TIP3    H118177   3.240   7.073   4.871
 6078TIP3    H218178   3.194   7.117   4.734
 6079TIP3   OH218179   7.127   1.695   5.460
 6079TIP3    H118180   7.120   1.604   5.490
 6079TIP3    H218181   7.161   1.742   5.536
 6080TIP3   OH218182   0.212   6.390   3.814
 6080TIP3    H118183   0.280   6.441   3.859
 6080TIP3    H218184   0.204   6.310   3.866
 6081TIP3   OH218185   1.283   1.830   4.601
 6081TIP3    H118186   1.370   1.831   4.563
 6081TIP3    H218187   1.275   1.743   4.640
 6082TIP3   OH218188   6.120   1.318   4.108
 6082TIP3    H118189   6.162   1.402   4.089
 6082TIP3    H218190   6.088   1.327   4.198
 6083TIP3   OH218191   2.166   0.564   0.392
 6083TIP3    H118192   2.157   0.655   0.363
 6083TIP3    H218193   2.076   0.536   0.409
 6084TIP3   OH218194   5.301   5.215   2.548
 6084TIP3    H118195   5.276   5.238   2.459
 6084TIP3    H218196   5.237   5.149   2.574
 6085TIP3   OH218197   6.143   3.596   1.379
 6085TIP3    H118198   6.071   3.534   1.389
 6085TIP3    H218199   6.101   3.682   1.374
 6086TIP3   OH218200   7.640   0.970   2.587
 6086TIP3    H118201   7.547   0.955   2.602
 6086TIP3    H218202   7.683   0.894   2.627
 6087TIP3   OH218203   5.210   4.434   1.203
 6087TIP3    H118204   5.183   4.466   1.117
 6087TIP3    H218205   5.174   4.498   1.264
 6088TIP3   OH218206   5.627   3.989   4.318
 6088TIP3    H118207   5.667   4.025   4.397
 6088TIP3    H218208   5.536   4.017   4.323
 6089TIP3   OH218209   5.481   1.209   0.605
 6089TIP3    H118210   5.404   1.198   0.660
 6089TIP3    H218211   5.449   1.254   0.527
 6090TIP3   OH218212   5.469   1.070   2.515
 6090TIP3    H118213   5.463   1.163   2.534
 6090TIP3    H218214   5.537   1.062   2.449
 6091TIP3   OH218215   4.979   5.369   4.587
 6091TIP3    H118216   4.885   5.370   4.567
 6091TIP3    H218217   5.022   5.393   4.505
 6092TIP3   OH218218   1.233   4.882   3.827
 6092TIP3    H118219   1.179   4.961   3.834
 6092TIP3    H218220   1.200   4.824   3.896
 6093TIP3   OH218221   4.651   0.348   4.170
 6093TIP3    H118222   4.732   0.385   4.134
 6093TIP3    H218223   4.675   0.322   4.260
 6094TIP3   OH218224   4.075   5.442   0.774
 6094TIP3    H118225   3.994   5.421   0.822
 6094TIP3    H218226   4.074   5.381   0.700
 6095TIP3   OH218227   3.810   1.914   2.456
 6095TIP3    H118228   3.824   1.841   2.395
 6095TIP3    H218229   3.865   1.894   2.531
 6096TIP3   OH218230   0.507   4.262   4.894
 6096TIP3    H118231   0.536   4.258   4.985
 6096TIP3    H218232   0.430   4.319   4.895
 6097TIP3   OH218233   7.692   1.499   1.491
 6097TIP3    H118234   7.658   1.415   1.521
 6097TIP3    H218235   7.700   1.489   1.396
 6098TIP3   OH218236   6.539   7.488   0.256
 6098TIP3    H118237   6.480   7.415   0.276
 6098TIP3    H218238   6.490   7.541   0.194
 6099TIP3   OH218239   3.856   3.887   0.300
 6099TIP3    H118240   3.768   3.872   0.265
 6099TIP3    H218241   3.909   3.815   0.265
 6100TIP3   OH218242   7.933   0.722   5.516
 6100TIP3    H118243   7.912   0.758   5.429
 6100TIP3    H218244   7.851   0.682   5.545
 6101TIP3   OH218245   1.757   0.809   6.448
 6101TIP3    H118246   1.704   0.859   6.511
 6101TIP3    H218247   1.711   0.726   6.439
 6102TIP3   OH218248   8.279   6.327   0.804
 6102TIP3    H118249   8.239   6.328   0.717
 6102TIP3    H218250   8.362   6.372   0.792
 6103TIP3   OH218251   3.693   6.304   4.274
 6103TIP3    H118252   3.708   6.251   4.353
 6103TIP3    H218253   3.730   6.389   4.295
 6104TIP3   OH218254   6.279   5.944   2.233
 6104TIP3    H118255   6.293   6.016   2.173
 6104TIP3    H218256   6.186   5.948   2.255
 6105TIP3   OH218257   2.012   7.650   2.391
 6105TIP3    H118258   2.008   7.701   2.472
 6105TIP3    H218259   2.063   7.704   2.331
 6106TIP3   OH218260   7.440   6.447   6.147
 6106TIP3    H118261   7.425   6.406   6.062
 6106TIP3    H218262   7.533   6.433   6.165
 6107TIP3   OH218263   0.754   5.773   4.174
 6107TIP3    H118264   0.822   5.791   4.239
 6107TIP3    H218265   0.776   5.687   4.139
 6108TIP3   OH218266   1.796   3.049  -0.003
 6108TIP3    H118267   1.744   3.119  -0.041
 6108TIP3    H218268   1.755   3.031   0.081
 6109TIP3   OH218269   0.899   6.801   4.875
 6109TIP3    H118270   0.819   6.776   4.919
 6109TIP3    H218271   0.948   6.852   4.940
 6110TIP3   OH218272   1.409   7.206   3.922
 6110TIP3    H118273   1.343   7.271   3.944
 6110TIP3    H218274   1.457   7.244   3.849
 6111TIP3   OH218275   4.866   3.120   5.992
 6111TIP3    H118276   4.789   3.153   6.038
 6111TIP3    H218277   4.922   3.197   5.980
 6112TIP3   OH218278   1.711   6.970   4.976
 6112TIP3    H118279   1.632   6.980   5.030
 6112TIP3    H218280   1.692   6.895   4.920
 6113TIP3   OH218281   7.801   3.336   3.736
 6113TIP3    H118282   7.784   3.421   3.778
 6113TIP3    H218283   7.896   3.334   3.725
 6114TIP3   OH218284   3.881   2.497   1.289
 6114TIP3    H118285   3.974   2.472   1.290
 6114TIP3    H218286   3.859   2.498   1.196
 6115TIP3   OH218287   5.067   0.318   0.882
 6115TIP3    H118288   5.118   0.388   0.842
 6115TIP3    H218289   5.055   0.254   0.812
 6116TIP3   OH218290   1.946   4.200   6.112
 6116TIP3    H118291   2.004   4.198   6.188
 6116TIP3    H218292   1.860   4.177   6.146
 6117TIP3   OH218293   6.866   6.665   4.945
 6117TIP3    H118294   6.801   6.645   5.013
 6117TIP3    H218295   6.938   6.605   4.963
 6118TIP3   OH218296   4.854   5.627   0.857
 6118TIP3    H118297   4.821   5.657   0.942
 6118TIP3    H218298   4.823   5.536   0.851
 6119TIP3   OH218299   7.746   0.946   6.247
 6119TIP3    H118300   7.793   0.871   6.283
 6119TIP3    H218301   7.710   0.914   6.164
 6120TIP3   OH218302   6.476   2.315   2.957
 6120TIP3    H118303   6.436   2.401   2.973
 6120TIP3    H218304   6.520   2.293   3.040
 6121TIP3   OH218305   1.161   1.314   2.452
 6121TIP3    H118306   1.147   1.373   2.378
 6121TIP3    H218307   1.081   1.321   2.504
 6122TIP3   OH218308   6.784   5.524   6.645
 6122TIP3    H118309   6.808   5.432   6.659
 6122TIP3    H218310   6.868   5.569   6.642
 6123TIP3   OH218311   3.041   5.159   0.029
 6123TIP3    H118312   3.122   5.175   0.079
 6123TIP3    H218313   3.066   5.176  -0.062
 6124TIP3   OH218314   6.345   5.768   1.203
 6124TIP3    H118315   6.391   5.692   1.167
 6124TIP3    H218316   6.328   5.824   1.128
 6125TIP3   OH218317   6.565   3.616   3.191
 6125TIP3    H118318   6.558   3.711   3.179
 6125TIP3    H218319   6.542   3.580   3.105
 6126TIP3   OH218320   0.991   2.590   3.457
 6126TIP3    H118321   0.956   2.635   3.380
 6126TIP3    H218322   0.995   2.498   3.431
 6127TIP3   OH218323   6.204   6.056   2.873
 6127TIP3    H118324   6.260   6.010   2.811
 6127TIP3    H218325   6.146   6.109   2.818
 6128TIP3   OH218326   0.746   3.206   3.920
 6128TIP3    H118327   0.832   3.246   3.930
 6128TIP3    H218328   0.738   3.190   3.826
 6129TIP3   OH218329   0.321   0.209   4.038
 6129TIP3    H118330   0.311   0.157   3.958
 6129TIP3    H218331   0.249   0.180   4.094
 6130TIP3   OH218332   1.639   2.872   1.337
 6130TIP3    H118333   1.611   2.950   1.291
 6130TIP3    H218334   1.559   2.821   1.350
 6131TIP3   OH218335   5.552   1.776   4.812
 6131TIP3    H118336   5.567   1.842   4.880
 6131TIP3    H218337   5.590   1.814   4.733
 6132TIP3   OH218338   6.086   4.404   3.873
 6132TIP3    H118339   6.137   4.326   3.852
 6132TIP3    H218340   6.149   4.464   3.913
 6133TIP3   OH218341   7.298   4.626   0.278
 6133TIP3    H118342   7.274   4.676   0.200
 6133TIP3    H218343   7.214   4.605   0.320
 6134TIP3   OH218344   5.539   7.048   4.808
 6134TIP3    H118345   5.449   7.041   4.777
 6134TIP3    H218346   5.584   6.976   4.765
 6135TIP3   OH218347   1.211   6.843   2.591
 6135TIP3    H118348   1.276   6.773   2.597
 6135TIP3    H218349   1.175   6.849   2.680
 6136TIP3   OH218350   3.830   1.478   2.042
 6136TIP3    H118351   3.832   1.530   2.123
 6136TIP3    H218352   3.863   1.392   2.068
 6137TIP3   OH218353   3.450   2.719   3.933
 6137TIP3    H118354   3.433   2.638   3.981
 6137TIP3    H218355   3.458   2.692   3.842
 6138TIP3   OH218356   5.376   4.595   1.673
 6138TIP3    H118357   5.300   4.620   1.725
 6138TIP3    H218358   5.444   4.575   1.738
 6139TIP3   OH218359   5.677   5.386   6.642
 6139TIP3    H118360   5.736   5.454   6.611
 6139TIP3    H218361   5.595   5.402   6.595
 6140TIP3   OH218362   4.389   7.007   0.247
 6140TIP3    H118363   4.335   6.959   0.184
 6140TIP3    H218364   4.427   7.079   0.195
 6141TIP3   OH218365   4.672   0.802   5.089
 6141TIP3    H118366   4.664   0.853   5.169
 6141TIP3    H218367   4.734   0.732   5.110
 6142TIP3   OH218368   8.247   6.885   2.227
 6142TIP3    H118369   8.152   6.880   2.231
 6142TIP3    H218370   8.264   6.957   2.166
 6143TIP3   OH218371   3.154   0.770   4.285
 6143TIP3    H118372   3.117   0.840   4.338
 6143TIP3    H218373   3.241   0.756   4.323
 6144TIP3   OH218374   4.697   0.371   4.664
 6144TIP3    H118375   4.639   0.420   4.722
 6144TIP3    H218376   4.750   0.438   4.619
 6145TIP3   OH218377   7.310   7.706   6.762
 6145TIP3    H118378   7.294   7.659   6.680
 6145TIP3    H218379   7.399   7.683   6.786
 6146TIP3   OH218380   3.261   6.968   1.637
 6146TIP3    H118381   3.271   6.997   1.546
 6146TIP3    H218382   3.235   7.047   1.684
 6147TIP3   OH218383   5.642   6.673   4.876
 6147TIP3    H118384   5.555   6.635   4.888
 6147TIP3    H218385   5.652   6.680   4.781
 6148TIP3   OH218386   3.834   1.193   5.010
 6148TIP3    H118387   3.844   1.282   4.975
 6148TIP3    H218388   3.749   1.194   5.054
 6149TIP3   OH218389   3.586   6.665   2.670
 6149TIP3    H118390   3.669   6.699   2.638
 6149TIP3    H218391   3.605   6.576   2.699
 6150TIP3   OH218392   1.783   0.650   2.312
 6150TIP3    H118393   1.786   0.556   2.324
 6150TIP3    H218394   1.854   0.684   2.366
 6151TIP3   OH218395   1.552   6.408   2.882
 6151TIP3    H118396   1.518   6.339   2.825
 6151TIP3    H218397   1.569   6.364   2.965
 6152TIP3   OH218398   0.834   3.045   4.113
 6152TIP3    H118399   0.771   3.100   4.065
 6152TIP3    H218400   0.779   2.994   4.172
 6153TIP3   OH218401   0.840   1.082   6.219
 6153TIP3    H118402   0.880   1.067   6.133
 6153TIP3    H218403   0.775   1.012   6.229
 6154TIP3   OH218404   7.125   4.103   2.363
 6154TIP3    H118405   7.062   4.145   2.304
 6154TIP3    H218406   7.096   4.012   2.368
 6155TIP3   OH218407   5.888   4.859   4.327
 6155TIP3    H118408   5.944   4.932   4.356
 6155TIP3    H218409   5.944   4.808   4.268
 6156TIP3   OH218410   1.231   1.253   3.777
 6156TIP3    H118411   1.295   1.324   3.768
 6156TIP3    H218412   1.277   1.176   3.743
 6157TIP3   OH218413   5.682   2.781   0.108
 6157TIP3    H118414   5.597   2.815   0.137
 6157TIP3    H218415   5.698   2.825   0.025
 6158TIP3   OH218416   8.102   7.521   4.330
 6158TIP3    H118417   8.182   7.547   4.377
 6158TIP3    H218418   8.133   7.474   4.253
 6159TIP3   OH218419   6.430   0.829   5.218
 6159TIP3    H118420   6.450   0.739   5.243
 6159TIP3    H218421   6.338   0.826   5.193
 6160TIP3   OH218422   4.388   7.122   6.611
 6160TIP3    H118423   4.435   7.187   6.558
 6160TIP3    H218424   4.297   7.132   6.584
 6161TIP3   OH218425   0.735   7.183   2.824
 6161TIP3    H118426   0.793   7.241   2.875
 6161TIP3    H218427   0.651   7.187   2.870
 6162TIP3   OH218428   6.968   3.233   0.207
 6162TIP3    H118429   6.947   3.305   0.267
 6162TIP3    H218430   7.001   3.164   0.264
 6163TIP3   OH218431   3.813   7.028   0.257
 6163TIP3    H118432   3.777   6.987   0.178
 6163TIP3    H218433   3.736   7.062   0.303
 6164TIP3   OH218434   5.253   6.208   4.110
 6164TIP3    H118435   5.266   6.181   4.200
 6164TIP3    H218436   5.249   6.127   4.060
 6165TIP3   OH218437   2.484   0.504   3.251
 6165TIP3    H118438   2.491   0.419   3.208
 6165TIP3    H218439   2.393   0.530   3.236
 6166TIP3   OH218440   7.066   2.502   5.954
 6166TIP3    H118441   7.140   2.442   5.964
 6166TIP3    H218442   7.091   2.560   5.882
 6167TIP3   OH218443   1.498   3.427   2.471
 6167TIP3    H118444   1.507   3.376   2.391
 6167TIP3    H218445   1.588   3.449   2.496
 6168TIP3   OH218446   7.099   0.350   1.937
 6168TIP3    H118447   7.088   0.403   2.016
 6168TIP3    H218448   7.011   0.318   1.916
 6169TIP3   OH218449   8.320   0.613   3.059
 6169TIP3    H118450   8.258   0.630   2.988
 6169TIP3    H218451   8.316   0.691   3.114
 6170TIP3   OH218452   6.616   2.241   4.368
 6170TIP3    H118453   6.552   2.173   4.387
 6170TIP3    H218454   6.675   2.200   4.303
 6171TIP3   OH218455   8.126   2.596   5.250
 6171TIP3    H118456   8.215   2.625   5.269
 6171TIP3    H218457   8.127   2.502   5.271
 6172TIP3   OH218458   7.258   6.743   1.534
 6172TIP3    H118459   7.329   6.757   1.596
 6172TIP3    H218460   7.192   6.807   1.559
 6173TIP3   OH218461   2.858   6.259   5.157
 6173TIP3    H118462   2.792   6.253   5.227
 6173TIP3    H218463   2.815   6.223   5.080
 6174TIP3   OH218464   2.522   3.090   4.745
 6174TIP3    H118465   2.510   3.002   4.780
 6174TIP3    H218466   2.538   3.078   4.652
 6175TIP3   OH218467   3.855   1.367   2.937
 6175TIP3    H118468   3.773   1.328   2.908
 6175TIP3    H218469   3.908   1.292   2.964
 6176TIP3   OH218470   5.944   6.952   5.236
 6176TIP3    H118471   5.875   6.911   5.289
 6176TIP3    H218472   5.925   6.924   5.146
 6177TIP3   OH218473   5.885   4.462   4.356
 6177TIP3    H118474   5.828   4.386   4.369
 6177TIP3    H218475   5.889   4.504   4.443
 6178TIP3   OH218476   6.093   3.490   1.690
 6178TIP3    H118477   6.008   3.445   1.696
 6178TIP3    H218478   6.157   3.425   1.717
 6179TIP3   OH218479   3.984   5.960   5.551
 6179TIP3    H118480   3.944   5.967   5.637
 6179TIP3    H218481   3.925   6.009   5.493
 6180TIP3   OH218482   5.403   5.552   2.322
 6180TIP3    H118483   5.408   5.597   2.406
 6180TIP3    H218484   5.310   5.553   2.299
 6181TIP3   OH218485   7.321   1.290   6.768
 6181TIP3    H118486   7.310   1.328   6.681
 6181TIP3    H218487   7.393   1.227   6.758
 6182TIP3   OH218488   3.533   4.161   3.913
 6182TIP3    H118489   3.579   4.224   3.857
 6182TIP3    H218490   3.442   4.192   3.913
 6183TIP3   OH218491   7.529   0.139   0.474
 6183TIP3    H118492   7.615   0.175   0.495
 6183TIP3    H218493   7.480   0.144   0.557
 6184TIP3   OH218494   1.930   0.258   3.568
 6184TIP3    H118495   1.928   0.286   3.477
 6184TIP3    H218496   1.867   0.315   3.612
 6185TIP3   OH218497   0.324   2.224   0.898
 6185TIP3    H118498   0.406   2.232   0.849
 6185TIP3    H218499   0.352   2.216   0.989
 6186TIP3   OH218500   2.933   4.630   4.750
 6186TIP3    H118501   2.985   4.706   4.774
 6186TIP3    H218502   2.887   4.606   4.830
 6187TIP3   OH218503   3.359   5.414   2.316
 6187TIP3    H118504   3.384   5.495   2.362
 6187TIP3    H218505   3.271   5.432   2.282
 6188TIP3   OH218506   5.892   2.107   4.534
 6188TIP3    H118507   5.836   2.179   4.564
 6188TIP3    H218508   5.910   2.057   4.613
 6189TIP3   OH218509   3.707   5.820   3.187
 6189TIP3    H118510   3.718   5.767   3.266
 6189TIP3    H218511   3.773   5.888   3.194
 6190TIP3   OH218512   2.102   4.136   0.110
 6190TIP3    H118513   2.071   4.220   0.144
 6190TIP3    H218514   2.075   4.134   0.019
 6191TIP3   OH218515   5.850   1.938   2.103
 6191TIP3    H118516   5.790   1.873   2.140
 6191TIP3    H218517   5.892   1.978   2.179
 6192TIP3   OH218518   2.778   3.075   4.178
 6192TIP3    H118519   2.843   3.133   4.139
 6192TIP3    H218520   2.723   3.133   4.231
 6193TIP3   OH218521   0.177   3.007   1.532
 6193TIP3    H118522   0.234   3.042   1.463
 6193TIP3    H218523   0.221   2.927   1.561
 6194TIP3   OH218524   5.673   7.023   4.341
 6194TIP3    H118525   5.607   7.082   4.305
 6194TIP3    H218526   5.668   6.945   4.287
 6195TIP3   OH218527   7.414   1.929   2.633
 6195TIP3    H118528   7.442   1.856   2.689
 6195TIP3    H218529   7.452   2.007   2.674
 6196TIP3   OH218530   0.440   1.302   1.141
 6196TIP3    H118531   0.491   1.314   1.060
 6196TIP3    H218532   0.350   1.287   1.110
 6197TIP3   OH218533   5.063   0.144   0.673
 6197TIP3    H118534   5.157   0.126   0.664
 6197TIP3    H218535   5.021   0.062   0.648
 6198TIP3   OH218536   7.503   1.264   0.907
 6198TIP3    H118537   7.585   1.253   0.858
 6198TIP3    H218538   7.516   1.212   0.987
 6199TIP3   OH218539   1.857   2.072   6.202
 6199TIP3    H118540   1.899   2.158   6.212
 6199TIP3    H218541   1.880   2.045   6.113
 6200TIP3   OH218542   6.187   6.712   0.990
 6200TIP3    H118543   6.237   6.713   0.908
 6200TIP3    H218544   6.103   6.673   0.966
 6201TIP3   OH218545   8.029   2.770   6.722
 6201TIP3    H118546   7.934   2.773   6.728
 6201TIP3    H218547   8.059   2.749   6.810
 6202TIP3   OH218548   5.103   6.853   6.506
 6202TIP3    H118549   5.044   6.828   6.435
 6202TIP3    H218550   5.083   6.945   6.523
 6203TIP3   OH218551   2.928   5.478   5.800
 6203TIP3    H118552   2.860   5.482   5.733
 6203TIP3    H218553   2.981   5.402   5.776
 6204TIP3   OH218554   6.216   3.113   5.942
 6204TIP3    H118555   6.166   3.126   5.862
 6204TIP3    H218556   6.202   3.021   5.965
 6205TIP3   OH218557   5.345   1.841   4.288
 6205TIP3    H118558   5.361   1.909   4.354
 6205TIP3    H218559   5.260   1.864   4.251
 6206TIP3   OH218560   5.566   1.859   1.605
 6206TIP3    H118561   5.643   1.915   1.608
 6206TIP3    H218562   5.494   1.915   1.634
 6207TIP3   OH218563   1.658   3.304   6.092
 6207TIP3    H118564   1.601   3.351   6.031
 6207TIP3    H218565   1.742   3.350   6.088
 6208TIP3   OH218566   6.952   4.065   3.290
 6208TIP3    H118567   6.921   4.111   3.212
 6208TIP3    H218568   7.013   3.999   3.257
 6209TIP3   OH218569   7.224   7.392   4.202
 6209TIP3    H118570   7.276   7.406   4.123
 6209TIP3    H218571   7.190   7.479   4.224
 6210TIP3   OH218572   4.488   4.913   0.310
 6210TIP3    H118573   4.456   4.852   0.377
 6210TIP3    H218574   4.410   4.940   0.263
 6211TIP3   OH218575   6.024   4.341   3.264
 6211TIP3    H118576   5.983   4.355   3.349
 6211TIP3    H218577   5.978   4.266   3.227
 6212TIP3   OH218578   8.005   4.945   3.256
 6212TIP3    H118579   7.964   4.867   3.293
 6212TIP3    H218580   8.091   4.915   3.226
 6213TIP3   OH218581   4.704   0.541   5.337
 6213TIP3    H118582   4.778   0.562   5.281
 6213TIP3    H218583   4.743   0.515   5.421
 6214TIP3   OH218584   4.168   5.825   3.564
 6214TIP3    H118585   4.106   5.832   3.637
 6214TIP3    H218586   4.230   5.897   3.579
 6215TIP3   OH218587   4.181   7.617   5.604
 6215TIP3    H118588   4.116   7.568   5.554
 6215TIP3    H218589   4.239   7.654   5.538
 6216TIP3   OH218590   5.926   2.978   5.993
 6216TIP3    H118591   5.896   3.066   5.969
 6216TIP3    H218592   5.911   2.972   6.087
 6217TIP3   OH218593   4.409   5.497   2.244
 6217TIP3    H118594   4.316   5.517   2.245
 6217TIP3    H218595   4.442   5.541   2.165
 6218TIP3   OH218596   6.061   4.267   2.821
 6218TIP3    H118597   6.093   4.210   2.891
 6218TIP3    H218598   5.991   4.318   2.862
 6219TIP3   OH218599   3.137   5.764   4.876
 6219TIP3    H118600   3.199   5.731   4.942
 6219TIP3    H218601   3.071   5.695   4.869
 6220TIP3   OH218602   2.071   1.312   0.533
 6220TIP3    H118603   1.995   1.281   0.581
 6220TIP3    H218604   2.045   1.397   0.498
 6221TIP3   OH218605   7.520   3.259   3.353
 6221TIP3    H118606   7.544   3.326   3.289
 6221TIP3    H218607   7.441   3.219   3.317
 6222TIP3   OH218608   7.024   2.556   3.292
 6222TIP3    H118609   7.016   2.572   3.198
 6222TIP3    H218610   6.974   2.627   3.332
 6223TIP3   OH218611   7.570   3.972   6.212
 6223TIP3    H118612   7.639   4.010   6.158
 6223TIP3    H218613   7.556   3.885   6.174
 6224TIP3   OH218614   5.825   2.929   5.405
 6224TIP3    H118615   5.837   3.019   5.435
 6224TIP3    H218616   5.760   2.892   5.464
 6225TIP3   OH218617   0.122   2.135   1.852
 6225TIP3    H118618   0.115   2.192   1.776
 6225TIP3    H218619   0.173   2.185   1.915
 6226TIP3   OH218620   4.412   3.580   5.000
 6226TIP3    H118621   4.460   3.566   4.919
 6226TIP3    H218622   4.417   3.496   5.046
 6227TIP3   OH218623   7.207   0.896   1.757
 6227TIP3    H118624   7.137   0.839   1.791
 6227TIP3    H218625   7.288   0.850   1.777
 6228TIP3   OH218626   5.690   2.095   5.231
 6228TIP3    H118627   5.729   2.026   5.285
 6228TIP3    H218628   5.765   2.142   5.195
 6229TIP3   OH218629   2.901   1.571   5.865
 6229TIP3    H118630   2.911   1.485   5.825
 6229TIP3    H218631   2.988   1.591   5.899
 6230TIP3   OH218632   8.014   4.858   4.785
 6230TIP3    H118633   7.941   4.797   4.773
 6230TIP3    H218634   8.087   4.803   4.814
 6231TIP3   OH218635   5.451   7.788   4.509
 6231TIP3    H118636   5.520   7.849   4.482
 6231TIP3    H218637   5.372   7.842   4.511
 6232TIP3   OH218638   1.641   5.486   4.566
 6232TIP3    H118639   1.624   5.477   4.472
 6232TIP3    H218640   1.694   5.409   4.589
 6233TIP3   OH218641   4.386   5.080   1.082
 6233TIP3    H118642   4.331   5.146   1.124
 6233TIP3    H218643   4.422   5.029   1.154
 6234TIP3   OH218644   0.300   1.993   5.893
 6234TIP3    H118645   0.289   2.006   5.799
 6234TIP3    H218646   0.211   1.988   5.927
 6235TIP3   OH218647   7.631   6.215   3.317
 6235TIP3    H118648   7.543   6.227   3.351
 6235TIP3    H218649   7.625   6.243   3.225
 6236TIP3   OH218650   7.195   5.438   3.197
 6236TIP3    H118651   7.247   5.364   3.167
 6236TIP3    H218652   7.258   5.496   3.241
 6237TIP3   OH218653   0.902   6.260   4.259
 6237TIP3    H118654   0.960   6.312   4.203
 6237TIP3    H218655   0.815   6.297   4.242
 6238TIP3   OH218656   0.313   0.666   2.327
 6238TIP3    H118657   0.378   0.718   2.373
 6238TIP3    H218658   0.248   0.643   2.394
 6239TIP3   OH218659   1.338   5.374   4.176
 6239TIP3    H118660   1.336   5.340   4.086
 6239TIP3    H218661   1.257   5.425   4.184
 6240TIP3   OH218662   1.582   2.994   0.865
 6240TIP3    H118663   1.639   2.980   0.789
 6240TIP3    H218664   1.619   3.069   0.910
 6241TIP3   OH218665   5.076   2.419   1.325
 6241TIP3    H118666   5.010   2.438   1.391
 6241TIP3    H218667   5.153   2.468   1.352
 6242TIP3   OH218668   4.363   2.939   6.364
 6242TIP3    H118669   4.317   2.858   6.383
 6242TIP3    H218670   4.321   2.973   6.285
 6243TIP3   OH218671   1.397   5.665   6.722
 6243TIP3    H118672   1.465   5.601   6.746
 6243TIP3    H218673   1.444   5.732   6.671
 6244TIP3   OH218674   6.793   7.367   5.310
 6244TIP3    H118675   6.830   7.428   5.374
 6244TIP3    H218676   6.852   7.291   5.312
 6245TIP3   OH218677   1.136   6.411   2.017
 6245TIP3    H118678   1.116   6.472   1.947
 6245TIP3    H218679   1.230   6.395   2.009
 6246TIP3   OH218680   6.947   5.612   2.206
 6246TIP3    H118681   7.000   5.556   2.262
 6246TIP3    H218682   6.862   5.567   2.200
 6247TIP3   OH218683   3.083   7.118   5.730
 6247TIP3    H118684   2.996   7.090   5.759
 6247TIP3    H218685   3.065   7.194   5.674
 6248TIP3   OH218686   8.176   5.277   1.092
 6248TIP3    H118687   8.168   5.185   1.117
 6248TIP3    H218688   8.267   5.300   1.111
 6249TIP3   OH218689   2.205   0.613   4.016
 6249TIP3    H118690   2.205   0.707   3.994
 6249TIP3    H218691   2.179   0.611   4.108
 6250TIP3   OH218692   5.484   2.545   3.084
 6250TIP3    H118693   5.547   2.608   3.119
 6250TIP3    H218694   5.403   2.594   3.077
 6251TIP3   OH218695   0.848   5.597   5.582
 6251TIP3    H118696   0.889   5.652   5.649
 6251TIP3    H218697   0.765   5.641   5.563
 6252TIP3   OH218698   0.609   5.432   2.112
 6252TIP3    H118699   0.644   5.521   2.110
 6252TIP3    H218700   0.562   5.427   2.196
 6253TIP3   OH218701   3.057   7.416   0.793
 6253TIP3    H118702   3.146   7.384   0.810
 6253TIP3    H218703   3.005   7.381   0.865
 6254TIP3   OH218704   3.976   1.661   3.271
 6254TIP3    H118705   3.887   1.649   3.302
 6254TIP3    H218706   4.021   1.580   3.295
 6255TIP3   OH218707   0.584   4.816   3.808
 6255TIP3    H118708   0.585   4.885   3.741
 6255TIP3    H218709   0.504   4.833   3.858
 6256TIP3   OH218710   8.062   3.864   5.179
 6256TIP3    H118711   8.119   3.858   5.256
 6256TIP3    H218712   8.118   3.837   5.107
 6257TIP3   OH218713   4.560   1.546   0.455
 6257TIP3    H118714   4.623   1.585   0.516
 6257TIP3    H218715   4.538   1.462   0.494
 6258TIP3   OH218716   0.904   0.788   0.581
 6258TIP3    H118717   0.877   0.850   0.513
 6258TIP3    H218718   0.846   0.807   0.655
 6259TIP3   OH218719   6.073   7.045   3.365
 6259TIP3    H118720   6.146   7.088   3.321
 6259TIP3    H218721   6.067   7.088   3.450
 6260TIP3   OH218722   5.174   4.679   0.398
 6260TIP3    H118723   5.228   4.754   0.425
 6260TIP3    H218724   5.107   4.673   0.466
 6261TIP3   OH218725   1.287   2.279   1.058
 6261TIP3    H118726   1.277   2.307   0.967
 6261TIP3    H218727   1.280   2.183   1.054
 6262TIP3   OH218728   4.266   5.002   6.720
 6262TIP3    H118729   4.296   4.979   6.808
 6262TIP3    H218730   4.172   5.017   6.729
 6263TIP3   OH218731   7.767   7.709   1.516
 6263TIP3    H118732   7.703   7.665   1.572
 6263TIP3    H218733   7.826   7.754   1.577
 6264TIP3   OH218734   4.557   0.507   0.377
 6264TIP3    H118735   4.470   0.532   0.408
 6264TIP3    H218736   4.602   0.475   0.455
 6265TIP3   OH218737   4.912   5.191   1.649
 6265TIP3    H118738   4.892   5.144   1.729
 6265TIP3    H218739   4.874   5.278   1.661
 6266TIP3   OH218740   4.847   7.289   0.654
 6266TIP3    H118741   4.785   7.338   0.708
 6266TIP3    H218742   4.904   7.355   0.615
 6267TIP3   OH218743   1.981   5.038   1.515
 6267TIP3    H118744   2.027   5.010   1.436
 6267TIP3    H218745   1.981   4.960   1.571
 6268TIP3   OH218746   6.549   2.524   2.504
 6268TIP3    H118747   6.549   2.583   2.580
 6268TIP3    H218748   6.537   2.437   2.541
 6269TIP3   OH218749   2.713   2.358   1.343
 6269TIP3    H118750   2.621   2.375   1.324
 6269TIP3    H218751   2.721   2.370   1.437
 6270TIP3   OH218752   0.212   1.481   3.245
 6270TIP3    H118753   0.215   1.392   3.211
 6270TIP3    H218754   0.273   1.480   3.318
 6271TIP3   OH218755   5.339   0.969   1.496
 6271TIP3    H118756   5.275   1.004   1.434
 6271TIP3    H218757   5.350   0.877   1.471
 6272TIP3   OH218758   0.701   4.506   5.829
 6272TIP3    H118759   0.624   4.553   5.796
 6272TIP3    H218760   0.699   4.519   5.924
 6273TIP3   OH218761   7.749   3.712   5.414
 6273TIP3    H118762   7.690   3.688   5.343
 6273TIP3    H218763   7.833   3.729   5.372
 6274TIP3   OH218764   6.958   6.927   1.424
 6274TIP3    H118765   6.995   6.839   1.411
 6274TIP3    H218766   7.015   6.968   1.489
 6275TIP3   OH218767   0.169   2.354   6.247
 6275TIP3    H118768   0.109   2.393   6.310
 6275TIP3    H218769   0.113   2.319   6.178
 6276TIP3   OH218770   7.332   2.380   3.095
 6276TIP3    H118771   7.253   2.381   3.041
 6276TIP3    H218772   7.363   2.471   3.095
 6277TIP3   OH218773   4.667   5.854   6.256
 6277TIP3    H118774   4.636   5.899   6.177
 6277TIP3    H218775   4.608   5.885   6.325
 6278TIP3   OH218776   6.693   2.130   5.948
 6278TIP3    H118777   6.640   2.088   6.015
 6278TIP3    H218778   6.750   2.190   5.995
 6279TIP3   OH218779   2.701   5.117   1.878
 6279TIP3    H118780   2.692   5.180   1.949
 6279TIP3    H218781   2.724   5.035   1.922
 6280TIP3   OH218782   3.218   5.268   4.220
 6280TIP3    H118783   3.204   5.340   4.158
 6280TIP3    H218784   3.310   5.275   4.243
 6281TIP3   OH218785   5.418   4.780   2.006
 6281TIP3    H118786   5.471   4.703   1.982
 6281TIP3    H218787   5.478   4.836   2.054
 6282TIP3   OH218788   4.533   4.715   1.204
 6282TIP3    H118789   4.610   4.725   1.259
 6282TIP3    H218790   4.492   4.802   1.204
 6283TIP3   OH218791   3.245   1.355   1.653
 6283TIP3    H118792   3.224   1.419   1.721
 6283TIP3    H218793   3.294   1.404   1.588
 6284TIP3   OH218794   3.939   6.066   1.742
 6284TIP3    H118795   3.919   5.975   1.719
 6284TIP3    H218796   3.891   6.081   1.824
 6285TIP3   OH218797   3.232   0.471   3.356
 6285TIP3    H118798   3.155   0.434   3.311
 6285TIP3    H218799   3.211   0.563   3.367
 6286TIP3   OH218800   2.083   2.354   6.521
 6286TIP3    H118801   2.144   2.375   6.592
 6286TIP3    H218802   2.118   2.401   6.445
 6287TIP3   OH218803   0.753   7.170   0.866
 6287TIP3    H118804   0.664   7.203   0.860
 6287TIP3    H218805   0.804   7.226   0.808
 6288TIP3   OH218806   1.778   2.803   6.142
 6288TIP3    H118807   1.721   2.772   6.072
 6288TIP3    H218808   1.867   2.791   6.108
 6289TIP3   OH218809   6.660   2.560   3.205
 6289TIP3    H118810   6.583   2.608   3.233
 6289TIP3    H218811   6.653   2.475   3.250
 6290TIP3   OH218812   1.181   2.066   2.288
 6290TIP3    H118813   1.164   2.044   2.196
 6290TIP3    H218814   1.211   2.157   2.285
 6291TIP3   OH218815   6.001   2.818   4.732
 6291TIP3    H118816   6.031   2.901   4.695
 6291TIP3    H218817   6.081   2.776   4.765
 6292TIP3   OH218818   0.287   5.002   1.528
 6292TIP3    H118819   0.230   4.978   1.602
 6292TIP3    H218820   0.367   4.953   1.543
 6293TIP3   OH218821   3.949   5.054   0.754
 6293TIP3    H118822   3.899   5.096   0.824
 6293TIP3    H218823   4.036   5.095   0.758
 6294TIP3   OH218824   5.551   3.720   4.952
 6294TIP3    H118825   5.570   3.663   4.878
 6294TIP3    H218826   5.461   3.697   4.978
 6295TIP3   OH218827   5.871   0.563   5.646
 6295TIP3    H118828   5.889   0.657   5.640
 6295TIP3    H218829   5.851   0.537   5.556
 6296TIP3   OH218830   5.811   0.984   6.025
 6296TIP3    H118831   5.857   0.900   6.027
 6296TIP3    H218832   5.854   1.032   5.954
 6297TIP3   OH218833   8.085   7.786   2.062
 6297TIP3    H118834   8.176   7.758   2.072
 6297TIP3    H218835   8.042   7.712   2.018
 6298TIP3   OH218836   5.859   2.388   2.644
 6298TIP3    H118837   5.766   2.365   2.637
 6298TIP3    H218838   5.864   2.478   2.613
 6299TIP3   OH218839   4.359   7.238   4.757
 6299TIP3    H118840   4.413   7.232   4.836
 6299TIP3    H218841   4.395   7.311   4.707
 6300TIP3   OH218842   6.166   1.426   0.663
 6300TIP3    H118843   6.119   1.405   0.743
 6300TIP3    H218844   6.182   1.341   0.622
 6301TIP3   OH218845   2.572   7.080   0.105
 6301TIP3    H118846   2.547   7.001   0.153
 6301TIP3    H218847   2.494   7.103   0.055
 6302TIP3   OH218848   6.092   3.627   2.940
 6302TIP3    H118849   6.021   3.668   2.890
 6302TIP3    H218850   6.080   3.533   2.925
 6303TIP3   OH218851   7.790   6.812   4.248
 6303TIP3    H118852   7.756   6.869   4.178
 6303TIP3    H218853   7.781   6.864   4.328
 6304TIP3   OH218854   7.424   2.413   4.531
 6304TIP3    H118855   7.504   2.434   4.578
 6304TIP3    H218856   7.372   2.493   4.534
 6305TIP3   OH218857   1.203   6.759   0.513
 6305TIP3    H118858   1.280   6.761   0.456
 6305TIP3    H218859   1.197   6.667   0.540
 6306TIP3   OH218860   7.894   2.581   6.212
 6306TIP3    H118861   7.891   2.665   6.167
 6306TIP3    H218862   7.883   2.603   6.305
 6307TIP3   OH218863   1.584   6.858   5.615
 6307TIP3    H118864   1.508   6.800   5.607
 6307TIP3    H218865   1.608   6.878   5.525
 6308TIP3   OH218866   6.458   1.786   5.312
 6308TIP3    H118867   6.549   1.759   5.298
 6308TIP3    H218868   6.460   1.835   5.394
 6309TIP3   OH218869   8.006   6.881   5.308
 6309TIP3    H118870   8.082   6.893   5.251
 6309TIP3    H218871   7.931   6.887   5.249
 6310TIP3   OH218872   4.976   0.946   6.695
 6310TIP3    H118873   4.973   1.039   6.718
 6310TIP3    H218874   5.010   0.945   6.605
 6311TIP3   OH218875   1.415   3.372   0.761
 6311TIP3    H118876   1.322   3.354   0.750
 6311TIP3    H218877   1.458   3.323   0.691
 6312TIP3   OH218878   7.908   2.614   2.853
 6312TIP3    H118879   7.938   2.575   2.935
 6312TIP3    H218880   7.903   2.708   2.871
 6313TIP3   OH218881   1.628   7.492   4.602
 6313TIP3    H118882   1.597   7.414   4.648
 6313TIP3    H218883   1.551   7.524   4.554
 6314TIP3   OH218884   0.010   5.886   3.967
 6314TIP3    H118885  -0.021   5.796   3.959
 6314TIP3    H218886   0.041   5.892   4.057
 6315TIP3   OH218887   3.481   4.614   2.077
 6315TIP3    H118888   3.436   4.536   2.108
 6315TIP3    H218889   3.574   4.594   2.087
 6316TIP3   OH218890   2.913   6.760   4.425
 6316TIP3    H118891   2.994   6.801   4.396
 6316TIP3    H218892   2.850   6.832   4.429
 6317TIP3   OH218893   6.812   5.216   6.640
 6317TIP3    H118894   6.768   5.137   6.671
 6317TIP3    H218895   6.899   5.213   6.679
 6318TIP3   OH218896   7.715   5.011   2.848
 6318TIP3    H118897   7.729   4.952   2.921
 6318TIP3    H218898   7.620   5.027   2.848
 6319TIP3   OH218899   2.860   4.807   3.154
 6319TIP3    H118900   2.933   4.763   3.197
 6319TIP3    H218901   2.901   4.860   3.085
 6320TIP3   OH218902   6.339   4.574   5.035
 6320TIP3    H118903   6.380   4.554   5.119
 6320TIP3    H218904   6.366   4.664   5.017
 6321TIP3   OH218905   1.866   6.092   0.130
 6321TIP3    H118906   1.788   6.043   0.105
 6321TIP3    H218907   1.921   6.027   0.174
 6322TIP3   OH218908   7.486   6.726   6.088
 6322TIP3    H118909   7.478   6.637   6.122
 6322TIP3    H218910   7.498   6.714   5.994
 6323TIP3   OH218911   7.759   4.139   0.222
 6323TIP3    H118912   7.674   4.096   0.227
 6323TIP3    H218913   7.822   4.072   0.247
 6324TIP3   OH218914   2.798   4.067   3.643
 6324TIP3    H118915   2.815   4.160   3.659
 6324TIP3    H218916   2.758   4.064   3.556
 6325TIP3   OH218917   4.470   5.360   1.446
 6325TIP3    H118918   4.496   5.450   1.464
 6325TIP3    H218919   4.545   5.323   1.399
 6326TIP3   OH218920   2.525   7.117   6.451
 6326TIP3    H118921   2.524   7.198   6.401
 6326TIP3    H218922   2.570   7.139   6.532
 6327TIP3   OH218923   7.974   0.742   2.952
 6327TIP3    H118924   7.926   0.668   2.989
 6327TIP3    H218925   8.052   0.703   2.913
 6328TIP3   OH218926   2.247   2.018   2.147
 6328TIP3    H118927   2.247   2.091   2.086
 6328TIP3    H218928   2.256   1.940   2.091
 6329TIP3   OH218929   7.309   6.678   5.645
 6329TIP3    H118930   7.247   6.722   5.587
 6329TIP3    H218931   7.389   6.730   5.639
 6330TIP3   OH218932   2.887   0.067   3.459
 6330TIP3    H118933   2.934   0.141   3.498
 6330TIP3    H218934   2.794   0.092   3.467
 6331TIP3   OH218935   5.997   0.727   2.890
 6331TIP3    H118936   5.927   0.663   2.902
 6331TIP3    H218937   5.953   0.812   2.898
 6332TIP3   OH218938   4.718   6.995   0.218
 6332TIP3    H118939   4.739   7.048   0.295
 6332TIP3    H218940   4.644   6.941   0.247
 6333TIP3   OH218941   1.559   7.644   0.598
 6333TIP3    H118942   1.562   7.637   0.503
 6333TIP3    H218943   1.561   7.738   0.615
 6334TIP3   OH218944   0.398   0.633   1.815
 6334TIP3    H118945   0.359   0.617   1.729
 6334TIP3    H218946   0.468   0.569   1.822
 6335TIP3   OH218947   8.165   7.166   4.365
 6335TIP3    H118948   8.131   7.079   4.344
 6335TIP3    H218949   8.111   7.196   4.438
 6336TIP3   OH218950   0.692   2.719   6.452
 6336TIP3    H118951   0.780   2.729   6.489
 6336TIP3    H218952   0.667   2.808   6.427
 6337TIP3   OH218953   1.613   2.666   2.158
 6337TIP3    H118954   1.638   2.720   2.083
 6337TIP3    H218955   1.605   2.729   2.231
 6338TIP3   OH218956   5.919   0.073   4.621
 6338TIP3    H118957   5.969  -0.005   4.645
 6338TIP3    H218958   5.940   0.137   4.688
 6339TIP3   OH218959   1.869   4.219   5.028
 6339TIP3    H118960   1.915   4.215   5.112
 6339TIP3    H218961   1.939   4.216   4.963
 6340TIP3   OH218962   6.089   1.598   3.837
 6340TIP3    H118963   6.171   1.646   3.854
 6340TIP3    H218964   6.070   1.615   3.745
 6341TIP3   OH218965   2.880   4.841   0.402
 6341TIP3    H118966   2.835   4.897   0.465
 6341TIP3    H218967   2.948   4.898   0.365
 6342TIP3   OH218968   6.967   7.166   5.335
 6342TIP3    H118969   7.013   7.172   5.419
 6342TIP3    H218970   7.037   7.152   5.270
 6343TIP3   OH218971   6.283   6.184   1.314
 6343TIP3    H118972   6.304   6.150   1.227
 6343TIP3    H218973   6.365   6.181   1.362
 6344TIP3   OH218974   8.252   3.987   1.541
 6344TIP3    H118975   8.269   3.958   1.451
 6344TIP3    H218976   8.157   3.999   1.544
 6345TIP3   OH218977   8.028   0.155   4.463
 6345TIP3    H118978   7.943   0.152   4.419
 6345TIP3    H218979   8.092   0.151   4.392
 6346TIP3   OH218980   2.478   3.643   2.061
 6346TIP3    H118981   2.462   3.614   2.151
 6346TIP3    H218982   2.571   3.664   2.059
 6347TIP3   OH218983   7.588   5.899   3.247
 6347TIP3    H118984   7.671   5.867   3.282
 6347TIP3    H218985   7.583   5.990   3.276
 6348TIP3   OH218986   1.697   0.061   3.358
 6348TIP3    H118987   1.791   0.041   3.362
 6348TIP3    H218988   1.684   0.095   3.269
 6349TIP3   OH218989   8.180   1.368   4.758
 6349TIP3    H118990   8.259   1.346   4.808
 6349TIP3    H218991   8.164   1.460   4.777
 6350TIP3   OH218992   0.376   3.669   0.895
 6350TIP3    H118993   0.339   3.585   0.920
 6350TIP3    H218994   0.469   3.663   0.919
 6351TIP3   OH218995   5.498   0.424   2.448
 6351TIP3    H118996   5.407   0.437   2.476
 6351TIP3    H218997   5.534   0.362   2.511
 6352TIP3   OH218998   2.553   0.013   4.683
 6352TIP3    H118999   2.610   0.088   4.699
 6352TIP3    H219000   2.495   0.042   4.612
 6353TIP3   OH219001   3.438   6.828   5.900
 6353TIP3    H119002   3.375   6.823   5.829
 6353TIP3    H219003   3.387   6.813   5.979
 6354TIP3   OH219004   4.749   4.836   1.005
 6354TIP3    H119005   4.666   4.802   0.972
 6354TIP3    H219006   4.772   4.906   0.943
 6355TIP3   OH219007   1.463   5.822   4.342
 6355TIP3    H119008   1.445   5.857   4.429
 6355TIP3    H219009   1.493   5.733   4.357
 6356TIP3   OH219010   5.434   0.780   3.007
 6356TIP3    H119011   5.435   0.868   3.042
 6356TIP3    H219012   5.342   0.760   2.993
 6357TIP3   OH219013   5.875   7.301   2.774
 6357TIP3    H119014   5.831   7.355   2.709
 6357TIP3    H219015   5.964   7.337   2.779
 6358TIP3   OH219016   2.736   7.137   1.050
 6358TIP3    H119017   2.713   7.230   1.055
 6358TIP3    H219018   2.677   7.095   1.113
 6359TIP3   OH219019   3.321   1.804   2.868
 6359TIP3    H119020   3.270   1.877   2.833
 6359TIP3    H219021   3.309   1.734   2.804
 6360TIP3   OH219022   2.403   5.027   0.060
 6360TIP3    H119023   2.361   5.103   0.020
 6360TIP3    H219024   2.456   4.989  -0.010
 6361TIP3   OH219025   4.468   1.832   6.330
 6361TIP3    H119026   4.477   1.882   6.412
 6361TIP3    H219027   4.556   1.833   6.292
 6362TIP3   OH219028   5.162   0.842   5.573
 6362TIP3    H119029   5.242   0.885   5.545
 6362TIP3    H219030   5.183   0.808   5.660
 6363TIP3   OH219031   1.488   5.400   3.780
 6363TIP3    H119032   1.582   5.400   3.797
 6363TIP3    H219033   1.454   5.472   3.833
 6364TIP3   OH219034   3.132   7.326   5.033
 6364TIP3    H119035   3.065   7.260   5.016
 6364TIP3    H219036   3.084   7.408   5.041
 6365TIP3   OH219037   3.335   3.002   5.594
 6365TIP3    H119038   3.256   3.056   5.592
 6365TIP3    H219039   3.406   3.061   5.571
 6366TIP3   OH219040   3.402   2.443   3.993
 6366TIP3    H119041   3.325   2.398   4.028
 6366TIP3    H219042   3.434   2.384   3.924
 6367TIP3   OH219043   2.070   6.807   2.183
 6367TIP3    H119044   2.011   6.804   2.259
 6367TIP3    H219045   2.032   6.744   2.122
 6368TIP3   OH219046   7.046   1.684   2.048
 6368TIP3    H119047   7.079   1.624   1.981
 6368TIP3    H219048   7.037   1.630   2.126
 6369TIP3   OH219049   5.118   0.996   4.701
 6369TIP3    H119050   5.090   1.012   4.791
 6369TIP3    H219051   5.060   0.927   4.669
 6370TIP3   OH219052   6.442   0.171   3.640
 6370TIP3    H119053   6.486   0.248   3.605
 6370TIP3    H219054   6.513   0.110   3.659
 6371TIP3   OH219055   0.270   2.033   2.180
 6371TIP3    H119056   0.362   2.023   2.157
 6371TIP3    H219057   0.261   2.125   2.206
 6372TIP3   OH219058   2.560   2.686   4.909
 6372TIP3    H119059   2.624   2.734   4.857
 6372TIP3    H219060   2.591   2.595   4.907
 6373TIP3   OH219061   0.239   4.289   5.010
 6373TIP3    H119062   0.144   4.290   5.018
 6373TIP3    H219063   0.266   4.377   5.034
 6374TIP3   OH219064   7.895   0.309   5.310
 6374TIP3    H119065   7.926   0.310   5.401
 6374TIP3    H219066   7.857   0.222   5.299
 6375TIP3   OH219067   5.528   5.700   5.362
 6375TIP3    H119068   5.579   5.707   5.442
 6375TIP3    H219069   5.457   5.640   5.384
 6376TIP3   OH219070   0.276   7.586   2.128
 6376TIP3    H119071   0.321   7.521   2.074
 6376TIP3    H219072   0.339   7.657   2.137
 6377TIP3   OH219073   4.894   6.869   4.786
 6377TIP3    H119074   4.922   6.884   4.696
 6377TIP3    H219075   4.824   6.804   4.779
 6378TIP3   OH219076   1.969   7.395   2.043
 6378TIP3    H119077   1.885   7.437   2.060
 6378TIP3    H219078   1.950   7.301   2.046
 6379TIP3   OH219079   5.271   4.149   4.750
 6379TIP3    H119080   5.216   4.109   4.682
 6379TIP3    H219081   5.263   4.090   4.825
 6380TIP3   OH219082   5.019   3.966   4.281
 6380TIP3    H119083   4.995   3.924   4.198
 6380TIP3    H219084   5.100   3.923   4.307
 6381TIP3   OH219085   4.279   4.093   3.176
 6381TIP3    H119086   4.271   4.189   3.170
 6381TIP3    H219087   4.316   4.067   3.092
 6382TIP3   OH219088   3.458   1.443   1.495
 6382TIP3    H119089   3.520   1.379   1.461
 6382TIP3    H219090   3.511   1.498   1.553
 6383TIP3   OH219091   6.256   0.567   1.534
 6383TIP3    H119092   6.200   0.543   1.608
 6383TIP3    H219093   6.215   0.528   1.458
 6384TIP3   OH219094   0.044   1.791   1.580
 6384TIP3    H119095   0.075   1.877   1.550
 6384TIP3    H219096  -0.049   1.790   1.556
 6385TIP3   OH219097   2.803   4.920   1.072
 6385TIP3    H119098   2.812   4.907   1.167
 6385TIP3    H219099   2.750   4.846   1.043
 6386TIP3   OH219100   7.959   4.327   1.643
 6386TIP3    H119101   7.988   4.346   1.554
 6386TIP3    H219102   7.927   4.412   1.676
 6387TIP3   OH219103   0.789   7.472   0.326
 6387TIP3    H119104   0.820   7.536   0.390
 6387TIP3    H219105   0.865   7.456   0.270
 6388TIP3   OH219106   8.243   1.149   3.161
 6388TIP3    H119107   8.203   1.069   3.128
 6388TIP3    H219108   8.228   1.146   3.255
 6389TIP3   OH219109   4.792   1.016   1.091
 6389TIP3    H119110   4.715   1.051   1.137
 6389TIP3    H219111   4.760   0.937   1.048
 6390TIP3   OH219112   8.272   3.087   3.587
 6390TIP3    H119113   8.270   2.998   3.623
 6390TIP3    H219114   8.200   3.090   3.525
 6391TIP3   OH219115   3.947   5.780   4.608
 6391TIP3    H119116   4.005   5.850   4.639
 6391TIP3    H219117   3.876   5.826   4.563
 6392TIP3   OH219118   0.053   6.548   3.650
 6392TIP3    H119119   0.111   6.488   3.697
 6392TIP3    H219120  -0.035   6.514   3.668
 6393TIP3   OH219121   3.035   3.260   2.006
 6393TIP3    H119122   3.034   3.170   1.974
 6393TIP3    H219123   2.944   3.289   1.999
 6394TIP3   OH219124   1.607   0.683   0.622
 6394TIP3    H119125   1.624   0.746   0.552
 6394TIP3    H219126   1.590   0.601   0.576
 6395TIP3   OH219127   8.021   5.846   2.742
 6395TIP3    H119128   7.942   5.818   2.789
 6395TIP3    H219129   8.034   5.937   2.770
 6396TIP3   OH219130   4.594   4.085   6.148
 6396TIP3    H119131   4.577   4.175   6.177
 6396TIP3    H219132   4.600   4.090   6.053
 6397TIP3   OH219133   0.971   6.193   4.766
 6397TIP3    H119134   0.876   6.184   4.777
 6397TIP3    H219135   1.003   6.103   4.760
 6398TIP3   OH219136   5.329   2.042   6.084
 6398TIP3    H119137   5.421   2.022   6.069
 6398TIP3    H219138   5.318   2.036   6.179
 6399TIP3   OH219139   1.627   2.273   1.844
 6399TIP3    H119140   1.537   2.299   1.865
 6399TIP3    H219141   1.621   2.180   1.823
 6400TIP3   OH219142   0.700   4.628   0.203
 6400TIP3    H119143   0.737   4.589   0.123
 6400TIP3    H219144   0.720   4.564   0.272
 6401TIP3   OH219145   7.388   2.330   3.514
 6401TIP3    H119146   7.310   2.282   3.486
 6401TIP3    H219147   7.408   2.296   3.601
 6402TIP3   OH219148   2.769   3.913   0.423
 6402TIP3    H119149   2.763   3.969   0.500
 6402TIP3    H219150   2.774   3.824   0.458
 6403TIP3   OH219151   6.976   1.998   0.270
 6403TIP3    H119152   6.949   2.077   0.224
 6403TIP3    H219153   7.043   2.028   0.332
 6404TIP3   OH219154   3.381   2.476   1.428
 6404TIP3    H119155   3.316   2.543   1.451
 6404TIP3    H219156   3.396   2.489   1.335
 6405TIP3   OH219157   0.714   3.678   3.039
 6405TIP3    H119158   0.656   3.674   3.115
 6405TIP3    H219159   0.661   3.715   2.969
 6406TIP3   OH219160   4.048   0.866   0.140
 6406TIP3    H119161   4.015   0.844   0.227
 6406TIP3    H219162   4.138   0.834   0.139
 6407TIP3   OH219163   0.098   1.250   3.635
 6407TIP3    H119164   0.100   1.244   3.540
 6407TIP3    H219165   0.186   1.222   3.662
 6408TIP3   OH219166   1.970   4.563   0.106
 6408TIP3    H119167   2.007   4.612   0.179
 6408TIP3    H219168   2.041   4.504   0.078
 6409TIP3   OH219169   5.905   7.515   6.399
 6409TIP3    H119170   5.846   7.461   6.347
 6409TIP3    H219171   5.885   7.605   6.374
 6410TIP3   OH219172   8.101   7.351   6.543
 6410TIP3    H119173   8.034   7.364   6.610
 6410TIP3    H219174   8.058   7.373   6.461
 6411TIP3   OH219175   5.573   0.926   0.893
 6411TIP3    H119176   5.531   0.884   0.968
 6411TIP3    H219177   5.591   1.015   0.922
 6412TIP3   OH219178   7.928   1.991   2.650
 6412TIP3    H119179   7.922   2.038   2.567
 6412TIP3    H219180   8.019   1.962   2.655
 6413TIP3   OH219181   0.901   2.198   6.582
 6413TIP3    H119182   0.990   2.223   6.607
 6413TIP3    H219183   0.889   2.111   6.619
 6414TIP3   OH219184   2.057   6.985   5.206
 6414TIP3    H119185   2.145   7.001   5.173
 6414TIP3    H219186   2.002   7.047   5.158
 6415TIP3   OH219187   3.096   2.062   1.980
 6415TIP3    H119188   3.179   2.108   1.983
 6415TIP3    H219189   3.120   1.969   1.975
 6416TIP3   OH219190   0.608   3.701   1.056
 6416TIP3    H119191   0.592   3.607   1.064
 6416TIP3    H219192   0.615   3.732   1.146
 6417TIP3   OH219193   4.730   4.018   2.246
 6417TIP3    H119194   4.734   3.980   2.334
 6417TIP3    H219195   4.811   4.068   2.238
 6418TIP3   OH219196   3.612   2.638   6.438
 6418TIP3    H119197   3.620   2.622   6.532
 6418TIP3    H219198   3.692   2.600   6.400
 6419TIP3   OH219199   6.192   2.260   0.154
 6419TIP3    H119200   6.250   2.291   0.224
 6419TIP3    H219201   6.210   2.319   0.081
 6420TIP3   OH219202   1.489   6.030   3.398
 6420TIP3    H119203   1.399   6.000   3.411
 6420TIP3    H219204   1.507   6.014   3.305
 6421TIP3   OH219205   2.653   4.751   2.952
 6421TIP3    H119206   2.564   4.785   2.965
 6421TIP3    H219207   2.695   4.760   3.037
 6422TIP3   OH219208   3.146   6.905   4.343
 6422TIP3    H119209   3.146   6.984   4.289
 6422TIP3    H219210   3.234   6.869   4.331
 6423TIP3   OH219211   6.207   4.213   0.375
 6423TIP3    H119212   6.130   4.242   0.326
 6423TIP3    H219213   6.231   4.289   0.428
 6424TIP3   OH219214   4.176   2.989   5.356
 6424TIP3    H119215   4.265   3.017   5.378
 6424TIP3    H219216   4.120   3.058   5.393
 6425TIP3   OH219217   1.365   5.143   1.440
 6425TIP3    H119218   1.428   5.144   1.512
 6425TIP3    H219219   1.331   5.053   1.439
 6426TIP3   OH219220   6.241   4.176   3.831
 6426TIP3    H119221   6.210   4.106   3.889
 6426TIP3    H219222   6.334   4.182   3.849
 6427TIP3   OH219223   0.020   4.732   6.394
 6427TIP3    H119224   0.111   4.714   6.371
 6427TIP3    H219225  -0.027   4.651   6.374
 6428TIP3   OH219226   5.335   6.317   0.871
 6428TIP3    H119227   5.281   6.355   0.801
 6428TIP3    H219228   5.272   6.290   0.937
 6429TIP3   OH219229   8.047   4.466   0.451
 6429TIP3    H119230   8.125   4.457   0.397
 6429TIP3    H219231   8.063   4.408   0.526
 6430TIP3   OH219232   0.379   3.476   4.851
 6430TIP3    H119233   0.329   3.484   4.769
 6430TIP3    H219234   0.320   3.507   4.919
 6431TIP3   OH219235   4.843   0.937   4.682
 6431TIP3    H119236   4.789   0.876   4.733
 6431TIP3    H219237   4.876   1.000   4.746
 6432TIP3   OH219238   3.489   2.134   5.016
 6432TIP3    H119239   3.506   2.228   5.011
 6432TIP3    H219240   3.418   2.119   4.953
 6433TIP3   OH219241   6.488   2.292   5.525
 6433TIP3    H119242   6.554   2.348   5.483
 6433TIP3    H219243   6.497   2.311   5.618
 6434TIP3   OH219244   6.278   5.854   6.257
 6434TIP3    H119245   6.243   5.765   6.251
 6434TIP3    H219246   6.373   5.843   6.248
 6435TIP3   OH219247   7.475   5.735   2.574
 6435TIP3    H119248   7.533   5.720   2.499
 6435TIP3    H219249   7.529   5.714   2.650
 6436TIP3   OH219250   7.350   7.677   2.141
 6436TIP3    H119251   7.418   7.610   2.150
 6436TIP3    H219252   7.357   7.707   2.050
 6437TIP3   OH219253   2.500   5.698   6.327
 6437TIP3    H119254   2.431   5.690   6.262
 6437TIP3    H219255   2.574   5.650   6.289
 6438TIP3   OH219256   7.251   7.198   5.348
 6438TIP3    H119257   7.264   7.278   5.399
 6438TIP3    H219258   7.339   7.175   5.319
 6439TIP3   OH219259   7.566   7.323   5.548
 6439TIP3    H119260   7.602   7.337   5.636
 6439TIP3    H219261   7.519   7.240   5.554
 6440TIP3   OH219262   6.952   6.518   2.349
 6440TIP3    H119263   7.004   6.443   2.378
 6440TIP3    H219264   6.888   6.482   2.287
 6441TIP3   OH219265   3.702   1.747   3.243
 6441TIP3    H119266   3.651   1.711   3.315
 6441TIP3    H219267   3.657   1.828   3.220
 6442TIP3   OH219268   6.773   7.204   2.016
 6442TIP3    H119269   6.861   7.189   2.049
 6442TIP3    H219270   6.746   7.119   1.981
 6443TIP3   OH219271   3.527   0.968   3.774
 6443TIP3    H119272   3.468   0.962   3.699
 6443TIP3    H219273   3.491   1.039   3.827
 6444TIP3   OH219274   7.409   3.771   2.590
 6444TIP3    H119275   7.375   3.860   2.578
 6444TIP3    H219276   7.478   3.780   2.655
 6445TIP3   OH219277   0.622   6.529   2.818
 6445TIP3    H119278   0.530   6.505   2.806
 6445TIP3    H219279   0.653   6.549   2.730
 6446TIP3   OH219280   4.509   1.162   3.345
 6446TIP3    H119281   4.514   1.155   3.440
 6446TIP3    H219282   4.488   1.074   3.315
 6447TIP3   OH219283   2.358   6.012   5.184
 6447TIP3    H119284   2.276   6.009   5.135
 6447TIP3    H219285   2.346   6.084   5.245
 6448TIP3   OH219286   3.451   4.912   0.169
 6448TIP3    H119287   3.495   4.980   0.119
 6448TIP3    H219288   3.457   4.941   0.260
 6449TIP3   OH219289   3.172   0.477   2.222
 6449TIP3    H119290   3.231   0.436   2.158
 6449TIP3    H219291   3.148   0.405   2.281
 6450TIP3   OH219292   5.859   7.487   6.650
 6450TIP3    H119293   5.879   7.488   6.557
 6450TIP3    H219294   5.896   7.569   6.684
 6451TIP3   OH219295   2.144   4.894   5.231
 6451TIP3    H119296   2.057   4.867   5.260
 6451TIP3    H219297   2.204   4.841   5.284
 6452TIP3   OH219298   1.662   4.483   5.242
 6452TIP3    H119299   1.596   4.414   5.240
 6452TIP3    H219300   1.691   4.485   5.333
 6453TIP3   OH219301   6.078   5.844   0.416
 6453TIP3    H119302   6.006   5.830   0.477
 6453TIP3    H219303   6.109   5.933   0.435
 6454TIP3   OH219304   1.758   6.717   5.777
 6454TIP3    H119305   1.828   6.694   5.716
 6454TIP3    H219306   1.699   6.773   5.726
 6455TIP3   OH219307   2.918   6.808   4.924
 6455TIP3    H119308   2.831   6.779   4.897
 6455TIP3    H219309   2.959   6.836   4.843
 6456TIP3   OH219310   4.443   2.386   1.235
 6456TIP3    H119311   4.372   2.373   1.298
 6456TIP3    H219312   4.510   2.434   1.284
 6457TIP3   OH219313   7.883   3.171   6.713
 6457TIP3    H119314   7.812   3.107   6.714
 6457TIP3    H219315   7.885   3.203   6.623
 6458TIP3   OH219316   1.777   2.198   4.566
 6458TIP3    H119317   1.809   2.244   4.644
 6458TIP3    H219318   1.734   2.266   4.514
 6459TIP3   OH219319   1.087   5.404   5.236
 6459TIP3    H119320   1.073   5.350   5.158
 6459TIP3    H219321   1.182   5.405   5.247
 6460TIP3   OH219322   6.298   6.385   3.078
 6460TIP3    H119323   6.368   6.442   3.110
 6460TIP3    H219324   6.292   6.404   2.985
 6461TIP3   OH219325   1.294   4.877   1.505
 6461TIP3    H119326   1.279   4.841   1.592
 6461TIP3    H219327   1.387   4.864   1.489
 6462TIP3   OH219328   7.921   4.489   6.143
 6462TIP3    H119329   7.900   4.397   6.159
 6462TIP3    H219330   7.893   4.534   6.223
 6463TIP3   OH219331   5.920   4.459   6.379
 6463TIP3    H119332   6.008   4.491   6.398
 6463TIP3    H219333   5.872   4.470   6.461
 6464TIP3   OH219334   5.640   6.052   2.986
 6464TIP3    H119335   5.599   6.013   3.063
 6464TIP3    H219336   5.732   6.064   3.012
 6465TIP3   OH219337   6.385   7.325   1.461
 6465TIP3    H119338   6.426   7.350   1.379
 6465TIP3    H219339   6.431   7.376   1.528
 6466TIP3   OH219340   4.170   0.445   3.163
 6466TIP3    H119341   4.168   0.480   3.074
 6466TIP3    H219342   4.091   0.391   3.170
 6467TIP3   OH219343   5.124   6.464   3.545
 6467TIP3    H119344   5.198   6.408   3.570
 6467TIP3    H219345   5.158   6.517   3.473
 6468TIP3   OH219346   5.114   1.223   0.732
 6468TIP3    H119347   5.164   1.298   0.763
 6468TIP3    H219348   5.058   1.199   0.806
 6469TIP3   OH219349   5.084   5.659   3.727
 6469TIP3    H119350   5.063   5.590   3.790
 6469TIP3    H219351   5.000   5.700   3.707
 6470TIP3   OH219352   6.343   1.191   3.351
 6470TIP3    H119353   6.298   1.262   3.396
 6470TIP3    H219354   6.428   1.228   3.328
 6471TIP3   OH219355   3.472   1.511   0.449
 6471TIP3    H119356   3.505   1.514   0.359
 6471TIP3    H219357   3.466   1.603   0.475
 6472TIP3   OH219358   1.815   2.269   6.461
 6472TIP3    H119359   1.760   2.346   6.468
 6472TIP3    H219360   1.842   2.266   6.369
 6473TIP3   OH219361   1.152   4.135   5.603
 6473TIP3    H119362   1.221   4.087   5.559
 6473TIP3    H219363   1.176   4.227   5.593
 6474TIP3   OH219364   2.675   3.455   3.324
 6474TIP3    H119365   2.583   3.444   3.347
 6474TIP3    H219366   2.680   3.432   3.231
 6475TIP3   OH219367   2.157   2.501   2.584
 6475TIP3    H119368   2.182   2.580   2.536
 6475TIP3    H219369   2.084   2.529   2.639
 6476TIP3   OH219370   6.055   6.891   0.505
 6476TIP3    H119371   6.127   6.876   0.444
 6476TIP3    H219372   5.980   6.847   0.465
 6477TIP3   OH219373   7.383   0.164   2.874
 6477TIP3    H119374   7.367   0.229   2.943
 6477TIP3    H219375   7.411   0.216   2.799
 6478TIP3   OH219376   0.493   3.717   5.803
 6478TIP3    H119377   0.438   3.731   5.726
 6478TIP3    H219378   0.518   3.806   5.830
 6479TIP3   OH219379   2.515   3.350   4.798
 6479TIP3    H119380   2.595   3.384   4.757
 6479TIP3    H219381   2.518   3.256   4.781
 6480TIP3   OH219382   1.119   0.606   4.901
 6480TIP3    H119383   1.152   0.623   4.813
 6480TIP3    H219384   1.126   0.511   4.912
 6481TIP3   OH219385   0.703   7.700   5.177
 6481TIP3    H119386   0.770   7.718   5.243
 6481TIP3    H219387   0.691   7.784   5.131
 6482TIP3   OH219388   4.910   4.394   0.036
 6482TIP3    H119389   4.881   4.380   0.125
 6482TIP3    H219390   4.870   4.323  -0.015
 6483TIP3   OH219391   0.758   4.860   5.290
 6483TIP3    H119392   0.772   4.880   5.198
 6483TIP3    H219393   0.809   4.781   5.305
 6484TIP3   OH219394   7.556   0.912   2.330
 6484TIP3    H119395   7.520   1.000   2.341
 6484TIP3    H219396   7.620   0.903   2.400
 6485TIP3   OH219397   7.705   6.002   1.912
 6485TIP3    H119398   7.728   6.068   1.977
 6485TIP3    H219399   7.639   6.045   1.857
 6486TIP3   OH219400   2.041   1.859   4.386
 6486TIP3    H119401   2.024   1.870   4.293
 6486TIP3    H219402   2.097   1.933   4.409
 6487TIP3   OH219403   4.458   5.889   3.054
 6487TIP3    H119404   4.528   5.917   3.112
 6487TIP3    H219405   4.396   5.962   3.053
 6488TIP3   OH219406   3.215   0.869   6.700
 6488TIP3    H119407   3.167   0.915   6.632
 6488TIP3    H219408   3.209   0.777   6.675
 6489TIP3   OH219409   4.233   2.460   1.451
 6489TIP3    H119410   4.195   2.383   1.409
 6489TIP3    H219411   4.206   2.455   1.542
 6490TIP3   OH219412   7.253   1.855   6.611
 6490TIP3    H119413   7.157   1.847   6.613
 6490TIP3    H219414   7.269   1.932   6.557
 6491TIP3   OH219415   3.033   4.730   6.144
 6491TIP3    H119416   3.020   4.825   6.145
 6491TIP3    H219417   3.082   4.712   6.224
 6492TIP3   OH219418   3.390   3.432   2.051
 6492TIP3    H119419   3.323   3.478   2.001
 6492TIP3    H219420   3.451   3.501   2.077
 6493TIP3   OH219421   5.363   5.027   1.550
 6493TIP3    H119422   5.276   5.053   1.518
 6493TIP3    H219423   5.424   5.083   1.501
 6494TIP3   OH219424   5.105   5.817   1.313
 6494TIP3    H119425   5.190   5.774   1.301
 6494TIP3    H219426   5.122   5.910   1.299
 6495TIP3   OH219427   3.095   2.418   5.652
 6495TIP3    H119428   3.013   2.449   5.613
 6495TIP3    H219429   3.076   2.410   5.745
 6496TIP3   OH219430   3.466   6.258   0.594
 6496TIP3    H119431   3.494   6.172   0.626
 6496TIP3    H219432   3.539   6.288   0.541
 6497TIP3   OH219433   6.124   1.383   5.413
 6497TIP3    H119434   6.189   1.417   5.476
 6497TIP3    H219435   6.084   1.461   5.376
 6498TIP3   OH219436   0.816   4.067   6.646
 6498TIP3    H119437   0.859   3.996   6.693
 6498TIP3    H219438   0.738   4.086   6.698
 6499TIP3   OH219439   4.097   5.938   4.784
 6499TIP3    H119440   4.132   6.028   4.783
 6499TIP3    H219441   4.040   5.936   4.861
 6500TIP3   OH219442   7.884   5.398   5.891
 6500TIP3    H119443   7.951   5.372   5.829
 6500TIP3    H219444   7.830   5.320   5.902
 6501TIP3   OH219445   4.038   0.459   4.355
 6501TIP3    H119446   4.075   0.440   4.269
 6501TIP3    H219447   4.084   0.538   4.384
 6502TIP3   OH219448   3.895   6.673   6.132
 6502TIP3    H119449   3.818   6.701   6.083
 6502TIP3    H219450   3.959   6.648   6.064
 6503TIP3   OH219451   7.268   2.708   4.952
 6503TIP3    H119452   7.348   2.656   4.950
 6503TIP3    H219453   7.292   2.790   4.908
 6504TIP3   OH219454   3.009   7.378   3.572
 6504TIP3    H119455   3.078   7.412   3.514
 6504TIP3    H219456   2.985   7.294   3.535
 6505TIP3   OH219457   6.117   0.397   0.762
 6505TIP3    H119458   6.130   0.482   0.721
 6505TIP3    H219459   6.127   0.334   0.690
 6506TIP3   OH219460   2.226   0.693   0.676
 6506TIP3    H119461   2.216   0.614   0.622
 6506TIP3    H219462   2.226   0.765   0.613
 6507TIP3   OH219463   1.499   2.813   0.207
 6507TIP3    H119464   1.476   2.878   0.141
 6507TIP3    H219465   1.534   2.863   0.280
 6508TIP3   OH219466   3.660   5.115   2.780
 6508TIP3    H119467   3.687   5.157   2.862
 6508TIP3    H219468   3.603   5.179   2.738
 6509TIP3   OH219469   2.015   5.807   5.747
 6509TIP3    H119470   1.994   5.761   5.666
 6509TIP3    H219471   1.933   5.846   5.776
 6510TIP3   OH219472   0.094   6.984   5.508
 6510TIP3    H119473   0.060   6.904   5.549
 6510TIP3    H219474   0.088   7.051   5.576
 6511TIP3   OH219475   3.562   7.427   5.802
 6511TIP3    H119476   3.492   7.457   5.744
 6511TIP3    H219477   3.539   7.337   5.823
 6512TIP3   OH219478   2.415   6.722   3.266
 6512TIP3    H119479   2.399   6.717   3.172
 6512TIP3    H219480   2.340   6.771   3.300
 6513TIP3   OH219481   5.320   6.943   0.384
 6513TIP3    H119482   5.325   7.038   0.397
 6513TIP3    H219483   5.228   6.921   0.397
 6514TIP3   OH219484   5.722   0.960   5.745
 6514TIP3    H119485   5.789   0.950   5.678
 6514TIP3    H219486   5.679   1.043   5.724
 6515TIP3   OH219487   1.129   0.161   5.562
 6515TIP3    H119488   1.212   0.207   5.547
 6515TIP3    H219489   1.071   0.228   5.597
 6516TIP3   OH219490   4.349   7.691   1.291
 6516TIP3    H119491   4.402   7.620   1.256
 6516TIP3    H219492   4.323   7.661   1.379
 6517TIP3   OH219493   2.611   0.321   5.575
 6517TIP3    H119494   2.557   0.308   5.497
 6517TIP3    H219495   2.604   0.239   5.623
 6518TIP3   OH219496   3.222   1.270   4.367
 6518TIP3    H119497   3.192   1.356   4.338
 6518TIP3    H219498   3.266   1.288   4.451
 6519TIP3   OH219499   1.772   6.174   0.868
 6519TIP3    H119500   1.749   6.083   0.851
 6519TIP3    H219501   1.859   6.171   0.907
 6520TIP3   OH219502   1.521   6.097   3.689
 6520TIP3    H119503   1.540   6.069   3.599
 6520TIP3    H219504   1.603   6.085   3.736
 6521TIP3   OH219505   6.418   3.432   3.330
 6521TIP3    H119506   6.460   3.348   3.313
 6521TIP3    H219507   6.468   3.495   3.279
 6522TIP3   OH219508   2.427   5.203   1.800
 6522TIP3    H119509   2.509   5.241   1.769
 6522TIP3    H219510   2.398   5.261   1.870
 6523TIP3   OH219511   7.459   2.676   5.518
 6523TIP3    H119512   7.495   2.744   5.576
 6523TIP3    H219513   7.494   2.697   5.432
 6524TIP3   OH219514   6.077   6.489   2.505
 6524TIP3    H119515   6.095   6.401   2.538
 6524TIP3    H219516   6.156   6.539   2.526
 6525TIP3   OH219517   1.461   0.254   2.172
 6525TIP3    H119518   1.554   0.276   2.165
 6525TIP3    H219519   1.430   0.252   2.081
 6526TIP3   OH219520   3.339   0.036   1.148
 6526TIP3    H119521   3.336   0.129   1.127
 6526TIP3    H219522   3.417   0.004   1.103
 6527TIP3   OH219523   4.620   2.813   4.062
 6527TIP3    H119524   4.674   2.744   4.025
 6527TIP3    H219525   4.591   2.864   3.987
 6528TIP3   OH219526   1.118   4.557   4.949
 6528TIP3    H119527   1.098   4.605   4.869
 6528TIP3    H219528   1.138   4.468   4.920
 6529TIP3   OH219529   5.656   4.553   4.208
 6529TIP3    H119530   5.599   4.563   4.283
 6529TIP3    H219531   5.668   4.458   4.199
 6530TIP3   OH219532   6.998   3.603   2.153
 6530TIP3    H119533   7.011   3.508   2.150
 6530TIP3    H219534   6.992   3.623   2.247
 6531TIP3   OH219535   6.645   6.994   0.660
 6531TIP3    H119536   6.681   7.051   0.592
 6531TIP3    H219537   6.630   7.053   0.735
 6532TIP3   OH219538   0.480   6.513   0.902
 6532TIP3    H119539   0.449   6.561   0.979
 6532TIP3    H219540   0.416   6.444   0.888
 6533TIP3   OH219541   0.947   6.260   6.674
 6533TIP3    H119542   0.990   6.344   6.691
 6533TIP3    H219543   0.858   6.272   6.707
 6534TIP3   OH219544   3.453   4.072   3.341
 6534TIP3    H119545   3.433   4.164   3.358
 6534TIP3    H219546   3.528   4.054   3.398
 6535TIP3   OH219547   3.423   2.408   3.415
 6535TIP3    H119548   3.502   2.383   3.367
 6535TIP3    H219549   3.362   2.336   3.399
 6536TIP3   OH219550   2.268   1.920   6.657
 6536TIP3    H119551   2.202   1.958   6.715
 6536TIP3    H219552   2.350   1.926   6.706
 6537TIP3   OH219553   3.284   3.521   2.931
 6537TIP3    H119554   3.232   3.580   2.876
 6537TIP3    H219555   3.235   3.439   2.931
 6538TIP3   OH219556   1.997   7.331   1.181
 6538TIP3    H119557   2.024   7.239   1.186
 6538TIP3    H219558   1.967   7.343   1.091
 6539TIP3   OH219559   4.866   7.210   5.210
 6539TIP3    H119560   4.875   7.299   5.243
 6539TIP3    H219561   4.956   7.180   5.199
 6540TIP3   OH219562   6.938   0.401   4.775
 6540TIP3    H119563   6.966   0.397   4.683
 6540TIP3    H219564   6.849   0.366   4.774
 6541TIP3   OH219565   7.117   1.318   3.393
 6541TIP3    H119566   7.078   1.369   3.464
 6541TIP3    H219567   7.049   1.317   3.325
 6542TIP3   OH219568   6.962   0.526   5.719
 6542TIP3    H119569   6.955   0.596   5.785
 6542TIP3    H219570   6.874   0.492   5.710
 6543TIP3   OH219571   5.021   7.300   2.834
 6543TIP3    H119572   4.934   7.273   2.805
 6543TIP3    H219573   5.010   7.317   2.928
 6544TIP3   OH219574   7.551   6.173   1.042
 6544TIP3    H119575   7.636   6.130   1.030
 6544TIP3    H219576   7.557   6.216   1.127
 6545TIP3   OH219577   4.699   0.746   6.479
 6545TIP3    H119578   4.739   0.747   6.567
 6545TIP3    H219579   4.774   0.738   6.420
 6546TIP3   OH219580   0.828   2.945   0.967
 6546TIP3    H119581   0.813   2.857   1.000
 6546TIP3    H219582   0.924   2.953   0.964
 6547TIP3   OH219583   8.210   0.044   1.228
 6547TIP3    H119584   8.174   0.038   1.140
 6547TIP3    H219585   8.154   0.108   1.272
 6548TIP3   OH219586   6.637   5.275   1.587
 6548TIP3    H119587   6.559   5.330   1.585
 6548TIP3    H219588   6.615   5.205   1.648
 6549TIP3   OH219589   6.506   5.428   0.376
 6549TIP3    H119590   6.420   5.415   0.337
 6549TIP3    H219591   6.562   5.455   0.303
 6550TIP3   OH219592   2.068   0.348   2.440
 6550TIP3    H119593   2.013   0.275   2.468
 6550TIP3    H219594   2.150   0.308   2.411
 6551TIP3   OH219595   7.303   1.351   2.070
 6551TIP3    H119596   7.277   1.408   2.143
 6551TIP3    H219597   7.304   1.263   2.108
 6552TIP3   OH219598   1.881   1.261   0.723
 6552TIP3    H119599   1.801   1.244   0.673
 6552TIP3    H219600   1.855   1.328   0.786
 6553TIP3   OH219601   2.443   2.010   2.348
 6553TIP3    H119602   2.451   1.922   2.383
 6553TIP3    H219603   2.353   2.017   2.319
 6554TIP3   OH219604   1.956   0.545   6.441
 6554TIP3    H119605   2.016   0.471   6.446
 6554TIP3    H219606   1.899   0.534   6.517
 6555TIP3   OH219607   6.712   2.993   6.758
 6555TIP3    H119608   6.749   3.082   6.757
 6555TIP3    H219609   6.625   3.004   6.797
 6556TIP3   OH219610   0.862   0.664   6.422
 6556TIP3    H119611   0.851   0.578   6.382
 6556TIP3    H219612   0.833   0.652   6.512
 6557TIP3   OH219613   0.573  -0.033   2.489
 6557TIP3    H119614   0.590   0.047   2.440
 6557TIP3    H219615   0.509  -0.007   2.556
 6558TIP3   OH219616   5.890   4.557   5.388
 6558TIP3    H119617   5.840   4.637   5.371
 6558TIP3    H219618   5.936   4.576   5.470
 6559TIP3   OH219619   2.067   7.752   5.481
 6559TIP3    H119620   2.102   7.699   5.553
 6559TIP3    H219621   1.975   7.727   5.475
 6560TIP3   OH219622   7.614   6.972   1.489
 6560TIP3    H119623   7.553   7.027   1.539
 6560TIP3    H219624   7.604   7.002   1.398
 6561TIP3   OH219625   6.516   1.046   2.532
 6561TIP3    H119626   6.593   1.099   2.510
 6561TIP3    H219627   6.551   0.966   2.570
 6562TIP3   OH219628   4.690   4.375   5.845
 6562TIP3    H119629   4.691   4.303   5.908
 6562TIP3    H219630   4.598   4.403   5.841
 6563TIP3   OH219631   5.161   5.465   4.421
 6563TIP3    H119632   5.232   5.513   4.465
 6563TIP3    H219633   5.121   5.530   4.363
 6564TIP3   OH219634   2.330   3.724   2.898
 6564TIP3    H119635   2.378   3.719   2.981
 6564TIP3    H219636   2.243   3.755   2.923
 6565TIP3   OH219637   0.504   1.234   6.049
 6565TIP3    H119638   0.507   1.146   6.086
 6565TIP3    H219639   0.514   1.292   6.125
 6566TIP3   OH219640   7.658   5.991   4.439
 6566TIP3    H119641   7.640   5.961   4.528
 6566TIP3    H219642   7.608   5.933   4.383
 6567TIP3   OH219643   0.652   4.624   1.909
 6567TIP3    H119644   0.657   4.555   1.975
 6567TIP3    H219645   0.650   4.705   1.959
 6568TIP3   OH219646   3.278   6.472   3.173
 6568TIP3    H119647   3.265   6.561   3.206
 6568TIP3    H219648   3.203   6.456   3.116
 6569TIP3   OH219649   1.170   6.912   2.340
 6569TIP3    H119650   1.195   6.885   2.429
 6569TIP3    H219651   1.104   6.980   2.353
 6570TIP3   OH219652   4.041   6.951   2.599
 6570TIP3    H119653   4.109   7.018   2.592
 6570TIP3    H219654   3.984   6.981   2.670
 6571TIP3   OH219655   0.449   0.917   4.144
 6571TIP3    H119656   0.524   0.919   4.204
 6571TIP3    H219657   0.381   0.870   4.193
 6572TIP3   OH219658   7.156   6.892   6.114
 6572TIP3    H119659   7.194   6.809   6.083
 6572TIP3    H219660   7.062   6.874   6.119
 6573TIP3   OH219661   3.657   6.819   0.437
 6573TIP3    H119662   3.673   6.911   0.455
 6573TIP3    H219663   3.606   6.788   0.512
 6574TIP3   OH219664   2.235   4.972   5.978
 6574TIP3    H119665   2.195   4.923   6.050
 6574TIP3    H219666   2.164   4.983   5.914
 6575TIP3   OH219667   2.858   1.693   1.761
 6575TIP3    H119668   2.822   1.629   1.823
 6575TIP3    H219669   2.785   1.714   1.704
 6576TIP3   OH219670   2.387   4.081   4.740
 6576TIP3    H119671   2.306   4.130   4.748
 6576TIP3    H219672   2.456   4.145   4.758
 6577TIP3   OH219673   7.623   5.593   3.785
 6577TIP3    H119674   7.639   5.670   3.730
 6577TIP3    H219675   7.549   5.618   3.840
 6578TIP3   OH219676   3.186   4.987   5.038
 6578TIP3    H119677   3.278   4.999   5.059
 6578TIP3    H219678   3.168   5.053   4.971
 6579TIP3   OH219679   1.119   4.708   1.372
 6579TIP3    H119680   1.140   4.783   1.428
 6579TIP3    H219681   1.052   4.660   1.420
 6580TIP3   OH219682   4.689   6.380   2.319
 6580TIP3    H119683   4.670   6.311   2.382
 6580TIP3    H219684   4.784   6.380   2.311
 6581TIP3   OH219685   6.681   5.366   6.234
 6581TIP3    H119686   6.741   5.428   6.193
 6581TIP3    H219687   6.638   5.415   6.304
 6582TIP3   OH219688   5.352   5.671   6.388
 6582TIP3    H119689   5.370   5.688   6.480
 6582TIP3    H219690   5.258   5.687   6.378
 6583TIP3   OH219691   4.742   7.181   0.419
 6583TIP3    H119692   4.672   7.235   0.457
 6583TIP3    H219693   4.813   7.185   0.483
 6584TIP3   OH219694   1.381   2.178   5.300
 6584TIP3    H119695   1.331   2.251   5.336
 6584TIP3    H219696   1.466   2.216   5.277
 6585TIP3   OH219697   1.003   3.333   4.000
 6585TIP3    H119698   1.062   3.393   3.955
 6585TIP3    H219699   1.028   3.246   3.968
 6586TIP3   OH219700   4.706   4.476   2.280
 6586TIP3    H119701   4.623   4.518   2.303
 6586TIP3    H219702   4.683   4.413   2.211
 6587TIP3   OH219703   5.543   4.194   3.198
 6587TIP3    H119704   5.509   4.123   3.253
 6587TIP3    H219705   5.527   4.273   3.248
 6588TIP3   OH219706   4.896   4.800   5.492
 6588TIP3    H119707   4.914   4.804   5.398
 6588TIP3    H219708   4.826   4.735   5.499
 6589TIP3   OH219709   6.283   7.644   5.810
 6589TIP3    H119710   6.363   7.670   5.765
 6589TIP3    H219711   6.222   7.622   5.739
 6590TIP3   OH219712   3.215   1.214   4.086
 6590TIP3    H119713   3.142   1.154   4.069
 6590TIP3    H219714   3.223   1.215   4.182
 6591TIP3   OH219715   6.057   6.690   1.669
 6591TIP3    H119716   6.031   6.702   1.578
 6591TIP3    H219717   6.100   6.773   1.692
 6592TIP3   OH219718   5.164   4.794   1.789
 6592TIP3    H119719   5.163   4.726   1.857
 6592TIP3    H219720   5.152   4.876   1.837
 6593TIP3   OH219721   5.017   7.092   3.137
 6593TIP3    H119722   5.107   7.110   3.166
 6593TIP3    H219723   5.023   7.009   3.090
 6594TIP3   OH219724   3.377   4.289   5.444
 6594TIP3    H119725   3.366   4.282   5.539
 6594TIP3    H219726   3.315   4.356   5.417
 6595TIP3   OH219727   1.657   7.308   0.219
 6595TIP3    H119728   1.675   7.215   0.204
 6595TIP3    H219729   1.734   7.353   0.183
 6596TIP3   OH219730   4.401   4.375   2.312
 6596TIP3    H119731   4.431   4.287   2.335
 6596TIP3    H219732   4.419   4.428   2.391
 6597TIP3   OH219733   3.599   7.403   0.718
 6597TIP3    H119734   3.574   7.390   0.627
 6597TIP3    H219735   3.623   7.496   0.723
 6598TIP3   OH219736   6.178   0.819   0.988
 6598TIP3    H119737   6.201   0.904   1.026
 6598TIP3    H219738   6.254   0.763   1.005
 6599TIP3   OH219739   4.394   0.985   1.398
 6599TIP3    H119740   4.405   1.033   1.480
 6599TIP3    H219741   4.374   0.896   1.425
 6600TIP3   OH219742   3.322   7.388   5.371
 6600TIP3    H119743   3.392   7.389   5.306
 6600TIP3    H219744   3.285   7.300   5.366
 6601TIP3   OH219745   5.676   1.620   6.108
 6601TIP3    H119746   5.709   1.593   6.023
 6601TIP3    H219747   5.750   1.666   6.149
 6602TIP3   OH219748   2.787   4.523   3.276
 6602TIP3    H119749   2.828   4.440   3.251
 6602TIP3    H219750   2.769   4.514   3.369
 6603TIP3   OH219751   7.071   2.822  -0.021
 6603TIP3    H119752   7.028   2.765   0.043
 6603TIP3    H219753   7.164   2.798  -0.016
 6604TIP3   OH219754   7.083   3.050   5.670
 6604TIP3    H119755   7.045   3.119   5.616
 6604TIP3    H219756   7.136   2.998   5.609
 6605TIP3   OH219757   2.716   5.303   5.306
 6605TIP3    H119758   2.661   5.269   5.377
 6605TIP3    H219759   2.710   5.236   5.238
 6606TIP3   OH219760   4.671   0.723   0.653
 6606TIP3    H119761   4.622   0.805   0.644
 6606TIP3    H219762   4.751   0.737   0.602
 6607TIP3   OH219763   3.566   3.731   0.100
 6607TIP3    H119764   3.539   3.652   0.055
 6607TIP3    H219765   3.567   3.706   0.193
 6608TIP3   OH219766   1.149   5.393   2.106
 6608TIP3    H119767   1.071   5.338   2.112
 6608TIP3    H219768   1.151   5.441   2.189
 6609TIP3   OH219769   1.566   3.187   1.677
 6609TIP3    H119770   1.531   3.227   1.757
 6609TIP3    H219771   1.661   3.189   1.688
 6610TIP3   OH219772   4.745   1.516   5.498
 6610TIP3    H119773   4.720   1.423   5.503
 6610TIP3    H219774   4.694   1.558   5.568
 6611TIP3   OH219775   7.284   1.373   0.234
 6611TIP3    H119776   7.379   1.384   0.235
 6611TIP3    H219777   7.272   1.281   0.210
 6612TIP3   OH219778   6.894   4.176   4.985
 6612TIP3    H119779   6.881   4.132   5.069
 6612TIP3    H219780   6.883   4.107   4.920
 6613TIP3   OH219781   8.193   5.653   6.681
 6613TIP3    H119782   8.130   5.581   6.677
 6613TIP3    H219783   8.156   5.714   6.744
 6614TIP3   OH219784   6.653   5.094   4.526
 6614TIP3    H119785   6.680   5.011   4.564
 6614TIP3    H219786   6.599   5.136   4.593
 6615TIP3   OH219787   7.574   4.561   4.345
 6615TIP3    H119788   7.505   4.616   4.381
 6615TIP3    H219789   7.656   4.604   4.370
 6616TIP3   OH219790   6.131   6.430   0.459
 6616TIP3    H119791   6.151   6.461   0.547
 6616TIP3    H219792   6.154   6.504   0.402
 6617TIP3   OH219793   7.586   1.242   2.596
 6617TIP3    H119794   7.634   1.263   2.517
 6617TIP3    H219795   7.598   1.148   2.607
 6618TIP3   OH219796   7.522   0.875   4.388
 6618TIP3    H119797   7.460   0.851   4.457
 6618TIP3    H219798   7.467   0.915   4.320
 6619TIP3   OH219799   4.050   0.182   1.322
 6619TIP3    H119800   4.077   0.265   1.282
 6619TIP3    H219801   4.065   0.195   1.416
 6620TIP3   OH219802   7.185   7.553   4.781
 6620TIP3    H119803   7.122   7.575   4.713
 6620TIP3    H219804   7.263   7.603   4.760
 6621TIP3   OH219805   0.584   7.119   0.553
 6621TIP3    H119806   0.605   7.174   0.478
 6621TIP3    H219807   0.624   7.163   0.628
 6622TIP3   OH219808   4.741   6.088   2.041
 6622TIP3    H119809   4.815   6.125   1.992
 6622TIP3    H219810   4.771   6.083   2.131
 6623TIP3   OH219811   8.216   2.716   1.114
 6623TIP3    H119812   8.143   2.728   1.174
 6623TIP3    H219813   8.292   2.704   1.171
 6624TIP3   OH219814   5.747   1.639   6.541
 6624TIP3    H119815   5.665   1.657   6.588
 6624TIP3    H219816   5.744   1.698   6.466
 6625TIP3   OH219817   1.061   4.945   1.787
 6625TIP3    H119818   1.103   4.859   1.786
 6625TIP3    H219819   1.130   5.005   1.816
 6626TIP3   OH219820   0.369   3.344   3.611
 6626TIP3    H119821   0.350   3.320   3.701
 6626TIP3    H219822   0.335   3.271   3.559
 6627TIP3   OH219823   0.393   6.919   0.610
 6627TIP3    H119824   0.405   6.841   0.556
 6627TIP3    H219825   0.476   6.968   0.600
 6628TIP3   OH219826   0.851   3.657   0.170
 6628TIP3    H119827   0.824   3.723   0.234
 6628TIP3    H219828   0.845   3.701   0.085
 6629TIP3   OH219829   1.488   4.539   0.841
 6629TIP3    H119830   1.462   4.630   0.851
 6629TIP3    H219831   1.442   4.493   0.911
 6630TIP3   OH219832   8.065   2.839   1.325
 6630TIP3    H119833   7.976   2.864   1.302
 6630TIP3    H219834   8.119   2.913   1.297
 6631TIP3   OH219835   1.569   0.928   6.596
 6631TIP3    H119836   1.497   0.988   6.616
 6631TIP3    H219837   1.527   0.842   6.588
 6632TIP3   OH219838   1.933   5.544   2.292
 6632TIP3    H119839   1.933   5.457   2.333
 6632TIP3    H219840   2.016   5.583   2.320
 6633TIP3   OH219841   4.591   1.668   4.431
 6633TIP3    H119842   4.639   1.655   4.512
 6633TIP3    H219843   4.581   1.581   4.394
 6634TIP3   OH219844   4.523   7.410   5.462
 6634TIP3    H119845   4.579   7.480   5.496
 6634TIP3    H219846   4.512   7.431   5.369
 6635TIP3   OH219847   3.853   6.976   1.545
 6635TIP3    H119848   3.871   6.948   1.635
 6635TIP3    H219849   3.834   7.070   1.553
 6636TIP3   OH219850   1.784   0.722   2.858
 6636TIP3    H119851   1.878   0.701   2.852
 6636TIP3    H219852   1.751   0.708   2.770
 6637TIP3   OH219853   4.239   1.716   3.175
 6637TIP3    H119854   4.144   1.716   3.186
 6637TIP3    H219855   4.272   1.666   3.250
 6638TIP3   OH219856   3.117   5.476   4.111
 6638TIP3    H119857   3.039   5.435   4.149
 6638TIP3    H219858   3.084   5.521   4.033
 6639TIP3   OH219859   2.678   2.104   2.678
 6639TIP3    H119860   2.662   2.178   2.737
 6639TIP3    H219861   2.652   2.137   2.592
 6640TIP3   OH219862   4.823   3.006   3.968
 6640TIP3    H119863   4.832   2.985   4.061
 6640TIP3    H219864   4.902   2.971   3.927
 6641TIP3   OH219865   0.462   4.887   0.084
 6641TIP3    H119866   0.457   4.908   0.178
 6641TIP3    H219867   0.546   4.925   0.056
 6642TIP3   OH219868   2.911   3.248   4.398
 6642TIP3    H119869   2.959   3.273   4.477
 6642TIP3    H219870   2.882   3.158   4.415
 6643TIP3   OH219871   6.746   0.653   0.665
 6643TIP3    H119872   6.652   0.649   0.683
 6643TIP3    H219873   6.754   0.627   0.573
 6644TIP3   OH219874   6.172   5.573   6.336
 6644TIP3    H119875   6.222   5.495   6.362
 6644TIP3    H219876   6.101   5.538   6.282
 6645TIP3   OH219877   5.413   1.572   1.340
 6645TIP3    H119878   5.319   1.559   1.326
 6645TIP3    H219879   5.421   1.666   1.361
 6646TIP3   OH219880   6.748   1.957   2.031
 6646TIP3    H119881   6.782   2.043   2.007
 6646TIP3    H219882   6.740   1.910   1.948
 6647TIP3   OH219883   5.267   1.441   0.824
 6647TIP3    H119884   5.318   1.481   0.754
 6647TIP3    H219885   5.277   1.500   0.898
 6648TIP3   OH219886   6.651   4.068   2.833
 6648TIP3    H119887   6.634   3.994   2.776
 6648TIP3    H219888   6.565   4.108   2.848
 6649TIP3   OH219889   1.696   0.078   2.290
 6649TIP3    H119890   1.751   0.077   2.369
 6649TIP3    H219891   1.725   0.002   2.240
 6650TIP3   OH219892   2.203   2.828   5.226
 6650TIP3    H119893   2.271   2.855   5.164
 6650TIP3    H219894   2.235   2.746   5.262
 6651TIP3   OH219895   1.061   2.327   3.411
 6651TIP3    H119896   1.035   2.288   3.494
 6651TIP3    H219897   1.031   2.264   3.345
 6652TIP3   OH219898   0.745   7.694   4.444
 6652TIP3    H119899   0.702   7.779   4.434
 6652TIP3    H219900   0.828   7.703   4.397
 6653TIP3   OH219901   6.674   1.623   5.383
 6653TIP3    H119902   6.595   1.575   5.407
 6653TIP3    H219903   6.693   1.594   5.294
 6654TIP3   OH219904   2.913   6.521   2.217
 6654TIP3    H119905   2.843   6.471   2.257
 6654TIP3    H219906   2.869   6.596   2.176
 6655TIP3   OH219907   7.756   1.426   3.463
 6655TIP3    H119908   7.722   1.515   3.471
 6655TIP3    H219909   7.768   1.395   3.553
 6656TIP3   OH219910   5.724   2.396   3.331
 6656TIP3    H119911   5.746   2.485   3.304
 6656TIP3    H219912   5.663   2.365   3.265
 6657TIP3   OH219913   6.638   0.820   5.971
 6657TIP3    H119914   6.731   0.804   5.988
 6657TIP3    H219915   6.602   0.846   6.055
 6658TIP3   OH219916   1.505   0.756   0.131
 6658TIP3    H119917   1.419   0.734   0.166
 6658TIP3    H219918   1.490   0.770   0.037
 6659TIP3   OH219919   0.788   7.842   6.046
 6659TIP3    H119920   0.706   7.828   5.998
 6659TIP3    H219921   0.854   7.797   5.994
 6660TIP3   OH219922   0.028   0.304   1.320
 6660TIP3    H119923   0.099   0.361   1.351
 6660TIP3    H219924   0.046   0.220   1.361
 6661TIP3   OH219925   5.497   2.979   5.943
 6661TIP3    H119926   5.570   3.005   5.887
 6661TIP3    H219927   5.484   3.052   6.003
 6662TIP3   OH219928   2.893   4.253   2.403
 6662TIP3    H119929   2.859   4.337   2.433
 6662TIP3    H219930   2.825   4.220   2.344
 6663TIP3   OH219931   2.431   2.896   4.016
 6663TIP3    H119932   2.428   2.864   4.106
 6663TIP3    H219933   2.438   2.818   3.962
 6664TIP3   OH219934   4.273   6.951   1.721
 6664TIP3    H119935   4.321   6.913   1.648
 6664TIP3    H219936   4.207   6.885   1.744
 6665TIP3   OH219937   6.850   0.892   4.491
 6665TIP3    H119938   6.906   0.961   4.456
 6665TIP3    H219939   6.866   0.817   4.434
 6666TIP3   OH219940   6.440   0.980   4.208
 6666TIP3    H119941   6.453   0.990   4.303
 6666TIP3    H219942   6.529   0.972   4.173
 6667TIP3   OH219943   3.136   2.631   0.770
 6667TIP3    H119944   3.171   2.556   0.818
 6667TIP3    H219945   3.043   2.611   0.757
 6668TIP3   OH219946   2.648   5.919   2.016
 6668TIP3    H119947   2.695   5.976   2.077
 6668TIP3    H219948   2.600   5.858   2.073
 6669TIP3   OH219949   7.351   5.044   0.407
 6669TIP3    H119950   7.363   5.067   0.499
 6669TIP3    H219951   7.275   5.095   0.380
 6670TIP3   OH219952   5.151   7.453   1.720
 6670TIP3    H119953   5.091   7.479   1.790
 6670TIP3    H219954   5.135   7.514   1.649
 6671TIP3   OH219955   7.554   6.082   1.454
 6671TIP3    H119956   7.491   6.130   1.400
 6671TIP3    H219957   7.500   6.036   1.518
 6672TIP3   OH219958   5.584   7.193   3.210
 6672TIP3    H119959   5.610   7.214   3.121
 6672TIP3    H219960   5.651   7.132   3.242
 6673TIP3   OH219961   7.573   2.886   2.922
 6673TIP3    H119962   7.533   2.802   2.944
 6673TIP3    H219963   7.624   2.869   2.843
 6674TIP3   OH219964   5.233   5.445   3.883
 6674TIP3    H119965   5.288   5.524   3.882
 6674TIP3    H219966   5.296   5.373   3.880
 6675TIP3   OH219967   2.276   5.921   5.792
 6675TIP3    H119968   2.293   6.001   5.742
 6675TIP3    H219969   2.187   5.896   5.767
 6676TIP3   OH219970   1.895   2.568   6.335
 6676TIP3    H119971   1.813   2.591   6.379
 6676TIP3    H219972   1.943   2.650   6.328
 6677TIP3   OH219973   2.465   6.928   4.386
 6677TIP3    H119974   2.481   7.022   4.390
 6677TIP3    H219975   2.519   6.897   4.313
 6678TIP3   OH219976   0.290   4.436   4.580
 6678TIP3    H119977   0.205   4.421   4.537
 6678TIP3    H219978   0.329   4.349   4.585
 6679TIP3   OH219979   3.509   1.492   5.138
 6679TIP3    H119980   3.510   1.540   5.055
 6679TIP3    H219981   3.438   1.531   5.188
 6680TIP3   OH219982   5.741   7.344   4.995
 6680TIP3    H119983   5.753   7.318   4.903
 6680TIP3    H219984   5.658   7.304   5.020
 6681TIP3   OH219985   4.387   2.168   3.784
 6681TIP3    H119986   4.483   2.160   3.782
 6681TIP3    H219987   4.369   2.213   3.866
 6682TIP3   OH219988   2.626   1.804   0.184
 6682TIP3    H119989   2.611   1.725   0.236
 6682TIP3    H219990   2.655   1.870   0.247
 6683TIP3   OH219991   7.247   6.247   5.017
 6683TIP3    H119992   7.245   6.215   4.927
 6683TIP3    H219993   7.320   6.309   5.019
 6684TIP3   OH219994   5.809   3.582   4.115
 6684TIP3    H119995   5.836   3.621   4.198
 6684TIP3    H219996   5.714   3.593   4.112
 6685TIP3   OH219997   1.533   6.279   6.073
 6685TIP3    H119998   1.591   6.344   6.034
 6685TIP3    H219999   1.488   6.325   6.144
 6686TIP3   OH220000   8.058   2.537   2.451
 6686TIP3    H120001   8.120   2.523   2.522
 6686TIP3    H220002   7.977   2.563   2.494
 6687TIP3   OH220003   4.775   5.865   6.577
 6687TIP3    H120004   4.802   5.931   6.514
 6687TIP3    H220005   4.742   5.915   6.652
 6688TIP3   OH220006   0.012   6.678   3.374
 6688TIP3    H120007   0.048   6.609   3.430
 6688TIP3    H220008   0.067   6.754   3.390
 6689TIP3   OH220009   7.844   0.419   6.557
 6689TIP3    H120010   7.795   0.362   6.497
 6689TIP3    H220011   7.921   0.445   6.507
 6690TIP3   OH220012   0.506   7.210   5.098
 6690TIP3    H120013   0.430   7.152   5.099
 6690TIP3    H220014   0.564   7.175   5.166
 6691TIP3   OH220015   0.022   3.895   2.353
 6691TIP3    H120016   0.062   3.917   2.269
 6691TIP3    H220017  -0.044   3.830   2.332
 6692TIP3   OH220018   5.409   1.646   6.147
 6692TIP3    H120019   5.352   1.687   6.083
 6692TIP3    H220020   5.497   1.680   6.127
 6693TIP3   OH220021   0.082   7.427   4.689
 6693TIP3    H120022   0.061   7.476   4.769
 6693TIP3    H220023   0.160   7.375   4.714
 6694TIP3   OH220024   4.999   5.591   4.965
 6694TIP3    H120025   5.042   5.577   4.881
 6694TIP3    H220026   4.991   5.503   5.002
 6695TIP3   OH220027   7.634   2.568   4.273
 6695TIP3    H120028   7.596   2.536   4.191
 6695TIP3    H220029   7.592   2.514   4.341
 6696TIP3   OH220030   0.521   4.714   0.370
 6696TIP3    H120031   0.549   4.804   0.390
 6696TIP3    H220032   0.573   4.689   0.294
 6697TIP3   OH220033   2.538   2.272   4.750
 6697TIP3    H120034   2.478   2.199   4.765
 6697TIP3    H220035   2.614   2.231   4.708
 6698TIP3   OH220036   3.686   0.682   0.516
 6698TIP3    H120037   3.596   0.652   0.525
 6698TIP3    H220038   3.728   0.615   0.462
 6699TIP3   OH220039   1.893   3.331   0.364
 6699TIP3    H120040   1.827   3.397   0.385
 6699TIP3    H220041   1.844   3.249   0.357
 6700TIP3   OH220042   0.385   5.157   4.803
 6700TIP3    H120043   0.295   5.181   4.781
 6700TIP3    H220044   0.379   5.064   4.826
 6701TIP3   OH220045   0.162   2.466   5.135
 6701TIP3    H120046   0.123   2.387   5.172
 6701TIP3    H220047   0.255   2.446   5.126
 6702TIP3   OH220048   8.020   7.056   3.093
 6702TIP3    H120049   8.025   7.102   3.010
 6702TIP3    H220050   7.938   7.087   3.133
 6703TIP3   OH220051   1.741   2.698   4.773
 6703TIP3    H120052   1.704   2.768   4.827
 6703TIP3    H220053   1.836   2.712   4.777
 6704TIP3   OH220054   2.669   4.217   2.230
 6704TIP3    H120055   2.709   4.173   2.155
 6704TIP3    H220056   2.628   4.146   2.280
 6705TIP3   OH220057   1.143   3.249   5.639
 6705TIP3    H120058   1.128   3.167   5.684
 6705TIP3    H220059   1.062   3.299   5.651
 6706TIP3   OH220060   0.726   5.998   2.296
 6706TIP3    H120061   0.637   6.017   2.327
 6706TIP3    H220062   0.723   6.012   2.202
 6707TIP3   OH220063   4.608   3.387   1.927
 6707TIP3    H120064   4.608   3.316   1.991
 6707TIP3    H220065   4.528   3.375   1.877
 6708TIP3   OH220066   3.540   3.513   3.738
 6708TIP3    H120067   3.584   3.558   3.810
 6708TIP3    H220068   3.553   3.420   3.756
 6709TIP3   OH220069   0.604   5.120   5.246
 6709TIP3    H120070   0.689   5.157   5.221
 6709TIP3    H220071   0.572   5.178   5.316
 6710TIP3   OH220072   6.869   3.920   0.661
 6710TIP3    H120073   6.877   4.001   0.610
 6710TIP3    H220074   6.958   3.899   0.688
 6711TIP3   OH220075   4.640   2.167   3.578
 6711TIP3    H120076   4.733   2.156   3.598
 6711TIP3    H220077   4.600   2.083   3.601
 6712TIP3   OH220078   8.168   6.161   2.145
 6712TIP3    H120079   8.098   6.167   2.210
 6712TIP3    H220080   8.124   6.169   2.061
 6713TIP3   OH220081   6.977   3.016   2.764
 6713TIP3    H120082   6.970   2.954   2.837
 6713TIP3    H220083   7.051   3.072   2.787
 6714TIP3   OH220084   7.384   7.847   6.386
 6714TIP3    H120085   7.397   7.753   6.404
 6714TIP3    H220086   7.294   7.864   6.411
 6715TIP3   OH220087   6.776   5.857   0.369
 6715TIP3    H120088   6.702   5.807   0.401
 6715TIP3    H220089   6.851   5.799   0.379
 6716TIP3   OH220090   0.013   5.160   4.330
 6716TIP3    H120091   0.104   5.161   4.299
 6716TIP3    H220092   0.019   5.136   4.422
 6717TIP3   OH220093   5.748   5.638   5.532
 6717TIP3    H120094   5.704   5.576   5.590
 6717TIP3    H220095   5.754   5.718   5.583
 6718TIP3   OH220096   5.559   4.675   5.124
 6718TIP3    H120097   5.486   4.729   5.151
 6718TIP3    H220098   5.635   4.713   5.168
 6719TIP3   OH220099   3.427   2.883   6.294
 6719TIP3    H120100   3.381   2.850   6.217
 6719TIP3    H220101   3.421   2.811   6.358
 6720TIP3   OH220102   6.003   2.179   6.717
 6720TIP3    H120103   5.974   2.265   6.686
 6720TIP3    H220104   6.097   2.179   6.702
 6721TIP3   OH220105   1.179   4.100   3.687
 6721TIP3    H120106   1.098   4.122   3.733
 6721TIP3    H220107   1.204   4.014   3.721
 6722TIP3   OH220108   8.280   2.253   0.931
 6722TIP3    H120109   8.236   2.177   0.894
 6722TIP3    H220110   8.317   2.299   0.856
 6723TIP3   OH220111   3.614   6.100   0.133
 6723TIP3    H120112   3.586   6.190   0.115
 6723TIP3    H220113   3.559   6.046   0.076
 6724TIP3   OH220114   3.001   5.534   2.576
 6724TIP3    H120115   2.919   5.493   2.603
 6724TIP3    H220116   3.053   5.537   2.656
 6725TIP3   OH220117   6.228   1.059   2.547
 6725TIP3    H120118   6.300   1.049   2.485
 6725TIP3    H220119   6.202   0.969   2.568
 6726TIP3   OH220120   7.144   4.494   1.412
 6726TIP3    H120121   7.109   4.571   1.458
 6726TIP3    H220122   7.231   4.481   1.451
 6727TIP3   OH220123   7.977   1.369   0.309
 6727TIP3    H120124   7.950   1.385   0.218
 6727TIP3    H220125   8.029   1.289   0.304
 6728TIP3   OH220126   7.126   5.433   5.312
 6728TIP3    H120127   7.047   5.469   5.274
 6728TIP3    H220128   7.157   5.501   5.372
 6729TIP3   OH220129   7.707   1.089   0.310
 6729TIP3    H120130   7.654   1.068   0.233
 6729TIP3    H220131   7.794   1.109   0.276
 6730TIP3   OH220132   6.832   2.526   4.624
 6730TIP3    H120133   6.834   2.439   4.583
 6730TIP3    H220134   6.920   2.561   4.609
 6731TIP3   OH220135   1.437   4.617   3.085
 6731TIP3    H120136   1.413   4.526   3.066
 6731TIP3    H220137   1.358   4.668   3.063
 6732TIP3   OH220138   7.329   2.313   0.832
 6732TIP3    H120139   7.268   2.382   0.807
 6732TIP3    H220140   7.396   2.358   0.884
 6733TIP3   OH220141   7.224   0.469   5.699
 6733TIP3    H120142   7.217   0.382   5.738
 6733TIP3    H220143   7.134   0.501   5.696
 6734TIP3   OH220144   3.253   1.322   0.521
 6734TIP3    H120145   3.175   1.359   0.480
 6734TIP3    H220146   3.235   1.228   0.527
 6735TIP3   OH220147   8.011   7.465   5.940
 6735TIP3    H120148   8.006   7.561   5.936
 6735TIP3    H220149   8.001   7.436   5.850
 6736TIP3   OH220150   6.492   2.915   2.447
 6736TIP3    H120151   6.447   2.890   2.528
 6736TIP3    H220152   6.441   2.987   2.412
 6737TIP3   OH220153   5.403   1.230   3.546
 6737TIP3    H120154   5.489   1.255   3.513
 6737TIP3    H220155   5.415   1.224   3.641
 6738TIP3   OH220156   3.308   7.554   4.235
 6738TIP3    H120157   3.357   7.555   4.153
 6738TIP3    H220158   3.216   7.555   4.208
 6739TIP3   OH220159   0.424   4.353   1.975
 6739TIP3    H120160   0.432   4.258   1.983
 6739TIP3    H220161   0.491   4.387   2.034
 6740TIP3   OH220162   6.869   1.578   3.009
 6740TIP3    H120163   6.845   1.503   2.955
 6740TIP3    H220164   6.892   1.541   3.094
 6741TIP3   OH220165   5.757   5.831   4.395
 6741TIP3    H120166   5.720   5.852   4.309
 6741TIP3    H220167   5.789   5.741   4.385
 6742TIP3   OH220168   1.146   2.859   2.291
 6742TIP3    H120169   1.111   2.921   2.226
 6742TIP3    H220170   1.149   2.776   2.244
 6743TIP3   OH220171   0.187   0.556   1.432
 6743TIP3    H120172   0.171   0.643   1.396
 6743TIP3    H220173   0.174   0.566   1.526
 6744TIP3   OH220174   5.126   4.315   2.478
 6744TIP3    H120175   5.046   4.368   2.482
 6744TIP3    H220176   5.180   4.358   2.412
 6745TIP3   OH220177   5.277   4.563   2.687
 6745TIP3    H120178   5.236   4.593   2.606
 6745TIP3    H220179   5.241   4.475   2.701
 6746TIP3   OH220180   0.542   2.783   3.016
 6746TIP3    H120181   0.560   2.713   2.953
 6746TIP3    H220182   0.488   2.742   3.083
 6747TIP3   OH220183   7.115   0.349   0.112
 6747TIP3    H120184   7.179   0.348   0.183
 6747TIP3    H220185   7.145   0.283   0.051
 6748TIP3   OH220186   6.174   0.381   1.013
 6748TIP3    H120187   6.082   0.359   1.026
 6748TIP3    H220188   6.180   0.406   0.921
 6749TIP3   OH220189   5.812   1.038   4.793
 6749TIP3    H120190   5.732   1.046   4.846
 6749TIP3    H220191   5.804   0.954   4.749
 6750TIP3   OH220192   8.149   3.488   4.121
 6750TIP3    H120193   8.208   3.550   4.079
 6750TIP3    H220194   8.201   3.408   4.131
 6751TIP3   OH220195   5.735   4.753   2.903
 6751TIP3    H120196   5.788   4.716   2.973
 6751TIP3    H220197   5.664   4.690   2.890
 6752TIP3   OH220198   1.178   1.657   6.731
 6752TIP3    H120199   1.134   1.729   6.686
 6752TIP3    H220200   1.156   1.580   6.680
 6753TIP3   OH220201   4.526   2.864   2.698
 6753TIP3    H120202   4.458   2.812   2.657
 6753TIP3    H220203   4.598   2.802   2.713
 6754TIP3   OH220204   5.838   3.824   3.341
 6754TIP3    H120205   5.784   3.845   3.264
 6754TIP3    H220206   5.922   3.865   3.322
 6755TIP3   OH220207   2.432   5.236   5.014
 6755TIP3    H120208   2.427   5.328   4.987
 6755TIP3    H220209   2.350   5.220   5.061
 6756TIP3   OH220210   4.166   2.259   2.785
 6756TIP3    H120211   4.091   2.213   2.823
 6756TIP3    H220212   4.242   2.222   2.830
 6757TIP3   OH220213   7.922   7.730   0.983
 6757TIP3    H120214   7.970   7.725   1.065
 6757TIP3    H220215   7.834   7.758   1.008
 6758TIP3   OH220216   4.363   1.973   5.138
 6758TIP3    H120217   4.337   1.888   5.173
 6758TIP3    H220218   4.345   1.967   5.044
 6759TIP3   OH220219   7.399   7.662   0.511
 6759TIP3    H120220   7.321   7.710   0.485
 6759TIP3    H220221   7.465   7.687   0.446
 6760TIP3   OH220222   4.152   3.131   1.831
 6760TIP3    H120223   4.134   3.038   1.817
 6760TIP3    H220224   4.067   3.168   1.856
 6761TIP3   OH220225   1.903   7.138   0.468
 6761TIP3    H120226   1.995   7.114   0.476
 6761TIP3    H220227   1.856   7.055   0.466
 6762TIP3   OH220228   7.708   7.564   5.190
 6762TIP3    H120229   7.649   7.613   5.247
 6762TIP3    H220230   7.676   7.582   5.102
 6763TIP3   OH220231   4.359   0.121   3.735
 6763TIP3    H120232   4.292   0.160   3.679
 6763TIP3    H220233   4.311   0.059   3.790
 6764TIP3   OH220234   1.569   2.873   2.337
 6764TIP3    H120235   1.563   2.938   2.267
 6764TIP3    H220236   1.648   2.896   2.385
 6765TIP3   OH220237   4.956   3.764   3.176
 6765TIP3    H120238   4.980   3.769   3.084
 6765TIP3    H220239   4.952   3.670   3.195
 6766TIP3   OH220240   4.950   7.737   5.748
 6766TIP3    H120241   4.916   7.801   5.684
 6766TIP3    H220242   5.038   7.769   5.769
 6767TIP3   OH220243   0.385   2.447   2.575
 6767TIP3    H120244   0.322   2.374   2.574
 6767TIP3    H220245   0.347   2.510   2.637
 6768TIP3   OH220246   1.444   0.559   6.342
 6768TIP3    H120247   1.533   0.569   6.309
 6768TIP3    H220248   1.388   0.580   6.267
 6769TIP3   OH220249   5.523   2.655   1.195
 6769TIP3    H120250   5.610   2.684   1.168
 6769TIP3    H220251   5.463   2.697   1.133
 6770TIP3   OH220252   1.869   1.572   2.681
 6770TIP3    H120253   1.779   1.567   2.646
 6770TIP3    H220254   1.860   1.623   2.761
 6771TIP3   OH220255   4.091   3.483   1.537
 6771TIP3    H120256   4.115   3.522   1.453
 6771TIP3    H220257   4.017   3.426   1.518
 6772TIP3   OH220258   6.680   5.737   1.095
 6772TIP3    H120259   6.606   5.677   1.089
 6772TIP3    H220260   6.641   5.823   1.109
 6773TIP3   OH220261   5.541   1.930   5.048
 6773TIP3    H120262   5.601   1.988   5.096
 6773TIP3    H220263   5.457   1.976   5.048
 6774TIP3   OH220264   2.187   5.452   0.444
 6774TIP3    H120265   2.128   5.383   0.474
 6774TIP3    H220266   2.259   5.452   0.508
 6775TIP3   OH220267   3.106   3.509   4.360
 6775TIP3    H120268   3.069   3.578   4.415
 6775TIP3    H220269   3.051   3.508   4.282
 6776TIP3   OH220270   6.253   7.672   2.893
 6776TIP3    H120271   6.284   7.741   2.834
 6776TIP3    H220272   6.255   7.711   2.980
 6777TIP3   OH220273   7.544   6.762   4.948
 6777TIP3    H120274   7.470   6.822   4.934
 6777TIP3    H220275   7.503   6.676   4.953
 6778TIP3   OH220276   4.679   2.651   2.421
 6778TIP3    H120277   4.731   2.587   2.372
 6778TIP3    H220278   4.600   2.603   2.445
 6779TIP3   OH220279   5.705   6.761   6.590
 6779TIP3    H120280   5.761   6.741   6.664
 6779TIP3    H220281   5.736   6.846   6.559
 6780TIP3   OH220282   7.383   0.320   6.128
 6780TIP3    H120283   7.398   0.227   6.147
 6780TIP3    H220284   7.289   0.326   6.113
 6781TIP3   OH220285   3.873   4.762   0.126
 6781TIP3    H120286   3.946   4.701   0.118
 6781TIP3    H220287   3.869   4.784   0.219
 6782TIP3   OH220288   0.123   5.431   2.459
 6782TIP3    H120289   0.144   5.402   2.548
 6782TIP3    H220290   0.181   5.505   2.444
 6783TIP3   OH220291   8.033   7.532   4.017
 6783TIP3    H120292   8.067   7.447   4.042
 6783TIP3    H220293   8.106   7.592   4.031
 6784TIP3   OH220294   2.257   1.166   6.212
 6784TIP3    H120295   2.349   1.138   6.214
 6784TIP3    H220296   2.256   1.241   6.153
 6785TIP3   OH220297   1.148   5.203   6.578
 6785TIP3    H120298   1.105   5.164   6.502
 6785TIP3    H220299   1.212   5.264   6.541
 6786TIP3   OH220300   4.703   6.247   3.831
 6786TIP3    H120301   4.704   6.153   3.812
 6786TIP3    H220302   4.635   6.282   3.773
 6787TIP3   OH220303   5.819   2.640   2.560
 6787TIP3    H120304   5.773   2.641   2.476
 6787TIP3    H220305   5.884   2.710   2.553
 6788TIP3   OH220306   6.492   6.950   0.237
 6788TIP3    H120307   6.464   6.863   0.208
 6788TIP3    H220308   6.415   7.005   0.223
 6789TIP3   OH220309   4.147   5.586   4.527
 6789TIP3    H120310   4.178   5.578   4.617
 6789TIP3    H220311   4.059   5.624   4.535
 6790TIP3   OH220312   0.483   0.097   1.422
 6790TIP3    H120313   0.558   0.142   1.460
 6790TIP3    H220314   0.431   0.166   1.382
 6791TIP3   OH220315   3.418   2.793   2.032
 6791TIP3    H120316   3.434   2.700   2.016
 6791TIP3    H220317   3.501   2.835   2.009
 6792TIP3   OH220318   7.914   6.585   0.192
 6792TIP3    H120319   7.898   6.628   0.108
 6792TIP3    H220320   7.844   6.521   0.200
 6793TIP3   OH220321   5.946   4.315   0.372
 6793TIP3    H120322   5.950   4.304   0.467
 6793TIP3    H220323   5.871   4.260   0.346
 6794TIP3   OH220324   5.812   0.349   2.474
 6794TIP3    H120325   5.723   0.377   2.494
 6794TIP3    H220326   5.844   0.308   2.554
 6795TIP3   OH220327   4.301   6.119   3.030
 6795TIP3    H120328   4.314   6.170   2.950
 6795TIP3    H220329   4.275   6.184   3.095
 6796TIP3   OH220330   1.148   7.536   1.662
 6796TIP3    H120331   1.133   7.586   1.742
 6796TIP3    H220332   1.198   7.595   1.606
 6797TIP3   OH220333   0.575   5.370   3.758
 6797TIP3    H120334   0.636   5.405   3.823
 6797TIP3    H220335   0.506   5.328   3.809
 6798TIP3   OH220336   7.467   4.297   6.079
 6798TIP3    H120337   7.442   4.228   6.017
 6798TIP3    H220338   7.457   4.256   6.165
 6799TIP3   OH220339   4.795   6.658   2.068
 6799TIP3    H120340   4.711   6.622   2.096
 6799TIP3    H220341   4.835   6.691   2.148
 6800TIP3   OH220342   0.694   6.062   3.703
 6800TIP3    H120343   0.724   6.060   3.612
 6800TIP3    H220344   0.764   6.107   3.750
 6801TIP3   OH220345   5.877   1.085   0.439
 6801TIP3    H120346   5.907   1.086   0.348
 6801TIP3    H220347   5.794   1.037   0.436
 6802TIP3   OH220348   6.091   3.183   6.632
 6802TIP3    H120349   6.041   3.221   6.704
 6802TIP3    H220350   6.033   3.187   6.557
 6803TIP3   OH220351   0.746   7.306   1.718
 6803TIP3    H120352   0.791   7.330   1.799
 6803TIP3    H220353   0.807   7.329   1.648
 6804TIP3   OH220354   1.797   6.739   2.779
 6804TIP3    H120355   1.866   6.707   2.837
 6804TIP3    H220356   1.748   6.661   2.754
 6805TIP3   OH220357   3.930   1.120   3.404
 6805TIP3    H120358   4.000   1.082   3.458
 6805TIP3    H220359   3.854   1.121   3.461
 6806TIP3   OH220360   2.777   5.600   6.353
 6806TIP3    H120361   2.793   5.603   6.258
 6806TIP3    H220362   2.834   5.668   6.389
 6807TIP3   OH220363   0.526   2.016   3.966
 6807TIP3    H120364   0.570   2.028   3.882
 6807TIP3    H220365   0.461   2.086   3.970
 6808TIP3   OH220366   4.332   6.453   3.412
 6808TIP3    H120367   4.384   6.514   3.360
 6808TIP3    H220368   4.289   6.508   3.478
 6809TIP3   OH220369   1.800   6.251   2.535
 6809TIP3    H120370   1.819   6.292   2.619
 6809TIP3    H220371   1.740   6.312   2.492
 6810TIP3   OH220372   7.610   3.142   3.728
 6810TIP3    H120373   7.650   3.124   3.643
 6810TIP3    H220374   7.650   3.224   3.757
 6811TIP3   OH220375   8.232   2.935   5.936
 6811TIP3    H120376   8.219   2.861   5.877
 6811TIP3    H220377   8.169   3.001   5.906
 6812TIP3   OH220378   6.487   4.790   6.532
 6812TIP3    H120379   6.543   4.792   6.454
 6812TIP3    H220380   6.487   4.880   6.563
 6813TIP3   OH220381   5.214   6.279   5.135
 6813TIP3    H120382   5.133   6.229   5.131
 6813TIP3    H220383   5.268   6.244   5.065
 6814TIP3   OH220384   7.615   1.284   1.612
 6814TIP3    H120385   7.637   1.226   1.685
 6814TIP3    H220386   7.527   1.317   1.633
 6815TIP3   OH220387   6.452   7.026   5.351
 6815TIP3    H120388   6.387   7.020   5.421
 6815TIP3    H220389   6.513   7.094   5.382
 6816TIP3   OH220390   4.555   6.269   5.961
 6816TIP3    H120391   4.498   6.344   5.980
 6816TIP3    H220392   4.644   6.303   5.974
 6817TIP3   OH220393   6.929   6.876   0.164
 6817TIP3    H120394   6.905   6.851   0.253
 6817TIP3    H220395   7.024   6.874   0.163
 6818TIP3   OH220396   7.032   0.079   5.637
 6818TIP3    H120397   7.035   0.159   5.585
 6818TIP3    H220398   7.034   0.008   5.572
 6819TIP3   OH220399   4.659   0.826   5.396
 6819TIP3    H120400   4.642   0.822   5.490
 6819TIP3    H220401   4.677   0.735   5.371
 6820TIP3   OH220402   1.427   2.028   3.627
 6820TIP3    H120403   1.423   2.088   3.701
 6820TIP3    H220404   1.517   1.994   3.628
 6821TIP3   OH220405   6.520   4.798   5.653
 6821TIP3    H120406   6.577   4.833   5.722
 6821TIP3    H220407   6.511   4.705   5.674
 6822TIP3   OH220408   3.277   1.490   4.823
 6822TIP3    H120409   3.204   1.551   4.832
 6822TIP3    H220410   3.352   1.536   4.860
 6823TIP3   OH220411   2.914   2.344   4.631
 6823TIP3    H120412   2.958   2.422   4.664
 6823TIP3    H220413   2.973   2.272   4.654
 6824TIP3   OH220414   1.797   5.508   5.777
 6824TIP3    H120415   1.774   5.571   5.710
 6824TIP3    H220416   1.881   5.471   5.748
 6825TIP3   OH220417   3.544   3.955   2.002
 6825TIP3    H120418   3.624   3.952   1.950
 6825TIP3    H220419   3.475   3.976   1.940
 6826TIP3   OH220420   1.377   1.446   6.689
 6826TIP3    H120421   1.456   1.480   6.729
 6826TIP3    H220422   1.332   1.400   6.760
 6827TIP3   OH220423   5.203   2.700   6.220
 6827TIP3    H120424   5.225   2.693   6.314
 6827TIP3    H220425   5.251   2.777   6.190
 6828TIP3   OH220426   3.102   2.041   1.389
 6828TIP3    H120427   3.033   2.102   1.364
 6828TIP3    H220428   3.068   1.998   1.468
 6829TIP3   OH220429   5.229   2.654   6.505
 6829TIP3    H120430   5.211   2.569   6.545
 6829TIP3    H220431   5.219   2.717   6.576
 6830TIP3   OH220432   3.816   3.858   6.166
 6830TIP3    H120433   3.910   3.873   6.163
 6830TIP3    H220434   3.779   3.940   6.198
 6831TIP3   OH220435   3.309   5.041   1.219
 6831TIP3    H120436   3.287   5.125   1.260
 6831TIP3    H220437   3.247   4.979   1.256
 6832TIP3   OH220438   3.037   3.215   4.142
 6832TIP3    H120439   3.022   3.220   4.237
 6832TIP3    H220440   2.956   3.251   4.104
 6833TIP3   OH220441   4.074   1.425   5.908
 6833TIP3    H120442   4.107   1.366   5.976
 6833TIP3    H220443   3.980   1.406   5.905
 6834TIP3   OH220444   2.037   0.293   4.729
 6834TIP3    H120445   2.016   0.322   4.818
 6834TIP3    H220446   2.079   0.370   4.689
 6835TIP3   OH220447   3.176   5.264   6.733
 6835TIP3    H120448   3.232   5.334   6.767
 6835TIP3    H220449   3.088   5.302   6.734
 6836TIP3   OH220450   1.713   5.355   1.889
 6836TIP3    H120451   1.650   5.323   1.825
 6836TIP3    H220452   1.665   5.358   1.972
 6837TIP3   OH220453   6.966   0.683   5.947
 6837TIP3    H120454   6.945   0.618   6.014
 6837TIP3    H220455   7.033   0.739   5.987
 6838TIP3   OH220456   5.744   2.119   3.228
 6838TIP3    H120457   5.676   2.185   3.211
 6838TIP3    H220458   5.819   2.169   3.258
 6839TIP3   OH220459   5.410   3.001   1.239
 6839TIP3    H120460   5.344   3.060   1.204
 6839TIP3    H220461   5.493   3.032   1.202
 6840TIP3   OH220462   4.139   4.559   1.416
 6840TIP3    H120463   4.189   4.520   1.488
 6840TIP3    H220464   4.189   4.538   1.338
 6841TIP3   OH220465   5.165   2.816   0.428
 6841TIP3    H120466   5.246   2.864   0.411
 6841TIP3    H220467   5.191   2.725   0.434
 6842TIP3   OH220468   0.365   4.849   2.280
 6842TIP3    H120469   0.449   4.887   2.255
 6842TIP3    H220470   0.313   4.851   2.199
 6843TIP3   OH220471   0.941   6.122   1.381
 6843TIP3    H120472   1.001   6.192   1.355
 6843TIP3    H220473   0.876   6.166   1.436
 6844TIP3   OH220474   1.133   1.982   1.868
 6844TIP3    H120475   1.137   1.904   1.813
 6844TIP3    H220476   1.078   2.044   1.819
 6845TIP3   OH220477   1.239   6.947   1.260
 6845TIP3    H120478   1.264   7.028   1.215
 6845TIP3    H220479   1.164   6.915   1.211
 6846TIP3   OH220480   4.159   1.774   0.243
 6846TIP3    H120481   4.165   1.688   0.200
 6846TIP3    H220482   4.140   1.835   0.171
 6847TIP3   OH220483   1.860   1.198   5.091
 6847TIP3    H120484   1.786   1.137   5.096
 6847TIP3    H220485   1.922   1.156   5.031
 6848TIP3   OH220486   2.890   4.616   2.057
 6848TIP3    H120487   2.795   4.631   2.056
 6848TIP3    H220488   2.916   4.621   1.965
 6849TIP3   OH220489   3.004   4.869   6.425
 6849TIP3    H120490   2.916   4.833   6.436
 6849TIP3    H220491   3.060   4.793   6.412
 6850TIP3   OH220492   0.159   1.110   2.284
 6850TIP3    H120493   0.167   1.184   2.225
 6850TIP3    H220494   0.246   1.101   2.323
 6851TIP3   OH220495   6.293   7.428   0.520
 6851TIP3    H120496   6.354   7.360   0.492
 6851TIP3    H220497   6.255   7.462   0.438
 6852TIP3   OH220498   0.089   4.921   0.219
 6852TIP3    H120499   0.147   4.868   0.274
 6852TIP3    H220500   0.097   4.884   0.131
 6853TIP3   OH220501   6.871   6.844   3.178
 6853TIP3    H120502   6.865   6.936   3.202
 6853TIP3    H220503   6.946   6.838   3.119
 6854TIP3   OH220504   4.008   1.887   3.749
 6854TIP3    H120505   4.056   1.965   3.720
 6854TIP3    H220506   4.055   1.857   3.826
 6855TIP3   OH220507   3.669   1.187   2.802
 6855TIP3    H120508   3.675   1.205   2.708
 6855TIP3    H220509   3.731   1.115   2.816
 6856TIP3   OH220510   2.599   7.652   0.335
 6856TIP3    H120511   2.589   7.571   0.384
 6856TIP3    H220512   2.668   7.700   0.381
 6857TIP3   OH220513   1.222   2.038   0.043
 6857TIP3    H120514   1.128   2.055   0.038
 6857TIP3    H220515   1.258   2.083  -0.033
 6858TIP3   OH220516   2.857   0.288   3.682
 6858TIP3    H120517   2.930   0.340   3.649
 6858TIP3    H220518   2.829   0.334   3.761
 6859TIP3   OH220519   3.932   3.136   3.529
 6859TIP3    H120520   3.924   3.081   3.451
 6859TIP3    H220521   3.871   3.098   3.592
 6860TIP3   OH220522   7.746   2.831   6.736
 6860TIP3    H120523   7.704   2.804   6.655
 6860TIP3    H220524   7.710   2.772   6.802
 6861TIP3   OH220525   7.480   7.245   6.741
 6861TIP3    H120526   7.432   7.260   6.660
 6861TIP3    H220527   7.569   7.276   6.723
 6862TIP3   OH220528   4.965   1.956   6.270
 6862TIP3    H120529   4.981   2.050   6.265
 6862TIP3    H220530   5.045   1.916   6.234
 6863TIP3   OH220531   2.066   3.846   0.392
 6863TIP3    H120532   2.030   3.771   0.439
 6863TIP3    H220533   1.990   3.893   0.359
 6864TIP3   OH220534   4.192   7.557   5.164
 6864TIP3    H120535   4.152   7.630   5.210
 6864TIP3    H220536   4.213   7.591   5.077
 6865TIP3   OH220537   4.216   6.819   1.188
 6865TIP3    H120538   4.165   6.744   1.160
 6865TIP3    H220539   4.152   6.878   1.229
 6866TIP3   OH220540   3.784   3.802   6.660
 6866TIP3    H120541   3.728   3.842   6.595
 6866TIP3    H220542   3.726   3.781   6.733
 6867TIP3   OH220543   7.363   3.592   2.908
 6867TIP3    H120544   7.394   3.632   2.989
 6867TIP3    H220545   7.401   3.645   2.838
 6868TIP3   OH220546   2.560   2.781   5.367
 6868TIP3    H120547   2.567   2.694   5.408
 6868TIP3    H220548   2.649   2.801   5.338
 6869TIP3   OH220549   2.819   3.470   2.069
 6869TIP3    H120550   2.834   3.519   2.150
 6869TIP3    H220551   2.830   3.535   1.999
 6870TIP3   OH220552   2.651   7.725   4.638
 6870TIP3    H120553   2.638   7.748   4.547
 6870TIP3    H220554   2.587   7.655   4.655
 6871TIP3   OH220555   5.320   3.355   5.410
 6871TIP3    H120556   5.281   3.346   5.323
 6871TIP3    H220557   5.308   3.448   5.431
 6872TIP3   OH220558   1.326   4.111   0.801
 6872TIP3    H120559   1.351   4.198   0.770
 6872TIP3    H220560   1.241   4.094   0.761
 6873TIP3   OH220561   3.538   1.169   0.855
 6873TIP3    H120562   3.597   1.231   0.898
 6873TIP3    H220563   3.532   1.096   0.917
 6874TIP3   OH220564   6.533   4.669   0.562
 6874TIP3    H120565   6.453   4.722   0.564
 6874TIP3    H220566   6.566   4.679   0.473
 6875TIP3   OH220567   6.263   0.027   0.302
 6875TIP3    H120568   6.285   0.103   0.247
 6875TIP3    H220569   6.326   0.031   0.374
 6876TIP3   OH220570   6.410   4.835   1.823
 6876TIP3    H120571   6.396   4.845   1.729
 6876TIP3    H220572   6.329   4.866   1.863
 6877TIP3   OH220573   6.171   2.789   1.310
 6877TIP3    H120574   6.144   2.698   1.325
 6877TIP3    H220575   6.148   2.835   1.390
 6878TIP3   OH220576   4.864   7.602   4.706
 6878TIP3    H120577   4.922   7.527   4.697
 6878TIP3    H220578   4.920   7.672   4.741
 6879TIP3   OH220579   4.117   4.750   1.078
 6879TIP3    H120580   4.035   4.797   1.061
 6879TIP3    H220581   4.129   4.758   1.172
 6880TIP3   OH220582   1.828   6.113   4.409
 6880TIP3    H120583   1.778   6.042   4.367
 6880TIP3    H220584   1.874   6.155   4.337
 6881TIP3   OH220585   0.943   1.593   5.797
 6881TIP3    H120586   0.882   1.608   5.724
 6881TIP3    H220587   1.021   1.644   5.775
 6882TIP3   OH220588   2.285   3.336   1.400
 6882TIP3    H120589   2.272   3.415   1.452
 6882TIP3    H220590   2.197   3.302   1.387
 6883TIP3   OH220591   5.725   5.354   6.268
 6883TIP3    H120592   5.734   5.259   6.255
 6883TIP3    H220593   5.632   5.368   6.282
 6884TIP3   OH220594   4.291   1.868   5.448
 6884TIP3    H120595   4.202   1.864   5.413
 6884TIP3    H220596   4.318   1.959   5.435
 6885TIP3   OH220597   6.452   0.000   6.056
 6885TIP3    H120598   6.376  -0.017   6.000
 6885TIP3    H220599   6.460   0.095   6.057
 6886TIP3   OH220600   5.578   2.585   4.694
 6886TIP3    H120601   5.535   2.524   4.755
 6886TIP3    H220602   5.537   2.567   4.609
 6887TIP3   OH220603   3.537   5.078   5.487
 6887TIP3    H120604   3.576   5.150   5.537
 6887TIP3    H220605   3.504   5.120   5.408
 6888TIP3   OH220606   7.441   6.946   0.726
 6888TIP3    H120607   7.402   6.955   0.813
 6888TIP3    H220608   7.404   7.018   0.675
 6889TIP3   OH220609   2.354   3.563   3.757
 6889TIP3    H120610   2.412   3.589   3.828
 6889TIP3    H220611   2.355   3.637   3.697
 6890TIP3   OH220612   7.879   0.520   2.672
 6890TIP3    H120613   7.881   0.450   2.737
 6890TIP3    H220614   7.931   0.487   2.599
 6891TIP3   OH220615   0.486   5.672   4.216
 6891TIP3    H120616   0.564   5.704   4.172
 6891TIP3    H220617   0.450   5.748   4.261
 6892TIP3   OH220618   0.212   1.395   4.023
 6892TIP3    H120619   0.135   1.353   4.061
 6892TIP3    H220620   0.179   1.440   3.945
 6893TIP3   OH220621   6.718   3.641   1.469
 6893TIP3    H120622   6.776   3.717   1.482
 6893TIP3    H220623   6.775   3.574   1.433
 6894TIP3   OH220624   8.224   0.389   2.676
 6894TIP3    H120625   8.187   0.457   2.732
 6894TIP3    H220626   8.319   0.396   2.691
 6895TIP3   OH220627   4.460   2.348   4.009
 6895TIP3    H120628   4.383   2.395   4.041
 6895TIP3    H220629   4.486   2.291   4.081
 6896TIP3   OH220630   4.414   0.299   6.071
 6896TIP3    H120631   4.442   0.386   6.097
 6896TIP3    H220632   4.335   0.282   6.122
 6897TIP3   OH220633   3.192   3.432   6.630
 6897TIP3    H120634   3.130   3.391   6.690
 6897TIP3    H220635   3.170   3.396   6.544
 6898TIP3   OH220636   5.839   3.621   6.202
 6898TIP3    H120637   5.831   3.553   6.135
 6898TIP3    H220638   5.903   3.586   6.264
 6899TIP3   OH220639   7.671   0.994   2.092
 6899TIP3    H120640   7.727   0.932   2.045
 6899TIP3    H220641   7.620   0.940   2.151
 6900TIP3   OH220642   2.818   1.823   5.582
 6900TIP3    H120643   2.846   1.911   5.554
 6900TIP3    H220644   2.895   1.768   5.566
 6901TIP3   OH220645   6.131   5.243   0.324
 6901TIP3    H120646   6.169   5.162   0.358
 6901TIP3    H220647   6.123   5.300   0.400
 6902TIP3   OH220648   1.561   5.302   3.453
 6902TIP3    H120649   1.542   5.363   3.382
 6902TIP3    H220650   1.517   5.339   3.530
 6903TIP3   OH220651   3.801   6.613   1.771
 6903TIP3    H120652   3.855   6.546   1.730
 6903TIP3    H220653   3.711   6.586   1.753
 6904TIP3   OH220654   3.572   2.389   6.687
 6904TIP3    H120655   3.590   2.318   6.747
 6904TIP3    H220656   3.640   2.382   6.620
 6905TIP3   OH220657   5.701   2.513   0.970
 6905TIP3    H120658   5.786   2.472   0.954
 6905TIP3    H220659   5.662   2.522   0.883
 6906TIP3   OH220660   6.734   7.220   3.484
 6906TIP3    H120661   6.665   7.177   3.535
 6906TIP3    H220662   6.803   7.238   3.547
 6907TIP3   OH220663   5.682   3.986   2.303
 6907TIP3    H120664   5.672   3.919   2.371
 6907TIP3    H220665   5.711   3.937   2.226
 6908TIP3   OH220666   1.039   5.575   0.270
 6908TIP3    H120667   0.993   5.492   0.276
 6908TIP3    H220668   1.025   5.617   0.355
 6909TIP3   OH220669   7.491   4.684   1.362
 6909TIP3    H120670   7.487   4.696   1.457
 6909TIP3    H220671   7.429   4.748   1.327
 6910TIP3   OH220672   5.034   6.445   3.043
 6910TIP3    H120673   4.967   6.420   2.979
 6910TIP3    H220674   5.117   6.432   2.996
 6911TIP3   OH220675   8.178   3.444   0.336
 6911TIP3    H120676   8.206   3.442   0.427
 6911TIP3    H220677   8.097   3.494   0.336
 6912TIP3   OH220678   4.572   4.250   3.283
 6912TIP3    H120679   4.514   4.257   3.206
 6912TIP3    H220680   4.590   4.341   3.306
 6913TIP3   OH220681   3.115   1.713   0.529
 6913TIP3    H120682   3.023   1.713   0.555
 6913TIP3    H220683   3.163   1.697   0.610
 6914TIP3   OH220684   6.715   7.249   6.241
 6914TIP3    H120685   6.784   7.285   6.184
 6914TIP3    H220686   6.748   7.263   6.330
 6915TIP3   OH220687   4.161   6.558   2.521
 6915TIP3    H120688   4.220   6.499   2.474
 6915TIP3    H220689   4.078   6.510   2.525
 6916TIP3   OH220690   6.491   2.679   2.294
 6916TIP3    H120691   6.511   2.622   2.369
 6916TIP3    H220692   6.502   2.768   2.328
 6917TIP3   OH220693   7.605   3.512   4.107
 6917TIP3    H120694   7.544   3.451   4.068
 6917TIP3    H220695   7.623   3.477   4.194
 6918TIP3   OH220696   1.988   1.441   6.046
 6918TIP3    H120697   1.935   1.474   5.974
 6918TIP3    H220698   1.964   1.495   6.121
 6919TIP3   OH220699   2.777   1.133   1.349
 6919TIP3    H120700   2.829   1.179   1.415
 6919TIP3    H220701   2.736   1.061   1.396
 6920TIP3   OH220702   1.458   5.807   1.879
 6920TIP3    H120703   1.459   5.894   1.837
 6920TIP3    H220704   1.415   5.821   1.963
 6921TIP3   OH220705   0.947   3.098   2.942
 6921TIP3    H120706   1.032   3.055   2.932
 6921TIP3    H220707   0.930   3.095   3.036
 6922TIP3   OH220708   7.489   7.491   4.314
 6922TIP3    H120709   7.441   7.474   4.233
 6922TIP3    H220710   7.467   7.582   4.336
 6923TIP3   OH220711   2.437   3.306   1.809
 6923TIP3    H120712   2.361   3.362   1.799
 6923TIP3    H220713   2.444   3.259   1.725
 6924TIP3   OH220714   6.797   7.806   1.121
 6924TIP3    H120715   6.772   7.766   1.204
 6924TIP3    H220716   6.715   7.838   1.084
 6925TIP3   OH220717   6.549   6.189   3.738
 6925TIP3    H120718   6.494   6.162   3.812
 6925TIP3    H220719   6.603   6.111   3.718
 6926TIP3   OH220720   4.858   0.018   0.246
 6926TIP3    H120721   4.847   0.095   0.302
 6926TIP3    H220722   4.936  -0.025   0.280
 6927TIP3   OH220723   7.168   0.100   6.436
 6927TIP3    H120724   7.092   0.083   6.491
 6927TIP3    H220725   7.163   0.035   6.367
 6928TIP3   OH220726   7.516   2.232   3.231
 6928TIP3    H120727   7.457   2.291   3.183
 6928TIP3    H220728   7.485   2.236   3.321
 6929TIP3   OH220729   3.639   4.084   1.682
 6929TIP3    H120730   3.659   4.084   1.589
 6929TIP3    H220731   3.722   4.107   1.724
 6930TIP3   OH220732   7.973   6.799   0.386
 6930TIP3    H120733   7.962   6.749   0.306
 6930TIP3    H220734   8.063   6.832   0.381
 6931TIP3   OH220735   8.312   6.261   4.197
 6931TIP3    H120736   8.354   6.340   4.232
 6931TIP3    H220737   8.218   6.276   4.211
 6932TIP3   OH220738   4.674   5.262   1.297
 6932TIP3    H120739   4.669   5.294   1.207
 6932TIP3    H220740   4.615   5.186   1.299
 6933TIP3   OH220741   7.569   1.944   5.151
 6933TIP3    H120742   7.663   1.962   5.158
 6933TIP3    H220743   7.564   1.865   5.097
 6934TIP3   OH220744   6.734   5.401   5.220
 6934TIP3    H120745   6.781   5.352   5.288
 6934TIP3    H220746   6.724   5.489   5.257
 6935TIP3   OH220747   4.328   7.035   2.168
 6935TIP3    H120748   4.261   6.969   2.151
 6935TIP3    H220749   4.381   7.037   2.089
 6936TIP3   OH220750   4.022   6.632   3.858
 6936TIP3    H120751   4.037   6.705   3.917
 6936TIP3    H220752   3.971   6.569   3.910
 6937TIP3   OH220753   8.019   0.187   1.351
 6937TIP3    H120754   8.053   0.256   1.408
 6937TIP3    H220755   7.930   0.214   1.331
 6938TIP3   OH220756   1.533   1.067   4.746
 6938TIP3    H120757   1.489   1.146   4.714
 6938TIP3    H220758   1.591   1.098   4.816
 6939TIP3   OH220759   2.106   1.255   0.878
 6939TIP3    H120760   2.057   1.217   0.951
 6939TIP3    H220761   2.049   1.242   0.802
 6940TIP3   OH220762   0.475   2.319   3.244
 6940TIP3    H120763   0.483   2.281   3.156
 6940TIP3    H220764   0.552   2.375   3.253
 6941TIP3   OH220765   0.350   0.315   4.733
 6941TIP3    H120766   0.303   0.231   4.726
 6941TIP3    H220767   0.441   0.292   4.716
 6942TIP3   OH220768   3.590   6.061   5.077
 6942TIP3    H120769   3.553   6.128   5.134
 6942TIP3    H220770   3.571   6.092   4.988
 6943TIP3   OH220771   6.419   2.739   6.054
 6943TIP3    H120772   6.333   2.773   6.031
 6943TIP3    H220773   6.401   2.656   6.099
 6944TIP3   OH220774   1.788   7.612   2.039
 6944TIP3    H120775   1.692   7.618   2.043
 6944TIP3    H220776   1.817   7.701   2.018
 6945TIP3   OH220777   3.127   4.197   2.522
 6945TIP3    H120778   3.038   4.205   2.488
 6945TIP3    H220779   3.183   4.202   2.444
 6946TIP3   OH220780   2.944   6.824   5.901
 6946TIP3    H120781   2.863   6.810   5.949
 6946TIP3    H220782   3.011   6.832   5.969
 6947TIP3   OH220783   4.257   7.564   6.045
 6947TIP3    H120784   4.260   7.571   5.949
 6947TIP3    H220785   4.189   7.498   6.061
 6948TIP3   OH220786   7.063   4.720   1.549
 6948TIP3    H120787   6.979   4.750   1.582
 6948TIP3    H220788   7.126   4.785   1.581
 6949TIP3   OH220789   2.480   5.041   2.183
 6949TIP3    H120790   2.393   5.007   2.162
 6949TIP3    H220791   2.520   4.973   2.237
 6950TIP3   OH220792   5.567   3.797   5.955
 6950TIP3    H120793   5.491   3.854   5.941
 6950TIP3    H220794   5.633   3.832   5.896
 6951TIP3   OH220795   2.698   6.134   0.992
 6951TIP3    H120796   2.611   6.107   0.965
 6951TIP3    H220797   2.685   6.218   1.035
 6952TIP3   OH220798   2.243   7.293   2.701
 6952TIP3    H120799   2.329   7.329   2.679
 6952TIP3    H220800   2.248   7.201   2.675
 6953TIP3   OH220801   0.866   3.348   4.898
 6953TIP3    H120802   0.943   3.380   4.946
 6953TIP3    H220803   0.886   3.364   4.806
 6954TIP3   OH220804   2.125   5.506   1.370
 6954TIP3    H120805   2.208   5.554   1.366
 6954TIP3    H220806   2.148   5.421   1.409
 6955TIP3   OH220807   4.599   4.127   1.480
 6955TIP3    H120808   4.623   4.071   1.406
 6955TIP3    H220809   4.615   4.216   1.448
 6956TIP3   OH220810   3.457   7.545   0.030
 6956TIP3    H120811   3.376   7.524   0.077
 6956TIP3    H220812   3.430   7.602  -0.041
 6957TIP3   OH220813   6.301   6.496   2.835
 6957TIP3    H120814   6.253   6.573   2.863
 6957TIP3    H220815   6.315   6.508   2.741
 6958TIP3   OH220816   6.269   1.516   4.547
 6958TIP3    H120817   6.233   1.488   4.631
 6958TIP3    H220818   6.203   1.490   4.482
 6959TIP3   OH220819   6.896   4.983   5.511
 6959TIP3    H120820   6.982   5.017   5.537
 6959TIP3    H220821   6.900   4.980   5.415
 6960TIP3   OH220822   6.468   3.495   2.401
 6960TIP3    H120823   6.451   3.584   2.369
 6960TIP3    H220824   6.424   3.438   2.338
 6961TIP3   OH220825   6.978   1.303   2.066
 6961TIP3    H120826   7.065   1.341   2.077
 6961TIP3    H220827   6.977   1.271   1.976
 6962TIP3   OH220828   4.627   0.444   3.156
 6962TIP3    H120829   4.721   0.452   3.175
 6962TIP3    H220830   4.584   0.459   3.241
 6963TIP3   OH220831   3.276   0.696   0.844
 6963TIP3    H120832   3.183   0.693   0.866
 6963TIP3    H220833   3.277   0.714   0.749
 6964TIP3   OH220834   1.227   6.697   0.994
 6964TIP3    H120835   1.225   6.636   0.920
 6964TIP3    H220836   1.273   6.651   1.063
 6965TIP3   OH220837   7.572   7.083   0.481
 6965TIP3    H120838   7.619   7.013   0.435
 6965TIP3    H220839   7.489   7.090   0.435
 6966TIP3   OH220840   3.192   5.269   4.917
 6966TIP3    H120841   3.121   5.297   4.976
 6966TIP3    H220842   3.162   5.295   4.830
 6967TIP3   OH220843   3.977   1.389   6.626
 6967TIP3    H120844   3.959   1.372   6.719
 6967TIP3    H220845   4.070   1.366   6.616
 6968TIP3   OH220846   0.890   1.521   6.701
 6968TIP3    H120847   0.922   1.608   6.679
 6968TIP3    H220848   0.852   1.487   6.620
 6969TIP3   OH220849   3.921   2.856   5.568
 6969TIP3    H120850   3.981   2.906   5.624
 6969TIP3    H220851   3.838   2.904   5.573
 6970TIP3   OH220852   7.461   7.390   0.693
 6970TIP3    H120853   7.425   7.452   0.630
 6970TIP3    H220854   7.549   7.371   0.661
 6971TIP3   OH220855   8.039   6.825   3.903
 6971TIP3    H120856   7.962   6.771   3.922
 6971TIP3    H220857   8.108   6.763   3.883
 6972TIP3   OH220858   5.103   5.094   6.652
 6972TIP3    H120859   5.114   5.087   6.747
 6972TIP3    H220860   5.117   5.187   6.633
 6973TIP3   OH220861   2.019   1.512   5.036
 6973TIP3    H120862   2.023   1.607   5.047
 6973TIP3    H220863   2.090   1.492   4.974
 6974TIP3   OH220864   5.981   7.557   3.101
 6974TIP3    H120865   5.950   7.471   3.129
 6974TIP3    H220866   6.074   7.557   3.121
 6975TIP3   OH220867   7.866   5.572   4.579
 6975TIP3    H120868   7.857   5.652   4.632
 6975TIP3    H220869   7.782   5.529   4.587
 6976TIP3   OH220870   3.298   2.785   4.930
 6976TIP3    H120871   3.330   2.834   4.855
 6976TIP3    H220872   3.350   2.818   5.004
 6977TIP3   OH220873   2.707   4.409   2.544
 6977TIP3    H120874   2.701   4.505   2.551
 6977TIP3    H220875   2.618   4.381   2.523
 6978TIP3   OH220876   0.348   7.006   6.159
 6978TIP3    H120877   0.415   7.038   6.099
 6978TIP3    H220878   0.280   6.968   6.102
 6979TIP3   OH220879   6.479   1.490   4.890
 6979TIP3    H120880   6.482   1.395   4.875
 6979TIP3    H220881   6.434   1.499   4.973
 6980TIP3   OH220882   3.923   5.174   5.418
 6980TIP3    H120883   3.993   5.113   5.397
 6980TIP3    H220884   3.851   5.149   5.360
 6981TIP3   OH220885   3.545   5.879   4.748
 6981TIP3    H120886   3.561   5.968   4.777
 6981TIP3    H220887   3.457   5.882   4.710
 6982TIP3   OH220888   2.436   0.642   2.053
 6982TIP3    H120889   2.495   0.578   2.093
 6982TIP3    H220890   2.454   0.635   1.959
 6983TIP3   OH220891   5.975   5.095   1.409
 6983TIP3    H120892   6.020   5.179   1.418
 6983TIP3    H220893   5.951   5.091   1.316
 6984TIP3   OH220894   6.468   0.528   3.133
 6984TIP3    H120895   6.475   0.540   3.039
 6984TIP3    H220896   6.374   0.527   3.151
 6985TIP3   OH220897   6.604   0.290   2.586
 6985TIP3    H120898   6.640   0.335   2.662
 6985TIP3    H220899   6.681   0.271   2.531
 6986TIP3   OH220900   3.780   6.765   0.055
 6986TIP3    H120901   3.742   6.851   0.037
 6986TIP3    H220902   3.707   6.713   0.089
 6987TIP3   OH220903   0.229   2.941   2.568
 6987TIP3    H120904   0.183   2.950   2.651
 6987TIP3    H220905   0.172   2.885   2.515
 6988TIP3   OH220906   4.662   2.453   4.895
 6988TIP3    H120907   4.579   2.417   4.927
 6988TIP3    H220908   4.726   2.382   4.909
 6989TIP3   OH220909   3.746   4.325   4.245
 6989TIP3    H120910   3.808   4.291   4.310
 6989TIP3    H220911   3.697   4.249   4.216
 6990TIP3   OH220912   0.163   5.127   0.451
 6990TIP3    H120913   0.116   5.175   0.519
 6990TIP3    H220914   0.096   5.107   0.386
 6991TIP3   OH220915   4.998   1.802   2.039
 6991TIP3    H120916   4.905   1.824   2.033
 6991TIP3    H220917   5.005   1.717   1.995
 6992TIP3   OH220918   5.478   4.933   5.862
 6992TIP3    H120919   5.438   4.975   5.939
 6992TIP3    H220920   5.569   4.920   5.887
 6993TIP3   OH220921   2.612   3.361   5.888
 6993TIP3    H120922   2.517   3.359   5.890
 6993TIP3    H220923   2.635   3.329   5.800
 6994TIP3   OH220924   2.832   4.778   2.737
 6994TIP3    H120925   2.758   4.729   2.772
 6994TIP3    H220926   2.868   4.723   2.668
 6995TIP3   OH220927   5.560   7.761   3.723
 6995TIP3    H120928   5.504   7.739   3.648
 6995TIP3    H220929   5.543   7.691   3.786
 6996TIP3   OH220930   7.371   1.119   2.363
 6996TIP3    H120931   7.328   1.090   2.283
 6996TIP3    H220932   7.339   1.208   2.377
 6997TIP3   OH220933   7.285   1.084   3.982
 6997TIP3    H120934   7.343   1.132   4.041
 6997TIP3    H220935   7.204   1.134   3.982
 6998TIP3   OH220936   7.044   0.478   1.099
 6998TIP3    H120937   7.139   0.481   1.086
 6998TIP3    H220938   7.008   0.511   1.017
 6999TIP3   OH220939   4.560   0.300   5.280
 6999TIP3    H120940   4.619   0.365   5.318
 6999TIP3    H220941   4.586   0.217   5.320
 7000TIP3   OH220942   0.519   2.355   1.904
 7000TIP3    H120943   0.585   2.342   1.972
 7000TIP3    H220944   0.525   2.448   1.881
 7001TIP3   OH220945   7.786   7.654   2.943
 7001TIP3    H120946   7.757   7.677   3.031
 7001TIP3    H220947   7.711   7.674   2.887
 7002TIP3   OH220948   2.667   1.065   6.129
 7002TIP3    H120949   2.693   1.107   6.047
 7002TIP3    H220950   2.740   1.080   6.189
 7003TIP3   OH220951   7.614   2.379   0.479
 7003TIP3    H120952   7.674   2.438   0.524
 7003TIP3    H220953   7.613   2.409   0.388
 7004TIP3   OH220954   5.042   1.380   5.070
 7004TIP3    H120955   5.053   1.318   5.141
 7004TIP3    H220956   5.128   1.385   5.028
 7005TIP3   OH220957   7.762   5.773   5.960
 7005TIP3    H120958   7.789   5.813   5.878
 7005TIP3    H220959   7.828   5.706   5.977
 7006TIP3   OH220960   3.732   3.124   5.356
 7006TIP3    H120961   3.711   3.059   5.289
 7006TIP3    H220962   3.760   3.201   5.307
 7007TIP3   OH220963   6.745   5.288   3.449
 7007TIP3    H120964   6.791   5.204   3.459
 7007TIP3    H220965   6.805   5.341   3.396
 7008TIP3   OH220966   5.163   1.740   5.216
 7008TIP3    H120967   5.103   1.678   5.259
 7008TIP3    H220968   5.182   1.699   5.132
 7009TIP3   OH220969   1.725   4.048   0.088
 7009TIP3    H120970   1.633   4.036   0.111
 7009TIP3    H220971   1.733   4.142   0.072
 7010TIP3   OH220972   3.520   0.559   4.754
 7010TIP3    H120973   3.438   0.517   4.780
 7010TIP3    H220974   3.588   0.516   4.806
 7011TIP3   OH220975   5.996   0.610   3.573
 7011TIP3    H120976   6.067   0.587   3.633
 7011TIP3    H220977   6.039   0.620   3.487
 7012TIP3   OH220978   6.264   1.298   0.954
 7012TIP3    H120979   6.350   1.336   0.937
 7012TIP3    H220980   6.278   1.203   0.948
 7013TIP3   OH220981   8.095   5.597   2.536
 7013TIP3    H120982   8.135   5.651   2.468
 7013TIP3    H220983   8.144   5.618   2.616
 7014TIP3   OH220984   2.923   6.535   3.887
 7014TIP3    H120985   3.006   6.489   3.880
 7014TIP3    H220986   2.941   6.624   3.859
 7015TIP3   OH220987   1.162   5.801   0.834
 7015TIP3    H120988   1.143   5.893   0.817
 7015TIP3    H220989   1.137   5.788   0.926
 7016TIP3   OH220990   5.494   6.752   5.460
 7016TIP3    H120991   5.508   6.670   5.414
 7016TIP3    H220992   5.559   6.812   5.424
 7017TIP3   OH220993   6.679   6.079   3.501
 7017TIP3    H120994   6.689   6.172   3.482
 7017TIP3    H220995   6.593   6.056   3.468
 7018TIP3   OH220996   5.062   7.425   4.639
 7018TIP3    H120997   5.141   7.479   4.635
 7018TIP3    H220998   5.083   7.357   4.703
 7019TIP3   OH220999   1.566   5.664   0.553
 7019TIP3    H121000   1.522   5.716   0.621
 7019TIP3    H221001   1.659   5.684   0.564
 7020TIP3   OH221002   1.596   5.071   0.712
 7020TIP3    H121003   1.627   5.134   0.777
 7020TIP3    H221004   1.526   5.117   0.665
 7021TIP3   OH221005   2.589   0.352   4.629
 7021TIP3    H121006   2.617   0.417   4.565
 7021TIP3    H221007   2.663   0.292   4.638
 7022TIP3   OH221008   5.716   5.088   6.535
 7022TIP3    H121009   5.736   5.175   6.569
 7022TIP3    H221010   5.649   5.054   6.595
 7023TIP3   OH221011   4.837   6.667   0.183
 7023TIP3    H121012   4.932   6.666   0.180
 7023TIP3    H221013   4.815   6.742   0.238
 7024TIP3   OH221014   7.206   5.132   0.112
 7024TIP3    H121015   7.296   5.099   0.108
 7024TIP3    H221016   7.194   5.158   0.204
 7025TIP3   OH221017   3.230   0.484   3.951
 7025TIP3    H121018   3.288   0.539   4.003
 7025TIP3    H221019   3.278   0.401   3.941
 7026TIP3   OH221020   7.156   6.422   4.186
 7026TIP3    H121021   7.064   6.402   4.166
 7026TIP3    H221022   7.167   6.513   4.158
 7027TIP3   OH221023   5.450   3.317   1.292
 7027TIP3    H121024   5.400   3.331   1.373
 7027TIP3    H221025   5.384   3.287   1.228
 7028TIP3   OH221026   6.040   4.769   2.788
 7028TIP3    H121027   6.098   4.836   2.824
 7028TIP3    H221028   6.087   4.687   2.803
 7029TIP3   OH221029   4.180   7.439   0.571
 7029TIP3    H121030   4.136   7.385   0.636
 7029TIP3    H221031   4.230   7.503   0.623
 7030TIP3   OH221032   3.405   3.216   2.419
 7030TIP3    H121033   3.371   3.151   2.358
 7030TIP3    H221034   3.336   3.226   2.484
 7031TIP3   OH221035   2.475   4.974   5.000
 7031TIP3    H121036   2.472   5.069   5.006
 7031TIP3    H221037   2.512   4.945   5.083
 7032TIP3   OH221038   5.301   6.464   4.579
 7032TIP3    H121039   5.383   6.456   4.530
 7032TIP3    H221040   5.235   6.483   4.512
 7033TIP3   OH221041   5.591   1.907   6.630
 7033TIP3    H121042   5.502   1.927   6.658
 7033TIP3    H221043   5.591   1.922   6.535
 7034TIP3   OH221044   1.984   6.696   5.593
 7034TIP3    H121045   1.993   6.787   5.565
 7034TIP3    H221046   1.969   6.648   5.511
 7035TIP3   OH221047   4.219   0.809   1.123
 7035TIP3    H121048   4.297   0.864   1.116
 7035TIP3    H221049   4.248   0.723   1.090
 7036TIP3   OH221050   5.738   6.637   1.197
 7036TIP3    H121051   5.707   6.661   1.110
 7036TIP3    H221052   5.661   6.643   1.253
 7037TIP3   OH221053   2.987   5.114   2.370
 7037TIP3    H121054   2.953   5.033   2.331
 7037TIP3    H221055   3.033   5.086   2.449
 7038TIP3   OH221056   5.359   0.515   5.569
 7038TIP3    H121057   5.349   0.585   5.505
 7038TIP3    H221058   5.269   0.487   5.588
 7039TIP3   OH221059   2.296   2.601   0.342
 7039TIP3    H121060   2.252   2.634   0.264
 7039TIP3    H221061   2.343   2.676   0.377
 7040TIP3   OH221062   0.103   2.783   2.400
 7040TIP3    H121063   0.051   2.713   2.361
 7040TIP3    H221064   0.182   2.788   2.346
 7041TIP3   OH221065   4.554   4.060   5.884
 7041TIP3    H121066   4.466   4.073   5.846
 7041TIP3    H221067   4.610   4.044   5.808
 7042TIP3   OH221068   7.788   5.444   1.954
 7042TIP3    H121069   7.822   5.373   2.009
 7042TIP3    H221070   7.808   5.417   1.865
 7043TIP3   OH221071   2.251   2.231   5.046
 7043TIP3    H121072   2.342   2.242   5.073
 7043TIP3    H221073   2.229   2.314   5.004
 7044TIP3   OH221074   5.410   2.432   4.852
 7044TIP3    H121075   5.345   2.467   4.913
 7044TIP3    H221076   5.372   2.350   4.822
 7045TIP3   OH221077   3.213   5.700   1.489
 7045TIP3    H121078   3.155   5.624   1.503
 7045TIP3    H221079   3.257   5.681   1.407
 7046TIP3   OH221080   2.797   2.818   4.155
 7046TIP3    H121081   2.857   2.819   4.080
 7046TIP3    H221082   2.784   2.910   4.176
 7047TIP3   OH221083   3.734   5.886   3.999
 7047TIP3    H121084   3.814   5.869   4.048
 7047TIP3    H221085   3.692   5.800   3.991
 7048TIP3   OH221086   3.547   2.543   5.499
 7048TIP3    H121087   3.459   2.528   5.533
 7048TIP3    H221088   3.568   2.464   5.450
 7049TIP3   OH221089   7.610   3.265   1.225
 7049TIP3    H121090   7.625   3.336   1.163
 7049TIP3    H221091   7.652   3.189   1.185
 7050TIP3   OH221092   8.259   2.836   3.435
 7050TIP3    H121093   8.215   2.798   3.511
 7050TIP3    H221094   8.298   2.761   3.389
 7051TIP3   OH221095   6.402   2.787   4.205
 7051TIP3    H121096   6.318   2.817   4.238
 7051TIP3    H221097   6.460   2.863   4.213
 7052TIP3   OH221098   3.102   6.288   2.269
 7052TIP3    H121099   3.065   6.218   2.322
 7052TIP3    H221100   3.028   6.344   2.247
 7053TIP3   OH221101   3.425   7.564   3.979
 7053TIP3    H121102   3.383   7.638   3.934
 7053TIP3    H221103   3.499   7.542   3.923
 7054TIP3   OH221104   6.943   2.118   2.209
 7054TIP3    H121105   6.980   2.183   2.150
 7054TIP3    H221106   6.965   2.149   2.297
 7055TIP3   OH221107   1.436   6.264   0.271
 7055TIP3    H121108   1.350   6.235   0.301
 7055TIP3    H221109   1.423   6.355   0.244
 7056TIP3   OH221110   6.829   1.285   5.251
 7056TIP3    H121111   6.841   1.249   5.339
 7056TIP3    H221112   6.917   1.310   5.223
 7057TIP3   OH221113   2.745   2.922   6.032
 7057TIP3    H121114   2.746   2.990   6.099
 7057TIP3    H221115   2.783   2.966   5.955
 7058TIP3   OH221116   0.161   0.478   4.902
 7058TIP3    H121117   0.237   0.424   4.880
 7058TIP3    H221118   0.091   0.445   4.846
 7059TIP3   OH221119   8.014   4.740   0.218
 7059TIP3    H121120   8.084   4.760   0.280
 7059TIP3    H221121   8.023   4.646   0.200
 7060TIP3   OH221122   2.651   3.517   6.149
 7060TIP3    H121123   2.640   3.501   6.055
 7060TIP3    H221124   2.729   3.573   6.154
 7061TIP3   OH221125   2.713   2.045   5.245
 7061TIP3    H121126   2.668   2.037   5.161
 7061TIP3    H221127   2.762   2.128   5.239
 7062TIP3   OH221128   3.897   0.934   5.894
 7062TIP3    H121129   3.888   0.860   5.955
 7062TIP3    H221130   3.937   0.895   5.816
 7063TIP3   OH221131   3.927   5.922   1.399
 7063TIP3    H121132   3.965   5.882   1.320
 7063TIP3    H221133   3.836   5.941   1.375
 7064TIP3   OH221134   2.792   0.198   4.575
 7064TIP3    H121135   2.811   0.120   4.523
 7064TIP3    H221136   2.877   0.224   4.610
 7065TIP3   OH221137   2.878   6.749   0.153
 7065TIP3    H121138   2.907   6.780   0.067
 7065TIP3    H221139   2.898   6.822   0.212
 7066TIP3   OH221140   4.913   3.942   5.095
 7066TIP3    H121141   4.878   4.029   5.114
 7066TIP3    H221142   4.867   3.915   5.015
 7067TIP3   OH221143   4.130   1.799   3.981
 7067TIP3    H121144   4.173   1.732   4.034
 7067TIP3    H221145   4.124   1.876   4.038
 7068TIP3   OH221146   7.091   1.317   5.572
 7068TIP3    H121147   7.012   1.264   5.581
 7068TIP3    H221148   7.116   1.307   5.480
 7069TIP3   OH221149   5.283   1.894   0.086
 7069TIP3    H121150   5.193   1.864   0.077
 7069TIP3    H221151   5.278   1.989   0.075
 7070TIP3   OH221152   3.799   2.712   4.025
 7070TIP3    H121153   3.748   2.632   4.034
 7070TIP3    H221154   3.782   2.741   3.935
 7071TIP3   OH221155   8.074   1.361   0.568
 7071TIP3    H121156   8.033   1.430   0.619
 7071TIP3    H221157   8.046   1.378   0.478
 7072TIP3   OH221158   5.306   0.584   1.182
 7072TIP3    H121159   5.271   0.656   1.129
 7072TIP3    H221160   5.334   0.626   1.264
 7073TIP3   OH221161   7.558   2.470   3.971
 7073TIP3    H121162   7.635   2.488   3.917
 7073TIP3    H221163   7.515   2.555   3.980
 7074TIP3   OH221164   3.094   5.368   0.343
 7074TIP3    H121165   3.083   5.442   0.402
 7074TIP3    H221166   3.006   5.332   0.332
 7075TIP3   OH221167   1.736   4.357   4.549
 7075TIP3    H121168   1.729   4.263   4.538
 7075TIP3    H221169   1.706   4.394   4.466
 7076TIP3   OH221170   3.293   0.824   5.909
 7076TIP3    H121171   3.202   0.854   5.905
 7076TIP3    H221172   3.344   0.903   5.890
 7077TIP3   OH221173   7.451   0.537   4.741
 7077TIP3    H121174   7.391   0.476   4.698
 7077TIP3    H221175   7.534   0.488   4.747
 7078TIP3   OH221176   1.555   0.803   5.447
 7078TIP3    H121177   1.566   0.709   5.434
 7078TIP3    H221178   1.631   0.829   5.500
 7079TIP3   OH221179   5.325   0.813   2.387
 7079TIP3    H121180   5.250   0.764   2.421
 7079TIP3    H221181   5.367   0.850   2.465
 7080TIP3   OH221182   6.656   0.960   4.046
 7080TIP3    H121183   6.624   1.033   3.993
 7080TIP3    H221184   6.738   0.934   4.006
 7081TIP3   OH221185   3.915   6.201   3.689
 7081TIP3    H121186   3.864   6.176   3.612
 7081TIP3    H221187   3.852   6.203   3.761
 7082TIP3   OH221188   0.860   0.534   2.462
 7082TIP3    H121189   0.841   0.521   2.369
 7082TIP3    H221190   0.777   0.515   2.506
 7083TIP3   OH221191   4.520   6.623   2.441
 7083TIP3    H121192   4.473   6.567   2.502
 7083TIP3    H221193   4.598   6.572   2.417
 7084TIP3   OH221194   1.419   5.733   3.583
 7084TIP3    H121195   1.328   5.762   3.589
 7084TIP3    H221196   1.433   5.717   3.490
 7085TIP3   OH221197   0.862   4.823   5.029
 7085TIP3    H121198   0.871   4.773   5.110
 7085TIP3    H221199   0.915   4.776   4.965
 7086TIP3   OH221200   5.986   1.917   3.616
 7086TIP3    H121201   6.023   1.831   3.598
 7086TIP3    H221202   6.061   1.969   3.645
 7087TIP3   OH221203   4.169   6.643   5.128
 7087TIP3    H121204   4.091   6.596   5.160
 7087TIP3    H221205   4.229   6.643   5.202
 7088TIP3   OH221206   7.845   0.557   6.020
 7088TIP3    H121207   7.809   0.474   6.052
 7088TIP3    H221208   7.789   0.624   6.058
 7089TIP3   OH221209   6.147   6.322   3.795
 7089TIP3    H121210   6.133   6.316   3.700
 7089TIP3    H221211   6.107   6.243   3.830
 7090TIP3   OH221212   0.029   1.339   1.897
 7090TIP3    H121213   0.089   1.401   1.855
 7090TIP3    H221214  -0.045   1.332   1.836
 7091TIP3   OH221215   1.207   7.320   0.852
 7091TIP3    H121216   1.271   7.343   0.784
 7091TIP3    H221217   1.194   7.401   0.901
 7092TIP3   OH221218   7.445   1.711   6.503
 7092TIP3    H121219   7.523   1.704   6.558
 7092TIP3    H221220   7.379   1.753   6.559
 7093TIP3   OH221221   7.179   2.389   6.367
 7093TIP3    H121222   7.115   2.332   6.408
 7093TIP3    H221223   7.246   2.402   6.435
 7094TIP3   OH221224   0.101   5.075   5.773
 7094TIP3    H121225   0.168   5.136   5.743
 7094TIP3    H221226   0.113   5.071   5.868
 7095TIP3   OH221227   2.802   2.578   2.856
 7095TIP3    H121228   2.866   2.605   2.791
 7095TIP3    H221229   2.813   2.640   2.928
 7096TIP3   OH221230   5.245   1.459   0.466
 7096TIP3    H121231   5.255   1.364   0.460
 7096TIP3    H221232   5.302   1.486   0.537
 7097TIP3   OH221233   1.908   5.963   6.281
 7097TIP3    H121234   1.943   5.906   6.349
 7097TIP3    H221235   1.952   6.047   6.296
 7098TIP3   OH221236   7.117   0.054   1.582
 7098TIP3    H121237   7.170   0.133   1.588
 7098TIP3    H221238   7.094   0.047   1.490
 7099TIP3   OH221239   6.273   5.690   1.756
 7099TIP3    H121240   6.219   5.614   1.774
 7099TIP3    H221241   6.211   5.759   1.731
 7100TIP3   OH221242   3.955   7.599   3.912
 7100TIP3    H121243   3.999   7.566   3.833
 7100TIP3    H221244   4.020   7.593   3.981
 7101TIP3   OH221245   6.689   0.108   2.886
 7101TIP3    H121246   6.755   0.124   2.819
 7101TIP3    H221247   6.740   0.088   2.965
 7102TIP3   OH221248   7.972   0.008   5.808
 7102TIP3    H121249   8.051   0.061   5.806
 7102TIP3    H221250   7.926   0.037   5.887
 7103TIP3   OH221251   1.423   2.816   1.959
 7103TIP3    H121252   1.436   2.852   1.872
 7103TIP3    H221253   1.330   2.797   1.964
 7104TIP3   OH221254   5.442   1.188   0.955
 7104TIP3    H121255   5.374   1.255   0.963
 7104TIP3    H221256   5.464   1.166   1.045
 7105TIP3   OH221257   2.309   1.775   5.445
 7105TIP3    H121258   2.273   1.832   5.512
 7105TIP3    H221259   2.402   1.768   5.467
 7106TIP3   OH221260   1.894   6.596   3.707
 7106TIP3    H121261   1.827   6.659   3.733
 7106TIP3    H221262   1.946   6.583   3.786
 7107TIP3   OH221263   7.755   2.297   0.871
 7107TIP3    H121264   7.809   2.298   0.792
 7107TIP3    H221265   7.732   2.389   0.885
 7108TIP3   OH221266   0.400   5.127   6.039
 7108TIP3    H121267   0.348   5.178   5.978
 7108TIP3    H221268   0.382   5.166   6.125
 7109TIP3   OH221269   3.004   3.678   3.961
 7109TIP3    H121270   3.095   3.700   3.941
 7109TIP3    H221271   2.953   3.729   3.898
 7110TIP3   OH221272   5.057   6.169   0.111
 7110TIP3    H121273   5.014   6.229   0.050
 7110TIP3    H221274   5.140   6.148   0.068
 7111TIP3   OH221275   0.906   2.581   2.805
 7111TIP3    H121276   0.980   2.521   2.811
 7111TIP3    H221277   0.901   2.605   2.713
 7112TIP3   OH221278   0.307   3.214   0.075
 7112TIP3    H121279   0.395   3.233   0.040
 7112TIP3    H221280   0.247   3.252   0.011
 7113TIP3   OH221281   2.276   1.534   4.937
 7113TIP3    H121282   2.299   1.526   5.030
 7113TIP3    H221283   2.361   1.539   4.892
 7114TIP3   OH221284   0.624   2.903   0.019
 7114TIP3    H121285   0.615   2.913   0.114
 7114TIP3    H221286   0.718   2.894   0.005
 7115TIP3   OH221287   2.465   7.535   4.725
 7115TIP3    H121288   2.524   7.494   4.788
 7115TIP3    H221289   2.473   7.482   4.646
 7116TIP3   OH221290   5.819   0.385   6.088
 7116TIP3    H121291   5.873   0.378   6.167
 7116TIP3    H221292   5.883   0.387   6.017
 7117TIP3   OH221293   7.972   4.144   6.607
 7117TIP3    H121294   7.957   4.112   6.518
 7117TIP3    H221295   7.912   4.092   6.661
 7118TIP3   OH221296   1.230   6.023   2.654
 7118TIP3    H121297   1.183   5.944   2.678
 7118TIP3    H221298   1.221   6.028   2.559
 7119TIP3   OH221299   8.269   2.941   0.218
 7119TIP3    H121300   8.175   2.951   0.207
 7119TIP3    H221301   8.283   2.952   0.312
 7120TIP3   OH221302   6.969   5.474   0.199
 7120TIP3    H121303   7.031   5.541   0.229
 7120TIP3    H221304   6.931   5.511   0.120
 7121TIP3   OH221305   5.761   2.045   1.644
 7121TIP3    H121306   5.784   2.085   1.560
 7121TIP3    H221307   5.845   2.020   1.682
 7122TIP3   OH221308   6.480   3.819   4.566
 7122TIP3    H121309   6.472   3.737   4.516
 7122TIP3    H221310   6.545   3.799   4.633
 7123TIP3   OH221311   4.490   6.190   1.955
 7123TIP3    H121312   4.561   6.127   1.950
 7123TIP3    H221313   4.470   6.211   1.864
 7124TIP3   OH221314   5.868   2.402   6.663
 7124TIP3    H121315   5.944   2.454   6.637
 7124TIP3    H221316   5.806   2.413   6.591
 7125TIP3   OH221317   1.450   3.994   6.231
 7125TIP3    H121318   1.430   3.901   6.227
 7125TIP3    H221319   1.545   3.998   6.243
 7126TIP3   OH221320   6.493   1.416   3.022
 7126TIP3    H121321   6.511   1.389   3.113
 7126TIP3    H221322   6.449   1.500   3.031
 7127TIP3   OH221323   4.914   4.480   2.492
 7127TIP3    H121324   4.877   4.549   2.547
 7127TIP3    H221325   4.879   4.498   2.405
 7128TIP3   OH221326   3.661   1.966   3.883
 7128TIP3    H121327   3.710   2.003   3.957
 7128TIP3    H221328   3.663   1.871   3.898
 7129TIP3   OH221329   5.329   5.463   2.701
 7129TIP3    H121330   5.365   5.382   2.666
 7129TIP3    H221331   5.285   5.437   2.782
 7130TIP3   OH221332   1.922   1.249   2.114
 7130TIP3    H121333   1.873   1.167   2.109
 7130TIP3    H221334   1.999   1.234   2.059
 7131TIP3   OH221335   5.440   0.380   3.336
 7131TIP3    H121336   5.505   0.371   3.406
 7131TIP3    H221337   5.364   0.420   3.379
 7132TIP3   OH221338   2.695   7.519   1.185
 7132TIP3    H121339   2.754   7.527   1.259
 7132TIP3    H221340   2.712   7.596   1.131
 7133TIP3   OH221341   3.225   2.599   3.464
 7133TIP3    H121342   3.145   2.549   3.447
 7133TIP3    H221343   3.295   2.535   3.460
 7134TIP3   OH221344   3.184   4.091   5.493
 7134TIP3    H121345   3.246   4.160   5.472
 7134TIP3    H221346   3.234   4.030   5.549
 7135TIP3   OH221347   2.600   2.494   2.050
 7135TIP3    H121348   2.687   2.506   2.014
 7135TIP3    H221349   2.542   2.489   1.974
 7136TIP3   OH221350   0.005   4.419   0.392
 7136TIP3    H121351   0.030   4.336   0.352
 7136TIP3    H221352   0.065   4.430   0.466
 7137TIP3   OH221353   2.864   5.958   3.433
 7137TIP3    H121354   2.948   5.975   3.476
 7137TIP3    H221355   2.853   5.863   3.438
 7138TIP3   OH221356   7.866   4.479   2.194
 7138TIP3    H121357   7.954   4.494   2.228
 7138TIP3    H221358   7.811   4.471   2.272
 7139TIP3   OH221359   2.314   6.454   0.998
 7139TIP3    H121360   2.351   6.403   0.927
 7139TIP3    H221361   2.386   6.509   1.028
 7140TIP3   OH221362   1.012   4.556   0.229
 7140TIP3    H121363   0.957   4.544   0.152
 7140TIP3    H221364   1.021   4.468   0.265
 7141TIP3   OH221365   1.935   7.647   0.608
 7141TIP3    H121366   1.871   7.590   0.567
 7141TIP3    H221367   1.903   7.659   0.698
 7142TIP3   OH221368   1.109   0.504   2.968
 7142TIP3    H121369   1.069   0.500   3.054
 7142TIP3    H221370   1.038   0.483   2.907
 7143TIP3   OH221371   7.580   6.045   5.814
 7143TIP3    H121372   7.616   6.121   5.769
 7143TIP3    H221373   7.606   6.058   5.905
 7144TIP3   OH221374   2.288   5.789   2.821
 7144TIP3    H121375   2.277   5.831   2.735
 7144TIP3    H221376   2.235   5.843   2.880
 7145TIP3   OH221377   3.973   2.595   4.759
 7145TIP3    H121378   3.973   2.656   4.833
 7145TIP3    H221379   3.928   2.642   4.689
 7146TIP3   OH221380   2.502   6.430   3.108
 7146TIP3    H121381   2.419   6.470   3.084
 7146TIP3    H221382   2.555   6.434   3.029
 7147TIP3   OH221383   3.332   3.568   0.538
 7147TIP3    H121384   3.340   3.474   0.557
 7147TIP3    H221385   3.413   3.590   0.492
 7148TIP3   OH221386   6.591   2.491   4.474
 7148TIP3    H121387   6.599   2.399   4.449
 7148TIP3    H221388   6.680   2.519   4.494
 7149TIP3   OH221389   7.933   6.252   5.396
 7149TIP3    H121390   7.846   6.212   5.389
 7149TIP3    H221391   7.994   6.181   5.376
 7150TIP3   OH221392   0.054   4.387   2.176
 7150TIP3    H121393   0.116   4.457   2.198
 7150TIP3    H221394   0.101   4.332   2.114
 7151TIP3   OH221395   6.421   0.742   2.953
 7151TIP3    H121396   6.391   0.813   2.896
 7151TIP3    H221397   6.494   0.702   2.906
 7152TIP3   OH221398   4.837   1.399   6.615
 7152TIP3    H121399   4.843   1.494   6.625
 7152TIP3    H221400   4.835   1.384   6.521
 7153TIP3   OH221401   1.852   3.183   1.689
 7153TIP3    H121402   1.925   3.163   1.748
 7153TIP3    H221403   1.895   3.209   1.608
 7154TIP3   OH221404   6.375   3.580   4.790
 7154TIP3    H121405   6.421   3.656   4.753
 7154TIP3    H221406   6.396   3.582   4.883
 7155TIP3   OH221407   6.410   0.554   5.307
 7155TIP3    H121408   6.322   0.576   5.277
 7155TIP3    H221409   6.401   0.466   5.345
 7156TIP3   OH221410   7.048   3.958   3.015
 7156TIP3    H121411   7.115   4.026   3.005
 7156TIP3    H221412   7.049   3.910   2.932
 7157TIP3   OH221413   3.613   0.706   2.474
 7157TIP3    H121414   3.694   0.680   2.517
 7157TIP3    H221415   3.641   0.740   2.389
 7158TIP3   OH221416   3.761   0.810   2.873
 7158TIP3    H121417   3.748   0.757   2.952
 7158TIP3    H221418   3.687   0.788   2.817
 7159TIP3   OH221419   5.377   3.302   5.867
 7159TIP3    H121420   5.459   3.255   5.881
 7159TIP3    H221421   5.399   3.394   5.881
 7160TIP3   OH221422   4.586   6.324   4.731
 7160TIP3    H121423   4.643   6.282   4.795
 7160TIP3    H221424   4.609   6.283   4.648
 7161TIP3   OH221425   6.441   1.825   3.200
 7161TIP3    H121426   6.519   1.818   3.255
 7161TIP3    H221427   6.368   1.828   3.263
 7162TIP3   OH221428   5.667   1.491   1.282
 7162TIP3    H121429   5.724   1.536   1.344
 7162TIP3    H221430   5.578   1.519   1.305
 7163TIP3   OH221431   4.900   6.675   0.753
 7163TIP3    H121432   4.882   6.751   0.698
 7163TIP3    H221433   4.881   6.600   0.697
 7164TIP3   OH221434   2.252   2.019   4.442
 7164TIP3    H121435   2.218   2.029   4.531
 7164TIP3    H221436   2.302   2.098   4.427
 7165TIP3   OH221437   6.380   0.142   1.972
 7165TIP3    H121438   6.407   0.229   1.943
 7165TIP3    H221439   6.304   0.157   2.028
 7166TIP3   OH221440   4.990   7.239   1.098
 7166TIP3    H121441   5.002   7.198   1.013
 7166TIP3    H221442   4.900   7.217   1.123
 7167TIP3   OH221443   6.481   7.163   2.392
 7167TIP3    H121444   6.434   7.246   2.404
 7167TIP3    H221445   6.466   7.140   2.301
 7168TIP3   OH221446   6.477   4.800   2.986
 7168TIP3    H121447   6.473   4.765   3.075
 7168TIP3    H221448   6.570   4.812   2.968
 7169TIP3   OH221449   3.778   1.220   0.199
 7169TIP3    H121450   3.850   1.275   0.169
 7169TIP3    H221451   3.796   1.205   0.292
 7170TIP3   OH221452   5.930   2.683   1.070
 7170TIP3    H121453   5.848   2.638   1.051
 7170TIP3    H221454   5.974   2.628   1.135
 7171TIP3   OH221455   5.414   7.824   2.185
 7171TIP3    H121456   5.380   7.741   2.154
 7171TIP3    H221457   5.336   7.875   2.208
 7172TIP3   OH221458   7.141   1.362   3.085
 7172TIP3    H121459   7.135   1.435   3.146
 7172TIP3    H221460   7.232   1.332   3.093
 7173TIP3   OH221461   4.538   5.983   1.386
 7173TIP3    H121462   4.522   5.974   1.480
 7173TIP3    H221463   4.628   6.017   1.380
 7174TIP3   OH221464   4.340   6.376   1.115
 7174TIP3    H121465   4.322   6.295   1.162
 7174TIP3    H221466   4.254   6.416   1.101
 7175TIP3   OH221467   0.185   7.140   2.798
 7175TIP3    H121468   0.141   7.067   2.840
 7175TIP3    H221469   0.114   7.195   2.765
 7176TIP3   OH221470   1.642   5.357   2.426
 7176TIP3    H121471   1.631   5.378   2.333
 7176TIP3    H221472   1.616   5.437   2.472
 7177TIP3   OH221473   0.937   7.459   6.647
 7177TIP3    H121474   0.985   7.515   6.585
 7177TIP3    H221475   0.899   7.521   6.710
 7178TIP3   OH221476   2.444   1.555   1.884
 7178TIP3    H121477   2.471   1.621   1.820
 7178TIP3    H221478   2.352   1.538   1.864
 7179TIP3   OH221479   0.257   7.312   0.589
 7179TIP3    H121480   0.223   7.237   0.541
 7179TIP3    H221481   0.342   7.283   0.621
 7180TIP3   OH221482   0.192   5.398   2.741
 7180TIP3    H121483   0.135   5.321   2.743
 7180TIP3    H221484   0.211   5.416   2.833
 7181TIP3   OH221485   0.311   4.373   2.513
 7181TIP3    H121486   0.389   4.396   2.461
 7181TIP3    H221487   0.305   4.278   2.506
 7182TIP3   OH221488   1.529   3.819   2.216
 7182TIP3    H121489   1.561   3.846   2.302
 7182TIP3    H221490   1.493   3.899   2.178
 7183TIP3   OH221491   6.483   2.266   1.794
 7183TIP3    H121492   6.569   2.276   1.755
 7183TIP3    H221493   6.461   2.353   1.828
 7184TIP3   OH221494   5.122   2.433   2.106
 7184TIP3    H121495   5.205   2.386   2.118
 7184TIP3    H221496   5.142   2.524   2.125
 7185TIP3   OH221497   1.671   6.073   1.217
 7185TIP3    H121498   1.756   6.116   1.221
 7185TIP3    H221499   1.692   5.980   1.203
 7186TIP3   OH221500   2.533   4.826   1.821
 7186TIP3    H121501   2.447   4.827   1.864
 7186TIP3    H221502   2.544   4.914   1.786
 7187TIP3   OH221503   7.126   0.814   4.705
 7187TIP3    H121504   7.041   0.857   4.711
 7187TIP3    H221505   7.188   0.885   4.692
 7188TIP3   OH221506   4.185   0.077   1.100
 7188TIP3    H121507   4.125   0.109   1.167
 7188TIP3    H221508   4.138   0.091   1.018
 7189TIP3   OH221509   4.949   0.943   3.584
 7189TIP3    H121510   5.023   1.003   3.585
 7189TIP3    H221511   4.969   0.882   3.513
 7190TIP3   OH221512   2.699   1.827   1.204
 7190TIP3    H121513   2.676   1.919   1.211
 7190TIP3    H221514   2.713   1.813   1.110
 7191TIP3   OH221515   4.276   1.104   3.063
 7191TIP3    H121516   4.305   1.088   2.974
 7191TIP3    H221517   4.346   1.070   3.118
 7192TIP3   OH221518   1.138   6.068   2.107
 7192TIP3    H121519   1.131   6.031   2.020
 7192TIP3    H221520   1.060   6.124   2.116
 7193TIP3   OH221521   1.814   2.538   3.886
 7193TIP3    H121522   1.848   2.627   3.874
 7193TIP3    H221523   1.725   2.542   3.850
 7194TIP3   OH221524   7.453   1.537   3.578
 7194TIP3    H121525   7.470   1.474   3.508
 7194TIP3    H221526   7.523   1.521   3.642
 7195TIP3   OH221527   2.044   1.035   4.941
 7195TIP3    H121528   2.063   0.943   4.959
 7195TIP3    H221529   2.113   1.062   4.881
 7196TIP3   OH221530   0.177   2.243   0.150
 7196TIP3    H121531   0.225   2.172   0.107
 7196TIP3    H221532   0.092   2.245   0.106
 7197TIP3   OH221533   6.986   3.816   1.963
 7197TIP3    H121534   6.949   3.792   2.048
 7197TIP3    H221535   7.069   3.770   1.958
 7198TIP3   OH221536   2.243   0.272   1.202
 7198TIP3    H121537   2.165   0.313   1.164
 7198TIP3    H221538   2.261   0.323   1.280
 7199TIP3   OH221539   6.282   4.279   5.756
 7199TIP3    H121540   6.366   4.258   5.797
 7199TIP3    H221541   6.299   4.270   5.662
 7200TIP3   OH221542   0.587   5.453   1.497
 7200TIP3    H121543   0.603   5.548   1.490
 7200TIP3    H221544   0.640   5.416   1.426
 7201TIP3   OH221545   4.059   6.846   4.292
 7201TIP3    H121546   4.135   6.869   4.345
 7201TIP3    H221547   3.991   6.908   4.319
 7202TIP3   OH221548   4.440   4.555   2.913
 7202TIP3    H121549   4.458   4.536   3.005
 7202TIP3    H221550   4.385   4.633   2.915
 7203TIP3   OH221551   7.779   0.217   0.437
 7203TIP3    H121552   7.771   0.192   0.345
 7203TIP3    H221553   7.872   0.204   0.457
 7204TIP3   OH221554   6.922   2.292   4.497
 7204TIP3    H121555   6.997   2.288   4.437
 7204TIP3    H221556   6.957   2.265   4.581
 7205TIP3   OH221557   6.107   4.751   4.718
 7205TIP3    H121558   6.036   4.701   4.679
 7205TIP3    H221559   6.102   4.837   4.676
 7206TIP3   OH221560   6.394   6.218   4.485
 7206TIP3    H121561   6.305   6.189   4.466
 7206TIP3    H221562   6.407   6.197   4.578
 7207TIP3   OH221563   6.888   2.724   0.492
 7207TIP3    H121564   6.878   2.753   0.583
 7207TIP3    H221565   6.810   2.756   0.448
 7208TIP3   OH221566   5.161   4.715   1.305
 7208TIP3    H121567   5.229   4.726   1.370
 7208TIP3    H221568   5.107   4.794   1.312
 7209TIP3   OH221569   0.666   2.354   2.130
 7209TIP3    H121570   0.760   2.338   2.122
 7209TIP3    H221571   0.654   2.377   2.222
 7210TIP3   OH221572   1.257   3.832   3.752
 7210TIP3    H121573   1.189   3.786   3.702
 7210TIP3    H221574   1.339   3.792   3.722
 7211TIP3   OH221575   1.147   3.084   3.838
 7211TIP3    H121576   1.100   3.153   3.793
 7211TIP3    H221577   1.202   3.044   3.771
 7212TIP3   OH221578   3.588   1.147   1.802
 7212TIP3    H121579   3.494   1.134   1.790
 7212TIP3    H221580   3.594   1.216   1.868
 7213TIP3   OH221581   6.349   3.235   6.152
 7213TIP3    H121582   6.294   3.228   6.230
 7213TIP3    H221583   6.296   3.200   6.081
 7214TIP3   OH221584   3.301   5.549   4.684
 7214TIP3    H121585   3.248   5.623   4.714
 7214TIP3    H221586   3.242   5.475   4.683
 7215TIP3   OH221587   1.425   6.992   3.175
 7215TIP3    H121588   1.480   6.918   3.151
 7215TIP3    H221589   1.399   6.976   3.265
 7216TIP3   OH221590   5.304   0.346   1.058
 7216TIP3    H121591   5.212   0.359   1.033
 7216TIP3    H221592   5.330   0.431   1.095
 7217TIP3   OH221593   2.531   7.679   0.871
 7217TIP3    H121594   2.537   7.735   0.794
 7217TIP3    H221595   2.558   7.593   0.841
 7218TIP3   OH221596   2.404   6.448   4.119
 7218TIP3    H121597   2.486   6.418   4.079
 7218TIP3    H221598   2.409   6.417   4.209
 7219TIP3   OH221599   0.827   2.252   5.725
 7219TIP3    H121600   0.783   2.230   5.807
 7219TIP3    H221601   0.921   2.243   5.744
 7220TIP3   OH221602   5.898   2.010   3.883
 7220TIP3    H121603   5.926   1.940   3.824
 7220TIP3    H221604   5.880   2.084   3.826
 7221TIP3   OH221605   8.331   2.551   3.824
 7221TIP3    H121606   8.248   2.597   3.811
 7221TIP3    H221607   8.323   2.510   3.910
 7222TIP3   OH221608   3.996   5.734   6.647
 7222TIP3    H121609   4.043   5.817   6.639
 7222TIP3    H221610   4.064   5.668   6.651
 7223TIP3   OH221611   3.670   5.296   0.160
 7223TIP3    H121612   3.702   5.351   0.089
 7223TIP3    H221613   3.574   5.299   0.150
 7224TIP3   OH221614   3.701   5.699   4.971
 7224TIP3    H121615   3.641   5.632   5.005
 7224TIP3    H221616   3.650   5.745   4.904
 7225TIP3   OH221617   6.916   1.304   6.398
 7225TIP3    H121618   6.858   1.328   6.326
 7225TIP3    H221619   6.871   1.336   6.476
 7226TIP3   OH221620   5.819   1.021   0.707
 7226TIP3    H121621   5.797   0.931   0.731
 7226TIP3    H221622   5.853   1.015   0.618
 7227TIP3   OH221623   2.775   1.743   5.255
 7227TIP3    H121624   2.843   1.763   5.191
 7227TIP3    H221625   2.731   1.827   5.269
 7228TIP3   OH221626   2.735   3.067   1.497
 7228TIP3    H121627   2.696   3.139   1.547
 7228TIP3    H221628   2.730   3.095   1.406
 7229TIP3   OH221629   4.456   3.154   1.152
 7229TIP3    H121630   4.508   3.162   1.232
 7229TIP3    H221631   4.429   3.062   1.150
 7230TIP3   OH221632   8.238   2.657   1.420
 7230TIP3    H121633   8.198   2.573   1.400
 7230TIP3    H221634   8.166   2.720   1.419
 7231TIP3   OH221635   6.693   1.738   6.155
 7231TIP3    H121636   6.614   1.738   6.102
 7231TIP3    H221637   6.674   1.798   6.227
 7232TIP3   OH221638   5.451   0.201   2.878
 7232TIP3    H121639   5.427   0.246   2.959
 7232TIP3    H221640   5.372   0.155   2.851
 7233TIP3   OH221641   2.509   2.194   3.874
 7233TIP3    H121642   2.589   2.188   3.821
 7233TIP3    H221643   2.456   2.119   3.845
 7234TIP3   OH221644   3.094   3.050   0.907
 7234TIP3    H121645   3.097   2.969   0.959
 7234TIP3    H221646   3.181   3.089   0.918
 7235TIP3   OH221647   7.308   4.555   2.604
 7235TIP3    H121648   7.362   4.629   2.576
 7235TIP3    H221649   7.237   4.552   2.540
 7236TIP3   OH221650   5.602   0.263   3.167
 7236TIP3    H121651   5.527   0.289   3.221
 7236TIP3    H221652   5.570   0.191   3.114
 7237TIP3   OH221653   0.025   5.353   3.067
 7237TIP3    H121654   0.047   5.430   3.015
 7237TIP3    H221655  -0.016   5.388   3.146
 7238TIP3   OH221656   5.107   3.305   5.939
 7238TIP3    H121657   5.074   3.342   5.857
 7238TIP3    H221658   5.193   3.271   5.917
 7239TIP3   OH221659   6.332   2.492   4.040
 7239TIP3    H121660   6.322   2.584   4.014
 7239TIP3    H221661   6.385   2.495   4.120
 7240TIP3   OH221662   2.295   4.822   3.265
 7240TIP3    H121663   2.362   4.754   3.252
 7240TIP3    H221664   2.325   4.871   3.341
 7241TIP3   OH221665   2.823   3.620   0.302
 7241TIP3    H121666   2.900   3.580   0.344
 7241TIP3    H221667   2.859   3.683   0.240
 7242TIP3   OH221668   7.986   5.734   0.725
 7242TIP3    H121669   8.029   5.763   0.645
 7242TIP3    H221670   8.022   5.646   0.741
 7243TIP3   OH221671   8.220   3.254   1.174
 7243TIP3    H121672   8.279   3.277   1.103
 7243TIP3    H221673   8.247   3.167   1.201
 7244TIP3   OH221674   0.249   6.841   2.325
 7244TIP3    H121675   0.247   6.900   2.400
 7244TIP3    H221676   0.318   6.778   2.345
 7245TIP3   OH221677   3.575   4.234   2.472
 7245TIP3    H121678   3.634   4.265   2.403
 7245TIP3    H221679   3.514   4.176   2.428
 7246TIP3   OH221680   6.909   5.489   0.877
 7246TIP3    H121681   6.922   5.407   0.924
 7246TIP3    H221682   6.947   5.556   0.934
 7247TIP3   OH221683   0.205   6.745   1.373
 7247TIP3    H121684   0.144   6.673   1.385
 7247TIP3    H221685   0.203   6.793   1.456
 7248TIP3   OH221686   0.002   4.909   4.820
 7248TIP3    H121687  -0.026   4.966   4.891
 7248TIP3    H221688   0.087   4.875   4.849
 7249TIP3   OH221689   0.920   5.394   3.686
 7249TIP3    H121690   0.831   5.363   3.666
 7249TIP3    H221691   0.908   5.465   3.749
 7250TIP3   OH221692   1.757   5.794   1.935
 7250TIP3    H121693   1.751   5.751   2.020
 7250TIP3    H221694   1.669   5.788   1.899
 7251TIP3   OH221695   2.403   2.093   6.184
 7251TIP3    H121696   2.482   2.040   6.190
 7251TIP3    H221697   2.337   2.033   6.148
 7252TIP3   OH221698   2.276   7.227   2.089
 7252TIP3    H121699   2.235   7.256   2.171
 7252TIP3    H221700   2.313   7.307   2.052
 7253TIP3   OH221701   7.290   0.971   4.968
 7253TIP3    H121702   7.282   1.039   5.035
 7253TIP3    H221703   7.242   0.896   5.005
 7254TIP3   OH221704   4.220   1.361   6.170
 7254TIP3    H121705   4.268   1.443   6.169
 7254TIP3    H221706   4.274   1.301   6.119
 7255TIP3   OH221707   1.264   7.467   5.463
 7255TIP3    H121708   1.235   7.522   5.390
 7255TIP3    H221709   1.315   7.525   5.519
 7256TIP3   OH221710   2.006   2.578   0.621
 7256TIP3    H121711   2.017   2.544   0.533
 7256TIP3    H221712   1.911   2.583   0.633
 7257TIP3   OH221713   8.061   5.711   5.332
 7257TIP3    H121714   8.124   5.743   5.396
 7257TIP3    H221715   8.028   5.629   5.371
 7258TIP3   OH221716   4.719   5.236   0.381
 7258TIP3    H121717   4.813   5.224   0.396
 7258TIP3    H221718   4.714   5.308   0.318
 7259TIP3   OH221719   3.032   0.628   3.854
 7259TIP3    H121720   3.048   0.721   3.873
 7259TIP3    H221721   3.107   0.582   3.890
 7260TIP3   OH221722   2.219   1.910   5.189
 7260TIP3    H121723   2.252   1.871   5.270
 7260TIP3    H221724   2.291   1.966   5.158
 7261TIP3   OH221725   4.595   5.921   0.874
 7261TIP3    H121726   4.596   5.883   0.962
 7261TIP3    H221727   4.518   5.884   0.832
 7262TIP3   OH221728   1.735   0.809   0.373
 7262TIP3    H121729   1.757   0.792   0.282
 7262TIP3    H221730   1.643   0.836   0.371
 7263TIP3   OH221731   7.106   5.932   4.190
 7263TIP3    H121732   7.158   6.005   4.157
 7263TIP3    H221733   7.015   5.961   4.180
 7264TIP3   OH221734   6.663   1.140   4.479
 7264TIP3    H121735   6.694   1.191   4.554
 7264TIP3    H221736   6.621   1.205   4.423
 7265TIP3   OH221737   3.869   5.425   2.857
 7265TIP3    H121738   3.944   5.483   2.870
 7265TIP3    H221739   3.818   5.432   2.938
 7266TIP3   OH221740   4.118   0.626   3.654
 7266TIP3    H121741   4.032   0.600   3.687
 7266TIP3    H221742   4.122   0.590   3.565
 7267TIP3   OH221743   2.686   0.298   6.036
 7267TIP3    H121744   2.706   0.391   6.044
 7267TIP3    H221745   2.608   0.286   6.089
 7268TIP3   OH221746   2.198   1.716   3.629
 7268TIP3    H121747   2.200   1.703   3.724
 7268TIP3    H221748   2.221   1.631   3.592
 7269TIP3   OH221749   8.026   4.367   3.551
 7269TIP3    H121750   8.076   4.412   3.483
 7269TIP3    H221751   8.039   4.274   3.534
 7270TIP3   OH221752   7.770   5.876   0.808
 7270TIP3    H121753   7.749   5.795   0.854
 7270TIP3    H221754   7.840   5.852   0.747
 7271TIP3   OH221755   4.092   1.378   1.878
 7271TIP3    H121756   4.179   1.366   1.838
 7271TIP3    H221757   4.093   1.469   1.909
 7272TIP3   OH221758   7.283   2.381   5.341
 7272TIP3    H121759   7.212   2.328   5.304
 7272TIP3    H221760   7.357   2.321   5.348
 7273TIP3   OH221761   8.306   3.654   0.173
 7273TIP3    H121762   8.250   3.681   0.100
 7273TIP3    H221763   8.282   3.563   0.189
 7274TIP3   OH221764   1.421   2.672   2.488
 7274TIP3    H121765   1.504   2.623   2.489
 7274TIP3    H221766   1.434   2.739   2.421
 7275TIP3   OH221767   8.201   6.200   1.250
 7275TIP3    H121768   8.145   6.216   1.326
 7275TIP3    H221769   8.213   6.105   1.249
 7276TIP3   OH221770   6.197   7.019   0.746
 7276TIP3    H121771   6.145   6.968   0.685
 7276TIP3    H221772   6.135   7.079   0.787
 7277TIP3   OH221773   1.474   7.349   5.325
 7277TIP3    H121774   1.429   7.431   5.344
 7277TIP3    H221775   1.529   7.368   5.249
 7278TIP3   OH221776   2.632   3.396   0.035
 7278TIP3    H121777   2.669   3.451  -0.034
 7278TIP3    H221778   2.541   3.427   0.044
 7279TIP3   OH221779   0.569   3.556   1.431
 7279TIP3    H121780   0.605   3.470   1.451
 7279TIP3    H221781   0.560   3.599   1.516
 7280TIP3   OH221782   2.708   0.778   3.803
 7280TIP3    H121783   2.666   0.693   3.789
 7280TIP3    H221784   2.792   0.757   3.843
 7281TIP3   OH221785   1.039   3.699   5.058
 7281TIP3    H121786   1.094   3.623   5.044
 7281TIP3    H221787   0.975   3.671   5.123
 7282TIP3   OH221788   4.421   0.505   5.115
 7282TIP3    H121789   4.453   0.429   5.164
 7282TIP3    H221790   4.368   0.554   5.178
 7283TIP3   OH221791   2.436   6.378   6.723
 7283TIP3    H121792   2.425   6.305   6.663
 7283TIP3    H221793   2.531   6.384   6.737
 7284TIP3   OH221794   2.454   5.715   5.736
 7284TIP3    H121795   2.459   5.661   5.815
 7284TIP3    H221796   2.400   5.790   5.762
 7285TIP3   OH221797   0.715   2.540   5.886
 7285TIP3    H121798   0.637   2.487   5.873
 7285TIP3    H221799   0.713   2.604   5.814
 7286TIP3   OH221800   5.664   4.335   1.428
 7286TIP3    H121801   5.741   4.280   1.442
 7286TIP3    H221802   5.679   4.411   1.484
 7287TIP3   OH221803   1.363   4.326   3.354
 7287TIP3    H121804   1.357   4.269   3.278
 7287TIP3    H221805   1.453   4.357   3.354
 7288TIP3   OH221806   1.346   1.163   2.705
 7288TIP3    H121807   1.344   1.143   2.612
 7288TIP3    H221808   1.254   1.167   2.732
 7289TIP3   OH221809   4.000   2.143   0.845
 7289TIP3    H121810   4.038   2.110   0.764
 7289TIP3    H221811   4.074   2.169   0.898
 7290TIP3   OH221812   4.869   1.978   3.190
 7290TIP3    H121813   4.876   1.896   3.240
 7290TIP3    H221814   4.791   1.967   3.137
 7291TIP3   OH221815   7.633   4.994   5.688
 7291TIP3    H121816   7.613   4.982   5.595
 7291TIP3    H221817   7.604   5.083   5.707
 7292TIP3   OH221818   1.003   4.745   4.732
 7292TIP3    H121819   0.928   4.691   4.707
 7292TIP3    H221820   1.068   4.727   4.664
 7293TIP3   OH221821   6.039   1.423   4.389
 7293TIP3    H121822   6.019   1.509   4.428
 7293TIP3    H221823   5.955   1.389   4.360
 7294TIP3   OH221824   6.230   5.526   0.726
 7294TIP3    H121825   6.209   5.477   0.805
 7294TIP3    H221826   6.186   5.478   0.656
 7295TIP3   OH221827   2.956   4.884   5.168
 7295TIP3    H121828   2.878   4.918   5.126
 7295TIP3    H221829   3.028   4.912   5.112
 7296TIP3   OH221830   1.026   0.077   4.008
 7296TIP3    H121831   1.030  -0.017   3.993
 7296TIP3    H221832   0.993   0.113   3.926
 7297TIP3   OH221833   3.818   1.405   6.030
 7297TIP3    H121834   3.731   1.443   6.021
 7297TIP3    H221835   3.803   1.317   6.063
 7298TIP3   OH221836   5.727   1.571   4.531
 7298TIP3    H121837   5.815   1.601   4.508
 7298TIP3    H221838   5.737   1.531   4.617
 7299TIP3   OH221839   7.245   5.904   1.034
 7299TIP3    H121840   7.182   5.893   0.963
 7299TIP3    H221841   7.323   5.940   0.993
 7300TIP3   OH221842   6.153   7.531   5.594
 7300TIP3    H121843   6.129   7.571   5.510
 7300TIP3    H221844   6.195   7.448   5.569
 7301TIP3   OH221845   2.449   2.876   5.072
 7301TIP3    H121846   2.497   2.810   5.021
 7301TIP3    H221847   2.500   2.887   5.152
 7302TIP3   OH221848   7.968   6.426   1.472
 7302TIP3    H121849   7.996   6.336   1.489
 7302TIP3    H221850   7.939   6.459   1.558
 7303TIP3   OH221851   8.198   7.590   1.874
 7303TIP3    H121852   8.269   7.526   1.871
 7303TIP3    H221853   8.151   7.576   1.792
 7304TIP3   OH221854   5.801   5.273   3.816
 7304TIP3    H121855   5.732   5.329   3.779
 7304TIP3    H221856   5.882   5.304   3.774
 7305TIP3   OH221857   1.064   0.828   5.055
 7305TIP3    H121858   1.030   0.809   5.143
 7305TIP3    H221859   1.069   0.742   5.012
 7306TIP3   OH221860   5.819   3.551   6.797
 7306TIP3    H121861   5.732   3.529   6.829
 7306TIP3    H221862   5.805   3.579   6.707
 7307TIP3   OH221863   3.652   6.501   0.471
 7307TIP3    H121864   3.694   6.459   0.546
 7307TIP3    H221865   3.716   6.564   0.439
 7308TIP3   OH221866   3.775   2.457   0.309
 7308TIP3    H121867   3.693   2.419   0.279
 7308TIP3    H221868   3.835   2.382   0.314
 7309TIP3   OH221869   4.830   2.560   0.586
 7309TIP3    H121870   4.739   2.551   0.614
 7309TIP3    H221871   4.869   2.619   0.651
 7310TIP3   OH221872   1.817   7.787   2.885
 7310TIP3    H121873   1.848   7.729   2.816
 7310TIP3    H221874   1.891   7.845   2.903
 7311TIP3   OH221875   0.388   7.323   5.566
 7311TIP3    H121876   0.317   7.293   5.623
 7311TIP3    H221877   0.351   7.397   5.519
 7312TIP3   OH221878   8.268   1.112   6.708
 7312TIP3    H121879   8.325   1.040   6.735
 7312TIP3    H221880   8.234   1.147   6.791
 7313TIP3   OH221881   2.202   7.589   5.281
 7313TIP3    H121882   2.163   7.660   5.333
 7313TIP3    H221883   2.275   7.632   5.235
 7314TIP3   OH221884   0.314   5.657   1.562
 7314TIP3    H121885   0.371   5.599   1.614
 7314TIP3    H221886   0.245   5.683   1.622
 7315TIP3   OH221887   3.261   4.196   4.558
 7315TIP3    H121888   3.202   4.205   4.633
 7315TIP3    H221889   3.232   4.116   4.514
 7316TIP3   OH221890   7.897   7.800   0.551
 7316TIP3    H121891   7.863   7.827   0.466
 7316TIP3    H221892   7.858   7.714   0.566
 7317TIP3   OH221893   3.630   7.809   4.533
 7317TIP3    H121894   3.704   7.760   4.569
 7317TIP3    H221895   3.571   7.742   4.500
 7318TIP3   OH221896   4.998   1.561   5.360
 7318TIP3    H121897   4.920   1.539   5.411
 7318TIP3    H221898   5.047   1.479   5.355
 7319TIP3   OH221899   5.302   0.208   4.753
 7319TIP3    H121900   5.374   0.254   4.710
 7319TIP3    H221901   5.331   0.117   4.757
 7320TIP3   OH221902   5.428   0.456   6.679
 7320TIP3    H121903   5.488   0.383   6.663
 7320TIP3    H221904   5.355   0.440   6.620
 7321TIP3   OH221905   7.250   2.072   2.463
 7321TIP3    H121906   7.309   2.023   2.520
 7321TIP3    H221907   7.275   2.047   2.374
 7322TIP3   OH221908   2.203   3.111   2.955
 7322TIP3    H121909   2.164   3.025   2.944
 7322TIP3    H221910   2.172   3.141   3.041
 7323TIP3   OH221911   2.211   2.716   4.765
 7323TIP3    H121912   2.290   2.750   4.721
 7323TIP3    H221913   2.174   2.653   4.703
 7324TIP3   OH221914   6.500   0.991   1.593
 7324TIP3    H121915   6.456   0.944   1.522
 7324TIP3    H221916   6.458   1.076   1.596
 7325TIP3   OH221917   1.875   2.079   0.691
 7325TIP3    H121918   1.891   2.011   0.756
 7325TIP3    H221919   1.795   2.051   0.647
 7326TIP3   OH221920   0.809   1.159   6.704
 7326TIP3    H121921   0.850   1.074   6.692
 7326TIP3    H221922   0.866   1.220   6.658
 7327TIP3   OH221923   1.830   5.742   3.431
 7327TIP3    H121924   1.861   5.745   3.521
 7327TIP3    H221925   1.907   5.716   3.380
 7328TIP3   OH221926   3.278   1.944   4.881
 7328TIP3    H121927   3.217   1.875   4.904
 7328TIP3    H221928   3.363   1.901   4.878
 7329TIP3   OH221929   0.562   2.792   2.371
 7329TIP3    H121930   0.588   2.725   2.434
 7329TIP3    H221931   0.511   2.855   2.422
 7330TIP3   OH221932   3.402   0.800   3.387
 7330TIP3    H121933   3.379   0.753   3.467
 7330TIP3    H221934   3.348   0.759   3.319
 7331TIP3   OH221935   2.422   1.399   3.721
 7331TIP3    H121936   2.355   1.400   3.789
 7331TIP3    H221937   2.503   1.378   3.766
 7332TIP3   OH221938   2.874   3.900   0.867
 7332TIP3    H121939   2.885   3.956   0.944
 7332TIP3    H221940   2.805   3.839   0.892
 7333TIP3   OH221941   4.119   1.781   4.604
 7333TIP3    H121942   4.060   1.846   4.645
 7333TIP3    H221943   4.068   1.700   4.604
 7334TIP3   OH221944   5.572   2.169   1.196
 7334TIP3    H121945   5.565   2.150   1.102
 7334TIP3    H221946   5.483   2.193   1.222
 7335TIP3   OH221947   2.648   4.641   4.520
 7335TIP3    H121948   2.623   4.631   4.429
 7335TIP3    H221949   2.704   4.566   4.539
 7336TIP3   OH221950   5.491   6.588   1.335
 7336TIP3    H121951   5.466   6.531   1.263
 7336TIP3    H221952   5.415   6.589   1.393
 7337TIP3   OH221953   7.309   5.958   1.537
 7337TIP3    H121954   7.231   6.012   1.551
 7337TIP3    H221955   7.315   5.904   1.615
 7338TIP3   OH221956   4.418   5.982   1.659
 7338TIP3    H121957   4.335   6.014   1.624
 7338TIP3    H221958   4.397   5.895   1.694
 7339TIP3   OH221959   5.605   2.810   3.183
 7339TIP3    H121960   5.596   2.851   3.098
 7339TIP3    H221961   5.584   2.879   3.246
 7340TIP3   OH221962   5.563   0.676   6.546
 7340TIP3    H121963   5.656   0.674   6.566
 7340TIP3    H221964   5.529   0.595   6.582
 7341TIP3   OH221965   2.138   1.699   4.615
 7341TIP3    H121966   2.112   1.748   4.537
 7341TIP3    H221967   2.069   1.719   4.679
 7342TIP3   OH221968   0.567   6.945   0.900
 7342TIP3    H121969   0.571   6.881   0.971
 7342TIP3    H221970   0.612   6.903   0.827
 7343TIP3   OH221971   6.484   4.238   1.258
 7343TIP3    H121972   6.571   4.227   1.296
 7343TIP3    H221973   6.470   4.158   1.207
 7344TIP3   OH221974   7.272   3.062   0.161
 7344TIP3    H121975   7.252   3.150   0.129
 7344TIP3    H221976   7.300   3.014   0.084
 7345TIP3   OH221977   6.994   7.494   0.358
 7345TIP3    H121978   6.919   7.460   0.408
 7345TIP3    H221979   6.962   7.500   0.268
 7346TIP3   OH221980   0.881   3.882   6.428
 7346TIP3    H121981   0.953   3.930   6.387
 7346TIP3    H221982   0.847   3.942   6.494
 7347TIP3   OH221983   2.858   1.291   1.864
 7347TIP3    H121984   2.775   1.248   1.888
 7347TIP3    H221985   2.842   1.383   1.882
 7348TIP3   OH221986   0.880   3.076   2.394
 7348TIP3    H121987   0.813   3.119   2.448
 7348TIP3    H221988   0.943   3.146   2.376
 7349TIP3   OH221989   0.447   0.612   4.010
 7349TIP3    H121990   0.447   0.536   4.068
 7349TIP3    H221991   0.374   0.597   3.950
 7350TIP3   OH221992   4.899   5.870   6.067
 7350TIP3    H121993   4.835   5.919   6.120
 7350TIP3    H221994   4.934   5.805   6.127
 7351TIP3   OH221995   3.523   7.240   6.182
 7351TIP3    H121996   3.449   7.279   6.228
 7351TIP3    H221997   3.588   7.311   6.175
 7352TIP3   OH221998   5.791   2.196   2.250
 7352TIP3    H121999   5.758   2.272   2.202
 7352TIP3    H222000   5.713   2.157   2.289
 7353TIP3   OH222001   7.383   4.635   5.458
 7353TIP3    H122002   7.344   4.665   5.540
 7353TIP3    H222003   7.458   4.582   5.486
 7354TIP3   OH222004   2.792   6.246   5.916
 7354TIP3    H122005   2.804   6.174   5.979
 7354TIP3    H222006   2.825   6.323   5.962
 7355TIP3   OH222007   6.794   6.117   0.481
 7355TIP3    H122008   6.760   6.042   0.431
 7355TIP3    H222009   6.843   6.077   0.553
 7356TIP3   OH222010   8.169   7.757   5.039
 7356TIP3    H122011   8.217   7.828   4.997
 7356TIP3    H222012   8.157   7.786   5.130
 7357TIP3   OH222013   4.638   4.964   4.462
 7357TIP3    H122014   4.681   4.979   4.546
 7357TIP3    H222015   4.693   4.898   4.418
 7358TIP3   OH222016   5.903   1.085   1.315
 7358TIP3    H122017   5.929   0.999   1.349
 7358TIP3    H222018   5.811   1.093   1.341
 7359TIP3   OH222019   5.945   5.263   5.196
 7359TIP3    H122020   5.967   5.296   5.109
 7359TIP3    H222021   5.868   5.315   5.222
 7360TIP3   OH222022   0.801   7.467   5.932
 7360TIP3    H122023   0.858   7.496   5.861
 7360TIP3    H222024   0.718   7.447   5.889
 7361TIP3   OH222025   4.614   0.135   0.789
 7361TIP3    H122026   4.519   0.130   0.777
 7361TIP3    H222027   4.635   0.055   0.838
 7362TIP3   OH222028   4.032   0.594   4.989
 7362TIP3    H122029   4.110   0.650   4.991
 7362TIP3    H222030   4.004   0.595   4.897
 7363TIP3   OH222031   7.626   4.459   5.903
 7363TIP3    H122032   7.659   4.376   5.868
 7363TIP3    H222033   7.580   4.434   5.983
 7364TIP3   OH222034   3.565   5.053   4.406
 7364TIP3    H122035   3.617   4.977   4.434
 7364TIP3    H222036   3.628   5.125   4.403
 7365TIP3   OH222037   7.101   0.934   5.976
 7365TIP3    H122038   7.129   1.024   5.987
 7365TIP3    H222039   7.164   0.897   5.914
 7366TIP3   OH222040   5.713   4.735   1.432
 7366TIP3    H122041   5.626   4.770   1.448
 7366TIP3    H222042   5.719   4.659   1.490
 7367TIP3   OH222043   4.793   5.491   0.588
 7367TIP3    H122044   4.779   5.469   0.680
 7367TIP3    H222045   4.856   5.425   0.557
 7368TIP3   OH222046   1.565   3.914   5.625
 7368TIP3    H122047   1.556   3.990   5.568
 7368TIP3    H222048   1.560   3.950   5.714
 7369TIP3   OH222049   7.365   1.906   4.610
 7369TIP3    H122050   7.284   1.895   4.560
 7369TIP3    H222051   7.398   1.992   4.585
 7370TIP3   OH222052   3.575   0.022   4.754
 7370TIP3    H122053   3.560   0.085   4.683
 7370TIP3    H222054   3.634   0.068   4.814
 7371TIP3   OH222055   3.438   7.279   4.641
 7371TIP3    H122056   3.367   7.221   4.670
 7371TIP3    H222057   3.452   7.338   4.715
 7372TIP3   OH222058   4.048   2.046   2.368
 7372TIP3    H122059   3.997   2.105   2.313
 7372TIP3    H222060   3.984   1.983   2.402
 7373TIP3   OH222061   4.491   0.464   1.449
 7373TIP3    H122062   4.574   0.511   1.438
 7373TIP3    H222063   4.486   0.407   1.372
 7374TIP3   OH222064   0.816   5.030   1.747
 7374TIP3    H122065   0.902   4.995   1.770
 7374TIP3    H222066   0.813   5.116   1.790
 7375TIP3   OH222067   7.969   0.366   0.706
 7375TIP3    H122068   7.986   0.425   0.633
 7375TIP3    H222069   8.052   0.362   0.754
 7376TIP3   OH222070   0.057   1.046   5.668
 7376TIP3    H122071   0.090   1.113   5.727
 7376TIP3    H222072   0.082   1.077   5.581
 7377TIP3   OH222073   3.395   4.071   1.485
 7377TIP3    H122074   3.405   4.045   1.393
 7377TIP3    H222075   3.341   4.002   1.524
 7378TIP3   OH222076   4.922   2.250   0.217
 7378TIP3    H122077   4.876   2.171   0.188
 7378TIP3    H222078   4.864   2.289   0.282
 7379TIP3   OH222079   0.241   6.512   5.364
 7379TIP3    H122080   0.146   6.516   5.370
 7379TIP3    H222081   0.267   6.602   5.341
 7380TIP3   OH222082   5.721   0.705   5.908
 7380TIP3    H122083   5.724   0.797   5.882
 7380TIP3    H222084   5.694   0.658   5.829
 7381TIP3   OH222085   6.246   0.715   5.777
 7381TIP3    H122086   6.171   0.666   5.811
 7381TIP3    H222087   6.322   0.676   5.820
 7382TIP3   OH222088   2.224   5.193   2.738
 7382TIP3    H122089   2.308   5.183   2.783
 7382TIP3    H222090   2.186   5.273   2.774
 7383TIP3   OH222091   3.141   6.347   5.163
 7383TIP3    H122092   3.054   6.369   5.131
 7383TIP3    H222093   3.126   6.301   5.246
 7384TIP3   OH222094   5.581   7.543   1.975
 7384TIP3    H122095   5.532   7.519   2.054
 7384TIP3    H222096   5.514   7.577   1.915
 7385TIP3   OH222097   4.741   6.997   3.794
 7385TIP3    H122098   4.766   6.944   3.870
 7385TIP3    H222099   4.692   7.070   3.832
 7386TIP3   OH222100   5.775   1.291   6.707
 7386TIP3    H122101   5.713   1.323   6.642
 7386TIP3    H222102   5.798   1.203   6.679
 7387TIP3   OH222103   5.826   7.148   5.891
 7387TIP3    H122104   5.761   7.216   5.909
 7387TIP3    H222105   5.869   7.176   5.811
 7388TIP3   OH222106   3.347   0.157   0.871
 7388TIP3    H122107   3.330   0.249   0.892
 7388TIP3    H222108   3.263   0.113   0.887
 7389TIP3   OH222109   5.780   0.209   4.820
 7389TIP3    H122110   5.765   0.125   4.778
 7389TIP3    H222111   5.790   0.187   4.913
 7390TIP3   OH222112   7.913   5.876   6.416
 7390TIP3    H122113   7.849   5.893   6.486
 7390TIP3    H222114   7.981   5.942   6.428
 7391TIP3   OH222115   3.747   4.296   5.982
 7391TIP3    H122116   3.834   4.292   5.941
 7391TIP3    H222117   3.723   4.205   5.997
 7392TIP3   OH222118   4.711   3.526   3.800
 7392TIP3    H122119   4.628   3.528   3.752
 7392TIP3    H222120   4.688   3.487   3.885
 7393TIP3   OH222121   7.176   3.826   5.370
 7393TIP3    H122122   7.188   3.792   5.459
 7393TIP3    H222123   7.161   3.748   5.317
 7394TIP3   OH222124   7.871   2.017   6.418
 7394TIP3    H122125   7.940   1.995   6.355
 7394TIP3    H222126   7.802   2.056   6.364
 7395TIP3   OH222127   7.718   3.524   1.644
 7395TIP3    H122128   7.752   3.612   1.631
 7395TIP3    H222129   7.649   3.515   1.578
 7396TIP3   OH222130   4.188   2.237   6.272
 7396TIP3    H122131   4.156   2.243   6.362
 7396TIP3    H222132   4.280   2.212   6.281
 7397TIP3   OH222133   6.150   3.204   3.089
 7397TIP3    H122134   6.184   3.173   3.005
 7397TIP3    H222135   6.219   3.181   3.152
 7398TIP3   OH222136   2.243   6.306   5.032
 7398TIP3    H122137   2.272   6.308   4.941
 7398TIP3    H222138   2.286   6.381   5.073
 7399TIP3   OH222139   6.168   5.930   6.003
 7399TIP3    H122140   6.178   5.850   5.951
 7399TIP3    H222141   6.196   5.905   6.091
 7400TIP3   OH222142   6.388   0.430   4.750
 7400TIP3    H122143   6.411   0.497   4.815
 7400TIP3    H222144   6.375   0.479   4.669
 7401TIP3   OH222145   5.324   4.431   4.734
 7401TIP3    H122146   5.416   4.438   4.759
 7401TIP3    H222147   5.308   4.337   4.728
 7402TIP3   OH222148   1.776   1.116   0.086
 7402TIP3    H122149   1.742   1.171   0.016
 7402TIP3    H222150   1.810   1.178   0.151
 7403TIP3   OH222151   6.343   0.734   3.811
 7403TIP3    H122152   6.260   0.769   3.844
 7403TIP3    H222153   6.369   0.668   3.875
 7404TIP3   OH222154   2.288   3.665   6.100
 7404TIP3    H122155   2.371   3.640   6.142
 7404TIP3    H222156   2.314   3.692   6.012
 7405TIP3   OH222157   2.594   6.075   5.003
 7405TIP3    H122158   2.516   6.038   5.045
 7405TIP3    H222159   2.665   6.015   5.028
 7406TIP3   OH222160   7.632   2.207   2.990
 7406TIP3    H122161   7.586   2.213   3.074
 7406TIP3    H222162   7.695   2.279   2.992
 7407TIP3   OH222163   5.516   0.838   1.275
 7407TIP3    H122164   5.550   0.785   1.203
 7407TIP3    H222165   5.421   0.839   1.262
 7408TIP3   OH222166   6.117   5.687   6.566
 7408TIP3    H122167   6.125   5.653   6.477
 7408TIP3    H222168   6.064   5.766   6.557
 7409TIP3   OH222169   1.910   0.016   5.498
 7409TIP3    H122170   1.850   0.086   5.520
 7409TIP3    H222171   1.855  -0.052   5.459
 7410TIP3   OH222172   0.237   7.616   6.179
 7410TIP3    H122173   0.304   7.581   6.237
 7410TIP3    H222174   0.240   7.711   6.192
 7411TIP3   OH222175   7.509   3.197   1.464
 7411TIP3    H122176   7.533   3.235   1.380
 7411TIP3    H222177   7.587   3.150   1.492
 7412TIP3   OH222178   6.382   6.098   2.528
 7412TIP3    H122179   6.438   6.045   2.471
 7412TIP3    H222180   6.363   6.041   2.603
 7413TIP3   OH222181   2.788   6.515   6.495
 7413TIP3    H122182   2.715   6.577   6.500
 7413TIP3    H222183   2.866   6.571   6.490
 7414TIP3   OH222184   7.294   5.456   4.058
 7414TIP3    H122185   7.202   5.452   4.081
 7414TIP3    H222186   7.320   5.547   4.076
 7415TIP3   OH222187   0.203   6.256   2.687
 7415TIP3    H122188   0.263   6.186   2.664
 7415TIP3    H222189   0.210   6.263   2.782
 7416TIP3   OH222190   1.953   5.113   4.956
 7416TIP3    H122191   1.983   5.126   4.866
 7416TIP3    H222192   1.980   5.024   4.978
 7417TIP3   OH222193   3.826   1.841   6.733
 7417TIP3    H122194   3.890   1.905   6.701
 7417TIP3    H222195   3.774   1.818   6.656
 7418TIP3   OH222196   0.516   3.139   6.468
 7418TIP3    H122197   0.446   3.074   6.474
 7418TIP3    H222198   0.470   3.221   6.448
 7419TIP3   OH222199   3.395   5.734   6.293
 7419TIP3    H122200   3.368   5.679   6.367
 7419TIP3    H222201   3.368   5.823   6.319
 7420TIP3   OH222202   1.384   1.483   4.900
 7420TIP3    H122203   1.423   1.570   4.910
 7420TIP3    H222204   1.338   1.468   4.983
 7421TIP3   OH222205   8.163   5.247   5.462
 7421TIP3    H122206   8.219   5.175   5.492
 7421TIP3    H222207   8.138   5.293   5.543
 7422TIP3   OH222208   6.389   3.827   1.118
 7422TIP3    H122209   6.465   3.881   1.140
 7422TIP3    H222210   6.420   3.768   1.050
 7423TIP3   OH222211   7.184   0.988   1.026
 7423TIP3    H122212   7.274   1.006   1.053
 7423TIP3    H222213   7.166   1.054   0.959
 7424TIP3   OH222214   7.492   1.243   6.145
 7424TIP3    H122215   7.426   1.308   6.119
 7424TIP3    H222216   7.551   1.237   6.070
 7425TIP3   OH222217   5.411   0.577   1.442
 7425TIP3    H122218   5.499   0.609   1.423
 7425TIP3    H222219   5.405   0.576   1.538
 7426TIP3   OH222220   6.230   6.510   6.755
 7426TIP3    H122221   6.315   6.499   6.712
 7426TIP3    H222222   6.217   6.428   6.804
 7427TIP3   OH222223   2.659   3.802   1.012
 7427TIP3    H122224   2.643   3.894   1.029
 7427TIP3    H222225   2.574   3.760   1.021
 7428TIP3   OH222226   7.278   6.162   4.760
 7428TIP3    H122227   7.231   6.181   4.679
 7428TIP3    H222228   7.365   6.199   4.747
 7429TIP3   OH222229   4.315   6.310   4.810
 7429TIP3    H122230   4.405   6.322   4.780
 7429TIP3    H222231   4.268   6.385   4.774
 7430TIP3   OH222232   7.778   5.333   5.158
 7430TIP3    H122233   7.789   5.301   5.068
 7430TIP3    H222234   7.864   5.369   5.181
 7431TIP3   OH222235   5.165   0.142   1.262
 7431TIP3    H122236   5.209   0.188   1.333
 7431TIP3    H222237   5.209   0.172   1.182
 7432TIP3   OH222238   3.647   7.153   2.635
 7432TIP3    H122239   3.717   7.180   2.577
 7432TIP3    H222240   3.578   7.219   2.624
 7433TIP3   OH222241   7.029   6.468   4.673
 7433TIP3    H122242   7.085   6.470   4.751
 7433TIP3    H222243   7.090   6.453   4.601
 7434TIP3   OH222244   3.254   1.277   0.861
 7434TIP3    H122245   3.340   1.234   0.860
 7434TIP3    H222246   3.199   1.218   0.913
 7435TIP3   OH222247   4.752   3.159   4.515
 7435TIP3    H122248   4.693   3.106   4.568
 7435TIP3    H222249   4.832   3.166   4.567
 7436TIP3   OH222250   5.715   1.069   4.149
 7436TIP3    H122251   5.746   1.149   4.191
 7436TIP3    H222252   5.720   1.087   4.056
 7437TIP3   OH222253   6.791   0.265   4.547
 7437TIP3    H122254   6.705   0.229   4.569
 7437TIP3    H222255   6.776   0.358   4.535
 7438TIP3   OH222256   7.085   6.281   3.330
 7438TIP3    H122257   7.034   6.206   3.360
 7438TIP3    H222258   7.045   6.305   3.246
 7439TIP3   OH222259   5.337   6.940   5.792
 7439TIP3    H122260   5.428   6.934   5.821
 7439TIP3    H222261   5.338   7.005   5.722
 7440TIP3   OH222262   7.741   0.612   3.122
 7440TIP3    H122263   7.685   0.547   3.079
 7440TIP3    H222264   7.694   0.695   3.109
 7441TIP3   OH222265   1.954   2.575   1.225
 7441TIP3    H122266   1.909   2.498   1.261
 7441TIP3    H222267   1.913   2.588   1.139
 7442TIP3   OH222268   7.409   0.320   4.917
 7442TIP3    H122269   7.344   0.390   4.920
 7442TIP3    H222270   7.490   0.362   4.889
 7443TIP3   OH222271   5.776   6.063   0.818
 7443TIP3    H122272   5.842   6.040   0.883
 7443TIP3    H222273   5.693   6.034   0.857
 7444TIP3   OH222274   5.650   7.008   0.735
 7444TIP3    H122275   5.733   6.963   0.753
 7444TIP3    H222276   5.609   6.956   0.666
 7445TIP3   OH222277   4.932   2.708   1.978
 7445TIP3    H122278   4.881   2.629   1.958
 7445TIP3    H222279   4.950   2.747   1.892
 7446TIP3   OH222280   6.338   3.954  -0.024
 7446TIP3    H122281   6.426   3.945   0.014
 7446TIP3    H222282   6.278   3.940   0.049
 7447TIP3   OH222283   4.292   7.273   2.056
 7447TIP3    H122284   4.315   7.206   2.120
 7447TIP3    H222285   4.290   7.355   2.107
 7448TIP3   OH222286   5.629   7.273   2.584
 7448TIP3    H122287   5.614   7.215   2.509
 7448TIP3    H222288   5.592   7.226   2.659
 7449TIP3   OH222289   0.061   6.794   3.779
 7449TIP3    H122290   0.126   6.849   3.736
 7449TIP3    H222291   0.066   6.710   3.733
 7450TIP3   OH222292   0.394   7.006   5.718
 7450TIP3    H122293   0.317   7.056   5.688
 7450TIP3    H222294   0.358   6.923   5.747
 7451TIP3   OH222295   6.205   2.383   2.164
 7451TIP3    H122296   6.146   2.409   2.094
 7451TIP3    H222297   6.254   2.310   2.127
 7452TIP3   OH222298   2.594   4.959   1.538
 7452TIP3    H122299   2.517   4.905   1.522
 7452TIP3    H222300   2.659   4.898   1.574
 7453TIP3   OH222301   0.784   5.975   1.162
 7453TIP3    H122302   0.721   6.032   1.117
 7453TIP3    H222303   0.845   6.035   1.204
 7454TIP3   OH222304   7.081   6.396   6.652
 7454TIP3    H122305   7.175   6.411   6.654
 7454TIP3    H222306   7.043   6.468   6.702
 7455TIP3   OH222307   4.021   3.768   0.609
 7455TIP3    H122308   4.022   3.793   0.701
 7455TIP3    H222309   4.088   3.699   0.602
 7456TIP3   OH222310   0.738   1.267   5.908
 7456TIP3    H122311   0.781   1.353   5.913
 7456TIP3    H222312   0.673   1.269   5.978
 7457TIP3   OH222313   1.854   1.248   6.194
 7457TIP3    H122314   1.886   1.283   6.111
 7457TIP3    H222315   1.893   1.305   6.260
 7458TIP3   OH222316   5.007   4.316   5.051
 7458TIP3    H122317   5.026   4.374   4.977
 7458TIP3    H222318   5.091   4.307   5.097
 7459TIP3   OH222319   6.568   6.755   0.847
 7459TIP3    H122320   6.549   6.798   0.930
 7459TIP3    H222321   6.507   6.796   0.785
 7460TIP3   OH222322   2.490   0.665   5.216
 7460TIP3    H122323   2.469   0.577   5.186
 7460TIP3    H222324   2.582   0.677   5.192
 7461TIP3   OH222325   3.034   5.927   1.256
 7461TIP3    H122326   3.049   5.930   1.350
 7461TIP3    H222327   2.942   5.901   1.247
 7462TIP3   OH222328   2.052   3.037   4.601
 7462TIP3    H122329   1.969   3.010   4.563
 7462TIP3    H222330   2.079   2.964   4.656
 7463TIP3   OH222331   0.512   3.784   0.398
 7463TIP3    H122332   0.602   3.777   0.428
 7463TIP3    H222333   0.517   3.769   0.303
 7464TIP3   OH222334   6.017   6.913   0.133
 7464TIP3    H122335   5.988   6.832   0.089
 7464TIP3    H222336   6.010   6.980   0.065
 7465TIP3   OH222337   7.880   2.473   4.140
 7465TIP3    H122338   7.804   2.506   4.188
 7465TIP3    H222339   7.900   2.541   4.077
 7466TIP3   OH222340   5.553   1.472   1.004
 7466TIP3    H122341   5.564   1.480   1.098
 7466TIP3    H222342   5.558   1.377   0.987
 7467TIP3   OH222343   5.205   3.649   3.247
 7467TIP3    H122344   5.126   3.674   3.294
 7467TIP3    H222345   5.269   3.716   3.272
 7468TIP3   OH222346   6.052   2.757   3.691
 7468TIP3    H122347   5.992   2.759   3.765
 7468TIP3    H222348   6.033   2.837   3.642
 7469TIP3   OH222349   3.386   2.216   2.403
 7469TIP3    H122350   3.386   2.287   2.467
 7469TIP3    H222351   3.335   2.251   2.330
 7470TIP3   OH222352   4.542   6.240   6.345
 7470TIP3    H122353   4.567   6.215   6.434
 7470TIP3    H222354   4.625   6.250   6.298
 7471TIP3   OH222355   2.331   5.106   1.429
 7471TIP3    H122356   2.403   5.104   1.365
 7471TIP3    H222357   2.357   5.173   1.492
 7472TIP3   OH222358   2.526   6.181   0.712
 7472TIP3    H122359   2.562   6.211   0.628
 7472TIP3    H222360   2.579   6.104   0.735
 7473TIP3   OH222361   0.421   6.807   3.139
 7473TIP3    H122362   0.461   6.720   3.146
 7473TIP3    H222363   0.449   6.853   3.219
 7474TIP3   OH222364   0.776   5.389   2.482
 7474TIP3    H122365   0.697   5.356   2.524
 7474TIP3    H222366   0.818   5.444   2.549
 7475TIP3   OH222367   7.396   6.218   2.759
 7475TIP3    H122368   7.482   6.253   2.736
 7475TIP3    H222369   7.414   6.143   2.815
 7476TIP3   OH222370   4.231   4.934   0.178
 7476TIP3    H122371   4.166   4.997   0.209
 7476TIP3    H222372   4.275   4.979   0.105
 7477TIP3   OH222373   3.762   4.426   3.319
 7477TIP3    H122374   3.808   4.357   3.366
 7477TIP3    H222375   3.752   4.497   3.384
 7478TIP3   OH222376   3.218   4.374   0.200
 7478TIP3    H122377   3.235   4.462   0.166
 7478TIP3    H222378   3.286   4.319   0.163
 7479TIP3   OH222379   4.624   0.172   2.072
 7479TIP3    H122380   4.622   0.130   1.986
 7479TIP3    H222381   4.567   0.117   2.127
 7480TIP3   OH222382   4.716   1.409   6.278
 7480TIP3    H122383   4.674   1.478   6.226
 7480TIP3    H222384   4.802   1.397   6.237
 7481TIP3   OH222385   6.733   5.995   2.719
 7481TIP3    H122386   6.753   6.066   2.779
 7481TIP3    H222387   6.767   6.025   2.634
 7482TIP3   OH222388   4.811   0.222   0.414
 7482TIP3    H122389   4.876   0.289   0.396
 7482TIP3    H222390   4.794   0.228   0.508
 7483TIP3   OH222391   3.934   7.118   6.590
 7483TIP3    H122392   3.902   7.165   6.513
 7483TIP3    H222393   3.858   7.109   6.647
 7484TIP3   OH222394   2.252   0.869   6.409
 7484TIP3    H122395   2.163   0.900   6.426
 7484TIP3    H222396   2.305   0.949   6.404
 7485TIP3   OH222397   0.935   2.501   0.726
 7485TIP3    H122398   1.015   2.549   0.704
 7485TIP3    H222399   0.865   2.565   0.712
 7486TIP3   OH222400   1.422   6.392   5.694
 7486TIP3    H122401   1.351   6.386   5.629
 7486TIP3    H222402   1.468   6.309   5.686
 7487TIP3   OH222403   0.958   1.433   0.978
 7487TIP3    H122404   0.908   1.461   1.055
 7487TIP3    H222405   0.907   1.465   0.903
 7488TIP3   OH222406   5.656   4.577   5.663
 7488TIP3    H122407   5.746   4.603   5.644
 7488TIP3    H222408   5.609   4.659   5.676
 7489TIP3   OH222409   4.156   0.383   0.561
 7489TIP3    H122410   4.144   0.288   0.564
 7489TIP3    H222411   4.174   0.402   0.469
 7490TIP3   OH222412   1.240   4.810   2.748
 7490TIP3    H122413   1.227   4.834   2.839
 7490TIP3    H222414   1.305   4.872   2.715
 7491TIP3   OH222415   7.543   6.213   4.161
 7491TIP3    H122416   7.626   6.166   4.168
 7491TIP3    H222417   7.538   6.264   4.243
 7492TIP3   OH222418   1.742   6.711   1.871
 7492TIP3    H122419   1.807   6.754   1.816
 7492TIP3    H222420   1.698   6.784   1.917
 7493TIP3   OH222421   3.841   2.681   1.744
 7493TIP3    H122422   3.882   2.637   1.819
 7493TIP3    H222423   3.790   2.613   1.701
 7494TIP3   OH222424   6.319   4.666   1.393
 7494TIP3    H122425   6.322   4.744   1.449
 7494TIP3    H222426   6.343   4.697   1.306
 7495TIP3   OH222427   1.549   2.493   0.982
 7495TIP3    H122428   1.545   2.532   1.069
 7495TIP3    H222429   1.550   2.399   0.998
 7496TIP3   OH222430   0.191   6.182   4.014
 7496TIP3    H122431   0.130   6.213   4.081
 7496TIP3    H222432   0.155   6.097   3.988
 7497TIP3   OH222433   4.489   6.723   0.736
 7497TIP3    H122434   4.473   6.677   0.818
 7497TIP3    H222435   4.541   6.663   0.683
 7498TIP3   OH222436   2.547   7.362   5.243
 7498TIP3    H122437   2.606   7.300   5.288
 7498TIP3    H222438   2.469   7.311   5.225
 7499TIP3   OH222439   3.281   2.715   3.040
 7499TIP3    H122440   3.193   2.692   3.008
 7499TIP3    H222441   3.267   2.796   3.090
 7500TIP3   OH222442   5.293   2.056   6.346
 7500TIP3    H122443   5.379   2.044   6.388
 7500TIP3    H222444   5.273   2.149   6.357
 7501TIP3   OH222445   1.104   0.857   6.256
 7501TIP3    H122446   1.120   0.809   6.338
 7501TIP3    H222447   1.049   0.931   6.282
 7502TIP3   OH222448   2.036   6.376   1.075
 7502TIP3    H122449   2.131   6.383   1.061
 7502TIP3    H222450   2.000   6.454   1.033
 7503TIP3   OH222451   4.717   7.052   6.406
 7503TIP3    H122452   4.696   7.109   6.480
 7503TIP3    H222453   4.719   6.964   6.444
 7504TIP3   OH222454   8.023   1.787   0.951
 7504TIP3    H122455   7.935   1.772   0.917
 7504TIP3    H222456   8.027   1.881   0.969
 7505TIP3   OH222457   8.053   4.590   5.025
 7505TIP3    H122458   8.053   4.628   5.113
 7505TIP3    H222459   7.963   4.558   5.013
 7506TIP3   OH222460   4.740   4.521   3.282
 7506TIP3    H122461   4.811   4.583   3.297
 7506TIP3    H222462   4.753   4.492   3.192
 7507TIP3   OH222463   8.154   1.613   5.417
 7507TIP3    H122464   8.168   1.652   5.331
 7507TIP3    H222465   8.240   1.611   5.458
 7508TIP3   OH222466   4.709   3.979   6.390
 7508TIP3    H122467   4.682   3.903   6.338
 7508TIP3    H222468   4.699   4.054   6.331
 7509TIP3   OH222469   0.641   6.351   4.299
 7509TIP3    H122470   0.639   6.447   4.294
 7509TIP3    H222471   0.549   6.325   4.296
 7510TIP3   OH222472   7.001   6.420   4.995
 7510TIP3    H122473   6.938   6.361   4.955
 7510TIP3    H222474   7.081   6.368   5.004
 7511TIP3   OH222475   2.793   6.254   3.443
 7511TIP3    H122476   2.706   6.220   3.426
 7511TIP3    H222477   2.852   6.192   3.402
 7512TIP3   OH222478   0.771   7.351   4.698
 7512TIP3    H122479   0.740   7.271   4.739
 7512TIP3    H222480   0.820   7.396   4.768
 7513TIP3   OH222481   2.426   1.474   1.269
 7513TIP3    H122482   2.332   1.477   1.247
 7513TIP3    H222483   2.437   1.391   1.315
 7514TIP3   OH222484   2.885   3.502   0.700
 7514TIP3    H122485   2.955   3.557   0.665
 7514TIP3    H222486   2.892   3.421   0.651
 7515TIP3   OH222487   2.251   6.869   4.856
 7515TIP3    H122488   2.259   6.774   4.845
 7515TIP3    H222489   2.222   6.900   4.770
 7516TIP3   OH222490   8.250   1.940   4.679
 7516TIP3    H122491   8.190   1.942   4.605
 7516TIP3    H222492   8.330   1.900   4.644
 7517TIP3   OH222493   3.509   4.377   3.379
 7517TIP3    H122494   3.602   4.368   3.358
 7517TIP3    H222495   3.468   4.400   3.296
 7518TIP3   OH222496   8.124   6.130   1.767
 7518TIP3    H122497   8.090   6.215   1.796
 7518TIP3    H222498   8.049   6.071   1.776
 7519TIP3   OH222499   2.727   5.034   2.777
 7519TIP3    H122500   2.791   4.963   2.765
 7519TIP3    H222501   2.751   5.073   2.861
 7520TIP3   OH222502   4.257   3.741   3.164
 7520TIP3    H122503   4.231   3.833   3.159
 7520TIP3    H222504   4.345   3.742   3.202
 7521TIP3   OH222505   5.364   5.338   5.793
 7521TIP3    H122506   5.319   5.327   5.876
 7521TIP3    H222507   5.346   5.256   5.746
 7522TIP3   OH222508   0.092   1.816   2.294
 7522TIP3    H122509   0.012   1.811   2.242
 7522TIP3    H222510   0.150   1.872   2.243
 7523TIP3   OH222511   0.092   3.693   1.444
 7523TIP3    H122512   0.002   3.722   1.458
 7523TIP3    H222513   0.092   3.601   1.470
 7524TIP3   OH222514   3.249   0.669   3.577
 7524TIP3    H122515   3.278   0.696   3.664
 7524TIP3    H222516   3.157   0.643   3.589
 7525TIP3   OH222517   0.280   1.653   1.925
 7525TIP3    H122518   0.232   1.626   1.846
 7525TIP3    H222519   0.222   1.717   1.967
 7526TIP3   OH222520   3.520   1.450   1.099
 7526TIP3    H122521   3.503   1.542   1.119
 7526TIP3    H222522   3.612   1.447   1.073
 7527TIP3   OH222523   8.213   4.536   3.695
 7527TIP3    H122524   8.157   4.471   3.652
 7527TIP3    H222525   8.258   4.487   3.763
 7528TIP3   OH222526   6.239   4.019   5.337
 7528TIP3    H122527   6.210   4.038   5.248
 7528TIP3    H222528   6.165   4.043   5.392
 7529TIP3   OH222529   2.705   7.717   5.661
 7529TIP3    H122530   2.610   7.724   5.662
 7529TIP3    H222531   2.731   7.765   5.582
 7530TIP3   OH222532   5.808   5.519   0.026
 7530TIP3    H122533   5.851   5.460   0.087
 7530TIP3    H222534   5.730   5.549   0.072
 7531TIP3   OH222535   8.103   0.441   6.112
 7531TIP3    H122536   8.162   0.511   6.085
 7531TIP3    H222537   8.016   0.471   6.084
 7532TIP3   OH222538   7.141   4.344   6.323
 7532TIP3    H122539   7.165   4.432   6.294
 7532TIP3    H222540   7.224   4.297   6.330
 7533TIP3   OH222541   6.128   7.235   2.865
 7533TIP3    H122542   6.191   7.246   2.794
 7533TIP3    H222543   6.111   7.141   2.869
 7534TIP3   OH222544   7.856   3.444   1.180
 7534TIP3    H122545   7.774   3.447   1.130
 7534TIP3    H222546   7.923   3.467   1.117
 7535TIP3   OH222547   5.030   3.845   6.770
 7535TIP3    H122548   4.983   3.911   6.719
 7535TIP3    H222549   5.123   3.864   6.753
 7536TIP3   OH222550   3.503   3.947   4.979
 7536TIP3    H122551   3.479   3.996   5.057
 7536TIP3    H222552   3.421   3.907   4.949
 7537TIP3   OH222553   5.512   1.588   2.191
 7537TIP3    H122554   5.457   1.536   2.132
 7537TIP3    H222555   5.573   1.525   2.228
 7538TIP3   OH222556   4.776   0.475   1.197
 7538TIP3    H122557   4.822   0.464   1.280
 7538TIP3    H222558   4.832   0.432   1.132
 7539TIP3   OH222559   1.927   6.089   5.600
 7539TIP3    H122560   1.869   6.013   5.604
 7539TIP3    H222561   2.007   6.055   5.558
 7540TIP3   OH222562   4.259   4.398   3.969
 7540TIP3    H122563   4.173   4.378   4.004
 7540TIP3    H222564   4.302   4.449   4.038
 7541TIP3   OH222565   4.803   5.391   5.162
 7541TIP3    H122566   4.851   5.339   5.226
 7541TIP3    H222567   4.845   5.371   5.078
 7542TIP3   OH222568   0.763   6.395   2.410
 7542TIP3    H122569   0.719   6.372   2.328
 7542TIP3    H222570   0.833   6.330   2.418
 7543TIP3   OH222571   3.361   7.111   0.076
 7543TIP3    H122572   3.309   7.156   0.010
 7543TIP3    H222573   3.415   7.179   0.116
 7544TIP3   OH222574   7.483   6.900   5.578
 7544TIP3    H122575   7.446   6.983   5.607
 7544TIP3    H222576   7.458   6.893   5.486
 7545TIP3   OH222577   7.595   3.104   0.028
 7545TIP3    H122578   7.525   3.039   0.016
 7545TIP3    H222579   7.675   3.059   0.003
 7546TIP3   OH222580   5.817   3.676   6.546
 7546TIP3    H122581   5.868   3.754   6.566
 7546TIP3    H222582   5.743   3.709   6.494
 7547TIP3   OH222583   7.219   7.154   6.160
 7547TIP3    H122584   7.226   7.142   6.255
 7547TIP3    H222585   7.211   7.065   6.125
 7548TIP3   OH222586   2.402   7.297   5.749
 7548TIP3    H122587   2.362   7.285   5.663
 7548TIP3    H222588   2.488   7.335   5.730
 7549TIP3   OH222589   1.174   5.086   4.606
 7549TIP3    H122590   1.259   5.054   4.577
 7549TIP3    H222591   1.173   5.069   4.700
 7550TIP3   OH222592   6.533   6.318   2.498
 7550TIP3    H122593   6.616   6.271   2.506
 7550TIP3    H222594   6.469   6.261   2.540
 7551TIP3   OH222595   0.627   2.606   5.068
 7551TIP3    H122596   0.653   2.671   5.133
 7551TIP3    H222597   0.648   2.646   4.984
 7552TIP3   OH222598   1.173   6.512   0.734
 7552TIP3    H122599   1.249   6.466   0.769
 7552TIP3    H222600   1.121   6.534   0.812
 7553TIP3   OH222601   2.491   6.689   5.236
 7553TIP3    H122602   2.462   6.633   5.165
 7553TIP3    H222603   2.565   6.739   5.199
 7554TIP3   OH222604   3.261   0.138   4.785
 7554TIP3    H122605   3.311   0.067   4.825
 7554TIP3    H222606   3.256   0.115   4.692
 7555TIP3   OH222607   5.619   7.043   5.621
 7555TIP3    H122608   5.597   7.117   5.678
 7555TIP3    H222609   5.678   6.990   5.674
 7556TIP3   OH222610   2.006   4.572   0.662
 7556TIP3    H122611   1.920   4.532   0.677
 7556TIP3    H222612   2.065   4.498   0.650
 7557TIP3   OH222613   0.330   6.015   1.103
 7557TIP3    H122614   0.239   5.987   1.093
 7557TIP3    H222615   0.362   5.965   1.179
 7558TIP3   OH222616   3.158   1.579   5.965
 7558TIP3    H122617   3.236   1.569   5.911
 7558TIP3    H222618   3.155   1.672   5.985
 7559TIP3   OH222619   5.657   6.581   2.030
 7559TIP3    H122620   5.631   6.668   2.000
 7559TIP3    H222621   5.734   6.560   1.979
 7560TIP3   OH222622   1.317   2.697   1.684
 7560TIP3    H122623   1.376   2.622   1.695
 7560TIP3    H222624   1.373   2.766   1.648
 7561TIP3   OH222625   4.181   5.180   2.113
 7561TIP3    H122626   4.187   5.093   2.073
 7561TIP3    H222627   4.247   5.180   2.182
 7562TIP3   OH222628   6.996   5.313   2.891
 7562TIP3    H122629   6.976   5.309   2.797
 7562TIP3    H222630   7.070   5.373   2.897
 7563TIP3   OH222631   4.477   5.542   5.577
 7563TIP3    H122632   4.531   5.492   5.516
 7563TIP3    H222633   4.514   5.522   5.663
 7564TIP3   OH222634   1.481   5.967   5.421
 7564TIP3    H122635   1.535   6.022   5.364
 7564TIP3    H222636   1.524   5.881   5.418
 7565TIP3   OH222637   4.921   3.517   3.620
 7565TIP3    H122638   4.986   3.489   3.684
 7565TIP3    H222639   4.839   3.521   3.670
 7566TIP3   OH222640   6.913   6.057   5.267
 7566TIP3    H122641   6.876   6.022   5.347
 7566TIP3    H222642   6.982   6.117   5.297
 7567TIP3   OH222643   5.469   3.290   0.256
 7567TIP3    H122644   5.487   3.288   0.350
 7567TIP3    H222645   5.546   3.251   0.216
 7568TIP3   OH222646   4.599   2.173   1.097
 7568TIP3    H122647   4.570   2.159   1.187
 7568TIP3    H222648   4.693   2.159   1.099
 7569TIP3   OH222649   3.699   0.501   6.152
 7569TIP3    H122650   3.657   0.506   6.238
 7569TIP3    H222651   3.629   0.473   6.093
 7570TIP3   OH222652   3.890   6.017   4.966
 7570TIP3    H122653   3.795   6.013   4.952
 7570TIP3    H222654   3.900   6.047   5.056
 7571TIP3   OH222655   2.136   5.826   4.266
 7571TIP3    H122656   2.156   5.733   4.269
 7571TIP3    H222657   2.162   5.854   4.178
 7572TIP3   OH222658   3.849   4.043   4.771
 7572TIP3    H122659   3.816   4.066   4.684
 7572TIP3    H222660   3.863   3.948   4.767
 7573TIP3   OH222661   0.646   6.300   0.302
 7573TIP3    H122662   0.599   6.217   0.298
 7573TIP3    H222663   0.613   6.350   0.227
 7574TIP3   OH222664   5.382   6.501   6.596
 7574TIP3    H122665   5.322   6.429   6.616
 7574TIP3    H222666   5.351   6.536   6.512
 7575TIP3   OH222667   3.919   2.230   0.026
 7575TIP3    H122668   3.850   2.289  -0.006
 7575TIP3    H222669   3.891   2.205   0.114
 7576TIP3   OH222670   7.192   6.384   0.357
 7576TIP3    H122671   7.116   6.419   0.309
 7576TIP3    H222672   7.160   6.370   0.446
 7577TIP3   OH222673   1.824   6.786   3.377
 7577TIP3    H122674   1.905   6.752   3.414
 7577TIP3    H222675   1.839   6.788   3.283
 7578TIP3   OH222676   3.805   5.014   0.525
 7578TIP3    H122677   3.862   5.025   0.601
 7578TIP3    H222678   3.842   4.940   0.478
 7579TIP3   OH222679   3.158   7.693   4.914
 7579TIP3    H122680   3.075   7.647   4.927
 7579TIP3    H222681   3.155   7.766   4.975
 7580TIP3   OH222682   2.862   2.438   0.889
 7580TIP3    H122683   2.879   2.465   0.799
 7580TIP3    H222684   2.920   2.363   0.904
 7581TIP3   OH222685   2.318   3.003   0.982
 7581TIP3    H122686   2.284   2.918   0.954
 7581TIP3    H222687   2.360   2.985   1.066
 7582TIP3   OH222688   5.757   1.933   0.545
 7582TIP3    H122689   5.830   1.897   0.494
 7582TIP3    H222690   5.798   1.973   0.621
 7583TIP3   OH222691   0.909   0.868   2.615
 7583TIP3    H122692   0.930   0.857   2.708
 7583TIP3    H222693   0.925   0.783   2.576
 7584TIP3   OH222694   4.794   3.606   1.994
 7584TIP3    H122695   4.738   3.545   1.947
 7584TIP3    H222696   4.758   3.609   2.083
 7585TIP3   OH222697   7.889   2.768   0.837
 7585TIP3    H122698   7.838   2.808   0.767
 7585TIP3    H222699   7.824   2.728   0.895
 7586TIP3   OH222700   3.847   7.546   0.153
 7586TIP3    H122701   3.756   7.538   0.181
 7586TIP3    H222702   3.845   7.535   0.058
 7587TIP3   OH222703   1.474   5.527   6.017
 7587TIP3    H122704   1.467   5.502   5.924
 7587TIP3    H222705   1.567   5.520   6.037
 7588TIP3   OH222706   5.607   2.227   1.970
 7588TIP3    H122707   5.606   2.165   2.043
 7588TIP3    H222708   5.527   2.207   1.920
 7589TIP3   OH222709   6.215   0.554   1.220
 7589TIP3    H122710   6.197   0.495   1.147
 7589TIP3    H222711   6.290   0.606   1.191
 7590TIP3   OH222712   4.808   7.766   1.531
 7590TIP3    H122713   4.759   7.737   1.455
 7590TIP3    H222714   4.845   7.850   1.505
 7591TIP3   OH222715   1.503   0.650   6.609
 7591TIP3    H122716   1.445   0.599   6.552
 7591TIP3    H222717   1.462   0.643   6.696
 7592TIP3   OH222718   2.768   4.058   0.663
 7592TIP3    H122719   2.754   4.144   0.702
 7592TIP3    H222720   2.774   3.998   0.738
 7593TIP3   OH222721   1.599   5.580   6.381
 7593TIP3    H122722   1.503   5.574   6.381
 7593TIP3    H222723   1.619   5.639   6.453
 7594TIP3   OH222724   3.561   0.836   5.708
 7594TIP3    H122725   3.584   0.765   5.768
 7594TIP3    H222726   3.475   0.812   5.674
 7595TIP3   OH222727   4.409   7.346   2.453
 7595TIP3    H122728   4.333   7.393   2.419
 7595TIP3    H222729   4.446   7.405   2.519
 7596TIP3   OH222730   4.935   7.586   6.470
 7596TIP3    H122731   4.985   7.626   6.399
 7596TIP3    H222732   4.906   7.660   6.523
 7597TIP3   OH222733   1.550   3.099   1.231
 7597TIP3    H122734   1.504   3.149   1.164
 7597TIP3    H222735   1.531   3.145   1.313
 7598TIP3   OH222736   6.708   0.404   0.486
 7598TIP3    H122737   6.791   0.363   0.510
 7598TIP3    H222738   6.668   0.426   0.570
 7599TIP3   OH222739   2.080   2.300   5.608
 7599TIP3    H122740   2.125   2.304   5.692
 7599TIP3    H222741   2.000   2.251   5.626
 7600TIP3   OH222742   7.350   7.018   0.978
 7600TIP3    H122743   7.266   7.048   1.012
 7600TIP3    H222744   7.372   6.942   1.031
 7601TIP3   OH222745   2.318   0.346   1.478
 7601TIP3    H122746   2.266   0.266   1.477
 7601TIP3    H222747   2.309   0.379   1.568
 7602TIP3   OH222748   6.274   3.546   2.666
 7602TIP3    H122749   6.216   3.621   2.680
 7602TIP3    H222750   6.281   3.539   2.571
 7603TIP3   OH222751   2.970   4.093   2.141
 7603TIP3    H122752   2.954   4.179   2.180
 7603TIP3    H222753   3.021   4.111   2.062
 7604TIP3   OH222754   4.787   0.271   2.711
 7604TIP3    H122755   4.769   0.364   2.698
 7604TIP3    H222756   4.793   0.260   2.806
 7605TIP3   OH222757   7.459   1.051   1.117
 7605TIP3    H122758   7.471   1.070   1.210
 7605TIP3    H222759   7.539   1.005   1.092
 7606TIP3   OH222760   6.315   1.684   3.015
 7606TIP3    H122761   6.266   1.623   3.070
 7606TIP3    H222762   6.351   1.748   3.077
 7607TIP3   OH222763   3.263   2.450   4.400
 7607TIP3    H122764   3.238   2.521   4.341
 7607TIP3    H222765   3.195   2.383   4.388
 7608TIP3   OH222766   3.812   4.563   3.576
 7608TIP3    H122767   3.890   4.618   3.567
 7608TIP3    H222768   3.748   4.618   3.621
 7609TIP3   OH222769   6.846   0.568   0.918
 7609TIP3    H122770   6.811   0.618   0.845
 7609TIP3    H222771   6.879   0.487   0.878
 7610TIP3   OH222772   5.726   0.187   5.750
 7610TIP3    H122773   5.640   0.157   5.781
 7610TIP3    H222774   5.721   0.179   5.655
 7611TIP3   OH222775   7.694   7.730   6.034
 7611TIP3    H122776   7.691   7.741   6.129
 7611TIP3    H222777   7.765   7.788   6.005
 7612TIP3   OH222778   4.784   3.512   6.622
 7612TIP3    H122779   4.749   3.530   6.535
 7612TIP3    H222780   4.716   3.460   6.665
 7613TIP3   OH222781   4.118   0.325   5.840
 7613TIP3    H122782   4.179   0.252   5.850
 7613TIP3    H222783   4.032   0.283   5.832
 7614TIP3   OH222784   5.065   4.995   5.137
 7614TIP3    H122785   5.103   4.917   5.097
 7614TIP3    H222786   5.094   5.068   5.081
 7615TIP3   OH222787   7.937   6.312   6.010
 7615TIP3    H122788   8.001   6.293   5.942
 7615TIP3    H222789   7.980   6.374   6.068
 7616TIP3   OH222790   7.437   2.251   1.381
 7616TIP3    H122791   7.490   2.286   1.310
 7616TIP3    H222792   7.351   2.237   1.342
 7617TIP3   OH222793   5.235   3.651   4.902
 7617TIP3    H122794   5.160   3.594   4.918
 7617TIP3    H222795   5.275   3.615   4.822
 7618TIP3   OH222796   4.782   5.750   4.878
 7618TIP3    H122797   4.751   5.790   4.959
 7618TIP3    H222798   4.865   5.709   4.901
 7619TIP3   OH222799   0.309   1.939   5.292
 7619TIP3    H122800   0.373   2.001   5.256
 7619TIP3    H222801   0.362   1.877   5.343
 7620TIP3   OH222802   2.477   7.417   6.056
 7620TIP3    H122803   2.390   7.395   6.091
 7620TIP3    H222804   2.504   7.338   6.009
 7621TIP3   OH222805   0.898   1.383   4.398
 7621TIP3    H122806   0.971   1.337   4.440
 7621TIP3    H222807   0.911   1.368   4.305
 7622TIP3   OH222808   7.256   3.999   4.407
 7622TIP3    H122809   7.323   4.063   4.432
 7622TIP3    H222810   7.269   3.986   4.313
 7623TIP3   OH222811   7.926   7.686   2.626
 7623TIP3    H122812   8.007   7.733   2.646
 7623TIP3    H222813   7.895   7.654   2.710
 7624TIP3   OH222814   7.658   4.201   3.845
 7624TIP3    H122815   7.570   4.232   3.822
 7624TIP3    H222816   7.714   4.278   3.834
 7625TIP3   OH222817   0.766   2.100   0.956
 7625TIP3    H122818   0.676   2.069   0.944
 7625TIP3    H222819   0.783   2.154   0.880
 7626TIP3   OH222820   5.876   4.068   3.849
 7626TIP3    H122821   5.846   4.149   3.890
 7626TIP3    H222822   5.814   4.053   3.777
 7627TIP3   OH222823   6.484   1.296   2.648
 7627TIP3    H122824   6.461   1.215   2.604
 7627TIP3    H222825   6.579   1.302   2.637
 7628TIP3   OH222826   5.236   6.566   5.181
 7628TIP3    H122827   5.251   6.484   5.227
 7628TIP3    H222828   5.156   6.551   5.130
 7629TIP3   OH222829   3.836   1.294   5.309
 7629TIP3    H122830   3.914   1.240   5.295
 7629TIP3    H222831   3.863   1.382   5.281
 7630TIP3   OH222832   1.518   2.263   6.584
 7630TIP3    H122833   1.482   2.291   6.668
 7630TIP3    H222834   1.588   2.202   6.607
 7631TIP3   OH222835   3.591   7.497   5.408
 7631TIP3    H122836   3.576   7.430   5.341
 7631TIP3    H222837   3.516   7.490   5.467
 7632TIP3   OH222838   3.376   6.370   0.809
 7632TIP3    H122839   3.290   6.345   0.843
 7632TIP3    H222840   3.377   6.338   0.719
 7633TIP3   OH222841   0.960   2.544   2.132
 7633TIP3    H122842   0.979   2.472   2.191
 7633TIP3    H222843   0.915   2.609   2.186
 7634TIP3   OH222844   2.938   5.741   0.348
 7634TIP3    H122845   2.857   5.694   0.369
 7634TIP3    H222846   3.007   5.691   0.392
 7635TIP3   OH222847   0.279   2.110   6.215
 7635TIP3    H122848   0.374   2.119   6.221
 7635TIP3    H222849   0.245   2.199   6.219
 7636TIP3   OH222850   8.009   3.539   3.709
 7636TIP3    H122851   8.051   3.526   3.624
 7636TIP3    H222852   7.976   3.628   3.706
 7637TIP3   OH222853   1.532   7.123   4.186
 7637TIP3    H122854   1.518   7.133   4.092
 7637TIP3    H222855   1.451   7.083   4.219
 7638TIP3   OH222856   2.103   1.073   1.916
 7638TIP3    H122857   2.075   1.053   1.826
 7638TIP3    H222858   2.135   0.989   1.950
 7639TIP3   OH222859   6.829   0.726   6.286
 7639TIP3    H122860   6.918   0.760   6.295
 7639TIP3    H222861   6.776   0.782   6.342
 7640TIP3   OH222862   4.595   3.955   3.732
 7640TIP3    H122863   4.636   4.038   3.758
 7640TIP3    H222864   4.547   3.976   3.652
 7641TIP3   OH222865   6.121   7.305   5.320
 7641TIP3    H122866   6.089   7.394   5.333
 7641TIP3    H222867   6.071   7.272   5.245
 7642TIP3   OH222868   4.577   0.807   2.647
 7642TIP3    H122869   4.489   0.792   2.612
 7642TIP3    H222870   4.633   0.814   2.571
 7643TIP3   OH222871   8.325   5.636   0.906
 7643TIP3    H122872   8.307   5.598   0.992
 7643TIP3    H222873   8.271   5.715   0.903
 7644TIP3   OH222874   1.370   2.955   6.484
 7644TIP3    H122875   1.311   2.891   6.443
 7644TIP3    H222876   1.456   2.931   6.451
 7645TIP3   OH222877   7.301   4.207   0.725
 7645TIP3    H122878   7.281   4.287   0.774
 7645TIP3    H222879   7.365   4.235   0.660
 7646TIP3   OH222880   2.724   4.036   3.386
 7646TIP3    H122881   2.772   3.957   3.362
 7646TIP3    H222882   2.778   4.108   3.352
 7647TIP3   OH222883   6.783   0.421   1.736
 7647TIP3    H122884   6.737   0.413   1.653
 7647TIP3    H222885   6.768   0.338   1.781
 7648TIP3   OH222886   3.583   0.902   3.188
 7648TIP3    H122887   3.520   0.863   3.249
 7648TIP3    H222888   3.668   0.867   3.215
 7649TIP3   OH222889   7.083   0.108   5.962
 7649TIP3    H122890   7.131   0.124   5.881
 7649TIP3    H222891   7.105   0.183   6.017
 7650TIP3   OH222892   5.568   0.384   4.058
 7650TIP3    H122893   5.569   0.445   4.132
 7650TIP3    H222894   5.660   0.373   4.034
 7651TIP3   OH222895   0.529   7.419   4.910
 7651TIP3    H122896   0.562   7.379   4.990
 7651TIP3    H222897   0.592   7.488   4.888
 7652TIP3   OH222898   3.416   7.189   1.872
 7652TIP3    H122899   3.324   7.213   1.865
 7652TIP3    H222900   3.447   7.189   1.781
 7653TIP3   OH222901   0.830   4.963   3.994
 7653TIP3    H122902   0.849   4.959   3.900
 7653TIP3    H222903   0.777   4.886   4.011
 7654TIP3   OH222904   8.146   4.616   6.068
 7654TIP3    H122905   8.218   4.553   6.067
 7654TIP3    H222906   8.070   4.564   6.092
 7655TIP3   OH222907   1.869   2.884   0.973
 7655TIP3    H122908   1.797   2.821   0.973
 7655TIP3    H222909   1.889   2.897   0.880
 7656TIP3   OH222910   7.197   3.316   5.691
 7656TIP3    H122911   7.161   3.393   5.735
 7656TIP3    H222912   7.172   3.243   5.748
 7657TIP3   OH222913   1.275   1.469   5.143
 7657TIP3    H122914   1.283   1.401   5.210
 7657TIP3    H222915   1.210   1.530   5.179
 7658TIP3   OH222916   7.037   2.232   4.228
 7658TIP3    H122917   6.970   2.164   4.232
 7658TIP3    H222918   7.039   2.260   4.137
 7659TIP3   OH222919   6.453   5.885   0.155
 7659TIP3    H122920   6.451   5.823   0.229
 7659TIP3    H222921   6.505   5.841   0.088
 7660TIP3   OH222922   4.359   4.511   5.504
 7660TIP3    H122923   4.392   4.573   5.570
 7660TIP3    H222924   4.423   4.439   5.506
 7661TIP3   OH222925   7.998   0.781   6.351
 7661TIP3    H122926   8.030   0.795   6.262
 7661TIP3    H222927   8.020   0.690   6.371
 7662TIP3   OH222928   8.133   3.718   3.031
 7662TIP3    H122929   8.108   3.675   3.113
 7662TIP3    H222930   8.120   3.651   2.964
 7663TIP3   OH222931   2.120   5.969   1.556
 7663TIP3    H122932   2.030   5.982   1.526
 7663TIP3    H222933   2.136   6.040   1.618
 7664TIP3   OH222934   3.671   2.828   4.977
 7664TIP3    H122935   3.760   2.796   4.965
 7664TIP3    H222936   3.636   2.774   5.048
 7665TIP3   OH222937   0.443   0.702   6.077
 7665TIP3    H122938   0.474   0.721   5.988
 7665TIP3    H222939   0.487   0.620   6.101
 7666TIP3   OH222940   0.229   3.529   4.630
 7666TIP3    H122941   0.137   3.515   4.607
 7666TIP3    H222942   0.251   3.614   4.593
 7667TIP3   OH222943   1.889   7.333   3.048
 7667TIP3    H122944   1.934   7.327   3.132
 7667TIP3    H222945   1.810   7.281   3.060
 7668TIP3   OH222946   1.996   3.208   1.442
 7668TIP3    H122947   1.905   3.193   1.414
 7668TIP3    H222948   2.047   3.142   1.395
 7669TIP3   OH222949   7.169   0.438   1.423
 7669TIP3    H122950   7.078   0.452   1.394
 7669TIP3    H222951   7.221   0.493   1.365
 7670TIP3   OH222952   6.318   5.862   2.694
 7670TIP3    H122953   6.357   5.807   2.762
 7670TIP3    H222954   6.363   5.834   2.614
 7671TIP3   OH222955   8.095   6.991   2.736
 7671TIP3    H122956   8.065   7.054   2.670
 7671TIP3    H222957   8.173   7.032   2.774
 7672TIP3   OH222958   3.221   7.452   2.581
 7672TIP3    H122959   3.137   7.494   2.561
 7672TIP3    H222960   3.287   7.512   2.547
 7673TIP3   OH222961   4.448   1.520   4.699
 7673TIP3    H122962   4.541   1.539   4.694
 7673TIP3    H222963   4.443   1.439   4.751
 7674TIP3   OH222964   7.772   4.597   1.356
 7674TIP3    H122965   7.799   4.685   1.330
 7674TIP3    H222966   7.677   4.603   1.368
 7675TIP3   OH222967   7.212   3.164   5.203
 7675TIP3    H122968   7.235   3.202   5.288
 7675TIP3    H222969   7.179   3.076   5.224
 7676TIP3   OH222970   1.266   1.169   1.218
 7676TIP3    H122971   1.259   1.184   1.312
 7676TIP3    H222972   1.268   1.257   1.179
 7677TIP3   OH222973   4.223   6.353   1.840
 7677TIP3    H122974   4.270   6.420   1.790
 7677TIP3    H222975   4.213   6.392   1.927
 7678TIP3   OH222976   7.938   3.734   4.707
 7678TIP3    H122977   7.981   3.738   4.793
 7678TIP3    H222978   7.845   3.749   4.726
 7679TIP3   OH222979   3.469   2.932   6.602
 7679TIP3    H122980   3.450   3.020   6.635
 7679TIP3    H222981   3.540   2.945   6.540
 7680TIP3   OH222982   0.417   5.887   3.447
 7680TIP3    H122983   0.434   5.831   3.371
 7680TIP3    H222984   0.433   5.830   3.522
 7681TIP3   OH222985   7.771   4.775   6.711
 7681TIP3    H122986   7.840   4.795   6.647
 7681TIP3    H222987   7.689   4.787   6.663
 7682TIP3   OH222988   0.167   4.462   4.215
 7682TIP3    H122989   0.117   4.407   4.276
 7682TIP3    H222990   0.189   4.540   4.265
 7683TIP3   OH222991   2.184   1.080   3.099
 7683TIP3    H122992   2.155   1.147   3.161
 7683TIP3    H222993   2.234   1.018   3.151
 7684TIP3   OH222994   2.838   5.080   6.370
 7684TIP3    H122995   2.872   5.151   6.316
 7684TIP3    H222996   2.916   5.040   6.409
 7685TIP3   OH222997   4.638   4.288   2.076
 7685TIP3    H122998   4.726   4.261   2.048
 7685TIP3    H222999   4.583   4.212   2.058
 7686TIP3   OH223000   2.913   3.688   1.391
 7686TIP3    H123001   2.895   3.734   1.309
 7686TIP3    H223002   3.009   3.693   1.401
 7687TIP3   OH223003   5.372   7.618   5.024
 7687TIP3    H123004   5.376   7.675   5.100
 7687TIP3    H223005   5.325   7.540   5.055
 7688TIP3   OH223006   2.387   4.890   2.840
 7688TIP3    H123007   2.401   4.832   2.765
 7688TIP3    H223008   2.294   4.879   2.861
 7689TIP3   OH223009   7.847   3.744   0.594
 7689TIP3    H123010   7.922   3.712   0.644
 7689TIP3    H223011   7.877   3.827   0.557
 7690TIP3   OH223012   3.132   6.679   4.063
 7690TIP3    H123013   3.141   6.593   4.020
 7690TIP3    H223014   3.173   6.667   4.148
 7691TIP3   OH223015   7.144   3.890   5.717
 7691TIP3    H123016   7.233   3.918   5.697
 7691TIP3    H223017   7.134   3.906   5.811
 7692TIP3   OH223018   3.313   6.762   5.620
 7692TIP3    H123019   3.250   6.773   5.548
 7692TIP3    H223020   3.369   6.840   5.614
 7693TIP3   OH223021   2.298   2.457   1.661
 7693TIP3    H123022   2.229   2.472   1.725
 7693TIP3    H223023   2.269   2.503   1.582
 7694TIP3   OH223024   4.661   5.134   2.301
 7694TIP3    H123025   4.747   5.121   2.261
 7694TIP3    H223026   4.668   5.094   2.388
 7695TIP3   OH223027   4.778   7.446   6.141
 7695TIP3    H123028   4.761   7.434   6.235
 7695TIP3    H223029   4.774   7.540   6.128
 7696TIP3   OH223030   7.818   7.583   1.826
 7696TIP3    H123031   7.824   7.538   1.910
 7696TIP3    H223032   7.906   7.580   1.789
 7697TIP3   OH223033   1.628   6.635   1.014
 7697TIP3    H123034   1.605   6.643   0.922
 7697TIP3    H223035   1.559   6.580   1.051
 7698TIP3   OH223036   4.466   7.313   4.099
 7698TIP3    H123037   4.453   7.218   4.099
 7698TIP3    H223038   4.436   7.342   4.013
 7699TIP3   OH223039   7.997   6.218   5.671
 7699TIP3    H123040   7.997   6.123   5.672
 7699TIP3    H223041   7.972   6.242   5.581
 7700TIP3   OH223042   0.213   1.451   2.630
 7700TIP3    H123043   0.219   1.476   2.538
 7700TIP3    H223044   0.277   1.506   2.675
 7701TIP3   OH223045   6.779   6.663   6.557
 7701TIP3    H123046   6.828   6.598   6.507
 7701TIP3    H223047   6.814   6.657   6.646
 7702TIP3   OH223048   2.433   5.530   4.098
 7702TIP3    H123049   2.424   5.616   4.058
 7702TIP3    H223050   2.373   5.473   4.049
 7703TIP3   OH223051   0.372   3.024   0.700
 7703TIP3    H123052   0.419   3.042   0.782
 7703TIP3    H223053   0.282   3.005   0.728
 7704TIP3   OH223054   7.959   6.538   6.211
 7704TIP3    H123055   7.973   6.613   6.269
 7704TIP3    H223056   7.903   6.573   6.141
 7705TIP3   OH223057   0.038   1.213   4.163
 7705TIP3    H123058   0.041   1.120   4.185
 7705TIP3    H223059  -0.039   1.222   4.107
 7706TIP3   OH223060   0.306   4.994   2.553
 7706TIP3    H123061   0.221   4.954   2.574
 7706TIP3    H223062   0.329   4.957   2.468
 7707TIP3   OH223063   2.940   6.056   0.919
 7707TIP3    H123064   2.947   5.963   0.943
 7707TIP3    H223065   2.859   6.085   0.962
 7708TIP3   OH223066   0.450   4.089   1.996
 7708TIP3    H123067   0.379   4.043   2.041
 7708TIP3    H223068   0.521   4.025   1.991
 7709TIP3   OH223069   4.214   6.694   4.111
 7709TIP3    H123070   4.173   6.754   4.174
 7709TIP3    H223071   4.279   6.646   4.162
 7710TIP3   OH223072   4.861   2.385   6.756
 7710TIP3    H123073   4.819   2.456   6.706
 7710TIP3    H223074   4.887   2.322   6.689
 7711TIP3   OH223075   7.277   6.498   3.842
 7711TIP3    H123076   7.193   6.458   3.819
 7711TIP3    H223077   7.334   6.424   3.861
 7712TIP3   OH223078   3.788   6.234   1.930
 7712TIP3    H123079   3.719   6.175   1.900
 7712TIP3    H223080   3.741   6.307   1.970
 7713TIP3   OH223081   4.445   7.006   4.138
 7713TIP3    H123082   4.537   6.982   4.148
 7713TIP3    H223083   4.400   6.960   4.209
 7714TIP3   OH223084   5.336   7.607   1.864
 7714TIP3    H123085   5.297   7.689   1.834
 7714TIP3    H223086   5.290   7.539   1.817
 7715TIP3   OH223087   7.272   4.331   5.198
 7715TIP3    H123088   7.249   4.423   5.189
 7715TIP3    H223089   7.194   4.291   5.238
 7716TIP3   OH223090   1.735   7.706   4.425
 7716TIP3    H123091   1.733   7.621   4.469
 7716TIP3    H223092   1.672   7.760   4.472
 7717TIP3   OH223093   7.423   1.604   4.623
 7717TIP3    H123094   7.361   1.613   4.695
 7717TIP3    H223095   7.414   1.513   4.595
 7718TIP3   OH223096   4.067   0.476   5.586
 7718TIP3    H123097   4.077   0.424   5.506
 7718TIP3    H223098   4.118   0.429   5.652
 7719TIP3   OH223099   7.292   1.125   0.803
 7719TIP3    H123100   7.360   1.187   0.830
 7719TIP3    H223101   7.270   1.151   0.713
 7720TIP3   OH223102   3.565   7.757   5.299
 7720TIP3    H123103   3.574   7.664   5.323
 7720TIP3    H223104   3.651   7.795   5.320
 7721TIP3   OH223105   0.201   7.065   0.494
 7721TIP3    H123106   0.265   7.006   0.534
 7721TIP3    H223107   0.193   7.034   0.404
 7722TIP3   OH223108   1.373   0.595   1.956
 7722TIP3    H123109   1.369   0.510   1.912
 7722TIP3    H223110   1.313   0.587   2.030
 7723TIP3   OH223111   1.542   3.894   1.696
 7723TIP3    H123112   1.626   3.860   1.727
 7723TIP3    H223113   1.482   3.819   1.700
 7724TIP3   OH223114   2.689   3.941   4.346
 7724TIP3    H123115   2.706   3.949   4.440
 7724TIP3    H223116   2.666   3.849   4.333
 7725TIP3   OH223117   0.233   6.679   2.072
 7725TIP3    H123118   0.272   6.642   2.151
 7725TIP3    H223119   0.171   6.745   2.104
 7726TIP3   OH223120   0.654   3.525   5.722
 7726TIP3    H123121   0.612   3.600   5.764
 7726TIP3    H223122   0.691   3.474   5.794
 7727TIP3   OH223123   5.783   1.851   5.290
 7727TIP3    H123124   5.747   1.802   5.364
 7727TIP3    H223125   5.743   1.811   5.213
 7728TIP3   OH223126   5.458   6.956   2.337
 7728TIP3    H123127   5.417   6.896   2.399
 7728TIP3    H223128   5.452   6.911   2.253
 7729TIP3   OH223129   5.565   3.737   6.783
 7729TIP3    H123130   5.474   3.710   6.791
 7729TIP3    H223131   5.582   3.735   6.689
 7730TIP3   OH223132   0.126   1.298   0.247
 7730TIP3    H123133   0.166   1.349   0.177
 7730TIP3    H223134   0.147   1.347   0.327
 7731TIP3   OH223135   1.230   4.540   3.559
 7731TIP3    H123136   1.199   4.484   3.489
 7731TIP3    H223137   1.163   4.533   3.627
 7732TIP3   OH223138   1.040   3.882   2.830
 7732TIP3    H123139   0.967   3.938   2.856
 7732TIP3    H223140   1.023   3.799   2.872
 7733TIP3   OH223141   2.790   1.986   4.198
 7733TIP3    H123142   2.749   1.942   4.123
 7733TIP3    H223143   2.867   2.030   4.160
 7734TIP3   OH223144   7.583   3.793   4.030
 7734TIP3    H123145   7.557   3.705   4.058
 7734TIP3    H223146   7.678   3.795   4.043
 7735TIP3   OH223147   2.783   4.720   6.440
 7735TIP3    H123148   2.786   4.674   6.524
 7735TIP3    H223149   2.697   4.697   6.404
 7736TIP3   OH223150   4.443   7.618   2.488
 7736TIP3    H123151   4.487   7.700   2.508
 7736TIP3    H223152   4.478   7.591   2.404
 7737TIP3   OH223153   0.678   6.379   0.696
 7737TIP3    H123154   0.607   6.404   0.636
 7737TIP3    H223155   0.681   6.450   0.760
 7738TIP3   OH223156   7.157   6.015   4.520
 7738TIP3    H123157   7.085   5.979   4.573
 7738TIP3    H223158   7.145   5.975   4.434
 7739TIP3   OH223159   5.764   7.308   5.522
 7739TIP3    H123160   5.713   7.233   5.552
 7739TIP3    H223161   5.700   7.368   5.484
 7740TIP3   OH223162   1.711   3.876   0.736
 7740TIP3    H123163   1.687   3.803   0.679
 7740TIP3    H223164   1.673   3.953   0.693
 7741TIP3   OH223165   4.178   4.095   4.107
 7741TIP3    H123166   4.211   4.168   4.158
 7741TIP3    H223167   4.255   4.062   4.060
 7742TIP3   OH223168   0.693   3.509   2.032
 7742TIP3    H123169   0.776   3.461   2.033
 7742TIP3    H223170   0.647   3.475   1.956
 7743TIP3   OH223171   7.350   0.016   4.114
 7743TIP3    H123172   7.302  -0.066   4.115
 7743TIP3    H223173   7.292   0.078   4.070
 7744TIP3   OH223174   7.245   1.884   6.092
 7744TIP3    H123175   7.170   1.845   6.136
 7744TIP3    H223176   7.220   1.975   6.077
 7745TIP3   OH223177   5.647   0.057   1.689
 7745TIP3    H123178   5.741   0.039   1.697
 7745TIP3    H223179   5.613   0.045   1.778
 7746TIP3   OH223180   1.837   6.056   3.037
 7746TIP3    H123181   1.885   6.119   3.091
 7746TIP3    H223182   1.745   6.069   3.061
 7747TIP3   OH223183   1.206   6.578   3.456
 7747TIP3    H123184   1.182   6.537   3.539
 7747TIP3    H223185   1.212   6.671   3.476
 7748TIP3   OH223186   3.218   1.143   6.311
 7748TIP3    H123187   3.230   1.231   6.275
 7748TIP3    H223188   3.265   1.085   6.250
 7749TIP3   OH223189   2.666   6.383   2.192
 7749TIP3    H123190   2.648   6.390   2.098
 7749TIP3    H223191   2.658   6.289   2.211
 7750TIP3   OH223192   1.025   7.638   6.406
 7750TIP3    H123193   0.949   7.690   6.431
 7750TIP3    H223194   0.993   7.580   6.337
 7751TIP3   OH223195   2.919   7.274   2.758
 7751TIP3    H123196   2.935   7.360   2.721
 7751TIP3    H223197   2.848   7.238   2.704
 7752TIP3   OH223198   4.329   5.524   0.544
 7752TIP3    H123199   4.239   5.533   0.512
 7752TIP3    H223200   4.336   5.589   0.614
 7753TIP3   OH223201   6.828   4.126   3.025
 7753TIP3    H123202   6.889   4.054   3.009
 7753TIP3    H223203   6.745   4.096   2.987
 7754TIP3   OH223204   3.392   2.384   4.714
 7754TIP3    H123205   3.457   2.316   4.731
 7754TIP3    H223206   3.444   2.464   4.704
 7755TIP3   OH223207   4.361   6.045   3.644
 7755TIP3    H123208   4.293   6.104   3.611
 7755TIP3    H223209   4.378   6.075   3.733
 7756TIP3   OH223210   3.000   6.653   2.517
 7756TIP3    H123211   3.004   6.710   2.440
 7756TIP3    H223212   3.040   6.571   2.489
 7757TIP3   OH223213   5.097   1.427   3.615
 7757TIP3    H123214   5.066   1.401   3.701
 7757TIP3    H223215   5.189   1.449   3.628
 7758TIP3   OH223216   3.467   1.218   2.098
 7758TIP3    H123217   3.506   1.280   2.036
 7758TIP3    H223218   3.485   1.256   2.184
 7759TIP3   OH223219   3.718   5.977   0.863
 7759TIP3    H123220   3.799   6.026   0.877
 7759TIP3    H223221   3.651   6.044   0.853
 7760TIP3   OH223222   5.948   6.798   2.339
 7760TIP3    H123223   5.864   6.753   2.340
 7760TIP3    H223224   5.928   6.887   2.368
 7761TIP3   OH223225   5.561   5.637   6.175
 7761TIP3    H123226   5.518   5.689   6.243
 7761TIP3    H223227   5.549   5.546   6.202
 7762TIP3   OH223228   4.955   6.292   4.870
 7762TIP3    H123229   4.958   6.223   4.936
 7762TIP3    H223230   5.046   6.300   4.841
 7763TIP3   OH223231   3.426   1.483   3.524
 7763TIP3    H123232   3.487   1.552   3.499
 7763TIP3    H223233   3.440   1.414   3.459
 7764TIP3   OH223234   1.217   2.268   6.595
 7764TIP3    H123235   1.269   2.201   6.552
 7764TIP3    H223236   1.249   2.351   6.558
 7765TIP3   OH223237   6.428   7.392   5.794
 7765TIP3    H123238   6.361   7.458   5.811
 7765TIP3    H223239   6.420   7.372   5.701
 7766TIP3   OH223240   7.640   3.736   2.795
 7766TIP3    H123241   7.594   3.787   2.860
 7766TIP3    H223242   7.673   3.660   2.843
 7767TIP3   OH223243   5.252   5.262   4.606
 7767TIP3    H123244   5.302   5.210   4.542
 7767TIP3    H223245   5.239   5.346   4.563
 7768TIP3   OH223246   7.831   4.166   0.644
 7768TIP3    H123247   7.921   4.195   0.653
 7768TIP3    H223248   7.823   4.141   0.552
 7769TIP3   OH223249   2.993   2.771   2.987
 7769TIP3    H123250   3.019   2.746   2.898
 7769TIP3    H223251   2.988   2.867   2.984
 7770TIP3   OH223252   7.400   3.724   6.062
 7770TIP3    H123253   7.454   3.670   6.120
 7770TIP3    H223254   7.326   3.751   6.117
 7771TIP3   OH223255   7.885   0.191   4.233
 7771TIP3    H123256   7.862   0.284   4.238
 7771TIP3    H223257   7.803   0.147   4.211
 7772TIP3   OH223258   1.801   4.195   2.413
 7772TIP3    H123259   1.749   4.210   2.335
 7772TIP3    H223260   1.823   4.102   2.410
 7773TIP3   OH223261   7.629   1.784   5.721
 7773TIP3    H123262   7.691   1.717   5.693
 7773TIP3    H223263   7.543   1.743   5.713
 7774TIP3   OH223264   2.484   4.944   4.210
 7774TIP3    H123265   2.412   4.887   4.183
 7774TIP3    H223266   2.553   4.883   4.237
 7775TIP3   OH223267   4.686   1.655   2.438
 7775TIP3    H123268   4.681   1.713   2.362
 7775TIP3    H223269   4.740   1.581   2.408
 7776TIP3   OH223270   2.587   6.865   5.058
 7776TIP3    H123271   2.570   6.955   5.028
 7776TIP3    H223272   2.604   6.816   4.978
 7777TIP3   OH223273   5.520   2.949   4.236
 7777TIP3    H123274   5.522   3.000   4.156
 7777TIP3    H223275   5.438   2.974   4.279
 7778TIP3   OH223276   7.218   5.684   4.240
 7778TIP3    H123277   7.308   5.699   4.270
 7778TIP3    H223278   7.185   5.772   4.220
 7779TIP3   OH223279   5.064   2.082   2.143
 7779TIP3    H123280   5.062   2.003   2.090
 7779TIP3    H223281   4.984   2.079   2.195
 7780TIP3   OH223282   2.055   2.811   2.946
 7780TIP3    H123283   2.135   2.776   2.909
 7780TIP3    H223284   2.038   2.757   3.023
 7781TIP3   OH223285   2.343   5.076   2.501
 7781TIP3    H123286   2.278   5.010   2.478
 7781TIP3    H223287   2.299   5.132   2.565
 7782TIP3   OH223288   7.887   5.967   3.038
 7782TIP3    H123289   7.872   6.028   3.109
 7782TIP3    H223290   7.982   5.957   3.034
 7783TIP3   OH223291   6.989   0.962   1.529
 7783TIP3    H123292   7.073   0.989   1.491
 7783TIP3    H223293   6.993   0.867   1.529
 7784TIP3   OH223294   0.397   1.291   6.550
 7784TIP3    H123295   0.367   1.226   6.486
 7784TIP3    H223296   0.416   1.369   6.498
 7785TIP3   OH223297   6.350   1.957   2.417
 7785TIP3    H123298   6.295   2.011   2.474
 7785TIP3    H223299   6.416   2.017   2.384
 7786TIP3   OH223300   4.470   2.875   3.558
 7786TIP3    H123301   4.395   2.907   3.507
 7786TIP3    H223302   4.442   2.788   3.588
 7787TIP3   OH223303   0.107   1.571   1.715
 7787TIP3    H123304   0.097   1.648   1.659
 7787TIP3    H223305   0.124   1.499   1.655
 7788TIP3   OH223306   4.478   2.060   1.992
 7788TIP3    H123307   4.404   2.010   2.026
 7788TIP3    H223308   4.442   2.111   1.920
 7789TIP3   OH223309   4.471   1.004   5.705
 7789TIP3    H123310   4.435   0.955   5.780
 7789TIP3    H223311   4.566   0.988   5.710
 7790TIP3   OH223312   1.956   3.783   2.916
 7790TIP3    H123313   1.995   3.798   2.830
 7790TIP3    H223314   1.949   3.870   2.955
 7791TIP3   OH223315   6.422   5.763   2.923
 7791TIP3    H123316   6.501   5.817   2.928
 7791TIP3    H223317   6.455   5.673   2.924
 7792TIP3   OH223318   2.630   2.871   3.232
 7792TIP3    H123319   2.645   2.956   3.273
 7792TIP3    H223320   2.550   2.883   3.181
 7793TIP3   OH223321   5.443   1.461   0.169
 7793TIP3    H123322   5.435   1.553   0.194
 7793TIP3    H223323   5.507   1.425   0.231
 7794TIP3   OH223324   5.951   5.356   1.584
 7794TIP3    H123325   5.890   5.283   1.600
 7794TIP3    H223326   6.012   5.352   1.657
 7795TIP3   OH223327   3.040   6.223   0.301
 7795TIP3    H123328   3.092   6.241   0.379
 7795TIP3    H223329   3.074   6.139   0.268
 7796TIP3   OH223330   0.259   7.245   6.279
 7796TIP3    H123331   0.334   7.279   6.230
 7796TIP3    H223332   0.271   7.150   6.278
 7797TIP3   OH223333   5.022   2.640   2.451
 7797TIP3    H123334   5.054   2.721   2.412
 7797TIP3    H223335   5.095   2.608   2.504
 7798TIP3   OH223336   8.187   6.542   1.935
 7798TIP3    H123337   8.197   6.538   2.030
 7798TIP3    H223338   8.178   6.636   1.915
 7799TIP3   OH223339   1.797   1.727   5.249
 7799TIP3    H123340   1.809   1.639   5.286
 7799TIP3    H223341   1.702   1.733   5.236
 7800TIP3   OH223342   8.210   6.938   0.406
 7800TIP3    H123343   8.264   6.988   0.345
 7800TIP3    H223344   8.237   6.968   0.493
 7801TIP3   OH223345   4.810   6.377   2.890
 7801TIP3    H123346   4.726   6.331   2.896
 7801TIP3    H223347   4.799   6.438   2.818
 7802TIP3   OH223348   3.234   6.315   2.892
 7802TIP3    H123349   3.219   6.224   2.917
 7802TIP3    H223350   3.164   6.335   2.830
 7803TIP3   OH223351   0.984   6.666   2.512
 7803TIP3    H123352   1.030   6.749   2.498
 7803TIP3    H223353   0.945   6.645   2.428
 7804TIP3   OH223354   1.430   5.002   4.939
 7804TIP3    H123355   1.370   4.933   4.968
 7804TIP3    H223356   1.503   4.998   5.000
 7805TIP3   OH223357   3.129   2.154   6.471
 7805TIP3    H123358   3.174   2.074   6.498
 7805TIP3    H223359   3.180   2.225   6.511
 7806TIP3   OH223360   6.957   3.690   1.172
 7806TIP3    H123361   6.964   3.607   1.219
 7806TIP3    H223362   7.003   3.753   1.227
 7807TIP3   OH223363   2.942   5.537   5.438
 7807TIP3    H123364   2.902   5.467   5.490
 7807TIP3    H223365   2.870   5.574   5.387
 7808TIP3   OH223366   5.252   5.305   2.296
 7808TIP3    H123367   5.319   5.373   2.297
 7808TIP3    H223368   5.286   5.238   2.236
 7809TIP3   OH223369   3.948   5.290   6.093
 7809TIP3    H123370   4.037   5.260   6.071
 7809TIP3    H223371   3.911   5.218   6.145
 7810TIP3   OH223372   1.068   2.706   0.407
 7810TIP3    H123373   0.991   2.680   0.357
 7810TIP3    H223374   1.098   2.626   0.450
 7811TIP3   OH223375   6.578   0.979   5.498
 7811TIP3    H123376   6.546   1.069   5.485
 7811TIP3    H223377   6.499   0.926   5.498
 7812TIP3   OH223378   2.696   6.896   2.165
 7812TIP3    H123379   2.615   6.944   2.148
 7812TIP3    H223380   2.684   6.812   2.121
 7813TIP3   OH223381   3.684   0.177   5.241
 7813TIP3    H123382   3.756   0.119   5.214
 7813TIP3    H223383   3.701   0.259   5.195
 7814TIP3   OH223384   1.844   3.549   3.090
 7814TIP3    H123385   1.875   3.635   3.063
 7814TIP3    H223386   1.878   3.538   3.179
 7815TIP3   OH223387   0.405   6.751   5.963
 7815TIP3    H123388   0.335   6.808   5.994
 7815TIP3    H223389   0.486   6.797   5.987
 7816TIP3   OH223390   1.456   4.630   4.059
 7816TIP3    H123391   1.413   4.602   4.140
 7816TIP3    H223392   1.395   4.605   3.990
 7817TIP3   OH223393   0.240   0.756   4.550
 7817TIP3    H123394   0.210   0.714   4.469
 7817TIP3    H223395   0.284   0.687   4.598
 7818TIP3   OH223396   8.154   3.431   0.890
 7818TIP3    H123397   8.201   3.512   0.907
 7818TIP3    H223398   8.180   3.372   0.960
 7819TIP3   OH223399   2.277   2.825   1.783
 7819TIP3    H123400   2.261   2.851   1.874
 7819TIP3    H223401   2.361   2.865   1.762
 7820TIP3   OH223402   1.332   1.253   3.096
 7820TIP3    H123403   1.292   1.181   3.047
 7820TIP3    H223404   1.424   1.251   3.068
 7821TIP3   OH223405   4.951   6.604   2.313
 7821TIP3    H123406   4.973   6.639   2.399
 7821TIP3    H223407   4.946   6.509   2.327
 7822TIP3   OH223408   7.007   3.187   4.588
 7822TIP3    H123409   6.991   3.097   4.559
 7822TIP3    H223410   7.055   3.228   4.516
 7823TIP3   OH223411   6.380   5.212   0.866
 7823TIP3    H123412   6.298   5.260   0.856
 7823TIP3    H223413   6.447   5.280   0.870
 7824TIP3   OH223414   6.642   5.847   6.152
 7824TIP3    H123415   6.608   5.761   6.125
 7824TIP3    H223416   6.735   5.842   6.134
 7825TIP3   OH223417   4.375   3.817   3.849
 7825TIP3    H123418   4.378   3.754   3.777
 7825TIP3    H223419   4.458   3.864   3.843
 7826TIP3   OH223420   7.496   5.136   5.455
 7826TIP3    H123421   7.461   5.097   5.375
 7826TIP3    H223422   7.460   5.224   5.457
 7827TIP3   OH223423   7.468   2.975   2.565
 7827TIP3    H123424   7.558   2.965   2.595
 7827TIP3    H223425   7.461   3.067   2.540
 7828TIP3   OH223426   6.038   6.720   4.198
 7828TIP3    H123427   6.088   6.699   4.277
 7828TIP3    H223428   6.019   6.635   4.158
 7829TIP3   OH223429   5.193   5.353   0.281
 7829TIP3    H123430   5.277   5.389   0.308
 7829TIP3    H223431   5.171   5.400   0.200
 7830TIP3   OH223432   4.697   3.081   2.528
 7830TIP3    H123433   4.686   3.021   2.602
 7830TIP3    H223434   4.726   3.025   2.456
 7831TIP3   OH223435   4.278   3.988   1.854
 7831TIP3    H123436   4.183   3.997   1.852
 7831TIP3    H223437   4.300   3.949   1.769
 7832TIP3   OH223438   5.435   6.103   3.493
 7832TIP3    H123439   5.350   6.097   3.449
 7832TIP3    H223440   5.484   6.028   3.461
 7833TIP3   OH223441   7.134   0.274   4.376
 7833TIP3    H123442   7.049   0.232   4.365
 7833TIP3    H223443   7.168   0.284   4.287
 7834TIP3   OH223444   2.829   3.058   6.640
 7834TIP3    H123445   2.834   3.135   6.585
 7834TIP3    H223446   2.921   3.038   6.661
 7835TIP3   OH223447   0.304   0.323   2.468
 7835TIP3    H123448   0.277   0.408   2.503
 7835TIP3    H223449   0.262   0.259   2.525
 7836TIP3   OH223450   6.242   7.110   6.430
 7836TIP3    H123451   6.263   7.084   6.520
 7836TIP3    H223452   6.318   7.159   6.401
 7837TIP3   OH223453   3.133   7.171   1.818
 7837TIP3    H123454   3.081   7.186   1.739
 7837TIP3    H223455   3.077   7.118   1.874
 7838TIP3   OH223456   0.551   0.177   0.330
 7838TIP3    H123457   0.618   0.232   0.371
 7838TIP3    H223458   0.479   0.176   0.393
 7839TIP3   OH223459   2.390   5.892   0.523
 7839TIP3    H123460   2.315   5.890   0.583
 7839TIP3    H223461   2.467   5.888   0.580
 7840TIP3   OH223462   4.071   6.883   6.564
 7840TIP3    H123463   4.039   6.972   6.574
 7840TIP3    H223464   4.010   6.842   6.502
 7841TIP3   OH223465   2.608   1.303   4.905
 7841TIP3    H123466   2.616   1.344   4.818
 7841TIP3    H223467   2.682   1.337   4.955
 7842TIP3   OH223468   7.280   6.667   3.081
 7842TIP3    H123469   7.304   6.580   3.112
 7842TIP3    H223470   7.322   6.674   2.995
 7843TIP3   OH223471   0.368   1.139   3.628
 7843TIP3    H123472   0.397   1.048   3.625
 7843TIP3    H223473   0.448   1.191   3.627
 7844TIP3   OH223474   7.171   5.793   3.664
 7844TIP3    H123475   7.238   5.727   3.681
 7844TIP3    H223476   7.105   5.748   3.612
 7845TIP3   OH223477   6.701   0.419   5.707
 7845TIP3    H123478   6.689   0.377   5.622
 7845TIP3    H223479   6.706   0.347   5.769
 7846TIP3   OH223480   3.692   5.458   1.635
 7846TIP3    H123481   3.641   5.378   1.629
 7846TIP3    H223482   3.658   5.503   1.713
 7847TIP3   OH223483   7.541   1.008   4.833
 7847TIP3    H123484   7.583   1.053   4.906
 7847TIP3    H223485   7.449   1.000   4.860
 7848TIP3   OH223486   1.904   3.267   6.572
 7848TIP3    H123487   1.969   3.225   6.628
 7848TIP3    H223488   1.825   3.271   6.626
 7849TIP3   OH223489   0.959   3.395   3.234
 7849TIP3    H123490   0.956   3.429   3.144
 7849TIP3    H223491   0.877   3.345   3.243
 7850TIP3   OH223492   3.833   2.713   2.515
 7850TIP3    H123493   3.873   2.793   2.549
 7850TIP3    H223494   3.898   2.677   2.455
 7851TIP3   OH223495   4.841   2.945   4.233
 7851TIP3    H123496   4.753   2.969   4.262
 7851TIP3    H223497   4.860   2.864   4.282
 7852TIP3   OH223498   4.324   6.788   3.848
 7852TIP3    H123499   4.270   6.775   3.926
 7852TIP3    H223500   4.342   6.699   3.817
 7853TIP3   OH223501   6.241   0.255   2.500
 7853TIP3    H123502   6.257   0.349   2.489
 7853TIP3    H223503   6.193   0.248   2.582
 7854TIP3   OH223504   6.898   5.107   2.531
 7854TIP3    H123505   6.969   5.060   2.487
 7854TIP3    H223506   6.921   5.199   2.524
 7855TIP3   OH223507   1.343   6.654   6.222
 7855TIP3    H123508   1.379   6.721   6.280
 7855TIP3    H223509   1.375   6.677   6.135
 7856TIP3   OH223510   0.188   2.268   0.437
 7856TIP3    H123511   0.193   2.269   0.341
 7856TIP3    H223512   0.094   2.269   0.456
 7857TIP3   OH223513   2.055   5.031   3.757
 7857TIP3    H123514   2.110   5.050   3.681
 7857TIP3    H223515   1.970   5.006   3.720
 7858TIP3   OH223516   3.684   1.729   5.220
 7858TIP3    H123517   3.744   1.655   5.214
 7858TIP3    H223518   3.634   1.726   5.138
 7859TIP3   OH223519   2.654   3.868   1.368
 7859TIP3    H123520   2.705   3.853   1.288
 7859TIP3    H223521   2.625   3.781   1.394
 7860TIP3   OH223522   4.785   3.060   5.126
 7860TIP3    H123523   4.850   3.116   5.169
 7860TIP3    H223524   4.828   3.031   5.046
 7861TIP3   OH223525   2.034   1.222   3.291
 7861TIP3    H123526   1.968   1.267   3.238
 7861TIP3    H223527   1.999   1.225   3.380
 7862TIP3   OH223528   7.156   6.001   6.373
 7862TIP3    H123529   7.218   5.991   6.445
 7862TIP3    H223530   7.204   6.049   6.306
 7863TIP3   OH223531   1.764   5.203   0.426
 7863TIP3    H123532   1.787   5.121   0.383
 7863TIP3    H223533   1.739   5.262   0.355
 7864TIP3   OH223534   7.399   3.285   2.598
 7864TIP3    H123535   7.461   3.252   2.663
 7864TIP3    H223536   7.444   3.360   2.558
 7865TIP3   OH223537   7.144   5.295   1.460
 7865TIP3    H123538   7.094   5.216   1.475
 7865TIP3    H223539   7.118   5.325   1.373
 7866TIP3   OH223540   5.580   7.247   6.420
 7866TIP3    H123541   5.578   7.301   6.499
 7866TIP3    H223542   5.488   7.230   6.400
 7867TIP3   OH223543   3.593   3.260   3.785
 7867TIP3    H123544   3.628   3.202   3.716
 7867TIP3    H223545   3.600   3.209   3.865
 7868TIP3   OH223546   5.446   5.595   5.747
 7868TIP3    H123547   5.416   5.505   5.743
 7868TIP3    H223548   5.520   5.593   5.808
 7869TIP3   OH223549   0.807   1.527   0.754
 7869TIP3    H123550   0.734   1.584   0.777
 7869TIP3    H223551   0.839   1.561   0.671
 7870TIP3   OH223552   2.809   5.288   3.917
 7870TIP3    H123553   2.840   5.197   3.913
 7870TIP3    H223554   2.714   5.281   3.916
 7871TIP3   OH223555   3.550   4.839   0.438
 7871TIP3    H123556   3.481   4.823   0.503
 7871TIP3    H223557   3.601   4.911   0.474
 7872TIP3   OH223558   6.653   1.731   2.136
 7872TIP3    H123559   6.722   1.788   2.102
 7872TIP3    H223560   6.592   1.791   2.180
 7873TIP3   OH223561   6.537   4.259   3.232
 7873TIP3    H123562   6.443   4.255   3.252
 7873TIP3    H223563   6.574   4.182   3.275
 7874TIP3   OH223564   2.735   0.071   5.281
 7874TIP3    H123565   2.753   0.033   5.367
 7874TIP3    H223566   2.813   0.122   5.261
 7875TIP3   OH223567   2.799   0.891   1.085
 7875TIP3    H123568   2.731   0.902   1.019
 7875TIP3    H223569   2.843   0.976   1.087
 7876TIP3   OH223570   3.747   6.969   4.662
 7876TIP3    H123571   3.748   7.047   4.607
 7876TIP3    H223572   3.657   6.965   4.696
 7877TIP3   OH223573   5.770   7.619   1.373
 7877TIP3    H123574   5.681   7.635   1.341
 7877TIP3    H223575   5.771   7.658   1.460
 7878TIP3   OH223576   3.488   0.914   4.106
 7878TIP3    H123577   3.550   0.854   4.065
 7878TIP3    H223578   3.402   0.877   4.086
 7879TIP3   OH223579   3.160   5.591   1.039
 7879TIP3    H123580   3.187   5.604   1.130
 7879TIP3    H223581   3.164   5.496   1.026
 7880TIP3   OH223582   3.960   5.599   5.004
 7880TIP3    H123583   3.887   5.659   4.989
 7880TIP3    H223584   4.023   5.651   5.053
 7881TIP3   OH223585   4.188   1.506   5.101
 7881TIP3    H123586   4.221   1.569   5.038
 7881TIP3    H223587   4.262   1.488   5.159
 7882TIP3   OH223588   6.076   0.523   2.468
 7882TIP3    H123589   6.043   0.610   2.448
 7882TIP3    H223590   5.998   0.468   2.470
 7883TIP3   OH223591   5.995   4.950   3.216
 7883TIP3    H123592   5.955   5.004   3.147
 7883TIP3    H223593   5.920   4.910   3.261
 7884TIP3   OH223594   1.543   2.615   0.492
 7884TIP3    H123595   1.542   2.545   0.426
 7884TIP3    H223596   1.545   2.696   0.441
 7885TIP3   OH223597   7.460   4.222   5.021
 7885TIP3    H123598   7.478   4.236   5.114
 7885TIP3    H223599   7.386   4.279   5.002
 7886TIP3   OH223600   4.697   1.940   5.040
 7886TIP3    H123601   4.604   1.932   5.022
 7886TIP3    H223602   4.739   1.878   4.980
 7887TIP3   OH223603   4.375   7.813   3.470
 7887TIP3    H123604   4.390   7.720   3.455
 7887TIP3    H223605   4.449   7.856   3.427
 7888TIP3   OH223606   6.412   1.349   6.734
 7888TIP3    H123607   6.504   1.367   6.716
 7888TIP3    H223608   6.373   1.435   6.751
 7889TIP3   OH223609   3.243   3.638   5.995
 7889TIP3    H123610   3.202   3.712   6.040
 7889TIP3    H223611   3.203   3.638   5.908
 7890TIP3   OH223612   6.016   6.675   3.737
 7890TIP3    H123613   5.941   6.648   3.683
 7890TIP3    H223614   5.982   6.745   3.792
 7891TIP3   OH223615   2.941   5.798   6.417
 7891TIP3    H123616   2.957   5.795   6.511
 7891TIP3    H223617   2.909   5.887   6.400
 7892TIP3   OH223618   3.689   3.930   4.401
 7892TIP3    H123619   3.737   4.010   4.424
 7892TIP3    H223620   3.757   3.866   4.383
 7893TIP3   OH223621   0.261   3.125   6.736
 7893TIP3    H123622   0.224   3.168   6.659
 7893TIP3    H223623   0.288   3.039   6.705
 7894TIP3   OH223624   2.548   7.325   3.401
 7894TIP3    H123625   2.625   7.381   3.406
 7894TIP3    H223626   2.487   7.361   3.465
 7895TIP3   OH223627   7.808   0.980   1.397
 7895TIP3    H123628   7.838   0.979   1.307
 7895TIP3    H223629   7.719   1.013   1.393
 7896TIP3   OH223630   7.084   1.508   1.166
 7896TIP3    H123631   7.174   1.539   1.175
 7896TIP3    H223632   7.089   1.438   1.102
 7897TIP3   OH223633   4.563   2.018   3.096
 7897TIP3    H123634   4.645   2.066   3.082
 7897TIP3    H223635   4.566   1.949   3.030
 7898TIP3   OH223636   3.490   5.364   3.687
 7898TIP3    H123637   3.436   5.387   3.612
 7898TIP3    H223638   3.427   5.348   3.758
 7899TIP3   OH223639   0.903   4.622   1.515
 7899TIP3    H123640   0.896   4.689   1.583
 7899TIP3    H223641   0.825   4.567   1.528
 7900TIP3   OH223642   1.326   3.037   0.714
 7900TIP3    H123643   1.258   2.970   0.706
 7900TIP3    H223644   1.357   3.030   0.804
 7901TIP3   OH223645   0.609   6.830   4.701
 7901TIP3    H123646   0.610   6.753   4.644
 7901TIP3    H223647   0.702   6.849   4.717
 7902TIP3   OH223648   0.680   6.816   0.685
 7902TIP3    H123649   0.758   6.805   0.631
 7902TIP3    H223650   0.616   6.856   0.627
 7903TIP3   OH223651   8.217   2.273   3.402
 7903TIP3    H123652   8.312   2.260   3.407
 7903TIP3    H223653   8.180   2.200   3.452
 7904TIP3   OH223654   8.133   7.223   2.560
 7904TIP3    H123655   8.101   7.304   2.521
 7904TIP3    H223656   8.203   7.194   2.501
 7905TIP3   OH223657   4.485   3.648   6.668
 7905TIP3    H123658   4.510   3.738   6.688
 7905TIP3    H223659   4.399   3.655   6.626
 7906TIP3   OH223660   3.512   6.829   0.692
 7906TIP3    H123661   3.446   6.852   0.626
 7906TIP3    H223662   3.467   6.840   0.776
 7907TIP3   OH223663   2.287   7.069   3.545
 7907TIP3    H123664   2.230   7.037   3.615
 7907TIP3    H223665   2.270   7.011   3.471
 7908TIP3   OH223666   2.076   4.700   0.326
 7908TIP3    H123667   2.158   4.730   0.287
 7908TIP3    H223668   2.070   4.746   0.409
 7909TIP3   OH223669   5.533   6.253   5.444
 7909TIP3    H123670   5.440   6.273   5.454
 7909TIP3    H223671   5.535   6.166   5.403
 7910TIP3   OH223672   4.304   4.785   2.937
 7910TIP3    H123673   4.259   4.847   2.880
 7910TIP3    H223674   4.235   4.726   2.967
 7911TIP3   OH223675   1.600   0.710   4.089
 7911TIP3    H123676   1.598   0.615   4.076
 7911TIP3    H223677   1.606   0.747   4.001
 7912TIP3   OH223678   0.571   5.575   5.335
 7912TIP3    H123679   0.640   5.539   5.279
 7912TIP3    H223680   0.615   5.643   5.386
 7913TIP3   OH223681   4.784   0.973   0.170
 7913TIP3    H123682   4.705   1.019   0.143
 7913TIP3    H223683   4.753   0.892   0.211
 7914TIP3   OH223684   4.251   5.135   6.380
 7914TIP3    H123685   4.346   5.133   6.364
 7914TIP3    H223686   4.216   5.073   6.316
 7915TIP3   OH223687   6.449   4.343   3.575
 7915TIP3    H123688   6.482   4.255   3.596
 7915TIP3    H223689   6.365   4.327   3.532
 7916TIP3   OH223690   4.071   5.842   3.233
 7916TIP3    H123691   4.112   5.904   3.293
 7916TIP3    H223692   4.057   5.891   3.153
 7917TIP3   OH223693   7.143   0.020   0.862
 7917TIP3    H123694   7.173   0.070   0.938
 7917TIP3    H223695   7.223  -0.012   0.821
 7918TIP3   OH223696   0.956   5.783   2.833
 7918TIP3    H123697   0.925   5.788   2.923
 7918TIP3    H223698   0.928   5.865   2.793
 7919TIP3   OH223699   0.907   4.244   6.414
 7919TIP3    H123700   0.977   4.226   6.352
 7919TIP3    H223701   0.895   4.162   6.462
 7920TIP3   OH223702   2.700   3.951   2.095
 7920TIP3    H123703   2.760   3.897   2.045
 7920TIP3    H223704   2.708   3.919   2.185
 7921TIP3   OH223705   0.948   7.722   2.258
 7921TIP3    H123706   0.984   7.808   2.236
 7921TIP3    H223707   0.884   7.740   2.327
 7922TIP3   OH223708   6.873   7.001   5.534
 7922TIP3    H123709   6.890   7.033   5.445
 7922TIP3    H223710   6.896   7.075   5.591
 7923TIP3   OH223711   2.248   5.792   6.565
 7923TIP3    H123712   2.288   5.707   6.545
 7923TIP3    H223713   2.321   5.853   6.569
 7924TIP3   OH223714   1.792   7.765   1.567
 7924TIP3    H123715   1.867   7.821   1.587
 7924TIP3    H223716   1.800   7.692   1.629
 7925TIP3   OH223717   4.230   5.628   1.934
 7925TIP3    H123718   4.230   5.541   1.895
 7925TIP3    H223719   4.185   5.617   2.018
 7926TIP3   OH223720   5.367   2.065   3.116
 7926TIP3    H123721   5.284   2.024   3.142
 7926TIP3    H223722   5.434   2.008   3.154
 7927TIP3   OH223723   0.768   2.366   1.591
 7927TIP3    H123724   0.682   2.397   1.618
 7927TIP3    H223725   0.780   2.404   1.504
 7928TIP3   OH223726   6.367   4.485   3.932
 7928TIP3    H123727   6.385   4.569   3.890
 7928TIP3    H223728   6.434   4.426   3.897
 7929TIP3   OH223729   0.697   5.102   0.995
 7929TIP3    H123730   0.640   5.074   1.067
 7929TIP3    H223731   0.643   5.163   0.945
 7930TIP3   OH223732   7.183   0.168   3.936
 7930TIP3    H123733   7.191   0.257   3.902
 7930TIP3    H223734   7.092   0.162   3.966
 7931TIP3   OH223735   5.003   7.696   2.765
 7931TIP3    H123736   5.010   7.767   2.829
 7931TIP3    H223737   4.952   7.629   2.809
 7932TIP3   OH223738   7.487   3.541   2.439
 7932TIP3    H123739   7.461   3.613   2.497
 7932TIP3    H223740   7.576   3.563   2.413
 7933TIP3   OH223741   0.758   7.138   1.142
 7933TIP3    H123742   0.839   7.159   1.187
 7933TIP3    H223743   0.785   7.114   1.053
 7934TIP3   OH223744   2.568   1.119   2.680
 7934TIP3    H123745   2.582   1.213   2.667
 7934TIP3    H223746   2.650   1.078   2.653
 7935TIP3   OH223747   5.125   0.623   3.672
 7935TIP3    H123748   5.172   0.583   3.745
 7935TIP3    H223749   5.191   0.676   3.627
 7936TIP3   OH223750   7.281   2.412   1.902
 7936TIP3    H123751   7.356   2.448   1.949
 7936TIP3    H223752   7.305   2.420   1.810
 7937TIP3   OH223753   0.269   6.417   6.013
 7937TIP3    H123754   0.315   6.428   6.096
 7937TIP3    H223755   0.267   6.505   5.975
 7938TIP3   OH223756   0.762   3.890   3.693
 7938TIP3    H123757   0.827   3.921   3.629
 7938TIP3    H223758   0.723   3.970   3.728
 7939TIP3   OH223759   7.987   4.561   5.665
 7939TIP3    H123760   8.027   4.541   5.581
 7939TIP3    H223761   8.025   4.645   5.691
 7940TIP3   OH223762   3.445   0.825   5.342
 7940TIP3    H123763   3.423   0.907   5.298
 7940TIP3    H223764   3.534   0.805   5.313
 7941TIP3   OH223765   7.334   3.625   5.531
 7941TIP3    H123766   7.338   3.620   5.627
 7941TIP3    H223767   7.345   3.534   5.502
 7942TIP3   OH223768   2.397   0.344   2.260
 7942TIP3    H123769   2.464   0.307   2.203
 7942TIP3    H223770   2.433   0.430   2.286
 7943TIP3   OH223771   6.870   3.744   5.891
 7943TIP3    H123772   6.889   3.689   5.967
 7943TIP3    H223773   6.786   3.711   5.858
 7944TIP3   OH223774   5.340   2.952   2.461
 7944TIP3    H123775   5.380   2.972   2.376
 7944TIP3    H223776   5.258   2.907   2.440
 7945TIP3   OH223777   5.836   0.540   1.683
 7945TIP3    H123778   5.758   0.492   1.655
 7945TIP3    H223779   5.908   0.478   1.673
 7946TIP3   OH223780   7.307   5.710   2.276
 7946TIP3    H123781   7.398   5.712   2.304
 7946TIP3    H223782   7.256   5.705   2.357
 7947TIP3   OH223783   0.668   1.507   4.384
 7947TIP3    H123784   0.754   1.477   4.412
 7947TIP3    H223785   0.627   1.430   4.344
 7948TIP3   OH223786   7.158   1.820   1.312
 7948TIP3    H123787   7.199   1.898   1.349
 7948TIP3    H223788   7.126   1.848   1.226
 7949TIP3   OH223789   2.899   0.065   0.358
 7949TIP3    H123790   2.854   0.134   0.309
 7949TIP3    H223791   2.941   0.011   0.292
 7950TIP3   OH223792   0.310   0.370   1.661
 7950TIP3    H123793   0.364   0.297   1.691
 7950TIP3    H223794   0.325   0.374   1.567
 7951TIP3   OH223795   4.534   5.838   1.145
 7951TIP3    H123796   4.494   5.756   1.173
 7951TIP3    H223797   4.557   5.882   1.226
 7952TIP3   OH223798   7.095   5.974   2.812
 7952TIP3    H123799   7.028   6.036   2.785
 7952TIP3    H223800   7.096   5.979   2.908
 7953TIP3   OH223801   6.837   3.834   3.920
 7953TIP3    H123802   6.916   3.858   3.872
 7953TIP3    H223803   6.865   3.763   3.978
 7954TIP3   OH223804   0.856   4.688   2.559
 7954TIP3    H123805   0.884   4.665   2.648
 7954TIP3    H223806   0.849   4.784   2.561
 7955TIP3   OH223807   6.189   0.210   0.547
 7955TIP3    H123808   6.136   0.141   0.586
 7955TIP3    H223809   6.149   0.226   0.461
 7956TIP3   OH223810   7.513   7.221   5.264
 7956TIP3    H123811   7.512   7.317   5.270
 7956TIP3    H223812   7.595   7.196   5.306
 7957TIP3   OH223813   5.396   1.309   4.166
 7957TIP3    H123814   5.380   1.219   4.196
 7957TIP3    H223815   5.463   1.342   4.226
 7958TIP3   OH223816   6.262   6.582   4.924
 7958TIP3    H123817   6.204   6.635   4.978
 7958TIP3    H223818   6.334   6.556   4.982
 7959TIP3   OH223819   2.345   4.414   1.541
 7959TIP3    H123820   2.409   4.343   1.542
 7959TIP3    H223821   2.305   4.412   1.627
 7960TIP3   OH223822   4.356   4.369   0.759
 7960TIP3    H123823   4.284   4.411   0.806
 7960TIP3    H223824   4.335   4.382   0.667
 7961TIP3   OH223825   5.433   1.728   0.235
 7961TIP3    H123826   5.465   1.792   0.298
 7961TIP3    H223827   5.366   1.774   0.185
 7962TIP3   OH223828   6.658   2.733   1.273
 7962TIP3    H123829   6.599   2.659   1.258
 7962TIP3    H223830   6.607   2.810   1.247
 7963TIP3   OH223831   7.565   1.141   3.895
 7963TIP3    H123832   7.584   1.235   3.897
 7963TIP3    H223833   7.501   1.131   3.825
 7964TIP3   OH223834   0.704   1.248   0.107
 7964TIP3    H123835   0.671   1.324   0.156
 7964TIP3    H223836   0.665   1.173   0.151
 7965TIP3   OH223837   3.332   3.962   5.679
 7965TIP3    H123838   3.300   3.907   5.751
 7965TIP3    H223839   3.427   3.958   5.686
 7966TIP3   OH223840   5.340   7.400   5.923
 7966TIP3    H123841   5.303   7.390   6.011
 7966TIP3    H223842   5.265   7.391   5.865
 7967TIP3   OH223843   3.856   1.583   1.791
 7967TIP3    H123844   3.944   1.619   1.796
 7967TIP3    H223845   3.842   1.539   1.874
 7968TIP3   OH223846   2.812   4.254   1.316
 7968TIP3    H123847   2.877   4.323   1.328
 7968TIP3    H223848   2.772   4.273   1.231
 7969TIP3   OH223849   3.015   2.998   1.919
 7969TIP3    H123850   2.947   2.955   1.970
 7969TIP3    H223851   2.989   2.984   1.828
 7970TIP3   OH223852   0.641   4.421   2.125
 7970TIP3    H123853   0.642   4.325   2.133
 7970TIP3    H223854   0.699   4.452   2.194
 7971TIP3   OH223855   3.314   0.492   6.454
 7971TIP3    H123856   3.236   0.538   6.485
 7971TIP3    H223857   3.281   0.406   6.426
 7972TIP3   OH223858   1.902   5.492   1.646
 7972TIP3    H123859   1.987   5.452   1.628
 7972TIP3    H223860   1.843   5.453   1.581
 7973TIP3   OH223861   6.126   3.053   2.665
 7973TIP3    H123862   6.186   3.114   2.707
 7973TIP3    H223863   6.043   3.101   2.660
 7974TIP3   OH223864   4.759   2.727   2.685
 7974TIP3    H123865   4.724   2.717   2.597
 7974TIP3    H223866   4.812   2.648   2.699
 7975TIP3   OH223867   2.843   1.662   4.196
 7975TIP3    H123868   2.820   1.637   4.107
 7975TIP3    H223869   2.771   1.720   4.224
 7976TIP3   OH223870   7.329   2.403   5.965
 7976TIP3    H123871   7.373   2.477   5.924
 7976TIP3    H223872   7.382   2.327   5.941
 7977TIP3   OH223873   1.978   4.396   5.586
 7977TIP3    H123874   2.028   4.315   5.576
 7977TIP3    H223875   1.940   4.390   5.674
 7978TIP3   OH223876   0.456   6.460   5.171
 7978TIP3    H123877   0.459   6.553   5.146
 7978TIP3    H223878   0.422   6.460   5.260
 7979TIP3   OH223879   3.445   5.975   0.528
 7979TIP3    H123880   3.497   6.030   0.470
 7979TIP3    H223881   3.506   5.908   0.560
 7980TIP3   OH223882   1.861   4.340   0.274
 7980TIP3    H123883   1.860   4.424   0.319
 7980TIP3    H223884   1.904   4.280   0.336
 7981TIP3   OH223885   6.225   6.837   0.303
 7981TIP3    H123886   6.174   6.884   0.238
 7981TIP3    H223887   6.242   6.751   0.263
 7982TIP3   OH223888   5.601   2.518   0.707
 7982TIP3    H123889   5.553   2.435   0.712
 7982TIP3    H223890   5.678   2.498   0.654
 7983TIP3   OH223891   0.997   3.086   4.647
 7983TIP3    H123892   1.022   3.071   4.556
 7983TIP3    H223893   1.080   3.102   4.692
 7984TIP3   OH223894   1.775   6.649   5.117
 7984TIP3    H123895   1.738   6.687   5.038
 7984TIP3    H223896   1.699   6.635   5.174
 7985TIP3   OH223897   0.402   4.045   2.689
 7985TIP3    H123898   0.387   4.008   2.602
 7985TIP3    H223899   0.314   4.054   2.727
 7986TIP3   OH223900   7.363   5.671   3.170
 7986TIP3    H123901   7.440   5.727   3.176
 7986TIP3    H223902   7.355   5.652   3.076
 7987TIP3   OH223903   6.973   5.680   5.251
 7987TIP3    H123904   6.989   5.770   5.278
 7987TIP3    H223905   6.898   5.652   5.304
 7988TIP3   OH223906   0.181   2.958   2.137
 7988TIP3    H123907   0.194   3.037   2.189
 7988TIP3    H223908   0.269   2.923   2.123
 7989TIP3   OH223909   0.979   1.093   2.962
 7989TIP3    H123910   0.994   1.126   2.874
 7989TIP3    H223911   0.918   1.155   3.001
 7990TIP3   OH223912   2.229   7.278   3.347
 7990TIP3    H123913   2.287   7.235   3.410
 7990TIP3    H223914   2.277   7.354   3.317
 7991TIP3   OH223915   2.268   2.215   2.891
 7991TIP3    H123916   2.307   2.243   2.808
 7991TIP3    H223917   2.340   2.222   2.954
 7992TIP3   OH223918   0.910   3.496   2.965
 7992TIP3    H123919   0.844   3.565   2.962
 7992TIP3    H223920   0.886   3.437   2.894
 7993TIP3   OH223921   7.434   7.336   6.143
 7993TIP3    H123922   7.442   7.386   6.062
 7993TIP3    H223923   7.362   7.275   6.126
 7994TIP3   OH223924   6.498   4.059   5.280
 7994TIP3    H123925   6.541   3.976   5.301
 7994TIP3    H223926   6.405   4.042   5.292
 7995TIP3   OH223927   8.120   3.273   1.909
 7995TIP3    H123928   8.146   3.359   1.877
 7995TIP3    H223929   8.199   3.221   1.905
 7996TIP3   OH223930   4.910   2.478   3.679
 7996TIP3    H123931   4.940   2.449   3.765
 7996TIP3    H223932   4.885   2.398   3.633
 7997TIP3   OH223933   0.576   2.514   6.601
 7997TIP3    H123934   0.556   2.583   6.663
 7997TIP3    H223935   0.621   2.558   6.529
 7998TIP3   OH223936   1.080   6.474   6.746
 7998TIP3    H123937   1.075   6.559   6.789
 7998TIP3    H223938   1.149   6.485   6.680
 7999TIP3   OH223939   7.414   3.881   1.858
 7999TIP3    H123940   7.332   3.850   1.819
 7999TIP3    H223941   7.399   3.973   1.875
 8000TIP3   OH223942   1.217   3.615   5.704
 8000TIP3    H123943   1.236   3.702   5.741
 8000TIP3    H223944   1.153   3.578   5.763
 8001TIP3   OH223945   4.974   5.057   2.223
 8001TIP3    H123946   5.048   5.004   2.252
 8001TIP3    H223947   4.983   5.140   2.271
 8002TIP3   OH223948   0.883   6.450   2.848
 8002TIP3    H123949   0.943   6.512   2.888
 8002TIP3    H223950   0.798   6.493   2.851
 8003TIP3   OH223951   0.677   4.472   1.528
 8003TIP3    H123952   0.593   4.515   1.514
 8003TIP3    H223953   0.666   4.423   1.609
 8004TIP3   OH223954   1.599   0.166   6.156
 8004TIP3    H123955   1.587   0.203   6.069
 8004TIP3    H223956   1.546   0.086   6.156
 8005TIP3   OH223957   6.726   1.603   3.821
 8005TIP3    H123958   6.814   1.619   3.789
 8005TIP3    H223959   6.738   1.546   3.897
 8006TIP3   OH223960   1.236   1.753   0.162
 8006TIP3    H123961   1.299   1.781   0.229
 8006TIP3    H223962   1.233   1.826   0.100
 8007TIP3   OH223963   4.107   6.080   0.232
 8007TIP3    H123964   4.029   6.064   0.179
 8007TIP3    H223965   4.163   6.134   0.176
 8008TIP3   OH223966   2.142   4.161   2.122
 8008TIP3    H123967   2.078   4.222   2.161
 8008TIP3    H223968   2.175   4.111   2.197
 8009TIP3   OH223969   5.930   1.736   6.282
 8009TIP3    H123970   5.991   1.795   6.328
 8009TIP3    H223971   5.953   1.649   6.315
 8010TIP3   OH223972   5.181   2.780   2.820
 8010TIP3    H123973   5.251   2.837   2.853
 8010TIP3    H223974   5.225   2.722   2.758
 8011TIP3   OH223975   3.740   3.371   4.270
 8011TIP3    H123976   3.705   3.443   4.323
 8011TIP3    H223977   3.663   3.316   4.252
 8012TIP3   OH223978   4.274   0.177   5.113
 8012TIP3    H123979   4.269   0.112   5.183
 8012TIP3    H223980   4.360   0.163   5.073
 8013TIP3   OH223981   7.346   2.625   0.059
 8013TIP3    H123982   7.322   2.572   0.135
 8013TIP3    H223983   7.284   2.599  -0.009
 8014TIP3   OH223984   4.108   4.742   1.800
 8014TIP3    H123985   4.189   4.695   1.778
 8014TIP3    H223986   4.136   4.807   1.865
 8015TIP3   OH223987   2.899   2.689   6.018
 8015TIP3    H123988   2.944   2.703   6.101
 8015TIP3    H223989   2.838   2.763   6.011
 8016TIP3   OH223990   4.099   3.435   2.175
 8016TIP3    H123991   4.031   3.384   2.218
 8016TIP3    H223992   4.062   3.523   2.168
 8017TIP3   OH223993   8.180   6.142   0.417
 8017TIP3    H123994   8.088   6.117   0.415
 8017TIP3    H223995   8.182   6.224   0.467
 8018TIP3   OH223996   6.583   6.789   3.366
 8018TIP3    H123997   6.512   6.827   3.417
 8018TIP3    H223998   6.629   6.864   3.328
 8019TIP3   OH223999   6.743   4.735   5.316
 8019TIP3    H124000   6.757   4.736   5.221
 8019TIP3    H224001   6.674   4.799   5.331
 8020TIP3   OH224002   1.590   4.583   5.746
 8020TIP3    H124003   1.501   4.580   5.712
 8020TIP3    H224004   1.581   4.617   5.835
 8021TIP3   OH224005   7.992   2.021   5.391
 8021TIP3    H124006   7.938   2.020   5.311
 8021TIP3    H224007   7.947   2.083   5.449
 8022TIP3   OH224008   6.720   5.268   4.195
 8022TIP3    H124009   6.759   5.327   4.260
 8022TIP3    H224010   6.705   5.324   4.118
 8023TIP3   OH224011   8.234   3.727   0.430
 8023TIP3    H124012   8.234   3.673   0.351
 8023TIP3    H224013   8.142   3.746   0.446
 8024TIP3   OH224014   6.728   6.760   6.312
 8024TIP3    H124015   6.749   6.731   6.401
 8024TIP3    H224016   6.717   6.680   6.262
 8025TIP3   OH224017   6.243   5.607   0.391
 8025TIP3    H124018   6.185   5.682   0.406
 8025TIP3    H224019   6.216   5.543   0.457
 8026TIP3   OH224020   1.462   1.890   5.322
 8026TIP3    H124021   1.369   1.898   5.303
 8026TIP3    H224022   1.494   1.981   5.324
 8027TIP3   OH224023   5.930   1.334   6.397
 8027TIP3    H124024   5.853   1.282   6.419
 8027TIP3    H224025   5.951   1.309   6.307
 8028TIP3   OH224026   4.748   3.372   5.943
 8028TIP3    H124027   4.724   3.455   5.901
 8028TIP3    H224028   4.799   3.325   5.877
 8029TIP3   OH224029   2.995   1.206   3.604
 8029TIP3    H124030   3.072   1.254   3.633
 8029TIP3    H224031   2.975   1.242   3.518
 8030TIP3   OH224032   3.957   0.687   2.333
 8030TIP3    H124033   4.029   0.624   2.318
 8030TIP3    H224034   3.985   0.766   2.287
 8031TIP3   OH224035   4.044   3.900   6.491
 8031TIP3    H124036   3.971   3.957   6.465
 8031TIP3    H224037   4.011   3.811   6.473
 8032TIP3   OH224038   7.659   6.197   5.330
 8032TIP3    H124039   7.596   6.126   5.321
 8032TIP3    H224040   7.688   6.216   5.241
 8033TIP3   OH224041   2.545   0.977   1.970
 8033TIP3    H124042   2.569   0.985   2.062
 8033TIP3    H224043   2.566   1.062   1.931
 8034TIP3   OH224044   5.816   5.097   5.954
 8034TIP3    H124045   5.759   5.115   6.029
 8034TIP3    H224046   5.872   5.175   5.949
 8035TIP3   OH224047   0.187   3.519   5.057
 8035TIP3    H124048   0.099   3.483   5.067
 8035TIP3    H224049   0.212   3.546   5.146
 8036TIP3   OH224050   5.942   5.612   4.420
 8036TIP3    H124051   6.010   5.663   4.463
 8036TIP3    H224052   5.914   5.548   4.486
 8037TIP3   OH224053   2.183   5.641   2.382
 8037TIP3    H124054   2.209   5.691   2.304
 8037TIP3    H224055   2.155   5.708   2.444
 8038TIP3   OH224056   5.554   3.620   4.171
 8038TIP3    H124057   5.516   3.698   4.130
 8038TIP3    H224058   5.512   3.547   4.127
 8039TIP3   OH224059   8.077   0.798   6.104
 8039TIP3    H124060   8.020   0.831   6.034
 8039TIP3    H224061   8.150   0.756   6.058
 8040TIP3   OH224062   0.755   3.788   4.395
 8040TIP3    H124063   0.779   3.719   4.457
 8040TIP3    H224064   0.661   3.775   4.380
 8041TIP3   OH224065   1.592   7.576   3.985
 8041TIP3    H124066   1.665   7.602   4.040
 8041TIP3    H224067   1.602   7.481   3.974
 8042TIP3   OH224068   5.115   6.678   0.490
 8042TIP3    H124069   5.137   6.617   0.560
 8042TIP3    H224070   5.108   6.763   0.533
 8043TIP3   OH224071   2.355   5.518   2.537
 8043TIP3    H124072   2.289   5.564   2.485
 8043TIP3    H224073   2.304   5.457   2.591
 8044TIP3   OH224074   3.446   5.097   2.031
 8044TIP3    H124075   3.526   5.053   2.004
 8044TIP3    H224076   3.379   5.065   1.971
 8045TIP3   OH224077   0.908   1.006   0.181
 8045TIP3    H124078   0.955   1.008   0.265
 8045TIP3    H224079   0.934   1.087   0.137
 8046TIP3   OH224080   7.411   7.429   5.861
 8046TIP3    H124081   7.421   7.524   5.868
 8046TIP3    H224082   7.341   7.416   5.797
 8047TIP3   OH224083   0.907   7.419   3.558
 8047TIP3    H124084   0.875   7.330   3.542
 8047TIP3    H224085   0.935   7.418   3.650
 8048TIP3   OH224086   0.040   4.442   5.742
 8048TIP3    H124087  -0.011   4.430   5.662
 8048TIP3    H224088   0.034   4.535   5.761
 8049TIP3   OH224089   2.569   2.236   2.443
 8049TIP3    H124090   2.510   2.165   2.421
 8049TIP3    H224091   2.529   2.314   2.403
 8050TIP3   OH224092   4.668   4.711   5.845
 8050TIP3    H124093   4.653   4.778   5.911
 8050TIP3    H224094   4.729   4.650   5.886
 8051TIP3   OH224095   4.207   7.521   6.632
 8051TIP3    H124096   4.208   7.615   6.611
 8051TIP3    H224097   4.126   7.489   6.593
 8052TIP3   OH224098   5.649   0.954   0.489
 8052TIP3    H124099   5.604   0.998   0.562
 8052TIP3    H224100   5.582   0.898   0.450
 8053TIP3   OH224101   1.473   5.446   0.136
 8053TIP3    H124102   1.445   5.536   0.155
 8053TIP3    H224103   1.404   5.392   0.175
 8054TIP3   OH224104   8.140   4.258   1.892
 8054TIP3    H124105   8.202   4.330   1.903
 8054TIP3    H224106   8.087   4.283   1.816
 8055TIP3   OH224107   5.685   3.107   5.775
 8055TIP3    H124108   5.760   3.148   5.819
 8055TIP3    H224109   5.697   3.128   5.682
 8056TIP3   OH224110   6.024   4.746   3.501
 8056TIP3    H124111   6.080   4.670   3.515
 8056TIP3    H224112   6.049   4.807   3.570
 8057TIP3   OH224113   3.875   3.833   5.032
 8057TIP3    H124114   3.843   3.921   5.050
 8057TIP3    H224115   3.885   3.830   4.937
 8058TIP3   OH224116   5.298   3.316   4.153
 8058TIP3    H124117   5.231   3.272   4.100
 8058TIP3    H224118   5.348   3.367   4.090
 8059TIP3   OH224119   1.778   0.620   1.510
 8059TIP3    H124120   1.713   0.611   1.441
 8059TIP3    H224121   1.819   0.534   1.517
 8060TIP3   OH224122   2.400   6.076   0.267
 8060TIP3    H124123   2.416   6.000   0.212
 8060TIP3    H224124   2.416   6.045   0.356
 8061TIP3   OH224125   7.664   0.568   3.881
 8061TIP3    H124126   7.715   0.647   3.898
 8061TIP3    H224127   7.626   0.582   3.794
 8062TIP3   OH224128   7.148   5.557   2.942
 8062TIP3    H124129   7.239   5.580   2.922
 8062TIP3    H224130   7.149   5.537   3.035
 8063TIP3   OH224131   0.711   7.055   5.259
 8063TIP3    H124132   0.658   7.092   5.330
 8063TIP3    H224133   0.702   6.960   5.270
 8064TIP3   OH224134   3.982   5.160   3.336
 8064TIP3    H124135   4.044   5.115   3.394
 8064TIP3    H224136   4.029   5.169   3.253
 8065TIP3   OH224137   5.831   3.547   3.184
 8065TIP3    H124138   5.878   3.481   3.133
 8065TIP3    H224139   5.750   3.562   3.135
 8066TIP3   OH224140   4.304   4.167   5.799
 8066TIP3    H124141   4.284   4.185   5.707
 8066TIP3    H224142   4.297   4.252   5.842
 8067TIP3   OH224143   4.734   2.599   0.286
 8067TIP3    H124144   4.759   2.635   0.371
 8067TIP3    H224145   4.708   2.509   0.305
 8068TIP3   OH224146   3.540   6.390   3.542
 8068TIP3    H124147   3.552   6.482   3.519
 8068TIP3    H224148   3.452   6.369   3.511
 8069TIP3   OH224149   6.551   1.926   6.304
 8069TIP3    H124150   6.498   1.854   6.337
 8069TIP3    H224151   6.588   1.966   6.383
 8070TIP3   OH224152   0.622   5.035   2.414
 8070TIP3    H124153   0.647   5.094   2.486
 8070TIP3    H224154   0.697   4.976   2.404
 8071TIP3   OH224155   1.373   2.068   6.169
 8071TIP3    H124156   1.465   2.049   6.190
 8071TIP3    H224157   1.326   2.049   6.251
 8072TIP3   OH224158   2.765   7.247   0.545
 8072TIP3    H124159   2.732   7.244   0.455
 8072TIP3    H224160   2.702   7.195   0.595
 8073TIP3   OH224161   2.059   6.073   0.931
 8073TIP3    H124162   2.119   6.073   0.857
 8073TIP3    H224163   2.110   6.109   1.004
 8074TIP3   OH224164   5.466   1.120   1.223
 8074TIP3    H124165   5.492   1.028   1.236
 8074TIP3    H224166   5.389   1.131   1.278
 8075TIP3   OH224167   5.095   7.609   3.973
 8075TIP3    H124168   5.097   7.605   4.069
 8075TIP3    H224169   5.154   7.539   3.945
 8076TIP3   OH224170   0.055   7.400   3.365
 8076TIP3    H124171  -0.036   7.369   3.367
 8076TIP3    H224172   0.060   7.454   3.287
 8077TIP3   OH224173   6.076   3.715   1.111
 8077TIP3    H124174   6.035   3.740   1.194
 8077TIP3    H224175   6.165   3.690   1.134
 8078TIP3   OH224176   2.846   3.779   1.648
 8078TIP3    H124177   2.886   3.801   1.564
 8078TIP3    H224178   2.755   3.757   1.626
 8079TIP3   OH224179   7.762   2.634   1.963
 8079TIP3    H124180   7.755   2.702   1.897
 8079TIP3    H224181   7.806   2.677   2.037
 8080TIP3   OH224182   2.285   4.426   2.076
 8080TIP3    H124183   2.342   4.406   2.150
 8080TIP3    H224184   2.197   4.405   2.107
 8081TIP3   OH224185   4.966   1.536   0.715
 8081TIP3    H124186   4.996   1.495   0.796
 8081TIP3    H224187   5.025   1.610   0.702
 8082TIP3   OH224188   6.925   3.565   2.617
 8082TIP3    H124189   6.956   3.528   2.535
 8082TIP3    H224190   6.994   3.626   2.644
 8083TIP3   OH224191   3.072   7.601   6.454
 8083TIP3    H124192   2.997   7.629   6.507
 8083TIP3    H224193   3.141   7.584   6.517
 8084TIP3   OH224194   2.778   5.842   6.047
 8084TIP3    H124195   2.705   5.879   5.997
 8084TIP3    H224196   2.838   5.915   6.060
 8085TIP3   OH224197   8.038   7.682   6.535
 8085TIP3    H124198   8.122   7.665   6.493
 8085TIP3    H224199   7.977   7.620   6.495
 8086TIP3   OH224200   0.528   0.775   5.223
 8086TIP3    H124201   0.492   0.781   5.135
 8086TIP3    H224202   0.451   0.763   5.280
 8087TIP3   OH224203   7.449   5.707   3.970
 8087TIP3    H124204   7.384   5.770   3.939
 8087TIP3    H224205   7.505   5.758   4.029
 8088TIP3   OH224206   4.430   2.314   0.472
 8088TIP3    H124207   4.357   2.367   0.502
 8088TIP3    H224208   4.394   2.226   0.463
 8089TIP3   OH224209   6.733   5.811   3.889
 8089TIP3    H124210   6.805   5.766   3.844
 8089TIP3    H224211   6.674   5.838   3.819
 8090TIP3   OH224212   2.046   4.687   3.225
 8090TIP3    H124213   2.107   4.760   3.237
 8090TIP3    H224214   2.078   4.619   3.284
 8091TIP3   OH224215   6.500   4.742   2.315
 8091TIP3    H124216   6.566   4.803   2.348
 8091TIP3    H224217   6.534   4.711   2.232
 8092TIP3   OH224218   0.583   2.919   5.055
 8092TIP3    H124219   0.609   2.870   4.976
 8092TIP3    H224220   0.489   2.904   5.062
 8093TIP3   OH224221   1.591   3.490   6.426
 8093TIP3    H124222   1.604   3.416   6.486
 8093TIP3    H224223   1.496   3.498   6.417
 8094TIP3   OH224224   6.635   3.965   0.078
 8094TIP3    H124225   6.690   3.892   0.106
 8094TIP3    H224226   6.598   3.999   0.160
 8095TIP3   OH224227   5.007   6.084   5.083
 8095TIP3    H124228   4.924   6.092   5.130
 8095TIP3    H224229   5.016   5.991   5.064
 8096TIP3   OH224230   7.063   0.566   2.873
 8096TIP3    H124231   7.102   0.632   2.815
 8096TIP3    H224232   7.098   0.483   2.842
 8097TIP3   OH224233   3.494   7.185   1.585
 8097TIP3    H124234   3.574   7.239   1.583
 8097TIP3    H224235   3.442   7.217   1.511
 8098TIP3   OH224236   4.947   5.638   6.565
 8098TIP3    H124237   4.975   5.647   6.474
 8098TIP3    H224238   4.881   5.706   6.577
 8099TIP3   OH224239   1.359   4.021   1.913
 8099TIP3    H124240   1.299   3.960   1.955
 8099TIP3    H224241   1.359   3.995   1.820
 8100TIP3   OH224242   2.340   2.619   1.038
 8100TIP3    H124243   2.274   2.594   0.972
 8100TIP3    H224244   2.299   2.691   1.086
 8101TIP3   OH224245   7.307   3.688   0.089
 8101TIP3    H124246   7.253   3.720   0.162
 8101TIP3    H224247   7.375   3.635   0.131
 8102TIP3   OH224248   2.667   5.047   4.682
 8102TIP3    H124249   2.740   5.086   4.633
 8102TIP3    H224250   2.595   5.109   4.672
 8103TIP3   OH224251   0.034   3.686   5.526
 8103TIP3    H124252  -0.032   3.616   5.520
 8103TIP3    H224253   0.065   3.682   5.616
 8104TIP3   OH224254   7.227   4.595   5.226
 8104TIP3    H124255   7.260   4.658   5.162
 8104TIP3    H224256   7.275   4.615   5.306
 8105TIP3   OH224257   2.559   7.421   3.091
 8105TIP3    H124258   2.528   7.407   3.181
 8105TIP3    H224259   2.619   7.348   3.074
 8106TIP3   OH224260   0.773   7.694   6.535
 8106TIP3    H124261   0.798   7.737   6.616
 8106TIP3    H224262   0.713   7.755   6.492
 8107TIP3   OH224263   0.545   1.920   1.459
 8107TIP3    H124264   0.574   1.830   1.470
 8107TIP3    H224265   0.496   1.921   1.377
 8108TIP3   OH224266   5.324   1.450   5.324
 8108TIP3    H124267   5.311   1.535   5.366
 8108TIP3    H224268   5.325   1.469   5.230
 8109TIP3   OH224269   0.531   1.429   6.251
 8109TIP3    H124270   0.555   1.489   6.181
 8109TIP3    H224271   0.439   1.446   6.268
 8110TIP3   OH224272   3.896   2.083   1.949
 8110TIP3    H124273   3.981   2.093   1.906
 8110TIP3    H224274   3.832   2.101   1.880
 8111TIP3   OH224275   5.767   3.735   0.651
 8111TIP3    H124276   5.821   3.658   0.633
 8111TIP3    H224277   5.807   3.776   0.728
 8112TIP3   OH224278   1.524   2.111   0.843
 8112TIP3    H124279   1.435   2.123   0.875
 8112TIP3    H224280   1.528   2.020   0.815
 8113TIP3   OH224281   4.483   7.445   5.915
 8113TIP3    H124282   4.425   7.481   5.981
 8113TIP3    H224283   4.435   7.455   5.833
 8114TIP3   OH224284   6.307   2.318   3.221
 8114TIP3    H124285   6.317   2.335   3.128
 8114TIP3    H224286   6.275   2.401   3.257
 8115TIP3   OH224287   6.521   5.447   3.436
 8115TIP3    H124288   6.612   5.417   3.434
 8115TIP3    H224289   6.492   5.431   3.526
 8116TIP3   OH224290   6.526   7.158   4.567
 8116TIP3    H124291   6.468   7.145   4.642
 8116TIP3    H224292   6.606   7.112   4.590
 8117TIP3   OH224293   4.306   3.832   6.558
 8117TIP3    H124294   4.346   3.897   6.616
 8117TIP3    H224295   4.217   3.864   6.545
 8118TIP3   OH224296   1.661   1.447   2.289
 8118TIP3    H124297   1.702   1.415   2.370
 8118TIP3    H224298   1.695   1.536   2.279
 8119TIP3   OH224299   0.229   0.830   1.976
 8119TIP3    H124300   0.160   0.768   1.999
 8119TIP3    H224301   0.183   0.913   1.964
 8120TIP3   OH224302   5.152   3.659   0.315
 8120TIP3    H124303   5.145   3.748   0.349
 8120TIP3    H224304   5.195   3.610   0.385
 8121TIP3   OH224305   3.954   4.708   4.545
 8121TIP3    H124306   3.962   4.754   4.629
 8121TIP3    H224307   3.890   4.639   4.561
 8122TIP3   OH224308   4.699   0.636   4.566
 8122TIP3    H124309   4.653   0.641   4.482
 8122TIP3    H224310   4.664   0.710   4.616
 8123TIP3   OH224311   7.959   5.925   2.134
 8123TIP3    H124312   7.893   5.903   2.068
 8123TIP3    H224313   8.042   5.926   2.086
 8124TIP3   OH224314   3.856   6.919   5.215
 8124TIP3    H124315   3.815   6.982   5.156
 8124TIP3    H224316   3.783   6.876   5.259
 8125TIP3   OH224317   4.610   5.789   2.225
 8125TIP3    H124318   4.613   5.739   2.307
 8125TIP3    H224319   4.605   5.881   2.254
 8126TIP3   OH224320   2.213   5.437   6.783
 8126TIP3    H124321   2.177   5.425   6.695
 8126TIP3    H224322   2.144   5.482   6.831
 8127TIP3   OH224323   7.606   2.875   6.082
 8127TIP3    H124324   7.560   2.918   6.010
 8127TIP3    H224325   7.543   2.813   6.117
 8128TIP3   OH224326   8.060   7.279   3.367
 8128TIP3    H124327   7.978   7.319   3.338
 8128TIP3    H224328   8.076   7.208   3.305
 8129TIP3   OH224329   5.506   7.233   4.245
 8129TIP3    H124330   5.454   7.219   4.166
 8129TIP3    H224331   5.487   7.323   4.271
 8130TIP3   OH224332   2.016   4.733   2.567
 8130TIP3    H124333   1.940   4.689   2.530
 8130TIP3    H224334   1.991   4.755   2.656
 8131TIP3   OH224335   5.554   0.382   4.830
 8131TIP3    H124336   5.538   0.392   4.737
 8131TIP3    H224337   5.638   0.335   4.835
 8132TIP3   OH224338   3.301   4.412   1.826
 8132TIP3    H124339   3.340   4.499   1.835
 8132TIP3    H224340   3.366   4.361   1.778
 8133TIP3   OH224341   1.465   5.054   0.423
 8133TIP3    H124342   1.411   4.977   0.444
 8133TIP3    H224343   1.549   5.017   0.394
 8134TIP3   OH224344   0.764   3.380   6.629
 8134TIP3    H124345   0.805   3.455   6.672
 8134TIP3    H224346   0.698   3.350   6.692
 8135TIP3   OH224347   8.322   2.810   2.763
 8135TIP3    H124348   8.340   2.855   2.846
 8135TIP3    H224349   8.231   2.831   2.744
 8136TIP3   OH224350   6.009   2.198   3.042
 8136TIP3    H124351   6.020   2.265   3.109
 8136TIP3    H224352   6.043   2.237   2.962
 8137TIP3   OH224353   0.194   2.353   4.736
 8137TIP3    H124354   0.277   2.380   4.699
 8137TIP3    H224355   0.195   2.385   4.826
 8138TIP3   OH224356   3.535   5.234   1.005
 8138TIP3    H124357   3.501   5.319   1.034
 8138TIP3    H224358   3.518   5.175   1.079
 8139TIP3   OH224359   0.671   6.261   5.414
 8139TIP3    H124360   0.689   6.306   5.332
 8139TIP3    H224361   0.620   6.184   5.388
 8140TIP3   OH224362   7.963   7.313   0.724
 8140TIP3    H124363   7.994   7.362   0.800
 8140TIP3    H224364   7.996   7.224   0.738
 8141TIP3   OH224365   1.051   5.491   6.467
 8141TIP3    H124366   1.034   5.468   6.558
 8141TIP3    H224367   1.042   5.408   6.420
 8142TIP3   OH224368   0.791   5.911   5.221
 8142TIP3    H124369   0.725   5.956   5.275
 8142TIP3    H224370   0.832   5.848   5.281
 8143TIP3   OH224371   5.872   2.733   0.327
 8143TIP3    H124372   5.800   2.744   0.265
 8143TIP3    H224373   5.936   2.799   0.300
 8144TIP3   OH224374   1.078   1.236   0.070
 8144TIP3    H124375   1.140   1.219  -0.001
 8144TIP3    H224376   1.049   1.326   0.056
 8145TIP3   OH224377   7.155   7.072   1.150
 8145TIP3    H124378   7.059   7.069   1.157
 8145TIP3    H224379   7.186   7.026   1.228
 8146TIP3   OH224380   6.293   5.481   6.602
 8146TIP3    H124381   6.245   5.564   6.600
 8146TIP3    H224382   6.369   5.499   6.657
 8147TIP3   OH224383   7.120   7.020   1.605
 8147TIP3    H124384   7.163   7.104   1.591
 8147TIP3    H224385   7.120   7.008   1.700
 8148TIP3   OH224386   2.944   2.998   1.663
 8148TIP3    H124387   3.002   2.967   1.593
 8148TIP3    H224388   2.862   3.018   1.619
 8149TIP3   OH224389   6.770   3.607   0.730
 8149TIP3    H124390   6.843   3.587   0.789
 8149TIP3    H224391   6.776   3.701   0.715
 8150TIP3   OH224392   1.744   2.522   0.661
 8150TIP3    H124393   1.763   2.430   0.643
 8150TIP3    H224394   1.682   2.548   0.593
 8151TIP3   OH224395   3.048   7.478   3.826
 8151TIP3    H124396   3.086   7.565   3.813
 8151TIP3    H224397   3.035   7.445   3.737
 8152TIP3   OH224398   7.225   6.010   3.506
 8152TIP3    H124399   7.231   5.965   3.421
 8152TIP3    H224400   7.198   5.941   3.567
 8153TIP3   OH224401   2.624   4.354   6.045
 8153TIP3    H124402   2.665   4.376   6.128
 8153TIP3    H224403   2.535   4.388   6.053
 8154TIP3   OH224404   0.710   6.659   3.862
 8154TIP3    H124405   0.802   6.659   3.887
 8154TIP3    H224406   0.693   6.747   3.830
 8155TIP3   OH224407   5.972   4.415   2.593
 8155TIP3    H124408   6.027   4.420   2.672
 8155TIP3    H224409   6.029   4.375   2.527
 8156TIP3   OH224410   5.145   0.223   0.357
 8156TIP3    H124411   5.084   0.285   0.396
 8156TIP3    H224412   5.121   0.138   0.395
 8157TIP3   OH224413   0.629   5.317   4.479
 8157TIP3    H124414   0.599   5.239   4.525
 8157TIP3    H224415   0.724   5.311   4.480
 8158TIP3   OH224416   6.630   6.349   0.107
 8158TIP3    H124417   6.618   6.255   0.126
 8158TIP3    H224418   6.717   6.355   0.069
 8159TIP3   OH224419   2.580   7.129   0.709
 8159TIP3    H124420   2.529   7.087   0.640
 8159TIP3    H224421   2.522   7.129   0.785
 8160TIP3   OH224422   4.000   2.082   5.284
 8160TIP3    H124423   3.911   2.049   5.297
 8160TIP3    H224424   3.988   2.168   5.245
 8161TIP3   OH224425   1.212   1.399   5.985
 8161TIP3    H124426   1.248   1.378   6.071
 8161TIP3    H224427   1.117   1.397   5.997
 8162TIP3   OH224428   2.437   5.147   4.383
 8162TIP3    H124429   2.350   5.184   4.393
 8162TIP3    H224430   2.426   5.075   4.320
 8163TIP3   OH224431   4.752   5.028   0.565
 8163TIP3    H124432   4.728   5.108   0.517
 8163TIP3    H224433   4.819   4.986   0.510
 8164TIP3   OH224434   1.842   7.623   5.282
 8164TIP3    H124435   1.855   7.631   5.187
 8164TIP3    H224436   1.757   7.664   5.298
 8165TIP3   OH224437   1.044   0.637   3.851
 8165TIP3    H124438   0.999   0.721   3.856
 8165TIP3    H224439   1.115   0.651   3.789
 8166TIP3   OH224440   0.425   1.781   4.233
 8166TIP3    H124441   0.349   1.837   4.216
 8166TIP3    H224442   0.389   1.692   4.229
 8167TIP3   OH224443   2.660   2.402   5.769
 8167TIP3    H124444   2.688   2.493   5.757
 8167TIP3    H224445   2.580   2.395   5.716
 8168TIP3   OH224446   4.786   5.075   0.845
 8168TIP3    H124447   4.695   5.099   0.861
 8168TIP3    H224448   4.790   5.053   0.752
 8169TIP3   OH224449   6.152   0.970   5.798
 8169TIP3    H124450   6.133   0.979   5.891
 8169TIP3    H224451   6.218   0.901   5.793
 8170TIP3   OH224452   3.777   5.805   2.217
 8170TIP3    H124453   3.748   5.881   2.268
 8170TIP3    H224454   3.713   5.737   2.236
 8171TIP3   OH224455   0.525   0.606   0.739
 8171TIP3    H124456   0.581   0.528   0.743
 8171TIP3    H224457   0.513   0.631   0.831
 8172TIP3   OH224458   0.098   3.882   0.596
 8172TIP3    H124459   0.029   3.828   0.557
 8172TIP3    H224460   0.175   3.825   0.596
 8173TIP3   OH224461   0.231   5.201   6.735
 8173TIP3    H124462   0.299   5.268   6.741
 8173TIP3    H224463   0.150   5.251   6.726
 8174TIP3   OH224464   6.725   2.052   4.753
 8174TIP3    H124465   6.776   2.039   4.832
 8174TIP3    H224466   6.634   2.044   4.782
 8175TIP3   OH224467   5.862   7.267   3.815
 8175TIP3    H124468   5.900   7.355   3.816
 8175TIP3    H224469   5.890   7.229   3.899
 8176TIP3   OH224470   6.621   7.449   2.594
 8176TIP3    H124471   6.564   7.374   2.612
 8176TIP3    H224472   6.591   7.482   2.510
 8177TIP3   OH224473   5.524   2.747   6.138
 8177TIP3    H124474   5.496   2.776   6.051
 8177TIP3    H224475   5.470   2.798   6.198
 8178TIP3   OH224476   0.388   0.190   5.794
 8178TIP3    H124477   0.464   0.237   5.761
 8178TIP3    H224478   0.411   0.097   5.784
 8179TIP3   OH224479   4.313   6.721   2.702
 8179TIP3    H124480   4.241   6.763   2.750
 8179TIP3    H224481   4.269   6.659   2.644
 8180TIP3   OH224482   6.533   5.343   5.475
 8180TIP3    H124483   6.454   5.348   5.529
 8180TIP3    H224484   6.601   5.310   5.534
 8181TIP3   OH224485   2.293   4.335   3.649
 8181TIP3    H124486   2.235   4.274   3.604
 8181TIP3    H224487   2.323   4.394   3.580
 8182TIP3   OH224488   4.307   1.302   0.404
 8182TIP3    H124489   4.246   1.295   0.477
 8182TIP3    H224490   4.267   1.250   0.334
 8183TIP3   OH224491   3.906   7.540   1.573
 8183TIP3    H124492   3.862   7.551   1.657
 8183TIP3    H224493   3.910   7.629   1.536
 8184TIP3   OH224494   2.270   0.913   5.642
 8184TIP3    H124495   2.274   0.947   5.731
 8184TIP3    H224496   2.216   0.977   5.594
 8185TIP3   OH224497   0.723   0.964   0.468
 8185TIP3    H124498   0.755   1.050   0.495
 8185TIP3    H224499   0.629   0.966   0.486
 8186TIP3   OH224500   6.985   3.849   2.378
 8186TIP3    H124501   6.898   3.813   2.361
 8186TIP3    H224502   7.001   3.829   2.471
 8187TIP3   OH224503   0.777   0.315   0.485
 8187TIP3    H124504   0.726   0.388   0.520
 8187TIP3    H224505   0.755   0.242   0.543
 8188TIP3   OH224506   3.334   7.045   5.732
 8188TIP3    H124507   3.383   7.095   5.798
 8188TIP3    H224508   3.243   7.076   5.741
 8189TIP3   OH224509   4.346   3.334   3.421
 8189TIP3    H124510   4.314   3.419   3.453
 8189TIP3    H224511   4.374   3.288   3.500
 8190TIP3   OH224512   3.576   5.523   5.169
 8190TIP3    H124513   3.496   5.554   5.126
 8190TIP3    H224514   3.580   5.430   5.147
 8191TIP3   OH224515   7.965   4.183   3.855
 8191TIP3    H124516   7.915   4.128   3.795
 8191TIP3    H224517   8.052   4.143   3.858
 8192TIP3   OH224518   5.119   3.974   5.803
 8192TIP3    H124519   5.131   4.006   5.714
 8192TIP3    H224520   5.207   3.974   5.841
 8193TIP3   OH224521   6.708   7.533   1.033
 8193TIP3    H124522   6.732   7.615   1.077
 8193TIP3    H224523   6.632   7.556   0.980
 8194TIP3   OH224524   0.443   5.077   3.683
 8194TIP3    H124525   0.356   5.041   3.668
 8194TIP3    H224526   0.440   5.111   3.772
 8195TIP3   OH224527   4.739   3.317   3.058
 8195TIP3    H124528   4.740   3.225   3.031
 8195TIP3    H224529   4.655   3.328   3.103
 8196TIP3   OH224530   3.912   6.324   6.596
 8196TIP3    H124531   3.923   6.257   6.529
 8196TIP3    H224532   3.972   6.395   6.569
 8197TIP3   OH224533   3.135   1.721   3.377
 8197TIP3    H124534   3.197   1.737   3.306
 8197TIP3    H224535   3.166   1.640   3.418
 8198TIP3   OH224536   1.402   4.208   3.614
 8198TIP3    H124537   1.323   4.177   3.657
 8198TIP3    H224538   1.372   4.235   3.527
 8199TIP3   OH224539   1.828   7.030   4.396
 8199TIP3    H124540   1.745   7.075   4.378
 8199TIP3    H224541   1.869   7.021   4.310
 8200TIP3   OH224542   7.145   7.068   6.415
 8200TIP3    H124543   7.201   7.040   6.487
 8200TIP3    H224544   7.063   7.021   6.427
 8201TIP3   OH224545   0.596   7.400   0.595
 8201TIP3    H124546   0.549   7.464   0.542
 8201TIP3    H224547   0.687   7.428   0.593
 8202TIP3   OH224548   5.907   2.514   4.161
 8202TIP3    H124549   5.913   2.609   4.164
 8202TIP3    H224550   5.984   2.487   4.111
 8203TIP3   OH224551   5.980   0.581   1.343
 8203TIP3    H124552   5.986   0.508   1.406
 8203TIP3    H224553   6.061   0.576   1.294
 8204TIP3   OH224554   3.873   3.522   3.122
 8204TIP3    H124555   3.834   3.492   3.204
 8204TIP3    H224556   3.834   3.608   3.107
 8205TIP3   OH224557   0.976   3.424   1.437
 8205TIP3    H124558   1.004   3.346   1.388
 8205TIP3    H224559   0.889   3.402   1.469
 8206TIP3   OH224560   3.921   3.374   6.655
 8206TIP3    H124561   3.919   3.351   6.562
 8206TIP3    H224562   3.889   3.296   6.700
 8207TIP3   OH224563   5.635   4.636   3.225
 8207TIP3    H124564   5.635   4.728   3.196
 8207TIP3    H224565   5.720   4.623   3.266
 8208TIP3   OH224566   4.631   4.189   3.899
 8208TIP3    H124567   4.680   4.202   3.980
 8208TIP3    H224568   4.541   4.176   3.928
 8209TIP3   OH224569   4.356   6.648   5.338
 8209TIP3    H124570   4.384   6.737   5.314
 8209TIP3    H224571   4.370   6.643   5.432
 8210TIP3   OH224572   3.275   1.591   2.651
 8210TIP3    H124573   3.249   1.502   2.628
 8210TIP3    H224574   3.244   1.645   2.578
 8211TIP3   OH224575   4.542   0.185   2.459
 8211TIP3    H124576   4.609   0.121   2.483
 8211TIP3    H224577   4.463   0.132   2.448
 8212TIP3   OH224578   4.531   0.647   5.921
 8212TIP3    H124579   4.474   0.723   5.936
 8212TIP3    H224580   4.591   0.647   5.996
 8213TIP3   OH224581   3.571   7.676   0.691
 8213TIP3    H124582   3.610   7.650   0.608
 8213TIP3    H224583   3.481   7.700   0.670
 8214TIP3   OH224584   3.582   3.016   3.962
 8214TIP3    H124585   3.591   2.921   3.969
 8214TIP3    H224586   3.487   3.031   3.964
 8215TIP3   OH224587   6.807   0.394   2.859
 8215TIP3    H124588   6.888   0.381   2.909
 8215TIP3    H224589   6.837   0.418   2.771
 8216TIP3   OH224590   0.955   4.178   3.827
 8216TIP3    H124591   0.947   4.099   3.881
 8216TIP3    H224592   0.914   4.246   3.879
 8217TIP3   OH224593   2.780   3.089   5.791
 8217TIP3    H124594   2.840   3.037   5.738
 8217TIP3    H224595   2.698   3.089   5.741
 8218TIP3   OH224596   2.909   1.780   1.372
 8218TIP3    H124597   2.829   1.805   1.326
 8218TIP3    H224598   2.917   1.686   1.359
 8219TIP3   OH224599   6.181   3.995   0.537
 8219TIP3    H124600   6.088   4.007   0.554
 8219TIP3    H224601   6.205   4.069   0.481
 8220TIP3   OH224602   4.075   7.797   5.200
 8220TIP3    H124603   3.990   7.792   5.155
 8220TIP3    H224604   4.120   7.870   5.159
 8221TIP3   OH224605   7.315   5.229   5.772
 8221TIP3    H124606   7.282   5.317   5.795
 8221TIP3    H224607   7.405   5.228   5.804
 8222TIP3   OH224608   1.354   1.955   6.644
 8222TIP3    H124609   1.432   2.010   6.652
 8222TIP3    H224610   1.387   1.868   6.621
 8223TIP3   OH224611   5.455   4.157   5.607
 8223TIP3    H124612   5.394   4.100   5.654
 8223TIP3    H224613   5.417   4.245   5.616
 8224TIP3   OH224614   1.526   7.586   0.061
 8224TIP3    H124615   1.483   7.645  -0.001
 8224TIP3    H224616   1.611   7.567   0.020
 8225TIP3   OH224617   4.726   4.583   1.602
 8225TIP3    H124618   4.810   4.630   1.600
 8225TIP3    H224619   4.730   4.531   1.682
 8226TIP3   OH224620   2.153   3.542   1.031
 8226TIP3    H124621   2.113   3.469   1.078
 8226TIP3    H224622   2.159   3.512   0.940
 8227TIP3   OH224623   2.663   5.939   4.171
 8227TIP3    H124624   2.569   5.941   4.184
 8227TIP3    H224625   2.693   6.025   4.202
 8228TIP3   OH224626   4.900   0.709   3.071
 8228TIP3    H124627   4.823   0.730   3.019
 8228TIP3    H224628   4.881   0.624   3.110
 8229TIP3   OH224629   6.336   3.907   3.752
 8229TIP3    H124630   6.404   3.965   3.717
 8229TIP3    H224631   6.352   3.823   3.709
 8230TIP3   OH224632   1.877   3.948   2.336
 8230TIP3    H124633   1.973   3.950   2.335
 8230TIP3    H224634   1.851   3.957   2.244
 8231TIP3   OH224635   7.907   6.615   6.536
 8231TIP3    H124636   7.930   6.692   6.484
 8231TIP3    H224637   7.811   6.610   6.530
 8232TIP3   OH224638   3.078   7.681   3.221
 8232TIP3    H124639   3.028   7.603   3.198
 8232TIP3    H224640   3.130   7.701   3.143
 8233TIP3   OH224641   4.161   7.278   5.443
 8233TIP3    H124642   4.100   7.348   5.465
 8233TIP3    H224643   4.165   7.279   5.348
 8234TIP3   OH224644   3.298   3.092   4.522
 8234TIP3    H124645   3.375   3.144   4.545
 8234TIP3    H224646   3.287   3.031   4.595
 8235TIP3   OH224647   4.528   3.214   0.323
 8235TIP3    H124648   4.552   3.212   0.416
 8235TIP3    H224649   4.606   3.247   0.279
 8236TIP3   OH224650   2.886   3.794   5.280
 8236TIP3    H124651   2.800   3.791   5.322
 8236TIP3    H224652   2.926   3.875   5.312
 8237TIP3   OH224653   6.697   3.439   5.731
 8237TIP3    H124654   6.636   3.422   5.803
 8237TIP3    H224655   6.738   3.354   5.713
 8238TIP3   OH224656   7.503   0.948   5.625
 8238TIP3    H124657   7.563   1.018   5.649
 8238TIP3    H224658   7.428   0.992   5.585
 8239TIP3   OH224659   2.025   6.679   4.991
 8239TIP3    H124660   1.935   6.670   5.023
 8239TIP3    H224661   2.020   6.653   4.899
 8240TIP3   OH224662   4.074   6.449   1.101
 8240TIP3    H124663   4.060   6.538   1.070
 8240TIP3    H224664   4.005   6.435   1.166
 8241TIP3   OH224665   4.072   6.498   6.466
 8241TIP3    H124666   4.102   6.460   6.384
 8241TIP3    H224667   4.028   6.579   6.441
 8242TIP3   OH224668   7.593   5.704   6.478
 8242TIP3    H124669   7.517   5.747   6.438
 8242TIP3    H224670   7.574   5.611   6.470
 8243TIP3   OH224671   4.085   6.881   4.640
 8243TIP3    H124672   3.995   6.903   4.616
 8243TIP3    H224673   4.079   6.854   4.732
 8244TIP3   OH224674   2.182   3.422   6.588
 8244TIP3    H124675   2.125   3.416   6.665
 8244TIP3    H224676   2.271   3.415   6.623
 8245TIP3   OH224677   4.054   3.255   6.017
 8245TIP3    H124678   3.971   3.212   6.038
 8245TIP3    H224679   4.091   3.279   6.102
 8246TIP3   OH224680   5.221   3.794   1.286
 8246TIP3    H124681   5.152   3.733   1.313
 8246TIP3    H224682   5.296   3.770   1.340
 8247TIP3   OH224683   5.572   0.309   0.967
 8247TIP3    H124684   5.479   0.295   0.982
 8247TIP3    H224685   5.603   0.355   1.045
 8248TIP3   OH224686   3.797   5.092   6.219
 8248TIP3    H124687   3.843   5.022   6.173
 8248TIP3    H224688   3.780   5.057   6.307
 8249TIP3   OH224689   1.651   6.999   5.974
 8249TIP3    H124690   1.710   6.925   5.986
 8249TIP3    H224691   1.708   7.070   5.945
 8250TIP3   OH224692   1.645   0.078   2.609
 8250TIP3    H124693   1.623  -0.014   2.624
 8250TIP3    H224694   1.735   0.075   2.576
 8251TIP3   OH224695   3.345   2.249   1.671
 8251TIP3    H124696   3.349   2.154   1.686
 8251TIP3    H224697   3.327   2.286   1.757
 8252TIP3   OH224698   3.537   7.810   2.284
 8252TIP3    H124699   3.604   7.796   2.352
 8252TIP3    H224700   3.553   7.740   2.221
 8253TIP3   OH224701   8.039   3.896   2.489
 8253TIP3    H124702   7.994   3.926   2.568
 8253TIP3    H224703   8.132   3.909   2.508
 8254TIP3   OH224704   7.383   5.254   6.336
 8254TIP3    H124705   7.424   5.177   6.376
 8254TIP3    H224706   7.430   5.329   6.372
 8255TIP3   OH224707   6.344   3.021   2.891
 8255TIP3    H124708   6.414   3.010   2.956
 8255TIP3    H224709   6.266   2.987   2.935
 8256TIP3   OH224710   5.517   2.615   1.649
 8256TIP3    H124711   5.537   2.544   1.710
 8256TIP3    H224712   5.594   2.620   1.592
 8257TIP3   OH224713   7.198   0.711   4.454
 8257TIP3    H124714   7.117   0.709   4.505
 8257TIP3    H224715   7.267   0.721   4.520
 8258TIP3   OH224716   0.530   7.448   4.370
 8258TIP3    H124717   0.602   7.459   4.309
 8258TIP3    H224718   0.562   7.486   4.452
 8259TIP3   OH224719   3.976   0.977   6.609
 8259TIP3    H124720   3.950   0.957   6.519
 8259TIP3    H224721   4.010   1.067   6.604
 8260TIP3   OH224722   7.905   2.693   5.395
 8260TIP3    H124723   7.973   2.651   5.342
 8260TIP3    H224724   7.889   2.777   5.352
 8261TIP3   OH224725   5.205   5.921   5.293
 8261TIP3    H124726   5.211   5.863   5.217
 8261TIP3    H224727   5.141   5.987   5.267
 8262TIP3   OH224728   7.093   2.390   2.511
 8262TIP3    H124729   7.185   2.379   2.534
 8262TIP3    H224730   7.054   2.433   2.588
 8263TIP3   OH224731   2.751   5.575   1.684
 8263TIP3    H124732   2.659   5.569   1.658
 8263TIP3    H224733   2.763   5.503   1.746
 8264TIP3   OH224734   2.812   1.113   0.282
 8264TIP3    H124735   2.720   1.092   0.295
 8264TIP3    H224736   2.812   1.195   0.233
 8265TIP3   OH224737   0.066   1.379   6.077
 8265TIP3    H124738   0.044   1.451   6.019
 8265TIP3    H224739   0.107   1.421   6.153
 8266TIP3   OH224740   8.128   6.705   4.673
 8266TIP3    H124741   8.080   6.625   4.655
 8266TIP3    H224742   8.206   6.676   4.720
 8267TIP3   OH224743   0.808   1.873   3.825
 8267TIP3    H124744   0.731   1.830   3.861
 8267TIP3    H224745   0.879   1.848   3.885
 8268TIP3   OH224746   3.981   4.226   0.996
 8268TIP3    H124747   3.900   4.265   0.963
 8268TIP3    H224748   3.998   4.273   1.078
 8269TIP3   OH224749   4.577   6.187   5.704
 8269TIP3    H124750   4.643   6.124   5.733
 8269TIP3    H224751   4.558   6.239   5.783
 8270TIP3   OH224752   6.682   1.545   0.069
 8270TIP3    H124753   6.714   1.459   0.044
 8270TIP3    H224754   6.759   1.590   0.104
 8271TIP3   OH224755   7.571   0.431   1.973
 8271TIP3    H124756   7.645   0.386   2.015
 8271TIP3    H224757   7.512   0.452   2.046
 8272TIP3   OH224758   0.620   3.904   2.092
 8272TIP3    H124759   0.576   3.839   2.039
 8272TIP3    H224760   0.646   3.857   2.172
 8273TIP3   OH224761   7.331   6.169   0.470
 8273TIP3    H124762   7.296   6.236   0.412
 8273TIP3    H224763   7.259   6.107   0.481
 8274TIP3   OH224764   7.559   0.153   4.250
 8274TIP3    H124765   7.557   0.243   4.217
 8274TIP3    H224766   7.489   0.108   4.202
 8275TIP3   OH224767   1.781   7.433   1.314
 8275TIP3    H124768   1.773   7.529   1.312
 8275TIP3    H224769   1.860   7.414   1.264
 8276TIP3   OH224770   4.165   6.822   5.861
 8276TIP3    H124771   4.208   6.809   5.946
 8276TIP3    H224772   4.229   6.870   5.809
 8277TIP3   OH224773   8.284   4.219   5.880
 8277TIP3    H124774   8.316   4.151   5.820
 8277TIP3    H224775   8.305   4.301   5.836
 8278TIP3   OH224776   2.649   7.611   5.164
 8278TIP3    H124777   2.642   7.521   5.197
 8278TIP3    H224778   2.731   7.612   5.115
 8279TIP3   OH224779   4.566   4.558   3.577
 8279TIP3    H124780   4.658   4.537   3.594
 8279TIP3    H224781   4.523   4.474   3.564
 8280TIP3   OH224782   7.883   4.681   3.307
 8280TIP3    H124783   7.966   4.634   3.296
 8280TIP3    H224784   7.817   4.612   3.310
 8281TIP3   OH224785   2.350   4.081   1.627
 8281TIP3    H124786   2.365   4.105   1.718
 8281TIP3    H224787   2.437   4.082   1.587
 8282TIP3   OH224788   3.361   0.843   6.389
 8282TIP3    H124789   3.413   0.834   6.309
 8282TIP3    H224790   3.413   0.900   6.445
 8283TIP3   OH224791   0.782   3.436   5.952
 8283TIP3    H124792   0.781   3.357   6.007
 8283TIP3    H224793   0.798   3.508   6.013
 8284TIP3   OH224794   0.261   4.378   0.571
 8284TIP3    H124795   0.233   4.297   0.612
 8284TIP3    H224796   0.252   4.444   0.640
 8285TIP3   OH224797   5.011   1.470   5.655
 8285TIP3    H124798   4.980   1.459   5.745
 8285TIP3    H224799   4.938   1.512   5.609
 8286TIP3   OH224800   6.554   6.376   6.724
 8286TIP3    H124801   6.582   6.392   6.635
 8286TIP3    H224802   6.576   6.457   6.771
 8287TIP3   OH224803   0.501   7.683   3.841
 8287TIP3    H124804   0.432   7.719   3.786
 8287TIP3    H224805   0.488   7.725   3.926
 8288TIP3   OH224806   1.294   5.677   0.111
 8288TIP3    H124807   1.313   5.767   0.137
 8288TIP3    H224808   1.202   5.664   0.135
 8289TIP3   OH224809   1.030   2.166   6.327
 8289TIP3    H124810   0.937   2.144   6.334
 8289TIP3    H224811   1.075   2.097   6.376
 8290TIP3   OH224812   1.616   1.636   4.678
 8290TIP3    H124813   1.620   1.721   4.635
 8290TIP3    H224814   1.651   1.651   4.766
 8291TIP3   OH224815   3.485   4.748   3.166
 8291TIP3    H124816   3.464   4.737   3.259
 8291TIP3    H224817   3.453   4.836   3.145
 8292TIP3   OH224818   5.689   6.668   3.100
 8292TIP3    H124819   5.647   6.659   3.015
 8292TIP3    H224820   5.737   6.586   3.112
 8293TIP3   OH224821   7.312   7.473   2.546
 8293TIP3    H124822   7.312   7.459   2.641
 8293TIP3    H224823   7.396   7.516   2.528
 8294TIP3   OH224824   3.255   4.222   3.099
 8294TIP3    H124825   3.316   4.295   3.091
 8294TIP3    H224826   3.213   4.216   3.013
 8295TIP3   OH224827   5.819   3.099   6.485
 8295TIP3    H124828   5.768   3.150   6.548
 8295TIP3    H224829   5.767   3.020   6.470
 8296TIP3   OH224830   6.723   1.266   2.468
 8296TIP3    H124831   6.735   1.358   2.491
 8296TIP3    H224832   6.718   1.267   2.372
 8297TIP3   OH224833   6.771   4.464   4.421
 8297TIP3    H124834   6.814   4.440   4.339
 8297TIP3    H224835   6.679   4.478   4.397
 8298TIP3   OH224836   5.304   7.567   4.748
 8298TIP3    H124837   5.257   7.646   4.723
 8298TIP3    H224838   5.333   7.583   4.838
 8299TIP3   OH224839   2.367   0.347   0.973
 8299TIP3    H124840   2.373   0.326   1.066
 8299TIP3    H224841   2.329   0.268   0.934
 8300TIP3   OH224842   4.771   2.472   3.311
 8300TIP3    H124843   4.693   2.431   3.349
 8300TIP3    H224844   4.844   2.428   3.356
 8301TIP3   OH224845   2.851   6.333   5.631
 8301TIP3    H124846   2.885   6.419   5.654
 8301TIP3    H224847   2.845   6.285   5.714
 8302TIP3   OH224848   4.272   7.130   4.478
 8302TIP3    H124849   4.292   7.110   4.569
 8302TIP3    H224850   4.334   7.199   4.454
 8303TIP3   OH224851   2.394   7.350   1.113
 8303TIP3    H124852   2.470   7.407   1.106
 8303TIP3    H224853   2.378   7.343   1.207
 8304TIP3   OH224854   7.066   3.397   6.718
 8304TIP3    H124855   7.070   3.448   6.799
 8304TIP3    H224856   7.154   3.406   6.680
 8305TIP3   OH224857   6.660   0.131   3.353
 8305TIP3    H124858   6.652   0.186   3.275
 8305TIP3    H224859   6.675   0.192   3.424
 8306TIP3   OH224860   1.552   5.846   2.701
 8306TIP3    H124861   1.500   5.882   2.773
 8306TIP3    H224862   1.543   5.909   2.630
 8307TIP3   OH224863   4.546   3.718   1.585
 8307TIP3    H124864   4.512   3.807   1.572
 8307TIP3    H224865   4.547   3.706   1.680
 8308TIP3   OH224866   5.626   3.215   2.824
 8308TIP3    H124867   5.574   3.293   2.841
 8308TIP3    H224868   5.567   3.157   2.775
 8309TIP3   OH224869   6.978   3.653   0.905
 8309TIP3    H124870   6.946   3.683   0.990
 8309TIP3    H224871   7.020   3.569   0.924
 8310TIP3   OH224872   4.027   4.295   0.474
 8310TIP3    H124873   4.007   4.335   0.559
 8310TIP3    H224874   3.943   4.289   0.430
 8311TIP3   OH224875   4.457   0.940   2.367
 8311TIP3    H124876   4.405   0.868   2.401
 8311TIP3    H224877   4.539   0.900   2.340
 8312TIP3   OH224878   1.553   6.688   1.497
 8312TIP3    H124879   1.618   6.726   1.439
 8312TIP3    H224880   1.471   6.732   1.475
 8313TIP3   OH224881   0.737   0.194   1.997
 8313TIP3    H124882   0.644   0.213   2.011
 8313TIP3    H224883   0.770   0.172   2.084
 8314TIP3   OH224884   0.952   4.572   2.343
 8314TIP3    H124885   0.912   4.486   2.329
 8314TIP3    H224886   0.906   4.608   2.419
 8315TIP3   OH224887   3.631   2.793   2.997
 8315TIP3    H124888   3.601   2.876   2.962
 8315TIP3    H224889   3.583   2.726   2.948
 8316TIP3   OH224890   1.573   6.061   5.862
 8316TIP3    H124891   1.578   6.145   5.907
 8316TIP3    H224892   1.526   6.080   5.781
 8317TIP3   OH224893   4.807   6.543   6.605
 8317TIP3    H124894   4.831   6.513   6.518
 8317TIP3    H224895   4.771   6.630   6.592
 8318TIP3   OH224896   6.294   2.264   0.877
 8318TIP3    H124897   6.224   2.299   0.822
 8318TIP3    H224898   6.259   2.183   0.912
 8319TIP3   OH224899   7.596   5.252   1.130
 8319TIP3    H124900   7.643   5.317   1.078
 8319TIP3    H224901   7.539   5.304   1.187
 8320TIP3   OH224902   7.364   0.263   0.268
 8320TIP3    H124903   7.439   0.240   0.324
 8320TIP3    H224904   7.340   0.181   0.225
 8321TIP3   OH224905   2.109   0.315   6.346
 8321TIP3    H124906   2.042   0.310   6.278
 8321TIP3    H224907   2.144   0.226   6.352
 8322TIP3   OH224908   7.013   3.458   3.769
 8322TIP3    H124909   7.002   3.511   3.690
 8322TIP3    H224910   6.933   3.475   3.820
 8323TIP3   OH224911   3.329   4.243   1.079
 8323TIP3    H124912   3.382   4.290   1.014
 8323TIP3    H224913   3.257   4.206   1.029
 8324TIP3   OH224914   4.027   4.188   4.908
 8324TIP3    H124915   3.984   4.127   4.848
 8324TIP3    H224916   3.955   4.229   4.955
 8325TIP3   OH224917   2.338   4.216   4.106
 8325TIP3    H124918   2.350   4.281   4.037
 8325TIP3    H224919   2.341   4.132   4.060
 8326TIP3   OH224920   2.418   1.392   2.957
 8326TIP3    H124921   2.496   1.348   2.991
 8326TIP3    H224922   2.357   1.392   3.031
 8327TIP3   OH224923   6.386   5.357   3.680
 8327TIP3    H124924   6.329   5.411   3.626
 8327TIP3    H224925   6.344   5.358   3.766
 8328TIP3   OH224926   1.516   6.113   6.428
 8328TIP3    H124927   1.569   6.117   6.508
 8328TIP3    H224928   1.545   6.033   6.384
 8329TIP3   OH224929   3.520   4.200   2.738
 8329TIP3    H124930   3.548   4.111   2.757
 8329TIP3    H224931   3.512   4.203   2.643
 8330TIP3   OH224932   6.681   6.055   6.397
 8330TIP3    H124933   6.629   6.040   6.318
 8330TIP3    H224934   6.710   6.146   6.390
 8331TIP3   OH224935   5.100   6.542   4.453
 8331TIP3    H124936   5.062   6.544   4.365
 8331TIP3    H224937   5.026   6.562   4.511
 8332TIP3   OH224938   8.188   5.324   1.820
 8332TIP3    H124939   8.111   5.328   1.765
 8332TIP3    H224940   8.253   5.275   1.768
 8333TIP3   OH224941   0.513   7.458   1.718
 8333TIP3    H124942   0.592   7.404   1.714
 8333TIP3    H224943   0.543   7.547   1.700
 8334TIP3   OH224944   2.953   2.602   4.287
 8334TIP3    H124945   2.898   2.678   4.270
 8334TIP3    H224946   2.911   2.530   4.240
 8335TIP3   OH224947   5.552   5.257   4.403
 8335TIP3    H124948   5.530   5.164   4.408
 8335TIP3    H224949   5.646   5.260   4.418
 8336TIP3   OH224950   5.717   4.083   4.564
 8336TIP3    H124951   5.792   4.090   4.623
 8336TIP3    H224952   5.647   4.047   4.618
 8337TIP3   OH224953   6.321   2.543   5.145
 8337TIP3    H124954   6.416   2.533   5.153
 8337TIP3    H224955   6.298   2.611   5.209
 8338TIP3   OH224956   2.064   0.763   4.895
 8338TIP3    H124957   2.069   0.683   4.947
 8338TIP3    H224958   2.041   0.734   4.807
 8339TIP3   OH224959   6.317   2.848   2.657
 8339TIP3    H124960   6.222   2.845   2.647
 8339TIP3    H224961   6.333   2.917   2.721
 8340TIP3   OH224962   5.359   1.757   2.814
 8340TIP3    H124963   5.303   1.817   2.764
 8340TIP3    H224964   5.444   1.802   2.819
 8341TIP3   OH224965   4.780   7.726   2.579
 8341TIP3    H124966   4.864   7.712   2.622
 8341TIP3    H224967   4.742   7.639   2.571
 8342TIP3   OH224968   6.414   7.557   1.298
 8342TIP3    H124969   6.369   7.585   1.219
 8342TIP3    H224970   6.344   7.546   1.363
 8343TIP3   OH224971   2.567   3.777   3.270
 8343TIP3    H124972   2.627   3.710   3.236
 8343TIP3    H224973   2.574   3.848   3.206
 8344TIP3   OH224974   5.358   2.198   3.984
 8344TIP3    H124975   5.300   2.123   3.967
 8344TIP3    H224976   5.431   2.160   4.034
 8345TIP3   OH224977   3.127   0.947   2.612
 8345TIP3    H124978   3.099   0.859   2.636
 8345TIP3    H224979   3.210   0.959   2.658
 8346TIP3   OH224980   6.881   3.965   3.602
 8346TIP3    H124981   6.972   3.971   3.630
 8346TIP3    H224982   6.886   3.959   3.507
 8347TIP3   OH224983   5.380   5.125   4.844
 8347TIP3    H124984   5.341   5.038   4.839
 8347TIP3    H224985   5.414   5.142   4.756
 8348TIP3   OH224986   5.945   1.331   3.801
 8348TIP3    H124987   5.903   1.343   3.716
 8348TIP3    H224988   5.994   1.412   3.814
 8349TIP3   OH224989   5.649   5.843   4.882
 8349TIP3    H124990   5.642   5.869   4.974
 8349TIP3    H224991   5.576   5.783   4.868
 8350TIP3   OH224992   2.540   1.598   4.938
 8350TIP3    H124993   2.522   1.691   4.951
 8350TIP3    H224994   2.635   1.592   4.947
 8351TIP3   OH224995   3.234   3.020   1.160
 8351TIP3    H124996   3.143   3.047   1.165
 8351TIP3    H224997   3.232   2.925   1.167
 8352TIP3   OH224998   3.458   4.754   5.328
 8352TIP3    H124999   3.520   4.707   5.384
 8352TIP3    H225000   3.508   4.829   5.296
 8353TIP3   OH225001   8.233   3.328   3.171
 8353TIP3    H125002   8.326   3.345   3.183
 8353TIP3    H225003   8.223   3.309   3.078
 8354TIP3   OH225004   4.263   1.989   2.210
 8354TIP3    H125005   4.196   2.034   2.262
 8354TIP3    H225006   4.324   1.954   2.275
 8355TIP3   OH225007   3.140   0.164   2.123
 8355TIP3    H125008   3.185   0.084   2.147
 8355TIP3    H225009   3.151   0.222   2.199
 8356TIP3   OH225010   7.816   0.333   5.800
 8356TIP3    H125011   7.745   0.387   5.835
 8356TIP3    H225012   7.842   0.277   5.873
 8357TIP3   OH225013   6.299   6.094   0.134
 8357TIP3    H125014   6.362   6.021   0.141
 8357TIP3    H225015   6.248   6.088   0.214
 8358TIP3   OH225016   4.473   3.327   3.134
 8358TIP3    H125017   4.405   3.268   3.101
 8358TIP3    H225018   4.429   3.380   3.200
 8359TIP3   OH225019   0.912   2.358   1.048
 8359TIP3    H125020   0.982   2.422   1.034
 8359TIP3    H225021   0.885   2.332   0.960
 8360TIP3   OH225022   5.932   3.650   5.414
 8360TIP3    H125023   5.913   3.711   5.343
 8360TIP3    H225024   5.955   3.568   5.370
 8361TIP3   OH225025   2.694   3.135   1.827
 8361TIP3    H125026   2.703   3.179   1.912
 8361TIP3    H225027   2.690   3.206   1.763
 8362TIP3   OH225028   4.652   0.048   3.707
 8362TIP3    H125029   4.567   0.053   3.663
 8362TIP3    H225030   4.633   0.069   3.798
 8363TIP3   OH225031   7.427   1.409   2.734
 8363TIP3    H125032   7.490   1.458   2.787
 8363TIP3    H225033   7.478   1.337   2.697
 8364TIP3   OH225034   2.628   4.997   3.959
 8364TIP3    H125035   2.609   5.010   4.052
 8364TIP3    H225036   2.721   5.019   3.950
 8365TIP3   OH225037   4.762   2.112   2.857
 8365TIP3    H125038   4.723   2.196   2.832
 8365TIP3    H225039   4.745   2.055   2.783
 8366TIP3   OH225040   7.167   2.398   4.795
 8366TIP3    H125041   7.113   2.357   4.862
 8366TIP3    H225042   7.249   2.420   4.839
 8367TIP3   OH225043   8.013   7.670   3.260
 8367TIP3    H125044   7.942   7.723   3.296
 8367TIP3    H225045   7.976   7.582   3.254
 8368TIP3   OH225046   6.613   7.638   3.911
 8368TIP3    H125047   6.567   7.575   3.855
 8368TIP3    H225048   6.581   7.619   3.999
 8369TIP3   OH225049   4.542   4.841   5.011
 8369TIP3    H125050   4.515   4.927   4.979
 8369TIP3    H225051   4.638   4.845   5.013
 8370TIP3   OH225052   6.986   4.649   5.707
 8370TIP3    H125053   7.081   4.652   5.711
 8370TIP3    H225054   6.964   4.690   5.623
 8371TIP3   OH225055   6.607   1.735   4.929
 8371TIP3    H125056   6.576   1.646   4.916
 8371TIP3    H225057   6.671   1.749   4.858
 8372TIP3   OH225058   5.553   1.994   2.874
 8372TIP3    H125059   5.629   2.051   2.861
 8372TIP3    H225060   5.552   1.977   2.968
 8373TIP3   OH225061   4.661   1.518   4.005
 8373TIP3    H125062   4.692   1.607   3.988
 8373TIP3    H225063   4.612   1.524   4.087
 8374TIP3   OH225064   7.455   1.376   1.380
 8374TIP3    H125065   7.369   1.339   1.361
 8374TIP3    H225066   7.437   1.467   1.404
 8375TIP3   OH225067   1.828   7.638   3.104
 8375TIP3    H125068   1.804   7.555   3.063
 8375TIP3    H225069   1.833   7.700   3.031
 8376TIP3   OH225070   1.325   3.825   0.825
 8376TIP3    H125071   1.379   3.763   0.776
 8376TIP3    H225072   1.373   3.908   0.818
 8377TIP3   OH225073   3.120   7.829   6.273
 8377TIP3    H125074   3.106   7.749   6.324
 8377TIP3    H225075   3.115   7.800   6.181
 8378TIP3   OH225076   1.830   2.885   3.250
 8378TIP3    H125077   1.857   2.801   3.287
 8378TIP3    H225078   1.739   2.871   3.224
 8379TIP3   OH225079   3.296   7.182   1.143
 8379TIP3    H125080   3.301   7.133   1.225
 8379TIP3    H225081   3.260   7.120   1.080
 8380TIP3   OH225082   2.933   6.444   6.035
 8380TIP3    H125083   2.904   6.494   6.111
 8380TIP3    H225084   3.024   6.470   6.023
 8381TIP3   OH225085   2.326   2.659   6.565
 8381TIP3    H125086   2.306   2.629   6.654
 8381TIP3    H225087   2.376   2.588   6.526
 8382TIP3   OH225088   7.413   4.597   4.105
 8382TIP3    H125089   7.491   4.633   4.062
 8382TIP3    H225090   7.436   4.596   4.198
 8383TIP3   OH225091   1.397   7.178   0.407
 8383TIP3    H125092   1.351   7.254   0.371
 8383TIP3    H225093   1.415   7.123   0.331
 8384TIP3   OH225094   0.248   0.102   3.753
 8384TIP3    H125095   0.218   0.153   3.678
 8384TIP3    H225096   0.183   0.033   3.763
 8385TIP3   OH225097   7.116   2.483   2.905
 8385TIP3    H125098   7.137   2.564   2.858
 8385TIP3    H225099   7.029   2.500   2.943
 8386TIP3   OH225100   0.744   5.102   5.509
 8386TIP3    H125101   0.674   5.168   5.501
 8386TIP3    H225102   0.739   5.053   5.427
 8387TIP3   OH225103   1.670   4.947   5.067
 8387TIP3    H125104   1.726   5.003   5.121
 8387TIP3    H225105   1.729   4.912   5.000
 8388TIP3   OH225106   7.840   1.886   6.103
 8388TIP3    H125107   7.897   1.864   6.176
 8388TIP3    H225108   7.900   1.906   6.031
 8389TIP3   OH225109   4.517   6.281   0.352
 8389TIP3    H125110   4.446   6.219   0.368
 8389TIP3    H225111   4.584   6.229   0.307
 8390TIP3   OH225112   6.420   4.809   3.551
 8390TIP3    H125113   6.326   4.813   3.531
 8390TIP3    H225114   6.449   4.900   3.548
 8391TIP3   OH225115   5.466   2.885   1.552
 8391TIP3    H125116   5.482   2.796   1.584
 8391TIP3    H225117   5.447   2.874   1.459
 8392TIP3   OH225118   6.385   1.412   1.815
 8392TIP3    H125119   6.448   1.363   1.869
 8392TIP3    H225120   6.346   1.475   1.876
 8393TIP3   OH225121   2.017   4.808   5.490
 8393TIP3    H125122   2.066   4.885   5.521
 8393TIP3    H225123   2.041   4.739   5.552
 8394TIP3   OH225124   6.527   5.422   4.351
 8394TIP3    H125125   6.519   5.393   4.442
 8394TIP3    H225126   6.557   5.344   4.304
 8395TIP3   OH225127   5.765   6.108   4.120
 8395TIP3    H125128   5.683   6.061   4.108
 8395TIP3    H225129   5.830   6.053   4.076
 8396TIP3   OH225130   3.674   4.120   6.204
 8396TIP3    H125131   3.601   4.168   6.165
 8396TIP3    H225132   3.637   4.082   6.284
 8397TIP3   OH225133   7.226   5.666   5.466
 8397TIP3    H125134   7.205   5.736   5.405
 8397TIP3    H225135   7.322   5.666   5.471
 8398TIP3   OH225136   1.889   1.605   3.556
 8398TIP3    H125137   1.868   1.566   3.641
 8398TIP3    H225138   1.930   1.689   3.579
 8399TIP3   OH225139   5.679   0.125   0.028
 8399TIP3    H125140   5.628   0.182  -0.030
 8399TIP3    H225141   5.641   0.038   0.016
 8400TIP3   OH225142   4.194   5.284   3.861
 8400TIP3    H125143   4.163   5.328   3.782
 8400TIP3    H225144   4.198   5.191   3.836
 8401TIP3   OH225145   0.995   4.020   1.599
 8401TIP3    H125146   0.970   3.956   1.533
 8401TIP3    H225147   1.070   3.981   1.644
 8402TIP3   OH225148   6.979   5.741   1.312
 8402TIP3    H125149   6.988   5.759   1.406
 8402TIP3    H225150   6.931   5.817   1.278
 8403TIP3   OH225151   3.306   3.549   1.596
 8403TIP3    H125152   3.299   3.507   1.510
 8403TIP3    H225153   3.391   3.520   1.629
 8404TIP3   OH225154   4.838   2.054   4.561
 8404TIP3    H125155   4.762   1.996   4.559
 8404TIP3    H225156   4.818   2.122   4.497
 8405TIP3   OH225157   3.800   4.671   6.507
 8405TIP3    H125158   3.889   4.652   6.538
 8405TIP3    H225159   3.748   4.680   6.586
 8406TIP3   OH225160   5.883   7.015   2.773
 8406TIP3    H125161   5.878   7.103   2.735
 8406TIP3    H225162   5.878   6.957   2.698
 8407TIP3   OH225163   5.083   4.648   0.105
 8407TIP3    H125164   5.151   4.699   0.060
 8407TIP3    H225165   5.078   4.686   0.192
 8408TIP3   OH225166   5.033   6.829   2.979
 8408TIP3    H125167   4.991   6.838   2.894
 8408TIP3    H225168   5.116   6.785   2.962
 8409TIP3   OH225169   8.245   7.576   3.148
 8409TIP3    H125170   8.322   7.618   3.187
 8409TIP3    H225171   8.171   7.624   3.184
 8410TIP3   OH225172   1.605   0.958   2.822
 8410TIP3    H125173   1.580   1.043   2.856
 8410TIP3    H225174   1.689   0.939   2.865
 8411TIP3   OH225175   7.974   2.818   0.449
 8411TIP3    H125176   8.042   2.789   0.510
 8411TIP3    H225177   7.928   2.737   0.425
 8412TIP3   OH225178   5.665   3.818   5.475
 8412TIP3    H125179   5.580   3.862   5.470
 8412TIP3    H225180   5.660   3.749   5.409
 8413TIP3   OH225181   4.644   2.040   2.616
 8413TIP3    H125182   4.673   1.994   2.537
 8413TIP3    H225183   4.594   2.115   2.582
 8414TIP3   OH225184   3.936   7.773   4.382
 8414TIP3    H125185   3.915   7.732   4.466
 8414TIP3    H225186   3.877   7.730   4.319
 8415TIP3   OH225187   1.498   7.000   5.145
 8415TIP3    H125188   1.469   7.030   5.231
 8415TIP3    H225189   1.497   6.905   5.150
 8416TIP3   OH225190   1.017   4.905   0.982
 8416TIP3    H125191   1.044   4.987   1.024
 8416TIP3    H225192   0.996   4.931   0.892
 8417TIP3   OH225193   1.361   5.194   4.385
 8417TIP3    H125194   1.364   5.255   4.311
 8417TIP3    H225195   1.364   5.250   4.463
 8418TIP3   OH225196   1.768   1.030   2.195
 8418TIP3    H125197   1.819   0.950   2.179
 8418TIP3    H225198   1.709   1.006   2.266
 8419TIP3   OH225199   1.709   6.404   4.521
 8419TIP3    H125200   1.664   6.465   4.462
 8419TIP3    H225201   1.750   6.340   4.464
 8420TIP3   OH225202   2.811   3.729   5.977
 8420TIP3    H125203   2.747   3.727   5.905
 8420TIP3    H225204   2.770   3.787   6.043
 8421TIP3   OH225205   7.508   4.694   2.939
 8421TIP3    H125206   7.587   4.643   2.956
 8421TIP3    H225207   7.459   4.689   3.021
 8422TIP3   OH225208   6.406   3.147   0.171
 8422TIP3    H125209   6.410   3.186   0.258
 8422TIP3    H225210   6.473   3.078   0.173
 8423TIP3   OH225211   5.071   7.379   0.484
 8423TIP3    H125212   5.073   7.474   0.473
 8423TIP3    H225213   5.059   7.345   0.395
 8424TIP3   OH225214   3.881   5.930   6.035
 8424TIP3    H125215   3.877   5.936   5.939
 8424TIP3    H225216   3.898   5.837   6.052
 8425TIP3   OH225217   2.131   5.409   1.099
 8425TIP3    H125218   2.086   5.337   1.055
 8425TIP3    H225219   2.103   5.403   1.190
 8426TIP3   OH225220   7.549   3.064   5.304
 8426TIP3    H125221   7.546   3.044   5.210
 8426TIP3    H225222   7.606   2.996   5.340
 8427TIP3   OH225223   8.055   3.819   0.202
 8427TIP3    H125224   8.067   3.742   0.145
 8427TIP3    H225225   8.059   3.893   0.142
 8428TIP3   OH225226   5.337   4.503   5.920
 8428TIP3    H125227   5.427   4.476   5.905
 8428TIP3    H225228   5.290   4.420   5.933
 8429TIP3   OH225229   0.144   0.940   3.736
 8429TIP3    H125230   0.175   1.029   3.722
 8429TIP3    H225231   0.218   0.894   3.778
 8430TIP3   OH225232   1.889   6.486   1.968
 8430TIP3    H125233   1.843   6.564   1.939
 8430TIP3    H225234   1.890   6.492   2.064
 8431TIP3   OH225235   6.685   1.665   2.719
 8431TIP3    H125236   6.695   1.684   2.626
 8431TIP3    H225237   6.689   1.750   2.762
 8432TIP3   OH225238   2.306   6.957   5.097
 8432TIP3    H125239   2.266   6.935   5.013
 8432TIP3    H225240   2.356   6.880   5.121
 8433TIP3   OH225241   6.281   4.783   5.915
 8433TIP3    H125242   6.309   4.828   5.995
 8433TIP3    H225243   6.254   4.853   5.856
 8434TIP3   OH225244   5.094   3.658   5.748
 8434TIP3    H125245   5.140   3.692   5.824
 8434TIP3    H225246   5.036   3.591   5.783
 8435TIP3   OH225247   6.439   0.569   0.065
 8435TIP3    H125248   6.474   0.527   0.144
 8435TIP3    H225249   6.368   0.512   0.037
 8436TIP3   OH225250   6.746   3.106   1.794
 8436TIP3    H125251   6.783   3.018   1.784
 8436TIP3    H225252   6.822   3.162   1.810
 8437TIP3   OH225253   0.855   7.655   1.592
 8437TIP3    H125254   0.924   7.718   1.615
 8437TIP3    H225255   0.801   7.702   1.529
 8438TIP3   OH225256   5.839   4.369   3.461
 8438TIP3    H125257   5.776   4.395   3.528
 8438TIP3    H225258   5.851   4.275   3.473
 8439TIP3   OH225259   2.801   4.595   1.425
 8439TIP3    H125260   2.724   4.570   1.375
 8439TIP3    H225261   2.777   4.578   1.516
 8440TIP3   OH225262   2.014   6.304   5.978
 8440TIP3    H125263   1.954   6.286   5.906
 8440TIP3    H225264   2.066   6.223   5.987
 8441TIP3   OH225265   6.255   4.214   6.328
 8441TIP3    H125266   6.333   4.269   6.322
 8441TIP3    H225267   6.220   4.211   6.240
 8442TIP3   OH225268   4.398   2.736   2.318
 8442TIP3    H125269   4.368   2.730   2.409
 8442TIP3    H225270   4.491   2.713   2.321
 8443TIP3   OH225271   1.386   7.147   1.081
 8443TIP3    H125272   1.405   7.229   1.036
 8443TIP3    H225273   1.373   7.084   1.010
 8444TIP3   OH225274   4.530   5.034   3.703
 8444TIP3    H125275   4.543   4.946   3.739
 8444TIP3    H225276   4.564   5.093   3.771
 8445TIP3   OH225277   4.867   0.790   0.469
 8445TIP3    H125278   4.890   0.881   0.450
 8445TIP3    H225279   4.848   0.752   0.384
 8446TIP3   OH225280   6.197   5.850   4.987
 8446TIP3    H125281   6.115   5.835   4.941
 8446TIP3    H225282   6.184   5.932   5.034
 8447TIP3   OH225283   3.813   6.733   2.584
 8447TIP3    H125284   3.877   6.789   2.627
 8447TIP3    H225285   3.815   6.761   2.492
 8448TIP3   OH225286   1.009   2.214   1.502
 8448TIP3    H125287   1.016   2.226   1.408
 8448TIP3    H225288   1.099   2.209   1.533
 8449TIP3   OH225289   6.063   7.328   0.122
 8449TIP3    H125290   6.043   7.236   0.103
 8449TIP3    H225291   6.088   7.365   0.037
 8450TIP3   OH225292   8.165   5.089   0.189
 8450TIP3    H125293   8.240   5.030   0.181
 8450TIP3    H225294   8.144   5.090   0.282
 8451TIP3   OH225295   1.480   0.983   3.924
 8451TIP3    H125296   1.418   0.911   3.933
 8451TIP3    H225297   1.444   1.038   3.854
 8452TIP3   OH225298   6.284   4.940   2.805
 8452TIP3    H125299   6.283   4.919   2.711
 8452TIP3    H225300   6.344   4.876   2.843
 8453TIP3   OH225301   5.022   5.650   0.238
 8453TIP3    H125302   4.976   5.727   0.205
 8453TIP3    H225303   5.003   5.582   0.173
 8454TIP3   OH225304   5.739   0.786   0.144
 8454TIP3    H125305   5.829   0.769   0.118
 8454TIP3    H225306   5.734   0.881   0.156
 8455TIP3   OH225307   3.212   6.731   1.211
 8455TIP3    H125308   3.287   6.726   1.271
 8455TIP3    H225309   3.192   6.639   1.191
 8456TIP3   OH225310   2.923   4.558   5.983
 8456TIP3    H125311   2.970   4.623   6.036
 8456TIP3    H225312   2.867   4.609   5.925
 8457TIP3   OH225313   2.148   0.301   2.104
 8457TIP3    H125314   2.124   0.216   2.140
 8457TIP3    H225315   2.208   0.339   2.168
 8458TIP3   OH225316   1.758   6.668   1.288
 8458TIP3    H125317   1.726   6.689   1.200
 8458TIP3    H225318   1.735   6.576   1.301
 8459TIP3   OH225319   4.722   5.407   1.644
 8459TIP3    H125320   4.744   5.434   1.733
 8459TIP3    H225321   4.662   5.474   1.612
 8460TIP3   OH225322   8.080   6.716   1.475
 8460TIP3    H125323   8.013   6.784   1.470
 8460TIP3    H225324   8.031   6.634   1.472
 8461TIP3   OH225325   5.284   3.837   4.266
 8461TIP3    H125326   5.354   3.823   4.331
 8461TIP3    H225327   5.331   3.852   4.184
 8462TIP3   OH225328   4.980   2.442   1.689
 8462TIP3    H125329   4.963   2.517   1.632
 8462TIP3    H225330   4.955   2.366   1.637
 8463TIP3   OH225331   7.797   3.787   6.423
 8463TIP3    H125332   7.819   3.866   6.374
 8463TIP3    H225333   7.874   3.769   6.477
 8464TIP3   OH225334   7.531   0.433   4.119
 8464TIP3    H125335   7.447   0.470   4.149
 8464TIP3    H225336   7.552   0.484   4.041
 8465TIP3   OH225337   1.994   2.940   6.449
 8465TIP3    H125338   1.999   2.992   6.529
 8465TIP3    H225339   1.930   2.985   6.395
 8466TIP3   OH225340   6.283   7.064   1.477
 8466TIP3    H125341   6.290   7.157   1.458
 8466TIP3    H225342   6.372   7.030   1.464
 8467TIP3   OH225343   0.705   6.212   4.977
 8467TIP3    H125344   0.725   6.250   5.063
 8467TIP3    H225345   0.634   6.266   4.943
 8468TIP3   OH225346   2.349   5.684   1.919
 8468TIP3    H125347   2.312   5.714   2.002
 8468TIP3    H225348   2.379   5.764   1.876
 8469TIP3   OH225349   6.281   3.968   0.797
 8469TIP3    H125350   6.259   3.964   0.704
 8469TIP3    H225351   6.371   4.001   0.800
 8470TIP3   OH225352   5.530   4.200   1.032
 8470TIP3    H125353   5.620   4.194   1.064
 8470TIP3    H225354   5.482   4.136   1.084
 8471TIP3   OH225355   2.706   6.519   3.429
 8471TIP3    H125356   2.720   6.427   3.451
 8471TIP3    H225357   2.786   6.545   3.384
 8472TIP3   OH225358   4.951   7.308   6.410
 8472TIP3    H125359   4.861   7.276   6.415
 8472TIP3    H225360   4.946   7.400   6.435
 8473TIP3   OH225361   1.253   7.058   4.173
 8473TIP3    H125362   1.206   7.005   4.238
 8473TIP3    H225363   1.209   7.143   4.175
 8474TIP3   OH225364   5.225   1.652   3.018
 8474TIP3    H125365   5.137   1.689   3.011
 8474TIP3    H225366   5.274   1.695   2.948
 8475TIP3   OH225367   6.355   4.384   0.785
 8475TIP3    H125368   6.422   4.448   0.807
 8475TIP3    H225369   6.279   4.408   0.839
 8476TIP3   OH225370   4.814   3.364   1.733
 8476TIP3    H125371   4.750   3.377   1.804
 8476TIP3    H225372   4.870   3.293   1.764
 8477TIP3   OH225373   1.270   0.587   2.210
 8477TIP3    H125374   1.227   0.581   2.296
 8477TIP3    H225375   1.354   0.629   2.228
 8478TIP3   OH225376   6.587   5.955   1.908
 8478TIP3    H125377   6.497   5.986   1.894
 8478TIP3    H225378   6.640   6.034   1.911
 8479TIP3   OH225379   7.982   6.669   0.728
 8479TIP3    H125380   7.904   6.659   0.673
 8479TIP3    H225381   8.056   6.658   0.668
 8480TIP3   OH225382   2.208   6.129   3.632
 8480TIP3    H125383   2.256   6.183   3.696
 8480TIP3    H225384   2.121   6.119   3.669
 8481TIP3   OH225385   2.298   6.687   1.757
 8481TIP3    H125386   2.289   6.658   1.667
 8481TIP3    H225387   2.210   6.716   1.782
 8482TIP3   OH225388   3.432   5.692   6.021
 8482TIP3    H125389   3.405   5.770   5.972
 8482TIP3    H225390   3.402   5.709   6.110
 8483TIP3   OH225391   6.671   7.050   6.057
 8483TIP3    H125392   6.699   7.124   6.112
 8483TIP3    H225393   6.592   7.080   6.013
 8484TIP3   OH225394   5.167   4.777   5.023
 8484TIP3    H125395   5.210   4.787   4.938
 8484TIP3    H225396   5.217   4.708   5.067
 8485TIP3   OH225397   1.491   3.666   0.686
 8485TIP3    H125398   1.505   3.572   0.686
 8485TIP3    H225399   1.519   3.695   0.599
 8486TIP3   OH225400   4.143   4.025   1.397
 8486TIP3    H125401   4.153   4.022   1.302
 8486TIP3    H225402   4.139   3.933   1.423
 8487TIP3   OH225403   0.601   6.637   4.499
 8487TIP3    H125404   0.513   6.657   4.468
 8487TIP3    H225405   0.589   6.565   4.561
 8488TIP3   OH225406   5.646   4.123   3.681
 8488TIP3    H125407   5.657   4.036   3.643
 8488TIP3    H225408   5.552   4.132   3.694
 8489TIP3   OH225409   7.127   1.254   5.905
 8489TIP3    H125410   7.136   1.253   5.810
 8489TIP3    H225411   7.182   1.327   5.934
 8490TIP3   OH225412   8.100   6.717   2.743
 8490TIP3    H125413   8.190   6.738   2.767
 8490TIP3    H225414   8.057   6.802   2.735
 8491TIP3   OH225415   2.159   4.426   1.105
 8491TIP3    H125416   2.079   4.478   1.094
 8491TIP3    H225417   2.160   4.367   1.030
 8492TIP3   OH225418   5.436   7.077   3.794
 8492TIP3    H125419   5.478   7.031   3.721
 8492TIP3    H225420   5.478   7.042   3.872
 8493TIP3   OH225421   6.522   2.312   2.668
 8493TIP3    H125422   6.465   2.290   2.741
 8493TIP3    H225423   6.611   2.304   2.704
 8494TIP3   OH225424   7.924   3.977   0.407
 8494TIP3    H125425   7.948   3.925   0.330
 8494TIP3    H225426   8.007   4.007   0.443
 8495TIP3   OH225427   6.148   5.330   1.343
 8495TIP3    H125428   6.158   5.405   1.402
 8495TIP3    H225429   6.145   5.368   1.255
 8496TIP3   OH225430   4.659   2.649   4.278
 8496TIP3    H125431   4.609   2.644   4.360
 8496TIP3    H225432   4.615   2.717   4.227
 8497TIP3   OH225433   4.703   7.470   2.600
 8497TIP3    H125434   4.776   7.420   2.635
 8497TIP3    H225435   4.631   7.453   2.661
 8498TIP3   OH225436   7.720   0.415  -0.014
 8498TIP3    H125437   7.767   0.335   0.010
 8498TIP3    H225438   7.645   0.417   0.045
 8499TIP3   OH225439   0.713   1.066   0.863
 8499TIP3    H125440   0.738   0.975   0.843
 8499TIP3    H225441   0.623   1.060   0.894
 8500TIP3   OH225442   7.214   2.301   0.135
 8500TIP3    H125443   7.147   2.271   0.197
 8500TIP3    H225444   7.294   2.257   0.164
 8501TIP3   OH225445   5.312   2.765   4.447
 8501TIP3    H125446   5.263   2.842   4.475
 8501TIP3    H225447   5.303   2.763   4.352
 8502TIP3   OH225448   3.716   3.973   0.975
 8502TIP3    H125449   3.738   3.972   0.882
 8502TIP3    H225450   3.705   4.066   0.996
 8503TIP3   OH225451   1.221   0.929   2.491
 8503TIP3    H125452   1.289   0.919   2.558
 8503TIP3    H225453   1.169   0.849   2.499
 8504TIP3   OH225454   6.294   7.670   1.547
 8504TIP3    H125455   6.368   7.725   1.571
 8504TIP3    H225456   6.235   7.675   1.622
 8505TIP3   OH225457   0.303   5.236   1.342
 8505TIP3    H125458   0.279   5.150   1.378
 8505TIP3    H225459   0.334   5.286   1.416
 8506TIP3   OH225460   6.077   4.986   4.544
 8506TIP3    H125461   6.138   5.004   4.473
 8506TIP3    H225462   6.098   5.052   4.611
 8507TIP3   OH225463   4.020   4.364   4.505
 8507TIP3    H125464   3.960   4.413   4.563
 8507TIP3    H225465   4.008   4.404   4.419
 8508TIP3   OH225466   0.480   6.143   2.222
 8508TIP3    H125467   0.439   6.187   2.297
 8508TIP3    H225468   0.522   6.214   2.173
 8509TIP3   OH225469   4.714   3.415   5.247
 8509TIP3    H125470   4.631   3.404   5.202
 8509TIP3    H225471   4.691   3.410   5.340
 8510TIP3   OH225472   8.149   3.950   0.922
 8510TIP3    H125473   8.224   4.008   0.929
 8510TIP3    H225474   8.074   4.009   0.910
 8511TIP3   OH225475   7.697   1.345   0.385
 8511TIP3    H125476   7.788   1.376   0.384
 8511TIP3    H225477   7.703   1.251   0.369
 8512TIP3   OH225478   5.862   4.127   2.696
 8512TIP3    H125479   5.794   4.137   2.762
 8512TIP3    H225480   5.938   4.174   2.733
 8513TIP3   OH225481   5.187   7.329   4.098
 8513TIP3    H125482   5.098   7.344   4.131
 8513TIP3    H225483   5.180   7.250   4.044
 8514TIP3   OH225484   2.270   1.211   1.714
 8514TIP3    H125485   2.236   1.161   1.788
 8514TIP3    H225486   2.364   1.189   1.712
 8515TIP3   OH225487   2.451   6.889   0.275
 8515TIP3    H125488   2.481   6.800   0.257
 8515TIP3    H225489   2.371   6.898   0.224
 8516TIP3   OH225490   5.869   5.084   3.036
 8516TIP3    H125491   5.837   5.173   3.018
 8516TIP3    H225492   5.863   5.039   2.952
 8517TIP3   OH225493   0.968   2.999   3.453
 8517TIP3    H125494   0.986   3.050   3.531
 8517TIP3    H225495   1.054   2.968   3.424
 8518TIP3   OH225496   6.544   4.058   3.614
 8518TIP3    H125497   6.534   4.038   3.521
 8518TIP3    H225498   6.639   4.063   3.627
 8519TIP3   OH225499   2.460   3.230   2.383
 8519TIP3    H125500   2.544   3.219   2.429
 8519TIP3    H225501   2.409   3.286   2.441
 8520TIP3   OH225502   7.722   4.030   4.634
 8520TIP3    H125503   7.643   4.070   4.670
 8520TIP3    H225504   7.782   4.025   4.709
 8521TIP3   OH225505   4.174   4.153   0.802
 8521TIP3    H125506   4.258   4.192   0.827
 8521TIP3    H225507   4.116   4.174   0.876
 8522TIP3   OH225508   5.899   1.608   1.130
 8522TIP3    H125509   5.974   1.549   1.137
 8522TIP3    H225510   5.823   1.551   1.118
 8523TIP3   OH225511   5.255   1.347   4.801
 8523TIP3    H125512   5.337   1.307   4.771
 8523TIP3    H225513   5.187   1.296   4.758
 8524TIP3   OH225514   2.158   3.763   4.852
 8524TIP3    H125515   2.097   3.752   4.780
 8524TIP3    H225516   2.244   3.773   4.809
 8525TIP3   OH225517   1.847   4.786   4.136
 8525TIP3    H125518   1.856   4.731   4.214
 8525TIP3    H225519   1.933   4.826   4.125
 8526TIP3   OH225520   4.830   4.645   6.737
 8526TIP3    H125521   4.782   4.706   6.793
 8526TIP3    H225522   4.772   4.631   6.662
 8527TIP3   OH225523   6.494   3.228   1.921
 8527TIP3    H125524   6.515   3.144   1.960
 8527TIP3    H225525   6.578   3.263   1.892
 8528TIP3   OH225526   3.118   5.450   4.409
 8528TIP3    H125527   3.039   5.409   4.372
 8528TIP3    H225528   3.179   5.455   4.335
 8529TIP3   OH225529   4.411   2.384   2.255
 8529TIP3    H125530   4.414   2.316   2.322
 8529TIP3    H225531   4.397   2.465   2.304
 8530TIP3   OH225532   2.203   3.038   1.346
 8530TIP3    H125533   2.166   2.955   1.314
 8530TIP3    H225534   2.297   3.029   1.333
 8531TIP3   OH225535   7.129   2.292   1.407
 8531TIP3    H125536   7.088   2.230   1.346
 8531TIP3    H225537   7.070   2.296   1.482
 8532TIP3   OH225538   1.142   4.739   0.388
 8532TIP3    H125539   1.110   4.829   0.383
 8532TIP3    H225540   1.071   4.685   0.354
 8533TIP3   OH225541   2.974   5.890   5.200
 8533TIP3    H125542   2.908   5.909   5.267
 8533TIP3    H225543   3.051   5.938   5.229
 8534TIP3   OH225544   0.010   7.626   1.477
 8534TIP3    H125545   0.019   7.538   1.439
 8534TIP3    H225546   0.084   7.634   1.537
 8535TIP3   OH225547   7.468   5.100   2.541
 8535TIP3    H125548   7.530   5.046   2.493
 8535TIP3    H225549   7.488   5.190   2.514
 8536TIP3   OH225550   1.386   6.971   2.172
 8536TIP3    H125551   1.303   7.017   2.180
 8536TIP3    H225552   1.415   6.957   2.263
 8537TIP3   OH225553   2.786   4.384   0.308
 8537TIP3    H125554   2.823   4.382   0.219
 8537TIP3    H225555   2.695   4.358   0.297
 8538TIP3   OH225556   2.468   3.160   1.557
 8538TIP3    H125557   2.439   3.069   1.556
 8538TIP3    H225558   2.407   3.206   1.499
 8539TIP3   OH225559   1.329   0.662   5.099
 8539TIP3    H125560   1.260   0.656   5.033
 8539TIP3    H225561   1.395   0.719   5.060
 8540TIP3   OH225562   5.015   4.485   4.420
 8540TIP3    H125563   4.972   4.493   4.335
 8540TIP3    H225564   4.990   4.397   4.451
 8541TIP3   OH225565   2.688   5.642   0.990
 8541TIP3    H125566   2.608   5.658   0.939
 8541TIP3    H225567   2.663   5.575   1.053
 8542TIP3   OH225568   6.332   2.047   4.069
 8542TIP3    H125569   6.240   2.052   4.095
 8542TIP3    H225570   6.347   2.128   4.020
 8543TIP3   OH225571   2.574   5.738   3.614
 8543TIP3    H125572   2.646   5.773   3.667
 8543TIP3    H225573   2.528   5.677   3.672
 8544TIP3   OH225574   7.111   4.230   3.619
 8544TIP3    H125575   7.180   4.292   3.595
 8544TIP3    H225576   7.036   4.256   3.565
 8545TIP3   OH225577   3.909   2.197   2.196
 8545TIP3    H125578   3.978   2.262   2.210
 8545TIP3    H225579   3.928   2.160   2.110
 8546TIP3   OH225580   4.405   1.286   2.753
 8546TIP3    H125581   4.418   1.197   2.785
 8546TIP3    H225582   4.320   1.312   2.788
 8547TIP3   OH225583   1.417   5.558   2.253
 8547TIP3    H125584   1.326   5.582   2.238
 8547TIP3    H225585   1.451   5.628   2.309
 8548TIP3   OH225586   3.286   4.849   4.215
 8548TIP3    H125587   3.210   4.793   4.203
 8548TIP3    H225588   3.304   4.845   4.309
 8549TIP3   OH225589   5.039   1.719   3.797
 8549TIP3    H125590   5.048   1.636   3.750
 8549TIP3    H225591   5.105   1.776   3.759
 8550TIP3   OH225592   7.671   5.626   2.113
 8550TIP3    H125593   7.723   5.561   2.066
 8550TIP3    H225594   7.655   5.695   2.049
 8551TIP3   OH225595   3.019   3.343   0.133
 8551TIP3    H125596   2.989   3.399   0.204
 8551TIP3    H225597   3.009   3.254   0.166
 8552TIP3   OH225598   2.847   7.629   3.030
 8552TIP3    H125599   2.780   7.666   3.088
 8552TIP3    H225600   2.873   7.547   3.072
 8553TIP3   OH225601   3.868   5.115   1.016
 8553TIP3    H125602   3.908   5.072   1.091
 8553TIP3    H225603   3.824   5.192   1.053
 8554TIP3   OH225604   8.015   2.401   5.017
 8554TIP3    H125605   8.099   2.432   4.982
 8554TIP3    H225606   8.036   2.371   5.106
 8555TIP3   OH225607   0.576   7.431   3.758
 8555TIP3    H125608   0.534   7.492   3.818
 8555TIP3    H225609   0.532   7.446   3.674
 8556TIP3   OH225610   3.128   4.169   6.550
 8556TIP3    H125611   3.216   4.191   6.520
 8556TIP3    H225612   3.088   4.253   6.572
 8557TIP3   OH225613   3.440   4.018   3.072
 8557TIP3    H125614   3.439   4.012   3.168
 8557TIP3    H225615   3.366   4.074   3.051
 8558TIP3   OH225616   4.605   0.775   0.309
 8558TIP3    H125617   4.618   0.810   0.397
 8558TIP3    H225618   4.606   0.680   0.321
 8559TIP3   OH225619   5.483   2.772   5.768
 8559TIP3    H125620   5.468   2.841   5.833
 8559TIP3    H225621   5.402   2.722   5.768
 8560TIP3   OH225622   8.080   5.615   1.560
 8560TIP3    H125623   8.049   5.599   1.470
 8560TIP3    H225624   8.055   5.536   1.608
 8561TIP3   OH225625   3.469   2.322   5.755
 8561TIP3    H125626   3.540   2.337   5.693
 8561TIP3    H225627   3.430   2.239   5.727
 8562TIP3   OH225628   3.709   7.149   1.079
 8562TIP3    H125629   3.624   7.175   1.043
 8562TIP3    H225630   3.688   7.110   1.165
 8563TIP3   OH225631   6.443   5.159   5.290
 8563TIP3    H125632   6.456   5.093   5.359
 8563TIP3    H225633   6.488   5.237   5.323
 8564TIP3   OH225634   8.149   6.337   5.207
 8564TIP3    H125635   8.093   6.357   5.283
 8564TIP3    H225636   8.235   6.372   5.231
 8565TIP3   OH225637   5.255   3.223   1.096
 8565TIP3    H125638   5.238   3.224   1.001
 8565TIP3    H225639   5.188   3.281   1.132
 8566TIP3   OH225640   4.543   6.690   1.928
 8566TIP3    H125641   4.530   6.608   1.977
 8566TIP3    H225642   4.525   6.759   1.992
 8567TIP3   OH225643   7.214   7.379   5.683
 8567TIP3    H125644   7.152   7.329   5.736
 8567TIP3    H225645   7.160   7.444   5.638
 8568TIP3   OH225646   0.912   2.236   2.102
 8568TIP3    H125647   0.929   2.153   2.146
 8568TIP3    H225648   0.999   2.266   2.073
 8569TIP3   OH225649   6.751   2.469   4.909
 8569TIP3    H125650   6.765   2.472   4.814
 8569TIP3    H225651   6.799   2.546   4.942
 8570TIP3   OH225652   4.528   4.037   0.108
 8570TIP3    H125653   4.534   3.964   0.047
 8570TIP3    H225654   4.463   4.010   0.172
 8571TIP3   OH225655   0.088   3.331   6.182
 8571TIP3    H125656   0.168   3.296   6.142
 8571TIP3    H225657   0.102   3.322   6.276
 8572TIP3   OH225658   3.156   4.646   6.446
 8572TIP3    H125659   3.220   4.594   6.399
 8572TIP3    H225660   3.189   4.651   6.536
 8573TIP3   OH225661   1.313   7.136   0.003
 8573TIP3    H125662   1.241   7.170   0.056
 8573TIP3    H225663   1.361   7.214  -0.027
 8574TIP3   OH225664   1.737   3.837   4.546
 8574TIP3    H125665   1.830   3.815   4.544
 8574TIP3    H225666   1.719   3.854   4.638
 8575TIP3   OH225667   6.858   3.219   3.161
 8575TIP3    H125668   6.831   3.295   3.212
 8575TIP3    H225669   6.850   3.248   3.070
 8576TIP3   OH225670   0.533   0.689   6.742
 8576TIP3    H125671   0.482   0.665   6.665
 8576TIP3    H225672   0.621   0.655   6.724
 8577TIP3   OH225673   1.746   7.077   2.895
 8577TIP3    H125674   1.721   7.031   2.975
 8577TIP3    H225675   1.668   7.076   2.841
 8578TIP3   OH225676   1.782   0.430   3.893
 8578TIP3    H125677   1.761   0.407   3.802
 8578TIP3    H225678   1.742   0.360   3.944
 8579TIP3   OH225679   2.319   2.770   6.285
 8579TIP3    H125680   2.385   2.737   6.225
 8579TIP3    H225681   2.348   2.742   6.372
 8580TIP3   OH225682   3.210   7.493   0.130
 8580TIP3    H125683   3.153   7.440   0.074
 8580TIP3    H225684   3.150   7.541   0.187
 8581TIP3   OH225685   5.803   5.896   1.293
 8581TIP3    H125686   5.861   5.960   1.335
 8581TIP3    H225687   5.729   5.948   1.263
 8582TIP3   OH225688   1.125   2.531   0.978
 8582TIP3    H125689   1.161   2.516   1.065
 8582TIP3    H225690   1.200   2.553   0.923
 8583TIP3   OH225691   3.439   7.218   3.280
 8583TIP3    H125692   3.505   7.173   3.227
 8583TIP3    H225693   3.466   7.310   3.279
 8584TIP3   OH225694   2.361   1.597   3.976
 8584TIP3    H125695   2.355   1.597   4.072
 8584TIP3    H225696   2.282   1.551   3.947
 8585TIP3   OH225697   7.745   3.541   2.153
 8585TIP3    H125698   7.777   3.538   2.062
 8585TIP3    H225699   7.682   3.612   2.153
 8586TIP3   OH225700   6.097   6.753   5.045
 8586TIP3    H125701   6.009   6.781   5.020
 8586TIP3    H225702   6.147   6.835   5.050
 8587TIP3   OH225703   5.985   5.922   6.523
 8587TIP3    H125704   5.894   5.938   6.497
 8587TIP3    H225705   6.026   6.009   6.522
 8588TIP3   OH225706   1.210   4.722   4.564
 8588TIP3    H125707   1.244   4.812   4.568
 8588TIP3    H225708   1.169   4.715   4.478
 8589TIP3   OH225709   7.138   3.851   0.785
 8589TIP3    H125710   7.084   3.777   0.814
 8589TIP3    H225711   7.121   3.920   0.848
 8590TIP3   OH225712   5.859   2.978   2.918
 8590TIP3    H125713   5.873   3.032   2.840
 8590TIP3    H225714   5.855   2.888   2.884
 8591TIP3   OH225715   7.633   0.054   2.940
 8591TIP3    H125716   7.552   0.064   2.891
 8591TIP3    H225717   7.609  -0.005   3.012
 8592TIP3   OH225718   7.997   4.749   2.555
 8592TIP3    H125719   7.998   4.726   2.462
 8592TIP3    H225720   7.944   4.829   2.560
 8593TIP3   OH225721   4.410   7.169   5.426
 8593TIP3    H125722   4.461   7.248   5.440
 8593TIP3    H225723   4.321   7.192   5.453
 8594TIP3   OH225724   0.432   4.005   3.891
 8594TIP3    H125725   0.457   3.920   3.924
 8594TIP3    H225726   0.411   4.057   3.969
 8595TIP3   OH225727   5.755   4.054   6.473
 8595TIP3    H125728   5.742   4.121   6.541
 8595TIP3    H225729   5.766   3.972   6.522
 8596TIP3   OH225730   4.227   5.234   6.000
 8596TIP3    H125731   4.284   5.286   6.056
 8596TIP3    H225732   4.264   5.244   5.912
 8597TIP3   OH225733   1.642   5.893   0.729
 8597TIP3    H125734   1.647   5.820   0.791
 8597TIP3    H225735   1.733   5.913   0.708
 8598TIP3   OH225736   2.540   2.504   3.109
 8598TIP3    H125737   2.549   2.537   3.020
 8598TIP3    H225738   2.629   2.489   3.139
 8599TIP3   OH225739   3.580   5.102   3.410
 8599TIP3    H125740   3.607   5.018   3.373
 8599TIP3    H225741   3.632   5.167   3.362
 8600TIP3   OH225742   3.344   0.847   0.290
 8600TIP3    H125743   3.394   0.882   0.217
 8600TIP3    H225744   3.254   0.846   0.260
 8601TIP3   OH225745   2.373   4.451   3.976
 8601TIP3    H125746   2.412   4.537   3.962
 8601TIP3    H225747   2.292   4.470   4.024
 8602TIP3   OH225748   2.789   7.422   4.259
 8602TIP3    H125749   2.768   7.500   4.208
 8602TIP3    H225750   2.755   7.349   4.207
 8603TIP3   OH225751   2.129   0.702   1.694
 8603TIP3    H125752   2.115   0.793   1.665
 8603TIP3    H225753   2.044   0.676   1.730
 8604TIP3   OH225754   4.113   7.548   1.263
 8604TIP3    H125755   4.082   7.607   1.194
 8604TIP3    H225756   4.208   7.563   1.266
 8605TIP3   OH225757   5.468   3.621   2.533
 8605TIP3    H125758   5.377   3.603   2.511
 8605TIP3    H225759   5.474   3.717   2.536
 8606TIP3   OH225760   3.464   3.752   1.762
 8606TIP3    H125761   3.456   3.670   1.811
 8606TIP3    H225762   3.515   3.729   1.684
 8607TIP3   OH225763   3.637   2.274   2.209
 8607TIP3    H125764   3.731   2.271   2.188
 8607TIP3    H225765   3.631   2.230   2.294
 8608TIP3   OH225766   0.582   7.580   4.619
 8608TIP3    H125767   0.643   7.531   4.673
 8608TIP3    H225768   0.636   7.642   4.571
 8609TIP3   OH225769   2.821   1.264   2.836
 8609TIP3    H125770   2.896   1.323   2.848
 8609TIP3    H225771   2.861   1.177   2.827
 8610TIP3   OH225772   0.884   5.260   6.629
 8610TIP3    H125773   0.834   5.287   6.705
 8610TIP3    H225774   0.973   5.245   6.663
 8611TIP3   OH225775   3.841   2.758   3.186
 8611TIP3    H125776   3.794   2.794   3.110
 8611TIP3    H225777   3.893   2.832   3.218
 8612TIP3   OH225778   2.615   4.117   5.394
 8612TIP3    H125779   2.698   4.130   5.441
 8612TIP3    H225780   2.551   4.100   5.464
 8613TIP3   OH225781   7.557   2.174   1.712
 8613TIP3    H125782   7.641   2.219   1.719
 8613TIP3    H225783   7.579   2.081   1.718
 8614TIP3   OH225784   3.359   5.101   1.579
 8614TIP3    H125785   3.289   5.044   1.546
 8614TIP3    H225786   3.430   5.040   1.601
 8615TIP3   OH225787   8.206   0.277   0.114
 8615TIP3    H125788   8.209   0.211   0.184
 8615TIP3    H225789   8.159   0.350   0.154
 8616TIP3   OH225790   4.368   6.846   4.927
 8616TIP3    H125791   4.407   6.783   4.988
 8616TIP3    H225792   4.275   6.822   4.925
 8617TIP3   OH225793   7.306   7.313   6.509
 8617TIP3    H125794   7.235   7.365   6.471
 8617TIP3    H225795   7.386   7.349   6.470
 8618TIP3   OH225796   3.096   0.721   5.227
 8618TIP3    H125797   3.061   0.795   5.178
 8618TIP3    H225798   3.170   0.691   5.175
 8619TIP3   OH225799   5.531   3.391   6.281
 8619TIP3    H125800   5.486   3.382   6.365
 8619TIP3    H225801   5.520   3.483   6.257
 8620TIP3   OH225802   3.881   7.323   3.442
 8620TIP3    H125803   3.958   7.326   3.386
 8620TIP3    H225804   3.861   7.415   3.461
 8621TIP3   OH225805   0.152   4.622   6.607
 8621TIP3    H125806   0.083   4.669   6.561
 8621TIP3    H225807   0.216   4.690   6.628
 8622TIP3   OH225808   0.807   2.161   2.415
 8622TIP3    H125809   0.891   2.204   2.426
 8622TIP3    H225810   0.742   2.225   2.446
 8623TIP3   OH225811   0.234   0.667   4.279
 8623TIP3    H125812   0.166   0.602   4.265
 8623TIP3    H225813   0.208   0.743   4.227
 8624TIP3   OH225814   2.681   4.927   6.810
 8624TIP3    H125815   2.630   4.862   6.761
 8624TIP3    H225816   2.762   4.937   6.760
 8625TIP3   OH225817   7.803   1.297   2.418
 8625TIP3    H125818   7.892   1.332   2.411
 8625TIP3    H225819   7.774   1.288   2.327
 8626TIP3   OH225820   7.634   3.654   0.755
 8626TIP3    H125821   7.685   3.670   0.834
 8626TIP3    H225822   7.689   3.684   0.683
 8627TIP3   OH225823   2.746   6.663   2.043
 8627TIP3    H125824   2.785   6.690   1.959
 8627TIP3    H225825   2.747   6.568   2.040
 8628TIP3   OH225826   0.568   5.851   4.605
 8628TIP3    H125827   0.617   5.876   4.527
 8628TIP3    H225828   0.632   5.803   4.659
 8629TIP3   OH225829   5.204   4.261   5.910
 8629TIP3    H125830   5.143   4.268   5.836
 8629TIP3    H225831   5.231   4.169   5.910
 8630TIP3   OH225832   0.147   0.748   2.731
 8630TIP3    H125833   0.207   0.770   2.803
 8630TIP3    H225834   0.134   0.831   2.685
 8631TIP3   OH225835   0.502   6.496   0.122
 8631TIP3    H125836   0.546   6.566   0.169
 8631TIP3    H225837   0.521   6.513   0.030
 8632TIP3   OH225838   2.811   6.369   4.594
 8632TIP3    H125839   2.812   6.286   4.547
 8632TIP3    H225840   2.785   6.345   4.683
 8633TIP3   OH225841   3.887   4.799   5.957
 8633TIP3    H125842   3.869   4.870   5.896
 8633TIP3    H225843   3.802   4.772   5.990
 8634TIP3   OH225844   3.103   2.298   1.523
 8634TIP3    H125845   3.195   2.299   1.549
 8634TIP3    H225846   3.055   2.284   1.604
 8635TIP3   OH225847   4.669   6.649   1.692
 8635TIP3    H125848   4.757   6.614   1.686
 8635TIP3    H225849   4.646   6.641   1.785
 8636TIP3   OH225850   1.755   2.415   5.366
 8636TIP3    H125851   1.800   2.456   5.440
 8636TIP3    H225852   1.823   2.400   5.301
 8637TIP3   OH225853   6.787   7.303   2.376
 8637TIP3    H125854   6.698   7.314   2.343
 8637TIP3    H225855   6.798   7.375   2.439
 8638TIP3   OH225856   2.882  -0.004   5.517
 8638TIP3    H125857   2.970  -0.035   5.540
 8638TIP3    H225858   2.867   0.071   5.575
 8639TIP3   OH225859   2.628   4.524   1.231
 8639TIP3    H125860   2.540   4.487   1.242
 8639TIP3    H225861   2.613   4.614   1.204
 8640TIP3   OH225862   4.246   7.123   2.490
 8640TIP3    H125863   4.263   7.065   2.415
 8640TIP3    H225864   4.318   7.185   2.489
 8641TIP3   OH225865   6.478   1.230   0.142
 8641TIP3    H125866   6.569   1.246   0.119
 8641TIP3    H225867   6.454   1.304   0.198
 8642TIP3   OH225868   0.991   0.135   1.393
 8642TIP3    H125869   1.039   0.202   1.441
 8642TIP3    H225870   0.932   0.096   1.457
 8643TIP3   OH225871   4.228   4.882   2.035
 8643TIP3    H125872   4.237   4.844   2.122
 8643TIP3    H225873   4.319   4.892   2.004
 8644TIP3   OH225874   3.886   6.648   0.414
 8644TIP3    H125875   3.905   6.619   0.325
 8644TIP3    H225876   3.868   6.741   0.405
 8645TIP3   OH225877   3.499   5.729   0.878
 8645TIP3    H125878   3.557   5.788   0.926
 8645TIP3    H225879   3.423   5.782   0.855
 8646TIP3   OH225880   0.491   5.882   0.180
 8646TIP3    H125881   0.572   5.834   0.162
 8646TIP3    H225882   0.423   5.833   0.135
 8647TIP3   OH225883   2.735   6.495   1.620
 8647TIP3    H125884   2.681   6.559   1.573
 8647TIP3    H225885   2.824   6.510   1.588
 8648TIP3   OH225886   7.341   6.353   2.150
 8648TIP3    H125887   7.335   6.410   2.227
 8648TIP3    H225888   7.407   6.288   2.173
 8649TIP3   OH225889   4.753   1.513   5.026
 8649TIP3    H125890   4.798   1.480   5.103
 8649TIP3    H225891   4.800   1.475   4.952
 8650TIP3   OH225892   1.739   3.291   0.849
 8650TIP3    H125893   1.732   3.249   0.935
 8650TIP3    H225894   1.733   3.385   0.867
 8651TIP3   OH225895   1.914   3.255   5.738
 8651TIP3    H125896   1.999   3.218   5.759
 8651TIP3    H225897   1.851   3.191   5.772
 8652TIP3   OH225898   7.720   4.547   5.250
 8652TIP3    H125899   7.703   4.591   5.333
 8652TIP3    H225900   7.655   4.478   5.245
 8653TIP3   OH225901   5.174   7.099   3.938
 8653TIP3    H125902   5.257   7.053   3.931
 8653TIP3    H225903   5.153   7.124   3.848
 8654TIP3   OH225904   1.997   0.505   2.048
 8654TIP3    H125905   2.033   0.416   2.042
 8654TIP3    H225906   1.948   0.517   1.967
 8655TIP3   OH225907   3.063   5.507   6.279
 8655TIP3    H125908   3.045   5.569   6.209
 8655TIP3    H225909   3.155   5.482   6.266
 8656TIP3   OH225910   0.675   6.885   2.658
 8656TIP3    H125911   0.632   6.896   2.743
 8656TIP3    H225912   0.690   6.791   2.651
 8657TIP3   OH225913   6.256   0.850   1.485
 8657TIP3    H125914   6.297   0.765   1.468
 8657TIP3    H225915   6.240   0.851   1.579
 8658TIP3   OH225916   4.835   5.205   5.980
 8658TIP3    H125917   4.841   5.299   5.999
 8658TIP3    H225918   4.909   5.167   6.027
 8659TIP3   OH225919   7.439   3.523   1.202
 8659TIP3    H125920   7.406   3.512   1.112
 8659TIP3    H225921   7.386   3.463   1.254
 8660TIP3   OH225922   4.369   1.365   1.804
 8660TIP3    H125923   4.400   1.449   1.769
 8660TIP3    H225924   4.429   1.346   1.876
 8661TIP3   OH225925   2.984   7.270   6.070
 8661TIP3    H125926   3.028   7.185   6.077
 8661TIP3    H225927   3.033   7.327   6.129
 8662TIP3   OH225928   5.350   6.795   4.682
 8662TIP3    H125929   5.262   6.800   4.644
 8662TIP3    H225930   5.347   6.720   4.741
 8663TIP3   OH225931   6.651   3.440   0.513
 8663TIP3    H125932   6.648   3.502   0.586
 8663TIP3    H225933   6.737   3.455   0.472
 8664TIP3   OH225934   5.912   4.297   0.670
 8664TIP3    H125935   5.848   4.297   0.740
 8664TIP3    H225936   5.962   4.378   0.684
 8665TIP3   OH225937   3.922   1.636   6.132
 8665TIP3    H125938   3.908   1.544   6.110
 8665TIP3    H225939   3.916   1.682   6.048
 8666TIP3   OH225940   2.724   3.447   1.338
 8666TIP3    H125941   2.788   3.517   1.356
 8666TIP3    H225942   2.639   3.488   1.351
 8667TIP3   OH225943   0.198   4.187   1.415
 8667TIP3    H125944   0.259   4.245   1.369
 8667TIP3    H225945   0.117   4.237   1.422
 8668TIP3   OH225946   7.750   2.816   4.261
 8668TIP3    H125947   7.828   2.818   4.204
 8668TIP3    H225948   7.736   2.723   4.278
 8669TIP3   OH225949   4.909   5.312   4.934
 8669TIP3    H125950   4.870   5.368   4.867
 8669TIP3    H225951   4.952   5.242   4.884
 8670TIP3   OH225952   4.440   4.124   2.411
 8670TIP3    H125953   4.536   4.126   2.411
 8670TIP3    H225954   4.416   4.119   2.504
 8671TIP3   OH225955   4.294   6.642   1.787
 8671TIP3    H125956   4.379   6.662   1.828
 8671TIP3    H225957   4.230   6.665   1.854
 8672TIP3   OH225958   1.364   0.037   1.653
 8672TIP3    H125959   1.318   0.121   1.643
 8672TIP3    H225960   1.455   0.062   1.671
 8673TIP3   OH225961   0.793   3.766   0.464
 8673TIP3    H125962   0.811   3.702   0.532
 8673TIP3    H225963   0.801   3.851   0.507
 8674TIP3   OH225964   6.717   0.690   1.467
 8674TIP3    H125965   6.793   0.680   1.524
 8674TIP3    H225966   6.753   0.718   1.383
 8675TIP3   OH225967   7.003   0.329   0.857
 8675TIP3    H125968   7.036   0.240   0.869
 8675TIP3    H225969   7.075   0.385   0.886
 8676TIP3   OH225970   2.380   1.876   0.726
 8676TIP3    H125971   2.404   1.840   0.811
 8676TIP3    H225972   2.412   1.966   0.729
 8677TIP3   OH225973   5.143   1.737   0.662
 8677TIP3    H125974   5.119   1.767   0.574
 8677TIP3    H225975   5.229   1.696   0.651
 8678TIP3   OH225976   6.186   1.665   2.014
 8678TIP3    H125977   6.236   1.743   1.991
 8678TIP3    H225978   6.162   1.678   2.106
 8679TIP3   OH225979   7.307   5.298   6.048
 8679TIP3    H125980   7.302   5.295   6.144
 8679TIP3    H225981   7.259   5.377   6.024
 8680TIP3   OH225982   1.207   3.287   6.295
 8680TIP3    H125983   1.276   3.235   6.252
 8680TIP3    H225984   1.132   3.280   6.236
 8681TIP3   OH225985   1.629   5.678   4.746
 8681TIP3    H125986   1.683   5.754   4.725
 8681TIP3    H225987   1.633   5.623   4.667
 8682TIP3   OH225988   3.338   5.001   3.969
 8682TIP3    H125989   3.421   4.956   3.984
 8682TIP3    H225990   3.287   4.986   4.049
 8683TIP3   OH225991   0.794   1.494   5.294
 8683TIP3    H125992   0.886   1.515   5.279
 8683TIP3    H225993   0.748   1.538   5.223
 8684TIP3   OH225994   2.229   4.719   0.979
 8684TIP3    H125995   2.291   4.750   0.913
 8684TIP3    H225996   2.284   4.677   1.046
 8685TIP3   OH225997   4.572   0.198   5.018
 8685TIP3    H125998   4.559   0.268   4.954
 8685TIP3    H225999   4.558   0.240   5.103
 8686TIP3   OH226000   1.184   3.332   3.002
 8686TIP3    H126001   1.115   3.277   2.966
 8686TIP3    H226002   1.140   3.414   3.024
 8687TIP3   OH226003   4.489   7.390   2.773
 8687TIP3    H126004   4.397   7.407   2.792
 8687TIP3    H226005   4.492   7.297   2.747
 8688TIP3   OH226006   0.064   3.581   6.067
 8688TIP3    H126007   0.049   3.487   6.081
 8688TIP3    H226008   0.105   3.610   6.149
 8689TIP3   OH226009   6.673   1.660   2.448
 8689TIP3    H126010   6.590   1.660   2.401
 8689TIP3    H226011   6.739   1.665   2.379
 8690TIP3   OH226012   4.560   5.538   5.962
 8690TIP3    H126013   4.634   5.536   6.023
 8690TIP3    H226014   4.493   5.591   6.007
 8691TIP3   OH226015   3.520   4.913   1.656
 8691TIP3    H126016   3.556   4.873   1.734
 8691TIP3    H226017   3.553   4.859   1.584
 8692TIP3   OH226018   6.709   0.637   4.887
 8692TIP3    H126019   6.636   0.695   4.905
 8692TIP3    H226020   6.750   0.622   4.972
 8693TIP3   OH226021   2.539   1.162   3.149
 8693TIP3    H126022   2.558   1.090   3.089
 8693TIP3    H226023   2.468   1.129   3.205
 8694TIP3   OH226024   8.304   2.646   6.618
 8694TIP3    H126025   8.218   2.672   6.653
 8694TIP3    H226026   8.345   2.729   6.592
 8695TIP3   OH226027   4.497   6.565   0.276
 8695TIP3    H126028   4.491   6.482   0.325
 8695TIP3    H226029   4.406   6.586   0.254
 8696TIP3   OH226030   2.001   0.348   5.985
 8696TIP3    H126031   1.958   0.301   6.056
 8696TIP3    H226032   2.000   0.287   5.911
 8697TIP3   OH226033   4.950   1.758   2.667
 8697TIP3    H126034   4.859   1.736   2.686
 8697TIP3    H226035   4.981   1.688   2.610
 8698TIP3   OH226036   1.772   6.880   1.478
 8698TIP3    H126037   1.770   6.825   1.399
 8698TIP3    H226038   1.840   6.840   1.532
 8699TIP3   OH226039   7.329   6.739   0.991
 8699TIP3    H126040   7.289   6.703   1.070
 8699TIP3    H226041   7.290   6.688   0.919
 8700TIP3   OH226042   5.050   4.013   1.865
 8700TIP3    H126043   5.044   3.919   1.848
 8700TIP3    H226044   5.101   4.047   1.792
 8701TIP3   OH226045   6.344   0.028   1.565
 8701TIP3    H126046   6.345  -0.056   1.519
 8701TIP3    H226047   6.405   0.083   1.515
 8702TIP3   OH226048   0.830   3.782   3.433
 8702TIP3    H126049   0.888   3.769   3.357
 8702TIP3    H226050   0.754   3.726   3.415
 8703TIP3   OH226051   4.575   2.362   2.788
 8703TIP3    H126052   4.642   2.428   2.771
 8703TIP3    H226053   4.526   2.397   2.863
 8704TIP3   OH226054   2.998   6.753   3.720
 8704TIP3    H126055   3.071   6.793   3.767
 8704TIP3    H226056   3.005   6.787   3.631
 8705TIP3   OH226057   5.979   1.947   5.900
 8705TIP3    H126058   5.929   1.975   5.976
 8705TIP3    H226059   5.913   1.923   5.835
 8706TIP3   OH226060   1.607   4.109   1.276
 8706TIP3    H126061   1.608   4.165   1.354
 8706TIP3    H226062   1.700   4.097   1.254
 8707TIP3   OH226063   4.042   2.804   3.804
 8707TIP3    H126064   4.064   2.886   3.759
 8707TIP3    H226065   3.963   2.773   3.761
 8708TIP3   OH226066   2.871   1.791   3.286
 8708TIP3    H126067   2.865   1.775   3.192
 8708TIP3    H226068   2.960   1.766   3.309
 8709TIP3   OH226069   2.307   4.139   6.326
 8709TIP3    H126070   2.290   4.102   6.240
 8709TIP3    H226071   2.239   4.206   6.338
 8710TIP3   OH226072   7.500   3.700   3.548
 8710TIP3    H126073   7.541   3.618   3.522
 8710TIP3    H226074   7.548   3.729   3.625
 8711TIP3   OH226075   1.224   7.217   5.559
 8711TIP3    H126076   1.298   7.216   5.620
 8711TIP3    H226077   1.228   7.303   5.517
 8712TIP3   OH226078   2.226   3.867   5.314
 8712TIP3    H126079   2.306   3.832   5.353
 8712TIP3    H226080   2.244   3.961   5.306
 8713TIP3   OH226081   8.296   4.914   5.323
 8713TIP3    H126082   8.208   4.945   5.301
 8713TIP3    H226083   8.296   4.908   5.418
 8714TIP3   OH226084   6.933   7.554   4.396
 8714TIP3    H126085   6.957   7.622   4.460
 8714TIP3    H226086   6.841   7.536   4.414
 8715TIP3   OH226087   1.985   1.442   6.358
 8715TIP3    H126088   1.974   1.440   6.453
 8715TIP3    H226089   2.070   1.484   6.345
 8716TIP3   OH226090   2.856   2.727   3.233
 8716TIP3    H126091   2.779   2.784   3.232
 8716TIP3    H226092   2.906   2.753   3.156
 8717TIP3   OH226093   5.546   4.148   5.925
 8717TIP3    H126094   5.547   4.239   5.896
 8717TIP3    H226095   5.577   4.099   5.849
 8718TIP3   OH226096   2.579   2.932   3.520
 8718TIP3    H126097   2.608   3.014   3.482
 8718TIP3    H226098   2.658   2.877   3.523
 8719TIP3   OH226099   5.371   2.578   5.344
 8719TIP3    H126100   5.442   2.606   5.285
 8719TIP3    H226101   5.326   2.509   5.296
 8720TIP3   OH226102   1.059   1.955   4.735
 8720TIP3    H126103   0.978   1.975   4.689
 8720TIP3    H226104   1.093   1.877   4.691
 8721TIP3   OH226105   3.298   4.724   2.713
 8721TIP3    H126106   3.323   4.811   2.744
 8721TIP3    H226107   3.377   4.671   2.721
 8722TIP3   OH226108   7.476   0.800   5.104
 8722TIP3    H126109   7.404   0.768   5.049
 8722TIP3    H226110   7.554   0.789   5.050
 8723TIP3   OH226111   0.666   1.547   2.952
 8723TIP3    H126112   0.582   1.552   2.999
 8723TIP3    H226113   0.716   1.621   2.987
 8724TIP3   OH226114   1.934   0.380   1.074
 8724TIP3    H126115   1.839   0.388   1.088
 8724TIP3    H226116   1.942   0.346   0.986
 8725TIP3   OH226117   0.493   3.965   4.313
 8725TIP3    H126118   0.422   3.932   4.257
 8725TIP3    H226119   0.559   3.996   4.252
 8726TIP3   OH226120   5.833   7.517   3.544
 8726TIP3    H126121   5.741   7.541   3.535
 8726TIP3    H226122   5.844   7.441   3.486
 8727TIP3   OH226123   2.930   5.209   2.053
 8727TIP3    H126124   2.883   5.137   2.095
 8727TIP3    H226125   2.912   5.285   2.109
 8728TIP3   OH226126   0.835   7.506   5.406
 8728TIP3    H126127   0.879   7.591   5.409
 8728TIP3    H226128   0.890   7.452   5.349
 8729TIP3   OH226129   2.325   4.327   5.586
 8729TIP3    H126130   2.248   4.271   5.578
 8729TIP3    H226131   2.354   4.315   5.676
 8730TIP3   OH226132   3.345   2.600   0.420
 8730TIP3    H126133   3.349   2.543   0.497
 8730TIP3    H226134   3.418   2.570   0.365
 8731TIP3   OH226135   6.230   4.707   3.799
 8731TIP3    H126136   6.292   4.779   3.789
 8731TIP3    H226137   6.147   4.750   3.820
 8732TIP3   OH226138   6.492   0.827   1.327
 8732TIP3    H126139   6.575   0.800   1.368
 8732TIP3    H226140   6.485   0.772   1.249
 8733TIP3   OH226141   2.681   5.798   6.705
 8733TIP3    H126142   2.757   5.744   6.725
 8733TIP3    H226143   2.607   5.738   6.712
 8734TIP3   OH226144   5.880   6.296   6.295
 8734TIP3    H126145   5.913   6.238   6.226
 8734TIP3    H226146   5.853   6.238   6.365
 8735TIP3   OH226147   5.272   7.606   2.127
 8735TIP3    H126148   5.292   7.580   2.037
 8735TIP3    H226149   5.177   7.613   2.129
 8736TIP3   OH226150   2.097   5.183   5.399
 8736TIP3    H126151   2.035   5.245   5.438
 8736TIP3    H226152   2.105   5.113   5.464
 8737TIP3   OH226153   4.619   0.037   0.091
 8737TIP3    H126154   4.593  -0.046   0.052
 8737TIP3    H226155   4.704   0.020   0.131
 8738TIP3   OH226156   5.273   0.836   4.392
 8738TIP3    H126157   5.237   0.925   4.390
 8738TIP3    H226158   5.298   0.818   4.301
 8739TIP3   OH226159   5.554   2.286   3.119
 8739TIP3    H126160   5.545   2.377   3.090
 8739TIP3    H226161   5.469   2.247   3.098
 8740TIP3   OH226162   2.232   2.329   6.190
 8740TIP3    H126163   2.277   2.409   6.161
 8740TIP3    H226164   2.300   2.261   6.186
 8741TIP3   OH226165   6.119   3.539   2.391
 8741TIP3    H126166   6.119   3.452   2.350
 8741TIP3    H226167   6.184   3.589   2.340
 8742TIP3   OH226168   5.487   2.246   5.171
 8742TIP3    H126169   5.514   2.309   5.105
 8742TIP3    H226170   5.564   2.191   5.185
 8743TIP3   OH226171   3.133   5.044   5.610
 8743TIP3    H126172   3.218   5.015   5.644
 8743TIP3    H226173   3.101   4.969   5.560
 8744TIP3   OH226174   2.143   0.077   6.548
 8744TIP3    H126175   2.100   0.141   6.606
 8744TIP3    H226176   2.234   0.075   6.578
 8745TIP3   OH226177   2.283   1.461   6.499
 8745TIP3    H126178   2.232   1.486   6.576
 8745TIP3    H226179   2.357   1.411   6.534
 8746TIP3   OH226180   5.840   4.200   5.664
 8746TIP3    H126181   5.864   4.274   5.720
 8746TIP3    H226182   5.788   4.239   5.594
 8747TIP3   OH226183   2.915   5.023   3.960
 8747TIP3    H126184   2.999   4.983   3.936
 8747TIP3    H226185   2.924   5.046   4.052
 8748TIP3   OH226186   0.511   0.138   6.672
 8748TIP3    H126187   0.452   0.153   6.746
 8748TIP3    H226188   0.574   0.210   6.676
 8749TIP3   OH226189   4.294   3.007   4.499
 8749TIP3    H126190   4.254   3.084   4.539
 8749TIP3    H226191   4.221   2.956   4.464
 8750TIP3   OH226192   3.024   3.380   2.408
 8750TIP3    H126193   3.114   3.395   2.379
 8750TIP3    H226194   3.030   3.375   2.503
 8751TIP3   OH226195   3.717   5.761   1.075
 8751TIP3    H126196   3.787   5.827   1.072
 8751TIP3    H226197   3.750   5.689   1.022
 8752TIP3   OH226198   0.728   7.251   4.133
 8752TIP3    H126199   0.716   7.344   4.115
 8752TIP3    H226200   0.643   7.212   4.117
 8753TIP3   OH226201   5.510   5.602   4.910
 8753TIP3    H126202   5.494   5.563   4.824
 8753TIP3    H226203   5.496   5.530   4.971
 8754TIP3   OH226204   6.842   6.407   4.215
 8754TIP3    H126205   6.832   6.408   4.310
 8754TIP3    H226206   6.826   6.497   4.188
 8755TIP3   OH226207   4.744   3.029   3.337
 8755TIP3    H126208   4.675   3.035   3.270
 8755TIP3    H226209   4.741   2.938   3.367
 8756TIP3   OH226210   2.335   4.710   4.340
 8756TIP3    H126211   2.341   4.614   4.342
 8756TIP3    H226212   2.274   4.729   4.268
 8757TIP3   OH226213   0.760   2.474   3.675
 8757TIP3    H126214   0.825   2.410   3.704
 8757TIP3    H226215   0.813   2.547   3.641
 8758TIP3   OH226216   7.727   0.445   4.292
 8758TIP3    H126217   7.683   0.433   4.376
 8758TIP3    H226218   7.662   0.420   4.227
 8759TIP3   OH226219   6.358   1.228   1.605
 8759TIP3    H126220   6.349   1.298   1.669
 8759TIP3    H226221   6.285   1.241   1.545
 8760TIP3   OH226222   7.966   1.688   5.777
 8760TIP3    H126223   7.900   1.664   5.713
 8760TIP3    H226224   7.971   1.614   5.837
 8761TIP3   OH226225   0.412   7.636   6.766
 8761TIP3    H126226   0.340   7.597   6.718
 8761TIP3    H226227   0.472   7.564   6.785
 8762TIP3   OH226228   7.824   3.037   5.212
 8762TIP3    H126229   7.809   3.016   5.305
 8762TIP3    H226230   7.823   2.952   5.168
 8763TIP3   OH226231   5.218   3.331   1.527
 8763TIP3    H126232   5.141   3.382   1.501
 8763TIP3    H226233   5.193   3.292   1.611
 8764TIP3   OH226234   6.998   2.131   2.527
 8764TIP3    H126235   7.076   2.083   2.500
 8764TIP3    H226236   7.028   2.221   2.542
 8765TIP3   OH226237   2.820   0.519   5.273
 8765TIP3    H126238   2.797   0.524   5.365
 8765TIP3    H226239   2.795   0.605   5.238
 8766TIP3   OH226240   0.472   3.207   5.102
 8766TIP3    H126241   0.392   3.168   5.067
 8766TIP3    H226242   0.542   3.149   5.073
 8767TIP3   OH226243   4.438   4.509   5.889
 8767TIP3    H126244   4.424   4.603   5.877
 8767TIP3    H226245   4.357   4.477   5.929
 8768TIP3   OH226246   0.839   1.845   5.991
 8768TIP3    H126247   0.870   1.765   6.033
 8768TIP3    H226248   0.814   1.818   5.902
 8769TIP3   OH226249   6.849   0.499   6.121
 8769TIP3    H126250   6.759   0.474   6.098
 8769TIP3    H226251   6.838   0.567   6.188
 8770TIP3   OH226252   5.048   2.596   5.556
 8770TIP3    H126253   5.144   2.590   5.562
 8770TIP3    H226254   5.017   2.571   5.643
 8771TIP3   OH226255   3.674   1.757   6.215
 8771TIP3    H126256   3.602   1.694   6.204
 8771TIP3    H226257   3.752   1.709   6.190
 8772TIP3   OH226258   5.715   5.781   6.649
 8772TIP3    H126259   5.627   5.804   6.619
 8772TIP3    H226260   5.738   5.702   6.599
 8773TIP3   OH226261   2.088   3.290   3.415
 8773TIP3    H126262   2.129   3.204   3.404
 8773TIP3    H226263   2.117   3.320   3.501
 8774TIP3   OH226264   5.352   3.865   2.985
 8774TIP3    H126265   5.346   3.871   3.080
 8774TIP3    H226266   5.397   3.782   2.969
 8775TIP3   OH226267   4.947   1.638   4.482
 8775TIP3    H126268   4.862   1.612   4.516
 8775TIP3    H226269   4.993   1.675   4.557
 8776TIP3   OH226270   4.033   2.494   1.856
 8776TIP3    H126271   4.082   2.423   1.814
 8776TIP3    H226272   4.088   2.571   1.844
 8777TIP3   OH226273   7.209   1.815   3.433
 8777TIP3    H126274   7.285   1.859   3.396
 8777TIP3    H226275   7.179   1.873   3.503
 8778TIP3   OH226276   4.152   3.805   4.089
 8778TIP3    H126277   4.237   3.824   4.048
 8778TIP3    H226278   4.143   3.872   4.157
 8779TIP3   OH226279   8.238   7.689   2.484
 8779TIP3    H126280   8.274   7.777   2.491
 8779TIP3    H226281   8.308   7.632   2.518
 8780TIP3   OH226282   0.109   4.050   3.991
 8780TIP3    H126283   0.176   4.111   4.022
 8780TIP3    H226284   0.061   4.025   4.070
 8781TIP3   OH226285   3.358   5.292   3.423
 8781TIP3    H126286   3.264   5.282   3.442
 8781TIP3    H226287   3.391   5.202   3.421
 8782TIP3   OH226288   0.975   6.694   5.294
 8782TIP3    H126289   0.889   6.691   5.252
 8782TIP3    H226290   0.971   6.625   5.361
 8783TIP3   OH226291   7.997   4.683   0.589
 8783TIP3    H126292   8.000   4.630   0.509
 8783TIP3    H226293   7.940   4.757   0.567
 8784TIP3   OH226294   0.440   2.886   4.327
 8784TIP3    H126295   0.438   2.802   4.280
 8784TIP3    H226296   0.349   2.900   4.354
 8785TIP3   OH226297   0.616   3.844   0.801
 8785TIP3    H126298   0.535   3.891   0.784
 8785TIP3    H226299   0.620   3.836   0.896
 8786TIP3   OH226300   1.710   1.019   6.221
 8786TIP3    H126301   1.764   0.968   6.281
 8786TIP3    H226302   1.722   1.110   6.249
 8787TIP3   OH226303   0.089   1.887   1.960
 8787TIP3    H126304   0.055   1.933   2.037
 8787TIP3    H226305   0.143   1.953   1.915
 8788TIP3   OH226306   0.238   2.327   6.695
 8788TIP3    H126307   0.152   2.303   6.661
 8788TIP3    H226308   0.300   2.279   6.639
 8789TIP3   OH226309   7.441   6.690   0.571
 8789TIP3    H126310   7.433   6.771   0.620
 8789TIP3    H226311   7.383   6.629   0.616
 8790TIP3   OH226312   4.917   5.070   5.531
 8790TIP3    H126313   4.844   5.108   5.580
 8790TIP3    H226314   4.906   4.976   5.539
 8791TIP3   OH226315   6.366   3.319   4.757
 8791TIP3    H126316   6.446   3.285   4.798
 8791TIP3    H226317   6.373   3.414   4.765
 8792TIP3   OH226318   2.630   5.113   0.185
 8792TIP3    H126319   2.598   5.195   0.221
 8792TIP3    H226320   2.552   5.057   0.180
 8793TIP3   OH226321   0.152   0.947   2.933
 8793TIP3    H126322   0.076   0.978   2.981
 8793TIP3    H226323   0.146   0.991   2.848
 8794TIP3   OH226324   4.388   2.502   5.704
 8794TIP3    H126325   4.482   2.488   5.710
 8794TIP3    H226326   4.362   2.460   5.623
 8795TIP3   OH226327   6.388   3.611   6.434
 8795TIP3    H126328   6.460   3.549   6.423
 8795TIP3    H226329   6.400   3.647   6.522
 8796TIP3   OH226330   2.417   4.538   4.942
 8796TIP3    H126331   2.460   4.554   5.026
 8796TIP3    H226332   2.323   4.540   4.962
 8797TIP3   OH226333   4.831   1.659   6.643
 8797TIP3    H126334   4.863   1.692   6.559
 8797TIP3    H226335   4.892   1.695   6.708
 8798TIP3   OH226336   7.129   3.132   1.983
 8798TIP3    H126337   7.066   3.147   1.912
 8798TIP3    H226338   7.214   3.130   1.939
 8799TIP3   OH226339   2.371   2.943   2.325
 8799TIP3    H126340   2.432   2.920   2.255
 8799TIP3    H226341   2.328   3.022   2.295
 8800TIP3   OH226342   3.796   6.085   5.381
 8800TIP3    H126343   3.846   6.137   5.317
 8800TIP3    H226344   3.764   6.150   5.444
 8801TIP3   OH226345   2.214   0.456   4.573
 8801TIP3    H126346   2.261   0.417   4.500
 8801TIP3    H226347   2.279   0.462   4.643
 8802TIP3   OH226348   7.384   7.137   5.678
 8802TIP3    H126349   7.327   7.212   5.694
 8802TIP3    H226350   7.400   7.100   5.765
 8803TIP3   OH226351   4.469   1.888   2.793
 8803TIP3    H126352   4.556   1.858   2.766
 8803TIP3    H226353   4.410   1.817   2.767
 8804TIP3   OH226354   6.135   4.988   4.240
 8804TIP3    H126355   6.125   5.072   4.195
 8804TIP3    H226356   6.157   4.926   4.170
 8805TIP3   OH226357   4.480   3.327   5.836
 8805TIP3    H126358   4.437   3.412   5.849
 8805TIP3    H226359   4.522   3.308   5.920
 8806TIP3   OH226360   4.352   1.627   5.512
 8806TIP3    H126361   4.315   1.711   5.483
 8806TIP3    H226362   4.277   1.580   5.549
 8807TIP3   OH226363   5.787   2.203   5.556
 8807TIP3    H126364   5.882   2.192   5.545
 8807TIP3    H226365   5.762   2.136   5.620
 8808TIP3   OH226366   4.859   1.037   6.355
 8808TIP3    H126367   4.868   1.132   6.343
 8808TIP3    H226368   4.825   1.006   6.271
 8809TIP3   OH226369   6.380   6.267   2.093
 8809TIP3    H126370   6.298   6.247   2.048
 8809TIP3    H226371   6.362   6.347   2.142
 8810TIP3   OH226372   1.597   7.264   6.084
 8810TIP3    H126373   1.548   7.195   6.130
 8810TIP3    H226374   1.686   7.230   6.078
 8811TIP3   OH226375   7.599   0.213   1.055
 8811TIP3    H126376   7.662   0.246   0.990
 8811TIP3    H226377   7.640   0.233   1.139
 8812TIP3   OH226378   5.084   1.818   4.668
 8812TIP3    H126379   5.106   1.907   4.641
 8812TIP3    H226380   5.159   1.790   4.720
 8813TIP3   OH226381   2.422   0.129   6.598
 8813TIP3    H126382   2.470   0.052   6.568
 8813TIP3    H226383   2.424   0.124   6.693
 8814TIP3   OH226384   7.761   4.973   6.336
 8814TIP3    H126385   7.676   4.937   6.312
 8814TIP3    H226386   7.805   4.902   6.382
 8815TIP3   OH226387   4.940   5.082   1.080
 8815TIP3    H126388   5.031   5.105   1.060
 8815TIP3    H226389   4.896   5.083   0.995
 8816TIP3   OH226390   6.992   1.165   0.129
 8816TIP3    H126391   7.041   1.200   0.055
 8816TIP3    H226392   7.003   1.070   0.123
 8817TIP3   OH226393   7.911   1.291   4.845
 8817TIP3    H126394   7.926   1.205   4.806
 8817TIP3    H226395   7.998   1.321   4.872
 8818TIP3   OH226396   6.391   0.326   1.661
 8818TIP3    H126397   6.350   0.245   1.693
 8818TIP3    H226398   6.407   0.378   1.740
 8819TIP3   OH226399   5.548   3.227   3.257
 8819TIP3    H126400   5.528   3.226   3.351
 8819TIP3    H226401   5.541   3.136   3.230
 8820TIP3   OH226402   3.714   4.038   3.006
 8820TIP3    H126403   3.734   4.023   3.099
 8820TIP3    H226404   3.619   4.037   3.002
 8821TIP3   OH226405   3.779   0.041   0.284
 8821TIP3    H126406   3.728   0.078   0.212
 8821TIP3    H226407   3.844  -0.015   0.241
 8822TIP3   OH226408   6.473   4.323   2.165
 8822TIP3    H126409   6.544   4.288   2.113
 8822TIP3    H226410   6.419   4.247   2.188
 8823TIP3   OH226411   2.265   2.068   1.648
 8823TIP3    H126412   2.342   2.119   1.624
 8823TIP3    H226413   2.191   2.116   1.612
 8824TIP3   OH226414   7.761   7.081   0.961
 8824TIP3    H126415   7.746   7.012   0.896
 8824TIP3    H226416   7.698   7.149   0.938
 8825TIP3   OH226417   0.242   3.836   0.178
 8825TIP3    H126418   0.292   3.825   0.259
 8825TIP3    H226419   0.160   3.789   0.193
 8826TIP3   OH226420   1.591   6.199   1.441
 8826TIP3    H126421   1.622   6.128   1.384
 8826TIP3    H226422   1.523   6.159   1.494
 8827TIP3   OH226423   1.266   5.370   0.504
 8827TIP3    H126424   1.339   5.422   0.539
 8827TIP3    H226425   1.191   5.396   0.557
 8828TIP3   OH226426   1.516   7.594   2.901
 8828TIP3    H126427   1.605   7.567   2.878
 8828TIP3    H226428   1.472   7.604   2.817
 8829TIP3   OH226429   6.843   2.140   4.016
 8829TIP3    H126430   6.785   2.124   4.090
 8829TIP3    H226431   6.784   2.155   3.942
 8830TIP3   OH226432   7.767   1.963   2.938
 8830TIP3    H126433   7.789   1.996   2.851
 8830TIP3    H226434   7.707   2.028   2.974
 8831TIP3   OH226435   7.202   6.608   1.249
 8831TIP3    H126436   7.247   6.526   1.271
 8831TIP3    H226437   7.117   6.600   1.293
 8832TIP3   OH226438   7.738   6.943   2.416
 8832TIP3    H126439   7.667   6.912   2.359
 8832TIP3    H226440   7.745   7.036   2.397
 8833TIP3   OH226441   2.353   6.361   5.953
 8833TIP3    H126442   2.388   6.423   6.017
 8833TIP3    H226443   2.379   6.275   5.986
 8834TIP3   OH226444   1.216   0.825   4.069
 8834TIP3    H126445   1.138   0.774   4.091
 8834TIP3    H226446   1.258   0.774   3.999
 8835TIP3   OH226447   1.255   2.820   2.823
 8835TIP3    H126448   1.240   2.858   2.736
 8835TIP3    H226449   1.259   2.725   2.806
 8836TIP3   OH226450   3.075   6.122   4.619
 8836TIP3    H126451   3.051   6.182   4.689
 8836TIP3    H226452   3.017   6.046   4.632
 8837TIP3   OH226453   2.320   5.065   4.771
 8837TIP3    H126454   2.368   5.031   4.847
 8837TIP3    H226455   2.377   5.133   4.735
 8838TIP3   OH226456   0.952   3.865   6.754
 8838TIP3    H126457   0.968   3.778   6.717
 8838TIP3    H226458   1.004   3.867   6.834
 8839TIP3   OH226459   4.897   5.970   4.108
 8839TIP3    H126460   4.973   5.931   4.065
 8839TIP3    H226461   4.897   6.061   4.078
 8840TIP3   OH226462   0.556   4.045   1.164
 8840TIP3    H126463   0.586   4.102   1.236
 8840TIP3    H226464   0.559   3.957   1.201
 8841TIP3   OH226465   6.631   1.103   3.678
 8841TIP3    H126466   6.551   1.051   3.686
 8841TIP3    H226467   6.653   1.127   3.767
 8842TIP3   OH226468   4.994   3.684   1.815
 8842TIP3    H126469   4.915   3.665   1.867
 8842TIP3    H226470   4.962   3.691   1.725
 8843TIP3   OH226471   1.930   7.132   2.036
 8843TIP3    H126472   1.928   7.112   1.942
 8843TIP3    H226473   1.889   7.056   2.077
 8844TIP3   OH226474   0.947   4.681   6.031
 8844TIP3    H126475   0.923   4.588   6.029
 8844TIP3    H226476   0.894   4.718   6.102
 8845TIP3   OH226477   6.714   0.798   1.047
 8845TIP3    H126478   6.779   0.867   1.061
 8845TIP3    H226479   6.765   0.718   1.043
 8846TIP3   OH226480   3.793   1.042   3.840
 8846TIP3    H126481   3.707   1.017   3.806
 8846TIP3    H226482   3.855   1.007   3.775
 8847TIP3   OH226483   7.801   4.945   1.032
 8847TIP3    H126484   7.788   5.037   1.055
 8847TIP3    H226485   7.777   4.939   0.940
 8848TIP3   OH226486   3.396   2.427   5.225
 8848TIP3    H126487   3.447   2.365   5.277
 8848TIP3    H226488   3.441   2.429   5.140
 8849TIP3   OH226489   7.052   5.253   6.218
 8849TIP3    H126490   7.078   5.293   6.301
 8849TIP3    H226491   6.966   5.290   6.199
 8850TIP3   OH226492   7.542   2.442   1.971
 8850TIP3    H126493   7.613   2.479   1.918
 8850TIP3    H226494   7.512   2.515   2.025
 8851TIP3   OH226495   1.701   0.586   6.220
 8851TIP3    H126496   1.664   0.647   6.156
 8851TIP3    H226497   1.792   0.616   6.231
 8852TIP3   OH226498   2.340   4.615   2.908
 8852TIP3    H126499   2.258   4.570   2.931
 8852TIP3    H226500   2.334   4.628   2.814
 8853TIP3   OH226501   2.416   2.215   4.351
 8853TIP3    H126502   2.509   2.196   4.364
 8853TIP3    H226503   2.413   2.260   4.266
 8854TIP3   OH226504   5.053   0.277   2.644
 8854TIP3    H126505   5.085   0.258   2.732
 8854TIP3    H226506   4.957   0.272   2.652
 8855TIP3   OH226507   7.271   2.292   1.121
 8855TIP3    H126508   7.288   2.384   1.100
 8855TIP3    H226509   7.183   2.292   1.160
 8856TIP3   OH226510   4.395   7.379   6.445
 8856TIP3    H126511   4.345   7.435   6.505
 8856TIP3    H226512   4.329   7.330   6.397
 8857TIP3   OH226513   7.813   2.025   0.860
 8857TIP3    H126514   7.812   2.121   0.859
 8857TIP3    H226515   7.723   2.000   0.844
 8858TIP3   OH226516   0.000   3.937   5.362
 8858TIP3    H126517   0.047   3.895   5.289
 8858TIP3    H226518   0.005   3.873   5.433
 8859TIP3   OH226519   4.238   7.209   3.694
 8859TIP3    H126520   4.244   7.299   3.725
 8859TIP3    H226521   4.252   7.156   3.772
 8860TIP3   OH226522   5.697   2.047   3.607
 8860TIP3    H126523   5.632   1.991   3.565
 8860TIP3    H226524   5.776   1.993   3.611
 8861TIP3   OH226525   6.511   2.045   0.723
 8861TIP3    H126526   6.583   2.060   0.661
 8861TIP3    H226527   6.511   2.123   0.778
 8862TIP3   OH226528   2.550   6.574   4.404
 8862TIP3    H126529   2.554   6.659   4.447
 8862TIP3    H226530   2.617   6.578   4.336
 8863TIP3   OH226531   8.070   3.616   3.290
 8863TIP3    H126532   8.105   3.536   3.329
 8863TIP3    H226533   7.975   3.599   3.283
 8864TIP3   OH226534   7.370   5.007   3.286
 8864TIP3    H126535   7.422   4.929   3.264
 8864TIP3    H226536   7.424   5.054   3.350
 8865TIP3   OH226537   6.187   5.686   5.860
 8865TIP3    H126538   6.179   5.740   5.782
 8865TIP3    H226539   6.115   5.623   5.854
 8866TIP3   OH226540   7.780   2.501   0.669
 8866TIP3    H126541   7.860   2.460   0.636
 8866TIP3    H226542   7.807   2.547   0.748
 8867TIP3   OH226543   2.570   4.929   2.575
 8867TIP3    H126544   2.493   4.980   2.552
 8867TIP3    H226545   2.611   4.979   2.646
 8868TIP3   OH226546   5.267   1.802   4.908
 8868TIP3    H126547   5.280   1.887   4.952
 8868TIP3    H226548   5.355   1.772   4.887
 8869TIP3   OH226549   1.783   5.974   0.378
 8869TIP3    H126550   1.790   5.932   0.292
 8869TIP3    H226551   1.690   5.992   0.389
 8870TIP3   OH226552   1.756   4.513   5.494
 8870TIP3    H126553   1.706   4.527   5.574
 8870TIP3    H226554   1.835   4.467   5.523
 8871TIP3   OH226555   5.275   3.604   4.563
 8871TIP3    H126556   5.194   3.587   4.517
 8871TIP3    H226557   5.304   3.518   4.595
 8872TIP3   OH226558   4.406   5.397   4.929
 8872TIP3    H126559   4.353   5.406   4.850
 8872TIP3    H226560   4.474   5.463   4.921
 8873TIP3   OH226561   2.742   4.726   3.588
 8873TIP3    H126562   2.703   4.704   3.672
 8873TIP3    H226563   2.781   4.645   3.558
 8874TIP3   OH226564   2.299   2.370   3.971
 8874TIP3    H126565   2.264   2.284   3.996
 8874TIP3    H226566   2.377   2.350   3.920
 8875TIP3   OH226567   0.120   2.321   2.505
 8875TIP3    H126568   0.040   2.272   2.523
 8875TIP3    H226569   0.140   2.302   2.414
 8876TIP3   OH226570   3.466   6.024   6.093
 8876TIP3    H126571   3.391   6.080   6.113
 8876TIP3    H226572   3.451   5.994   6.004
 8877TIP3   OH226573   4.174   2.293   1.695
 8877TIP3    H126574   4.240   2.293   1.764
 8877TIP3    H226575   4.138   2.204   1.695
 8878TIP3   OH226576   3.884   0.956   6.362
 8878TIP3    H126577   3.880   0.896   6.287
 8878TIP3    H226578   3.923   1.036   6.326
 8879TIP3   OH226579   5.302   7.104   3.154
 8879TIP3    H126580   5.397   7.113   3.156
 8879TIP3    H226581   5.269   7.193   3.139
 8880TIP3   OH226582   4.619   0.458   0.626
 8880TIP3    H126583   4.641   0.551   0.631
 8880TIP3    H226584   4.632   0.426   0.716
 8881TIP3   OH226585   2.675   2.432   4.941
 8881TIP3    H126586   2.688   2.399   4.852
 8881TIP3    H226587   2.623   2.364   4.984
 8882TIP3   OH226588   5.022   4.211   1.569
 8882TIP3    H126589   5.015   4.118   1.546
 8882TIP3    H226590   5.003   4.257   1.488
 8883TIP3   OH226591   3.456   7.052   3.814
 8883TIP3    H126592   3.371   7.007   3.813
 8883TIP3    H226593   3.436   7.142   3.788
 8884TIP3   OH226594   5.618   1.598   1.761
 8884TIP3    H126595   5.613   1.518   1.814
 8884TIP3    H226596   5.536   1.644   1.781
 8885TIP3   OH226597   5.469   7.130   1.072
 8885TIP3    H126598   5.386   7.090   1.043
 8885TIP3    H226599   5.499   7.074   1.143
 8886TIP3   OH226600   6.539   5.904   3.709
 8886TIP3    H126601   6.548   5.892   3.614
 8886TIP3    H226602   6.445   5.915   3.722
 8887TIP3   OH226603   3.637   3.426   6.792
 8887TIP3    H126604   3.619   3.519   6.776
 8887TIP3    H226605   3.670   3.393   6.709
 8888TIP3   OH226606   7.968   1.349   6.678
 8888TIP3    H126607   8.027   1.329   6.605
 8888TIP3    H226608   8.014   1.416   6.728
 8889TIP3   OH226609   7.181   3.281   3.884
 8889TIP3    H126610   7.120   3.350   3.855
 8889TIP3    H226611   7.216   3.315   3.967
 8890TIP3   OH226612   7.500  -0.007   4.490
 8890TIP3    H126613   7.491   0.057   4.420
 8890TIP3    H226614   7.590  -0.037   4.484
 8891TIP3   OH226615   6.737   4.468   0.587
 8891TIP3    H126616   6.793   4.490   0.662
 8891TIP3    H226617   6.658   4.521   0.601
 8892TIP3   OH226618   7.200   2.992   3.999
 8892TIP3    H126619   7.175   3.083   3.985
 8892TIP3    H226620   7.295   2.995   4.013
 8893TIP3   OH226621   4.630   3.923   5.235
 8893TIP3    H126622   4.552   3.961   5.277
 8893TIP3    H226623   4.700   3.985   5.255
 8894TIP3   OH226624   2.074   3.483   6.107
 8894TIP3    H126625   2.072   3.478   6.202
 8894TIP3    H226626   2.153   3.534   6.087
 8895TIP3   OH226627   3.608   5.853   2.503
 8895TIP3    H126628   3.574   5.792   2.437
 8895TIP3    H226629   3.696   5.822   2.522
 8896TIP3   OH226630   6.879   5.668   4.180
 8896TIP3    H126631   6.921   5.609   4.118
 8896TIP3    H226632   6.951   5.723   4.214
 8897TIP3   OH226633   2.439   3.093   1.990
 8897TIP3    H126634   2.429   3.175   1.941
 8897TIP3    H226635   2.519   3.106   2.041
 8898TIP3   OH226636   8.055   5.349   2.430
 8898TIP3    H126637   8.109   5.315   2.359
 8898TIP3    H226638   8.102   5.426   2.461
 8899TIP3   OH226639   2.010   5.656   3.239
 8899TIP3    H126640   2.051   5.573   3.214
 8899TIP3    H226641   2.080   5.706   3.281
 8900TIP3   OH226642   0.364   5.266   3.219
 8900TIP3    H126643   0.331   5.195   3.273
 8900TIP3    H226644   0.394   5.224   3.138
 8901TIP3   OH226645   6.684   5.834   3.246
 8901TIP3    H126646   6.672   5.921   3.208
 8901TIP3    H226647   6.779   5.823   3.250
 8902TIP3   OH226648   5.209   1.942   3.956
 8902TIP3    H126649   5.262   1.870   3.921
 8902TIP3    H226650   5.208   1.927   4.051
 8903TIP3   OH226651   0.325   2.030   0.427
 8903TIP3    H126652   0.265   2.101   0.452
 8903TIP3    H226653   0.333   1.977   0.506
 8904TIP3   OH226654   2.219   5.019   0.592
 8904TIP3    H126655   2.160   4.946   0.573
 8904TIP3    H226656   2.187   5.091   0.537
 8905TIP3   OH226657   0.530   2.618   1.849
 8905TIP3    H126658   0.623   2.629   1.868
 8905TIP3    H226659   0.486   2.659   1.924
 8906TIP3   OH226660   8.170   4.056   1.255
 8906TIP3    H126661   8.248   4.072   1.202
 8906TIP3    H226662   8.101   4.107   1.211
 8907TIP3   OH226663   1.908   2.250   4.813
 8907TIP3    H126664   1.937   2.194   4.884
 8907TIP3    H226665   1.988   2.267   4.762
 8908TIP3   OH226666   8.162   2.226   6.240
 8908TIP3    H126667   8.076   2.265   6.257
 8908TIP3    H226668   8.176   2.240   6.146
 8909TIP3   OH226669   7.329   1.085   0.213
 8909TIP3    H126670   7.311   0.995   0.240
 8909TIP3    H226671   7.310   1.085   0.119
 8910TIP3   OH226672   7.785   6.611   6.009
 8910TIP3    H126673   7.829   6.694   5.990
 8910TIP3    H226674   7.701   6.616   5.963
 8911TIP3   OH226675   2.683   3.255   1.004
 8911TIP3    H126676   2.595   3.223   0.986
 8911TIP3    H226677   2.677   3.350   0.992
 8912TIP3   OH226678   5.686   7.362   5.982
 8912TIP3    H126679   5.717   7.353   6.072
 8912TIP3    H226680   5.662   7.455   5.975
 8913TIP3   OH226681   4.421   5.937   6.559
 8913TIP3    H126682   4.401   5.952   6.467
 8913TIP3    H226683   4.392   5.847   6.575
 8914TIP3   OH226684   2.595   6.034   1.255
 8914TIP3    H126685   2.617   6.121   1.221
 8914TIP3    H226686   2.606   6.042   1.350
 8915TIP3   OH226687   1.749   4.338   5.756
 8915TIP3    H126688   1.717   4.425   5.778
 8915TIP3    H226689   1.681   4.278   5.787
 8916TIP3   OH226690   6.067   1.168   3.502
 8916TIP3    H126691   6.152   1.156   3.545
 8916TIP3    H226692   6.013   1.096   3.534
 8917TIP3   OH226693   5.841   6.576   5.791
 8917TIP3    H126694   5.753   6.601   5.764
 8917TIP3    H226695   5.827   6.516   5.864
 8918TIP3   OH226696   5.010   1.684   4.085
 8918TIP3    H126697   5.053   1.599   4.075
 8918TIP3    H226698   5.015   1.724   3.998
 8919TIP3   OH226699   5.512   4.560   4.427
 8919TIP3    H126700   5.573   4.487   4.438
 8919TIP3    H226701   5.428   4.527   4.460
 8920TIP3   OH226702   7.771   3.127   1.571
 8920TIP3    H126703   7.796   3.035   1.584
 8920TIP3    H226704   7.850   3.177   1.592
 8921TIP3   OH226705   0.077   6.219   5.902
 8921TIP3    H126706   0.135   6.272   5.956
 8921TIP3    H226707   0.019   6.175   5.964
 8922TIP3   OH226708   5.534   2.675   6.589
 8922TIP3    H126709   5.461   2.667   6.650
 8922TIP3    H226710   5.611   2.685   6.645
 8923TIP3   OH226711   3.645   1.512   3.044
 8923TIP3    H126712   3.723   1.467   3.011
 8923TIP3    H226713   3.680   1.589   3.090
 8924TIP3   OH226714   6.382   2.360   4.644
 8924TIP3    H126715   6.427   2.444   4.632
 8924TIP3    H226716   6.422   2.323   4.723
 8925TIP3   OH226717   4.065   7.373   0.313
 8925TIP3    H126718   3.990   7.429   0.333
 8925TIP3    H226719   4.127   7.390   0.385
 8926TIP3   OH226720   7.624   1.684   4.984
 8926TIP3    H126721   7.671   1.678   5.067
 8926TIP3    H226722   7.622   1.594   4.951
 8927TIP3   OH226723   3.069   2.276   0.706
 8927TIP3    H126724   3.148   2.234   0.672
 8927TIP3    H226725   3.062   2.358   0.656
 8928TIP3   OH226726   4.803   3.612   0.984
 8928TIP3    H126727   4.792   3.541   0.920
 8928TIP3    H226728   4.769   3.689   0.939
 8929TIP3   OH226729   7.278   3.313   5.425
 8929TIP3    H126730   7.241   3.306   5.513
 8929TIP3    H226731   7.371   3.298   5.436
 8930TIP3   OH226732   0.065   0.836   5.294
 8930TIP3    H126733   0.150   0.810   5.331
 8930TIP3    H226734   0.049   0.773   5.224
 8931TIP3   OH226735   3.626   6.143   2.651
 8931TIP3    H126736   3.618   6.049   2.639
 8931TIP3    H226737   3.632   6.155   2.745
 8932TIP3   OH226738   8.239   2.198   2.237
 8932TIP3    H126739   8.154   2.190   2.193
 8932TIP3    H226740   8.233   2.137   2.310
 8933TIP3   OH226741   1.891   4.215   3.927
 8933TIP3    H126742   1.959   4.280   3.906
 8933TIP3    H226743   1.809   4.263   3.919
 8934TIP3   OH226744   1.760   4.132   5.435
 8934TIP3    H126745   1.808   4.162   5.513
 8934TIP3    H226746   1.819   4.069   5.394
 8935TIP3   OH226747   0.190   3.494   6.708
 8935TIP3    H126748   0.146   3.412   6.729
 8935TIP3    H226749   0.122   3.561   6.713
 8936TIP3   OH226750   5.434   1.491   5.637
 8936TIP3    H126751   5.384   1.538   5.571
 8936TIP3    H226752   5.484   1.426   5.588
 8937TIP3   OH226753   1.896   5.854   2.293
 8937TIP3    H126754   1.988   5.844   2.316
 8937TIP3    H226755   1.875   5.776   2.242
 8938TIP3   OH226756   4.185   7.190   6.356
 8938TIP3    H126757   4.137   7.262   6.398
 8938TIP3    H226758   4.145   7.182   6.269
 8939TIP3   OH226759   5.500   2.026   4.440
 8939TIP3    H126760   5.546   1.947   4.468
 8939TIP3    H226761   5.528   2.094   4.502
 8940TIP3   OH226762   7.897   0.279   1.063
 8940TIP3    H126763   7.874   0.311   1.150
 8940TIP3    H226764   7.991   0.296   1.055
 8941TIP3   OH226765   1.226   3.468   3.333
 8941TIP3    H126766   1.171   3.422   3.269
 8941TIP3    H226767   1.309   3.482   3.288
 8942TIP3   OH226768   4.439   6.070   6.802
 8942TIP3    H126769   4.451   6.058   6.708
 8942TIP3    H226770   4.371   6.007   6.826
 8943TIP3   OH226771   5.333   6.446   1.568
 8943TIP3    H126772   5.249   6.490   1.576
 8943TIP3    H226773   5.388   6.488   1.635
 8944TIP3   OH226774   6.572   4.273   0.060
 8944TIP3    H126775   6.606   4.194   0.018
 8944TIP3    H226776   6.513   4.242   0.128
 8945TIP3   OH226777   0.476   2.168   2.414
 8945TIP3    H126778   0.498   2.256   2.384
 8945TIP3    H226779   0.526   2.110   2.357
 8946TIP3   OH226780   4.626   4.788   0.563
 8946TIP3    H126781   4.622   4.787   0.659
 8946TIP3    H226782   4.659   4.874   0.541
 8947TIP3   OH226783   1.008   2.768   2.979
 8947TIP3    H126784   1.102   2.760   2.961
 8947TIP3    H226785   0.969   2.695   2.931
 8948TIP3   OH226786   7.231   7.044   4.670
 8948TIP3    H126787   7.147   7.011   4.703
 8948TIP3    H226788   7.251   7.118   4.727
 8949TIP3   OH226789   6.961   6.190   4.023
 8949TIP3    H126790   6.926   6.259   4.080
 8949TIP3    H226791   6.919   6.110   4.053
 8950TIP3   OH226792   2.552   1.919   1.909
 8950TIP3    H126793   2.568   1.860   1.983
 8950TIP3    H226794   2.611   1.993   1.924
 8951TIP3   OH226795   4.129   7.614   1.851
 8951TIP3    H126796   4.063   7.667   1.896
 8951TIP3    H226797   4.213   7.654   1.876
 8952TIP3   OH226798   6.679   5.794   5.131
 8952TIP3    H126799   6.732   5.825   5.058
 8952TIP3    H226800   6.614   5.736   5.092
 8953TIP3   OH226801   4.905   0.055   1.284
 8953TIP3    H126802   4.998   0.059   1.264
 8953TIP3    H226803   4.889  -0.037   1.306
 8954TIP3   OH226804   7.213   6.995   4.276
 8954TIP3    H126805   7.223   7.070   4.334
 8954TIP3    H226806   7.287   7.001   4.215
 8955TIP3   OH226807   2.126   6.014   5.037
 8955TIP3    H126808   2.144   6.108   5.034
 8955TIP3    H226809   2.034   6.005   5.011
 8956TIP3   OH226810   4.292   7.646   4.930
 8956TIP3    H126811   4.353   7.697   4.983
 8956TIP3    H226812   4.347   7.585   4.881
 8957TIP3   OH226813   5.391   7.572   0.025
 8957TIP3    H126814   5.411   7.646  -0.032
 8957TIP3    H226815   5.304   7.591   0.060
 8958TIP3   OH226816   0.486   2.292   0.507
 8958TIP3    H126817   0.518   2.295   0.417
 8958TIP3    H226818   0.391   2.302   0.500
 8959TIP3   OH226819   4.925   5.494   5.976
 8959TIP3    H126820   4.878   5.536   6.049
 8959TIP3    H226821   5.015   5.526   5.985
 8960TIP3   OH226822   2.291   1.504   0.207
 8960TIP3    H126823   2.323   1.419   0.236
 8960TIP3    H226824   2.359   1.566   0.234
 8961TIP3   OH226825   3.787   5.060   4.600
 8961TIP3    H126826   3.782   5.150   4.570
 8961TIP3    H226827   3.874   5.030   4.575
 8962TIP3   OH226828   0.063   4.488   2.494
 8962TIP3    H126829   0.150   4.459   2.521
 8962TIP3    H226830   0.004   4.454   2.562
 8963TIP3   OH226831   1.467   7.012   0.188
 8963TIP3    H126832   1.415   7.041   0.113
 8963TIP3    H226833   1.537   6.959   0.150
 8964TIP3   OH226834   5.023   4.206   3.661
 8964TIP3    H126835   5.026   4.204   3.756
 8964TIP3    H226836   4.963   4.136   3.637
 8965TIP3   OH226837   2.020   3.061   6.705
 8965TIP3    H126838   2.112   3.042   6.718
 8965TIP3    H226839   1.983   3.061   6.793
 8966TIP3   OH226840   8.309   5.080   3.001
 8966TIP3    H126841   8.303   5.172   3.027
 8966TIP3    H226842   8.218   5.049   3.002
 8967TIP3   OH226843   6.181   7.538   0.293
 8967TIP3    H126844   6.142   7.480   0.228
 8967TIP3    H226845   6.156   7.626   0.266
 8968TIP3   OH226846   8.138   6.346   3.688
 8968TIP3    H126847   8.163   6.264   3.646
 8968TIP3    H226848   8.044   6.352   3.677
 8969TIP3   OH226849   5.847   6.323   4.533
 8969TIP3    H126850   5.794   6.373   4.596
 8969TIP3    H226851   5.911   6.278   4.588
 8970TIP3   OH226852   1.097   4.805   5.420
 8970TIP3    H126853   1.141   4.736   5.469
 8970TIP3    H226854   1.017   4.765   5.387
 8971TIP3   OH226855   0.393   2.930   3.259
 8971TIP3    H126856   0.362   2.840   3.254
 8971TIP3    H226857   0.410   2.955   3.168
 8972TIP3   OH226858   4.142   4.879   4.846
 8972TIP3    H126859   4.105   4.952   4.896
 8972TIP3    H226860   4.066   4.824   4.825
 8973TIP3   OH226861   1.579   7.395   5.085
 8973TIP3    H126862   1.559   7.349   5.003
 8973TIP3    H226863   1.648   7.457   5.062
 8974TIP3   OH226864   0.428   0.589   2.678
 8974TIP3    H126865   0.361   0.636   2.628
 8974TIP3    H226866   0.482   0.659   2.716
 8975TIP3   OH226867   5.738   0.800   5.136
 8975TIP3    H126868   5.744   0.742   5.060
 8975TIP3    H226869   5.646   0.796   5.162
 8976TIP3   OH226870   5.792   0.056   5.039
 8976TIP3    H126871   5.810   0.049   5.133
 8976TIP3    H226872   5.708   0.013   5.027
 8977TIP3   OH226873   5.447   3.632   2.823
 8977TIP3    H126874   5.411   3.543   2.826
 8977TIP3    H226875   5.454   3.652   2.729
 8978TIP3   OH226876   6.591   4.481   6.547
 8978TIP3    H126877   6.568   4.572   6.567
 8978TIP3    H226878   6.650   4.487   6.472
 8979TIP3   OH226879   5.174   6.253   4.698
 8979TIP3    H126880   5.093   6.223   4.656
 8979TIP3    H226881   5.202   6.327   4.644
 8980TIP3   OH226882   7.218   2.257   2.819
 8980TIP3    H126883   7.181   2.332   2.865
 8980TIP3    H226884   7.160   2.184   2.842
 8981TIP3   OH226885   5.420   4.006   1.201
 8981TIP3    H126886   5.391   4.081   1.253
 8981TIP3    H226887   5.347   3.944   1.206
 8982TIP3   OH226888   3.319   4.048   6.733
 8982TIP3    H126889   3.309   4.111   6.805
 8982TIP3    H226890   3.242   4.061   6.679
 8983TIP3   OH226891   2.927   2.076   5.496
 8983TIP3    H126892   2.862   2.093   5.564
 8983TIP3    H226893   2.927   2.154   5.442
 8984TIP3   OH226894   0.269   7.424   0.885
 8984TIP3    H126895   0.185   7.427   0.841
 8984TIP3    H226896   0.257   7.360   0.956
 8985TIP3   OH226897   0.811   1.388   1.421
 8985TIP3    H126898   0.729   1.342   1.404
 8985TIP3    H226899   0.810   1.463   1.362
 8986TIP3   OH226900   6.198   6.068   5.711
 8986TIP3    H126901   6.196   6.118   5.793
 8986TIP3    H226902   6.106   6.051   5.690
 8987TIP3   OH226903   2.506   2.114   5.456
 8987TIP3    H126904   2.578   2.087   5.398
 8987TIP3    H226905   2.447   2.163   5.399
 8988TIP3   OH226906   5.349   2.170   4.753
 8988TIP3    H126907   5.284   2.108   4.719
 8988TIP3    H226908   5.422   2.165   4.691
 8989TIP3   OH226909   0.404   3.492   4.228
 8989TIP3    H126910   0.321   3.475   4.272
 8989TIP3    H226911   0.403   3.431   4.153
 8990TIP3   OH226912   2.709   3.515   0.951
 8990TIP3    H126913   2.702   3.609   0.968
 8990TIP3    H226914   2.760   3.509   0.870
 8991TIP3   OH226915   7.777   1.829   1.862
 8991TIP3    H126916   7.824   1.883   1.926
 8991TIP3    H226917   7.830   1.750   1.854
 8992TIP3   OH226918   6.971   5.027   5.235
 8992TIP3    H126919   6.937   4.979   5.159
 8992TIP3    H226920   7.012   5.105   5.198
 8993TIP3   OH226921   3.028   7.498   4.104
 8993TIP3    H126922   3.000   7.455   4.023
 8993TIP3    H226923   2.984   7.449   4.174
 8994TIP3   OH226924   2.325   2.825   2.827
 8994TIP3    H126925   2.334   2.730   2.820
 8994TIP3    H226926   2.325   2.856   2.736
 8995TIP3   OH226927   3.242   5.573   0.761
 8995TIP3    H126928   3.325   5.528   0.775
 8995TIP3    H226929   3.229   5.625   0.841
 8996TIP3   OH226930   4.548   2.260   0.831
 8996TIP3    H126931   4.569   2.198   0.760
 8996TIP3    H226932   4.577   2.216   0.911
 8997TIP3   OH226933   4.549   3.101   1.704
 8997TIP3    H126934   4.522   3.075   1.792
 8997TIP3    H226935   4.497   3.179   1.685
 8998TIP3   OH226936   1.879   1.333   4.230
 8998TIP3    H126937   1.825   1.290   4.297
 8998TIP3    H226938   1.968   1.302   4.247
 8999TIP3   OH226939   5.421   2.794   3.865
 8999TIP3    H126940   5.352   2.790   3.932
 8999TIP3    H226941   5.445   2.702   3.850
 9000TIP3   OH226942   4.771   4.196   5.085
 9000TIP3    H126943   4.755   4.184   4.991
 9000TIP3    H226944   4.851   4.248   5.089
 9001TIP3   OH226945   6.159   2.392   6.512
 9001TIP3    H126946   6.201   2.432   6.588
 9001TIP3    H226947   6.232   2.360   6.459
 9002TIP3   OH226948   0.191   5.777   5.808
 9002TIP3    H126949   0.167   5.800   5.897
 9002TIP3    H226950   0.132   5.827   5.752
 9003TIP3   OH226951   0.674   5.838   1.689
 9003TIP3    H126952   0.585   5.865   1.669
 9003TIP3    H226953   0.698   5.778   1.619
 9004TIP3   OH226954   1.818   7.199   3.871
 9004TIP3    H126955   1.769   7.256   3.929
 9004TIP3    H226956   1.897   7.249   3.848
 9005TIP3   OH226957   4.822   3.199   6.630
 9005TIP3    H126958   4.763   3.258   6.675
 9005TIP3    H226959   4.784   3.188   6.542
 9006TIP3   OH226960   5.211   5.336   2.988
 9006TIP3    H126961   5.123   5.371   3.003
 9006TIP3    H226962   5.211   5.251   3.030
 9007TIP3   OH226963   1.868   6.563   0.036
 9007TIP3    H126964   1.951   6.545   0.081
 9007TIP3    H226965   1.893   6.575  -0.056
 9008TIP3   OH226966   3.139   5.847   6.098
 9008TIP3    H126967   3.070   5.913   6.100
 9008TIP3    H226968   3.207   5.881   6.156
 9009TIP3   OH226969   6.542   2.751   5.017
 9009TIP3    H126970   6.559   2.752   4.922
 9009TIP3    H226971   6.600   2.683   5.051
 9010TIP3   OH226972   2.080   5.022   4.662
 9010TIP3    H126973   2.109   5.044   4.574
 9010TIP3    H226974   2.158   5.035   4.717
 9011TIP3   OH226975   1.604   2.869   4.945
 9011TIP3    H126976   1.593   2.927   4.869
 9011TIP3    H226977   1.519   2.826   4.955
 9012TIP3   OH226978   8.024   1.699   3.680
 9012TIP3    H126979   8.111   1.661   3.692
 9012TIP3    H226980   8.014   1.760   3.753
 9013TIP3   OH226981   6.150   4.296   4.213
 9013TIP3    H126982   6.067   4.312   4.259
 9013TIP3    H226983   6.193   4.382   4.211
 9014TIP3   OH226984   2.119   3.461   3.627
 9014TIP3    H126985   2.173   3.492   3.700
 9014TIP3    H226986   2.029   3.471   3.658
 9015TIP3   OH226987   2.961   5.315   1.189
 9015TIP3    H126988   2.893   5.341   1.250
 9015TIP3    H226989   2.975   5.222   1.207
 9016TIP3   OH226990   3.245   2.302   2.172
 9016TIP3    H126991   3.256   2.342   2.085
 9016TIP3    H226992   3.160   2.335   2.203
 9017TIP3   OH226993   3.980   4.567   5.271
 9017TIP3    H126994   4.062   4.525   5.245
 9017TIP3    H226995   3.991   4.588   5.364
 9018TIP3   OH226996   4.651   7.451   0.798
 9018TIP3    H126997   4.574   7.393   0.792
 9018TIP3    H226998   4.670   7.456   0.891
 9019TIP3   OH226999   4.251   3.344   5.636
 9019TIP3    H127000   4.278   3.311   5.722
 9019TIP3    H227001   4.213   3.269   5.591
 9020TIP3   OH227002   4.718   1.641   4.682
 9020TIP3    H127003   4.757   1.562   4.721
 9020TIP3    H227004   4.750   1.712   4.737
 9021TIP3   OH227005   7.243   1.074   2.086
 9021TIP3    H127006   7.228   1.058   1.993
 9021TIP3    H227007   7.156   1.071   2.125
 9022TIP3   OH227008   7.090   3.273   1.094
 9022TIP3    H127009   7.106   3.331   1.019
 9022TIP3    H227010   6.997   3.286   1.114
 9023TIP3   OH227011   1.183   7.687   3.659
 9023TIP3    H127012   1.145   7.604   3.688
 9023TIP3    H227013   1.276   7.679   3.678
 9024TIP3   OH227014   3.313   0.521   2.449
 9024TIP3    H127015   3.271   0.526   2.363
 9024TIP3    H227016   3.249   0.557   2.510
 9025TIP3   OH227017   5.266   1.132   4.529
 9025TIP3    H127018   5.208   1.095   4.595
 9025TIP3    H227019   5.338   1.171   4.578
 9026TIP3   OH227020   4.638   7.841   6.116
 9026TIP3    H127021   4.714   7.808   6.163
 9026TIP3    H227022   4.565   7.788   6.148
 9027TIP3   OH227023   3.929   2.638   0.741
 9027TIP3    H127024   3.887   2.632   0.655
 9027TIP3    H227025   3.863   2.604   0.802
 9028TIP3   OH227026   2.598   4.167   3.015
 9028TIP3    H127027   2.558   4.254   3.010
 9028TIP3    H227028   2.691   4.183   3.002
 9029TIP3   OH227029   5.734   6.270   2.488
 9029TIP3    H127030   5.763   6.189   2.446
 9029TIP3    H227031   5.684   6.241   2.564
 9030TIP3   OH227032   3.805   5.906   6.532
 9030TIP3    H127033   3.766   5.849   6.466
 9030TIP3    H227034   3.866   5.850   6.579
 9031TIP3   OH227035   3.006   5.106   4.272
 9031TIP3    H127036   3.065   5.041   4.309
 9031TIP3    H227037   3.064   5.174   4.238
 9032TIP3   OH227038   4.336   1.102   3.949
 9032TIP3    H127039   4.254   1.150   3.949
 9032TIP3    H227040   4.403   1.169   3.932
 9033TIP3   OH227041   1.797   2.605   1.706
 9033TIP3    H127042   1.887   2.603   1.674
 9033TIP3    H227043   1.781   2.698   1.724
 9034TIP3   OH227044   0.924   3.163   1.740
 9034TIP3    H127045   0.897   3.230   1.677
 9034TIP3    H227046   1.013   3.140   1.712
 9035TIP3   OH227047   7.966   2.606   4.405
 9035TIP3    H127048   7.931   2.519   4.425
 9035TIP3    H227049   8.036   2.591   4.341
 9036TIP3   OH227050   4.398   5.764   6.000
 9036TIP3    H127051   4.353   5.843   6.031
 9036TIP3    H227052   4.399   5.774   5.905
 9037TIP3   OH227053   4.361   6.907   4.661
 9037TIP3    H127054   4.266   6.910   4.651
 9037TIP3    H227055   4.376   6.874   4.750
 9038TIP3   OH227056   5.146   1.597   1.312
 9038TIP3    H127057   5.071   1.656   1.298
 9038TIP3    H227058   5.112   1.529   1.369
 9039TIP3   OH227059   2.251   5.385   0.117
 9039TIP3    H127060   2.225   5.309   0.064
 9039TIP3    H227061   2.169   5.418   0.153
 9040TIP3   OH227062   0.274   1.117   0.687
 9040TIP3    H127063   0.246   1.205   0.711
 9040TIP3    H227064   0.328   1.088   0.761
 9041TIP3   OH227065   3.530   6.316   2.139
 9041TIP3    H127066   3.495   6.312   2.228
 9041TIP3    H227067   3.557   6.407   2.128
 9042TIP3   OH227068   4.023   4.233   1.530
 9042TIP3    H127069   4.062   4.151   1.498
 9042TIP3    H227070   4.090   4.299   1.513
 9043TIP3   OH227071   5.219   2.579   3.874
 9043TIP3    H127072   5.180   2.509   3.822
 9043TIP3    H227073   5.312   2.557   3.878
 9044TIP3   OH227074   1.037   6.686   0.220
 9044TIP3    H127075   1.125   6.663   0.190
 9044TIP3    H227076   1.015   6.619   0.284
 9045TIP3   OH227077   3.941   0.093   4.628
 9045TIP3    H127078   3.856   0.075   4.588
 9045TIP3    H227079   3.969   0.009   4.664
 9046TIP3   OH227080   4.486   1.459   0.939
 9046TIP3    H127081   4.560   1.445   0.998
 9046TIP3    H227082   4.526   1.466   0.852
 9047TIP3   OH227083   2.823   5.941   0.168
 9047TIP3    H127084   2.865   5.954   0.083
 9047TIP3    H227085   2.881   5.881   0.214
 9048TIP3   OH227086   3.434   0.166   4.321
 9048TIP3    H127087   3.461   0.226   4.252
 9048TIP3    H227088   3.359   0.119   4.284
 9049TIP3   OH227089   5.409   3.301   2.239
 9049TIP3    H127090   5.476   3.364   2.267
 9049TIP3    H227091   5.375   3.336   2.157
 9050TIP3   OH227092   1.867   4.973   0.287
 9050TIP3    H127093   1.902   4.961   0.199
 9050TIP3    H227094   1.944   4.984   0.343
 9051TIP3   OH227095   2.405   4.936   1.065
 9051TIP3    H127096   2.360   4.984   0.995
 9051TIP3    H227097   2.447   5.004   1.117
 9052TIP3   OH227098   0.895   3.169   4.373
 9052TIP3    H127099   0.842   3.161   4.293
 9052TIP3    H227100   0.958   3.097   4.367
 9053TIP3   OH227101   3.287   5.434   1.961
 9053TIP3    H127102   3.267   5.482   1.880
 9053TIP3    H227103   3.223   5.467   2.025
 9054TIP3   OH227104   2.200   4.844   2.418
 9054TIP3    H127105   2.218   4.778   2.351
 9054TIP3    H227106   2.135   4.803   2.475
 9055TIP3   OH227107   6.852   1.087   5.504
 9055TIP3    H127108   6.762   1.056   5.491
 9055TIP3    H227109   6.901   1.008   5.530
 9056TIP3   OH227110   2.507   4.462   2.248
 9056TIP3    H127111   2.568   4.396   2.215
 9056TIP3    H227112   2.479   4.428   2.333
 9057TIP3   OH227113   1.648   3.757   0.474
 9057TIP3    H127114   1.615   3.736   0.386
 9057TIP3    H227115   1.710   3.828   0.460
 9058TIP3   OH227116   4.777   2.224   4.996
 9058TIP3    H127117   4.788   2.130   5.010
 9058TIP3    H227118   4.834   2.264   5.062
 9059TIP3   OH227119   0.198   5.265   1.982
 9059TIP3    H127120   0.259   5.219   1.925
 9059TIP3    H227121   0.189   5.352   1.943
 9060TIP3   OH227122   4.461   5.182   2.920
 9060TIP3    H127123   4.445   5.250   2.985
 9060TIP3    H227124   4.427   5.219   2.838
 9061TIP3   OH227125   8.236   4.617   4.140
 9061TIP3    H127126   8.179   4.554   4.096
 9061TIP3    H227127   8.298   4.563   4.189
 9062TIP3   OH227128   4.180   0.115   2.086
 9062TIP3    H127129   4.113   0.068   2.035
 9062TIP3    H227130   4.232   0.160   2.020
 9063TIP3   OH227131   3.811   2.529   0.965
 9063TIP3    H127132   3.781   2.444   0.998
 9063TIP3    H227133   3.767   2.593   1.021
 9064TIP3   OH227134   3.819   4.697   2.998
 9064TIP3    H127135   3.730   4.675   3.025
 9064TIP3    H227136   3.835   4.644   2.920
 9065TIP3   OH227137   1.146   6.737   4.611
 9065TIP3    H127138   1.057   6.761   4.585
 9065TIP3    H227139   1.149   6.642   4.601
 9066TIP3   OH227140   7.713   0.915   4.623
 9066TIP3    H127141   7.648   0.929   4.555
 9066TIP3    H227142   7.679   0.963   4.699
 9067TIP3   OH227143   4.592   6.697   5.056
 9067TIP3    H127144   4.645   6.758   5.107
 9067TIP3    H227145   4.596   6.615   5.104
 9068TIP3   OH227146   7.777   6.910   3.534
 9068TIP3    H127147   7.748   6.896   3.444
 9068TIP3    H227148   7.722   6.982   3.566
 9069TIP3   OH227149   2.380   5.407   0.659
 9069TIP3    H127150   2.361   5.384   0.750
 9069TIP3    H227151   2.420   5.494   0.664
 9070TIP3   OH227152   3.730   3.338   2.678
 9070TIP3    H127153   3.805   3.365   2.732
 9070TIP3    H227154   3.655   3.384   2.716
 9071TIP3   OH227155   4.291   5.940   1.046
 9071TIP3    H127156   4.290   6.020   0.993
 9071TIP3    H227157   4.375   5.943   1.091
 9072TIP3   OH227158   7.611   2.523   3.178
 9072TIP3    H127159   7.672   2.449   3.178
 9072TIP3    H227160   7.619   2.561   3.266
 9073TIP3   OH227161   7.665   6.486   2.212
 9073TIP3    H127162   7.647   6.488   2.306
 9073TIP3    H227163   7.760   6.492   2.205
 9074TIP3   OH227164   1.612   4.270   1.516
 9074TIP3    H127165   1.634   4.204   1.582
 9074TIP3    H227166   1.695   4.310   1.493
 9075TIP3   OH227167   0.488   2.636   6.274
 9075TIP3    H127168   0.526   2.595   6.197
 9075TIP3    H227169   0.563   2.670   6.323
 9076TIP3   OH227170   1.062   3.798   4.542
 9076TIP3    H127171   0.987   3.755   4.499
 9076TIP3    H227172   1.024   3.840   4.619
 9077TIP3   OH227173   1.636   4.895   0.052
 9077TIP3    H127174   1.689   4.969   0.023
 9077TIP3    H227175   1.657   4.885   0.145
 9078TIP3   OH227176   0.337   7.751   2.865
 9078TIP3    H127177   0.366   7.664   2.894
 9078TIP3    H227178   0.248   7.737   2.832
 9079TIP3   OH227179   8.259   5.301   0.563
 9079TIP3    H127180   8.229   5.214   0.538
 9079TIP3    H227181   8.200   5.361   0.518
 9080TIP3   OH227182   6.190   4.431   1.178
 9080TIP3    H127183   6.207   4.340   1.201
 9080TIP3    H227184   6.131   4.427   1.103
 9081TIP3   OH227185   0.871   3.315   5.669
 9081TIP3    H127186   0.879   3.409   5.687
 9081TIP3    H227187   0.799   3.310   5.606
 9082TIP3   OH227188   4.319   1.618   1.218
 9082TIP3    H127189   4.239   1.662   1.189
 9082TIP3    H227190   4.309   1.528   1.185
 9083TIP3   OH227191   1.384   1.985   2.012
 9083TIP3    H127192   1.358   2.064   2.060
 9083TIP3    H227193   1.305   1.957   1.967
 9084TIP3   OH227194   7.839   0.340   2.902
 9084TIP3    H127195   7.745   0.332   2.883
 9084TIP3    H227196   7.845   0.338   2.997
 9085TIP3   OH227197   7.812   4.877   3.065
 9085TIP3    H127198   7.887   4.835   3.023
 9085TIP3    H227199   7.850   4.950   3.114
 9086TIP3   OH227200   4.906   0.760   5.564
 9086TIP3    H127201   4.918   0.665   5.565
 9086TIP3    H227202   4.995   0.796   5.572
 9087TIP3   OH227203   2.323   7.767   0.372
 9087TIP3    H127204   2.285   7.727   0.451
 9087TIP3    H227205   2.407   7.724   0.361
 9088TIP3   OH227206   2.819   7.218   5.278
 9088TIP3    H127207   2.865   7.200   5.196
 9088TIP3    H227208   2.751   7.151   5.282
 9089TIP3   OH227209   7.315   0.144   3.334
 9089TIP3    H127210   7.390   0.182   3.289
 9089TIP3    H227211   7.247   0.211   3.326
 9090TIP3   OH227212   5.803   6.272   5.538
 9090TIP3    H127213   5.727   6.317   5.574
 9090TIP3    H227214   5.766   6.197   5.491
 9091TIP3   OH227215   2.493   1.748   0.947
 9091TIP3    H127216   2.516   1.666   0.991
 9091TIP3    H227217   2.577   1.789   0.927
 9092TIP3   OH227218   3.241   6.905   3.252
 9092TIP3    H127219   3.322   6.918   3.203
 9092TIP3    H227220   3.171   6.920   3.188
 9093TIP3   OH227221   8.185   6.656   0.524
 9093TIP3    H127222   8.222   6.730   0.573
 9093TIP3    H227223   8.206   6.675   0.433
 9094TIP3   OH227224   5.208   2.618   4.660
 9094TIP3    H127225   5.230   2.683   4.594
 9094TIP3    H227226   5.253   2.648   4.739
 9095TIP3   OH227227   2.485   1.215   1.325
 9095TIP3    H127228   2.564   1.162   1.310
 9095TIP3    H227229   2.413   1.154   1.310
 9096TIP3   OH227230   1.936   0.845   1.466
 9096TIP3    H127231   1.935   0.753   1.491
 9096TIP3    H227232   1.848   0.862   1.432
 9097TIP3   OH227233   6.944   2.270   0.262
 9097TIP3    H127234   6.925   2.317   0.344
 9097TIP3    H227235   6.909   2.327   0.193
 9098TIP3   OH227236   0.622   7.732   0.086
 9098TIP3    H127237   0.612   7.819   0.124
 9098TIP3    H227238   0.713   7.730   0.056
 9099TIP3   OH227239   1.170   3.898   4.267
 9099TIP3    H127240   1.181   3.898   4.172
 9099TIP3    H227241   1.097   3.839   4.283
 9100TIP3   OH227242   7.543   6.194   6.579
 9100TIP3    H127243   7.552   6.273   6.525
 9100TIP3    H227244   7.614   6.137   6.549
 9101TIP3   OH227245   0.903   4.280   1.532
 9101TIP3    H127246   0.913   4.191   1.565
 9101TIP3    H227247   0.878   4.332   1.608
 9102TIP3   OH227248   6.632   0.315   0.783
 9102TIP3    H127249   6.568   0.255   0.744
 9102TIP3    H227250   6.678   0.261   0.848
 9103TIP3   OH227251   2.080   2.174   3.813
 9103TIP3    H127252   1.985   2.170   3.824
 9103TIP3    H227253   2.098   2.265   3.793
 9104TIP3   OH227254   7.961   5.923   5.671
 9104TIP3    H127255   8.025   5.853   5.682
 9104TIP3    H227256   7.905   5.893   5.599
 9105TIP3   OH227257   3.866   4.759   0.771
 9105TIP3    H127258   3.826   4.846   0.775
 9105TIP3    H227259   3.944   4.772   0.717
 9106TIP3   OH227260   3.457   4.723   4.903
 9106TIP3    H127261   3.450   4.803   4.955
 9106TIP3    H227262   3.459   4.752   4.812
 9107TIP3   OH227263   7.156   4.465   2.157
 9107TIP3    H127264   7.192   4.433   2.239
 9107TIP3    H227265   7.141   4.387   2.104
 9108TIP3   OH227266   0.637   4.283   5.153
 9108TIP3    H127267   0.585   4.203   5.158
 9108TIP3    H227268   0.728   4.253   5.157
 9109TIP3   OH227269   3.623   3.214   5.878
 9109TIP3    H127270   3.565   3.166   5.937
 9109TIP3    H227271   3.624   3.163   5.797
 9110TIP3   OH227272   6.252   7.426   6.700
 9110TIP3    H127273   6.219   7.428   6.610
 9110TIP3    H227274   6.344   7.404   6.692
 9111TIP3   OH227275   6.983   0.686   1.540
 9111TIP3    H127276   6.976   0.595   1.571
 9111TIP3    H227277   7.012   0.677   1.449
 9112TIP3   OH227278   5.539   3.509   0.660
 9112TIP3    H127279   5.500   3.526   0.746
 9112TIP3    H227280   5.594   3.585   0.644
 9113TIP3   OH227281   7.696   6.419   0.469
 9113TIP3    H127282   7.635   6.367   0.521
 9113TIP3    H227283   7.680   6.509   0.495
 9114TIP3   OH227284   4.621   5.345   4.489
 9114TIP3    H127285   4.529   5.330   4.468
 9114TIP3    H227286   4.668   5.274   4.445
 9115TIP3   OH227287   1.857   7.365   3.573
 9115TIP3    H127288   1.825   7.455   3.571
 9115TIP3    H227289   1.917   7.361   3.647
 9116TIP3   OH227290   6.067   5.448   1.102
 9116TIP3    H127291   6.092   5.532   1.063
 9116TIP3    H227292   6.080   5.384   1.032
 9117TIP3   OH227293   2.739   6.763   3.631
 9117TIP3    H127294   2.823   6.754   3.676
 9117TIP3    H227295   2.756   6.734   3.542
 9118TIP3   OH227296   5.389   4.246   4.498
 9118TIP3    H127297   5.346   4.228   4.581
 9118TIP3    H227298   5.316   4.251   4.435
 9119TIP3   OH227299   7.428   5.603   2.898
 9119TIP3    H127300   7.433   5.519   2.853
 9119TIP3    H227301   7.499   5.655   2.860
 9120TIP3   OH227302   5.635   3.828   5.189
 9120TIP3    H127303   5.726   3.835   5.218
 9120TIP3    H227304   5.641   3.792   5.100
 9121TIP3   OH227305   0.643   3.870   5.457
 9121TIP3    H127306   0.719   3.903   5.410
 9121TIP3    H227307   0.625   3.936   5.524
 9122TIP3   OH227308   5.249   3.952   6.663
 9122TIP3    H127309   5.276   4.021   6.724
 9122TIP3    H227310   5.325   3.940   6.606
 9123TIP3   OH227311   7.963   6.482   4.639
 9123TIP3    H127312   7.882   6.489   4.588
 9123TIP3    H227313   7.934   6.471   4.729
 9124TIP3   OH227314   4.306   0.344   5.412
 9124TIP3    H127315   4.274   0.428   5.446
 9124TIP3    H227316   4.397   0.360   5.390
 9125TIP3   OH227317   3.573   6.971   6.496
 9125TIP3    H127318   3.640   6.967   6.565
 9125TIP3    H227319   3.492   6.993   6.543
 9126TIP3   OH227320   4.094   7.334   2.395
 9126TIP3    H127321   4.115   7.245   2.423
 9126TIP3    H227322   4.063   7.324   2.305
 9127TIP3   OH227323   6.367   2.767   6.696
 9127TIP3    H127324   6.289   2.803   6.738
 9127TIP3    H227325   6.440   2.802   6.747
 9128TIP3   OH227326   0.734   2.281   2.702
 9128TIP3    H127327   0.647   2.245   2.715
 9128TIP3    H227328   0.719   2.366   2.660
 9129TIP3   OH227329   2.254   0.396   6.039
 9129TIP3    H127330   2.255   0.350   5.955
 9129TIP3    H227331   2.161   0.413   6.055
 9130TIP3   OH227332   2.335   0.951   1.263
 9130TIP3    H127333   2.417   0.905   1.280
 9130TIP3    H227334   2.317   0.934   1.170
 9131TIP3   OH227335   7.167   6.423   1.018
 9131TIP3    H127336   7.087   6.376   1.039
 9131TIP3    H227337   7.162   6.505   1.068
 9132TIP3   OH227338   4.256   2.334   1.980
 9132TIP3    H127339   4.329   2.301   2.033
 9132TIP3    H227340   4.201   2.381   2.043
 9133TIP3   OH227341   5.169   7.132   3.659
 9133TIP3    H127342   5.152   7.135   3.565
 9133TIP3    H227343   5.250   7.083   3.668
 9134TIP3   OH227344   1.699   3.882   6.626
 9134TIP3    H127345   1.733   3.832   6.552
 9134TIP3    H227346   1.642   3.949   6.587
 9135TIP3   OH227347   4.479   6.458   3.047
 9135TIP3    H127348   4.528   6.393   2.995
 9135TIP3    H227349   4.526   6.463   3.130
 9136TIP3   OH227350   3.517   2.069   5.285
 9136TIP3    H127351   3.492   2.086   5.194
 9136TIP3    H227352   3.435   2.044   5.329
 9137TIP3   OH227353   3.807   6.400   3.457
 9137TIP3    H127354   3.821   6.489   3.490
 9137TIP3    H227355   3.719   6.378   3.487
 9138TIP3   OH227356   5.988   2.971   3.472
 9138TIP3    H127357   5.897   2.995   3.491
 9138TIP3    H227358   6.026   3.050   3.434
 9139TIP3   OH227359   4.334   6.412   4.472
 9139TIP3    H127360   4.332   6.317   4.485
 9139TIP3    H227361   4.307   6.449   4.556
 9140TIP3   OH227362   7.417  -0.002   1.749
 9140TIP3    H127363   7.484  -0.036   1.690
 9140TIP3    H227364   7.353   0.040   1.691
 9141TIP3   OH227365   1.001   0.367   5.683
 9141TIP3    H127366   0.970   0.457   5.668
 9141TIP3    H227367   0.970   0.346   5.772
 9142TIP3   OH227368   5.258   0.271   4.448
 9142TIP3    H127369   5.167   0.254   4.472
 9142TIP3    H227370   5.300   0.186   4.453
 9143TIP3   OH227371   3.791   4.047   5.683
 9143TIP3    H127372   3.870   4.061   5.630
 9143TIP3    H227373   3.726   4.106   5.644
 9144TIP3   OH227374   7.268   2.768   2.556
 9144TIP3    H127375   7.298   2.697   2.498
 9144TIP3    H227376   7.339   2.832   2.553
 9145TIP3   OH227377   2.700   6.577   5.885
 9145TIP3    H127378   2.728   6.652   5.937
 9145TIP3    H227379   2.765   6.510   5.903
 9146TIP3   OH227380   5.358   2.504   3.543
 9146TIP3    H127381   5.320   2.459   3.620
 9146TIP3    H227382   5.311   2.466   3.469
 9147TIP3   OH227383   6.058   2.932   6.297
 9147TIP3    H127384   6.131   2.988   6.324
 9147TIP3    H227385   5.980   2.982   6.319
 9148TIP3   OH227386   0.432   6.300   4.925
 9148TIP3    H127387   0.419   6.209   4.950
 9148TIP3    H227388   0.410   6.351   5.003
 9149TIP3   OH227389   6.145   5.807   4.057
 9149TIP3    H127390   6.110   5.880   4.108
 9149TIP3    H227391   6.234   5.834   4.036
 9150TIP3   OH227392   3.128   2.796   5.454
 9150TIP3    H127393   3.073   2.775   5.379
 9150TIP3    H227394   3.123   2.891   5.462
 9151TIP3   OH227395   2.066   4.972   4.386
 9151TIP3    H127396   2.101   4.941   4.302
 9151TIP3    H227397   2.040   4.893   4.432
 9152TIP3   OH227398   4.567   2.274   5.972
 9152TIP3    H127399   4.631   2.225   6.024
 9152TIP3    H227400   4.568   2.233   5.886
 9153TIP3   OH227401   0.291   6.918   0.209
 9153TIP3    H127402   0.239   6.949   0.134
 9153TIP3    H227403   0.263   6.827   0.221
 9154TIP3   OH227404   1.744   7.141   5.271
 9154TIP3    H127405   1.733   7.228   5.310
 9154TIP3    H227406   1.695   7.146   5.188
 9155TIP3   OH227407   2.735   1.545   6.099
 9155TIP3    H127408   2.771   1.516   6.015
 9155TIP3    H227409   2.726   1.640   6.089
 9156TIP3   OH227410   4.100   7.118   6.096
 9156TIP3    H127411   4.138   7.064   6.027
 9156TIP3    H227412   4.009   7.087   6.103
 9157TIP3   OH227413   1.069   0.993   4.776
 9157TIP3    H127414   1.087   0.997   4.870
 9157TIP3    H227415   1.099   0.906   4.750
 9158TIP3   OH227416   0.858   4.271   2.456
 9158TIP3    H127417   0.789   4.338   2.454
 9158TIP3    H227418   0.878   4.260   2.549
 9159TIP3   OH227419   1.282   4.341   2.173
 9159TIP3    H127420   1.318   4.309   2.091
 9159TIP3    H227421   1.188   4.330   2.165
 9160TIP3   OH227422   2.002   7.445   6.054
 9160TIP3    H127423   2.074   7.401   6.100
 9160TIP3    H227424   2.014   7.538   6.074
 9161TIP3   OH227425   1.822   5.080   4.446
 9161TIP3    H127426   1.786   5.014   4.505
 9161TIP3    H227427   1.906   5.045   4.419
 9162TIP3   OH227428   0.828   0.585   4.905
 9162TIP3    H127429   0.812   0.495   4.877
 9162TIP3    H227430   0.914   0.606   4.870
 9163TIP3   OH227431   1.957   1.557   4.406
 9163TIP3    H127432   1.898   1.522   4.473
 9163TIP3    H227433   1.932   1.511   4.326
 9164TIP3   OH227434   5.796   0.740   0.427
 9164TIP3    H127435   5.771   0.746   0.335
 9164TIP3    H227436   5.775   0.826   0.463
 9165TIP3   OH227437   4.944   2.924   2.691
 9165TIP3    H127438   4.879   2.853   2.691
 9165TIP3    H227439   5.023   2.885   2.729
 9166TIP3   OH227440   6.301   1.600   6.745
 9166TIP3    H127441   6.313   1.695   6.758
 9166TIP3    H227442   6.277   1.591   6.653
 9167TIP3   OH227443   6.793   5.749   1.726
 9167TIP3    H127444   6.881   5.746   1.688
 9167TIP3    H227445   6.735   5.724   1.654
 9168TIP3   OH227446   4.671   7.120   2.971
 9168TIP3    H127447   4.686   7.163   2.887
 9168TIP3    H227448   4.577   7.126   2.985
 9169TIP3   OH227449   6.497   0.662   1.678
 9169TIP3    H127450   6.451   0.591   1.632
 9169TIP3    H227451   6.523   0.722   1.610
 9170TIP3   OH227452   0.485   3.530   3.444
 9170TIP3    H127453   0.442   3.474   3.510
 9170TIP3    H227454   0.492   3.615   3.486
 9171TIP3   OH227455   4.750   2.765   3.481
 9171TIP3    H127456   4.755   2.689   3.423
 9171TIP3    H227457   4.657   2.781   3.491
 9172TIP3   OH227458   4.626   5.102   0.151
 9172TIP3    H127459   4.658   5.143   0.231
 9172TIP3    H227460   4.582   5.023   0.180
 9173TIP3   OH227461   1.244   3.809   6.541
 9173TIP3    H127462   1.178   3.740   6.535
 9173TIP3    H227463   1.257   3.837   6.450
 9174TIP3   OH227464   6.843   5.916   5.478
 9174TIP3    H127465   6.861   5.978   5.549
 9174TIP3    H227466   6.875   5.832   5.512
 9175TIP3   OH227467   0.097   1.299   4.912
 9175TIP3    H127468   0.132   1.288   4.824
 9175TIP3    H227469   0.174   1.317   4.966
 9176TIP3   OH227470   7.311   5.316   0.858
 9176TIP3    H127471   7.285   5.266   0.935
 9176TIP3    H227472   7.364   5.389   0.892
 9177TIP3   OH227473   3.907   6.082   5.779
 9177TIP3    H127474   3.817   6.050   5.767
 9177TIP3    H227475   3.897   6.168   5.821
 9178TIP3   OH227476   3.535   2.755   0.617
 9178TIP3    H127477   3.442   2.764   0.595
 9178TIP3    H227478   3.546   2.663   0.638
 9179TIP3   OH227479   7.892   5.040   0.186
 9179TIP3    H127480   7.861   5.102   0.120
 9179TIP3    H227481   7.987   5.038   0.174
 9180TIP3   OH227482   6.912   6.364   2.033
 9180TIP3    H127483   6.951   6.331   2.114
 9180TIP3    H227484   6.977   6.426   1.999
 9181TIP3   OH227485   3.173   1.050   0.532
 9181TIP3    H127486   3.092   1.017   0.571
 9181TIP3    H227487   3.157   1.050   0.438
 9182TIP3   OH227488   3.464   7.768   5.890
 9182TIP3    H127489   3.389   7.828   5.891
 9182TIP3    H227490   3.496   7.772   5.800
 9183TIP3   OH227491   0.692   2.091   4.165
 9183TIP3    H127492   0.708   2.012   4.217
 9183TIP3    H227493   0.655   2.058   4.083
 9184TIP3   OH227494   1.378   5.605   5.185
 9184TIP3    H127495   1.460   5.640   5.151
 9184TIP3    H227496   1.403   5.528   5.236
 9185TIP3   OH227497   8.074   1.235   4.034
 9185TIP3    H127498   8.112   1.286   3.963
 9185TIP3    H227499   8.027   1.299   4.088
 9186TIP3   OH227500   4.350   1.363   3.269
 9186TIP3    H127501   4.398   1.288   3.304
 9186TIP3    H227502   4.408   1.437   3.286
 9187TIP3   OH227503   7.823   1.702   3.505
 9187TIP3    H127504   7.848   1.658   3.424
 9187TIP3    H227505   7.900   1.695   3.561
 9188TIP3   OH227506   1.524   2.427   2.816
 9188TIP3    H127507   1.566   2.373   2.884
 9188TIP3    H227508   1.513   2.367   2.742
 9189TIP3   OH227509   2.757   5.465   2.650
 9189TIP3    H127510   2.689   5.420   2.600
 9189TIP3    H227511   2.709   5.515   2.716
 9190TIP3   OH227512   4.885   6.639   1.024
 9190TIP3    H127513   4.958   6.695   1.050
 9190TIP3    H227514   4.884   6.643   0.929
 9191TIP3   OH227515   2.680   5.117   6.112
 9191TIP3    H127516   2.751   5.169   6.151
 9191TIP3    H227517   2.720   5.075   6.036
 9192TIP3   OH227518   5.887   4.673   4.580
 9192TIP3    H127519   5.887   4.713   4.493
 9192TIP3    H227520   5.824   4.724   4.631
 9193TIP3   OH227521   2.108   7.566   1.885
 9193TIP3    H127522   2.053   7.516   1.947
 9193TIP3    H227523   2.186   7.512   1.875
 9194TIP3   OH227524   5.126   0.921   1.778
 9194TIP3    H127525   5.212   0.883   1.799
 9194TIP3    H227526   5.119   0.913   1.683
 9195TIP3   OH227527   2.668   1.965   1.604
 9195TIP3    H127528   2.638   1.967   1.695
 9195TIP3    H227529   2.755   1.925   1.608
 9196TIP3   OH227530   5.491   0.656   0.298
 9196TIP3    H127531   5.516   0.747   0.281
 9196TIP3    H227532   5.510   0.610   0.216
 9197TIP3   OH227533   3.185   1.810   1.818
 9197TIP3    H127534   3.272   1.835   1.848
 9197TIP3    H227535   3.200   1.768   1.733
 9198TIP3   OH227536   0.224   2.649   6.209
 9198TIP3    H127537   0.208   2.555   6.200
 9198TIP3    H227538   0.315   2.656   6.235
 9199TIP3   OH227539   0.090   3.829   5.120
 9199TIP3    H127540   0.129   3.834   5.033
 9199TIP3    H227541   0.123   3.746   5.156
 9200TIP3   OH227542   7.577   4.150   2.837
 9200TIP3    H127543   7.640   4.095   2.790
 9200TIP3    H227544   7.617   4.167   2.922
 9201TIP3   OH227545   1.291   0.239   6.268
 9201TIP3    H127546   1.202   0.205   6.259
 9201TIP3    H227547   1.346   0.178   6.218
 9202TIP3   OH227548   8.161   5.020   1.227
 9202TIP3    H127549   8.166   5.039   1.321
 9202TIP3    H227550   8.241   4.971   1.208
 9203TIP3   OH227551   4.922   3.840   0.743
 9203TIP3    H127552   4.834   3.872   0.763
 9203TIP3    H227553   4.967   3.838   0.827
 9204TIP3   OH227554   1.955   5.413   1.973
 9204TIP3    H127555   1.874   5.399   1.925
 9204TIP3    H227556   1.938   5.490   2.027
 9205TIP3   OH227557   6.823   5.125   1.904
 9205TIP3    H127558   6.777   5.199   1.945
 9205TIP3    H227559   6.752   5.071   1.868
 9206TIP3   OH227560   2.847   0.271   1.404
 9206TIP3    H127561   2.883   0.216   1.473
 9206TIP3    H227562   2.752   0.264   1.414
 9207TIP3   OH227563   5.655   4.424   0.371
 9207TIP3    H127564   5.653   4.442   0.277
 9207TIP3    H227565   5.675   4.331   0.378
 9208TIP3   OH227566   2.423   5.928   2.486
 9208TIP3    H127567   2.478   6.002   2.459
 9208TIP3    H227568   2.477   5.851   2.468
 9209TIP3   OH227569   1.398   7.080   6.339
 9209TIP3    H127570   1.411   7.122   6.424
 9209TIP3    H227571   1.483   7.040   6.319
 9210TIP3   OH227572   6.381   2.239   3.867
 9210TIP3    H127573   6.391   2.327   3.904
 9210TIP3    H227574   6.396   2.250   3.773
 9211TIP3   OH227575   6.187   1.926   2.917
 9211TIP3    H127576   6.223   1.840   2.936
 9211TIP3    H227577   6.264   1.982   2.903
 9212TIP3   OH227578   7.737   2.627   3.429
 9212TIP3    H127579   7.819   2.582   3.448
 9212TIP3    H227580   7.751   2.717   3.459
 9213TIP3   OH227581   5.201   5.179   4.288
 9213TIP3    H127582   5.275   5.169   4.228
 9213TIP3    H227583   5.197   5.273   4.306
 9214TIP3   OH227584   6.434   0.214   4.334
 9214TIP3    H127585   6.412   0.124   4.359
 9214TIP3    H227586   6.500   0.204   4.265
 9215TIP3   OH227587   3.551   3.574   2.847
 9215TIP3    H127588   3.476   3.623   2.815
 9215TIP3    H227589   3.594   3.633   2.909
 9216TIP3   OH227590   7.880   0.682   4.040
 9216TIP3    H127591   7.884   0.588   4.057
 9216TIP3    H227592   7.832   0.718   4.114
 9217TIP3   OH227593   3.812   5.510   6.234
 9217TIP3    H127594   3.859   5.432   6.206
 9217TIP3    H227595   3.780   5.549   6.153
 9218TIP3   OH227596   5.319   0.297   6.070
 9218TIP3    H127597   5.384   0.347   6.020
 9218TIP3    H227598   5.367   0.223   6.105
 9219TIP3   OH227599   1.412   6.079   1.111
 9219TIP3    H127600   1.428   5.986   1.097
 9219TIP3    H227601   1.492   6.111   1.153
 9220TIP3   OH227602   0.908   6.055   0.530
 9220TIP3    H127603   0.896   6.128   0.591
 9220TIP3    H227604   0.863   5.981   0.572
 9221TIP3   OH227605   5.342   2.348   6.347
 9221TIP3    H127606   5.421   2.397   6.325
 9221TIP3    H227607   5.342   2.344   6.443
 9222TIP3   OH227608   3.909   1.362   4.340
 9222TIP3    H127609   3.822   1.388   4.308
 9222TIP3    H227610   3.955   1.445   4.354
 9223TIP3   OH227611   7.218   2.914   2.948
 9223TIP3    H127612   7.238   2.958   3.031
 9223TIP3    H227613   7.234   2.980   2.881
 9224TIP3   OH227614   7.628   7.572   3.707
 9224TIP3    H127615   7.551   7.570   3.651
 9224TIP3    H227616   7.612   7.644   3.768
 9225TIP3   OH227617   5.084   6.149   5.952
 9225TIP3    H127618   5.115   6.147   5.862
 9225TIP3    H227619   5.093   6.059   5.983
 9226TIP3   OH227620   4.094   4.533   4.762
 9226TIP3    H127621   4.157   4.605   4.770
 9226TIP3    H227622   4.136   4.471   4.702
 9227TIP3   OH227623   4.448   2.427   3.070
 9227TIP3    H127624   4.543   2.435   3.071
 9227TIP3    H227625   4.432   2.333   3.079
 9228TIP3   OH227626   2.729   2.233   4.435
 9228TIP3    H127627   2.763   2.253   4.523
 9228TIP3    H227628   2.730   2.318   4.390
 9229TIP3   OH227629   0.456   3.227   0.490
 9229TIP3    H127630   0.442   3.157   0.555
 9229TIP3    H227631   0.453   3.308   0.541
 9230TIP3   OH227632   3.973   4.524   1.987
 9230TIP3    H127633   4.006   4.592   1.928
 9230TIP3    H227634   4.045   4.511   2.050
 9231TIP3   OH227635   1.138   3.088   2.047
 9231TIP3    H127636   1.145   3.174   2.006
 9231TIP3    H227637   1.161   3.026   1.978
 9232TIP3   OH227638   4.930   4.907   0.378
 9232TIP3    H127639   5.019   4.876   0.395
 9232TIP3    H227640   4.920   4.901   0.283
 9233TIP3   OH227641   6.525   0.453   0.305
 9233TIP3    H127642   6.594   0.409   0.355
 9233TIP3    H227643   6.496   0.525   0.362
 9234TIP3   OH227644   1.214   3.850   1.697
 9234TIP3    H127645   1.245   3.827   1.609
 9234TIP3    H227646   1.180   3.768   1.733
 9235TIP3   OH227647   2.777   1.071   4.322
 9235TIP3    H127648   2.827   1.001   4.278
 9235TIP3    H227649   2.844   1.134   4.349
 9236TIP3   OH227650   6.237   5.109   5.864
 9236TIP3    H127651   6.215   5.040   5.801
 9236TIP3    H227652   6.333   5.103   5.872
 9237TIP3   OH227653   2.522   1.294   0.378
 9237TIP3    H127654   2.455   1.346   0.424
 9237TIP3    H227655   2.537   1.219   0.436
 9238TIP3   OH227656   2.464   0.318   0.504
 9238TIP3    H127657   2.484   0.401   0.461
 9238TIP3    H227658   2.369   0.314   0.508
 9239TIP3   OH227659   5.501   5.732   0.672
 9239TIP3    H127660   5.466   5.699   0.755
 9239TIP3    H227661   5.506   5.655   0.616
 9240TIP3   OH227662   4.941   3.809   2.903
 9240TIP3    H127663   5.014   3.770   2.854
 9240TIP3    H227664   4.864   3.790   2.850
 9241TIP3   OH227665   3.152   3.810   1.811
 9241TIP3    H127666   3.141   3.715   1.812
 9241TIP3    H227667   3.227   3.826   1.868
 9242TIP3   OH227668   7.048   1.522   0.527
 9242TIP3    H127669   7.046   1.443   0.474
 9242TIP3    H227670   6.958   1.556   0.522
 9243TIP3   OH227671   0.426   4.178   0.978
 9243TIP3    H127672   0.451   4.134   0.897
 9243TIP3    H227673   0.473   4.130   1.046
 9244TIP3   OH227674   7.557   0.335   4.478
 9244TIP3    H127675   7.476   0.346   4.528
 9244TIP3    H227676   7.540   0.260   4.421
 9245TIP3   OH227677   5.923   7.553   5.965
 9245TIP3    H127678   5.967   7.478   6.006
 9245TIP3    H227679   5.890   7.518   5.882
 9246TIP3   OH227680   0.527   6.240   6.434
 9246TIP3    H127681   0.532   6.174   6.503
 9246TIP3    H227682   0.494   6.318   6.478
 9247TIP3   OH227683   2.735   3.325   1.610
 9247TIP3    H127684   2.747   3.390   1.540
 9247TIP3    H227685   2.640   3.325   1.626
 9248TIP3   OH227686   4.203   5.856   4.148
 9248TIP3    H127687   4.281   5.897   4.185
 9248TIP3    H227688   4.235   5.814   4.068
 9249TIP3   OH227689   7.787   2.550   4.998
 9249TIP3    H127690   7.873   2.508   4.993
 9249TIP3    H227691   7.742   2.505   5.069
 9250TIP3   OH227692   0.434   4.467   6.153
 9250TIP3    H127693   0.389   4.451   6.070
 9250TIP3    H227694   0.391   4.544   6.190
 9251TIP3   OH227695   8.175   5.432   3.676
 9251TIP3    H127696   8.114   5.505   3.685
 9251TIP3    H227697   8.139   5.379   3.606
 9252TIP3   OH227698   0.791   5.503   4.890
 9252TIP3    H127699   0.816   5.412   4.908
 9252TIP3    H227700   0.704   5.497   4.851
 9253TIP3   OH227701   1.260   5.294   0.247
 9253TIP3    H127702   1.260   5.320   0.339
 9253TIP3    H227703   1.287   5.202   0.249
 9254TIP3   OH227704   4.561   7.016   6.123
 9254TIP3    H127705   4.606   6.993   6.205
 9254TIP3    H227706   4.477   7.053   6.152
 9255TIP3   OH227707   3.469   6.613   0.952
 9255TIP3    H127708   3.431   6.598   1.039
 9255TIP3    H227709   3.449   6.534   0.903
 9256TIP3   OH227710   0.694   3.564   6.358
 9256TIP3    H127711   0.692   3.524   6.270
 9256TIP3    H227712   0.766   3.519   6.403
 9257TIP3   OH227713   6.784   0.852   5.677
 9257TIP3    H127714   6.706   0.867   5.623
 9257TIP3    H227715   6.751   0.816   5.759
 9258TIP3   OH227716   7.651   0.353   4.784
 9258TIP3    H127717   7.617   0.267   4.811
 9258TIP3    H227718   7.658   0.346   4.688
 9259TIP3   OH227719   5.710   6.616   4.365
 9259TIP3    H127720   5.707   6.525   4.333
 9259TIP3    H227721   5.796   6.625   4.406
 9260TIP3   OH227722   1.042   2.069   4.986
 9260TIP3    H127723   0.971   2.125   4.958
 9260TIP3    H227724   1.073   2.026   4.906
 9261TIP3   OH227725   0.638   1.165   4.953
 9261TIP3    H127726   0.636   1.113   5.033
 9261TIP3    H227727   0.682   1.110   4.889
 9262TIP3   OH227728   3.312   2.411   2.572
 9262TIP3    H127729   3.219   2.433   2.562
 9262TIP3    H227730   3.353   2.494   2.597
 9263TIP3   OH227731   6.133   0.467   5.302
 9263TIP3    H127732   6.077   0.543   5.285
 9263TIP3    H227733   6.082   0.393   5.269
 9264TIP3   OH227734   6.582   1.207   3.940
 9264TIP3    H127735   6.487   1.208   3.953
 9264TIP3    H227736   6.611   1.294   3.966
 9265TIP3   OH227737   4.726   0.385   0.859
 9265TIP3    H127738   4.685   0.300   0.844
 9265TIP3    H227739   4.785   0.371   0.933
 9266TIP3   OH227740   5.401   6.367   3.522
 9266TIP3    H127741   5.403   6.272   3.513
 9266TIP3    H227742   5.423   6.383   3.614
 9267TIP3   OH227743   6.036   6.544   3.320
 9267TIP3    H127744   5.959   6.508   3.277
 9267TIP3    H227745   6.096   6.565   3.249
 9268TIP3   OH227746   1.310   4.033   2.339
 9268TIP3    H127747   1.283   3.953   2.384
 9268TIP3    H227748   1.324   4.096   2.409
 9269TIP3   OH227749   3.336   5.868   4.216
 9269TIP3    H127750   3.400   5.938   4.224
 9269TIP3    H227751   3.370   5.798   4.273
 9270TIP3   OH227752   8.092   7.788   0.780
 9270TIP3    H127753   8.039   7.800   0.859
 9270TIP3    H227754   8.035   7.817   0.709
 9271TIP3   OH227755   3.406   7.522   1.122
 9271TIP3    H127756   3.383   7.554   1.034
 9271TIP3    H227757   3.492   7.483   1.111
 9272TIP3   OH227758   7.162   0.293   5.487
 9272TIP3    H127759   7.155   0.346   5.566
 9272TIP3    H227760   7.247   0.250   5.495
 9273TIP3   OH227761   6.741   3.214   3.543
 9273TIP3    H127762   6.725   3.302   3.578
 9273TIP3    H227763   6.836   3.207   3.540
 9274TIP3   OH227764   6.856   1.645   0.952
 9274TIP3    H127765   6.875   1.613   1.040
 9274TIP3    H227766   6.914   1.594   0.895
 9275TIP3   OH227767   3.220   1.369   3.692
 9275TIP3    H127768   3.270   1.413   3.624
 9275TIP3    H227769   3.227   1.426   3.769
 9276TIP3   OH227770   7.414   6.391   4.657
 9276TIP3    H127771   7.388   6.479   4.628
 9276TIP3    H227772   7.495   6.405   4.706
 9277TIP3   OH227773   4.298   3.079   6.070
 9277TIP3    H127774   4.210   3.116   6.061
 9277TIP3    H227775   4.356   3.155   6.074
 9278TIP3   OH227776   7.419   7.578   6.350
 9278TIP3    H127777   7.481   7.509   6.326
 9278TIP3    H227778   7.333   7.543   6.324
 9279TIP3   OH227779   6.996   1.417   2.650
 9279TIP3    H127780   6.913   1.427   2.698
 9279TIP3    H227781   7.049   1.491   2.679
 9280TIP3   OH227782   1.050   7.637   1.907
 9280TIP3    H127783   1.032   7.598   1.993
 9280TIP3    H227784   0.967   7.674   1.879
 9281TIP3   OH227785   2.978   0.928   0.718
 9281TIP3    H127786   2.893   0.970   0.705
 9281TIP3    H227787   2.973   0.848   0.665
 9282TIP3   OH227788   3.538   5.217   2.553
 9282TIP3    H127789   3.496   5.169   2.480
 9282TIP3    H227790   3.542   5.307   2.523
 9283TIP3   OH227791   1.842   1.794   1.431
 9283TIP3    H127792   1.857   1.728   1.499
 9283TIP3    H227793   1.924   1.795   1.381
 9284TIP3   OH227794   7.759   7.698   0.268
 9284TIP3    H127795   7.792   7.682   0.180
 9284TIP3    H227796   7.739   7.612   0.303
 9285TIP3   OH227797   6.103   0.508   1.773
 9285TIP3    H127798   6.174   0.520   1.836
 9285TIP3    H227799   6.058   0.429   1.801
 9286TIP3   OH227800   3.162   4.858   0.911
 9286TIP3    H127801   3.223   4.919   0.870
 9286TIP3    H227802   3.118   4.815   0.837
 9287TIP3   OH227803   4.542   1.634   6.601
 9287TIP3    H127804   4.617   1.604   6.550
 9287TIP3    H227805   4.580   1.677   6.678
 9288TIP3   OH227806   7.026   1.346   5.043
 9288TIP3    H127807   7.068   1.430   5.024
 9288TIP3    H227808   7.053   1.290   4.970
 9289TIP3   OH227809   3.506   3.629   3.459
 9289TIP3    H127810   3.488   3.587   3.543
 9289TIP3    H227811   3.420   3.631   3.415
 9290TIP3   OH227812   6.737   7.475   5.036
 9290TIP3    H127813   6.661   7.525   5.006
 9290TIP3    H227814   6.726   7.470   5.131
 9291TIP3   OH227815   4.870   0.418   1.457
 9291TIP3    H127816   4.960   0.450   1.454
 9291TIP3    H227817   4.843   0.434   1.548
 9292TIP3   OH227818   7.625   1.969   4.308
 9292TIP3    H127819   7.662   1.972   4.220
 9292TIP3    H227820   7.636   1.877   4.335
 9293TIP3   OH227821   0.199   3.769   6.635
 9293TIP3    H127822   0.121   3.720   6.608
 9293TIP3    H227823   0.216   3.740   6.725
 9294TIP3   OH227824   2.462   3.284   6.214
 9294TIP3    H127825   2.517   3.207   6.227
 9294TIP3    H227826   2.524   3.356   6.203
 9295TIP3   OH227827   1.783   2.784   4.333
 9295TIP3    H127828   1.799   2.696   4.298
 9295TIP3    H227829   1.739   2.769   4.416
 9296TIP3   OH227830   4.646   3.868   0.829
 9296TIP3    H127831   4.608   3.891   0.745
 9296TIP3    H227832   4.622   3.941   0.887
 9297TIP3   OH227833   4.500   0.810   1.804
 9297TIP3    H127834   4.554   0.758   1.863
 9297TIP3    H227835   4.412   0.773   1.813
 9298TIP3   OH227836   5.604   6.122   5.036
 9298TIP3    H127837   5.532   6.126   4.973
 9298TIP3    H227838   5.565   6.084   5.115
 9299TIP3   OH227839   5.781   2.489   0.021
 9299TIP3    H127840   5.737   2.536   0.092
 9299TIP3    H227841   5.776   2.397   0.045
 9300TIP3   OH227842   1.379   5.354   2.798
 9300TIP3    H127843   1.457   5.315   2.758
 9300TIP3    H227844   1.330   5.391   2.724
 9301TIP3   OH227845   0.416   0.698   4.965
 9301TIP3    H127846   0.497   0.726   4.921
 9301TIP3    H227847   0.355   0.679   4.894
 9302TIP3   OH227848   0.981   0.330   0.319
 9302TIP3    H127849   0.911   0.292   0.372
 9302TIP3    H227850   0.983   0.276   0.239
 9303TIP3   OH227851   6.394   6.187   3.406
 9303TIP3    H127852   6.303   6.165   3.426
 9303TIP3    H227853   6.400   6.281   3.426
 9304TIP3   OH227854   4.272   7.546   1.540
 9304TIP3    H127855   4.276   7.583   1.628
 9304TIP3    H227856   4.179   7.545   1.519
 9305TIP3   OH227857   5.168   5.312   5.557
 9305TIP3    H127858   5.095   5.298   5.496
 9305TIP3    H227859   5.149   5.254   5.630
 9306TIP3   OH227860   6.223   4.047   4.887
 9306TIP3    H127861   6.256   3.966   4.925
 9306TIP3    H227862   6.189   4.097   4.961
 9307TIP3   OH227863   3.070   1.226   2.579
 9307TIP3    H127864   3.057   1.136   2.610
 9307TIP3    H227865   3.133   1.217   2.507
 9308TIP3   OH227866   3.770   5.349   2.322
 9308TIP3    H127867   3.773   5.391   2.408
 9308TIP3    H227868   3.859   5.318   2.307
 9309TIP3   OH227869   0.861   5.955   6.067
 9309TIP3    H127870   0.914   5.875   6.069
 9309TIP3    H227871   0.840   5.967   5.975
 9310TIP3   OH227872   7.665   2.596   2.335
 9310TIP3    H127873   7.633   2.512   2.302
 9310TIP3    H227874   7.714   2.573   2.414
 9311TIP3   OH227875   5.269   5.806   5.030
 9311TIP3    H127876   5.194   5.832   4.976
 9311TIP3    H227877   5.302   5.727   4.988
 9312TIP3   OH227878   8.177   0.843   5.738
 9312TIP3    H127879   8.125   0.773   5.777
 9312TIP3    H227880   8.125   0.873   5.663
 9313TIP3   OH227881   2.615   1.201   1.826
 9313TIP3    H127882   2.635   1.217   1.734
 9313TIP3    H227883   2.536   1.253   1.842
 9314TIP3   OH227884   8.250   6.466   3.174
 9314TIP3    H127885   8.185   6.401   3.147
 9314TIP3    H227886   8.329   6.415   3.191
 9315TIP3   OH227887   1.947   4.602   6.295
 9315TIP3    H127888   1.998   4.573   6.371
 9315TIP3    H227889   1.990   4.683   6.267
 9316TIP3   OH227890   3.479   0.998   2.283
 9316TIP3    H127891   3.572   0.991   2.262
 9316TIP3    H227892   3.445   1.064   2.222
 9317TIP3   OH227893   1.754   4.312   0.024
 9317TIP3    H127894   1.796   4.357   0.098
 9317TIP3    H227895   1.680   4.367   0.000
 9318TIP3   OH227896   0.685   0.637   4.180
 9318TIP3    H127897   0.611   0.664   4.127
 9318TIP3    H227898   0.648   0.621   4.267
 9319TIP3   OH227899   6.824   6.594   2.954
 9319TIP3    H127900   6.902   6.617   2.904
 9319TIP3    H227901   6.858   6.543   3.028
 9320TIP3   OH227902   1.471   1.526   6.199
 9320TIP3    H127903   1.549   1.533   6.254
 9320TIP3    H227904   1.505   1.496   6.115
 9321TIP3   OH227905   6.039   7.599   1.091
 9321TIP3    H127906   6.134   7.607   1.099
 9321TIP3    H227907   6.008   7.597   1.182
 9322TIP3   OH227908   3.643   6.417   2.782
 9322TIP3    H127909   3.719   6.401   2.839
 9322TIP3    H227910   3.584   6.469   2.836
 9323TIP3   OH227911   4.908   7.764   5.204
 9323TIP3    H127912   4.967   7.809   5.264
 9323TIP3    H227913   4.909   7.673   5.232
 9324TIP3   OH227914   2.405   4.226   5.838
 9324TIP3    H127915   2.408   4.302   5.897
 9324TIP3    H227916   2.365   4.157   5.890
 9325TIP3   OH227917   6.500   4.187   5.007
 9325TIP3    H127918   6.487   4.137   5.087
 9325TIP3    H227919   6.417   4.232   4.992
 9326TIP3   OH227920   0.128   3.668   6.310
 9326TIP3    H127921   0.202   3.726   6.331
 9326TIP3    H227922   0.086   3.651   6.394
 9327TIP3   OH227923   1.476   1.869   2.824
 9327TIP3    H127924   1.465   1.856   2.730
 9327TIP3    H227925   1.529   1.948   2.832
 9328TIP3   OH227926   7.217   4.012   3.501
 9328TIP3    H127927   7.209   4.094   3.551
 9328TIP3    H227928   7.200   4.038   3.411
 9329TIP3   OH227929   4.643   1.928   4.305
 9329TIP3    H127930   4.729   1.889   4.320
 9329TIP3    H227931   4.587   1.888   4.372
 9330TIP3   OH227932   3.455   1.289   6.299
 9330TIP3    H127933   3.531   1.251   6.255
 9330TIP3    H227934   3.460   1.255   6.388
 9331TIP3   OH227935   6.751   4.915   5.736
 9331TIP3    H127936   6.810   4.926   5.661
 9331TIP3    H227937   6.806   4.877   5.804
 9332TIP3   OH227938   4.905   7.340   4.439
 9332TIP3    H127939   4.955   7.387   4.505
 9332TIP3    H227940   4.933   7.378   4.356
 9333TIP3   OH227941   4.396   2.531   0.173
 9333TIP3    H127942   4.477   2.582   0.165
 9333TIP3    H227943   4.377   2.531   0.267
 9334TIP3   OH227944   8.175   5.646   0.374
 9334TIP3    H127945   8.184   5.725   0.428
 9334TIP3    H227946   8.263   5.630   0.340
 9335TIP3   OH227947   8.143   1.757   2.138
 9335TIP3    H127948   8.082   1.825   2.108
 9335TIP3    H227949   8.142   1.691   2.069
 9336TIP3   OH227950   5.192   4.876   5.494
 9336TIP3    H127951   5.156   4.793   5.465
 9336TIP3    H227952   5.120   4.938   5.483
 9337TIP3   OH227953   1.846   4.432   1.478
 9337TIP3    H127954   1.923   4.431   1.534
 9337TIP3    H227955   1.865   4.498   1.412
 9338TIP3   OH227956   7.684   4.304   0.012
 9338TIP3    H127957   7.653   4.223  -0.029
 9338TIP3    H227958   7.718   4.276   0.097
 9339TIP3   OH227959   6.370   6.834   4.245
 9339TIP3    H127960   6.436   6.903   4.234
 9339TIP3    H227961   6.314   6.865   4.316
 9340TIP3   OH227962   0.552   1.294   1.405
 9340TIP3    H127963   0.512   1.335   1.329
 9340TIP3    H227964   0.492   1.223   1.428
 9341TIP3   OH227965   6.904   6.193   6.585
 9341TIP3    H127966   6.832   6.206   6.646
 9341TIP3    H227967   6.958   6.271   6.593
 9342TIP3   OH227968   7.873   3.498   4.226
 9342TIP3    H127969   7.892   3.536   4.312
 9342TIP3    H227970   7.959   3.486   4.186
 9343TIP3   OH227971   0.568   0.971   6.108
 9343TIP3    H127972   0.496   0.909   6.116
 9343TIP3    H227973   0.640   0.919   6.073
 9344TIP3   OH227974   2.993   1.334   5.764
 9344TIP3    H127975   2.971   1.304   5.675
 9344TIP3    H227976   3.086   1.357   5.758
 9345TIP3   OH227977   3.578   3.830   5.526
 9345TIP3    H127978   3.496   3.782   5.517
 9345TIP3    H227979   3.631   3.777   5.585
 9346TIP3   OH227980   3.595   2.141   0.517
 9346TIP3    H127981   3.632   2.079   0.580
 9346TIP3    H227982   3.641   2.123   0.435
 9347TIP3   OH227983   7.950   2.744   4.683
 9347TIP3    H127984   8.000   2.825   4.681
 9347TIP3    H227985   7.966   2.705   4.597
 9348TIP3   OH227986   7.618   1.794   1.459
 9348TIP3    H127987   7.656   1.711   1.429
 9348TIP3    H227988   7.577   1.831   1.380
 9349TIP3   OH227989   0.135   1.902   6.317
 9349TIP3    H127990   0.141   1.826   6.259
 9349TIP3    H227991   0.173   1.974   6.267
 9350TIP3   OH227992   3.057   0.284   4.683
 9350TIP3    H127993   3.098   0.367   4.658
 9350TIP3    H227994   3.127   0.234   4.726
 9351TIP3   OH227995   0.694   0.539   5.171
 9351TIP3    H127996   0.645   0.618   5.196
 9351TIP3    H227997   0.744   0.565   5.094
 9352TIP3   OH227998   2.215   5.140   5.165
 9352TIP3    H127999   2.174   5.174   5.245
 9352TIP3    H228000   2.179   5.051   5.157
 9353TIP3   OH228001   2.334   5.588   3.492
 9353TIP3    H128002   2.316   5.496   3.473
 9353TIP3    H228003   2.367   5.588   3.582
 9354TIP3   OH228004   4.484   7.499   4.769
 9354TIP3    H128005   4.497   7.577   4.715
 9354TIP3    H228006   4.570   7.480   4.806
 9355TIP3   OH228007   7.215   2.131   1.694
 9355TIP3    H128008   7.130   2.175   1.699
 9355TIP3    H228009   7.273   2.195   1.654
 9356TIP3   OH228010   4.664   3.608   5.811
 9356TIP3    H128011   4.583   3.622   5.860
 9356TIP3    H228012   4.717   3.685   5.830
 9357TIP3   OH228013   0.320   3.213   4.800
 9357TIP3    H128014   0.357   3.286   4.849
 9357TIP3    H228015   0.335   3.235   4.709
 9358TIP3   OH228016   0.331   4.297   5.507
 9358TIP3    H128017   0.284   4.261   5.432
 9358TIP3    H228018   0.385   4.367   5.471
 9359TIP3   OH228019   5.847   7.694   3.960
 9359TIP3    H128020   5.858   7.622   3.897
 9359TIP3    H228021   5.777   7.664   4.018
 9360TIP3   OH228022   6.566   7.410   2.042
 9360TIP3    H128023   6.635   7.345   2.026
 9360TIP3    H228024   6.546   7.446   1.955
 9361TIP3   OH228025  -0.004   6.342   0.240
 9361TIP3    H128026  -0.029   6.264   0.289
 9361TIP3    H228027   0.092   6.347   0.249
 9362TIP3   OH228028   6.900   5.910   6.528
 9362TIP3    H128029   6.836   5.958   6.476
 9362TIP3    H228030   6.977   5.967   6.531
 9363TIP3   OH228031   5.610   3.359   2.464
 9363TIP3    H128032   5.703   3.349   2.485
 9363TIP3    H228033   5.597   3.453   2.458
 9364TIP3   OH228034   3.310   5.283   3.868
 9364TIP3    H128035   3.300   5.188   3.880
 9364TIP3    H228036   3.221   5.314   3.853
 9365TIP3   OH228037   2.264   4.915   6.621
 9365TIP3    H128038   2.332   4.976   6.589
 9365TIP3    H228039   2.251   4.855   6.548
 9366TIP3   OH228040   1.822   0.901   0.698
 9366TIP3    H128041   1.901   0.860   0.732
 9366TIP3    H228042   1.752   0.837   0.716
 9367TIP3   OH228043   3.735   6.862   2.322
 9367TIP3    H128044   3.667   6.900   2.378
 9367TIP3    H228045   3.694   6.855   2.236
 9368TIP3   OH228046   3.996   4.282   5.838
 9368TIP3    H128047   4.030   4.357   5.789
 9368TIP3    H228048   3.962   4.223   5.771
 9369TIP3   OH228049   3.844   4.535   0.929
 9369TIP3    H128050   3.818   4.555   1.020
 9369TIP3    H228051   3.853   4.621   0.888
 9370TIP3   OH228052   3.923   6.249   5.201
 9370TIP3    H128053   3.931   6.322   5.262
 9370TIP3    H228054   3.979   6.273   5.127
 9371TIP3   OH228055   2.033   3.158   0.107
 9371TIP3    H128056   2.022   3.213   0.184
 9371TIP3    H228057   1.973   3.084   0.122
 9372TIP3   OH228058   1.806   4.196   3.302
 9372TIP3    H128059   1.821   4.200   3.208
 9372TIP3    H228060   1.774   4.107   3.318
 9373TIP3   OH228061   2.893   2.539   0.646
 9373TIP3    H128062   2.854   2.625   0.628
 9373TIP3    H228063   2.831   2.477   0.610
 9374TIP3   OH228064   2.879   0.341   3.988
 9374TIP3    H128065   2.933   0.419   3.991
 9374TIP3    H228066   2.790   0.373   4.001
 9375TIP3   OH228067   6.336   5.871   3.218
 9375TIP3    H128068   6.262   5.919   3.181
 9375TIP3    H228069   6.389   5.846   3.142
 9376TIP3   OH228070   4.871   2.810   3.099
 9376TIP3    H128071   4.930   2.734   3.101
 9376TIP3    H228072   4.888   2.855   3.182
 9377TIP3   OH228073   1.792   3.962   3.469
 9377TIP3    H128074   1.827   4.018   3.538
 9377TIP3    H228075   1.700   3.952   3.490
 9378TIP3   OH228076   1.231   0.631   5.908
 9378TIP3    H128077   1.279   0.572   5.851
 9378TIP3    H228078   1.290   0.648   5.981
 9379TIP3   OH228079   1.386   6.931   3.942
 9379TIP3    H128080   1.388   7.019   3.905
 9379TIP3    H228081   1.366   6.944   4.034
 9380TIP3   OH228082   3.169   4.472   2.941
 9380TIP3    H128083   3.089   4.498   2.987
 9380TIP3    H228084   3.148   4.487   2.848
 9381TIP3   OH228085   0.965   2.767   4.347
 9381TIP3    H128086   0.955   2.672   4.337
 9381TIP3    H228087   0.876   2.801   4.339
 9382TIP3   OH228088   6.383   0.164   3.167
 9382TIP3    H128089   6.450   0.232   3.175
 9382TIP3    H228090   6.305   0.211   3.139
 9383TIP3   OH228091   1.873   6.824   6.749
 9383TIP3    H128092   1.864   6.809   6.655
 9383TIP3    H228093   1.886   6.737   6.786
 9384TIP3   OH228094   2.713   0.144   0.587
 9384TIP3    H128095   2.756   0.190   0.660
 9384TIP3    H228096   2.635   0.197   0.569
 9385TIP3   OH228097   7.256   3.230   6.108
 9385TIP3    H128098   7.216   3.156   6.062
 9385TIP3    H228099   7.337   3.247   6.059
 9386TIP3   OH228100   5.115   5.752   0.767
 9386TIP3    H128101   5.056   5.686   0.802
 9386TIP3    H228102   5.130   5.725   0.676
 9387TIP3   OH228103   4.745   2.636   3.900
 9387TIP3    H128104   4.817   2.676   3.851
 9387TIP3    H228105   4.685   2.606   3.832
 9388TIP3   OH228106   1.212   2.362   6.305
 9388TIP3    H128107   1.229   2.361   6.211
 9388TIP3    H228108   1.149   2.291   6.318
 9389TIP3   OH228109   3.589   0.489   3.942
 9389TIP3    H128110   3.535   0.567   3.933
 9389TIP3    H228111   3.648   0.491   3.867
 9390TIP3   OH228112   5.487   2.209   0.163
 9390TIP3    H128113   5.394   2.199   0.182
 9390TIP3    H228114   5.505   2.144   0.095
 9391TIP3   OH228115   4.521   4.872   0.832
 9391TIP3    H128116   4.439   4.841   0.794
 9391TIP3    H228117   4.506   4.964   0.851
 9392TIP3   OH228118   7.509   1.190   3.609
 9392TIP3    H128119   7.572   1.256   3.637
 9392TIP3    H228120   7.454   1.235   3.545
 9393TIP3   OH228121  -0.010   6.468   6.680
 9393TIP3    H128122   0.076   6.465   6.722
 9393TIP3    H228123  -0.006   6.401   6.613
 9394TIP3   OH228124   6.122   6.308   4.206
 9394TIP3    H128125   6.074   6.334   4.128
 9394TIP3    H228126   6.118   6.385   4.263
 9395TIP3   OH228127   2.028   0.776   2.383
 9395TIP3    H128128   2.005   0.835   2.311
 9395TIP3    H228129   2.072   0.703   2.340
 9396TIP3   OH228130   7.668   3.797   5.957
 9396TIP3    H128131   7.676   3.892   5.959
 9396TIP3    H228132   7.579   3.779   5.988
 9397TIP3   OH228133   0.228   5.999   6.499
 9397TIP3    H128134   0.320   6.024   6.493
 9397TIP3    H228135   0.230   5.904   6.511
 9398TIP3   OH228136   0.066   4.303   4.405
 9398TIP3    H128137   0.060   4.290   4.499
 9398TIP3    H228138   0.013   4.233   4.367
 9399TIP3   OH228139   0.554   0.737   2.467
 9399TIP3    H128140   0.571   0.684   2.546
 9399TIP3    H228141   0.633   0.727   2.415
 9400TIP3   OH228142   1.846   7.067   5.727
 9400TIP3    H128143   1.938   7.074   5.701
 9400TIP3    H228144   1.813   6.991   5.680
 9401TIP3   OH228145   0.623   5.125   0.016
 9401TIP3    H128146   0.569   5.172   0.080
 9401TIP3    H228147   0.704   5.176   0.013
 9402TIP3   OH228148   8.093   2.670   0.655
 9402TIP3    H128149   8.139   2.628   0.728
 9402TIP3    H228150   8.019   2.715   0.695
 9403TIP3   OH228151   4.110   2.960   4.111
 9403TIP3    H128152   4.154   2.894   4.058
 9403TIP3    H228153   4.018   2.933   4.112
 9404TIP3   OH228154   6.985   2.891   4.458
 9404TIP3    H128155   7.015   2.879   4.367
 9404TIP3    H228156   7.030   2.821   4.506
 9405TIP3   OH228157   4.392   0.619   3.765
 9405TIP3    H128158   4.300   0.606   3.745
 9405TIP3    H228159   4.416   0.700   3.722
 9406TIP3   OH228160   1.917   4.644   1.311
 9406TIP3    H128161   1.993   4.663   1.367
 9406TIP3    H228162   1.955   4.632   1.223
 9407TIP3   OH228163   0.087   6.186   2.309
 9407TIP3    H128164   0.032   6.181   2.230
 9407TIP3    H228165   0.045   6.127   2.371
 9408TIP3   OH228166   1.868   2.150   3.574
 9408TIP3    H128167   1.798   2.185   3.519
 9408TIP3    H228168   1.840   2.169   3.663
 9409TIP3   OH228169   4.554   1.096   0.394
 9409TIP3    H128170   4.509   1.172   0.430
 9409TIP3    H228171   4.585   1.126   0.308
 9410TIP3   OH228172   0.792   1.611   5.551
 9410TIP3    H128173   0.789   1.547   5.480
 9410TIP3    H228174   0.752   1.690   5.513
 9411TIP3   OH228175   2.765   2.162   3.783
 9411TIP3    H128176   2.751   2.088   3.842
 9411TIP3    H228177   2.771   2.123   3.696
 9412TIP3   OH228178   3.736   4.826   5.090
 9412TIP3    H128179   3.815   4.842   5.142
 9412TIP3    H228180   3.760   4.855   5.001
 9413TIP3   OH228181   3.237   6.658   0.248
 9413TIP3    H128182   3.240   6.635   0.341
 9413TIP3    H228183   3.230   6.754   0.246
 9414TIP3   OH228184   4.413   0.173   4.359
 9414TIP3    H128185   4.356   0.182   4.435
 9414TIP3    H228186   4.502   0.180   4.394
 9415TIP3   OH228187   0.182   7.386   2.309
 9415TIP3    H128188   0.228   7.460   2.271
 9415TIP3    H228189   0.246   7.347   2.370
 9416TIP3   OH228190   0.933   5.484   1.601
 9416TIP3    H128191   1.006   5.433   1.567
 9416TIP3    H228192   0.878   5.421   1.647
 9417TIP3   OH228193   3.798   7.226   5.276
 9417TIP3    H128194   3.863   7.293   5.255
 9417TIP3    H228195   3.765   7.196   5.191
 9418TIP3   OH228196   1.246   7.793   3.353
 9418TIP3    H128197   1.227   7.754   3.439
 9418TIP3    H228198   1.229   7.723   3.291
 9419TIP3   OH228199   2.439   5.990   1.013
 9419TIP3    H128200   2.478   6.005   1.099
 9419TIP3    H228201   2.440   5.895   1.002
 9420TIP3   OH228202   0.471   1.911   3.093
 9420TIP3    H128203   0.455   1.923   3.187
 9420TIP3    H228204   0.401   1.961   3.051
 9421TIP3   OH228205   6.422   3.825   5.719
 9421TIP3    H128206   6.455   3.815   5.809
 9421TIP3    H228207   6.482   3.773   5.666
 9422TIP3   OH228208   6.743   1.356   2.192
 9422TIP3    H128209   6.694   1.383   2.115
 9422TIP3    H228210   6.835   1.357   2.164
 9423TIP3   OH228211   2.667   0.801   0.581
 9423TIP3    H128212   2.607   0.727   0.590
 9423TIP3    H228213   2.735   0.769   0.522
 9424TIP3   OH228214   1.413   2.170   4.365
 9424TIP3    H128215   1.472   2.096   4.380
 9424TIP3    H228216   1.471   2.243   4.340
 9425TIP3   OH228217   4.842   6.594   5.241
 9425TIP3    H128218   4.872   6.657   5.306
 9425TIP3    H228219   4.864   6.509   5.278
 9426TIP3   OH228220   6.160   4.744   3.137
 9426TIP3    H128221   6.198   4.695   3.210
 9426TIP3    H228222   6.112   4.816   3.180
 9427TIP3   OH228223   0.586   1.280   5.683
 9427TIP3    H128224   0.510   1.226   5.703
 9427TIP3    H228225   0.631   1.292   5.766
 9428TIP3   OH228226   5.147   1.211   2.010
 9428TIP3    H128227   5.235   1.244   1.994
 9428TIP3    H228228   5.158   1.139   2.072
 9429TIP3   OH228229   6.989   5.712   0.472
 9429TIP3    H128230   6.953   5.626   0.497
 9429TIP3    H228231   7.084   5.701   0.479
 9430TIP3   OH228232   1.416   4.363   3.857
 9430TIP3    H128233   1.417   4.307   3.779
 9430TIP3    H228234   1.323   4.383   3.871
 9431TIP3   OH228235   0.741   4.138   6.060
 9431TIP3    H128236   0.749   4.189   5.980
 9431TIP3    H228237   0.729   4.203   6.129
 9432TIP3   OH228238   3.196   2.092   5.079
 9432TIP3    H128239   3.157   2.018   5.125
 9432TIP3    H228240   3.226   2.056   4.996
 9433TIP3   OH228241   1.504   3.519   4.353
 9433TIP3    H128242   1.426   3.564   4.318
 9433TIP3    H228243   1.504   3.541   4.446
 9434TIP3   OH228244   4.036   0.804   1.497
 9434TIP3    H128245   3.982   0.880   1.477
 9434TIP3    H228246   4.004   0.773   1.582
 9435TIP3   OH228247   4.915   5.664   2.505
 9435TIP3    H128248   4.964   5.641   2.583
 9435TIP3    H228249   4.852   5.729   2.535
 9436TIP3   OH228250   4.150   7.000   3.507
 9436TIP3    H128251   4.168   7.062   3.578
 9436TIP3    H228252   4.080   6.944   3.541
 9437TIP3   OH228253   7.771   5.519   1.265
 9437TIP3    H128254   7.848   5.528   1.209
 9437TIP3    H228255   7.726   5.603   1.258
 9438TIP3   OH228256   4.735   4.705   4.404
 9438TIP3    H128257   4.769   4.627   4.361
 9438TIP3    H228258   4.759   4.694   4.496
 9439TIP3   OH228259   5.912   6.598   1.430
 9439TIP3    H128260   5.993   6.562   1.394
 9439TIP3    H228261   5.866   6.634   1.354
 9440TIP3   OH228262   1.547   4.168   2.568
 9440TIP3    H128263   1.574   4.087   2.525
 9440TIP3    H228264   1.545   4.232   2.497
 9441TIP3   OH228265   0.274   5.229   5.617
 9441TIP3    H128266   0.297   5.284   5.692
 9441TIP3    H228267   0.246   5.291   5.550
 9442TIP3   OH228268   3.170   0.233   5.936
 9442TIP3    H128269   3.170   0.222   5.841
 9442TIP3    H228270   3.189   0.145   5.970
 9443TIP3   OH228271   6.196   2.399   0.662
 9443TIP3    H128272   6.286   2.429   0.675
 9443TIP3    H228273   6.154   2.471   0.615
 9444TIP3   OH228274   6.758   0.209   1.465
 9444TIP3    H128275   6.698   0.279   1.489
 9444TIP3    H228276   6.831   0.254   1.421
 9445TIP3   OH228277   3.722   4.497   1.188
 9445TIP3    H128278   3.659   4.566   1.164
 9445TIP3    H228279   3.763   4.529   1.268
 9446TIP3   OH228280   6.925   3.808   5.574
 9446TIP3    H128281   6.984   3.814   5.650
 9446TIP3    H228282   6.967   3.743   5.517
 9447TIP3   OH228283   4.904   1.751   5.828
 9447TIP3    H128284   4.844   1.678   5.818
 9447TIP3    H228285   4.848   1.829   5.821
 9448TIP3   OH228286   0.411   0.493   2.951
 9448TIP3    H128287   0.380   0.486   3.041
 9448TIP3    H228288   0.402   0.587   2.931
 9449TIP3   OH228289   7.720   0.745   2.709
 9449TIP3    H128290   7.755   0.660   2.683
 9449TIP3    H228291   7.635   0.724   2.750
 9450TIP3   OH228292   7.446   2.654   1.208
 9450TIP3    H128293   7.435   2.747   1.225
 9450TIP3    H228294   7.388   2.611   1.271
 9451TIP3   OH228295   5.148   3.976   4.562
 9451TIP3    H128296   5.227   3.923   4.565
 9451TIP3    H228297   5.077   3.916   4.585
 9452TIP3   OH228298   0.316   6.581   1.697
 9452TIP3    H128299   0.357   6.557   1.614
 9452TIP3    H228300   0.341   6.511   1.758
 9453TIP3   OH228301   3.288   6.321   5.639
 9453TIP3    H128302   3.233   6.260   5.688
 9453TIP3    H228303   3.228   6.391   5.613
 9454TIP3   OH228304   1.034   5.747   6.028
 9454TIP3    H128305   1.124   5.768   6.051
 9454TIP3    H228306   1.035   5.653   6.008
 9455TIP3   OH228307   5.741   1.062   5.477
 9455TIP3    H128308   5.728   1.127   5.547
 9455TIP3    H228309   5.796   1.107   5.414
 9456TIP3   OH228310   5.121   7.763   4.642
 9456TIP3    H128311   5.094   7.748   4.551
 9456TIP3    H228312   5.169   7.846   4.640
 9457TIP3   OH228313   7.167   1.953   4.888
 9457TIP3    H128314   7.180   1.867   4.847
 9457TIP3    H228315   7.200   2.015   4.824
 9458TIP3   OH228316   2.616   4.823   2.302
 9458TIP3    H128317   2.679   4.753   2.318
 9458TIP3    H228318   2.619   4.877   2.381
 9459TIP3   OH228319   0.332   6.571   4.112
 9459TIP3    H128320   0.292   6.537   4.192
 9459TIP3    H228321   0.309   6.664   4.112
 9460TIP3   OH228322   4.796   2.986   1.321
 9460TIP3    H128323   4.718   2.931   1.320
 9460TIP3    H228324   4.763   3.074   1.306
 9461TIP3   OH228325   5.764   2.721   6.745
 9461TIP3    H128326   5.799   2.703   6.832
 9461TIP3    H228327   5.840   2.713   6.686
 9462TIP3   OH228328   1.980   4.626   1.012
 9462TIP3    H128329   2.061   4.630   0.961
 9462TIP3    H228330   1.920   4.575   0.957
 9463TIP3   OH228331   6.980   2.317   0.929
 9463TIP3    H128332   6.901   2.371   0.936
 9463TIP3    H228333   7.044   2.374   0.887
 9464TIP3   OH228334   2.211   7.748   6.361
 9464TIP3    H128335   2.216   7.653   6.373
 9464TIP3    H228336   2.245   7.763   6.273
 9465TIP3   OH228337   0.178   0.560   2.540
 9465TIP3    H128338   0.163   0.622   2.611
 9465TIP3    H228339   0.091   0.527   2.518
 9466TIP3   OH228340   7.070   3.563   6.351
 9466TIP3    H128341   7.139   3.498   6.361
 9466TIP3    H228342   7.009   3.545   6.423
 9467TIP3   OH228343   4.177   5.034   5.509
 9467TIP3    H128344   4.249   5.093   5.489
 9467TIP3    H228345   4.180   5.024   5.604
 9468TIP3   OH228346   0.278   4.901   4.875
 9468TIP3    H128347   0.296   4.813   4.842
 9468TIP3    H228348   0.265   4.889   4.969
 9469TIP3   OH228349   6.844   7.602   6.314
 9469TIP3    H128350   6.764   7.566   6.275
 9469TIP3    H228351   6.842   7.572   6.404
 9470TIP3   OH228352   1.750   1.285   1.077
 9470TIP3    H128353   1.766   1.196   1.044
 9470TIP3    H228354   1.695   1.272   1.154
 9471TIP3   OH228355   0.445   7.211   2.852
 9471TIP3    H128356   0.470   7.281   2.792
 9471TIP3    H228357   0.356   7.189   2.828
 9472TIP3   OH228358   2.212   4.256   3.037
 9472TIP3    H128359   2.285   4.286   3.091
 9472TIP3    H228360   2.163   4.335   3.016
 9473TIP3   OH228361   4.153   3.465   3.144
 9473TIP3    H128362   4.060   3.489   3.141
 9473TIP3    H228363   4.198   3.548   3.157
 9474TIP3   OH228364   7.820   2.046   4.506
 9474TIP3    H128365   7.758   2.066   4.436
 9474TIP3    H228366   7.798   1.958   4.535
 9475TIP3   OH228367   1.801   4.907   6.689
 9475TIP3    H128368   1.789   4.812   6.697
 9475TIP3    H228369   1.836   4.919   6.600
 9476TIP3   OH228370   3.024   3.452   0.377
 9476TIP3    H128371   3.065   3.515   0.437
 9476TIP3    H228372   3.046   3.366   0.412
 9477TIP3   OH228373   5.514   0.964   3.817
 9477TIP3    H128374   5.511   0.884   3.870
 9477TIP3    H228375   5.541   0.935   3.730
 9478TIP3   OH228376   3.566   5.185   6.028
 9478TIP3    H128377   3.602   5.192   6.117
 9478TIP3    H228378   3.636   5.215   5.971
 9479TIP3   OH228379   3.034   5.307   5.609
 9479TIP3    H128380   3.063   5.216   5.603
 9479TIP3    H228381   3.107   5.358   5.573
 9480TIP3   OH228382   2.904   5.884   4.051
 9480TIP3    H128383   2.828   5.899   4.107
 9480TIP3    H228384   2.954   5.965   4.055
 9481TIP3   OH228385   0.174   0.499   0.861
 9481TIP3    H128386   0.263   0.465   0.848
 9481TIP3    H228387   0.135   0.441   0.926
 9482TIP3   OH228388   3.798   7.780   1.748
 9482TIP3    H128389   3.867   7.795   1.684
 9482TIP3    H228390   3.717   7.804   1.702
 9483TIP3   OH228391   4.005   1.936   3.370
 9483TIP3    H128392   4.008   1.842   3.352
 9483TIP3    H228393   3.986   1.976   3.285
 9484TIP3   OH228394   5.625   4.424   4.795
 9484TIP3    H128395   5.716   4.408   4.773
 9484TIP3    H228396   5.597   4.346   4.843
 9485TIP3   OH228397   1.248   3.487   3.897
 9485TIP3    H128398   1.271   3.424   3.829
 9485TIP3    H228399   1.321   3.484   3.959
 9486TIP3   OH228400   4.282   7.446   4.313
 9486TIP3    H128401   4.321   7.361   4.292
 9486TIP3    H228402   4.278   7.447   4.409
 9487TIP3   OH228403   7.821   6.239   2.073
 9487TIP3    H128404   7.870   6.212   2.150
 9487TIP3    H228405   7.887   6.274   2.013
 9488TIP3   OH228406   0.122   3.625   2.586
 9488TIP3    H128407   0.132   3.553   2.648
 9488TIP3    H228408   0.029   3.624   2.562
 9489TIP3   OH228409   0.710   1.505   6.455
 9489TIP3    H128410   0.761   1.426   6.439
 9489TIP3    H228411   0.652   1.513   6.379
 9490TIP3   OH228412   0.886   3.423   4.237
 9490TIP3    H128413   0.910   3.397   4.148
 9490TIP3    H228414   0.925   3.357   4.293
 9491TIP3   OH228415   1.166   6.300   3.909
 9491TIP3    H128416   1.248   6.330   3.870
 9491TIP3    H228417   1.177   6.205   3.918
 9492TIP3   OH228418   1.024   0.426   4.217
 9492TIP3    H128419   1.014   0.406   4.310
 9492TIP3    H228420   0.937   0.454   4.189
 9493TIP3   OH228421   5.866   1.703   3.975
 9493TIP3    H128422   5.799   1.677   3.912
 9493TIP3    H228423   5.949   1.686   3.930
 9494TIP3   OH228424   3.497   5.527   1.059
 9494TIP3    H128425   3.585   5.547   1.091
 9494TIP3    H228426   3.479   5.595   0.994
 9495TIP3   OH228427   3.198   7.493   3.416
 9495TIP3    H128428   3.160   7.541   3.343
 9495TIP3    H228429   3.288   7.524   3.422
 9496TIP3   OH228430   2.550   0.997   4.733
 9496TIP3    H128431   2.498   0.919   4.753
 9496TIP3    H228432   2.504   1.069   4.776
 9497TIP3   OH228433   3.749   7.342   1.283
 9497TIP3    H128434   3.747   7.359   1.189
 9497TIP3    H228435   3.842   7.342   1.305
 9498TIP3   OH228436   6.493   5.767   0.425
 9498TIP3    H128437   6.427   5.698   0.422
 9498TIP3    H228438   6.442   5.848   0.435
 9499TIP3   OH228439   6.266   4.445   0.537
 9499TIP3    H128440   6.198   4.505   0.567
 9499TIP3    H228441   6.325   4.435   0.611
 9500TIP3   OH228442   5.099   3.045   3.565
 9500TIP3    H128443   5.095   2.974   3.500
 9500TIP3    H228444   5.054   3.010   3.642
 9501TIP3   OH228445   2.762   0.542   5.533
 9501TIP3    H128446   2.828   0.537   5.602
 9501TIP3    H228447   2.715   0.459   5.539
 9502TIP3   OH228448   8.060   6.317   4.283
 9502TIP3    H128449   7.986   6.259   4.301
 9502TIP3    H228450   8.021   6.392   4.239
 9503TIP3   OH228451   7.794   0.927   3.341
 9503TIP3    H128452   7.818   0.976   3.420
 9503TIP3    H228453   7.872   0.875   3.322
 9504TIP3   OH228454   5.425   4.137   4.181
 9504TIP3    H128455   5.347   4.141   4.236
 9504TIP3    H228456   5.430   4.224   4.142
 9505TIP3   OH228457   2.206   0.372   2.975
 9505TIP3    H128458   2.189   0.387   2.882
 9505TIP3    H228459   2.160   0.291   2.995
 9506TIP3   OH228460   5.986   7.707   3.433
 9506TIP3    H128461   5.914   7.754   3.390
 9506TIP3    H228462   5.943   7.642   3.488
 9507TIP3   OH228463   4.824   3.154   0.598
 9507TIP3    H128464   4.839   3.064   0.570
 9507TIP3    H228465   4.904   3.200   0.572
 9508TIP3   OH228466   5.673   6.726   0.954
 9508TIP3    H128467   5.706   6.741   0.865
 9508TIP3    H228468   5.688   6.809   0.999
 9509TIP3   OH228469   1.280   6.331   3.350
 9509TIP3    H128470   1.287   6.351   3.256
 9509TIP3    H228471   1.224   6.399   3.385
 9510TIP3   OH228472   7.748   3.358   0.103
 9510TIP3    H128473   7.671   3.415   0.109
 9510TIP3    H228474   7.712   3.271   0.087
 9511TIP3   OH228475   3.018   5.076   1.019
 9511TIP3    H128476   3.080   5.013   0.983
 9511TIP3    H228477   2.941   5.024   1.042
 9512TIP3   OH228478   4.720   3.181   3.791
 9512TIP3    H128479   4.758   3.125   3.859
 9512TIP3    H228480   4.750   3.269   3.813
 9513TIP3   OH228481   6.637   0.415   4.071
 9513TIP3    H128482   6.651   0.322   4.088
 9513TIP3    H228483   6.674   0.459   4.147
 9514TIP3   OH228484   3.293   7.004   6.617
 9514TIP3    H128485   3.224   6.975   6.558
 9514TIP3    H228486   3.312   6.928   6.672
 9515TIP3   OH228487   4.752   3.794   6.734
 9515TIP3    H128488   4.843   3.794   6.765
 9515TIP3    H228489   4.748   3.722   6.671
 9516TIP3   OH228490   7.527   0.874   6.617
 9516TIP3    H128491   7.515   0.783   6.646
 9516TIP3    H228492   7.609   0.872   6.567
 9517TIP3   OH228493   3.468   4.052   2.291
 9517TIP3    H128494   3.377   4.082   2.290
 9517TIP3    H228495   3.496   4.056   2.200
 9518TIP3   OH228496   7.159   7.210   3.886
 9518TIP3    H128497   7.095   7.278   3.864
 9518TIP3    H228498   7.187   7.231   3.975
 9519TIP3   OH228499   5.044   7.714   2.201
 9519TIP3    H128500   5.105   7.787   2.214
 9519TIP3    H228501   4.991   7.739   2.126
 9520TIP3   OH228502   0.714   6.689   5.176
 9520TIP3    H128503   0.677   6.716   5.260
 9520TIP3    H228504   0.643   6.702   5.113
 9521TIP3   OH228505   5.520   6.484   3.294
 9521TIP3    H128506   5.450   6.470   3.357
 9521TIP3    H228507   5.578   6.408   3.305
 9522TIP3   OH228508   6.916   0.400   1.325
 9522TIP3    H128509   6.960   0.382   1.242
 9522TIP3    H228510   6.826   0.421   1.300
 9523TIP3   OH228511   3.526   6.709   0.229
 9523TIP3    H128512   3.436   6.741   0.241
 9523TIP3    H228513   3.570   6.732   0.311
 9524TIP3   OH228514   5.904   2.816   3.916
 9524TIP3    H128515   5.842   2.743   3.913
 9524TIP3    H228516   5.945   2.809   4.003
 9525TIP3   OH228517   0.942   6.483   4.971
 9525TIP3    H128518   0.969   6.575   4.972
 9525TIP3    H228519   0.954   6.455   4.881
 9526TIP3   OH228520   3.522   5.710   5.718
 9526TIP3    H128521   3.453   5.761   5.761
 9526TIP3    H228522   3.497   5.619   5.733
 9527TIP3   OH228523   3.842   4.065   6.417
 9527TIP3    H128524   3.753   4.083   6.447
 9527TIP3    H228525   3.856   4.124   6.343
 9528TIP3   OH228526   7.549   6.178   2.166
 9528TIP3    H128527   7.530   6.170   2.259
 9528TIP3    H228528   7.626   6.234   2.161
 9529TIP3   OH228529   4.287   5.648   3.085
 9529TIP3    H128530   4.250   5.686   3.165
 9529TIP3    H228531   4.363   5.702   3.066
 9530TIP3   OH228532   7.784   2.193   3.388
 9530TIP3    H128533   7.744   2.252   3.452
 9530TIP3    H228534   7.772   2.236   3.304
 9531TIP3   OH228535   0.582   7.492   1.075
 9531TIP3    H128536   0.560   7.430   1.006
 9531TIP3    H228537   0.498   7.513   1.116
 9532TIP3   OH228538   0.931   5.592   6.713
 9532TIP3    H128539   0.962   5.649   6.642
 9532TIP3    H228540   1.011   5.559   6.754
 9533TIP3   OH228541   7.959   2.256   2.488
 9533TIP3    H128542   7.872   2.272   2.525
 9533TIP3    H228543   8.000   2.342   2.485
 9534TIP3   OH228544   2.829   4.216   4.575
 9534TIP3    H128545   2.901   4.271   4.605
 9534TIP3    H228546   2.852   4.192   4.485
 9535TIP3   OH228547   6.548   5.953   5.416
 9535TIP3    H128548   6.521   5.873   5.371
 9535TIP3    H228549   6.643   5.956   5.405
 9536TIP3   OH228550   2.128   0.834   0.361
 9536TIP3    H128551   2.045   0.850   0.406
 9536TIP3    H228552   2.195   0.863   0.423
 9537TIP3   OH228553   1.823   2.227   3.827
 9537TIP3    H128554   1.756   2.190   3.885
 9537TIP3    H228555   1.832   2.318   3.857
 9538TIP3   OH228556   6.577   0.536   2.859
 9538TIP3    H128557   6.658   0.486   2.852
 9538TIP3    H228558   6.536   0.527   2.773
 9539TIP3   OH228559   7.786   4.404   3.689
 9539TIP3    H128560   7.863   4.355   3.660
 9539TIP3    H228561   7.801   4.493   3.658
 9540TIP3   OH228562   3.939   5.798   3.740
 9540TIP3    H128563   3.887   5.737   3.791
 9540TIP3    H228564   3.918   5.884   3.776
 9541TIP3   OH228565   3.091   0.694   2.669
 9541TIP3    H128566   3.094   0.683   2.765
 9541TIP3    H228567   3.030   0.627   2.639
 9542TIP3   OH228568   7.448   4.137   0.967
 9542TIP3    H128569   7.514   4.198   0.933
 9542TIP3    H228570   7.385   4.127   0.895
 9543TIP3   OH228571   5.144   6.751   1.853
 9543TIP3    H128572   5.201   6.800   1.913
 9543TIP3    H228573   5.205   6.705   1.795
 9544TIP3   OH228574   0.232   4.829   1.028
 9544TIP3    H128575   0.301   4.763   1.032
 9544TIP3    H228576   0.164   4.789   0.973
 9545TIP3   OH228577   0.695   5.523   6.559
 9545TIP3    H128578   0.780   5.487   6.584
 9545TIP3    H228579   0.717   5.593   6.497
 9546TIP3   OH228580   6.704   2.871   3.265
 9546TIP3    H128581   6.799   2.873   3.272
 9546TIP3    H228582   6.681   2.779   3.259
 9547TIP3   OH228583   2.370   4.601   0.736
 9547TIP3    H128584   2.376   4.585   0.642
 9547TIP3    H228585   2.384   4.515   0.776
 9548TIP3   OH228586   1.029   0.322   1.597
 9548TIP3    H128587   1.009   0.250   1.658
 9548TIP3    H228588   1.123   0.337   1.607
 9549TIP3   OH228589   3.746   3.765   2.940
 9549TIP3    H128590   3.824   3.725   2.901
 9549TIP3    H228591   3.766   3.859   2.943
 9550TIP3   OH228592   4.356   5.000   1.557
 9550TIP3    H128593   4.286   5.041   1.607
 9550TIP3    H228594   4.370   4.916   1.600
 9551TIP3   OH228595   3.955   4.841   3.789
 9551TIP3    H128596   3.978   4.749   3.800
 9551TIP3    H228597   3.916   4.846   3.702
 9552TIP3   OH228598   7.304   4.460   4.929
 9552TIP3    H128599   7.213   4.480   4.949
 9552TIP3    H228600   7.354   4.523   4.981
 9553TIP3   OH228601   3.512   7.011   2.447
 9553TIP3    H128602   3.449   6.950   2.485
 9553TIP3    H228603   3.556   7.050   2.523
 9554TIP3   OH228604   5.896   4.509   6.659
 9554TIP3    H128605   5.854   4.576   6.714
 9554TIP3    H228606   5.985   4.502   6.695
 9555TIP3   OH228607   2.100   4.507   5.907
 9555TIP3    H128608   2.014   4.534   5.938
 9555TIP3    H228609   2.087   4.418   5.873
 9556TIP3   OH228610   3.320   5.946   0.770
 9556TIP3    H128611   3.393   5.934   0.708
 9556TIP3    H228612   3.245   5.966   0.714
 9557TIP3   OH228613   1.015   5.007   4.836
 9557TIP3    H128614   1.043   5.032   4.925
 9557TIP3    H228615   1.000   4.913   4.841
 9558TIP3   OH228616   2.287   7.521   3.233
 9558TIP3    H128617   2.255   7.605   3.266
 9558TIP3    H228618   2.251   7.514   3.144
 9559TIP3   OH228619   0.308   7.381   6.552
 9559TIP3    H128620   0.355   7.322   6.610
 9559TIP3    H228621   0.217   7.378   6.582
 9560TIP3   OH228622   5.796   1.042   3.374
 9560TIP3    H128623   5.748   0.994   3.307
 9560TIP3    H228624   5.780   1.135   3.354
 9561TIP3   OH228625   0.412   5.906   1.599
 9561TIP3    H128626   0.388   5.953   1.519
 9561TIP3    H228627   0.343   5.841   1.609
 9562TIP3   OH228628   0.103   1.823   0.342
 9562TIP3    H128629   0.180   1.881   0.349
 9562TIP3    H228630   0.033   1.880   0.311
 9563TIP3   OH228631   0.506   4.919   5.897
 9563TIP3    H128632   0.488   5.012   5.905
 9563TIP3    H228633   0.574   4.901   5.962
 9564TIP3   OH228634   7.383   5.902   4.646
 9564TIP3    H128635   7.447   5.960   4.689
 9564TIP3    H228636   7.317   5.962   4.610
 9565TIP3   OH228637   2.614   4.337   1.505
 9565TIP3    H128638   2.679   4.288   1.456
 9565TIP3    H228639   2.651   4.344   1.593
 9566TIP3   OH228640   4.197   5.554   6.140
 9566TIP3    H128641   4.159   5.588   6.059
 9566TIP3    H228642   4.251   5.626   6.173
 9567TIP3   OH228643   4.573   6.514   3.670
 9567TIP3    H128644   4.553   6.549   3.583
 9567TIP3    H228645   4.488   6.513   3.716
 9568TIP3   OH228646   2.164   3.984   2.345
 9568TIP3    H128647   2.226   3.920   2.312
 9568TIP3    H228648   2.213   4.035   2.410
 9569TIP3   OH228649   6.109   3.206   4.981
 9569TIP3    H128650   6.107   3.227   4.888
 9569TIP3    H228651   6.152   3.121   4.986
 9570TIP3   OH228652   1.385   4.933   4.646
 9570TIP3    H128653   1.417   4.938   4.735
 9570TIP3    H228654   1.463   4.920   4.592
 9571TIP3   OH228655   7.901   7.707   4.272
 9571TIP3    H128656   7.977   7.648   4.269
 9571TIP3    H228657   7.827   7.648   4.285
 9572TIP3   OH228658   1.090   3.474   0.452
 9572TIP3    H128659   1.086   3.414   0.527
 9572TIP3    H228660   1.172   3.522   0.464
 9573TIP3   OH228661   5.208   0.685   0.370
 9573TIP3    H128662   5.158   0.681   0.289
 9573TIP3    H228663   5.299   0.671   0.343
 9574TIP3   OH228664   3.118   7.480   6.211
 9574TIP3    H128665   3.134   7.526   6.294
 9574TIP3    H228666   3.200   7.490   6.162
 9575TIP3   OH228667   2.301   2.043   5.843
 9575TIP3    H128668   2.361   1.973   5.817
 9575TIP3    H228669   2.283   2.025   5.936
 9576TIP3   OH228670   3.343   7.775   5.563
 9576TIP3    H128671   3.341   7.849   5.623
 9576TIP3    H228672   3.430   7.779   5.522
 9577TIP3   OH228673   6.104   6.732   4.732
 9577TIP3    H128674   6.140   6.660   4.784
 9577TIP3    H228675   6.180   6.788   4.714
 9578TIP3   OH228676   4.520   3.212   0.896
 9578TIP3    H128677   4.493   3.190   0.985
 9578TIP3    H228678   4.491   3.303   0.884
 9579TIP3   OH228679   7.205   5.930   2.573
 9579TIP3    H128680   7.232   5.839   2.558
 9579TIP3    H228681   7.152   5.926   2.652
 9580TIP3   OH228682   1.968   2.624   5.936
 9580TIP3    H128683   1.921   2.541   5.946
 9580TIP3    H228684   2.031   2.625   6.009
 9581TIP3   OH228685   4.688   5.914   0.360
 9581TIP3    H128686   4.709   5.993   0.410
 9581TIP3    H228687   4.699   5.843   0.424
 9582TIP3   OH228688   7.751   7.431   0.938
 9582TIP3    H128689   7.697   7.507   0.914
 9582TIP3    H228690   7.690   7.357   0.936
 9583TIP3   OH228691   3.431   7.033   3.500
 9583TIP3    H128692   3.438   7.092   3.425
 9583TIP3    H228693   3.346   7.056   3.540
 9584TIP3   OH228694   6.488   6.493   4.595
 9584TIP3    H128695   6.412   6.434   4.598
 9584TIP3    H228696   6.526   6.485   4.683
 9585TIP3   OH228697   4.999   3.160   1.719
 9585TIP3    H128698   5.073   3.144   1.661
 9585TIP3    H228699   4.932   3.098   1.689
 9586TIP3   OH228700   7.796   1.889   2.284
 9586TIP3    H128701   7.860   1.959   2.293
 9586TIP3    H228702   7.713   1.928   2.313
 9587TIP3   OH228703   4.099   4.909   2.473
 9587TIP3    H128704   4.163   4.911   2.545
 9587TIP3    H228705   4.038   4.980   2.493
 9588TIP3   OH228706   1.103   0.845   3.100
 9588TIP3    H128707   1.077   0.924   3.053
 9588TIP3    H228708   1.081   0.773   3.041
 9589TIP3   OH228709   1.174   1.744   5.725
 9589TIP3    H128710   1.252   1.692   5.743
 9589TIP3    H228711   1.193   1.830   5.762
 9590TIP3   OH228712   8.141   3.082   2.295
 9590TIP3    H128713   8.216   3.139   2.278
 9590TIP3    H228714   8.067   3.127   2.254
 9591TIP3   OH228715   1.693   6.952   0.398
 9591TIP3    H128716   1.630   7.020   0.422
 9591TIP3    H228717   1.734   6.984   0.318
 9592TIP3   OH228718   5.565   0.730   2.544
 9592TIP3    H128719   5.503   0.666   2.579
 9592TIP3    H228720   5.608   0.766   2.622
 9593TIP3   OH228721   7.025   6.918   4.833
 9593TIP3    H128722   6.952   6.855   4.828
 9593TIP3    H228723   6.990   6.991   4.883
 9594TIP3   OH228724   5.976   1.576   0.857
 9594TIP3    H128725   5.956   1.644   0.922
 9594TIP3    H228726   5.924   1.500   0.886
 9595TIP3   OH228727   8.257   0.222   0.555
 9595TIP3    H128728   8.221   0.140   0.587
 9595TIP3    H228729   8.267   0.277   0.633
 9596TIP3   OH228730   1.952   1.845   3.694
 9596TIP3    H128731   1.952   1.941   3.689
 9596TIP3    H228732   2.044   1.821   3.687
 9597TIP3   OH228733   5.025   4.618   1.592
 9597TIP3    H128734   5.044   4.691   1.651
 9597TIP3    H228735   5.054   4.649   1.505
 9598TIP3   OH228736   8.031   5.381   1.416
 9598TIP3    H128737   8.127   5.376   1.411
 9598TIP3    H228738   8.002   5.385   1.325
 9599TIP3   OH228739   3.866   7.637   4.626
 9599TIP3    H128740   3.941   7.679   4.667
 9599TIP3    H228741   3.879   7.543   4.643
 9600TIP3   OH228742   5.400   5.937   1.456
 9600TIP3    H128743   5.334   5.957   1.523
 9600TIP3    H228744   5.428   5.848   1.476
 9601TIP3   OH228745   5.852   6.793   0.712
 9601TIP3    H128746   5.898   6.857   0.659
 9601TIP3    H228747   5.845   6.715   0.657
 9602TIP3   OH228748   7.305   3.528   5.191
 9602TIP3    H128749   7.277   3.474   5.265
 9602TIP3    H228750   7.380   3.482   5.154
 9603TIP3   OH228751   4.637   1.215   0.153
 9603TIP3    H128752   4.672   1.300   0.179
 9603TIP3    H228753   4.554   1.236   0.110
 9604TIP3   OH228754   3.556   6.062   4.179
 9604TIP3    H128755   3.588   6.132   4.236
 9604TIP3    H228756   3.630   6.040   4.123
 9605TIP3   OH228757   2.758   3.367   2.495
 9605TIP3    H128758   2.842   3.367   2.448
 9605TIP3    H228759   2.781   3.343   2.584
 9606TIP3   OH228760   7.776   5.659   0.045
 9606TIP3    H128761   7.864   5.648   0.083
 9606TIP3    H228762   7.752   5.749   0.067
 9607TIP3   OH228763   0.684   2.084   5.312
 9607TIP3    H128764   0.620   2.076   5.241
 9607TIP3    H228765   0.633   2.115   5.387
 9608TIP3   OH228766   7.154   5.095   5.522
 9608TIP3    H128767   7.198   5.109   5.606
 9608TIP3    H228768   7.221   5.054   5.467
 9609TIP3   OH228769   7.091   3.423   5.899
 9609TIP3    H128770   7.002   3.402   5.925
 9609TIP3    H228771   7.144   3.404   5.976
 9610TIP3   OH228772   1.528   4.971   4.432
 9610TIP3    H128773   1.466   5.037   4.403
 9610TIP3    H228774   1.554   4.926   4.351
 9611TIP3   OH228775   2.988   5.317   2.941
 9611TIP3    H128776   3.050   5.328   3.012
 9611TIP3    H228777   3.034   5.349   2.863
 9612TIP3   OH228778   7.337   0.715   0.593
 9612TIP3    H128779   7.257   0.663   0.593
 9612TIP3    H228780   7.344   0.747   0.683
 9613TIP3   OH228781   4.892   1.143   3.339
 9613TIP3    H128782   4.918   1.160   3.429
 9613TIP3    H228783   4.969   1.167   3.287
 9614TIP3   OH228784   0.866   0.032   2.226
 9614TIP3    H128785   0.844   0.068   2.312
 9614TIP3    H228786   0.811  -0.046   2.219
 9615TIP3   OH228787   7.563   2.714   6.546
 9615TIP3    H128788   7.488   2.729   6.489
 9615TIP3    H228789   7.622   2.660   6.494
 9616TIP3   OH228790   3.537   0.408   0.868
 9616TIP3    H128791   3.578   0.492   0.851
 9616TIP3    H228792   3.472   0.426   0.936
 9617TIP3   OH228793   7.479   4.793   1.731
 9617TIP3    H128794   7.496   4.882   1.701
 9617TIP3    H228795   7.457   4.803   1.824
 9618TIP3   OH228796   7.470   4.909   2.270
 9618TIP3    H128797   7.548   4.958   2.294
 9618TIP3    H228798   7.440   4.950   2.189
 9619TIP3   OH228799   7.612   1.687   2.630
 9619TIP3    H128800   7.572   1.715   2.713
 9619TIP3    H228801   7.645   1.599   2.648
 9620TIP3   OH228802   4.939   4.150   0.237
 9620TIP3    H128803   4.927   4.158   0.142
 9620TIP3    H228804   4.905   4.232   0.272
 9621TIP3   OH228805   0.470   5.760   3.694
 9621TIP3    H128806   0.554   5.788   3.730
 9621TIP3    H228807   0.443   5.688   3.750
 9622TIP3   OH228808   0.027   2.145   0.618
 9622TIP3    H128809  -0.067   2.157   0.633
 9622TIP3    H228810   0.047   2.062   0.663
 9623TIP3   OH228811   8.138   1.068   1.950
 9623TIP3    H128812   8.117   1.140   2.010
 9623TIP3    H228813   8.086   0.994   1.983
 9624TIP3   OH228814   7.451   0.520   2.385
 9624TIP3    H128815   7.368   0.536   2.430
 9624TIP3    H228816   7.435   0.545   2.295
 9625TIP3   OH228817   3.556   3.221   6.508
 9625TIP3    H128818   3.624   3.157   6.526
 9625TIP3    H228819   3.602   3.296   6.471
 9626TIP3   OH228820   6.675   4.944   2.383
 9626TIP3    H128821   6.675   5.016   2.445
 9626TIP3    H228822   6.750   4.890   2.408
 9627TIP3   OH228823   4.737   7.240   4.036
 9627TIP3    H128824   4.671   7.269   3.973
 9627TIP3    H228825   4.694   7.249   4.121
 9628TIP3   OH228826   0.922   0.307   4.464
 9628TIP3    H128827   0.886   0.374   4.521
 9628TIP3    H228828   0.852   0.286   4.403
 9629TIP3   OH228829   0.780   1.208   0.609
 9629TIP3    H128830   0.821   1.161   0.681
 9629TIP3    H228831   0.698   1.241   0.645
 9630TIP3   OH228832   4.953   2.810   1.713
 9630TIP3    H128833   4.893   2.880   1.690
 9630TIP3    H228834   4.953   2.752   1.637
 9631TIP3   OH228835   6.214   6.047   1.656
 9631TIP3    H128836   6.156   6.104   1.706
 9631TIP3    H228837   6.262   5.998   1.723
 9632TIP3   OH228838   5.961   7.832   3.121
 9632TIP3    H128839   5.877   7.840   3.166
 9632TIP3    H228840   5.960   7.745   3.081
 9633TIP3   OH228841   1.855   3.903   5.295
 9633TIP3    H128842   1.930   3.920   5.239
 9633TIP3    H228843   1.861   3.810   5.317
 9634TIP3   OH228844   7.642   5.439   0.646
 9634TIP3    H128845   7.730   5.402   0.657
 9634TIP3    H228846   7.619   5.419   0.555
 9635TIP3   OH228847   5.398   6.705   3.191
 9635TIP3    H128848   5.324   6.669   3.240
 9635TIP3    H228849   5.471   6.646   3.211
 9636TIP3   OH228850   2.147   7.434   2.948
 9636TIP3    H128851   2.166   7.394   2.863
 9636TIP3    H228852   2.066   7.393   2.976
 9637TIP3   OH228853   7.950   2.704   5.684
 9637TIP3    H128854   7.884   2.762   5.724
 9637TIP3    H228855   7.920   2.693   5.594
 9638TIP3   OH228856   3.479   1.554   5.579
 9638TIP3    H128857   3.533   1.502   5.519
 9638TIP3    H228858   3.505   1.645   5.562
 9639TIP3   OH228859   2.864   5.770   0.728
 9639TIP3    H128860   2.883   5.688   0.681
 9639TIP3    H228861   2.888   5.752   0.819
 9640TIP3   OH228862   3.997   3.426   3.524
 9640TIP3    H128863   3.927   3.474   3.481
 9640TIP3    H228864   3.971   3.334   3.516
 9641TIP3   OH228865   0.639   5.455   3.519
 9641TIP3    H128866   0.593   5.448   3.603
 9641TIP3    H228867   0.704   5.524   3.533
 9642TIP3   OH228868   5.450   6.964   1.298
 9642TIP3    H128869   5.364   7.006   1.301
 9642TIP3    H228870   5.447   6.900   1.369
 9643TIP3   OH228871   6.514   2.640   5.383
 9643TIP3    H128872   6.455   2.582   5.431
 9643TIP3    H228873   6.548   2.586   5.312
 9644TIP3   OH228874   7.977   1.880   3.909
 9644TIP3    H128875   7.931   1.903   3.828
 9644TIP3    H228876   7.971   1.958   3.964
 9645TIP3   OH228877   6.841   0.949   0.458
 9645TIP3    H128878   6.884   0.920   0.378
 9645TIP3    H228879   6.907   0.938   0.527
 9646TIP3   OH228880   2.373   0.357   4.385
 9646TIP3    H128881   2.439   0.330   4.449
 9646TIP3    H228882   2.420   0.416   4.326
 9647TIP3   OH228883   1.663   2.943   3.502
 9647TIP3    H128884   1.742   2.990   3.528
 9647TIP3    H228885   1.681   2.914   3.413
 9648TIP3   OH228886   0.593   1.226   4.233
 9648TIP3    H128887   0.613   1.171   4.309
 9648TIP3    H228888   0.516   1.186   4.194
 9649TIP3   OH228889   5.541   2.259   4.563
 9649TIP3    H128890   5.626   2.264   4.607
 9649TIP3    H228891   5.526   2.348   4.530
 9650TIP3   OH228892   4.150   5.831   0.341
 9650TIP3    H128893   4.136   5.918   0.305
 9650TIP3    H228894   4.236   5.805   0.308
 9651TIP3   OH228895   2.561   6.857   1.872
 9651TIP3    H128896   2.502   6.797   1.827
 9651TIP3    H228897   2.515   6.881   1.953
 9652TIP3   OH228898   6.173   0.918   0.535
 9652TIP3    H128899   6.098   0.904   0.594
 9652TIP3    H228900   6.157   0.858   0.462
 9653TIP3   OH228901   7.776   1.442   4.057
 9653TIP3    H128902   7.824   1.523   4.075
 9653TIP3    H228903   7.745   1.451   3.967
 9654TIP3   OH228904   2.738   0.487   0.429
 9654TIP3    H128905   2.787   0.566   0.451
 9654TIP3    H228906   2.650   0.503   0.461
 9655TIP3   OH228907   4.569   3.846   2.101
 9655TIP3    H128908   4.609   3.917   2.152
 9655TIP3    H228909   4.587   3.767   2.151
 9656TIP3   OH228910   4.259   5.255   1.254
 9656TIP3    H128911   4.257   5.331   1.197
 9656TIP3    H228912   4.325   5.276   1.320
 9657TIP3   OH228913   3.535   3.001   1.586
 9657TIP3    H128914   3.479   3.053   1.644
 9657TIP3    H228915   3.575   2.937   1.644
 9658TIP3   OH228916   4.035   5.169   2.558
 9658TIP3    H128917   4.037   5.247   2.504
 9658TIP3    H228918   4.047   5.201   2.648
 9659TIP3   OH228919   3.063   1.661   5.545
 9659TIP3    H128920   3.131   1.665   5.612
 9659TIP3    H228921   3.090   1.726   5.479
 9660TIP3   OH228922   6.107   1.655   3.568
 9660TIP3    H128923   6.068   1.671   3.482
 9660TIP3    H228924   6.149   1.569   3.559
 9661TIP3   OH228925   4.644   6.038   4.861
 9661TIP3    H128926   4.629   6.113   4.917
 9661TIP3    H228927   4.644   5.963   4.920
 9662TIP3   OH228928   5.874   0.638   6.567
 9662TIP3    H128929   5.927   0.603   6.639
 9662TIP3    H228930   5.897   0.731   6.564
 9663TIP3   OH228931   6.236   5.914   3.752
 9663TIP3    H128932   6.196   5.882   3.671
 9663TIP3    H228933   6.269   5.835   3.796
 9664TIP3   OH228934   0.628   1.612   5.089
 9664TIP3    H128935   0.632   1.674   5.016
 9664TIP3    H228936   0.667   1.532   5.054
 9665TIP3   OH228937   6.297   1.525   1.515
 9665TIP3    H128938   6.327   1.574   1.591
 9665TIP3    H228939   6.213   1.488   1.542
 9666TIP3   OH228940   2.173   5.005   5.621
 9666TIP3    H128941   2.118   4.986   5.697
 9666TIP3    H228942   2.263   4.994   5.653
 9667TIP3   OH228943   6.739   3.153   4.496
 9667TIP3    H128944   6.833   3.166   4.497
 9667TIP3    H228945   6.707   3.211   4.426
 9668TIP3   OH228946   6.689   6.553   2.539
 9668TIP3    H128947   6.647   6.475   2.573
 9668TIP3    H228948   6.681   6.546   2.444
 9669TIP3   OH228949   3.548   1.583   2.454
 9669TIP3    H128950   3.558   1.530   2.533
 9669TIP3    H228951   3.485   1.650   2.479
 9670TIP3   OH228952   1.432   7.759   3.846
 9670TIP3    H128953   1.488   7.703   3.900
 9670TIP3    H228954   1.401   7.827   3.907
 9671TIP3   OH228955   0.690   4.964   0.468
 9671TIP3    H128956   0.752   5.030   0.497
 9671TIP3    H228957   0.613   5.015   0.441
 9672TIP3   OH228958   1.499   3.544   2.748
 9672TIP3    H128959   1.410   3.579   2.758
 9672TIP3    H228960   1.495   3.489   2.670
 9673TIP3   OH228961   0.983   6.115   5.779
 9673TIP3    H128962   1.041   6.161   5.840
 9673TIP3    H228963   0.897   6.120   5.819
 9674TIP3   OH228964   6.668   0.494   4.666
 9674TIP3    H128965   6.700   0.511   4.754
 9674TIP3    H228966   6.583   0.537   4.662
 9675TIP3   OH228967   8.062   0.383   2.309
 9675TIP3    H128968   8.151   0.347   2.308
 9675TIP3    H228969   8.072   0.470   2.349
 9676TIP3   OH228970   6.169   7.100   5.931
 9676TIP3    H128971   6.138   7.093   5.841
 9676TIP3    H228972   6.120   7.032   5.978
 9677TIP3   OH228973   3.871   0.463   3.789
 9677TIP3    H128974   3.853   0.446   3.882
 9677TIP3    H228975   3.874   0.558   3.782
 9678TIP3   OH228976   1.167   5.149   0.894
 9678TIP3    H128977   1.184   5.099   0.814
 9678TIP3    H228978   1.248   5.139   0.945
 9679TIP3   OH228979   7.451   7.495   5.353
 9679TIP3    H128980   7.439   7.461   5.442
 9679TIP3    H228981   7.374   7.550   5.338
 9680TIP3   OH228982   7.097   2.663   2.262
 9680TIP3    H128983   7.051   2.686   2.343
 9680TIP3    H228984   7.151   2.739   2.243
 9681TIP3   OH228985   4.719   6.362   1.354
 9681TIP3    H128986   4.789   6.410   1.310
 9681TIP3    H228987   4.760   6.328   1.433
 9682TIP3   OH228988   3.268   2.021   3.644
 9682TIP3    H128989   3.274   1.999   3.737
 9682TIP3    H228990   3.343   2.078   3.628
 9683TIP3   OH228991   5.941   3.499   0.987
 9683TIP3    H128992   5.988   3.574   1.022
 9683TIP3    H228993   5.983   3.480   0.903
 9684TIP3   OH228994   1.474   0.869   2.596
 9684TIP3    H128995   1.518   0.933   2.651
 9684TIP3    H228996   1.544   0.817   2.557
 9685TIP3   OH228997   2.303   7.289   4.900
 9685TIP3    H128998   2.259   7.310   4.982
 9685TIP3    H228999   2.241   7.233   4.853
 9686TIP3   OH229000   1.952   3.385   5.261
 9686TIP3    H129001   1.935   3.297   5.296
 9686TIP3    H229002   2.047   3.393   5.264
 9687TIP3   OH229003   1.333   0.719   6.144
 9687TIP3    H129004   1.267   0.778   6.181
 9687TIP3    H229005   1.404   0.777   6.115
 9688TIP3   OH229006   5.588   6.944   5.114
 9688TIP3    H129007   5.570   6.956   5.021
 9688TIP3    H229008   5.505   6.916   5.152
 9689TIP3   OH229009   3.927   6.406   1.334
 9689TIP3    H129010   3.961   6.317   1.341
 9689TIP3    H229011   3.950   6.446   1.418
 9690TIP3   OH229012   0.322   4.793   4.169
 9690TIP3    H129013   0.379   4.722   4.199
 9690TIP3    H229014   0.239   4.776   4.212
 9691TIP3   OH229015   6.849   2.427   0.477
 9691TIP3    H129016   6.825   2.407   0.568
 9691TIP3    H229017   6.855   2.522   0.474
 9692TIP3   OH229018   0.747   4.319   1.769
 9692TIP3    H129019   0.752   4.380   1.843
 9692TIP3    H229020   0.751   4.232   1.808
 9693TIP3   OH229021   2.444   4.972   5.677
 9693TIP3    H129022   2.439   4.876   5.672
 9693TIP3    H229023   2.513   4.989   5.740
 9694TIP3   OH229024   1.933   1.494   1.116
 9694TIP3    H129025   1.942   1.525   1.026
 9694TIP3    H229026   1.859   1.433   1.113
 9695TIP3   OH229027   0.615   4.285   6.257
 9695TIP3    H129028   0.607   4.320   6.346
 9695TIP3    H229029   0.542   4.323   6.209
 9696TIP3   OH229030   1.806   1.952   2.822
 9696TIP3    H129031   1.791   1.859   2.840
 9696TIP3    H229032   1.892   1.970   2.860
 9697TIP3   OH229033   6.506   5.102   0.400
 9697TIP3    H129034   6.514   5.196   0.411
 9697TIP3    H229035   6.454   5.072   0.474
 9698TIP3   OH229036   6.473   0.210   6.661
 9698TIP3    H129037   6.509   0.273   6.599
 9698TIP3    H229038   6.426   0.146   6.606
 9699TIP3   OH229039   0.085   4.657   5.329
 9699TIP3    H129040   0.030   4.731   5.304
 9699TIP3    H229041   0.130   4.687   5.408
 9700TIP3   OH229042   5.795   3.147   1.500
 9700TIP3    H129043   5.801   3.237   1.532
 9700TIP3    H229044   5.730   3.149   1.431
 9701TIP3   OH229045   4.797   0.563   5.875
 9701TIP3    H129046   4.855   0.560   5.798
 9701TIP3    H229047   4.765   0.473   5.884
 9702TIP3   OH229048   6.895   7.372   0.796
 9702TIP3    H129049   6.874   7.437   0.729
 9702TIP3    H229050   6.908   7.424   0.876
 9703TIP3   OH229051   7.702   0.669   3.431
 9703TIP3    H129052   7.643   0.670   3.356
 9703TIP3    H229053   7.748   0.753   3.427
 9704TIP3   OH229054   1.520   1.621   3.429
 9704TIP3    H129055   1.589   1.593   3.368
 9704TIP3    H229056   1.468   1.685   3.379
 9705TIP3   OH229057   5.398   6.324   1.968
 9705TIP3    H129058   5.480   6.348   2.012
 9705TIP3    H229059   5.331   6.375   2.013
 9706TIP3   OH229060   3.386   1.059   3.505
 9706TIP3    H129061   3.365   0.977   3.461
 9706TIP3    H229062   3.379   1.126   3.436
 9707TIP3   OH229063   6.006   3.735   0.383
 9707TIP3    H129064   6.102   3.729   0.390
 9707TIP3    H229065   5.983   3.809   0.438
 9708TIP3   OH229066   3.474   0.209   0.613
 9708TIP3    H129067   3.561   0.177   0.590
 9708TIP3    H229068   3.456   0.172   0.700
 9709TIP3   OH229069   4.873   4.518   6.125
 9709TIP3    H129070   4.886   4.429   6.094
 9709TIP3    H229071   4.959   4.559   6.117
 9710TIP3   OH229072   3.732   6.932   3.835
 9710TIP3    H129073   3.650   6.982   3.837
 9710TIP3    H229074   3.732   6.891   3.749
 9711TIP3   OH229075   0.257   0.765   0.774
 9711TIP3    H129076   0.210   0.686   0.798
 9711TIP3    H229077   0.340   0.734   0.739
 9712TIP3   OH229078   7.058   0.135   2.527
 9712TIP3    H129079   7.140   0.087   2.541
 9712TIP3    H229080   7.060   0.158   2.434
 9713TIP3   OH229081   5.506   6.377   4.406
 9713TIP3    H129082   5.509   6.286   4.435
 9713TIP3    H229083   5.571   6.382   4.336
 9714TIP3   OH229084   7.572   2.915   1.381
 9714TIP3    H129085   7.568   2.897   1.475
 9714TIP3    H229086   7.491   2.963   1.363
 9715TIP3   OH229087   4.269   7.392   3.891
 9715TIP3    H129088   4.184   7.350   3.896
 9715TIP3    H229089   4.250   7.485   3.878
 9716TIP3   OH229090   5.837   3.298   1.164
 9716TIP3    H129091   5.847   3.375   1.220
 9716TIP3    H229092   5.865   3.327   1.077
 9717TIP3   OH229093   6.898   3.053   6.551
 9717TIP3    H129094   6.899   3.107   6.631
 9717TIP3    H229095   6.838   2.981   6.572
 9718TIP3   OH229096   3.998   0.919   4.553
 9718TIP3    H129097   4.088   0.947   4.566
 9718TIP3    H229098   3.966   0.973   4.481
 9719TIP3   OH229099   3.752   5.465   4.704
 9719TIP3    H129100   3.819   5.476   4.772
 9719TIP3    H229101   3.669   5.460   4.752
 9720TIP3   OH229102   8.064   1.374   2.376
 9720TIP3    H129103   8.078   1.416   2.461
 9720TIP3    H229104   8.138   1.403   2.323
 9721TIP3   OH229105   2.097   7.337   5.059
 9721TIP3    H129106   2.045   7.369   4.986
 9721TIP3    H229107   2.047   7.362   5.137
 9722TIP3   OH229108   3.600   0.248   2.188
 9722TIP3    H129109   3.672   0.307   2.211
 9722TIP3    H229110   3.641   0.180   2.135
 9723TIP3   OH229111   4.915   5.747   2.076
 9723TIP3    H129112   4.879   5.830   2.106
 9723TIP3    H229113   4.978   5.772   2.008
 9724TIP3   OH229114   7.186   1.651   0.206
 9724TIP3    H129115   7.215   1.563   0.231
 9724TIP3    H229116   7.235   1.710   0.263
 9725TIP3   OH229117   7.860   0.650   3.661
 9725TIP3    H129118   7.807   0.652   3.582
 9725TIP3    H229119   7.925   0.581   3.644
 9726TIP3   OH229120   1.912   1.393   3.137
 9726TIP3    H129121   1.920   1.481   3.173
 9726TIP3    H229122   1.977   1.390   3.066
 9727TIP3   OH229123   7.729   4.494   0.667
 9727TIP3    H129124   7.709   4.486   0.574
 9727TIP3    H229125   7.823   4.507   0.671
 9728TIP3   OH229126   3.191   5.003   0.509
 9728TIP3    H129127   3.205   5.094   0.484
 9728TIP3    H229128   3.145   4.964   0.434
 9729TIP3   OH229129   2.139   1.001   5.940
 9729TIP3    H129130   2.222   0.970   5.976
 9729TIP3    H229131   2.073   0.975   6.004
 9730TIP3   OH229132   6.583   5.523   6.462
 9730TIP3    H129133   6.572   5.616   6.446
 9730TIP3    H229134   6.656   5.518   6.524
 9731TIP3   OH229135   3.808   1.016   2.414
 9731TIP3    H129136   3.802   0.950   2.345
 9731TIP3    H229137   3.832   0.967   2.493
 9732TIP3   OH229138   0.342   3.083   1.314
 9732TIP3    H129139   0.431   3.060   1.338
 9732TIP3    H229140   0.347   3.173   1.283
 9733TIP3   OH229141   1.791   6.224   5.128
 9733TIP3    H129142   1.871   6.276   5.135
 9733TIP3    H229143   1.806   6.168   5.052
 9734TIP3   OH229144   5.432   5.064   4.108
 9734TIP3    H129145   5.438   5.029   4.019
 9734TIP3    H229146   5.505   5.023   4.154
 9735TIP3   OH229147   5.235   0.912   0.590
 9735TIP3    H129148   5.311   0.861   0.616
 9735TIP3    H229149   5.192   0.859   0.523
 9736TIP3   OH229150   1.155   0.706   6.480
 9736TIP3    H129151   1.181   0.668   6.564
 9736TIP3    H229152   1.083   0.650   6.450
 9737TIP3   OH229153   5.835   7.493   0.930
 9737TIP3    H129154   5.853   7.402   0.909
 9737TIP3    H229155   5.895   7.513   1.003
 9738TIP3   OH229156   7.928   0.801   2.327
 9738TIP3    H129157   7.858   0.743   2.358
 9738TIP3    H229158   7.927   0.874   2.389
 9739TIP3   OH229159   0.899   7.434   4.308
 9739TIP3    H129160   0.921   7.412   4.217
 9739TIP3    H229161   0.844   7.512   4.301
 9740TIP3   OH229162   3.080   3.398   2.669
 9740TIP3    H129163   3.043   3.460   2.732
 9740TIP3    H229164   3.120   3.330   2.723
 9741TIP3   OH229165   1.343   3.410   1.694
 9741TIP3    H129166   1.422   3.426   1.745
 9741TIP3    H229167   1.335   3.487   1.638
 9742TIP3   OH229168   5.839   3.456   3.480
 9742TIP3    H129169   5.871   3.370   3.452
 9742TIP3    H229170   5.786   3.437   3.557
 9743TIP3   OH229171   1.887   7.409   6.431
 9743TIP3    H129172   1.911   7.444   6.517
 9743TIP3    H229173   1.938   7.328   6.424
 9744TIP3   OH229174   2.364   3.949   4.002
 9744TIP3    H129175   2.423   3.933   4.076
 9744TIP3    H229176   2.285   3.899   4.023
 9745TIP3   OH229177   7.035   5.405   3.757
 9745TIP3    H129178   6.966   5.340   3.748
 9745TIP3    H229179   7.116   5.355   3.758
 9746TIP3   OH229180   1.190   2.229   3.139
 9746TIP3    H129181   1.264   2.207   3.196
 9746TIP3    H229182   1.201   2.173   3.062
 9747TIP3   OH229183   6.626   7.578   5.894
 9747TIP3    H129184   6.632   7.558   5.987
 9747TIP3    H229185   6.570   7.510   5.858
 9748TIP3   OH229186   7.171   3.387   2.120
 9748TIP3    H129187   7.255   3.380   2.166
 9748TIP3    H229188   7.173   3.317   2.055
 9749TIP3   OH229189   0.040   5.543   5.758
 9749TIP3    H129190   0.091   5.621   5.779
 9749TIP3    H229191   0.065   5.521   5.668
 9750TIP3   OH229192   0.933   0.593   0.866
 9750TIP3    H129193   1.022   0.578   0.898
 9750TIP3    H229194   0.930   0.545   0.783
 9751TIP3   OH229195   8.095   7.601   2.918
 9751TIP3    H129196   8.124   7.557   2.998
 9751TIP3    H229197   8.014   7.645   2.943
 9752TIP3   OH229198   6.560   6.444   2.933
 9752TIP3    H129199   6.495   6.479   2.872
 9752TIP3    H229200   6.606   6.522   2.966
 9753TIP3   OH229201   5.469   6.096   2.130
 9753TIP3    H129202   5.551   6.135   2.158
 9753TIP3    H229203   5.453   6.134   2.043
 9754TIP3   OH229204   6.551   5.389   3.143
 9754TIP3    H129205   6.629   5.424   3.101
 9754TIP3    H229206   6.542   5.300   3.108
 9755TIP3   OH229207   7.438   2.648   2.100
 9755TIP3    H129208   7.484   2.720   2.142
 9755TIP3    H229209   7.353   2.684   2.076
 9756TIP3   OH229210   2.420   3.856   0.672
 9756TIP3    H129211   2.327   3.837   0.660
 9756TIP3    H229212   2.458   3.773   0.700
 9757TIP3   OH229213   0.126   7.390   3.039
 9757TIP3    H129214   0.085   7.361   2.957
 9757TIP3    H229215   0.068   7.458   3.072
 9758TIP3   OH229216   6.684   5.887   4.355
 9758TIP3    H129217   6.678   5.814   4.417
 9758TIP3    H229218   6.680   5.966   4.409
 9759TIP3   OH229219   7.241   1.561   5.187
 9759TIP3    H129220   7.308   1.628   5.201
 9759TIP3    H229221   7.160   1.611   5.173
 9760TIP3   OH229222   5.060   0.738   3.317
 9760TIP3    H129223   5.036   0.738   3.224
 9760TIP3    H229224   5.091   0.827   3.333
 9761TIP3   OH229225   0.960   3.139   6.211
 9761TIP3    H129226   0.888   3.164   6.269
 9761TIP3    H229227   0.961   3.044   6.214
 9762TIP3   OH229228   0.703   5.851   0.387
 9762TIP3    H129229   0.615   5.874   0.417
 9762TIP3    H229230   0.690   5.779   0.325
 9763TIP3   OH229231   6.319   1.933   0.559
 9763TIP3    H129232   6.300   2.021   0.528
 9763TIP3    H229233   6.387   1.945   0.625
 9764TIP3   OH229234   4.599   2.988   5.801
 9764TIP3    H129235   4.535   2.927   5.837
 9764TIP3    H229236   4.682   2.961   5.840
 9765TIP3   OH229237   2.394   6.870   1.376
 9765TIP3    H129238   2.382   6.910   1.462
 9765TIP3    H229239   2.305   6.860   1.341
 9766TIP3   OH229240   2.226   4.315   4.689
 9766TIP3    H129241   2.165   4.354   4.626
 9766TIP3    H229242   2.298   4.378   4.695
 9767TIP3   OH229243   7.661   7.241   0.141
 9767TIP3    H129244   7.586   7.299   0.150
 9767TIP3    H229245   7.624   7.154   0.130
 9768TIP3   OH229246   3.313   5.053   0.783
 9768TIP3    H129247   3.297   5.010   0.699
 9768TIP3    H229248   3.375   5.123   0.762
 9769TIP3   OH229249   7.144   7.001   0.471
 9769TIP3    H129250   7.183   6.948   0.402
 9769TIP3    H229251   7.216   7.057   0.501
 9770TIP3   OH229252   2.922   3.848   3.317
 9770TIP3    H129253   2.990   3.885   3.262
 9770TIP3    H229254   2.969   3.788   3.376
 9771TIP3   OH229255   8.239   1.674   5.137
 9771TIP3    H129256   8.304   1.678   5.068
 9771TIP3    H229257   8.183   1.601   5.113
 9772TIP3   OH229258   6.028   4.204   1.236
 9772TIP3    H129259   5.970   4.129   1.246
 9772TIP3    H229260   6.101   4.171   1.183
 9773TIP3   OH229261   6.863   0.210   1.918
 9773TIP3    H129262   6.775   0.197   1.953
 9773TIP3    H229263   6.872   0.145   1.850
 9774TIP3   OH229264   0.024   5.976   3.675
 9774TIP3    H129265   0.117   5.960   3.689
 9774TIP3    H229266  -0.018   5.957   3.758
 9775TIP3   OH229267   2.565   2.808   2.120
 9775TIP3    H129268   2.543   2.717   2.100
 9775TIP3    H229269   2.533   2.858   2.044
 9776TIP3   OH229270   4.490   6.959   3.652
 9776TIP3    H129271   4.443   6.896   3.707
 9776TIP3    H229272   4.577   6.966   3.693
 9777TIP3   OH229273   7.638   2.360   6.364
 9777TIP3    H129274   7.598   2.413   6.295
 9777TIP3    H229275   7.564   2.311   6.402
 9778TIP3   OH229276   3.826   7.289   0.569
 9778TIP3    H129277   3.897   7.309   0.630
 9778TIP3    H229278   3.781   7.372   0.556
 9779TIP3   OH229279   6.427   5.530   5.694
 9779TIP3    H129280   6.401   5.611   5.739
 9779TIP3    H229281   6.516   5.548   5.663
 9780TIP3   OH229282   1.038   3.626   6.605
 9780TIP3    H129283   1.094   3.549   6.614
 9780TIP3    H229284   0.993   3.614   6.521
 9781TIP3   OH229285   2.925   2.377   3.566
 9781TIP3    H129286   2.842   2.358   3.523
 9781TIP3    H229287   2.969   2.292   3.571
 9782TIP3   OH229288   5.653   6.354   5.756
 9782TIP3    H129289   5.627   6.432   5.707
 9782TIP3    H229290   5.672   6.386   5.843
 9783TIP3   OH229291   7.704   0.728   2.004
 9783TIP3    H129292   7.701   0.677   1.923
 9783TIP3    H229293   7.746   0.670   2.067
 9784TIP3   OH229294   7.575   2.145   4.814
 9784TIP3    H129295   7.602   2.056   4.838
 9784TIP3    H229296   7.582   2.147   4.719
 9785TIP3   OH229297   2.349   1.736   1.343
 9785TIP3    H129298   2.397   1.658   1.317
 9785TIP3    H229299   2.416   1.796   1.374
 9786TIP3   OH229300   0.205   4.746   3.800
 9786TIP3    H129301   0.257   4.690   3.858
 9786TIP3    H229302   0.128   4.769   3.851
 9787TIP3   OH229303   4.472   5.625   2.520
 9787TIP3    H129304   4.444   5.538   2.492
 9787TIP3    H229305   4.506   5.613   2.608
 9788TIP3   OH229306   0.707   2.206   5.975
 9788TIP3    H129307   0.800   2.182   5.970
 9788TIP3    H229308   0.661   2.123   5.968
 9789TIP3   OH229309   7.064   7.618   3.043
 9789TIP3    H129310   6.993   7.564   3.007
 9789TIP3    H229311   7.041   7.628   3.136
 9790TIP3   OH229312   1.331   2.404   5.751
 9790TIP3    H129313   1.310   2.490   5.788
 9790TIP3    H229314   1.427   2.400   5.754
 9791TIP3   OH229315   1.971   2.330   6.239
 9791TIP3    H129316   1.945   2.414   6.275
 9791TIP3    H229317   2.064   2.341   6.217
 9792TIP3   OH229318   7.861   1.004   3.592
 9792TIP3    H129319   7.884   0.967   3.677
 9792TIP3    H229320   7.888   1.096   3.598
 9793TIP3   OH229321   4.670   4.944   2.529
 9793TIP3    H129322   4.691   4.899   2.610
 9793TIP3    H229323   4.744   4.925   2.471
 9794TIP3   OH229324   2.288   6.757   3.007
 9794TIP3    H129325   2.240   6.837   3.028
 9794TIP3    H229326   2.329   6.776   2.922
 9795TIP3   OH229327   6.605   5.170   3.714
 9795TIP3    H129328   6.531   5.227   3.692
 9795TIP3    H229329   6.606   5.104   3.645
 9796TIP3   OH229330   4.713   7.292   0.140
 9796TIP3    H129331   4.637   7.236   0.151
 9796TIP3    H229332   4.767   7.275   0.217
 9797TIP3   OH229333   1.958   2.717   1.958
 9797TIP3    H129334   1.988   2.704   1.868
 9797TIP3    H229335   1.947   2.628   1.992
 9798TIP3   OH229336   0.320   3.706   0.590
 9798TIP3    H129337   0.332   3.739   0.679
 9798TIP3    H229338   0.388   3.750   0.539
 9799TIP3   OH229339   7.591   7.349   1.979
 9799TIP3    H129340   7.632   7.280   2.031
 9799TIP3    H229341   7.582   7.423   2.040
 9800TIP3   OH229342   5.670   4.811   0.552
 9800TIP3    H129343   5.672   4.894   0.600
 9800TIP3    H229344   5.678   4.836   0.460
 9801TIP3   OH229345   2.696   6.982   6.271
 9801TIP3    H129346   2.734   6.936   6.345
 9801TIP3    H229347   2.609   7.009   6.300
 9802TIP3   OH229348   5.462   1.385   3.862
 9802TIP3    H129349   5.406   1.310   3.847
 9802TIP3    H229350   5.489   1.378   3.954
 9803TIP3   OH229351   3.657   5.610   4.299
 9803TIP3    H129352   3.635   5.629   4.390
 9803TIP3    H229353   3.745   5.572   4.303
 9804TIP3   OH229354   2.797   1.158   5.173
 9804TIP3    H129355   2.819   1.148   5.266
 9804TIP3    H229356   2.876   1.196   5.134
 9805TIP3   OH229357   2.302   0.856   5.172
 9805TIP3    H129358   2.332   0.945   5.184
 9805TIP3    H229359   2.381   0.802   5.178
 9806TIP3   OH229360   1.961   4.162   4.209
 9806TIP3    H129361   1.961   4.162   4.114
 9806TIP3    H229362   1.994   4.248   4.233
 9807TIP3   OH229363   2.805   0.397   5.036
 9807TIP3    H129364   2.829   0.441   5.117
 9807TIP3    H229365   2.821   0.461   4.967
 9808TIP3   OH229366   6.386   2.972   1.947
 9808TIP3    H129367   6.403   2.894   2.000
 9808TIP3    H229368   6.347   3.034   2.008
 9809TIP3   OH229369   1.382   3.212   0.456
 9809TIP3    H129370   1.294   3.239   0.481
 9809TIP3    H229371   1.435   3.226   0.534
 9810TIP3   OH229372   1.064   0.393   5.380
 9810TIP3    H129373   1.084   0.486   5.374
 9810TIP3    H229374   1.149   0.351   5.394
 9811TIP3   OH229375   1.210   3.177   1.652
 9811TIP3    H129376   1.186   3.144   1.565
 9811TIP3    H229377   1.246   3.264   1.636
 9812TIP3   OH229378   0.021   0.285   6.138
 9812TIP3    H129379  -0.070   0.291   6.108
 9812TIP3    H229380   0.049   0.376   6.148
 9813TIP3   OH229381   4.474   1.569   5.070
 9813TIP3    H129382   4.568   1.561   5.053
 9813TIP3    H229383   4.458   1.514   5.146
 9814TIP3   OH229384   0.514   6.022   3.134
 9814TIP3    H129385   0.525   6.011   3.229
 9814TIP3    H229386   0.591   6.073   3.107
 9815TIP3   OH229387   3.026   2.617   1.185
 9815TIP3    H129388   2.989   2.588   1.269
 9815TIP3    H229389   2.950   2.645   1.134
 9816TIP3   OH229390   7.635   3.196   5.699
 9816TIP3    H129391   7.730   3.193   5.683
 9816TIP3    H229392   7.624   3.273   5.755
 9817TIP3   OH229393   3.855   6.563   5.022
 9817TIP3    H129394   3.766   6.533   5.039
 9817TIP3    H229395   3.847   6.658   5.014
 9818TIP3   OH229396   3.095   1.645   4.622
 9818TIP3    H129397   3.155   1.595   4.568
 9818TIP3    H229398   3.048   1.701   4.560
 9819TIP3   OH229399   3.721   2.746   5.799
 9819TIP3    H129400   3.669   2.747   5.879
 9819TIP3    H229401   3.668   2.794   5.735
 9820TIP3   OH229402   4.049   1.730   5.390
 9820TIP3    H129403   4.031   1.640   5.363
 9820TIP3    H229404   3.988   1.747   5.461
 9821TIP3   OH229405   6.714   3.749   1.107
 9821TIP3    H129406   6.804   3.746   1.139
 9821TIP3    H229407   6.693   3.658   1.087
 9822TIP3   OH229408   7.352   1.811   0.348
 9822TIP3    H129409   7.340   1.904   0.367
 9822TIP3    H229410   7.317   1.767   0.426
 9823TIP3   OH229411   5.833   2.685   2.838
 9823TIP3    H129412   5.811   2.684   2.745
 9823TIP3    H229413   5.760   2.640   2.880
 9824TIP3   OH229414   7.218   5.596   1.320
 9824TIP3    H129415   7.286   5.662   1.309
 9824TIP3    H229416   7.136   5.644   1.307
 9825TIP3   OH229417   1.818   0.533   4.645
 9825TIP3    H129418   1.781   0.565   4.727
 9825TIP3    H229419   1.754   0.470   4.612
 9826TIP3   OH229420   4.893   1.336   2.760
 9826TIP3    H129421   4.931   1.363   2.676
 9826TIP3    H229422   4.951   1.375   2.826
 9827TIP3   OH229423   7.826   6.247   3.543
 9827TIP3    H129424   7.751   6.245   3.484
 9827TIP3    H229425   7.841   6.156   3.567
 9828TIP3   OH229426   0.406   0.669   0.482
 9828TIP3    H129427   0.451   0.648   0.563
 9828TIP3    H229428   0.416   0.764   0.472
 9829TIP3   OH229429   4.157   5.562   2.577
 9829TIP3    H129430   4.235   5.525   2.618
 9829TIP3    H229431   4.130   5.496   2.513
 9830TIP3   OH229432   3.146   7.338   1.495
 9830TIP3    H129433   3.101   7.405   1.445
 9830TIP3    H229434   3.233   7.331   1.455
 9831TIP3   OH229435   7.219   7.685   1.489
 9831TIP3    H129436   7.245   7.672   1.398
 9831TIP3    H229437   7.185   7.600   1.517
 9832TIP3   OH229438   3.748   0.117   1.276
 9832TIP3    H129439   3.842   0.131   1.283
 9832TIP3    H229440   3.723   0.160   1.194
 9833TIP3   OH229441   4.548   3.929   0.571
 9833TIP3    H129442   4.614   3.996   0.552
 9833TIP3    H229443   4.466   3.977   0.575
 9834TIP3   OH229444   6.555   6.954   5.093
 9834TIP3    H129445   6.649   6.952   5.108
 9834TIP3    H229446   6.516   6.951   5.181
 9835TIP3   OH229447   6.187   6.742   1.408
 9835TIP3    H129448   6.202   6.647   1.415
 9835TIP3    H229449   6.265   6.775   1.364
 9836TIP3   OH229450   2.912   2.818   5.756
 9836TIP3    H129451   2.953   2.847   5.675
 9836TIP3    H229452   2.982   2.777   5.805
 9837TIP3   OH229453   1.338   4.423   2.643
 9837TIP3    H129454   1.262   4.427   2.702
 9837TIP3    H229455   1.342   4.332   2.616
 9838TIP3   OH229456   1.265   4.340   5.931
 9838TIP3    H129457   1.190   4.329   5.873
 9838TIP3    H229458   1.282   4.252   5.966
 9839TIP3   OH229459   6.348   4.290   5.498
 9839TIP3    H129460   6.390   4.356   5.443
 9839TIP3    H229461   6.343   4.212   5.443
 9840TIP3   OH229462   5.685   6.280   3.342
 9840TIP3    H129463   5.722   6.304   3.427
 9840TIP3    H229464   5.664   6.187   3.351
 9841TIP3   OH229465   1.094   1.063   1.570
 9841TIP3    H129466   1.177   1.079   1.615
 9841TIP3    H229467   1.069   0.974   1.595
 9842TIP3   OH229468   3.141   4.095   1.934
 9842TIP3    H129469   3.230   4.080   1.904
 9842TIP3    H229470   3.086   4.064   1.863
 9843TIP3   OH229471   1.829   4.243   2.694
 9843TIP3    H129472   1.810   4.217   2.604
 9843TIP3    H229473   1.744   4.238   2.738
 9844TIP3   OH229474   1.919   4.145   0.470
 9844TIP3    H129475   1.828   4.147   0.500
 9844TIP3    H229476   1.971   4.170   0.546
 9845TIP3   OH229477   1.120   2.988   4.427
 9845TIP3    H129478   1.213   2.982   4.403
 9845TIP3    H229479   1.079   2.912   4.385
 9846TIP3   OH229480   0.607   6.882   4.178
 9846TIP3    H129481   0.681   6.882   4.238
 9846TIP3    H229482   0.537   6.926   4.227
 9847TIP3   OH229483   7.975   6.984   3.708
 9847TIP3    H129484   7.970   6.907   3.766
 9847TIP3    H229485   7.912   6.966   3.639
 9848TIP3   OH229486   7.383   6.318   0.886
 9848TIP3    H129487   7.313   6.356   0.940
 9848TIP3    H229488   7.440   6.274   0.948
 9849TIP3   OH229489   7.828   7.118   3.913
 9849TIP3    H129490   7.805   7.196   3.863
 9849TIP3    H229491   7.900   7.079   3.865
 9850TIP3   OH229492   3.351   5.641   5.048
 9850TIP3    H129493   3.270   5.620   5.093
 9850TIP3    H229494   3.376   5.727   5.082
 9851TIP3   OH229495   0.587   6.671   1.955
 9851TIP3    H129496   0.611   6.657   2.047
 9851TIP3    H229497   0.497   6.638   1.949
 9852TIP3   OH229498   8.202   0.259   6.484
 9852TIP3    H129499   8.287   0.271   6.442
 9852TIP3    H229500   8.222   0.242   6.576
 9853TIP3   OH229501   4.777   1.291   4.053
 9853TIP3    H129502   4.845   1.300   3.986
 9853TIP3    H229503   4.732   1.376   4.053
 9854TIP3   OH229504   0.662   6.592   4.141
 9854TIP3    H129505   0.610   6.670   4.160
 9854TIP3    H229506   0.670   6.591   4.045
 9855TIP3   OH229507   1.223   1.447   5.529
 9855TIP3    H129508   1.263   1.365   5.498
 9855TIP3    H229509   1.191   1.427   5.617
 9856TIP3   OH229510   4.329   2.899   5.866
 9856TIP3    H129511   4.324   2.955   5.944
 9856TIP3    H229512   4.237   2.882   5.844
 9857TIP3   OH229513   8.244   6.607   6.213
 9857TIP3    H129514   8.224   6.513   6.212
 9857TIP3    H229515   8.237   6.632   6.305
 9858TIP3   OH229516   8.156   2.869   0.882
 9858TIP3    H129517   8.065   2.839   0.891
 9858TIP3    H229518   8.206   2.813   0.941
 9859TIP3   OH229519   1.052   3.791   3.593
 9859TIP3    H129520   1.053   3.876   3.550
 9859TIP3    H229521   0.978   3.745   3.554
 9860TIP3   OH229522   6.514   0.636   5.825
 9860TIP3    H129523   6.569   0.562   5.800
 9860TIP3    H229524   6.569   0.689   5.882
 9861TIP3   OH229525   6.641   1.374   3.518
 9861TIP3    H129526   6.578   1.442   3.497
 9861TIP3    H229527   6.594   1.314   3.576
 9862TIP3   OH229528   0.530   2.978   6.018
 9862TIP3    H129529   0.561   2.891   5.995
 9862TIP3    H229530   0.582   3.037   5.964
 9863TIP3   OH229531   2.054   6.521   6.737
 9863TIP3    H129532   1.970   6.557   6.765
 9863TIP3    H229533   2.103   6.597   6.707
 9864TIP3   OH229534   0.670   5.716   6.108
 9864TIP3    H129535   0.721   5.794   6.129
 9864TIP3    H229536   0.720   5.644   6.146
 9865TIP3   OH229537   7.914   4.332   4.778
 9865TIP3    H129538   7.841   4.373   4.733
 9865TIP3    H229539   7.876   4.255   4.821
 9866TIP3   OH229540   6.042   6.170   4.698
 9866TIP3    H129541   6.082   6.160   4.785
 9866TIP3    H229542   6.018   6.081   4.673
 9867TIP3   OH229543   4.337   5.324   6.570
 9867TIP3    H129544   4.338   5.392   6.502
 9867TIP3    H229545   4.287   5.252   6.532
 9868TIP3   OH229546   3.410   6.202   5.373
 9868TIP3    H129547   3.473   6.241   5.313
 9868TIP3    H229548   3.355   6.275   5.401
 9869TIP3   OH229549   5.600   5.621   4.080
 9869TIP3    H129550   5.577   5.541   4.127
 9869TIP3    H229551   5.557   5.612   3.995
 9870TIP3   OH229552   7.335   6.262   1.332
 9870TIP3    H129553   7.313   6.323   1.402
 9870TIP3    H229554   7.424   6.286   1.306
 9871TIP3   OH229555   0.092   5.408   0.248
 9871TIP3    H129556   0.123   5.352   0.319
 9871TIP3    H229557   0.170   5.429   0.198
 9872TIP3   OH229558   4.223   7.116   5.730
 9872TIP3    H129559   4.226   7.199   5.683
 9872TIP3    H229560   4.308   7.109   5.773
 9873TIP3   OH229561   0.210   3.613   3.264
 9873TIP3    H129562   0.244   3.569   3.186
 9873TIP3    H229563   0.154   3.683   3.231
 9874TIP3   OH229564   3.997   3.136   2.122
 9874TIP3    H129565   4.063   3.137   2.191
 9874TIP3    H229566   3.934   3.069   2.149
 9875TIP3   OH229567   2.629   4.048   1.556
 9875TIP3    H129568   2.631   4.012   1.467
 9875TIP3    H229569   2.667   3.979   1.611
 9876TIP3   OH229570   4.788   5.582   1.208
 9876TIP3    H129571   4.695   5.560   1.218
 9876TIP3    H229572   4.834   5.515   1.258
 9877TIP3   OH229573   0.026   1.921   5.223
 9877TIP3    H129574  -0.039   1.851   5.216
 9877TIP3    H229575   0.107   1.876   5.248
 9878TIP3   OH229576   2.319   3.373   0.066
 9878TIP3    H129577   2.239   3.373   0.118
 9878TIP3    H229578   2.353   3.462   0.074
 9879TIP3   OH229579   7.007   0.280   6.703
 9879TIP3    H129580   7.042   0.360   6.742
 9879TIP3    H229581   6.915   0.280   6.727
 9880TIP3   OH229582   3.366   5.520   3.993
 9880TIP3    H129583   3.371   5.456   3.922
 9880TIP3    H229584   3.283   5.502   4.036
 9881TIP3   OH229585   0.399   5.450   4.510
 9881TIP3    H129586   0.484   5.411   4.492
 9881TIP3    H229587   0.369   5.484   4.426
 9882TIP3   OH229588   6.647   1.031   1.949
 9882TIP3    H129589   6.595   0.952   1.938
 9882TIP3    H229590   6.737   1.003   1.933
 9883TIP3   OH229591   3.966   0.449   6.118
 9883TIP3    H129592   3.942   0.440   6.026
 9883TIP3    H229593   3.883   0.463   6.163
 9884TIP3   OH229594   3.947   7.432   5.159
 9884TIP3    H129595   4.035   7.471   5.156
 9884TIP3    H229596   3.920   7.427   5.067
 9885TIP3   OH229597   0.778   4.046   1.829
 9885TIP3    H129598   0.848   4.021   1.769
 9885TIP3    H229599   0.788   3.988   1.904
 9886TIP3   OH229600   6.379   6.196   4.216
 9886TIP3    H129601   6.416   6.225   4.299
 9886TIP3    H229602   6.285   6.213   4.224
 9887TIP3   OH229603   0.405   4.197   5.763
 9887TIP3    H129604   0.474   4.163   5.707
 9887TIP3    H229605   0.380   4.280   5.723
 9888TIP3   OH229606   6.246  -0.024   3.612
 9888TIP3    H129607   6.173   0.036   3.598
 9888TIP3    H229608   6.323   0.032   3.614
 9889TIP3   OH229609   3.263   3.788   2.190
 9889TIP3    H129610   3.345   3.775   2.141
 9889TIP3    H229611   3.254   3.710   2.243
 9890TIP3   OH229612   4.059   6.170   1.361
 9890TIP3    H129613   4.143   6.149   1.322
 9890TIP3    H229614   4.018   6.085   1.377
 9891TIP3   OH229615   6.863   4.565   0.800
 9891TIP3    H129616   6.909   4.643   0.770
 9891TIP3    H229617   6.866   4.569   0.896
 9892TIP3   OH229618   0.761   5.223   1.969
 9892TIP3    H129619   0.731   5.268   2.048
 9892TIP3    H229620   0.752   5.288   1.899
 9893TIP3   OH229621   3.037   1.585   2.989
 9893TIP3    H129622   3.100   1.553   2.924
 9893TIP3    H229623   3.082   1.658   3.031
 9894TIP3   OH229624   5.697   0.517   3.275
 9894TIP3    H129625   5.670   0.455   3.207
 9894TIP3    H229626   5.659   0.481   3.356
 9895TIP3   OH229627   4.441   6.370   1.427
 9895TIP3    H129628   4.510   6.414   1.376
 9895TIP3    H229629   4.480   6.356   1.513
 9896TIP3   OH229630   7.869   1.916   4.783
 9896TIP3    H129631   7.779   1.893   4.758
 9896TIP3    H229632   7.904   1.837   4.822
 9897TIP3   OH229633   7.864   6.545   5.205
 9897TIP3    H129634   7.914   6.480   5.254
 9897TIP3    H229635   7.824   6.600   5.273
 9898TIP3   OH229636   6.326   1.595   1.249
 9898TIP3    H129637   6.313   1.561   1.338
 9898TIP3    H229638   6.418   1.577   1.230
 9899TIP3   OH229639   3.606   5.866   1.593
 9899TIP3    H129640   3.563   5.938   1.545
 9899TIP3    H229641   3.603   5.792   1.533
 9900TIP3   OH229642   0.835   2.108   3.507
 9900TIP3    H129643   0.869   2.027   3.546
 9900TIP3    H229644   0.880   2.114   3.422
 9901TIP3   OH229645   0.325   0.704   5.449
 9901TIP3    H129646   0.256   0.642   5.476
 9901TIP3    H229647   0.401   0.679   5.501
 9902TIP3   OH229648   2.072   6.725   0.328
 9902TIP3    H129649   2.104   6.749   0.414
 9902TIP3    H229650   1.990   6.677   0.344
 9903TIP3   OH229651   0.917   6.917   4.640
 9903TIP3    H129652   0.940   6.860   4.713
 9903TIP3    H229653   0.974   6.993   4.650
 9904TIP3   OH229654   7.992   5.609   1.084
 9904TIP3    H129655   7.980   5.588   0.991
 9904TIP3    H229656   8.087   5.616   1.095
 9905TIP3   OH229657   0.329   3.627   3.768
 9905TIP3    H129658   0.411   3.613   3.721
 9905TIP3    H229659   0.298   3.712   3.737
 9906TIP3   OH229660   2.171   6.319   0.410
 9906TIP3    H129661   2.113   6.245   0.426
 9906TIP3    H229662   2.230   6.288   0.341
 9907TIP3   OH229663   2.966   6.737   1.463
 9907TIP3    H129664   2.908   6.695   1.399
 9907TIP3    H229665   2.941   6.829   1.462
 9908TIP3   OH229666   2.697   6.396   1.883
 9908TIP3    H129667   2.704   6.437   1.797
 9908TIP3    H229668   2.760   6.324   1.881
 9909TIP3   OH229669   5.543   6.384   6.250
 9909TIP3    H129670   5.586   6.444   6.311
 9909TIP3    H229671   5.513   6.440   6.178
 9910TIP3   OH229672   3.665   1.410   4.205
 9910TIP3    H129673   3.594   1.475   4.198
 9910TIP3    H229674   3.626   1.329   4.171
 9911TIP3   OH229675   3.364   6.556   3.967
 9911TIP3    H129676   3.449   6.532   3.932
 9911TIP3    H229677   3.369   6.535   4.060
 9912TIP3   OH229678   2.368   2.068   0.189
 9912TIP3    H129679   2.390   2.055   0.097
 9912TIP3    H229680   2.408   2.151   0.212
 9913TIP3   OH229681   2.345   1.365   2.237
 9913TIP3    H129682   2.314   1.426   2.304
 9913TIP3    H229683   2.297   1.284   2.254
 9914TIP3   OH229684   6.069   5.176   4.747
 9914TIP3    H129685   6.076   5.115   4.820
 9914TIP3    H229686   6.024   5.252   4.784
 9915TIP3   OH229687   3.803   1.456   5.651
 9915TIP3    H129688   3.754   1.484   5.574
 9915TIP3    H229689   3.864   1.528   5.667
 9916TIP3   OH229690   2.392   7.698   1.347
 9916TIP3    H129691   2.362   7.675   1.259
 9916TIP3    H229692   2.449   7.774   1.335
 9917TIP3   OH229693   3.039   2.981   4.428
 9917TIP3    H129694   3.112   3.030   4.466
 9917TIP3    H229695   3.064   2.967   4.337
 9918TIP3   OH229696   2.672   3.814   0.186
 9918TIP3    H129697   2.708   3.743   0.240
 9918TIP3    H229698   2.663   3.888   0.246
 9919TIP3   OH229699   7.002   5.606   2.737
 9919TIP3    H129700   6.952   5.680   2.772
 9919TIP3    H229701   7.064   5.584   2.807
 9920TIP3   OH229702   4.159   3.893   5.724
 9920TIP3    H129703   4.184   3.972   5.772
 9920TIP3    H229704   4.216   3.892   5.648
 9921TIP3   OH229705   0.141   6.883   1.607
 9921TIP3    H129706   0.200   6.951   1.638
 9921TIP3    H229707   0.140   6.817   1.676
 9922TIP3   OH229708   1.680   0.415   0.913
 9922TIP3    H129709   1.639   0.495   0.946
 9922TIP3    H229710   1.619   0.383   0.847
 9923TIP3   OH229711   6.057   1.519   2.870
 9923TIP3    H129712   6.105   1.563   2.799
 9923TIP3    H229713   6.011   1.448   2.827
 9924TIP3   OH229714   6.416   6.396   3.603
 9924TIP3    H129715   6.453   6.317   3.641
 9924TIP3    H229716   6.492   6.453   3.587
 9925TIP3   OH229717   2.536   7.186   4.975
 9925TIP3    H129718   2.519   7.180   5.069
 9925TIP3    H229719   2.459   7.231   4.940
 9926TIP3   OH229720   3.308   3.300   5.836
 9926TIP3    H129721   3.333   3.368   5.899
 9926TIP3    H229722   3.342   3.219   5.874
 9927TIP3   OH229723   4.194   4.190   6.159
 9927TIP3    H129724   4.220   4.255   6.224
 9927TIP3    H229725   4.099   4.194   6.158
 9928TIP3   OH229726   1.160   1.690   0.916
 9928TIP3    H129727   1.097   1.620   0.896
 9928TIP3    H229728   1.241   1.662   0.874
 9929TIP3   OH229729   1.629   2.308   1.461
 9929TIP3    H129730   1.567   2.272   1.398
 9929TIP3    H229731   1.665   2.232   1.507
 9930TIP3   OH229732   7.052   3.039   2.463
 9930TIP3    H129733   7.132   2.990   2.441
 9930TIP3    H229734   7.078   3.131   2.457
 9931TIP3   OH229735   0.175   5.246   3.615
 9931TIP3    H129736   0.161   5.285   3.701
 9931TIP3    H229737   0.237   5.304   3.571
 9932TIP3   OH229738   6.069   2.565   0.429
 9932TIP3    H129739   6.029   2.478   0.424
 9932TIP3    H229740   6.013   2.621   0.375
 9933TIP3   OH229741   2.216   5.163   6.320
 9933TIP3    H129742   2.256   5.099   6.261
 9933TIP3    H229743   2.123   5.137   6.324
 9934TIP3   OH229744   1.964   4.926   1.047
 9934TIP3    H129745   1.987   4.841   1.009
 9934TIP3    H229746   2.007   4.927   1.132
 9935TIP3   OH229747   0.149   0.101   1.498
 9935TIP3    H129748   0.234   0.061   1.517
 9935TIP3    H229749   0.090   0.061   1.561
 9936TIP3   OH229750   0.316   6.304   0.920
 9936TIP3    H129751   0.247   6.325   0.983
 9936TIP3    H229752   0.302   6.211   0.900
 9937TIP3   OH229753   1.208   0.936   6.606
 9937TIP3    H129754   1.172   0.931   6.694
 9937TIP3    H229755   1.165   0.866   6.558
 9938TIP3   OH229756   5.335   4.450   5.574
 9938TIP3    H129757   5.330   4.545   5.588
 9938TIP3    H229758   5.429   4.433   5.560
 9939TIP3   OH229759   4.931   6.220   1.921
 9939TIP3    H129760   5.023   6.206   1.898
 9939TIP3    H229761   4.913   6.310   1.894
 9940TIP3   OH229762   7.835   0.032   5.403
 9940TIP3    H129763   7.796   0.078   5.478
 9940TIP3    H229764   7.929   0.051   5.410
 9941TIP3   OH229765   6.190   0.477   5.584
 9941TIP3    H129766   6.127   0.513   5.646
 9941TIP3    H229767   6.153   0.494   5.498
 9942TIP3   OH229768   3.713   1.761   2.817
 9942TIP3    H129769   3.657   1.691   2.784
 9942TIP3    H229770   3.658   1.840   2.813
 9943TIP3   OH229771   4.256   6.648   6.603
 9943TIP3    H129772   4.199   6.725   6.611
 9943TIP3    H229773   4.216   6.596   6.533
 9944TIP3   OH229774   2.163   6.350   5.732
 9944TIP3    H129775   2.235   6.291   5.711
 9944TIP3    H229776   2.163   6.355   5.827
 9945TIP3   OH229777   1.498   5.425   5.766
 9945TIP3    H129778   1.571   5.371   5.738
 9945TIP3    H229779   1.428   5.407   5.704
 9946TIP3   OH229780   1.796   2.521   4.190
 9946TIP3    H129781   1.783   2.523   4.095
 9946TIP3    H229782   1.890   2.507   4.201
 9947TIP3   OH229783   5.520   4.196   2.630
 9947TIP3    H129784   5.444   4.160   2.677
 9947TIP3    H229785   5.505   4.170   2.539
 9948TIP3   OH229786   6.688   3.302   1.379
 9948TIP3    H129787   6.673   3.354   1.300
 9948TIP3    H229788   6.603   3.300   1.423
 9949TIP3   OH229789   2.382   6.746   4.082
 9949TIP3    H129790   2.432   6.712   4.008
 9949TIP3    H229791   2.371   6.670   4.140
 9950TIP3   OH229792   1.655   1.329   3.339
 9950TIP3    H129793   1.706   1.376   3.273
 9950TIP3    H229794   1.667   1.236   3.316
 9951TIP3   OH229795   2.059   0.027   5.215
 9951TIP3    H129796   2.002   0.002   5.143
 9951TIP3    H229797   2.000   0.040   5.289
 9952TIP3   OH229798   0.704   0.101   2.742
 9952TIP3    H129799   0.742   0.116   2.655
 9952TIP3    H229800   0.752   0.160   2.800
 9953TIP3   OH229801   5.115   3.531   3.900
 9953TIP3    H129802   5.097   3.573   3.985
 9953TIP3    H229803   5.148   3.602   3.845
 9954TIP3   OH229804   7.081   4.700   2.496
 9954TIP3    H129805   7.116   4.786   2.472
 9954TIP3    H229806   6.988   4.716   2.514
 9955TIP3   OH229807   7.225   2.314   3.893
 9955TIP3    H129808   7.176   2.293   3.813
 9955TIP3    H229809   7.313   2.281   3.876
 9956TIP3   OH229810   0.579   1.974   5.880
 9956TIP3    H129811   0.610   1.896   5.834
 9956TIP3    H229812   0.484   1.968   5.876
 9957TIP3   OH229813   2.982   2.199   1.746
 9957TIP3    H129814   3.021   2.170   1.829
 9957TIP3    H229815   2.949   2.119   1.705
 9958TIP3   OH229816   4.733   5.984   5.775
 9958TIP3    H129817   4.725   5.982   5.870
 9958TIP3    H229818   4.818   5.944   5.757
 9959TIP3   OH229819   7.407   7.395   1.781
 9959TIP3    H129820   7.467   7.395   1.856
 9959TIP3    H229821   7.344   7.326   1.801
 9960TIP3   OH229822   4.146   4.843   0.513
 9960TIP3    H129823   4.161   4.851   0.607
 9960TIP3    H229824   4.222   4.795   0.481
 9961TIP3   OH229825   0.360   5.872   4.362
 9961TIP3    H129826   0.335   5.961   4.384
 9961TIP3    H229827   0.325   5.819   4.433
 9962TIP3   OH229828   2.972   4.765   5.611
 9962TIP3    H129829   2.992   4.759   5.518
 9962TIP3    H229830   3.051   4.732   5.654
 9963TIP3   OH229831   3.080   6.201   1.804
 9963TIP3    H129832   3.016   6.137   1.836
 9963TIP3    H229833   3.135   6.219   1.880
 9964TIP3   OH229834   0.275   1.609   2.405
 9964TIP3    H129835   0.237   1.658   2.332
 9964TIP3    H229836   0.325   1.675   2.454
 9965TIP3   OH229837   1.105   2.435   3.903
 9965TIP3    H129838   1.148   2.500   3.959
 9965TIP3    H229839   1.118   2.352   3.949
 9966TIP3   OH229840   6.497   2.508   1.278
 9966TIP3    H129841   6.410   2.509   1.238
 9966TIP3    H229842   6.545   2.441   1.230
 9967TIP3   OH229843   1.574   0.278   6.775
 9967TIP3    H129844   1.656   0.240   6.807
 9967TIP3    H229845   1.562   0.240   6.688
 9968TIP3   OH229846   6.090   1.359   1.640
 9968TIP3    H129847   6.078   1.314   1.557
 9968TIP3    H229848   6.015   1.418   1.647
 9969TIP3   OH229849   3.721   7.400   2.856
 9969TIP3    H129850   3.643   7.440   2.816
 9969TIP3    H229851   3.774   7.372   2.782
 9970TIP3   OH229852   6.136   3.526   4.539
 9970TIP3    H129853   6.152   3.616   4.567
 9970TIP3    H229854   6.041   3.522   4.525
 9971TIP3   OH229855   0.201   7.067   4.073
 9971TIP3    H129856   0.160   7.096   4.154
 9971TIP3    H229857   0.146   7.104   4.004
 9972TIP3   OH229858   6.087   0.740   0.374
 9972TIP3    H129859   6.101   0.647   0.359
 9972TIP3    H229860   5.993   0.748   0.390
 9973TIP3   OH229861   3.457   1.539   0.115
 9973TIP3    H129862   3.383   1.561   0.058
 9973TIP3    H229863   3.470   1.617   0.169
 9974TIP3   OH229864   5.994   2.292   0.369
 9974TIP3    H129865   6.007   2.271   0.277
 9974TIP3    H229866   5.900   2.286   0.382
 9975TIP3   OH229867   1.266   0.572   1.395
 9975TIP3    H129868   1.245   0.478   1.397
 9975TIP3    H229869   1.353   0.578   1.432
 9976TIP3   OH229870   2.593   0.951   0.796
 9976TIP3    H129871   2.613   0.901   0.717
 9976TIP3    H229872   2.595   1.043   0.768
 9977TIP3   OH229873   0.954   3.360   4.648
 9977TIP3    H129874   0.939   3.266   4.645
 9977TIP3    H229875   1.031   3.374   4.594
 9978TIP3   OH229876   2.161   6.160   1.767
 9978TIP3    H129877   2.125   6.238   1.725
 9978TIP3    H229878   2.126   6.161   1.856
 9979TIP3   OH229879   3.715   1.843   1.370
 9979TIP3    H129880   3.754   1.930   1.373
 9979TIP3    H229881   3.747   1.805   1.288
 9980TIP3   OH229882   1.850   2.147   2.351
 9980TIP3    H129883   1.788   2.209   2.314
 9980TIP3    H229884   1.868   2.180   2.439
 9981TIP3   OH229885   1.098   3.225   2.316
 9981TIP3    H129886   1.111   3.174   2.237
 9981TIP3    H229887   1.169   3.199   2.374
 9982TIP3   OH229888   6.870   4.402   3.881
 9982TIP3    H129889   6.898   4.312   3.867
 9982TIP3    H229890   6.889   4.446   3.798
 9983TIP3   OH229891   7.700   7.397   6.735
 9983TIP3    H129892   7.701   7.368   6.826
 9983TIP3    H229893   7.785   7.438   6.722
 9984TIP3   OH229894   1.533   3.049   2.099
 9984TIP3    H129895   1.459   2.995   2.071
 9984TIP3    H229896   1.610   3.000   2.069
 9985TIP3   OH229897   8.236   1.543   0.074
 9985TIP3    H129898   8.240   1.474   0.139
 9985TIP3    H229899   8.144   1.544   0.046
 9986TIP3   OH229900   3.117   1.538   4.310
 9986TIP3    H129901   3.174   1.615   4.304
 9986TIP3    H229902   3.032   1.569   4.277
 9987TIP3   OH229903   0.314   7.521   1.175
 9987TIP3    H129904   0.296   7.486   1.262
 9987TIP3    H229905   0.272   7.460   1.115
 9988TIP3   OH229906   4.990   1.970   5.124
 9988TIP3    H129907   5.022   1.902   5.183
 9988TIP3    H229908   4.903   1.940   5.098
 9989TIP3   OH229909   7.943   5.208   0.992
 9989TIP3    H129910   8.024   5.238   1.034
 9989TIP3    H229911   7.969   5.130   0.942
 9990TIP3   OH229912   2.486   2.273   5.187
 9990TIP3    H129913   2.532   2.189   5.188
 9990TIP3    H229914   2.553   2.338   5.207
 9991TIP3   OH229915   2.009   0.041   3.430
 9991TIP3    H129916   2.003   0.118   3.486
 9991TIP3    H229917   2.010  -0.033   3.491
 9992TIP3   OH229918   7.612   0.355   5.478
 9992TIP3    H129919   7.585   0.403   5.556
 9992TIP3    H229920   7.535   0.357   5.421
 9993TIP3   OH229921   6.235   0.323   3.746
 9993TIP3    H129922   6.205   0.305   3.657
 9993TIP3    H229923   6.314   0.270   3.755
 9994TIP3   OH229924   0.433   2.507   3.941
 9994TIP3    H129925   0.515   2.466   3.914
 9994TIP3    H229926   0.399   2.547   3.861
 9995TIP3   OH229927   6.956   4.772   0.313
 9995TIP3    H129928   6.905   4.691   0.316
 9995TIP3    H229929   6.891   4.842   0.314
 9996TIP3   OH229930   6.829   1.904   3.688
 9996TIP3    H129931   6.888   1.829   3.684
 9996TIP3    H229932   6.754   1.879   3.634
 9997TIP3   OH229933   7.133   4.253   1.542
 9997TIP3    H129934   7.154   4.314   1.472
 9997TIP3    H229935   7.080   4.303   1.603
 9998TIP3   OH229936   1.411   6.325   3.809
 9998TIP3    H129937   1.426   6.238   3.770
 9998TIP3    H229938   1.432   6.386   3.739
 9999TIP3   OH229939   3.324   3.390   4.768
 9999TIP3    H129940   3.398   3.447   4.788
 9999TIP3    H229941   3.253   3.424   4.823
10000TIP3   OH229942   3.025   3.940   2.909
10000TIP3    H129943   3.034   4.012   2.846
10000TIP3    H229944   2.942   3.899   2.888
10001TIP3   OH229945   6.889   0.053   3.093
10001TIP3    H129946   6.975   0.047   3.051
10001TIP3    H229947   6.904   0.024   3.183
10002TIP3   OH229948   5.480   0.955   5.507
10002TIP3    H129949   5.496   0.886   5.443
10002TIP3    H229950   5.562   1.003   5.512
10003TIP3   OH229951   7.961   1.000   4.346
10003TIP3    H129952   7.907   0.921   4.339
10003TIP3    H229953   8.013   0.986   4.425
10004TIP3   OH229954   2.600   7.594   2.863
10004TIP3    H129955   2.692   7.616   2.879
10004TIP3    H229956   2.581   7.525   2.925
10005TIP3   OH229957   3.058   4.354   2.085
10005TIP3    H129958   3.109   4.412   2.141
10005TIP3    H229959   3.104   4.353   2.001
10006TIP3   OH229960   5.024   1.762   0.034
10006TIP3    H129961   5.057   1.725   0.116
10006TIP3    H229962   4.929   1.759   0.043
10007TIP3   OH229963   1.189   5.924   0.235
10007TIP3    H129964   1.206   5.886   0.321
10007TIP3    H229965   1.097   5.950   0.237
10008TIP3   OH229966   5.813   7.756   2.019
10008TIP3    H129967   5.802   7.662   2.005
10008TIP3    H229968   5.754   7.777   2.091
10009TIP3   OH229969   1.378   4.362   0.677
10009TIP3    H129970   1.435   4.424   0.724
10009TIP3    H229971   1.411   4.362   0.588
10010TIP3   OH229972   3.716   0.847   2.211
10010TIP3    H129973   3.725   0.757   2.181
10010TIP3    H229974   3.715   0.899   2.131
10011TIP3   OH229975   4.419   1.811   1.402
10011TIP3    H129976   4.374   1.730   1.423
10011TIP3    H229977   4.437   1.806   1.308
10012TIP3   OH229978   3.388   1.272   2.665
10012TIP3    H129979   3.310   1.267   2.609
10012TIP3    H229980   3.440   1.195   2.640
10013TIP3   OH229981   2.604   2.523   4.547
10013TIP3    H129982   2.600   2.443   4.599
10013TIP3    H229983   2.692   2.557   4.561
10014TIP3   OH229984   6.061   2.368   5.608
10014TIP3    H129985   6.074   2.294   5.550
10014TIP3    H229986   6.100   2.341   5.691
10015TIP3   OH229987   0.393   5.349   5.058
10015TIP3    H129988   0.449   5.426   5.045
10015TIP3    H229989   0.422   5.287   4.991
10016TIP3   OH229990   0.530   0.162   1.757
10016TIP3    H129991   0.533   0.066   1.757
10016TIP3    H229992   0.596   0.187   1.692
10017TIP3   OH229993   2.169   0.923   4.528
10017TIP3    H129994   2.197   0.977   4.601
10017TIP3    H229995   2.106   0.862   4.566
10018TIP3   OH229996   0.360   5.376   3.487
10018TIP3    H129997   0.428   5.439   3.512
10018TIP3    H229998   0.363   5.374   3.391
10019TIP3   OH229999   2.547   4.162   0.259
10019TIP3    H130000   2.464   4.134   0.297
10019TIP3    H230001   2.530   4.168   0.165
10020TIP3   OH230002   6.397   3.242   5.194
10020TIP3    H130003   6.468   3.257   5.256
10020TIP3    H230004   6.318   3.270   5.241
10021TIP3   OH230005   1.649   1.821   2.096
10021TIP3    H130006   1.661   1.915   2.083
10021TIP3    H230007   1.705   1.799   2.170
10022TIP3   OH230008   2.022   1.116   5.298
10022TIP3    H130009   1.999   1.108   5.206
10022TIP3    H230010   2.117   1.128   5.298
10023TIP3   OH230011   7.359   7.481   2.811
10023TIP3    H130012   7.315   7.410   2.858
10023TIP3    H230013   7.339   7.560   2.862
10024TIP3   OH230014   3.070   5.467   1.529
10024TIP3    H130015   3.071   5.391   1.470
10024TIP3    H230016   2.998   5.449   1.589
10025TIP3   OH230017   5.834   2.073   6.122
10025TIP3    H130018   5.925   2.085   6.151
10025TIP3    H230019   5.783   2.128   6.181
10026TIP3   OH230020   4.764   5.206   4.265
10026TIP3    H130021   4.817   5.223   4.187
10026TIP3    H230022   4.716   5.126   4.244
10027TIP3   OH230023   3.284   2.452   0.914
10027TIP3    H130024   3.306   2.430   0.823
10027TIP3    H230025   3.348   2.519   0.938
10028TIP3   OH230026   0.574   4.251   4.097
10028TIP3    H130027   0.625   4.321   4.137
10028TIP3    H230028   0.636   4.178   4.089
10029TIP3   OH230029   6.300   2.334   2.442
10029TIP3    H130030   6.309   2.313   2.535
10029TIP3    H230031   6.379   2.300   2.401
10030TIP3   OH230032   1.582   3.413   2.991
10030TIP3    H130033   1.660   3.446   3.036
10030TIP3    H230034   1.593   3.442   2.901
10031TIP3   OH230035   2.797   2.184   2.310
10031TIP3    H130036   2.710   2.204   2.346
10031TIP3    H230037   2.788   2.096   2.273
10032TIP3   OH230038   3.353   2.282   1.127
10032TIP3    H130039   3.280   2.307   1.184
10032TIP3    H230040   3.331   2.320   1.042
10033TIP3   OH230041   6.291   3.058   1.497
10033TIP3    H130042   6.368   3.064   1.555
10033TIP3    H230043   6.217   3.055   1.557
10034TIP3   OH230044   0.526   2.351   5.807
10034TIP3    H130045   0.597   2.293   5.834
10034TIP3    H230046   0.453   2.330   5.867
10035TIP3   OH230047   4.828   6.256   1.597
10035TIP3    H130048   4.774   6.196   1.649
10035TIP3    H230049   4.909   6.208   1.581
10036TIP3   OH230050   5.797   1.322   4.288
10036TIP3    H130051   5.715   1.325   4.337
10036TIP3    H230052   5.776   1.358   4.202
10037TIP3   OH230053   6.799   2.437   4.212
10037TIP3    H130054   6.713   2.444   4.170
10037TIP3    H230055   6.793   2.356   4.264
10038TIP3   OH230056   5.627   6.650   1.592
10038TIP3    H130057   5.591   6.672   1.506
10038TIP3    H230058   5.714   6.615   1.573
10039TIP3   OH230059   6.135   1.220   0.442
10039TIP3    H130060   6.135   1.132   0.478
10039TIP3    H230061   6.228   1.243   0.434
10040TIP3   OH230062   7.813   4.505   0.119
10040TIP3    H130063   7.908   4.507   0.104
10040TIP3    H230064   7.781   4.437   0.060
10041TIP3   OH230065   2.702   5.204   5.049
10041TIP3    H130066   2.612   5.234   5.037
10041TIP3    H230067   2.705   5.118   5.009
10042TIP3   OH230068   0.251   6.363   0.165
10042TIP3    H130069   0.323   6.421   0.188
10042TIP3    H230070   0.270   6.335   0.075
10043TIP3   OH230071   6.728   6.403   3.842
10043TIP3    H130072   6.711   6.418   3.935
10043TIP3    H230073   6.655   6.347   3.813
10044TIP3   OH230074   2.085   1.642   2.964
10044TIP3    H130075   2.118   1.672   2.879
10044TIP3    H230076   2.133   1.694   3.028
10045TIP3   OH230077   0.724   2.570   0.074
10045TIP3    H130078   0.814   2.589   0.050
10045TIP3    H230079   0.696   2.502   0.012
10046TIP3   OH230080   7.457   6.383   5.878
10046TIP3    H130081   7.527   6.326   5.847
10046TIP3    H230082   7.400   6.395   5.801
10047TIP3   OH230083   5.662   6.293   2.166
10047TIP3    H130084   5.697   6.291   2.255
10047TIP3    H230085   5.732   6.329   2.113
10048TIP3   OH230086   1.057   6.461   4.445
10048TIP3    H130087   1.039   6.389   4.384
10048TIP3    H230088   1.010   6.535   4.409
10049TIP3   OH230089   4.764   0.166   3.509
10049TIP3    H130090   4.809   0.239   3.552
10049TIP3    H230091   4.727   0.115   3.582
10050TIP3   OH230092   2.595   6.194   3.750
10050TIP3    H130093   2.560   6.283   3.752
10050TIP3    H230094   2.681   6.203   3.710
10051TIP3   OH230095   8.242   1.521   4.180
10051TIP3    H130096   8.246   1.550   4.271
10051TIP3    H230097   8.170   1.457   4.178
10052TIP3   OH230098   4.311   5.803   2.390
10052TIP3    H130099   4.248   5.740   2.355
10052TIP3    H230100   4.365   5.751   2.451
10053TIP3   OH230101   1.295   4.771   5.021
10053TIP3    H130102   1.334   4.749   5.106
10053TIP3    H230103   1.236   4.698   5.002
10054TIP3   OH230104   6.690   3.959   5.848
10054TIP3    H130105   6.681   3.912   5.765
10054TIP3    H230106   6.777   3.935   5.880
10055TIP3   OH230107   8.128   3.058   5.330
10055TIP3    H130108   8.043   3.025   5.300
10055TIP3    H230109   8.122   3.153   5.315
10056TIP3   OH230110   6.544   6.661   5.998
10056TIP3    H130111   6.603   6.625   6.064
10056TIP3    H230112   6.573   6.621   5.916
10057TIP3   OH230113   3.109   7.127   2.531
10057TIP3    H130114   3.049   7.200   2.520
10057TIP3    H230115   3.196   7.167   2.531
10058TIP3   OH230116   6.269   3.109   6.398
10058TIP3    H130117   6.295   3.021   6.423
10058TIP3    H230118   6.294   3.163   6.474
10059TIP3   OH230119   8.280   4.528   1.957
10059TIP3    H130120   8.298   4.473   2.034
10059TIP3    H230121   8.242   4.608   1.994
10060TIP3   OH230122   7.931   0.545   5.215
10060TIP3    H130123   8.025   0.543   5.198
10060TIP3    H230124   7.913   0.462   5.259
10061TIP3   OH230125   7.456   5.930   0.568
10061TIP3    H130126   7.436   6.022   0.551
10061TIP3    H230127   7.455   5.922   0.663
10062TIP3   OH230128   3.330   3.806   3.314
10062TIP3    H130129   3.383   3.883   3.335
10062TIP3    H230130   3.245   3.841   3.287
10063TIP3   OH230131   3.050   3.547   4.654
10063TIP3    H130132   3.059   3.452   4.645
10063TIP3    H230133   3.076   3.566   4.744
10064TIP3   OH230134   2.599   0.885   5.723
10064TIP3    H130135   2.533   0.948   5.750
10064TIP3    H230136   2.597   0.887   5.627
10065TIP3   OH230137   0.738   7.423   1.463
10065TIP3    H130138   0.763   7.484   1.533
10065TIP3    H230139   0.781   7.456   1.385
10066TIP3   OH230140   6.980   4.737   4.258
10066TIP3    H130141   7.054   4.691   4.219
10066TIP3    H230142   7.019   4.796   4.323
10067TIP3   OH230143   0.408   1.071   2.401
10067TIP3    H130144   0.460   0.997   2.434
10067TIP3    H230145   0.473   1.137   2.377
10068TIP3   OH230146   5.044   5.849   4.609
10068TIP3    H130147   5.039   5.827   4.516
10068TIP3    H230148   4.975   5.914   4.622
10069TIP3   OH230149   4.177   1.135   0.215
10069TIP3    H130150   4.255   1.136   0.161
10069TIP3    H230151   4.121   1.069   0.175
10070TIP3   OH230152   2.596   1.906   5.741
10070TIP3    H130153   2.640   1.989   5.726
10070TIP3    H230154   2.644   1.843   5.687
10071TIP3   OH230155   2.719   6.956   2.429
10071TIP3    H130156   2.747   6.911   2.349
10071TIP3    H230157   2.659   7.024   2.399
10072TIP3   OH230158   7.158   3.860   3.270
10072TIP3    H130159   7.186   3.771   3.288
10072TIP3    H230160   7.176   3.873   3.177
10073TIP3   OH230161   0.583   3.688   3.655
10073TIP3    H130162   0.637   3.767   3.645
10073TIP3    H230163   0.641   3.624   3.696
10074TIP3   OH230164   1.803   5.705   4.460
10074TIP3    H130165   1.871   5.724   4.525
10074TIP3    H230166   1.765   5.622   4.489
10075TIP3   OH230167   3.920   1.559   4.575
10075TIP3    H130168   3.842   1.600   4.611
10075TIP3    H230169   3.926   1.593   4.486
10076TIP3   OH230170   1.028   3.201   5.964
10076TIP3    H130171   1.010   3.174   6.054
10076TIP3    H230172   1.061   3.122   5.921
10077TIP3   OH230173   7.227   1.228   2.767
10077TIP3    H130174   7.163   1.265   2.706
10077TIP3    H230175   7.299   1.290   2.766
10078TIP3   OH230176   7.735   4.576   3.027
10078TIP3    H130177   7.802   4.593   2.961
10078TIP3    H230178   7.783   4.539   3.101
10079TIP3   OH230179   0.743   5.420   5.786
10079TIP3    H130180   0.815   5.416   5.850
10079TIP3    H230181   0.779   5.473   5.714
10080TIP3   OH230182   3.710   5.203   3.646
10080TIP3    H130183   3.637   5.260   3.673
10080TIP3    H230184   3.674   5.149   3.576
10081TIP3   OH230185   4.129   4.574   3.039
10081TIP3    H130186   4.134   4.506   2.972
10081TIP3    H230187   4.036   4.587   3.053
10082TIP3   OH230188   4.687   1.859   1.452
10082TIP3    H130189   4.594   1.852   1.432
10082TIP3    H230190   4.691   1.911   1.532
10083TIP3   OH230191   1.841   3.503   4.712
10083TIP3    H130192   1.904   3.561   4.755
10083TIP3    H230193   1.882   3.481   4.629
10084TIP3   OH230194   4.938   4.645   1.087
10084TIP3    H130195   4.904   4.733   1.106
10084TIP3    H230196   5.031   4.659   1.070
10085TIP3   OH230197   5.622   6.533  -0.008
10085TIP3    H130198   5.686   6.519   0.061
10085TIP3    H230199   5.651   6.614  -0.051
10086TIP3   OH230200   8.169   1.615   3.129
10086TIP3    H130201   8.237   1.682   3.136
10086TIP3    H230202   8.171   1.588   3.037
10087TIP3   OH230203   6.061   4.811   0.399
10087TIP3    H130204   6.002   4.738   0.419
10087TIP3    H230205   6.128   4.772   0.343
10088TIP3   OH230206   3.001   3.267   4.885
10088TIP3    H130207   2.909   3.283   4.907
10088TIP3    H230208   3.051   3.317   4.949
10089TIP3   OH230209   3.599   4.117   6.524
10089TIP3    H130210   3.605   4.196   6.578
10089TIP3    H230211   3.540   4.059   6.571
10090TIP3   OH230212   6.104   0.078   3.107
10090TIP3    H130213   6.128   0.120   3.024
10090TIP3    H230214   6.187   0.056   3.148
10091TIP3   OH230215   7.790   0.882   0.455
10091TIP3    H130216   7.745   0.966   0.465
10091TIP3    H230217   7.881   0.906   0.438
10092TIP3   OH230218   7.055   4.720   3.286
10092TIP3    H130219   7.047   4.811   3.257
10092TIP3    H230220   6.983   4.708   3.348
10093TIP3   OH230221   1.527   0.408   4.309
10093TIP3    H130222   1.603   0.457   4.340
10093TIP3    H230223   1.517   0.435   4.218
10094TIP3   OH230224   3.067   4.988   0.268
10094TIP3    H130225   3.015   5.042   0.209
10094TIP3    H230226   3.145   4.965   0.217
10095TIP3   OH230227   1.448   5.265   4.829
10095TIP3    H130228   1.427   5.177   4.860
10095TIP3    H230229   1.512   5.252   4.760
10096TIP3   OH230230   5.206   2.352   3.713
10096TIP3    H130231   5.235   2.269   3.752
10096TIP3    H230232   5.124   2.329   3.669
10097TIP3   OH230233   2.618   7.089   2.904
10097TIP3    H130234   2.621   6.994   2.892
10097TIP3    H230235   2.530   7.106   2.938
10098TIP3   OH230236   2.261   6.690   2.540
10098TIP3    H130237   2.282   6.714   2.449
10098TIP3    H230238   2.207   6.612   2.532
10099TIP3   OH230239   2.868   3.906   0.012
10099TIP3    H130240   2.792   3.852   0.034
10099TIP3    H230241   2.936   3.875   0.072
10100TIP3   OH230242   5.418   1.160   1.716
10100TIP3    H130243   5.363   1.238   1.719
10100TIP3    H230244   5.377   1.105   1.650
10101TIP3   OH230245   0.231   2.373   1.959
10101TIP3    H130246   0.315   2.327   1.964
10101TIP3    H230247   0.239   2.427   1.881
10102TIP3   OH230248   6.151   5.667   0.965
10102TIP3    H130249   6.185   5.653   0.876
10102TIP3    H230250   6.093   5.742   0.956
10103TIP3   OH230251   8.130   2.981   4.257
10103TIP3    H130252   8.074   3.036   4.312
10103TIP3    H230253   8.081   2.969   4.176
10104TIP3   OH230254   7.659   1.976   5.914
10104TIP3    H130255   7.666   1.919   5.837
10104TIP3    H230256   7.709   1.931   5.981
10105TIP3   OH230257   0.752   2.499   4.595
10105TIP3    H130258   0.693   2.573   4.580
10105TIP3    H230259   0.816   2.505   4.524
10106TIP3   OH230260   7.676   5.934   0.105
10106TIP3    H130261   7.594   5.983   0.109
10106TIP3    H230262   7.703   5.926   0.197
10107TIP3   OH230263   2.545   4.774   6.624
10107TIP3    H130264   2.519   4.731   6.706
10107TIP3    H230265   2.494   4.855   6.623
10108TIP3   OH230266   0.213   4.920   5.133
10108TIP3    H130267   0.168   4.881   5.208
10108TIP3    H230268   0.219   5.013   5.155
10109TIP3   OH230269   3.597   6.437   4.994
10109TIP3    H130270   3.555   6.351   4.985
10109TIP3    H230271   3.527   6.493   5.027
10110TIP3   OH230272   0.877   7.670   0.658
10110TIP3    H130273   0.908   7.746   0.609
10110TIP3    H230274   0.783   7.686   0.671
10111TIP3   OH230275   1.244   1.472   3.231
10111TIP3    H130276   1.249   1.551   3.176
10111TIP3    H230277   1.243   1.400   3.168
10112TIP3   OH230278   7.300   4.084   3.057
10112TIP3    H130279   7.327   4.082   3.149
10112TIP3    H230280   7.295   4.177   3.036
10113TIP3   OH230281   6.001   3.069   3.838
10113TIP3    H130282   5.963   2.991   3.877
10113TIP3    H230283   6.076   3.037   3.788
10114TIP3   OH230284   8.220   6.047   2.481
10114TIP3    H130285   8.128   6.021   2.478
10114TIP3    H230286   8.224   6.115   2.549
10115TIP3   OH230287   2.544   0.227   2.501
10115TIP3    H130288   2.551   0.312   2.460
10115TIP3    H230289   2.469   0.186   2.458
10116TIP3   OH230290   1.107   3.631   1.876
10116TIP3    H130291   1.040   3.585   1.827
10116TIP3    H230292   1.160   3.562   1.916
10117TIP3   OH230293   8.278   0.087   3.245
10117TIP3    H130294   8.357   0.111   3.197
10117TIP3    H230295   8.208   0.092   3.180
10118TIP3   OH230296   3.027   2.498   6.383
10118TIP3    H130297   2.939   2.460   6.392
10118TIP3    H230298   3.067   2.449   6.311
10119TIP3   OH230299   3.450   2.347   6.327
10119TIP3    H130300   3.520   2.390   6.376
10119TIP3    H230301   3.440   2.262   6.369
10120TIP3   OH230302   5.505   4.343   3.454
10120TIP3    H130303   5.432   4.404   3.440
10120TIP3    H230304   5.564   4.390   3.512
10121TIP3   OH230305   0.524   4.907   5.055
10121TIP3    H130306   0.468   4.852   5.110
10121TIP3    H230307   0.554   4.976   5.114
10122TIP3   OH230308   1.983   5.758   1.357
10122TIP3    H130309   1.927   5.753   1.435
10122TIP3    H230310   2.030   5.674   1.356
10123TIP3   OH230311   6.537   5.945   5.843
10123TIP3    H130312   6.572   5.873   5.895
10123TIP3    H230313   6.497   5.903   5.767
10124TIP3   OH230314   5.657   7.498   3.249
10124TIP3    H130315   5.641   7.408   3.277
10124TIP3    H230316   5.660   7.492   3.153
10125TIP3   OH230317   5.352   7.120   6.184
10125TIP3    H130318   5.374   7.057   6.115
10125TIP3    H230319   5.347   7.067   6.264
10126TIP3   OH230320   6.216   5.028   3.407
10126TIP3    H130321   6.165   4.984   3.339
10126TIP3    H230322   6.150   5.071   3.463
10127TIP3   OH230323   4.130   0.612   3.368
10127TIP3    H130324   4.214   0.649   3.396
10127TIP3    H230325   4.152   0.560   3.291
10128TIP3   OH230326   5.968   4.821   1.447
10128TIP3    H130327   5.959   4.915   1.434
10128TIP3    H230328   5.878   4.788   1.452
10129TIP3   OH230329   8.223   7.445   5.228
10129TIP3    H130330   8.128   7.443   5.239
10129TIP3    H230331   8.253   7.511   5.290
10130TIP3   OH230332   7.925   3.048   1.835
10130TIP3    H130333   7.949   3.020   1.923
10130TIP3    H230334   8.006   3.081   1.797
10131TIP3   OH230335   2.662   7.287   6.720
10131TIP3    H130336   2.697   7.263   6.805
10131TIP3    H230337   2.737   7.319   6.670
10132TIP3   OH230338   2.958   6.461   0.098
10132TIP3    H130339   2.887   6.466   0.033
10132TIP3    H230340   2.970   6.551   0.128
10133TIP3   OH230341   6.634   0.867   3.118
10133TIP3    H130342   6.705   0.822   3.073
10133TIP3    H230343   6.555   0.839   3.072
10134TIP3   OH230344   7.525   3.545   6.198
10134TIP3    H130345   7.564   3.499   6.124
10134TIP3    H230346   7.586   3.529   6.270
10135TIP3   OH230347   5.790   4.921   4.995
10135TIP3    H130348   5.732   4.905   5.070
10135TIP3    H230349   5.856   4.852   5.002
10136TIP3   OH230350   8.025   4.776   4.282
10136TIP3    H130351   8.099   4.715   4.289
10136TIP3    H230352   8.062   4.855   4.243
10137TIP3   OH230353   0.179   3.348   2.672
10137TIP3    H130354   0.266   3.376   2.700
10137TIP3    H230355   0.194   3.299   2.591
10138TIP3   OH230356   2.081   4.860   6.238
10138TIP3    H130357   2.031   4.938   6.261
10138TIP3    H230358   2.168   4.876   6.275
10139TIP3   OH230359   0.884   4.504   4.421
10139TIP3    H130360   0.946   4.434   4.438
10139TIP3    H230361   0.869   4.545   4.506
10140TIP3   OH230362   6.657   1.982   2.828
10140TIP3    H130363   6.726   1.939   2.878
10140TIP3    H230364   6.694   1.993   2.740
10141TIP3   OH230365   4.068   5.227   2.820
10141TIP3    H130366   4.122   5.302   2.845
10141TIP3    H230367   3.978   5.255   2.837
10142TIP3   OH230368   4.761   1.166   0.769
10142TIP3    H130369   4.802   1.153   0.855
10142TIP3    H230370   4.833   1.193   0.713
10143TIP3   OH230371   7.184   7.677   4.201
10143TIP3    H130372   7.166   7.723   4.283
10143TIP3    H230373   7.147   7.733   4.133
10144TIP3   OH230374   4.554   7.652   1.920
10144TIP3    H130375   4.595   7.691   1.843
10144TIP3    H230376   4.561   7.557   1.905
10145TIP3   OH230377   4.409   7.698   6.742
10145TIP3    H130378   4.474   7.746   6.691
10145TIP3    H230379   4.334   7.688   6.683
10146TIP3   OH230380   6.864   7.416   1.822
10146TIP3    H130381   6.822   7.392   1.905
10146TIP3    H230382   6.949   7.451   1.848
10147TIP3   OH230383   4.853   3.737   1.574
10147TIP3    H130384   4.764   3.757   1.604
10147TIP3    H230385   4.846   3.648   1.538
10148TIP3   OH230386   3.226   2.966   3.128
10148TIP3    H130387   3.137   2.995   3.104
10148TIP3    H230388   3.284   3.028   3.084
10149TIP3   OH230389   3.594   5.158   0.412
10149TIP3    H130390   3.603   5.158   0.317
10149TIP3    H230391   3.679   5.126   0.444
10150TIP3   OH230392   8.030   5.015   0.828
10150TIP3    H130393   8.094   4.948   0.850
10150TIP3    H230394   7.984   4.980   0.752
10151TIP3   OH230395   7.046   1.302   0.992
10151TIP3    H130396   7.060   1.338   0.904
10151TIP3    H230397   6.952   1.282   0.995
10152TIP3   OH230398   2.805   5.309   3.450
10152TIP3    H130399   2.809   5.348   3.362
10152TIP3    H230400   2.716   5.326   3.480
10153TIP3   OH230401   1.564   3.751   0.216
10153TIP3    H130402   1.591   3.789   0.133
10153TIP3    H230403   1.536   3.662   0.193
10154TIP3   OH230404   4.082   2.373   4.620
10154TIP3    H130405   4.033   2.456   4.623
10154TIP3    H230406   4.103   2.355   4.712
10155TIP3   OH230407   6.650   4.365   5.142
10155TIP3    H130408   6.589   4.419   5.192
10155TIP3    H230409   6.607   4.279   5.138
10156TIP3   OH230410   4.444   4.603   2.513
10156TIP3    H130411   4.355   4.585   2.542
10156TIP3    H230412   4.500   4.553   2.572
10157TIP3   OH230413   6.201   6.945   2.697
10157TIP3    H130414   6.130   6.989   2.650
10157TIP3    H230415   6.266   6.926   2.629
10158TIP3   OH230416   2.904   0.907   1.968
10158TIP3    H130417   2.862   0.940   2.048
10158TIP3    H230418   2.850   0.833   1.942
10159TIP3   OH230419   6.946   0.028   3.631
10159TIP3    H130420   6.973  -0.008   3.715
10159TIP3    H230421   7.021   0.015   3.573
10160TIP3   OH230422   4.877   7.499   4.999
10160TIP3    H130423   4.848   7.432   4.937
10160TIP3    H230424   4.893   7.577   4.945
10161TIP3   OH230425   3.148   7.033   5.434
10161TIP3    H130426   3.128   7.103   5.497
10161TIP3    H230427   3.175   7.079   5.355
10162TIP3   OH230428   0.364   0.770   2.954
10162TIP3    H130429   0.309   0.848   2.950
10162TIP3    H230430   0.443   0.793   2.905
10163TIP3   OH230431   0.525   1.299   0.648
10163TIP3    H130432   0.450   1.263   0.695
10163TIP3    H230433   0.487   1.369   0.594
10164TIP3   OH230434   3.093   4.434   2.676
10164TIP3    H130435   3.074   4.354   2.626
10164TIP3    H230436   3.007   4.472   2.694
10165TIP3   OH230437   4.744   3.362   2.519
10165TIP3    H130438   4.669   3.421   2.525
10165TIP3    H230439   4.707   3.275   2.531
10166TIP3   OH230440   4.685   4.743   1.885
10166TIP3    H130441   4.699   4.649   1.881
10166TIP3    H230442   4.743   4.773   1.955
10167TIP3   OH230443   0.939   3.758   3.180
10167TIP3    H130444   0.870   3.718   3.127
10167TIP3    H230445   1.020   3.714   3.152
10168TIP3   OH230446   0.921   1.044   5.621
10168TIP3    H130447   0.842   0.998   5.649
10168TIP3    H230448   0.900   1.137   5.633
10169TIP3   OH230449   7.291   6.869   1.295
10169TIP3    H130450   7.258   6.779   1.298
10169TIP3    H230451   7.293   6.897   1.386
10170TIP3   OH230452   2.045   0.673   4.591
10170TIP3    H130453   1.958   0.634   4.591
10170TIP3    H230454   2.104   0.598   4.578
10171TIP3   OH230455   4.250   2.249   0.854
10171TIP3    H130456   4.334   2.271   0.893
10171TIP3    H230457   4.208   2.333   0.837
10172TIP3   OH230458   5.539   3.518   0.131
10172TIP3    H130459   5.587   3.559   0.203
10172TIP3    H230460   5.516   3.431   0.165
10173TIP3   OH230461   7.386   3.215   1.930
10173TIP3    H130462   7.443   3.292   1.918
10173TIP3    H230463   7.432   3.161   1.994
10174TIP3   OH230464   1.262  -0.018   4.112
10174TIP3    H130465   1.185   0.034   4.089
10174TIP3    H230466   1.320   0.044   4.156
10175TIP3   OH230467   0.831   0.581   1.651
10175TIP3    H130468   0.750   0.630   1.665
10175TIP3    H230469   0.810   0.491   1.674
10176TIP3   OH230470   2.208   1.943   6.090
10176TIP3    H130471   2.115   1.950   6.067
10176TIP3    H230472   2.214   1.863   6.141
10177TIP3   OH230473   1.237   1.378   4.512
10177TIP3    H130474   1.230   1.456   4.566
10177TIP3    H230475   1.175   1.316   4.551
10178TIP3   OH230476   1.666   1.421   5.567
10178TIP3    H130477   1.595   1.460   5.515
10178TIP3    H230478   1.744   1.469   5.542
10179TIP3   OH230479   4.885   7.768   6.197
10179TIP3    H130480   4.932   7.812   6.268
10179TIP3    H230481   4.946   7.703   6.163
10180TIP3   OH230482   1.672   0.603   4.858
10180TIP3    H130483   1.707   0.616   4.946
10180TIP3    H230484   1.612   0.676   4.844
10181TIP3   OH230485   6.767   7.269   1.612
10181TIP3    H130486   6.684   7.312   1.630
10181TIP3    H230487   6.821   7.288   1.689
10182TIP3   OH230488   8.179   6.830   1.844
10182TIP3    H130489   8.253   6.794   1.796
10182TIP3    H230490   8.215   6.908   1.887
10183TIP3   OH230491   4.219   4.768   5.842
10183TIP3    H130492   4.142   4.745   5.791
10183TIP3    H230493   4.197   4.745   5.932
10184TIP3   OH230494   7.633   7.115   1.248
10184TIP3    H130495   7.724   7.137   1.232
10184TIP3    H230496   7.584   7.170   1.187
10185TIP3   OH230497   2.939   0.633   4.520
10185TIP3    H130498   3.030   0.661   4.511
10185TIP3    H230499   2.893   0.708   4.558
10186TIP3   OH230500   7.419   4.493   2.074
10186TIP3    H130501   7.454   4.404   2.082
10186TIP3    H230502   7.324   4.481   2.072
10187TIP3   OH230503   7.674   2.696   4.621
10187TIP3    H130504   7.769   2.703   4.623
10187TIP3    H230505   7.654   2.625   4.682
10188TIP3   OH230506   5.568   6.070   6.764
10188TIP3    H130507   5.497   6.021   6.723
10188TIP3    H230508   5.546   6.162   6.748
10189TIP3   OH230509   7.725   3.411   2.590
10189TIP3    H130510   7.741   3.423   2.684
10189TIP3    H230511   7.801   3.451   2.547
10190TIP3   OH230512   7.779   3.849   3.438
10190TIP3    H130513   7.858   3.821   3.485
10190TIP3    H230514   7.707   3.830   3.499
10191TIP3   OH230515   6.190   1.011   5.042
10191TIP3    H130516   6.136   0.947   5.089
10191TIP3    H230517   6.202   1.083   5.104
10192TIP3   OH230518   1.333   6.479   4.241
10192TIP3    H130519   1.366   6.503   4.155
10192TIP3    H230520   1.338   6.560   4.292
10193TIP3   OH230521   6.534   2.936   0.313
10193TIP3    H130522   6.572   3.011   0.359
10193TIP3    H230523   6.561   2.860   0.365
10194TIP3   OH230524   5.090   3.634   4.168
10194TIP3    H130525   5.150   3.697   4.208
10194TIP3    H230526   5.061   3.579   4.240
10195TIP3   OH230527   0.290   7.460   5.168
10195TIP3    H130528   0.365   7.407   5.141
10195TIP3    H230529   0.246   7.482   5.085
10196TIP3   OH230530   1.776   5.401   3.800
10196TIP3    H130531   1.839   5.437   3.738
10196TIP3    H230532   1.823   5.331   3.844
10197TIP3   OH230533   2.443   2.129   0.829
10197TIP3    H130534   2.430   2.199   0.765
10197TIP3    H230535   2.484   2.172   0.904
10198TIP3   OH230536   1.482   0.901   0.401
10198TIP3    H130537   1.494   0.980   0.349
10198TIP3    H230538   1.396   0.868   0.374
10199TIP3   OH230539   2.058   3.912   5.077
10199TIP3    H130540   2.134   3.886   5.130
10199TIP3    H230541   2.084   3.894   4.987
10200TIP3   OH230542   2.450   7.700   0.089
10200TIP3    H130543   2.408   7.785   0.100
10200TIP3    H230544   2.483   7.678   0.176
10201TIP3   OH230545   0.097   7.745   6.502
10201TIP3    H130546   0.080   7.678   6.436
10201TIP3    H230547   0.072   7.704   6.585
10202TIP3   OH230548   4.334   4.084   0.566
10202TIP3    H130549   4.274   4.088   0.641
10202TIP3    H230550   4.276   4.085   0.490
10203TIP3   OH230551   8.052   3.968   2.802
10203TIP3    H130552   8.089   3.910   2.868
10203TIP3    H230553   8.102   4.049   2.810
10204TIP3   OH230554   6.746   4.110   3.887
10204TIP3    H130555   6.758   4.023   3.850
10204TIP3    H230556   6.770   4.101   3.979
10205TIP3   OH230557   0.431   0.581   4.649
10205TIP3    H130558   0.405   0.503   4.698
10205TIP3    H230559   0.508   0.613   4.696
10206TIP3   OH230560   3.148   2.350   4.042
10206TIP3    H130561   3.126   2.259   4.064
10206TIP3    H230562   3.066   2.388   4.012
10207TIP3   OH230563   2.390   2.460   5.900
10207TIP3    H130564   2.472   2.504   5.920
10207TIP3    H230565   2.404   2.422   5.813
10208TIP3   OH230566   3.955   2.315   5.167
10208TIP3    H130567   4.037   2.364   5.171
10208TIP3    H230568   3.887   2.381   5.157
10209TIP3   OH230569   0.042   7.155   2.372
10209TIP3    H130570   0.062   7.065   2.398
10209TIP3    H230571   0.118   7.182   2.320
10210TIP3   OH230572   0.989   6.090   1.718
10210TIP3    H130573   0.917   6.124   1.667
10210TIP3    H230574   1.058   6.156   1.710
10211TIP3   OH230575   0.589   2.195   3.011
10211TIP3    H130576   0.649   2.150   2.951
10211TIP3    H230577   0.507   2.147   3.003
10212TIP3   OH230578   3.013   1.511   1.235
10212TIP3    H130579   3.092   1.457   1.235
10212TIP3    H230580   3.007   1.545   1.145
10213TIP3   OH230581   4.692   1.444   1.139
10213TIP3    H130582   4.680   1.508   1.210
10213TIP3    H230583   4.671   1.360   1.180
10214TIP3   OH230584   2.535   1.202   0.663
10214TIP3    H130585   2.445   1.171   0.654
10214TIP3    H230586   2.527   1.294   0.687
10215TIP3   OH230587   6.170   3.269   5.338
10215TIP3    H130588   6.094   3.273   5.280
10215TIP3    H230589   6.134   3.284   5.426
10216TIP3   OH230590   1.568   1.222   1.298
10216TIP3    H130591   1.589   1.129   1.289
10216TIP3    H230592   1.576   1.239   1.392
10217TIP3   OH230593   0.913   6.535   5.501
10217TIP3    H130594   0.850   6.536   5.573
10217TIP3    H230595   0.909   6.446   5.467
10218TIP3   OH230596   5.435   1.777   2.467
10218TIP3    H130597   5.409   1.858   2.510
10218TIP3    H230598   5.415   1.791   2.375
10219TIP3   OH230599   3.865   1.686   3.638
10219TIP3    H130600   3.907   1.766   3.670
10219TIP3    H230601   3.938   1.629   3.612
10220TIP3   OH230602   2.510   6.525   2.443
10220TIP3    H130603   2.484   6.615   2.426
10220TIP3    H230604   2.504   6.481   2.358
10221TIP3   OH230605   1.350   0.228   4.925
10221TIP3    H130606   1.410   0.257   4.994
10221TIP3    H230607   1.392   0.256   4.843
10222TIP3   OH230608   2.329   2.444   4.777
10222TIP3    H130609   2.317   2.512   4.843
10222TIP3    H230610   2.420   2.418   4.785
10223TIP3   OH230611   7.809   5.016   4.965
10223TIP3    H130612   7.875   4.954   4.935
10223TIP3    H230613   7.768   4.974   5.040
10224TIP3   OH230614   7.685   7.199   4.968
10224TIP3    H130615   7.659   7.264   5.033
10224TIP3    H230616   7.620   7.129   4.977
10225TIP3   OH230617   2.751   2.748   4.722
10225TIP3    H130618   2.837   2.714   4.698
10225TIP3    H230619   2.746   2.833   4.678
10226TIP3   OH230620   3.639   3.854   2.314
10226TIP3    H130621   3.582   3.931   2.304
10226TIP3    H230622   3.587   3.792   2.364
10227TIP3   OH230623  -0.031   5.757   3.319
10227TIP3    H130624   0.003   5.681   3.366
10227TIP3    H230625   0.041   5.820   3.321
10228TIP3   OH230626   3.937   5.935   0.068
10228TIP3    H130627   3.892   5.856   0.098
10228TIP3    H230628   3.988   5.906  -0.008
10229TIP3   OH230629   7.627   1.505   2.924
10229TIP3    H130630   7.695   1.437   2.921
10229TIP3    H230631   7.655   1.564   2.994
10230TIP3   OH230632   4.509   0.953   4.108
10230TIP3    H130633   4.420   0.989   4.105
10230TIP3    H230634   4.513   0.894   4.032
10231TIP3   OH230635   0.107   4.114   2.768
10231TIP3    H130636   0.101   4.028   2.727
10231TIP3    H230637   0.035   4.164   2.730
10232TIP3   OH230638   1.246   6.828   3.543
10232TIP3    H130639   1.318   6.890   3.554
10232TIP3    H230640   1.168   6.877   3.570
10233TIP3   OH230641   2.196   3.151   2.201
10233TIP3    H130642   2.163   3.128   2.288
10233TIP3    H230643   2.234   3.238   2.212
10234TIP3   OH230644   2.648   0.649   6.652
10234TIP3    H130645   2.698   0.609   6.581
10234TIP3    H230646   2.582   0.584   6.675
10235TIP3   OH230647   5.233   6.892   0.938
10235TIP3    H130648   5.262   6.841   0.862
10235TIP3    H230649   5.196   6.827   0.998
10236TIP3   OH230650   1.831   2.952   2.298
10236TIP3    H130651   1.909   2.927   2.249
10236TIP3    H230652   1.841   2.909   2.382
10237TIP3   OH230653   4.418   4.469   1.230
10237TIP3    H130654   4.451   4.558   1.219
10237TIP3    H230655   4.472   4.432   1.299
10238TIP3   OH230656   5.277   0.362   1.715
10238TIP3    H130657   5.204   0.317   1.757
10238TIP3    H230658   5.355   0.321   1.752
10239TIP3   OH230659   5.873   0.156   4.360
10239TIP3    H130660   5.908   0.173   4.447
10239TIP3    H230661   5.950   0.134   4.307
10240TIP3   OH230662   8.258   6.346   6.173
10240TIP3    H130663   8.342   6.326   6.214
10240TIP3    H230664   8.232   6.265   6.130
10241TIP3   OH230665   4.225   4.022   2.828
10241TIP3    H130666   4.136   4.048   2.851
10241TIP3    H230667   4.243   4.068   2.746
10242TIP3   OH230668   7.354   2.007   2.198
10242TIP3    H130669   7.412   2.061   2.145
10242TIP3    H230670   7.284   1.981   2.138
10243TIP3   OH230671   0.179   6.162   1.400
10243TIP3    H130672   0.273   6.146   1.409
10243TIP3    H230673   0.165   6.245   1.445
10244TIP3   OH230674   1.609   6.231   4.018
10244TIP3    H130675   1.602   6.211   4.112
10244TIP3    H230676   1.519   6.226   3.986
10245TIP3   OH230677   2.345   7.411   1.863
10245TIP3    H130678   2.362   7.338   1.803
10245TIP3    H230679   2.354   7.489   1.808
10246TIP3   OH230680   0.710   4.876   5.664
10246TIP3    H130681   0.641   4.897   5.726
10246TIP3    H230682   0.716   4.953   5.607
10247TIP3   OH230683   4.099   1.666   1.908
10247TIP3    H130684   4.160   1.707   1.846
10247TIP3    H230685   4.104   1.720   1.986
10248TIP3   OH230686   1.266   2.883   6.715
10248TIP3    H130687   1.179   2.886   6.755
10248TIP3    H230688   1.261   2.944   6.642
10249TIP3   OH230689   4.374   2.193   2.453
10249TIP3    H130690   4.369   2.113   2.504
10249TIP3    H230691   4.294   2.241   2.474
10250TIP3   OH230692   3.509   2.358   0.320
10250TIP3    H130693   3.466   2.332   0.239
10250TIP3    H230694   3.542   2.275   0.357
10251TIP3   OH230695   2.996   4.624   5.258
10251TIP3    H130696   3.026   4.581   5.177
10251TIP3    H230697   2.970   4.712   5.229
10252TIP3   OH230698   2.780   5.819   2.703
10252TIP3    H130699   2.716   5.753   2.730
10252TIP3    H230700   2.759   5.896   2.758
10253TIP3   OH230701   2.944   7.451   1.809
10253TIP3    H130702   2.856   7.480   1.781
10253TIP3    H230703   2.964   7.378   1.751
10254TIP3   OH230704   6.631   6.174   5.534
10254TIP3    H130705   6.620   6.189   5.628
10254TIP3    H230706   6.582   6.093   5.517
10255TIP3   OH230707   3.376   7.503   0.472
10255TIP3    H130708   3.339   7.583   0.509
10255TIP3    H230709   3.360   7.510   0.378
10256TIP3   OH230710   5.286   7.803   1.003
10256TIP3    H130711   5.211   7.863   0.998
10256TIP3    H230712   5.251   7.724   1.045
10257TIP3   OH230713   0.438   5.308   2.309
10257TIP3    H130714   0.427   5.344   2.397
10257TIP3    H230715   0.353   5.270   2.288
10258TIP3   OH230716   0.536   5.977   4.995
10258TIP3    H130717   0.612   6.026   4.965
10258TIP3    H230718   0.547   5.970   5.090
10259TIP3   OH230719   1.328   0.354   6.552
10259TIP3    H130720   1.393   0.285   6.540
10259TIP3    H230721   1.323   0.399   6.468
10260TIP3   OH230722   2.269   3.443   5.295
10260TIP3    H130723   2.342   3.385   5.272
10260TIP3    H230724   2.271   3.447   5.390
10261TIP3   OH230725   0.500   6.576   1.364
10261TIP3    H130726   0.465   6.648   1.416
10261TIP3    H230727   0.503   6.611   1.275
10262TIP3   OH230728   2.656   0.477   2.103
10262TIP3    H130729   2.642   0.392   2.062
10262TIP3    H230730   2.739   0.508   2.067
10263TIP3   OH230731   4.163   1.139   1.389
10263TIP3    H130732   4.102   1.071   1.361
10263TIP3    H230733   4.233   1.092   1.434
10264TIP3   OH230734   7.631   1.659   2.360
10264TIP3    H130735   7.635   1.673   2.455
10264TIP3    H230736   7.550   1.704   2.333
10265TIP3   OH230737   1.472   2.226   2.655
10265TIP3    H130738   1.506   2.181   2.732
10265TIP3    H230739   1.431   2.157   2.603
10266TIP3   OH230740   5.644   3.718   0.271
10266TIP3    H130741   5.637   3.764   0.355
10266TIP3    H230742   5.736   3.691   0.266
10267TIP3   OH230743   2.945   2.081   0.540
10267TIP3    H130744   3.006   2.146   0.576
10267TIP3    H230745   2.977   2.065   0.451
10268TIP3   OH230746   5.380   6.808   4.369
10268TIP3    H130747   5.410   6.890   4.408
10268TIP3    H230748   5.313   6.775   4.430
10269TIP3   OH230749   0.585   1.295   3.553
10269TIP3    H130750   0.625   1.306   3.467
10269TIP3    H230751   0.659   1.283   3.613
10270TIP3   OH230752   7.787   0.297   5.064
10270TIP3    H130753   7.816   0.309   5.155
10270TIP3    H230754   7.722   0.366   5.051
10271TIP3   OH230755   2.392   0.289   3.515
10271TIP3    H130756   2.343   0.333   3.446
10271TIP3    H230757   2.326   0.261   3.578
10272TIP3   OH230758   4.657   5.091   5.298
10272TIP3    H130759   4.665   5.008   5.251
10272TIP3    H230760   4.668   5.067   5.390
10273TIP3   OH230761   2.590   0.890   6.547
10273TIP3    H130762   2.681   0.917   6.560
10273TIP3    H230763   2.592   0.795   6.558
10274TIP3   OH230764   7.982   1.400   0.030
10274TIP3    H130765   7.907   1.437  -0.015
10274TIP3    H230766   7.953   1.313   0.058
10275TIP3   OH230767   6.471   2.804   0.074
10275TIP3    H130768   6.542   2.856   0.035
10275TIP3    H230769   6.486   2.810   0.168
10276TIP3   OH230770   4.998   6.895   1.219
10276TIP3    H130771   5.052   6.966   1.252
10276TIP3    H230772   4.927   6.938   1.171
10277TIP3   OH230773   2.715   3.816   6.235
10277TIP3    H130774   2.774   3.891   6.224
10277TIP3    H230775   2.628   3.852   6.221
10278TIP3   OH230776   6.331   5.216   1.733
10278TIP3    H130777   6.289   5.131   1.718
10278TIP3    H230778   6.259   5.274   1.756
10279TIP3   OH230779   1.385   7.603   2.659
10279TIP3    H130780   1.358   7.681   2.612
10279TIP3    H230781   1.324   7.535   2.629
10280TIP3   OH230782   4.005   2.656   5.782
10280TIP3    H130783   4.043   2.741   5.760
10280TIP3    H230784   3.911   2.671   5.783
10281TIP3   OH230785   1.865   3.350   3.673
10281TIP3    H130786   1.819   3.274   3.711
10281TIP3    H230787   1.923   3.313   3.608
10282TIP3   OH230788   4.261   1.313   4.251
10282TIP3    H130789   4.204   1.327   4.327
10282TIP3    H230790   4.311   1.234   4.273
10283TIP3   OH230791   0.428   1.649   1.479
10283TIP3    H130792   0.424   1.604   1.394
10283TIP3    H230793   0.422   1.579   1.543
10284TIP3   OH230794   7.413   3.479   4.658
10284TIP3    H130795   7.356   3.485   4.735
10284TIP3    H230796   7.494   3.439   4.691
10285TIP3   OH230797   4.523   5.766   2.786
10285TIP3    H130798   4.432   5.744   2.802
10285TIP3    H230799   4.561   5.777   2.874
10286TIP3   OH230800   2.517   6.445   0.749
10286TIP3    H130801   2.520   6.350   0.746
10286TIP3    H230802   2.448   6.469   0.686
10287TIP3   OH230803   0.674   3.476   0.755
10287TIP3    H130804   0.651   3.479   0.848
10287TIP3    H230805   0.736   3.548   0.744
10288TIP3   OH230806   7.569   3.455   5.751
10288TIP3    H130807   7.624   3.532   5.733
10288TIP3    H230808   7.482   3.491   5.764
10289TIP3   OH230809   3.155   3.362   0.836
10289TIP3    H130810   3.213   3.310   0.780
10289TIP3    H230811   3.071   3.318   0.832
10290TIP3   OH230812   0.321   6.084   0.475
10290TIP3    H130813   0.352   6.103   0.387
10290TIP3    H230814   0.239   6.036   0.461
10291TIP3   OH230815   3.393   6.324   2.391
10291TIP3    H130816   3.298   6.317   2.383
10291TIP3    H230817   3.412   6.302   2.482
10292TIP3   OH230818   0.583   2.490   5.382
10292TIP3    H130819   0.669   2.493   5.423
10292TIP3    H230820   0.562   2.581   5.364
10293TIP3   OH230821   7.357   3.903   4.771
10293TIP3    H130822   7.423   3.967   4.743
10293TIP3    H230823   7.286   3.957   4.807
10294TIP3   OH230824   2.488   7.475   4.464
10294TIP3    H130825   2.518   7.546   4.406
10294TIP3    H230826   2.521   7.395   4.423
10295TIP3   OH230827   4.566   2.842   1.253
10295TIP3    H130828   4.536   2.772   1.310
10295TIP3    H230829   4.501   2.847   1.183
10296TIP3   OH230830   0.654   2.793   0.302
10296TIP3    H130831   0.665   2.705   0.339
10296TIP3    H230832   0.574   2.826   0.343
10297TIP3   OH230833   0.054   7.691   0.844
10297TIP3    H130834   0.048   7.596   0.858
10297TIP3    H230835  -0.036   7.720   0.832
10298TIP3   OH230836   5.288   2.374   6.610
10298TIP3    H130837   5.225   2.303   6.608
10298TIP3    H230838   5.362   2.340   6.661
10299TIP3   OH230839   7.762   1.621   2.086
10299TIP3    H130840   7.678   1.613   2.042
10299TIP3    H230841   7.827   1.607   2.017
10300TIP3   OH230842   3.849   1.823   4.206
10300TIP3    H130843   3.756   1.845   4.220
10300TIP3    H230844   3.888   1.904   4.174
10301TIP3   OH230845   5.528   2.083   2.286
10301TIP3    H130846   5.567   2.006   2.245
10301TIP3    H230847   5.448   2.051   2.328
10302TIP3   OH230848   6.889   5.169   3.757
10302TIP3    H130849   6.880   5.163   3.852
10302TIP3    H230850   6.799   5.177   3.725
10303TIP3   OH230851   7.992   1.400   4.280
10303TIP3    H130852   7.905   1.422   4.313
10303TIP3    H230853   8.047   1.396   4.358
10304TIP3   OH230854   3.568   2.531   1.696
10304TIP3    H130855   3.491   2.587   1.685
10304TIP3    H230856   3.584   2.495   1.609
10305TIP3   OH230857   0.520   4.481   0.542
10305TIP3    H130858   0.499   4.564   0.498
10305TIP3    H230859   0.440   4.429   0.534
10306TIP3   OH230860   2.759   6.303   3.106
10306TIP3    H130861   2.741   6.331   3.196
10306TIP3    H230862   2.694   6.350   3.053
10307TIP3   OH230863   7.067   2.261   2.012
10307TIP3    H130864   7.086   2.316   2.088
10307TIP3    H230865   7.149   2.260   1.962
10308TIP3   OH230866   0.042   0.637   1.710
10308TIP3    H130867   0.022   0.638   1.804
10308TIP3    H230868  -0.021   0.699   1.672
10309TIP3   OH230869   3.677   2.970   6.413
10309TIP3    H130870   3.753   2.972   6.356
10309TIP3    H230871   3.603   2.953   6.355
10310TIP3   OH230872   7.492   5.457   6.492
10310TIP3    H130873   7.579   5.416   6.502
10310TIP3    H230874   7.433   5.399   6.539
10311TIP3   OH230875   0.741   2.915   2.192
10311TIP3    H130876   0.674   2.876   2.247
10311TIP3    H230877   0.798   2.962   2.253
10312TIP3   OH230878   7.055   4.401   6.570
10312TIP3    H130879   7.081   4.493   6.574
10312TIP3    H230880   7.051   4.382   6.476
10313TIP3   OH230881   4.348   4.432   3.514
10313TIP3    H130882   4.329   4.505   3.574
10313TIP3    H230883   4.328   4.468   3.428
10314TIP3   OH230884   4.564   1.545   2.070
10314TIP3    H130885   4.505   1.589   2.132
10314TIP3    H230886   4.545   1.452   2.082
10315TIP3   OH230887   1.160   5.038   6.177
10315TIP3    H130888   1.113   5.023   6.095
10315TIP3    H230889   1.251   5.049   6.151
10316TIP3   OH230890   2.716   2.458   1.614
10316TIP3    H130891   2.697   2.518   1.687
10316TIP3    H230892   2.727   2.373   1.655
10317TIP3   OH230893   2.763   3.942   4.631
10317TIP3    H130894   2.787   4.033   4.613
10317TIP3    H230895   2.730   3.944   4.721
10318TIP3   OH230896   6.415   0.485   2.502
10318TIP3    H130897   6.495   0.440   2.530
10318TIP3    H230898   6.402   0.457   2.412
10319TIP3   OH230899   5.602   5.259   4.972
10319TIP3    H130900   5.588   5.264   5.066
10319TIP3    H230901   5.523   5.218   4.938
10320TIP3   OH230902   7.106   2.170   4.633
10320TIP3    H130903   7.142   2.244   4.681
10320TIP3    H230904   7.152   2.170   4.549
10321TIP3   OH230905   0.419   7.033   4.705
10321TIP3    H130906   0.466   7.076   4.633
10321TIP3    H230907   0.443   6.940   4.696
10322TIP3   OH230908   6.912   0.693   1.240
10322TIP3    H130909   6.989   0.749   1.231
10322TIP3    H230910   6.942   0.606   1.212
10323TIP3   OH230911   6.920   2.699   4.866
10323TIP3    H130912   6.916   2.794   4.861
10323TIP3    H230913   6.989   2.674   4.804
10324TIP3   OH230914   5.014   7.330   2.543
10324TIP3    H130915   5.064   7.370   2.614
10324TIP3    H230916   5.030   7.386   2.467
10325TIP3   OH230917   2.907   2.809   2.470
10325TIP3    H130918   2.875   2.805   2.380
10325TIP3    H230919   2.829   2.793   2.524
10326TIP3   OH230920   2.794   1.530   0.701
10326TIP3    H130921   2.871   1.476   0.718
10326TIP3    H230922   2.828   1.606   0.654
10327TIP3   OH230923   7.993   3.366   5.953
10327TIP3    H130924   8.041   3.376   5.871
10327TIP3    H230925   8.053   3.316   6.009
10328TIP3   OH230926   2.159   0.169   4.318
10328TIP3    H130927   2.114   0.182   4.234
10328TIP3    H230928   2.205   0.251   4.334
10329TIP3   OH230929   1.982   1.896   4.126
10329TIP3    H130930   1.929   1.962   4.171
10329TIP3    H230931   1.919   1.846   4.074
10330TIP3   OH230932   1.147   2.787   6.390
10330TIP3    H130933   1.083   2.797   6.460
10330TIP3    H230934   1.096   2.792   6.309
10331TIP3   OH230935   2.294   7.620   5.912
10331TIP3    H130936   2.353   7.566   5.965
10331TIP3    H230937   2.293   7.705   5.956
10332TIP3   OH230938   1.714   1.368   1.802
10332TIP3    H130939   1.709   1.313   1.881
10332TIP3    H230940   1.624   1.391   1.783
10333TIP3   OH230941   0.953   4.329   0.780
10333TIP3    H130942   0.914   4.397   0.724
10333TIP3    H230943   0.884   4.305   0.841
10334TIP3   OH230944   0.942   0.722   4.557
10334TIP3    H130945   0.897   0.806   4.560
10334TIP3    H230946   1.033   0.743   4.578
10335TIP3   OH230947   1.364   5.584   1.027
10335TIP3    H130948   1.391   5.539   0.947
10335TIP3    H230949   1.269   5.597   1.016
10336TIP3   OH230950   0.542   0.930   3.643
10336TIP3    H130951   0.507   0.894   3.724
10336TIP3    H230952   0.629   0.892   3.636
10337TIP3   OH230953   2.952   3.652   1.101
10337TIP3    H130954   2.904   3.575   1.070
10337TIP3    H230955   3.032   3.652   1.049
10338TIP3   OH230956   4.160   3.406   0.004
10338TIP3    H130957   4.096   3.470  -0.029
10338TIP3    H230958   4.108   3.347   0.059
10339TIP3   OH230959   6.539   6.452   6.459
10339TIP3    H130960   6.620   6.405   6.438
10339TIP3    H230961   6.534   6.520   6.391
10340TIP3   OH230962   0.529   2.059   0.216
10340TIP3    H130963   0.536   2.152   0.196
10340TIP3    H230964   0.481   2.056   0.299
10341TIP3   OH230965   3.035   3.635   5.797
10341TIP3    H130966   2.949   3.650   5.839
10341TIP3    H230967   3.031   3.686   5.716
10342TIP3   OH230968   2.752   0.646   4.095
10342TIP3    H130969   2.710   0.576   4.045
10342TIP3    H230970   2.736   0.623   4.186
10343TIP3   OH230971   3.049   6.316   2.663
10343TIP3    H130972   2.975   6.353   2.615
10343TIP3    H230973   3.045   6.222   2.643
10344TIP3   OH230974   5.017   1.185   6.141
10344TIP3    H130975   5.005   1.239   6.063
10344TIP3    H230976   5.099   1.217   6.179
10345TIP3   OH230977   7.463   6.971   3.799
10345TIP3    H130978   7.435   6.928   3.719
10345TIP3    H230979   7.458   6.904   3.867
10346TIP3   OH230980   2.294   6.339   4.747
10346TIP3    H130981   2.372   6.303   4.707
10346TIP3    H230982   2.221   6.291   4.706
10347TIP3   OH230983   4.616   6.711   2.985
10347TIP3    H130984   4.577   6.624   2.976
10347TIP3    H230985   4.701   6.695   3.024
10348TIP3   OH230986   6.046   4.950   2.348
10348TIP3    H130987   5.980   4.964   2.416
10348TIP3    H230988   6.028   4.861   2.316
10349TIP3   OH230989   7.500   1.449   5.607
10349TIP3    H130990   7.422   1.487   5.647
10349TIP3    H230991   7.466   1.385   5.544
10350TIP3   OH230992   6.120   7.777   0.188
10350TIP3    H130993   6.126   7.836   0.263
10350TIP3    H230994   6.099   7.834   0.114
10351TIP3   OH230995   6.980   2.824   3.395
10351TIP3    H130996   6.947   2.861   3.477
10351TIP3    H230997   7.074   2.814   3.409
10352TIP3   OH230998   8.141   1.231   5.043
10352TIP3    H130999   8.189   1.247   4.962
10352TIP3    H231000   8.084   1.157   5.022
10353TIP3   OH231001   1.435   2.195   1.301
10353TIP3    H131002   1.394   2.237   1.226
10353TIP3    H231003   1.463   2.109   1.268
10354TIP3   OH231004   2.586   4.508   0.063
10354TIP3    H131005   2.602   4.537   0.153
10354TIP3    H231006   2.576   4.588   0.013
10355TIP3   OH231007   5.243   3.692   5.973
10355TIP3    H131008   5.311   3.654   5.918
10355TIP3    H231009   5.270   3.783   5.985
10356TIP3   OH231010   2.097   5.358   4.952
10356TIP3    H131011   2.073   5.423   5.018
10356TIP3    H231012   2.072   5.274   4.990
10357TIP3   OH231013   3.302   1.014   5.193
10357TIP3    H131014   3.235   0.981   5.253
10357TIP3    H231015   3.271   1.102   5.171
10358TIP3   OH231016   5.288   2.910   0.892
10358TIP3    H131017   5.206   2.873   0.859
10358TIP3    H231018   5.349   2.837   0.892
10359TIP3   OH231019   1.263   3.803   1.378
10359TIP3    H131020   1.266   3.782   1.284
10359TIP3    H231021   1.170   3.810   1.397
10360TIP3   OH231022   0.552   7.728   1.679
10360TIP3    H131023   0.539   7.738   1.584
10360TIP3    H231024   0.534   7.815   1.715
10361TIP3   OH231025   7.918   1.662   4.106
10361TIP3    H131026   7.956   1.647   4.192
10361TIP3    H231027   7.978   1.725   4.064
10362TIP3   OH231028   5.348   3.110   0.684
10362TIP3    H131029   5.355   3.041   0.750
10362TIP3    H231030   5.280   3.169   0.718
10363TIP3   OH231031   2.456   5.816   4.811
10363TIP3    H131032   2.437   5.726   4.838
10363TIP3    H231033   2.500   5.855   4.887
10364TIP3   OH231034   7.670   4.952   0.768
10364TIP3    H131035   7.608   4.879   0.760
10364TIP3    H231036   7.730   4.941   0.694
10365TIP3   OH231037   6.331   4.338   2.607
10365TIP3    H131038   6.277   4.316   2.530
10365TIP3    H231039   6.373   4.420   2.583
10366TIP3   OH231040   1.482   0.625   2.737
10366TIP3    H131041   1.568   0.629   2.696
10366TIP3    H231042   1.443   0.711   2.719
10367TIP3   OH231043   1.614   1.302   4.944
10367TIP3    H131044   1.586   1.270   5.030
10367TIP3    H231045   1.553   1.374   4.924
10368TIP3   OH231046   5.949   6.000   5.620
10368TIP3    H131047   5.896   5.934   5.665
10368TIP3    H231048   5.894   6.027   5.545
10369TIP3   OH231049   5.829   5.664   3.797
10369TIP3    H131050   5.789   5.596   3.744
10369TIP3    H231051   5.884   5.617   3.860
10370TIP3   OH231052   6.737   7.445   0.444
10370TIP3    H131053   6.710   7.494   0.521
10370TIP3    H231054   6.664   7.453   0.383
10371TIP3   OH231055   3.970   6.500   4.781
10371TIP3    H131056   3.900   6.505   4.715
10371TIP3    H231057   3.926   6.519   4.864
10372TIP3   OH231058   4.074   6.236   2.404
10372TIP3    H131059   4.064   6.305   2.339
10372TIP3    H231060   4.168   6.231   2.419
10373TIP3   OH231061   7.609   1.838   4.727
10373TIP3    H131062   7.519   1.846   4.694
10373TIP3    H231063   7.600   1.789   4.809
10374TIP3   OH231064   2.848   5.218   0.345
10374TIP3    H131065   2.784   5.152   0.321
10374TIP3    H231066   2.862   5.205   0.439
10375TIP3   OH231067   0.107   2.033   3.330
10375TIP3    H131068   0.023   1.991   3.351
10375TIP3    H231069   0.135   2.072   3.413
10376TIP3   OH231070   5.216   4.634   3.036
10376TIP3    H131071   5.272   4.706   3.063
10376TIP3    H231072   5.266   4.588   2.969
10377TIP3   OH231073   3.256   2.818   0.613
10377TIP3    H131074   3.237   2.738   0.662
10377TIP3    H231075   3.182   2.875   0.633
10378TIP3   OH231076   0.059   4.137   3.621
10378TIP3    H131077   0.018   4.102   3.700
10378TIP3    H231078   0.005   4.104   3.549
10379TIP3   OH231079   5.536   4.739   3.836
10379TIP3    H131080   5.491   4.675   3.782
10379TIP3    H231081   5.508   4.718   3.926
10380TIP3   OH231082   5.453   2.194   0.469
10380TIP3    H131083   5.360   2.196   0.446
10380TIP3    H231084   5.460   2.252   0.545
10381TIP3   OH231085   2.949   4.275   6.249
10381TIP3    H131086   2.964   4.328   6.170
10381TIP3    H231087   2.976   4.332   6.321
10382TIP3   OH231088   0.568   7.080   1.688
10382TIP3    H131089   0.614   7.152   1.731
10382TIP3    H231090   0.574   7.100   1.594
10383TIP3   OH231091   4.137   3.939   3.788
10383TIP3    H131092   4.189   3.859   3.803
10383TIP3    H231093   4.177   4.005   3.845
10384TIP3   OH231094   4.732   6.828   5.999
10384TIP3    H131095   4.665   6.895   6.016
10384TIP3    H231096   4.807   6.856   6.051
10385TIP3   OH231097   5.819   6.875   4.773
10385TIP3    H131098   5.864   6.949   4.813
10385TIP3    H231099   5.830   6.803   4.834
10386TIP3   OH231100   7.793   7.235   1.632
10386TIP3    H131101   7.856   7.233   1.704
10386TIP3    H231102   7.840   7.198   1.558
10387TIP3   OH231103   7.008   7.115   3.351
10387TIP3    H131104   7.064   7.151   3.420
10387TIP3    H231105   6.996   7.023   3.376
10388TIP3   OH231106   5.922   0.116   2.314
10388TIP3    H131107   5.907   0.161   2.397
10388TIP3    H231108   5.896   0.025   2.331
10389TIP3   OH231109   0.423   1.496   3.461
10389TIP3    H131110   0.426   1.553   3.538
10389TIP3    H231111   0.442   1.409   3.496
10390TIP3   OH231112   0.587   1.584   1.926
10390TIP3    H131113   0.639   1.542   1.994
10390TIP3    H231114   0.507   1.611   1.971
10391TIP3   OH231115   2.739   5.842   3.826
10391TIP3    H131116   2.816   5.870   3.876
10391TIP3    H231117   2.667   5.894   3.861
10392TIP3   OH231118   0.078   5.972   1.209
10392TIP3    H131119   0.111   6.044   1.263
10392TIP3    H231120   0.080   5.896   1.267
10393TIP3   OH231121   6.852   6.266   4.797
10393TIP3    H131122   6.783   6.330   4.815
10393TIP3    H231123   6.922   6.316   4.757
10394TIP3   OH231124   0.771   4.459   5.404
10394TIP3    H131125   0.831   4.469   5.478
10394TIP3    H231126   0.742   4.368   5.409
10395TIP3   OH231127   3.835   3.860   1.191
10395TIP3    H131128   3.872   3.779   1.156
10395TIP3    H231129   3.800   3.905   1.115
10396TIP3   OH231130   3.368   1.741   5.194
10396TIP3    H131131   3.398   1.736   5.104
10396TIP3    H231132   3.395   1.828   5.225
10397TIP3   OH231133   1.663   5.891   3.582
10397TIP3    H131134   1.725   5.831   3.540
10397TIP3    H231135   1.583   5.840   3.591
10398TIP3   OH231136   8.031   3.281   0.695
10398TIP3    H131137   8.075   3.328   0.766
10398TIP3    H231138   8.077   3.197   0.689
10399TIP3   OH231139   2.970   2.133   4.021
10399TIP3    H131140   2.965   2.053   3.968
10399TIP3    H231141   2.912   2.195   3.976
10400TIP3   OH231142   0.836   3.441   0.358
10400TIP3    H131143   0.916   3.466   0.405
10400TIP3    H231144   0.823   3.512   0.295
10401TIP3   OH231145   1.565   3.091   2.553
10401TIP3    H131146   1.594   3.125   2.638
10401TIP3    H231147   1.579   3.164   2.493
10402TIP3   OH231148   1.506   1.276   1.574
10402TIP3    H131149   1.418   1.298   1.603
10402TIP3    H231150   1.523   1.190   1.613
10403TIP3   OH231151   4.733   2.761   6.402
10403TIP3    H131152   4.652   2.770   6.350
10403TIP3    H231153   4.795   2.721   6.342
10404TIP3   OH231154   2.053   6.253   2.003
10404TIP3    H131155   2.123   6.294   2.054
10404TIP3    H231156   1.985   6.320   1.999
10405TIP3   OH231157   4.268   4.569   3.276
10405TIP3    H131158   4.353   4.587   3.236
10405TIP3    H231159   4.204   4.585   3.206
10406TIP3   OH231160   0.730   3.258   2.204
10406TIP3    H131161   0.737   3.308   2.122
10406TIP3    H231162   0.783   3.180   2.190
10407TIP3   OH231163   0.543   7.256   6.195
10407TIP3    H131164   0.605   7.191   6.229
10407TIP3    H231165   0.531   7.231   6.103
10408TIP3   OH231166   7.876   5.116   2.182
10408TIP3    H131167   7.949   5.166   2.144
10408TIP3    H231168   7.826   5.086   2.107
10409TIP3   OH231169   0.596   0.143   5.050
10409TIP3    H131170   0.607   0.143   5.145
10409TIP3    H231171   0.562   0.230   5.030
10410TIP3   OH231172   6.124   7.323   4.814
10410TIP3    H131173   6.122   7.414   4.786
10410TIP3    H231174   6.083   7.275   4.743
10411TIP3   OH231175   4.678   6.823   6.545
10411TIP3    H131176   4.634   6.869   6.617
10411TIP3    H231177   4.607   6.787   6.493
10412TIP3   OH231178   2.755   6.880   3.920
10412TIP3    H131179   2.722   6.936   3.850
10412TIP3    H231180   2.821   6.825   3.877
10413TIP3   OH231181   3.305   4.361   5.699
10413TIP3    H131182   3.268   4.449   5.698
10413TIP3    H231183   3.241   4.308   5.746
10414TIP3   OH231184   0.646   4.544   5.145
10414TIP3    H131185   0.667   4.450   5.149
10414TIP3    H231186   0.702   4.584   5.211
10415TIP3   OH231187   0.231   7.252   1.097
10415TIP3    H131188   0.312   7.201   1.096
10415TIP3    H231189   0.180   7.216   1.170
10416TIP3   OH231190   1.334   6.427   0.945
10416TIP3    H131191   1.420   6.395   0.974
10416TIP3    H231192   1.271   6.372   0.992
10417TIP3   OH231193   7.504   1.077   6.787
10417TIP3    H131194   7.509   1.000   6.731
10417TIP3    H231195   7.570   1.137   6.752
10418TIP3   OH231196   5.361   2.254   1.810
10418TIP3    H131197   5.332   2.337   1.771
10418TIP3    H231198   5.317   2.251   1.895
10419TIP3   OH231199   6.318   2.183   1.341
10419TIP3    H131200   6.284   2.096   1.362
10419TIP3    H231201   6.305   2.233   1.422
10420TIP3   OH231202   7.463   3.888   2.954
10420TIP3    H131203   7.495   3.865   3.041
10420TIP3    H231204   7.400   3.959   2.969
10421TIP3   OH231205   4.435   2.483   6.051
10421TIP3    H131206   4.359   2.490   5.992
10421TIP3    H231207   4.491   2.417   6.010
10422TIP3   OH231208   6.814   2.196   1.917
10422TIP3    H131209   6.908   2.182   1.907
10422TIP3    H231210   6.807   2.284   1.956
10423TIP3   OH231211   4.764   3.937   4.660
10423TIP3    H131212   4.844   3.885   4.669
10423TIP3    H231213   4.695   3.880   4.695
10424TIP3   OH231214   7.244   1.757   5.851
10424TIP3    H131215   7.266   1.786   5.939
10424TIP3    H231216   7.155   1.723   5.859
10425TIP3   OH231217   4.638   5.390   5.755
10425TIP3    H131218   4.734   5.393   5.758
10425TIP3    H231219   4.610   5.438   5.832
10426TIP3   OH231220   0.292   1.624   6.754
10426TIP3    H131221   0.263   1.533   6.759
10426TIP3    H231222   0.215   1.675   6.779
10427TIP3   OH231223   7.945   3.348   4.660
10427TIP3    H131224   7.921   3.377   4.748
10427TIP3    H231225   7.957   3.429   4.610
10428TIP3   OH231226   7.428   0.054   3.567
10428TIP3    H131227   7.387   0.081   3.485
10428TIP3    H231228   7.480   0.129   3.594
10429TIP3   OH231229   5.604   7.515   1.082
10429TIP3    H131230   5.556   7.453   1.028
10429TIP3    H231231   5.690   7.522   1.040
10430TIP3   OH231232   1.865   6.572   2.257
10430TIP3    H131233   1.849   6.632   2.330
10430TIP3    H231234   1.784   6.575   2.207
10431TIP3   OH231235   1.920   5.897   0.706
10431TIP3    H131236   2.004   5.915   0.748
10431TIP3    H231237   1.943   5.861   0.620
10432TIP3   OH231238   7.195   2.769   1.505
10432TIP3    H131239   7.218   2.677   1.490
10432TIP3    H231240   7.209   2.811   1.420
10433TIP3   OH231241   4.336   7.392   5.700
10433TIP3    H131242   4.254   7.436   5.681
10433TIP3    H231243   4.386   7.398   5.618
10434TIP3   OH231244   0.015   1.597   3.440
10434TIP3    H131245   0.086   1.601   3.375
10434TIP3    H231246  -0.054   1.546   3.397
10435TIP3   OH231247   1.957   6.856   0.097
10435TIP3    H131248   2.021   6.831   0.030
10435TIP3    H231249   1.972   6.795   0.169
10436TIP3   OH231250   4.992   6.522   5.023
10436TIP3    H131251   4.935   6.449   4.999
10436TIP3    H231252   4.942   6.571   5.088
10437TIP3   OH231253   1.638   0.004   4.425
10437TIP3    H131254   1.732  -0.006   4.442
10437TIP3    H231255   1.598   0.004   4.512
10438TIP3   OH231256   6.307   2.733   3.883
10438TIP3    H131257   6.319   2.819   3.924
10438TIP3    H231258   6.239   2.747   3.818
10439TIP3   OH231259   7.156   7.492   6.353
10439TIP3    H131260   7.071   7.485   6.309
10439TIP3    H231261   7.143   7.558   6.421
10440TIP3   OH231262   4.518   3.434   1.554
10440TIP3    H131263   4.528   3.429   1.649
10440TIP3    H231264   4.552   3.520   1.530
10441TIP3   OH231265  -0.016   5.290   5.210
10441TIP3    H131266   0.078   5.287   5.195
10441TIP3    H231267  -0.027   5.270   5.302
10442TIP3   OH231268   6.162   7.235   2.595
10442TIP3    H131269   6.238   7.267   2.547
10442TIP3    H231270   6.130   7.313   2.641
10443TIP3   OH231271   1.191   2.163   4.518
10443TIP3    H131272   1.280   2.185   4.490
10443TIP3    H231273   1.202   2.090   4.578
10444TIP3   OH231274   4.920   7.586   0.919
10444TIP3    H131275   4.895   7.678   0.914
10444TIP3    H231276   5.001   7.580   0.869
10445TIP3   OH231277   3.975   4.371   2.580
10445TIP3    H131278   4.031   4.443   2.606
10445TIP3    H231279   3.999   4.353   2.489
10446TIP3   OH231280   8.215   4.613   4.467
10446TIP3    H131281   8.232   4.589   4.559
10446TIP3    H231282   8.216   4.708   4.466
10447TIP3   OH231283   7.430   3.032   0.381
10447TIP3    H131284   7.411   3.118   0.419
10447TIP3    H231285   7.397   3.038   0.291
10448TIP3   OH231286   6.807   6.231   2.500
10448TIP3    H131287   6.842   6.301   2.554
10448TIP3    H231288   6.879   6.207   2.441
10449TIP3   OH231289   4.269   6.129   4.515
10449TIP3    H131290   4.209   6.159   4.584
10449TIP3    H231291   4.326   6.066   4.558
10450TIP3   OH231292   0.571   1.574   6.708
10450TIP3    H131293   0.591   1.553   6.617
10450TIP3    H231294   0.492   1.628   6.703
10451TIP3   OH231295   4.454   6.899   1.089
10451TIP3    H131296   4.520   6.857   1.144
10451TIP3    H231297   4.370   6.876   1.130
10452TIP3   OH231298   3.313   5.875   5.806
10452TIP3    H131299   3.337   5.926   5.728
10452TIP3    H231300   3.218   5.881   5.810
10453TIP3   OH231301   1.992   6.996   2.780
10453TIP3    H131302   1.939   7.069   2.812
10453TIP3    H231303   1.937   6.953   2.714
10454TIP3   OH231304   4.166   6.007   6.121
10454TIP3    H131305   4.072   6.027   6.118
10454TIP3    H231306   4.195   6.019   6.030
10455TIP3   OH231307   6.467   7.243   0.414
10455TIP3    H131308   6.548   7.200   0.441
10455TIP3    H231309   6.410   7.171   0.387
10456TIP3   OH231310   3.934   5.345   3.578
10456TIP3    H131311   3.960   5.286   3.508
10456TIP3    H231312   3.865   5.297   3.625
10457TIP3   OH231313   4.406   0.926   3.754
10457TIP3    H131314   4.496   0.922   3.722
10457TIP3    H231315   4.402   1.008   3.804
10458TIP3   OH231316   0.073   1.174   1.367
10458TIP3    H131317   0.105   1.219   1.444
10458TIP3    H231318  -0.020   1.197   1.361
10459TIP3   OH231319   3.484   6.998   4.083
10459TIP3    H131320   3.500   6.992   3.989
10459TIP3    H231321   3.448   7.085   4.096
10460TIP3   OH231322   0.801   7.536   2.736
10460TIP3    H131323   0.836   7.570   2.818
10460TIP3    H231324   0.873   7.483   2.700
10461TIP3   OH231325   4.133   3.949   4.432
10461TIP3    H131326   4.137   3.915   4.522
10461TIP3    H231327   4.220   3.930   4.396
10462TIP3   OH231328   0.252   1.131   3.930
10462TIP3    H131329   0.216   1.071   3.995
10462TIP3    H231330   0.249   1.217   3.973
10463TIP3   OH231331   2.463   1.122   5.867
10463TIP3    H131332   2.415   1.074   5.934
10463TIP3    H231333   2.397   1.178   5.826
10464TIP3   OH231334   4.773   0.531   2.375
10464TIP3    H131335   4.850   0.554   2.323
10464TIP3    H231336   4.740   0.451   2.336
10465TIP3   OH231337   0.740   3.221   1.033
10465TIP3    H131338   0.831   3.198   1.050
10465TIP3    H231339   0.691   3.141   1.053
10466TIP3   OH231340   1.954   5.095   2.638
10466TIP3    H131341   1.920   5.017   2.682
10466TIP3    H231342   2.043   5.106   2.671
10467TIP3   OH231343   4.241   4.676   4.450
10467TIP3    H131344   4.310   4.618   4.481
10467TIP3    H231345   4.166   4.659   4.508
10468TIP3   OH231346   4.043   2.526   3.436
10468TIP3    H131347   4.111   2.547   3.372
10468TIP3    H231348   3.963   2.517   3.385
10469TIP3   OH231349   5.293   5.426   4.831
10469TIP3    H131350   5.239   5.492   4.787
10469TIP3    H231351   5.293   5.351   4.773
10470TIP3   OH231352   3.872   2.266   5.982
10470TIP3    H131353   3.934   2.294   5.915
10470TIP3    H231354   3.904   2.180   6.010
10471TIP3   OH231355   0.804   0.636   6.694
10471TIP3    H131356   0.885   0.587   6.707
10471TIP3    H231357   0.820   0.720   6.738
10472TIP3   OH231358   3.253   6.328   0.087
10472TIP3    H131359   3.291   6.373   0.162
10472TIP3    H231360   3.306   6.357   0.012
10473TIP3   OH231361   0.175   2.882   5.563
10473TIP3    H131362   0.198   2.800   5.605
10473TIP3    H231363   0.258   2.929   5.554
10474TIP3   OH231364   3.879   7.538   0.765
10474TIP3    H131365   3.844   7.563   0.680
10474TIP3    H231366   3.952   7.599   0.780
10475TIP3   OH231367   1.561   0.403   1.564
10475TIP3    H131368   1.613   0.394   1.484
10475TIP3    H231369   1.617   0.366   1.633
10476TIP3   OH231370   0.119   3.954   2.089
10476TIP3    H131371   0.047   3.935   2.028
10476TIP3    H231372   0.127   4.049   2.088
10477TIP3   OH231373   3.294   1.751   2.429
10477TIP3    H131374   3.367   1.811   2.445
10477TIP3    H231375   3.244   1.792   2.358
10478TIP3   OH231376   6.701   0.780   3.386
10478TIP3    H131377   6.792   0.780   3.417
10478TIP3    H231378   6.698   0.850   3.321
10479TIP3   OH231379   7.064   0.704   5.331
10479TIP3    H131380   7.067   0.736   5.422
10479TIP3    H231381   7.005   0.629   5.334
10480TIP3   OH231382   4.274   5.906   1.962
10480TIP3    H131383   4.247   5.815   1.961
10480TIP3    H231384   4.368   5.904   1.945
10481TIP3   OH231385   1.550   5.811   2.326
10481TIP3    H131386   1.634   5.778   2.294
10481TIP3    H231387   1.573   5.881   2.387
10482TIP3   OH231388   4.900   0.340   5.150
10482TIP3    H131389   4.901   0.282   5.226
10482TIP3    H231390   4.958   0.297   5.087
10483TIP3   OH231391   5.885   3.281   0.502
10483TIP3    H131392   5.974   3.303   0.476
10483TIP3    H231393   5.830   3.340   0.452
10484TIP3   OH231394   1.631   1.028   1.594
10484TIP3    H131395   1.725   1.044   1.606
10484TIP3    H231396   1.623   0.933   1.599
10485TIP3   OH231397   2.343   7.050   0.495
10485TIP3    H131398   2.385   6.983   0.442
10485TIP3    H231399   2.262   7.070   0.448
10486TIP3   OH231400   6.970   4.836   6.646
10486TIP3    H131401   6.896   4.882   6.605
10486TIP3    H231402   7.034   4.905   6.665
10487TIP3   OH231403   2.877   7.409   6.573
10487TIP3    H131404   2.934   7.333   6.559
10487TIP3    H231405   2.868   7.448   6.486
10488TIP3   OH231406   4.052   5.137   6.640
10488TIP3    H131407   4.109   5.113   6.567
10488TIP3    H231408   3.985   5.193   6.601
10489TIP3   OH231409   5.387   5.720   1.183
10489TIP3    H131410   5.407   5.811   1.207
10489TIP3    H231411   5.466   5.672   1.205
10490TIP3   OH231412   4.143   2.328   2.519
10490TIP3    H131413   4.081   2.400   2.523
10490TIP3    H231414   4.146   2.293   2.608
10491TIP3   OH231415   6.923   0.448   5.159
10491TIP3    H131416   6.872   0.367   5.156
10491TIP3    H231417   6.864   0.515   5.124
10492TIP3   OH231418   2.449   3.538   1.319
10492TIP3    H131419   2.400   3.459   1.343
10492TIP3    H231420   2.385   3.608   1.321
10493TIP3   OH231421   5.105   0.793   1.510
10493TIP3    H131422   5.105   0.700   1.533
10493TIP3    H231423   5.032   0.803   1.449
10494TIP3   OH231424   0.411   7.675   4.121
10494TIP3    H131425   0.322   7.647   4.140
10494TIP3    H231426   0.408   7.771   4.128
10495TIP3   OH231427   6.808   5.899   4.903
10495TIP3    H131428   6.804   5.927   4.812
10495TIP3    H231429   6.895   5.926   4.932
10496TIP3   OH231430   2.177   6.727   6.633
10496TIP3    H131431   2.254   6.705   6.686
10496TIP3    H231432   2.207   6.798   6.576
10497TIP3   OH231433   4.985   2.783   1.256
10497TIP3    H131434   5.000   2.807   1.164
10497TIP3    H231435   4.913   2.840   1.284
10498TIP3   OH231436   6.684   4.250   5.563
10498TIP3    H131437   6.691   4.188   5.490
10498TIP3    H231438   6.775   4.264   5.590
10499TIP3   OH231439   0.988   2.473   6.484
10499TIP3    H131440   0.950   2.389   6.510
10499TIP3    H231441   1.072   2.450   6.445
10500TIP3   OH231442   0.197   4.888   2.972
10500TIP3    H131443   0.244   4.888   3.056
10500TIP3    H231444   0.122   4.946   2.986
10501TIP3   OH231445   3.679   2.976   2.043
10501TIP3    H131446   3.739   2.994   2.115
10501TIP3    H231447   3.613   3.046   2.050
10502TIP3   OH231448   8.245   1.578   5.945
10502TIP3    H131449   8.233   1.641   5.874
10502TIP3    H231450   8.171   1.593   6.004
10503TIP3   OH231451   5.002   7.504   5.263
10503TIP3    H131452   4.960   7.472   5.183
10503TIP3    H231453   5.093   7.476   5.256
10504TIP3   OH231454   0.017   0.363   5.344
10504TIP3    H131455   0.092   0.374   5.402
10504TIP3    H231456  -0.044   0.432   5.371
10505TIP3   OH231457   8.189   6.600   2.489
10505TIP3    H131458   8.254   6.531   2.492
10505TIP3    H231459   8.155   6.604   2.579
10506TIP3   OH231460   6.980   5.365   5.931
10506TIP3    H131461   7.022   5.285   5.961
10506TIP3    H231462   7.032   5.435   5.970
10507TIP3   OH231463   3.540   6.795   1.873
10507TIP3    H131464   3.572   6.712   1.838
10507TIP3    H231465   3.510   6.844   1.796
10508TIP3   OH231466   5.196   4.455   2.161
10508TIP3    H131467   5.280   4.501   2.169
10508TIP3    H231468   5.220   4.366   2.135
10509TIP3   OH231469   1.746   4.443   3.852
10509TIP3    H131470   1.822   4.501   3.843
10509TIP3    H231471   1.704   4.470   3.933
10510TIP3   OH231472   0.468   6.826   3.936
10510TIP3    H131473   0.399   6.792   3.993
10510TIP3    H231474   0.536   6.856   3.995
10511TIP3   OH231475   3.556   1.820   5.506
10511TIP3    H131476   3.480   1.877   5.493
10511TIP3    H231477   3.608   1.829   5.426
10512TIP3   OH231478   4.371   7.311   3.484
10512TIP3    H131479   4.463   7.284   3.486
10512TIP3    H231480   4.326   7.245   3.537
10513TIP3   OH231481   5.514   3.624   5.325
10513TIP3    H131482   5.425   3.615   5.358
10513TIP3    H231483   5.509   3.697   5.264
10514TIP3   OH231484   4.952   0.926   5.313
10514TIP3    H131485   5.004   0.918   5.393
10514TIP3    H231486   4.899   0.846   5.311
10515TIP3   OH231487   6.183   7.380   3.930
10515TIP3    H131488   6.174   7.285   3.942
10515TIP3    H231489   6.156   7.396   3.840
10516TIP3   OH231490   3.463   5.647   3.646
10516TIP3    H131491   3.482   5.705   3.572
10516TIP3    H231492   3.549   5.626   3.682
10517TIP3   OH231493   5.468   6.473   6.010
10517TIP3    H131494   5.477   6.562   5.977
10517TIP3    H231495   5.398   6.434   5.958
10518TIP3   OH231496   1.538   4.766   1.469
10518TIP3    H131497   1.563   4.765   1.377
10518TIP3    H231498   1.577   4.686   1.505
10519TIP3   OH231499   7.345   7.097   3.422
10519TIP3    H131500   7.370   7.011   3.455
10519TIP3    H231501   7.296   7.137   3.494
10520TIP3   OH231502   0.500   0.906   3.335
10520TIP3    H131503   0.446   0.827   3.326
10520TIP3    H231504   0.494   0.929   3.427
10521TIP3   OH231505   6.841   5.979   4.136
10521TIP3    H131506   6.793   5.940   4.063
10521TIP3    H231507   6.807   5.933   4.214
10522TIP3   OH231508   1.645   0.325   4.557
10522TIP3    H131509   1.725   0.287   4.520
10522TIP3    H231510   1.578   0.311   4.490
10523TIP3   OH231511   3.512   1.198   3.044
10523TIP3    H131512   3.531   1.109   3.074
10523TIP3    H231513   3.555   1.204   2.959
10524TIP3   OH231514   2.422   4.689   5.629
10524TIP3    H131515   2.468   4.675   5.712
10524TIP3    H231516   2.335   4.652   5.643
10525TIP3   OH231517   8.190   4.142   6.121
10525TIP3    H131518   8.274   4.104   6.147
10525TIP3    H231519   8.209   4.188   6.040
10526TIP3   OH231520   5.472   6.793   6.759
10526TIP3    H131521   5.534   6.781   6.688
10526TIP3    H231522   5.488   6.882   6.791
10527TIP3   OH231523   1.505   0.979   0.657
10527TIP3    H131524   1.497   0.949   0.567
10527TIP3    H231525   1.459   1.063   0.659
10528TIP3   OH231526   3.173   0.411   0.527
10528TIP3    H131527   3.248   0.357   0.500
10528TIP3    H231528   3.159   0.388   0.619
10529TIP3   OH231529   4.329   0.046   1.685
10529TIP3    H131530   4.407   0.037   1.632
10529TIP3    H231531   4.361   0.052   1.775
10530TIP3   OH231532   1.646   3.203   3.332
10530TIP3    H131533   1.605   3.215   3.417
10530TIP3    H231534   1.576   3.219   3.269
10531TIP3   OH231535   0.059   1.776   5.717
10531TIP3    H131536  -0.001   1.849   5.699
10531TIP3    H231537   0.053   1.720   5.639
10532TIP3   OH231538   0.328   7.823   6.321
10532TIP3    H131539   0.286   7.765   6.384
10532TIP3    H231540   0.420   7.798   6.324
10533TIP3   OH231541   5.894   6.057   3.108
10533TIP3    H131542   5.974   6.108   3.092
10533TIP3    H231543   5.891   6.046   3.203
10534TIP3   OH231544   1.056   6.438   2.637
10534TIP3    H131545   0.974   6.424   2.685
10534TIP3    H231546   1.042   6.519   2.588
10535TIP3   OH231547   6.439   1.195   4.880
10535TIP3    H131548   6.417   1.135   4.808
10535TIP3    H231549   6.480   1.139   4.945
10536TIP3   OH231550   0.677   2.691   1.025
10536TIP3    H131551   0.609   2.733   1.077
10536TIP3    H231552   0.698   2.611   1.073
10537TIP3   OH231553   5.636   4.133   6.189
10537TIP3    H131554   5.628   4.131   6.094
10537TIP3    H231555   5.555   4.174   6.219
10538TIP3   OH231556   4.334   1.590   2.245
10538TIP3    H131557   4.250   1.632   2.225
10538TIP3    H231558   4.315   1.497   2.246
10539TIP3   OH231559   1.610   2.593   1.274
10539TIP3    H131560   1.652   2.678   1.262
10539TIP3    H231561   1.675   2.540   1.320
10540TIP3   OH231562   1.240   7.785   2.522
10540TIP3    H131563   1.202   7.848   2.582
10540TIP3    H231564   1.212   7.814   2.435
10541TIP3   OH231565   4.701   6.661   4.806
10541TIP3    H131566   4.675   6.670   4.898
10541TIP3    H231567   4.621   6.634   4.762
10542TIP3   OH231568   2.726   4.516   0.542
10542TIP3    H131569   2.785   4.490   0.472
10542TIP3    H231570   2.640   4.524   0.500
10543TIP3   OH231571   1.104   4.579   6.292
10543TIP3    H131572   1.162   4.527   6.348
10543TIP3    H231573   1.025   4.525   6.284
10544TIP3   OH231574   5.119   4.517   4.890
10544TIP3    H131575   5.182   4.523   4.819
10544TIP3    H231576   5.172   4.518   4.970
10545TIP3   OH231577   0.431   7.429   1.453
10545TIP3    H131578   0.421   7.443   1.547
10545TIP3    H231579   0.525   7.417   1.440
10546TIP3   OH231580   7.284   0.534   6.461
10546TIP3    H131581   7.307   0.584   6.540
10546TIP3    H231582   7.308   0.592   6.388
10547TIP3   OH231583   4.883   1.081   1.973
10547TIP3    H131584   4.977   1.100   1.974
10547TIP3    H231585   4.877   0.986   1.978
10548TIP3   OH231586   1.799   5.173   3.463
10548TIP3    H131587   1.712   5.214   3.461
10548TIP3    H231588   1.798   5.120   3.542
10549TIP3   OH231589   5.762   2.861   1.309
10549TIP3    H131590   5.838   2.823   1.265
10549TIP3    H231591   5.733   2.932   1.251
10550TIP3   OH231592   7.567   6.682   4.518
10550TIP3    H131593   7.522   6.750   4.469
10550TIP3    H231594   7.591   6.724   4.601
10551TIP3   OH231595   0.622   6.003   4.377
10551TIP3    H131596   0.541   5.958   4.353
10551TIP3    H231597   0.652   6.043   4.296
10552TIP3   OH231598   5.166   4.396   4.068
10552TIP3    H131599   5.155   4.486   4.040
10552TIP3    H231600   5.259   4.389   4.091
10553TIP3   OH231601   5.400   4.686   0.652
10553TIP3    H131602   5.440   4.727   0.576
10553TIP3    H231603   5.400   4.592   0.632
10554TIP3   OH231604   5.510   5.860   5.112
10554TIP3    H131605   5.417   5.850   5.093
10554TIP3    H231606   5.513   5.874   5.207
10555TIP3   OH231607   5.036   6.746   6.242
10555TIP3    H131608   5.039   6.691   6.164
10555TIP3    H231609   5.026   6.835   6.208
10556TIP3   OH231610   8.091   6.772   3.154
10556TIP3    H131611   8.104   6.862   3.126
10556TIP3    H231612   8.007   6.747   3.115
10557TIP3   OH231613   7.992   5.791   4.780
10557TIP3    H131614   7.898   5.777   4.797
10557TIP3    H231615   8.030   5.802   4.867
10558TIP3   OH231616   3.945   1.121   1.831
10558TIP3    H131617   3.890   1.155   1.761
10558TIP3    H231618   3.985   1.199   1.870
10559TIP3   OH231619   0.475   3.161   4.309
10559TIP3    H131620   0.451   3.070   4.292
10559TIP3    H231621   0.516   3.159   4.396
10560TIP3   OH231622   3.806   2.875   5.239
10560TIP3    H131623   3.883   2.901   5.188
10560TIP3    H231624   3.828   2.903   5.329
10561TIP3   OH231625   5.574   3.746   3.783
10561TIP3    H131626   5.604   3.795   3.859
10561TIP3    H231627   5.625   3.783   3.710
10562TIP3   OH231628   0.759   0.497   4.581
10562TIP3    H131629   0.822   0.570   4.578
10562TIP3    H231630   0.674   0.540   4.577
10563TIP3   OH231631   6.095   7.583   4.714
10563TIP3    H131632   6.045   7.624   4.644
10563TIP3    H231633   6.127   7.657   4.766
10564TIP3   OH231634   6.702   4.114   6.296
10564TIP3    H131635   6.650   4.093   6.218
10564TIP3    H231636   6.758   4.186   6.268
10565TIP3   OH231637   5.143   2.269   4.135
10565TIP3    H131638   5.151   2.307   4.222
10565TIP3    H231639   5.232   2.245   4.111
10566TIP3   OH231640   1.146   3.424   3.602
10566TIP3    H131641   1.231   3.438   3.645
10566TIP3    H231642   1.166   3.427   3.509
10567TIP3   OH231643   0.465   0.703   0.985
10567TIP3    H131644   0.404   0.631   1.002
10567TIP3    H231645   0.491   0.734   1.071
10568TIP3   OH231646   1.287   0.065   4.468
10568TIP3    H131647   1.339   0.044   4.546
10568TIP3    H231648   1.231  -0.012   4.456
10569TIP3   OH231649   1.872   5.341   4.514
10569TIP3    H131650   1.894   5.339   4.421
10569TIP3    H231651   1.866   5.249   4.539
10570TIP3   OH231652   1.095   2.056   2.929
10570TIP3    H131653   1.073   2.010   2.847
10570TIP3    H231654   1.035   2.130   2.931
10571TIP3   OH231655   0.335   0.219   5.441
10571TIP3    H131656   0.273   0.261   5.500
10571TIP3    H231657   0.287   0.211   5.358
10572TIP3   OH231658   8.207   4.866   4.565
10572TIP3    H131659   8.112   4.874   4.576
10572TIP3    H231660   8.243   4.887   4.652
10573TIP3   OH231661   1.103   0.287   3.296
10573TIP3    H131662   1.117   0.283   3.391
10573TIP3    H231663   1.144   0.368   3.269
10574TIP3   OH231664   4.027   3.190   1.211
10574TIP3    H131665   3.975   3.162   1.287
10574TIP3    H231666   3.995   3.135   1.140
10575TIP3   OH231667   3.724   2.241   2.712
10575TIP3    H131668   3.736   2.167   2.771
10575TIP3    H231669   3.648   2.287   2.747
10576TIP3   OH231670   7.782   6.085   1.188
10576TIP3    H131671   7.781   6.024   1.262
10576TIP3    H231672   7.833   6.040   1.121
10577TIP3   OH231673   1.357   7.567   4.938
10577TIP3    H131674   1.426   7.500   4.946
10577TIP3    H231675   1.401   7.649   4.958
10578TIP3   OH231676   3.582   3.664   2.522
10578TIP3    H131677   3.675   3.641   2.523
10578TIP3    H231678   3.537   3.583   2.549
10579TIP3   OH231679   2.000   6.091   0.500
10579TIP3    H131680   1.985   6.073   0.593
10579TIP3    H231681   1.913   6.083   0.460
10580TIP3   OH231682   6.178   2.830   5.979
10580TIP3    H131683   6.095   2.874   5.999
10580TIP3    H231684   6.151   2.742   5.952
10581TIP3   OH231685   0.601   2.460   2.985
10581TIP3    H131686   0.642   2.487   3.067
10581TIP3    H231687   0.615   2.366   2.981
10582TIP3   OH231688   2.063   7.027   1.206
10582TIP3    H131689   2.077   6.937   1.237
10582TIP3    H231690   2.043   7.017   1.113
10583TIP3   OH231691   0.883   2.230   2.926
10583TIP3    H131692   0.844   2.241   3.013
10583TIP3    H231693   0.830   2.286   2.869
10584TIP3   OH231694   7.394   6.447   3.184
10584TIP3    H131695   7.381   6.387   3.258
10584TIP3    H231696   7.369   6.396   3.107
10585TIP3   OH231697   6.869   5.870   2.330
10585TIP3    H131698   6.898   5.792   2.282
10585TIP3    H231699   6.866   5.939   2.264
10586TIP3   OH231700   1.729   3.237   6.782
10586TIP3    H131701   1.696   3.162   6.734
10586TIP3    H231702   1.657   3.301   6.778
10587TIP3   OH231703   2.017   5.585   0.894
10587TIP3    H131704   2.062   5.522   0.950
10587TIP3    H231705   1.988   5.655   0.953
10588TIP3   OH231706   1.144   1.697   2.665
10588TIP3    H131707   1.201   1.668   2.594
10588TIP3    H231708   1.118   1.786   2.640
10589TIP3   OH231709   6.839   0.239   5.462
10589TIP3    H131710   6.889   0.220   5.383
10589TIP3    H231711   6.846   0.334   5.473
10590TIP3   OH231712   4.603   3.211   5.639
10590TIP3    H131713   4.619   3.128   5.683
10590TIP3    H231714   4.548   3.261   5.700
10591TIP3   OH231715   1.213   5.737   2.760
10591TIP3    H131716   1.137   5.728   2.816
10591TIP3    H231717   1.206   5.665   2.697
10592TIP3   OH231718   2.385   3.971   4.292
10592TIP3    H131719   2.466   3.994   4.337
10592TIP3    H231720   2.338   4.054   4.282
10593TIP3   OH231721   4.705   1.554   3.098
10593TIP3    H131722   4.676   1.517   3.014
10593TIP3    H231723   4.742   1.480   3.145
10594TIP3   OH231724   1.973   6.260   4.899
10594TIP3    H131725   2.022   6.314   4.961
10594TIP3    H231726   1.911   6.321   4.859
10595TIP3   OH231727   0.312   1.649   2.811
10595TIP3    H131728   0.341   1.604   2.890
10595TIP3    H231729   0.258   1.721   2.843
10596TIP3   OH231730   8.090  -0.016   6.636
10596TIP3    H131731   8.140   0.058   6.672
10596TIP3    H231732   8.012  -0.020   6.691
10597TIP3   OH231733   3.663   7.242   3.894
10597TIP3    H131734   3.598   7.276   3.956
10597TIP3    H231735   3.622   7.251   3.808
10598TIP3   OH231736   4.518   0.453   2.523
10598TIP3    H131737   4.614   0.449   2.519
10598TIP3    H231738   4.490   0.367   2.491
10599TIP3   OH231739   3.106   1.019   4.442
10599TIP3    H131740   3.140   1.097   4.398
10599TIP3    H231741   3.071   1.051   4.524
10600TIP3   OH231742   5.743   3.129   1.935
10600TIP3    H131743   5.657   3.110   1.973
10600TIP3    H231744   5.735   3.101   1.844
10601TIP3   OH231745   1.916   1.127   3.787
10601TIP3    H131746   1.973   1.127   3.864
10601TIP3    H231747   1.851   1.195   3.805
10602TIP3   OH231748   7.725   6.287   5.823
10602TIP3    H131749   7.806   6.263   5.778
10602TIP3    H231750   7.752   6.350   5.889
10603TIP3   OH231751   5.995   0.886   2.209
10603TIP3    H131752   6.053   0.901   2.134
10603TIP3    H231753   5.959   0.972   2.229
10604TIP3   OH231754   5.719   4.322   6.733
10604TIP3    H131755   5.758   4.278   6.809
10604TIP3    H231756   5.789   4.376   6.698
10605TIP3   OH231757   0.206   4.272   6.505
10605TIP3    H131758   0.218   4.276   6.600
10605TIP3    H231759   0.156   4.192   6.490
10606TIP3   OH231760   3.420   5.126   4.847
10606TIP3    H131761   3.359   5.188   4.887
10606TIP3    H231762   3.434   5.160   4.759
10607TIP3   OH231763   2.117   5.926   0.197
10607TIP3    H131764   2.160   5.842   0.180
10607TIP3    H231765   2.175   5.970   0.259
10608TIP3   OH231766   2.831   4.537   1.734
10608TIP3    H131767   2.786   4.475   1.791
10608TIP3    H231768   2.910   4.490   1.704
10609TIP3   OH231769   5.019   2.509   5.816
10609TIP3    H131770   5.075   2.513   5.894
10609TIP3    H231771   4.957   2.439   5.834
10610TIP3   OH231772   2.385   3.887   2.228
10610TIP3    H131773   2.406   3.850   2.142
10610TIP3    H231774   2.462   3.937   2.253
10611TIP3   OH231775   0.177   1.915   4.143
10611TIP3    H131776   0.203   1.994   4.190
10611TIP3    H231777   0.170   1.942   4.051
10612TIP3   OH231778   1.908   6.302   2.843
10612TIP3    H131779   1.860   6.231   2.886
10612TIP3    H231780   1.994   6.266   2.825
10613TIP3   OH231781   4.414   3.955   1.597
10613TIP3    H131782   4.333   3.975   1.549
10613TIP3    H231783   4.479   4.013   1.558
10614TIP3   OH231784   3.165   4.598   4.247
10614TIP3    H131785   3.215   4.598   4.329
10614TIP3    H231786   3.178   4.510   4.212
10615TIP3   OH231787   4.292   6.166   5.145
10615TIP3    H131788   4.272   6.207   5.061
10615TIP3    H231789   4.237   6.211   5.208
10616TIP3   OH231790   3.959   4.513   4.292
10616TIP3    H131791   3.869   4.480   4.284
10616TIP3    H231792   3.952   4.606   4.274
10617TIP3   OH231793   1.323   5.781   6.025
10617TIP3    H131794   1.382   5.855   6.038
10617TIP3    H231795   1.380   5.704   6.028
10618TIP3   OH231796   3.692   4.241   0.973
10618TIP3    H131797   3.613   4.284   0.941
10618TIP3    H231798   3.721   4.295   1.046
10619TIP3   OH231799   0.554   3.066   1.546
10619TIP3    H131800   0.579   3.156   1.564
10619TIP3    H231801   0.612   3.013   1.602
10620TIP3   OH231802   0.422   6.644   3.588
10620TIP3    H131803   0.380   6.564   3.558
10620TIP3    H231804   0.409   6.644   3.683
10621TIP3   OH231805   2.024   2.147   0.015
10621TIP3    H131806   2.095   2.209   0.028
10621TIP3    H231807   2.031   2.087   0.090
10622TIP3   OH231808   7.483   1.843   6.269
10622TIP3    H131809   7.464   1.797   6.350
10622TIP3    H231810   7.398   1.850   6.225
10623TIP3   OH231811   6.187   3.577   1.927
10623TIP3    H131812   6.203   3.495   1.881
10623TIP3    H231813   6.192   3.644   1.859
10624TIP3   OH231814   0.184   1.175   6.344
10624TIP3    H131815   0.236   1.108   6.390
10624TIP3    H231816   0.101   1.131   6.324
10625TIP3   OH231817   2.899   2.563   2.040
10625TIP3    H131818   2.942   2.598   1.962
10625TIP3    H231819   2.871   2.640   2.089
10626TIP3   OH231820   5.359   7.830   3.947
10626TIP3    H131821   5.365   7.738   3.925
10626TIP3    H231822   5.268   7.854   3.930
10627TIP3   OH231823   4.949   6.424   1.199
10627TIP3    H131824   4.986   6.483   1.266
10627TIP3    H231825   4.930   6.482   1.125
10628TIP3   OH231826   7.759   1.559   5.665
10628TIP3    H131827   7.670   1.534   5.640
10628TIP3    H231828   7.813   1.484   5.640
10629TIP3   OH231829   7.966   6.070   3.283
10629TIP3    H131830   8.027   6.084   3.355
10629TIP3    H231831   7.902   6.009   3.318
10630TIP3   OH231832   4.418   2.655   1.411
10630TIP3    H131833   4.396   2.723   1.475
10630TIP3    H231834   4.356   2.585   1.429
10631TIP3   OH231835   0.271   7.789   1.152
10631TIP3    H131836   0.364   7.800   1.130
10631TIP3    H231837   0.252   7.698   1.128
10632TIP3   OH231838   6.071   5.856   1.915
10632TIP3    H131839   6.037   5.836   1.828
10632TIP3    H231840   6.003   5.911   1.955
10633TIP3   OH231841   3.036   2.275   4.342
10633TIP3    H131842   2.973   2.238   4.280
10633TIP3    H231843   2.985   2.293   4.421
10634TIP3   OH231844   8.061   5.481   6.436
10634TIP3    H131845   8.036   5.451   6.523
10634TIP3    H231846   8.152   5.452   6.426
10635TIP3   OH231847   1.764   1.134   5.384
10635TIP3    H131848   1.853   1.146   5.350
10635TIP3    H231849   1.775   1.127   5.479
10636TIP3   OH231850   4.724   2.126   0.666
10636TIP3    H131851   4.683   2.067   0.603
10636TIP3    H231852   4.781   2.070   0.718
10637TIP3   OH231853   0.852   6.716   1.867
10637TIP3    H131854   0.763   6.684   1.883
10637TIP3    H231855   0.879   6.756   1.949
10638TIP3   OH231856   6.669   0.012   0.665
10638TIP3    H131857   6.763   0.026   0.655
10638TIP3    H231858   6.650   0.035   0.756
10639TIP3   OH231859   1.570   2.906   4.187
10639TIP3    H131860   1.626   2.852   4.243
10639TIP3    H231861   1.625   2.925   4.110
10640TIP3   OH231862   0.483   0.973   6.426
10640TIP3    H131863   0.415   0.933   6.372
10640TIP3    H231864   0.559   0.981   6.368
10641TIP3   OH231865   0.972   5.485   5.994
10641TIP3    H131866   1.058   5.451   6.021
10641TIP3    H231867   0.909   5.435   6.046
10642TIP3   OH231868   1.848   1.220   0.321
10642TIP3    H131869   1.903   1.148   0.351
10642TIP3    H231870   1.795   1.243   0.397
10643TIP3   OH231871   7.628   2.861   3.753
10643TIP3    H131872   7.570   2.819   3.690
10643TIP3    H231873   7.586   2.944   3.774
10644TIP3   OH231874   2.177   1.184   1.408
10644TIP3    H131875   2.154   1.251   1.473
10644TIP3    H231876   2.197   1.234   1.329
10645TIP3   OH231877   3.839   5.530   0.291
10645TIP3    H131878   3.795   5.457   0.249
10645TIP3    H231879   3.768   5.584   0.326
10646TIP3   OH231880   3.065   4.883   2.568
10646TIP3    H131881   2.991   4.847   2.517
10646TIP3    H231882   3.072   4.824   2.643
10647TIP3   OH231883   3.460   0.708   2.713
10647TIP3    H131884   3.367   0.719   2.697
10647TIP3    H231885   3.493   0.664   2.634
10648TIP3   OH231886   4.990   1.260   4.225
10648TIP3    H131887   5.025   1.346   4.248
10648TIP3    H231888   4.907   1.279   4.180
10649TIP3   OH231889   1.431   3.117   3.817
10649TIP3    H131890   1.396   3.078   3.737
10649TIP3    H231891   1.368   3.094   3.885
10650TIP3   OH231892   2.297   2.922   2.590
10650TIP3    H131893   2.354   2.953   2.520
10650TIP3    H231894   2.209   2.936   2.556
10651TIP3   OH231895   2.788   2.661   1.037
10651TIP3    H131896   2.768   2.585   0.983
10651TIP3    H231897   2.780   2.736   0.978
10652TIP3   OH231898   5.974   0.451   3.305
10652TIP3    H131899   6.021   0.535   3.307
10652TIP3    H231900   5.881   0.476   3.308
10653TIP3   OH231901   1.147   2.722   2.032
10653TIP3    H131902   1.083   2.788   2.005
10653TIP3    H231903   1.094   2.647   2.057
10654TIP3   OH231904   3.373   3.885   0.471
10654TIP3    H131905   3.287   3.920   0.449
10654TIP3    H231906   3.381   3.806   0.417
10655TIP3   OH231907   4.044   3.728   0.165
10655TIP3    H131908   4.019   3.673   0.091
10655TIP3    H231909   4.057   3.815   0.128
10656TIP3   OH231910   5.190   3.116   3.250
10656TIP3    H131911   5.142   3.191   3.284
10656TIP3    H231912   5.272   3.116   3.299
10657TIP3   OH231913   1.050   5.686   4.820
10657TIP3    H131914   1.118   5.663   4.883
10657TIP3    H231915   0.973   5.636   4.848
10658TIP3   OH231916   0.481   4.754   5.289
10658TIP3    H131917   0.561   4.791   5.325
10658TIP3    H231918   0.411   4.809   5.326
10659TIP3   OH231919   1.328   2.243   2.103
10659TIP3    H131920   1.270   2.291   2.043
10659TIP3    H231921   1.391   2.309   2.132
10660TIP3   OH231922   2.532   1.858   6.219
10660TIP3    H131923   2.523   1.803   6.142
10660TIP3    H231924   2.475   1.817   6.284
10661TIP3   OH231925   5.326   3.291   2.560
10661TIP3    H131926   5.413   3.324   2.537
10661TIP3    H231927   5.283   3.276   2.476
10662TIP3   OH231928   7.057   6.430   0.592
10662TIP3    H131929   6.994   6.399   0.657
10662TIP3    H231930   7.005   6.484   0.532
10663TIP3   OH231931   4.460   1.693   5.751
10663TIP3    H131932   4.427   1.674   5.664
10663TIP3    H231933   4.381   1.709   5.804
10664TIP3   OH231934   1.974   6.991   4.867
10664TIP3    H131935   2.024   6.912   4.847
10664TIP3    H231936   1.889   6.960   4.899
10665TIP3   OH231937   5.151   7.117   5.142
10665TIP3    H131938   5.206   7.060   5.195
10665TIP3    H231939   5.120   7.060   5.071
10666TIP3   OH231940   1.395   0.170   3.149
10666TIP3    H131941   1.362   0.091   3.106
10666TIP3    H231942   1.489   0.155   3.158
10667TIP3   OH231943   2.020   0.631   1.141
10667TIP3    H131944   1.987   0.543   1.122
10667TIP3    H231945   2.060   0.623   1.228
10668TIP3   OH231946   3.481   1.802   0.881
10668TIP3    H131947   3.454   1.892   0.898
10668TIP3    H231948   3.491   1.763   0.968
10669TIP3   OH231949   1.091   0.801   5.613
10669TIP3    H131950   1.041   0.882   5.623
10669TIP3    H231951   1.182   0.829   5.615
10670TIP3   OH231952   0.919   1.446   0.123
10670TIP3    H131953   0.880   1.367   0.161
10670TIP3    H231954   0.959   1.491   0.198
10671TIP3   OH231955   6.652   4.746   1.314
10671TIP3    H131956   6.611   4.663   1.290
10671TIP3    H231957   6.583   4.811   1.300
10672TIP3   OH231958   5.903   4.623   3.056
10672TIP3    H131959   5.991   4.660   3.058
10672TIP3    H231960   5.886   4.597   3.147
10673TIP3   OH231961   1.259   0.866   1.930
10673TIP3    H131962   1.296   0.779   1.938
10673TIP3    H231963   1.314   0.922   1.984
10674TIP3   OH231964   5.472   0.019   6.576
10674TIP3    H131965   5.532  -0.055   6.588
10674TIP3    H231966   5.481   0.041   6.483
10675TIP3   OH231967   0.666   3.976   4.098
10675TIP3    H131968   0.615   3.915   4.046
10675TIP3    H231969   0.752   3.976   4.056
10676TIP3   OH231970   5.013   2.085   2.938
10676TIP3    H131971   4.921   2.080   2.913
10676TIP3    H231972   5.029   2.005   2.988
10677TIP3   OH231973   2.911   6.074   6.122
10677TIP3    H131974   2.992   6.124   6.139
10677TIP3    H231975   2.851   6.103   6.191
10678TIP3   OH231976   1.592   7.532   3.465
10678TIP3    H131977   1.591   7.440   3.438
10678TIP3    H231978   1.554   7.531   3.553
10679TIP3   OH231979   4.799   7.842   0.010
10679TIP3    H131980   4.775   7.813   0.097
10679TIP3    H231981   4.766   7.774  -0.049
10680TIP3   OH231982   6.055   3.625   3.348
10680TIP3    H131983   6.111   3.553   3.378
10680TIP3    H231984   6.110   3.675   3.288
10681TIP3   OH231985   0.840   7.558   3.846
10681TIP3    H131986   0.803   7.646   3.840
10681TIP3    H231987   0.786   7.506   3.785
10682TIP3   OH231988   3.984   3.108   2.851
10682TIP3    H131989   4.070   3.126   2.813
10682TIP3    H231990   4.003   3.067   2.935
10683TIP3   OH231991   5.863   3.485   4.518
10683TIP3    H131992   5.863   3.560   4.577
10683TIP3    H231993   5.774   3.449   4.524
10684TIP3   OH231994   7.207   3.820   1.687
10684TIP3    H131995   7.225   3.874   1.611
10684TIP3    H231996   7.185   3.734   1.651
10685TIP3   OH231997   5.243   3.917   1.591
10685TIP3    H131998   5.165   3.949   1.546
10685TIP3    H231999   5.297   3.878   1.522
10686TIP3   OH232000   3.937   0.186   2.684
10686TIP3    H132001   3.933   0.213   2.775
10686TIP3    H232002   3.942   0.268   2.634
10687TIP3   OH232003   2.065   0.834   2.917
10687TIP3    H132004   1.987   0.875   2.880
10687TIP3    H232005   2.138   0.881   2.878
10688TIP3   OH232006   4.299   2.749   2.569
10688TIP3    H132007   4.255   2.830   2.594
10688TIP3    H232008   4.274   2.687   2.638
10689TIP3   OH232009   5.886   0.056   2.585
10689TIP3    H132010   5.953  -0.007   2.560
10689TIP3    H232011   5.845   0.019   2.663
10690TIP3   OH232012   2.438   5.562   6.541
10690TIP3    H132013   2.460   5.597   6.455
10690TIP3    H232014   2.499   5.489   6.553
10691TIP3   OH232015   0.072   3.914   6.222
10691TIP3    H132016   0.038   3.824   6.218
10691TIP3    H232017   0.085   3.930   6.315
10692TIP3   OH232018   4.006   1.833   2.669
10692TIP3    H132019   4.093   1.794   2.669
10692TIP3    H232020   3.955   1.780   2.730
10693TIP3   OH232021   4.987   0.935   1.260
10693TIP3    H132022   4.935   0.967   1.335
10693TIP3    H232023   4.930   0.948   1.184
10694TIP3   OH232024   0.452   3.747   5.312
10694TIP3    H132025   0.514   3.807   5.352
10694TIP3    H232026   0.504   3.669   5.291
10695TIP3   OH232027   4.023   2.448   5.603
10695TIP3    H132028   4.012   2.531   5.650
10695TIP3    H232029   3.966   2.456   5.526
10696TIP3   OH232030   3.973   4.898   5.233
10696TIP3    H132031   4.028   4.977   5.232
10696TIP3    H232032   3.918   4.908   5.311
10697TIP3   OH232033   1.716   0.406   2.462
10697TIP3    H132034   1.712   0.311   2.449
10697TIP3    H232035   1.806   0.422   2.491
10698TIP3   OH232036   6.705   0.382   1.135
10698TIP3    H132037   6.719   0.410   1.045
10698TIP3    H232038   6.614   0.352   1.137
10699TIP3   OH232039   1.521   0.449   0.058
10699TIP3    H132040   1.551   0.381  -0.002
10699TIP3    H232041   1.600   0.496   0.082
10700TIP3   OH232042   6.554   2.325   0.859
10700TIP3    H132043   6.466   2.296   0.837
10700TIP3    H232044   6.561   2.314   0.954
10701TIP3   OH232045   3.637   6.720   4.121
10701TIP3    H132046   3.730   6.719   4.143
10701TIP3    H232047   3.617   6.812   4.105
10702TIP3   OH232048   6.688   2.521   6.592
10702TIP3    H132049   6.778   2.497   6.571
10702TIP3    H232050   6.671   2.601   6.543
10703TIP3   OH232051   8.279   4.368   1.438
10703TIP3    H132052   8.188   4.358   1.411
10703TIP3    H232053   8.274   4.425   1.515
10704TIP3   OH232054   2.031   5.176   0.979
10704TIP3    H132055   1.996   5.090   1.005
10704TIP3    H232056   2.108   5.156   0.926
10705TIP3   OH232057   6.938   6.065   3.443
10705TIP3    H132058   6.845   6.059   3.466
10705TIP3    H232059   6.961   5.976   3.414
10706TIP3   OH232060   6.890   3.053   2.180
10706TIP3    H132061   6.855   2.974   2.222
10706TIP3    H232062   6.944   3.020   2.108
10707TIP3   OH232063   8.265   5.428   6.123
10707TIP3    H132064   8.214   5.349   6.140
10707TIP3    H232065   8.209   5.500   6.152
10708TIP3   OH232066   6.701   3.022   5.285
10708TIP3    H132067   6.654   3.096   5.322
10708TIP3    H232068   6.632   2.966   5.249
10709TIP3   OH232069   1.951   4.727   3.867
10709TIP3    H132070   2.044   4.740   3.889
10709TIP3    H232071   1.905   4.742   3.950
10710TIP3   OH232072   2.753   4.331   3.761
10710TIP3    H132073   2.779   4.370   3.845
10710TIP3    H232074   2.664   4.299   3.777
10711TIP3   OH232075   4.007   0.647   4.718
10711TIP3    H132076   3.982   0.562   4.682
10711TIP3    H232077   4.034   0.698   4.642
10712TIP3   OH232078   3.014   7.741   2.810
10712TIP3    H132079   2.957   7.700   2.874
10712TIP3    H232080   3.102   7.735   2.847
10713TIP3   OH232081   4.023   0.416   1.703
10713TIP3    H132082   3.933   0.434   1.676
10713TIP3    H232083   4.076   0.476   1.651
10714TIP3   OH232084   0.748   0.813   2.258
10714TIP3    H132085   0.753   0.883   2.323
10714TIP3    H232086   0.803   0.844   2.185
10715TIP3   OH232087   5.759   6.539   0.243
10715TIP3    H132088   5.810   6.461   0.264
10715TIP3    H232089   5.792   6.606   0.303
10716TIP3   OH232090   2.966   0.675   3.487
10716TIP3    H132091   2.969   0.668   3.392
10716TIP3    H232092   2.960   0.768   3.505
10717TIP3   OH232093   4.069   0.212   3.271
10717TIP3    H132094   4.004   0.248   3.211
10717TIP3    H232095   4.045   0.120   3.281
10718TIP3   OH232096   1.871   5.389   6.710
10718TIP3    H132097   1.867   5.384   6.805
10718TIP3    H232098   1.964   5.381   6.689
10719TIP3   OH232099   0.897   6.197   3.877
10719TIP3    H132100   0.971   6.257   3.864
10719TIP3    H232101   0.831   6.250   3.922
10720TIP3   OH232102   5.823   7.214   1.131
10720TIP3    H132103   5.865   7.283   1.182
10720TIP3    H232104   5.745   7.190   1.181
10721TIP3   OH232105   7.313   1.540   0.877
10721TIP3    H132106   7.332   1.509   0.965
10721TIP3    H232107   7.359   1.480   0.819
10722TIP3   OH232108   6.300   5.291   5.059
10722TIP3    H132109   6.389   5.258   5.071
10722TIP3    H232110   6.267   5.305   5.148
10723TIP3   OH232111   0.269   1.992   1.542
10723TIP3    H132112   0.283   1.919   1.603
10723TIP3    H232113   0.357   2.024   1.523
10724TIP3   OH232114   2.782   3.196   1.255
10724TIP3    H132115   2.772   3.284   1.291
10724TIP3    H232116   2.779   3.209   1.160
10725TIP3   OH232117   6.778   5.417   1.797
10725TIP3    H132118   6.705   5.380   1.748
10725TIP3    H232119   6.823   5.474   1.735
10726TIP3   OH232120   1.405   5.876   4.608
10726TIP3    H132121   1.389   5.962   4.646
10726TIP3    H232122   1.451   5.827   4.676
10727TIP3   OH232123   5.355   3.671   3.526
10727TIP3    H132124   5.260   3.678   3.523
10727TIP3    H232125   5.378   3.693   3.616
10728TIP3   OH232126   5.464   5.248   0.254
10728TIP3    H132127   5.401   5.176   0.240
10728TIP3    H232128   5.537   5.227   0.195
10729TIP3   OH232129   2.648   4.332   5.732
10729TIP3    H132130   2.603   4.277   5.796
10729TIP3    H232131   2.643   4.420   5.768
10730TIP3   OH232132   0.451   0.236   6.227
10730TIP3    H132133   0.377   0.213   6.171
10730TIP3    H232134   0.512   0.163   6.217
10731TIP3   OH232135   4.583   7.554   3.882
10731TIP3    H132136   4.551   7.639   3.853
10731TIP3    H232137   4.676   7.554   3.859
10732TIP3   OH232138   6.927   4.323   3.396
10732TIP3    H132139   6.937   4.229   3.379
10732TIP3    H232140   6.922   4.363   3.309
10733TIP3   OH232141   2.835   5.334   0.089
10733TIP3    H132142   2.810   5.310   0.178
10733TIP3    H232143   2.898   5.267   0.063
10734TIP3   OH232144   4.387   5.652   5.251
10734TIP3    H132145   4.445   5.597   5.198
10734TIP3    H232146   4.430   5.737   5.253
10735TIP3   OH232147   6.475   3.287   2.582
10735TIP3    H132148   6.419   3.244   2.517
10735TIP3    H232149   6.468   3.380   2.562
10736TIP3   OH232150   0.320   0.853   6.250
10736TIP3    H132151   0.357   0.788   6.191
10736TIP3    H232152   0.227   0.854   6.229
10737TIP3   OH232153   5.211   6.627   1.015
10737TIP3    H132154   5.208   6.531   1.022
10737TIP3    H232155   5.236   6.644   0.924
10738TIP3   OH232156   6.536   6.220   0.453
10738TIP3    H132157   6.627   6.246   0.441
10738TIP3    H232158   6.521   6.228   0.547
10739TIP3   OH232159   6.644   4.537   3.200
10739TIP3    H132160   6.599   4.469   3.251
10739TIP3    H232161   6.601   4.619   3.226
10740TIP3   OH232162   7.672   7.000   4.097
10740TIP3    H132163   7.579   7.018   4.085
10740TIP3    H232164   7.713   7.031   4.017
10741TIP3   OH232165   5.986   6.117   6.094
10741TIP3    H132166   6.040   6.052   6.050
10741TIP3    H232167   5.928   6.150   6.026
10742TIP3   OH232168   1.883   3.906   5.915
10742TIP3    H132169   1.812   3.969   5.904
10742TIP3    H232170   1.887   3.891   6.010
10743TIP3   OH232171   3.210   7.021   3.665
10743TIP3    H132172   3.189   7.086   3.732
10743TIP3    H232173   3.195   6.937   3.709
10744TIP3   OH232174   3.432   4.538   3.898
10744TIP3    H132175   3.359   4.478   3.910
10744TIP3    H232176   3.483   4.501   3.826
10745TIP3   OH232177   5.584   1.897   3.153
10745TIP3    H132178   5.645   1.834   3.115
10745TIP3    H232179   5.640   1.961   3.197
10746TIP3   OH232180   6.623   5.942   2.962
10746TIP3    H132181   6.571   6.013   2.999
10746TIP3    H232182   6.696   5.986   2.918
10747TIP3   OH232183   4.765   2.680   5.041
10747TIP3    H132184   4.769   2.646   5.130
10747TIP3    H232185   4.725   2.609   4.990
10748TIP3   OH232186   7.851   1.229   1.875
10748TIP3    H132187   7.850   1.136   1.898
10748TIP3    H232188   7.761   1.258   1.892
10749TIP3   OH232189   1.989   6.623   4.438
10749TIP3    H132190   1.923   6.587   4.497
10749TIP3    H232191   1.938   6.667   4.369
10750TIP3   OH232192   2.530   1.741   2.109
10750TIP3    H132193   2.492   1.728   2.195
10750TIP3    H232194   2.492   1.672   2.055
10751TIP3   OH232195   0.578   5.596   2.717
10751TIP3    H132196   0.653   5.557   2.761
10751TIP3    H232197   0.577   5.687   2.746
10752TIP3   OH232198   3.980   6.838   1.326
10752TIP3    H132199   4.014   6.777   1.392
10752TIP3    H232200   3.916   6.891   1.374
10753TIP3   OH232201   7.060   5.808   5.889
10753TIP3    H132202   7.111   5.888   5.877
10753TIP3    H232203   7.043   5.776   5.801
10754TIP3   OH232204   4.090   2.604   3.175
10754TIP3    H132205   4.112   2.605   3.082
10754TIP3    H232206   4.000   2.638   3.179
10755TIP3   OH232207   5.277   7.488   3.433
10755TIP3    H132208   5.248   7.556   3.373
10755TIP3    H232209   5.264   7.406   3.385
10756TIP3   OH232210   5.309   7.028   5.352
10756TIP3    H132211   5.391   7.075   5.341
10756TIP3    H232212   5.281   7.050   5.441
10757TIP3   OH232213   5.462   0.770   4.585
10757TIP3    H132214   5.426   0.692   4.628
10757TIP3    H232215   5.398   0.790   4.516
10758TIP3   OH232216   6.033   0.283   0.319
10758TIP3    H132217   5.957   0.237   0.283
10758TIP3    H232218   6.108   0.240   0.280
10759TIP3   OH232219   2.596   7.662   2.282
10759TIP3    H132220   2.586   7.636   2.190
10759TIP3    H232221   2.561   7.751   2.285
10760TIP3   OH232222   7.630   5.528   3.328
10760TIP3    H132223   7.650   5.436   3.346
10760TIP3    H232224   7.607   5.564   3.414
10761TIP3   OH232225   4.295   1.664   2.671
10761TIP3    H132226   4.317   1.635   2.759
10761TIP3    H232227   4.334   1.599   2.614
10762TIP3   OH232228   3.725   0.895   1.230
10762TIP3    H132229   3.652   0.854   1.276
10762TIP3    H232230   3.693   0.905   1.140
10763TIP3   OH232231   3.339   3.070   5.105
10763TIP3    H132232   3.342   3.087   5.011
10763TIP3    H232233   3.314   3.153   5.144
10764TIP3   OH232234   0.663   3.560   4.131
10764TIP3    H132235   0.740   3.514   4.164
10764TIP3    H232236   0.592   3.530   4.187
10765TIP3   OH232237   3.989   0.134   6.391
10765TIP3    H132238   3.979   0.058   6.333
10765TIP3    H232239   3.900   0.164   6.408
10766TIP3   OH232240   1.129   5.465   2.659
10766TIP3    H132241   1.110   5.394   2.597
10766TIP3    H232242   1.042   5.499   2.683
10767TIP3   OH232243   6.578   1.577   4.288
10767TIP3    H132244   6.584   1.670   4.310
10767TIP3    H232245   6.500   1.546   4.335
10768TIP3   OH232246   4.712   7.534   5.620
10768TIP3    H132247   4.692   7.464   5.682
10768TIP3    H232248   4.807   7.541   5.621
10769TIP3   OH232249   2.492   3.961   2.673
10769TIP3    H132250   2.447   3.891   2.720
10769TIP3    H232251   2.576   3.970   2.718
10770TIP3   OH232252   0.915   7.392   0.723
10770TIP3    H132253   1.007   7.391   0.750
10770TIP3    H232254   0.894   7.485   0.713
10771TIP3   OH232255   3.774   4.950   2.130
10771TIP3    H132256   3.720   4.948   2.209
10771TIP3    H232257   3.853   4.902   2.153
10772TIP3   OH232258   3.561   4.699   1.112
10772TIP3    H132259   3.557   4.786   1.073
10772TIP3    H232260   3.471   4.666   1.107
10773TIP3   OH232261   1.086   6.894   3.986
10773TIP3    H132262   1.178   6.917   3.976
10773TIP3    H232263   1.042   6.978   4.000
10774TIP3   OH232264   1.945   5.216   3.941
10774TIP3    H132265   1.878   5.164   3.987
10774TIP3    H232266   2.001   5.151   3.899
10775TIP3   OH232267   1.112   3.057   1.412
10775TIP3    H132268   1.095   3.119   1.340
10775TIP3    H232269   1.181   3.000   1.380
10776TIP3   OH232270   0.410   3.153   1.834
10776TIP3    H132271   0.468   3.108   1.895
10776TIP3    H232272   0.440   3.126   1.747
10777TIP3   OH232273   3.587   7.500   6.321
10777TIP3    H132274   3.564   7.540   6.405
10777TIP3    H232275   3.639   7.567   6.277
10778TIP3   OH232276   2.652   3.953   5.184
10778TIP3    H132277   2.589   3.884   5.205
10778TIP3    H232278   2.649   4.012   5.259
10779TIP3   OH232279   7.198   4.056   6.686
10779TIP3    H132280   7.269   4.026   6.743
10779TIP3    H232281   7.177   4.144   6.719
10780TIP3   OH232282   7.818   1.643   6.394
10780TIP3    H132283   7.792   1.694   6.470
10780TIP3    H232284   7.897   1.597   6.420
10781TIP3   OH232285   0.516   0.434   0.471
10781TIP3    H132286   0.482   0.522   0.455
10781TIP3    H232287   0.443   0.376   0.453
10782TIP3   OH232288   1.202   1.090   2.289
10782TIP3    H132289   1.216   1.164   2.348
10782TIP3    H232290   1.203   1.014   2.346
10783TIP3   OH232291   7.978   6.255   2.306
10783TIP3    H132292   7.937   6.222   2.385
10783TIP3    H232293   8.001   6.346   2.326
10784TIP3   OH232294   4.186   5.385   5.128
10784TIP3    H132295   4.279   5.361   5.131
10784TIP3    H232296   4.176   5.449   5.198
10785TIP3   OH232297   7.090   0.616   4.917
10785TIP3    H132298   7.018   0.559   4.891
10785TIP3    H232299   7.098   0.680   4.846
10786TIP3   OH232300   7.697   1.665   5.274
10786TIP3    H132301   7.609   1.689   5.302
10786TIP3    H232302   7.755   1.713   5.333
10787TIP3   OH232303   4.592   7.383   1.886
10787TIP3    H132304   4.513   7.336   1.909
10787TIP3    H232305   4.664   7.329   1.919
10788TIP3   OH232306   4.046   4.250   2.312
10788TIP3    H132307   3.959   4.226   2.281
10788TIP3    H232308   4.075   4.319   2.252
10789TIP3   OH232309   2.247   4.481   1.803
10789TIP3    H132310   2.242   4.576   1.800
10789TIP3    H232311   2.275   4.460   1.892
10790TIP3   OH232312   7.794   1.186   4.463
10790TIP3    H132313   7.877   1.139   4.478
10790TIP3    H232314   7.789   1.194   4.367
10791TIP3   OH232315   6.111   7.286   1.991
10791TIP3    H132316   6.087   7.339   1.915
10791TIP3    H232317   6.125   7.198   1.955
10792TIP3   OH232318   7.539   2.850   2.281
10792TIP3    H132319   7.586   2.780   2.326
10792TIP3    H232320   7.479   2.884   2.347
10793TIP3   OH232321   7.455   1.254   5.389
10793TIP3    H132322   7.483   1.163   5.378
10793TIP3    H232323   7.360   1.249   5.395
10794TIP3   OH232324   5.895   3.581   4.997
10794TIP3    H132325   5.843   3.559   5.075
10794TIP3    H232326   5.984   3.551   5.019
10795TIP3   OH232327   7.398   4.961   3.822
10795TIP3    H132328   7.373   4.869   3.823
10795TIP3    H232329   7.347   4.999   3.750
10796TIP3   OH232330   2.809   5.569   6.074
10796TIP3    H132331   2.768   5.655   6.059
10796TIP3    H232332   2.847   5.546   5.990
10797TIP3   OH232333   1.078   3.933   5.205
10797TIP3    H132334   1.103   3.882   5.283
10797TIP3    H232335   1.081   3.869   5.134
10798TIP3   OH232336   4.576   2.458   3.737
10798TIP3    H132337   4.524   2.424   3.809
10798TIP3    H232338   4.622   2.382   3.702
10799TIP3   OH232339   6.971   3.561   3.067
10799TIP3    H132340   6.910   3.524   3.132
10799TIP3    H232341   7.050   3.578   3.117
10800TIP3   OH232342   1.559   1.617   5.134
10800TIP3    H132343   1.535   1.525   5.147
10800TIP3    H232344   1.477   1.665   5.141
10801TIP3   OH232345   1.305   0.324   2.874
10801TIP3    H132346   1.233   0.374   2.909
10801TIP3    H232347   1.333   0.267   2.946
10802TIP3   OH232348   0.298   5.487   6.497
10802TIP3    H132349   0.344   5.438   6.565
10802TIP3    H232350   0.223   5.432   6.474
10803TIP3   OH232351   6.027   5.742   0.155
10803TIP3    H132352   6.018   5.648   0.166
10803TIP3    H232353   6.030   5.776   0.244
10804TIP3   OH232354   7.895   2.694   2.211
10804TIP3    H132355   7.825   2.660   2.267
10804TIP3    H232356   7.950   2.746   2.269
10805TIP3   OH232357   3.253   5.423   5.462
10805TIP3    H132358   3.245   5.348   5.403
10805TIP3    H232359   3.302   5.488   5.411
10806TIP3   OH232360   8.140   0.637   4.530
10806TIP3    H132361   8.059   0.688   4.540
10806TIP3    H232362   8.205   0.686   4.581
10807TIP3   OH232363   2.971   4.056   1.721
10807TIP3    H132364   2.987   3.963   1.735
10807TIP3    H232365   2.951   4.063   1.628
10808TIP3   OH232366   5.498   2.904   2.931
10808TIP3    H132367   5.511   2.961   2.856
10808TIP3    H232368   5.420   2.938   2.974
10809TIP3   OH232369   5.533   7.538   1.593
10809TIP3    H132370   5.532   7.536   1.497
10809TIP3    H232371   5.597   7.472   1.618
10810TIP3   OH232372   4.843   5.548   2.241
10810TIP3    H132373   4.864   5.618   2.179
10810TIP3    H232374   4.848   5.590   2.327
10811TIP3   OH232375   2.596   5.432   0.019
10811TIP3    H132376   2.553   5.398   0.097
10811TIP3    H232377   2.688   5.407   0.029
10812TIP3   OH232378   7.126   4.496   4.238
10812TIP3    H132379   7.045   4.447   4.255
10812TIP3    H232380   7.185   4.432   4.198
10813TIP3   OH232381   7.132   2.398   2.253
10813TIP3    H132382   7.083   2.381   2.333
10813TIP3    H232383   7.131   2.493   2.244
10814TIP3   OH232384   4.146   3.842   1.652
10814TIP3    H132385   4.051   3.836   1.642
10814TIP3    H232386   4.182   3.808   1.570
10815TIP3   OH232387   0.672   2.108   3.735
10815TIP3    H132388   0.707   2.134   3.650
10815TIP3    H232389   0.714   2.025   3.754
10816TIP3   OH232390   6.907   6.883   0.441
10816TIP3    H132391   6.826   6.911   0.483
10816TIP3    H232392   6.975   6.936   0.482
10817TIP3   OH232393   8.103   0.112   5.466
10817TIP3    H132394   8.144   0.107   5.553
10817TIP3    H232395   8.090   0.206   5.450
10818TIP3   OH232396   4.421   5.396   3.300
10818TIP3    H132397   4.473   5.340   3.358
10818TIP3    H232398   4.372   5.454   3.358
10819TIP3   OH232399   6.366   4.683   4.692
10819TIP3    H132400   6.392   4.774   4.676
10819TIP3    H232401   6.282   4.690   4.737
10820TIP3   OH232402   0.476   0.522   6.484
10820TIP3    H132403   0.546   0.476   6.530
10820TIP3    H232404   0.498   0.513   6.391
10821TIP3   OH232405   0.747   3.743   1.629
10821TIP3    H132406   0.653   3.751   1.647
10821TIP3    H232407   0.784   3.705   1.709
10822TIP3   OH232408   2.937   5.048   2.998
10822TIP3    H132409   3.022   5.010   2.978
10822TIP3    H232410   2.950   5.142   2.987
10823TIP3   OH232411   0.249   1.988   5.606
10823TIP3    H132412   0.155   2.007   5.604
10823TIP3    H232413   0.265   1.939   5.525
10824TIP3   OH232414   0.944   4.827   3.097
10824TIP3    H132415   0.860   4.819   3.142
10824TIP3    H232416   0.942   4.913   3.055
10825TIP3   OH232417   1.237   4.744   6.491
10825TIP3    H132418   1.193   4.705   6.415
10825TIP3    H232419   1.182   4.722   6.565
10826TIP3   OH232420   7.018   3.988   1.199
10826TIP3    H132421   7.011   4.006   1.106
10826TIP3    H232422   7.064   3.904   1.205
10827TIP3   OH232423   7.337   7.658   0.141
10827TIP3    H132424   7.261   7.712   0.118
10827TIP3    H232425   7.401   7.675   0.071
10828TIP3   OH232426   7.646   7.569   4.731
10828TIP3    H132427   7.645   7.663   4.750
10828TIP3    H232428   7.648   7.565   4.635
10829TIP3   OH232429   2.028   4.398   2.208
10829TIP3    H132430   2.057   4.424   2.295
10829TIP3    H232431   1.933   4.396   2.214
10830TIP3   OH232432   0.927   7.190   0.488
10830TIP3    H132433   1.006   7.138   0.475
10830TIP3    H232434   0.949   7.250   0.560
10831TIP3   OH232435   6.240   3.387   1.208
10831TIP3    H132436   6.229   3.476   1.243
10831TIP3    H232437   6.229   3.398   1.113
10832TIP3   OH232438   3.476   2.178   5.989
10832TIP3    H132439   3.562   2.137   5.987
10832TIP3    H232440   3.477   2.241   5.917
10833TIP3   OH232441   3.108   5.584   6.011
10833TIP3    H132442   3.030   5.591   5.956
10833TIP3    H232443   3.133   5.674   6.029
10834TIP3   OH232444   0.607   7.711   0.653
10834TIP3    H132445   0.558   7.734   0.574
10834TIP3    H232446   0.543   7.669   0.710
10835TIP3   OH232447   1.929   4.818   1.671
10835TIP3    H132448   1.900   4.849   1.756
10835TIP3    H232449   1.915   4.723   1.674
10836TIP3   OH232450   5.553   7.009   6.035
10836TIP3    H132451   5.545   6.926   6.082
10836TIP3    H232452   5.583   7.071   6.101
10837TIP3   OH232453   0.278   7.436   5.950
10837TIP3    H132454   0.269   7.485   6.032
10837TIP3    H232455   0.216   7.477   5.890
10838TIP3   OH232456   0.953   2.887   6.221
10838TIP3    H132457   0.946   2.849   6.133
10838TIP3    H232458   0.885   2.843   6.271
10839TIP3   OH232459   0.137   1.741   0.033
10839TIP3    H132460   0.089   1.669   0.074
10839TIP3    H232461   0.188   1.699  -0.036
10840TIP3   OH232462   6.301   3.664   5.291
10840TIP3    H132463   6.247   3.722   5.345
10840TIP3    H232464   6.353   3.614   5.354
10841TIP3   OH232465   6.776   0.209   2.349
10841TIP3    H132466   6.728   0.248   2.275
10841TIP3    H232467   6.781   0.116   2.328
10842TIP3   OH232468   1.072   2.812   1.017
10842TIP3    H132469   1.019   2.791   1.094
10842TIP3    H232470   1.108   2.728   0.988
10843TIP3   OH232471   7.465   6.443   3.631
10843TIP3    H132472   7.400   6.471   3.695
10843TIP3    H232473   7.465   6.348   3.636
10844TIP3   OH232474   6.940   1.676   5.065
10844TIP3    H132475   6.946   1.711   4.976
10844TIP3    H232476   6.853   1.638   5.070
10845TIP3   OH232477   5.986   7.148   0.884
10845TIP3    H132478   6.016   7.179   0.969
10845TIP3    H232479   5.890   7.153   0.889
10846TIP3   OH232480   5.670   1.658   5.448
10846TIP3    H132481   5.592   1.657   5.393
10846TIP3    H232482   5.700   1.567   5.448
10847TIP3   OH232483   2.412   2.891   0.398
10847TIP3    H132484   2.378   2.959   0.455
10847TIP3    H232485   2.391   2.921   0.310
10848TIP3   OH232486   2.758   6.040   6.779
10848TIP3    H132487   2.738   5.948   6.765
10848TIP3    H232488   2.699   6.087   6.721
10849TIP3   OH232489   2.248   3.957   6.120
10849TIP3    H132490   2.227   3.884   6.178
10849TIP3    H232491   2.202   3.936   6.039
10850TIP3   OH232492   1.628   7.241   3.144
10850TIP3    H132493   1.577   7.169   3.182
10850TIP3    H232494   1.563   7.294   3.098
10851TIP3   OH232495   5.874   0.858   1.063
10851TIP3    H132496   5.890   0.951   1.045
10851TIP3    H232497   5.959   0.816   1.053
10852TIP3   OH232498   4.183   1.376   2.177
10852TIP3    H132499   4.110   1.314   2.172
10852TIP3    H232500   4.180   1.423   2.094
10853TIP3   OH232501   0.997   4.142   4.634
10853TIP3    H132502   0.949   4.152   4.552
10853TIP3    H232503   0.930   4.154   4.702
10854TIP3   OH232504   6.063   1.707   4.810
10854TIP3    H132505   6.098   1.733   4.725
10854TIP3    H232506   6.139   1.698   4.866
10855TIP3   OH232507   3.423   4.391   3.649
10855TIP3    H132508   3.512   4.372   3.680
10855TIP3    H232509   3.433   4.401   3.554
10856TIP3   OH232510   7.273   0.269   1.586
10856TIP3    H132511   7.241   0.330   1.519
10856TIP3    H232512   7.306   0.326   1.655
10857TIP3   OH232513   1.265   4.067   6.686
10857TIP3    H132514   1.350   4.042   6.649
10857TIP3    H232515   1.207   3.993   6.666
10858TIP3   OH232516   4.729   3.204   2.160
10858TIP3    H132517   4.753   3.165   2.244
10858TIP3    H232518   4.791   3.166   2.097
10859TIP3   OH232519   6.573   7.572   2.841
10859TIP3    H132520   6.498   7.592   2.897
10859TIP3    H232521   6.548   7.605   2.754
10860TIP3   OH232522   0.378   1.258   4.465
10860TIP3    H132523   0.371   1.258   4.370
10860TIP3    H232524   0.470   1.239   4.483
10861TIP3   OH232525   1.846   1.872   2.506
10861TIP3    H132526   1.930   1.839   2.535
10861TIP3    H232527   1.852   1.967   2.516
10862TIP3   OH232528   6.217   1.565   3.253
10862TIP3    H132529   6.155   1.634   3.277
10862TIP3    H232530   6.161   1.489   3.235
10863TIP3   OH232531   7.447   0.786   1.884
10863TIP3    H132532   7.482   0.827   1.963
10863TIP3    H232533   7.501   0.708   1.871
10864TIP3   OH232534   4.162   7.632   4.117
10864TIP3    H132535   4.202   7.546   4.128
10864TIP3    H232536   4.178   7.677   4.199
10865TIP3   OH232537   6.225   4.582   1.764
10865TIP3    H132538   6.235   4.561   1.857
10865TIP3    H232539   6.240   4.676   1.759
10866TIP3   OH232540   2.538   0.998   2.938
10866TIP3    H132541   2.573   1.043   2.861
10866TIP3    H232542   2.553   0.905   2.920
10867TIP3   OH232543   7.496   6.587   5.272
10867TIP3    H132544   7.429   6.651   5.248
10867TIP3    H232545   7.469   6.553   5.357
10868TIP3   OH232546   0.105   0.677   0.124
10868TIP3    H132547   0.037   0.638   0.069
10868TIP3    H232548   0.108   0.769   0.096
10869TIP3   OH232549   1.154   7.478   2.940
10869TIP3    H132550   1.091   7.526   2.886
10869TIP3    H232551   1.204   7.546   2.985
10870TIP3   OH232552   5.735   5.053   3.980
10870TIP3    H132553   5.705   5.028   3.893
10870TIP3    H232554   5.776   5.138   3.969
10871TIP3   OH232555   1.574   7.808   2.433
10871TIP3    H132556   1.522   7.728   2.423
10871TIP3    H232557   1.612   7.802   2.520
10872TIP3   OH232558   6.468   2.351   5.809
10872TIP3    H132559   6.525   2.427   5.821
10872TIP3    H232560   6.524   2.276   5.828
10873TIP3   OH232561   0.441   3.760   1.665
10873TIP3    H132562   0.352   3.734   1.687
10873TIP3    H232563   0.431   3.827   1.597
10874TIP3   OH232564   7.864   7.774   4.928
10874TIP3    H132565   7.927   7.716   4.886
10874TIP3    H232566   7.794   7.786   4.863
10875TIP3   OH232567   8.104   5.043   4.218
10875TIP3    H132568   8.171   5.088   4.268
10875TIP3    H232569   8.126   5.061   4.126
10876TIP3   OH232570   2.580   6.472   4.940
10876TIP3    H132571   2.620   6.394   4.903
10876TIP3    H232572   2.592   6.463   5.034
10877TIP3   OH232573   4.347   6.422   5.550
10877TIP3    H132574   4.376   6.331   5.555
10877TIP3    H232575   4.392   6.465   5.622
10878TIP3   OH232576   2.050   0.395   3.918
10878TIP3    H132577   1.955   0.407   3.925
10878TIP3    H232578   2.087   0.478   3.949
10879TIP3   OH232579   0.517   2.434   4.362
10879TIP3    H132580   0.448   2.439   4.296
10879TIP3    H232581   0.589   2.486   4.325
10880TIP3   OH232582   0.506   2.485   1.578
10880TIP3    H132583   0.445   2.522   1.513
10880TIP3    H232584   0.497   2.541   1.655
10881TIP3   OH232585   6.975   1.114   2.531
10881TIP3    H132586   6.962   1.082   2.620
10881TIP3    H232587   6.912   1.186   2.522
10882TIP3   OH232588   4.271   0.659   1.765
10882TIP3    H132589   4.237   0.655   1.854
10882TIP3    H232590   4.302   0.570   1.747
10883TIP3   OH232591   2.048   4.280   0.709
10883TIP3    H132592   2.076   4.278   0.801
10883TIP3    H232593   2.124   4.246   0.660
10884TIP3   OH232594   6.302   7.414   3.298
10884TIP3    H132595   6.312   7.390   3.205
10884TIP3    H232596   6.336   7.503   3.304
10885TIP3   OH232597   3.739   6.592   2.086
10885TIP3    H132598   3.743   6.592   1.990
10885TIP3    H232599   3.647   6.604   2.106
10886TIP3   OH232600   0.511   4.404   3.861
10886TIP3    H132601   0.445   4.463   3.897
10886TIP3    H232602   0.518   4.334   3.925
10887TIP3   OH232603   5.884   3.676   5.915
10887TIP3    H132604   5.870   3.748   5.852
10887TIP3    H232605   5.918   3.719   5.993
10888TIP3   OH232606   5.674   2.845   4.435
10888TIP3    H132607   5.670   2.750   4.419
10888TIP3    H232608   5.634   2.884   4.357
10889TIP3   OH232609   7.967   4.838   2.268
10889TIP3    H132610   7.906   4.791   2.212
10889TIP3    H232611   7.928   4.924   2.281
10890TIP3   OH232612   5.610   3.326   5.479
10890TIP3    H132613   5.612   3.399   5.541
10890TIP3    H232614   5.524   3.330   5.439
10891TIP3   OH232615   0.223   4.944   3.608
10891TIP3    H132616   0.217   4.884   3.682
10891TIP3    H232617   0.146   5.001   3.616
10892TIP3   OH232618   1.069   4.674   2.113
10892TIP3    H132619   1.050   4.620   2.036
10892TIP3    H232620   1.030   4.626   2.186
10893TIP3   OH232621   5.559   0.529   2.895
10893TIP3    H132622   5.553   0.604   2.954
10893TIP3    H232623   5.479   0.535   2.842
10894TIP3   OH232624   5.984   5.714   2.354
10894TIP3    H132625   6.066   5.672   2.379
10894TIP3    H232626   5.943   5.652   2.294
10895TIP3   OH232627   3.582   7.585   1.706
10895TIP3    H132628   3.654   7.540   1.751
10895TIP3    H232629   3.508   7.578   1.766
10896TIP3   OH232630   7.592   2.045   3.903
10896TIP3    H132631   7.506   2.016   3.934
10896TIP3    H232632   7.640   1.963   3.888
10897TIP3   OH232633   7.393   4.913   4.646
10897TIP3    H132634   7.346   4.933   4.564
10897TIP3    H232635   7.485   4.908   4.620
10898TIP3   OH232636   6.252   4.755   0.633
10898TIP3    H132637   6.172   4.780   0.588
10898TIP3    H232638   6.232   4.768   0.726
10899TIP3   OH232639   1.806   4.631   6.668
10899TIP3    H132640   1.741   4.570   6.701
10899TIP3    H232641   1.888   4.582   6.670
10900TIP3   OH232642   0.881   4.625   5.672
10900TIP3    H132643   0.811   4.572   5.710
10900TIP3    H232644   0.838   4.706   5.646
10901TIP3   OH232645   8.216   7.265   0.421
10901TIP3    H132646   8.303   7.305   0.414
10901TIP3    H232647   8.158   7.340   0.436
10902TIP3   OH232648   5.172   6.333   2.615
10902TIP3    H132649   5.154   6.424   2.593
10902TIP3    H232650   5.268   6.328   2.621
10903TIP3   OH232651   8.041   7.475   0.938
10903TIP3    H132652   7.958   7.518   0.914
10903TIP3    H232653   8.065   7.516   1.021
10904TIP3   OH232654   4.794   6.924   4.313
10904TIP3    H132655   4.728   6.860   4.288
10904TIP3    H232656   4.858   6.922   4.242
10905TIP3   OH232657   0.752   0.717   3.623
10905TIP3    H132658   0.796   0.799   3.600
10905TIP3    H232659   0.753   0.715   3.719
10906TIP3   OH232660   6.140   3.480   5.023
10906TIP3    H132661   6.129   3.385   5.014
10906TIP3    H232662   6.183   3.507   4.942
10907TIP3   OH232663   1.965   3.896   1.525
10907TIP3    H132664   1.996   3.984   1.548
10907TIP3    H232665   1.886   3.911   1.474
10908TIP3   OH232666   0.091   3.260   0.959
10908TIP3    H132667   0.161   3.321   0.985
10908TIP3    H232668   0.109   3.241   0.867
10909TIP3   OH232669   2.371   4.139   1.905
10909TIP3    H132670   2.446   4.195   1.888
10909TIP3    H232671   2.340   4.166   1.992
10910TIP3   OH232672   2.887   5.367   1.803
10910TIP3    H132673   2.929   5.326   1.879
10910TIP3    H232674   2.843   5.294   1.758
10911TIP3   OH232675   7.284   5.782   0.375
10911TIP3    H132676   7.311   5.694   0.400
10911TIP3    H232677   7.329   5.839   0.437
10912TIP3   OH232678   3.504   1.919   2.438
10912TIP3    H132679   3.454   2.000   2.427
10912TIP3    H232680   3.594   1.947   2.452
10913TIP3   OH232681   6.882   3.521   0.074
10913TIP3    H132682   6.882   3.592   0.010
10913TIP3    H232683   6.866   3.442   0.023
10914TIP3   OH232684   4.104   3.817   3.530
10914TIP3    H132685   4.088   3.885   3.464
10914TIP3    H232686   4.143   3.864   3.604
10915TIP3   OH232687   5.089   7.531   5.524
10915TIP3    H132688   5.026   7.527   5.453
10915TIP3    H232689   5.100   7.624   5.543
10916TIP3   OH232690   7.478   6.842   6.378
10916TIP3    H132691   7.489   6.858   6.284
10916TIP3    H232692   7.466   6.929   6.416
10917TIP3   OH232693   5.834   4.972   5.698
10917TIP3    H132694   5.832   5.008   5.786
10917TIP3    H232695   5.849   5.048   5.641
10918TIP3   OH232696   3.484   0.386   6.008
10918TIP3    H132697   3.471   0.316   5.944
10918TIP3    H232698   3.398   0.397   6.049
10919TIP3   OH232699   2.823   7.311   4.751
10919TIP3    H132700   2.846   7.356   4.669
10919TIP3    H232701   2.802   7.381   4.812
10920TIP3   OH232702   1.571   6.768   2.321
10920TIP3    H132703   1.646   6.777   2.379
10920TIP3    H232704   1.590   6.689   2.270
10921TIP3   OH232705   1.609   2.623   6.463
10921TIP3    H132706   1.515   2.610   6.449
10921TIP3    H232707   1.621   2.617   6.558
10922TIP3   OH232708   0.745   2.499   1.217
10922TIP3    H132709   0.811   2.512   1.285
10922TIP3    H232710   0.793   2.458   1.145
10923TIP3   OH232711   4.499   3.678   0.489
10923TIP3    H132712   4.477   3.696   0.398
10923TIP3    H232713   4.540   3.759   0.520
10924TIP3   OH232714   5.167   7.579   2.998
10924TIP3    H132715   5.137   7.634   3.070
10924TIP3    H232716   5.240   7.627   2.959
10925TIP3   OH232717   8.083   4.246   0.621
10925TIP3    H132718   8.152   4.197   0.578
10925TIP3    H232719   8.109   4.250   0.713
10926TIP3   OH232720   2.915   7.672   4.682
10926TIP3    H132721   2.922   7.643   4.773
10926TIP3    H232722   2.821   7.675   4.665
10927TIP3   OH232723   4.107   7.653   0.148
10927TIP3    H132724   4.025   7.606   0.165
10927TIP3    H232725   4.137   7.681   0.234
10928TIP3   OH232726   6.318   4.655   6.250
10928TIP3    H132727   6.239   4.705   6.269
10928TIP3    H232728   6.369   4.711   6.193
10929TIP3   OH232729   0.213   4.180   5.288
10929TIP3    H132730   0.194   4.226   5.206
10929TIP3    H232731   0.128   4.146   5.316
10930TIP3   OH232732   1.230   5.079   0.631
10930TIP3    H132733   1.292   5.030   0.576
10930TIP3    H232734   1.228   5.166   0.592
10931TIP3   OH232735   1.743   6.433   5.990
10931TIP3    H132736   1.766   6.463   5.903
10931TIP3    H232737   1.815   6.376   6.016
10932TIP3   OH232738   5.490   6.649   4.057
10932TIP3    H132739   5.478   6.554   4.059
10932TIP3    H232740   5.404   6.684   4.081
10933TIP3   OH232741   5.428   0.196   5.767
10933TIP3    H132742   5.406   0.228   5.680
10933TIP3    H232743   5.475   0.269   5.808
10934TIP3   OH232744   0.110   0.656   5.077
10934TIP3    H132745   0.110   0.588   5.010
10934TIP3    H232746   0.202   0.672   5.096
10935TIP3   OH232747   6.884   6.988   6.432
10935TIP3    H132748   6.828   6.914   6.407
10935TIP3    H232749   6.829   7.065   6.418
10936TIP3   OH232750   0.420   5.412   2.565
10936TIP3    H132751   0.362   5.383   2.636
10936TIP3    H232752   0.463   5.490   2.600
10937TIP3   OH232753   6.686   5.608   5.614
10937TIP3    H132754   6.751   5.540   5.630
10937TIP3    H232755   6.679   5.613   5.519
10938TIP3   OH232756   0.047   4.745   0.784
10938TIP3    H132757   0.096   4.812   0.737
10938TIP3    H232758   0.102   4.667   0.778
10939TIP3   OH232759   4.961   4.684   3.187
10939TIP3    H132760   5.030   4.654   3.128
10939TIP3    H232761   4.928   4.764   3.146
10940TIP3   OH232762   7.239   6.794   0.282
10940TIP3    H132763   7.237   6.814   0.189
10940TIP3    H232764   7.323   6.751   0.296
10941TIP3   OH232765   2.924   0.338   2.625
10941TIP3    H132766   2.871   0.408   2.663
10941TIP3    H232767   2.931   0.273   2.695
10942TIP3   OH232768   5.794   0.152   4.009
10942TIP3    H132769   5.781   0.071   4.058
10942TIP3    H232770   5.877   0.187   4.041
10943TIP3   OH232771   6.565   2.955   6.263
10943TIP3    H132772   6.502   2.907   6.317
10943TIP3    H232773   6.533   2.946   6.173
10944TIP3   OH232774   5.125   4.236   3.050
10944TIP3    H132775   5.054   4.186   3.008
10944TIP3    H232776   5.112   4.222   3.144
10945TIP3   OH232777   0.305   3.496   0.181
10945TIP3    H132778   0.282   3.405   0.161
10945TIP3    H232779   0.255   3.517   0.260
10946TIP3   OH232780   6.161   7.390   6.440
10946TIP3    H132781   6.178   7.302   6.409
10946TIP3    H232782   6.086   7.420   6.389
10947TIP3   OH232783   0.412   5.832   0.904
10947TIP3    H132784   0.352   5.825   0.829
10947TIP3    H232785   0.382   5.910   0.951
10948TIP3   OH232786   1.684   4.499   4.109
10948TIP3    H132787   1.641   4.432   4.162
10948TIP3    H232788   1.613   4.560   4.087
10949TIP3   OH232789   2.245   7.760   4.333
10949TIP3    H132790   2.311   7.788   4.271
10949TIP3    H232791   2.234   7.834   4.393
10950TIP3   OH232792   6.366   1.036   0.743
10950TIP3    H132793   6.280   0.997   0.726
10950TIP3    H232794   6.425   0.961   0.752
10951TIP3   OH232795   6.189   4.829   1.973
10951TIP3    H132796   6.191   4.787   2.058
10951TIP3    H232797   6.101   4.814   1.940
10952TIP3   OH232798   8.204   4.442   2.744
10952TIP3    H132799   8.178   4.454   2.835
10952TIP3    H232800   8.188   4.349   2.727
10953TIP3   OH232801   8.082   5.099   1.517
10953TIP3    H132802   8.024   5.134   1.584
10953TIP3    H232803   8.103   5.011   1.548
10954TIP3   OH232804   2.444   3.656   0.449
10954TIP3    H132805   2.462   3.725   0.512
10954TIP3    H232806   2.404   3.702   0.375
10955TIP3   OH232807   4.931   6.537   4.713
10955TIP3    H132808   4.848   6.581   4.733
10955TIP3    H232809   4.927   6.454   4.761
10956TIP3   OH232810   2.052   3.427   0.788
10956TIP3    H132811   2.093   3.468   0.713
10956TIP3    H232812   2.106   3.350   0.806
10957TIP3   OH232813   4.199   3.016   3.721
10957TIP3    H132814   4.197   3.013   3.625
10957TIP3    H232815   4.291   3.029   3.743
10958TIP3   OH232816   4.336   1.646   6.192
10958TIP3    H132817   4.385   1.705   6.249
10958TIP3    H232818   4.302   1.701   6.122
10959TIP3   OH232819   4.890   6.997   6.184
10959TIP3    H132820   4.829   7.024   6.252
10959TIP3    H232821   4.899   7.075   6.128
10960TIP3   OH232822   0.783   4.570   4.658
10960TIP3    H132823   0.698   4.605   4.630
10960TIP3    H232824   0.761   4.497   4.715
10961TIP3   OH232825   6.638   5.734   2.632
10961TIP3    H132826   6.675   5.821   2.645
10961TIP3    H232827   6.568   5.747   2.568
10962TIP3   OH232828   3.749   4.224   0.632
10962TIP3    H132829   3.655   4.238   0.641
10962TIP3    H232830   3.761   4.131   0.652
10963TIP3   OH232831   5.887   6.061   0.565
10963TIP3    H132832   5.878   6.075   0.660
10963TIP3    H232833   5.802   6.028   0.538
10964TIP3   OH232834   4.257   4.744   0.784
10964TIP3    H132835   4.233   4.738   0.876
10964TIP3    H232836   4.236   4.658   0.747
10965TIP3   OH232837   3.157   4.994   2.810
10965TIP3    H132838   3.105   5.005   2.731
10965TIP3    H232839   3.226   5.061   2.802
10966TIP3   OH232840   3.577   2.184   0.906
10966TIP3    H132841   3.648   2.191   0.843
10966TIP3    H232842   3.620   2.158   0.988
10967TIP3   OH232843   2.339   0.826   0.955
10967TIP3    H132844   2.416   0.872   0.921
10967TIP3    H232845   2.290   0.801   0.877
10968TIP3   OH232846   3.915   2.835   0.346
10968TIP3    H132847   3.883   2.766   0.404
10968TIP3    H232848   3.850   2.905   0.354
10969TIP3   OH232849   5.539   2.906   5.293
10969TIP3    H132850   5.590   2.876   5.217
10969TIP3    H232851   5.571   2.853   5.366
10970TIP3   OH232852   3.774   6.485   4.545
10970TIP3    H132853   3.714   6.420   4.581
10970TIP3    H232854   3.720   6.562   4.528
10971TIP3   OH232855   2.327   0.887   4.294
10971TIP3    H132856   2.289   0.926   4.373
10971TIP3    H232857   2.408   0.936   4.279
10972TIP3   OH232858   7.727   7.105   6.332
10972TIP3    H132859   7.707   7.016   6.302
10972TIP3    H232860   7.758   7.094   6.422
10973TIP3   OH232861   2.513   5.716   2.171
10973TIP3    H132862   2.484   5.629   2.142
10973TIP3    H232863   2.514   5.709   2.267
10974TIP3   OH232864   1.447   2.605   0.749
10974TIP3    H132865   1.503   2.541   0.794
10974TIP3    H232866   1.489   2.617   0.663
10975TIP3   OH232867   5.832   2.230   4.174
10975TIP3    H132868   5.905   2.186   4.130
10975TIP3    H232869   5.852   2.323   4.166
10976TIP3   OH232870   8.136   1.328   1.374
10976TIP3    H132871   8.121   1.420   1.394
10976TIP3    H232872   8.060   1.303   1.321
10977TIP3   OH232873   4.749   1.590   1.431
10977TIP3    H132874   4.742   1.620   1.522
10977TIP3    H232875   4.734   1.669   1.379
10978TIP3   OH232876   2.567   5.279   6.316
10978TIP3    H132877   2.588   5.200   6.267
10978TIP3    H232878   2.636   5.286   6.382
10979TIP3   OH232879   2.879   0.256   2.080
10979TIP3    H132880   2.950   0.194   2.065
10979TIP3    H232881   2.810   0.204   2.120
10980TIP3   OH232882   0.185   5.920   3.335
10980TIP3    H132883   0.257   5.927   3.397
10980TIP3    H232884   0.158   6.011   3.319
10981TIP3   OH232885   0.233   6.105   6.789
10981TIP3    H132886   0.272   6.033   6.838
10981TIP3    H232887   0.217   6.069   6.702
10982TIP3   OH232888   4.912   0.549   3.490
10982TIP3    H132889   4.868   0.479   3.539
10982TIP3    H232890   4.977   0.584   3.550
10983TIP3   OH232891   7.282   3.387   6.342
10983TIP3    H132892   7.332   3.453   6.295
10983TIP3    H232893   7.247   3.330   6.274
10984TIP3   OH232894   7.780   4.694   4.750
10984TIP3    H132895   7.780   4.616   4.694
10984TIP3    H232896   7.760   4.660   4.837
10985TIP3   OH232897   3.269   6.255   4.437
10985TIP3    H132898   3.253   6.349   4.435
10985TIP3    H232899   3.208   6.221   4.502
10986TIP3   OH232900   0.059   4.917   2.622
10986TIP3    H132901  -0.018   4.941   2.572
10986TIP3    H232902   0.029   4.845   2.679
10987TIP3   OH232903   3.841   6.383   6.181
10987TIP3    H132904   3.818   6.458   6.236
10987TIP3    H232905   3.772   6.319   6.198
10988TIP3   OH232906   5.548   5.510   0.395
10988TIP3    H132907   5.485   5.489   0.464
10988TIP3    H232908   5.595   5.428   0.379
10989TIP3   OH232909   0.498   7.163   2.083
10989TIP3    H132910   0.413   7.119   2.086
10989TIP3    H232911   0.560   7.094   2.060
10990TIP3   OH232912   5.893   2.013   0.799
10990TIP3    H132913   5.843   1.977   0.873
10990TIP3    H232914   5.848   2.095   0.778
10991TIP3   OH232915   2.205   4.767   1.785
10991TIP3    H132916   2.112   4.776   1.802
10991TIP3    H232917   2.235   4.856   1.765
10992TIP3   OH232918   3.645   4.099   4.159
10992TIP3    H132919   3.689   4.015   4.171
10992TIP3    H232920   3.611   4.096   4.069
10993TIP3   OH232921   1.815   3.052   6.286
10993TIP3    H132922   1.787   2.980   6.229
10993TIP3    H232923   1.747   3.118   6.278
10994TIP3   OH232924   6.347   1.786   3.854
10994TIP3    H132925   6.377   1.723   3.788
10994TIP3    H232926   6.427   1.830   3.883
10995TIP3   OH232927   5.510   1.922   0.404
10995TIP3    H132928   5.484   2.009   0.433
10995TIP3    H232929   5.601   1.913   0.434
10996TIP3   OH232930   7.036   3.237   3.610
10996TIP3    H132931   7.022   3.284   3.692
10996TIP3    H232932   7.117   3.188   3.624
10997TIP3   OH232933   3.166  -0.026   5.324
10997TIP3    H132934   3.184   0.032   5.398
10997TIP3    H232935   3.135   0.032   5.255
10998TIP3   OH232936   7.734   1.208   0.745
10998TIP3    H132937   7.665   1.192   0.681
10998TIP3    H232938   7.811   1.164   0.709
10999TIP3   OH232939   6.646   3.037   4.712
10999TIP3    H132940   6.633   3.117   4.762
10999TIP3    H232941   6.671   3.067   4.625
11000TIP3   OH232942   0.449   2.399   5.159
11000TIP3    H132943   0.494   2.472   5.117
11000TIP3    H232944   0.451   2.420   5.252
11001TIP3   OH232945   0.354   7.748   2.459
11001TIP3    H132946   0.375   7.825   2.511
11001TIP3    H232947   0.435   7.697   2.456
11002TIP3   OH232948   2.993   6.884   1.150
11002TIP3    H132949   3.026   6.964   1.192
11002TIP3    H232950   3.060   6.818   1.168
11003TIP3   OH232951   4.124   3.143   0.514
11003TIP3    H132952   4.188   3.201   0.555
11003TIP3    H232953   4.149   3.055   0.542
11004TIP3   OH232954   6.968   3.851   6.661
11004TIP3    H132955   6.885   3.855   6.613
11004TIP3    H232956   7.017   3.926   6.629
11005TIP3   OH232957   3.428   6.542   2.943
11005TIP3    H132958   3.368   6.471   2.964
11005TIP3    H232959   3.479   6.557   3.023
11006TIP3   OH232960   5.809   0.160   3.329
11006TIP3    H132961   5.769   0.221   3.266
11006TIP3    H232962   5.866   0.105   3.275
11007TIP3   OH232963   1.438   1.593   1.016
11007TIP3    H132964   1.436   1.505   0.978
11007TIP3    H232965   1.427   1.579   1.110
11008TIP3   OH232966  -0.005   3.316   2.347
11008TIP3    H132967   0.003   3.372   2.270
11008TIP3    H232968   0.085   3.293   2.370
11009TIP3   OH232969   8.015   7.134   1.053
11009TIP3    H132970   7.921   7.143   1.069
11009TIP3    H232971   8.021   7.102   0.963
11010TIP3   OH232972   1.553   1.191   5.196
11010TIP3    H132973   1.521   1.106   5.165
11010TIP3    H232974   1.628   1.170   5.251
11011TIP3   OH232975   2.822   4.298   1.882
11011TIP3    H132976   2.884   4.297   1.955
11011TIP3    H232977   2.863   4.244   1.815
11012TIP3   OH232978   7.863   3.439   4.905
11012TIP3    H132979   7.813   3.391   4.972
11012TIP3    H232980   7.811   3.517   4.888
11013TIP3   OH232981   0.955   6.791   0.669
11013TIP3    H132982   1.049   6.798   0.652
11013TIP3    H232983   0.944   6.825   0.758
11014TIP3   OH232984   1.063   6.028   4.232
11014TIP3    H132985   1.010   6.104   4.256
11014TIP3    H232986   1.149   6.046   4.271
11015TIP3   OH232987   1.285   3.981   2.759
11015TIP3    H132988   1.192   3.960   2.767
11015TIP3    H232989   1.290   4.043   2.687
11016TIP3   OH232990   0.189   1.981   6.688
11016TIP3    H132991   0.259   2.041   6.664
11016TIP3    H232992   0.169   1.934   6.607
11017TIP3   OH232993   6.522   7.367   6.698
11017TIP3    H132994   6.530   7.382   6.792
11017TIP3    H232995   6.601   7.408   6.661
11018TIP3   OH232996   4.966   1.657   6.342
11018TIP3    H132997   5.000   1.650   6.253
11018TIP3    H232998   5.044   1.660   6.397
11019TIP3   OH232999   5.667   4.486   3.652
11019TIP3    H133000   5.742   4.515   3.704
11019TIP3    H233001   5.628   4.568   3.620
11020TIP3   OH233002   4.462   6.044   4.304
11020TIP3    H133003   4.530   6.042   4.237
11020TIP3    H233004   4.474   5.963   4.353
11021TIP3   OH233005   0.314   1.678   5.798
11021TIP3    H133006   0.361   1.711   5.722
11021TIP3    H233007   0.227   1.719   5.793
11022TIP3   OH233008   3.151   0.717   4.846
11022TIP3    H133009   3.158   0.628   4.878
11022TIP3    H233010   3.233   0.759   4.872
11023TIP3   OH233011   7.280   1.541   4.870
11023TIP3    H133012   7.326   1.460   4.848
11023TIP3    H233013   7.262   1.533   4.964
11024TIP3   OH233014   5.004   0.809   2.675
11024TIP3    H133015   5.015   0.768   2.589
11024TIP3    H233016   5.020   0.902   2.660
11025TIP3   OH233017   4.693   0.850   2.908
11025TIP3    H133018   4.641   0.831   2.830
11025TIP3    H233019   4.710   0.944   2.904
11026TIP3   OH233020   1.337   6.091   0.059
11026TIP3    H133021   1.380   6.148   0.123
11026TIP3    H233022   1.314   6.013   0.109
11027TIP3   OH233023   2.815   5.068   1.336
11027TIP3    H133024   2.759   5.011   1.389
11027TIP3    H233025   2.903   5.052   1.369
11028TIP3   OH233026   4.989   7.722   4.375
11028TIP3    H133027   4.962   7.633   4.355
11028TIP3    H233028   5.064   7.739   4.318
11029TIP3   OH233029   0.218   3.895   3.786
11029TIP3    H133030   0.140   3.933   3.825
11029TIP3    H233031   0.289   3.952   3.815
11030TIP3   OH233032   3.645   0.482   4.508
11030TIP3    H133033   3.696   0.543   4.455
11030TIP3    H233034   3.609   0.536   4.579
11031TIP3   OH233035   5.605   6.073   6.169
11031TIP3    H133036   5.611   6.167   6.153
11031TIP3    H233037   5.637   6.032   6.089
11032TIP3   OH233038   5.145   3.142   4.002
11032TIP3    H133039   5.182   3.145   3.914
11032TIP3    H233040   5.057   3.178   3.993
11033TIP3   OH233041   2.025   1.148   6.646
11033TIP3    H133042   2.011   1.130   6.739
11033TIP3    H233043   1.988   1.072   6.601
11034TIP3   OH233044   2.103   1.831   2.576
11034TIP3    H133045   2.153   1.830   2.657
11034TIP3    H233046   2.133   1.753   2.528
11035TIP3   OH233047   5.290   4.270   5.127
11035TIP3    H133048   5.228   4.208   5.164
11035TIP3    H233049   5.366   4.216   5.103
11036TIP3   OH233050   0.269   5.173   5.229
11036TIP3    H133051   0.327   5.121   5.284
11036TIP3    H233052   0.327   5.219   5.169
11037TIP3   OH233053   3.902   4.716   4.841
11037TIP3    H133054   3.811   4.706   4.869
11037TIP3    H233055   3.944   4.633   4.863
11038TIP3   OH233056   7.337   5.206   1.665
11038TIP3    H133057   7.274   5.194   1.736
11038TIP3    H233058   7.294   5.267   1.605
11039TIP3   OH233059   4.354   3.407   1.091
11039TIP3    H133060   4.411   3.442   1.023
11039TIP3    H233061   4.399   3.328   1.122
11040TIP3   OH233062   4.591   7.716   0.753
11040TIP3    H133063   4.672   7.762   0.776
11040TIP3    H233064   4.614   7.623   0.759
11041TIP3   OH233065   0.814   2.613   2.407
11041TIP3    H133066   0.817   2.708   2.420
11041TIP3    H233067   0.900   2.582   2.433
11042TIP3   OH233068   1.763   0.152   4.828
11042TIP3    H133069   1.676   0.189   4.818
11042TIP3    H233070   1.822   0.227   4.822
11043TIP3   OH233071   0.402   5.884   3.967
11043TIP3    H133072   0.359   5.819   3.912
11043TIP3    H233073   0.358   5.967   3.946
11044TIP3   OH233074   1.625   6.413   0.528
11044TIP3    H133075   1.622   6.389   0.436
11044TIP3    H233076   1.547   6.372   0.566
11045TIP3   OH233077   5.439   5.486   4.513
11045TIP3    H133078   5.493   5.542   4.569
11045TIP3    H233079   5.495   5.412   4.491
11046TIP3   OH233080   8.097   4.422   2.328
11046TIP3    H133081   8.147   4.346   2.358
11046TIP3    H233082   8.160   4.494   2.327
11047TIP3   OH233083   6.911   5.264   5.428
11047TIP3    H133084   6.881   5.186   5.474
11047TIP3    H233085   7.005   5.250   5.414
11048TIP3   OH233086   5.152   2.260   0.890
11048TIP3    H133087   5.150   2.338   0.945
11048TIP3    H233088   5.131   2.290   0.802
11049TIP3   OH233089   1.430   7.721   6.003
11049TIP3    H133090   1.404   7.630   5.991
11049TIP3    H233091   1.357   7.761   6.049
11050TIP3   OH233092   4.126   4.268   0.175
11050TIP3    H133093   4.123   4.186   0.224
11050TIP3    H233094   4.186   4.251   0.102
11051TIP3   OH233095   1.560   7.716   4.987
11051TIP3    H133096   1.640   7.676   5.021
11051TIP3    H233097   1.589   7.761   4.907
11052TIP3   OH233098   4.503   3.687   5.479
11052TIP3    H133099   4.424   3.651   5.520
11052TIP3    H233100   4.479   3.698   5.387
11053TIP3   OH233101   0.767   4.472   0.631
11053TIP3    H133102   0.799   4.561   0.617
11053TIP3    H233103   0.675   4.474   0.605
11054TIP3   OH233104   2.160   7.531   5.674
11054TIP3    H133105   2.237   7.524   5.731
11054TIP3    H233106   2.158   7.449   5.626
11055TIP3   OH233107   4.354   6.024   6.313
11055TIP3    H133108   4.404   6.104   6.300
11055TIP3    H233109   4.288   6.025   6.244
11056TIP3   OH233110   4.532   5.591   1.565
11056TIP3    H133111   4.545   5.665   1.506
11056TIP3    H233112   4.477   5.626   1.635
11057TIP3   OH233113   6.532   6.932   1.482
11057TIP3    H133114   6.611   6.975   1.513
11057TIP3    H233115   6.562   6.851   1.442
11058TIP3   OH233116   0.163   5.482   5.522
11058TIP3    H133117   0.202   5.566   5.499
11058TIP3    H233118   0.100   5.465   5.452
11059TIP3   OH233119   2.818   7.687   2.478
11059TIP3    H133120   2.758   7.657   2.409
11059TIP3    H233121   2.775   7.765   2.514
11060TIP3   OH233122   7.004   1.894   3.228
11060TIP3    H133123   7.034   1.863   3.313
11060TIP3    H233124   7.079   1.883   3.170
11061TIP3   OH233125   7.300   3.759   4.532
11061TIP3    H133126   7.335   3.784   4.618
11061TIP3    H233127   7.279   3.842   4.490
11062TIP3   OH233128   8.271   7.150   1.666
11062TIP3    H133129   8.283   7.107   1.750
11062TIP3    H233130   8.179   7.135   1.644
11063TIP3   OH233131   3.036   4.075   3.764
11063TIP3    H133132   2.950   4.073   3.723
11063TIP3    H233133   3.020   4.057   3.856
11064TIP3   OH233134   1.212   5.586   1.931
11064TIP3    H133135   1.174   5.520   1.990
11064TIP3    H233136   1.261   5.644   1.990
11065TIP3   OH233137   4.951   0.830   1.970
11065TIP3    H133138   4.968   0.741   1.999
11065TIP3    H233139   5.011   0.844   1.897
11066TIP3   OH233140   7.849   6.446   3.120
11066TIP3    H133141   7.786   6.469   3.189
11066TIP3    H233142   7.855   6.525   3.066
11067TIP3   OH233143   4.036   5.240   4.753
11067TIP3    H133144   3.963   5.263   4.811
11067TIP3    H233145   4.088   5.321   4.746
11068TIP3   OH233146   6.221   0.151   4.656
11068TIP3    H133147   6.245   0.081   4.595
11068TIP3    H233148   6.253   0.121   4.741
11069TIP3   OH233149   2.297   5.524   1.706
11069TIP3    H133150   2.302   5.598   1.646
11069TIP3    H233151   2.301   5.563   1.793
11070TIP3   OH233152   6.290   5.124   2.381
11070TIP3    H133153   6.272   5.217   2.365
11070TIP3    H233154   6.222   5.078   2.333
11071TIP3   OH233155   3.477   6.965   3.068
11071TIP3    H133156   3.467   6.906   2.993
11071TIP3    H233157   3.511   7.046   3.030
11072TIP3   OH233158   4.279   1.662   4.906
11072TIP3    H133159   4.278   1.605   4.829
11072TIP3    H233160   4.359   1.638   4.952
11073TIP3   OH233161   2.619   2.199   4.144
11073TIP3    H133162   2.581   2.197   4.056
11073TIP3    H233163   2.637   2.107   4.165
11074TIP3   OH233164   8.141   0.240   1.948
11074TIP3    H133165   8.184   0.236   1.863
11074TIP3    H233166   8.208   0.215   2.011
11075TIP3   OH233167   4.044   0.137   0.858
11075TIP3    H133168   3.981   0.208   0.852
11075TIP3    H233169   4.007   0.067   0.805
11076TIP3   OH233170   4.757   3.541   2.863
11076TIP3    H133171   4.745   3.487   2.941
11076TIP3    H233172   4.840   3.512   2.825
11077TIP3   OH233173   2.637   0.600   4.472
11077TIP3    H133174   2.582   0.641   4.539
11077TIP3    H233175   2.712   0.659   4.464
11078TIP3   OH233176   3.296   3.415   0.099
11078TIP3    H133177   3.373   3.447   0.051
11078TIP3    H233178   3.332   3.374   0.178
11079TIP3   OH233179   0.773   1.990   6.737
11079TIP3    H133180   0.701   1.961   6.681
11079TIP3    H233181   0.803   1.911   6.781
11080TIP3   OH233182   1.175   3.598   2.827
11080TIP3    H133183   1.205   3.512   2.798
11080TIP3    H233184   1.172   3.650   2.747
11081TIP3   OH233185   0.228   4.533   5.952
11081TIP3    H133186   0.205   4.503   5.864
11081TIP3    H233187   0.243   4.627   5.943
11082TIP3   OH233188   4.929   4.499   6.429
11082TIP3    H133189   4.868   4.522   6.359
11082TIP3    H233190   4.999   4.563   6.422
11083TIP3   OH233191   6.190   4.873   6.474
11083TIP3    H133192   6.138   4.840   6.400
11083TIP3    H233193   6.272   4.901   6.434
11084TIP3   OH233194   3.602   3.567   4.449
11084TIP3    H133195   3.553   3.648   4.460
11084TIP3    H233196   3.535   3.498   4.451
11085TIP3   OH233197   2.776   4.316   5.013
11085TIP3    H133198   2.727   4.341   5.091
11085TIP3    H233199   2.853   4.271   5.046
11086TIP3   OH233200   3.774   1.360   3.324
11086TIP3    H133201   3.834   1.383   3.395
11086TIP3    H233202   3.811   1.281   3.285
11087TIP3   OH233203   4.179   2.431   3.673
11087TIP3    H133204   4.257   2.476   3.641
11087TIP3    H233205   4.115   2.443   3.603
11088TIP3   OH233206   6.802   5.105   2.933
11088TIP3    H133207   6.881   5.159   2.929
11088TIP3    H233208   6.833   5.020   2.965
11089TIP3   OH233209   2.336   4.689   2.640
11089TIP3    H133210   2.275   4.618   2.622
11089TIP3    H233211   2.323   4.751   2.568
11090TIP3   OH233212   6.235   2.039   5.923
11090TIP3    H133213   6.278   1.983   5.859
11090TIP3    H233214   6.145   2.006   5.928
11091TIP3   OH233215   5.372   2.589   6.774
11091TIP3    H133216   5.380   2.509   6.721
11091TIP3    H233217   5.282   2.588   6.806
11092TIP3   OH233218   3.697   0.509   6.638
11092TIP3    H133219   3.747   0.444   6.688
11092TIP3    H233220   3.667   0.572   6.704
11093TIP3   OH233221   5.498   7.126   2.825
11093TIP3    H133222   5.447   7.204   2.846
11093TIP3    H233223   5.472   7.062   2.891
11094TIP3   OH233224   6.005   0.134   6.481
11094TIP3    H133225   5.945   0.100   6.547
11094TIP3    H233226   5.971   0.100   6.398
11095TIP3   OH233227   7.581   1.302   6.411
11095TIP3    H133228   7.534   1.279   6.331
11095TIP3    H233229   7.670   1.322   6.382
11096TIP3   OH233230   3.558   3.031   0.625
11096TIP3    H133231   3.573   3.049   0.533
11096TIP3    H233232   3.541   2.937   0.629
11097TIP3   OH233233   7.739   1.360   3.200
11097TIP3    H133234   7.832   1.361   3.179
11097TIP3    H233235   7.733   1.402   3.285
11098TIP3   OH233236   1.410   6.692   3.320
11098TIP3    H133237   1.413   6.655   3.232
11098TIP3    H233238   1.338   6.646   3.364
11099TIP3   OH233239   8.204   4.002   3.832
11099TIP3    H133240   8.192   3.907   3.837
11099TIP3    H233241   8.276   4.020   3.892
11100TIP3   OH233242   4.805   3.781   3.500
11100TIP3    H133243   4.755   3.708   3.462
11100TIP3    H233244   4.744   3.822   3.561
11101TIP3   OH233245   1.694   7.174   1.840
11101TIP3    H133246   1.669   7.087   1.809
11101TIP3    H233247   1.785   7.184   1.813
11102TIP3   OH233248   4.300   3.979   2.218
11102TIP3    H133249   4.281   4.050   2.157
11102TIP3    H233250   4.341   4.022   2.293
11103TIP3   OH233251   2.395   0.788  -0.007
11103TIP3    H133252   2.394   0.717   0.058
11103TIP3    H233253   2.303   0.801  -0.029
11104TIP3   OH233254   4.202   0.277   1.864
11104TIP3    H133255   4.134   0.338   1.838
11104TIP3    H233256   4.272   0.290   1.800
11105TIP3   OH233257   6.101   3.051   4.621
11105TIP3    H133258   6.107   3.143   4.646
11105TIP3    H233259   6.183   3.012   4.654
11106TIP3   OH233260   2.889   1.444   4.004
11106TIP3    H133261   2.814   1.438   3.946
11106TIP3    H233262   2.923   1.355   4.010
11107TIP3   OH233263   6.825   7.826   5.080
11107TIP3    H133264   6.815   7.830   5.175
11107TIP3    H233265   6.840   7.733   5.062
11108TIP3   OH233266   7.060   7.672   0.967
11108TIP3    H133267   7.095   7.674   0.878
11108TIP3    H233268   7.046   7.579   0.986
11109TIP3   OH233269   3.618   5.732   1.342
11109TIP3    H133270   3.642   5.791   1.270
11109TIP3    H233271   3.549   5.678   1.306
11110TIP3   OH233272   3.703   4.236   4.934
11110TIP3    H133273   3.707   4.147   4.898
11110TIP3    H233274   3.659   4.288   4.867
11111TIP3   OH233275   5.196   4.371   6.643
11111TIP3    H133276   5.135   4.312   6.687
11111TIP3    H233277   5.259   4.394   6.710
11112TIP3   OH233278   0.059   4.930   1.679
11112TIP3    H133279   0.083   4.853   1.730
11112TIP3    H233280  -0.016   4.902   1.626
11113TIP3   OH233281   7.262   0.880   4.166
11113TIP3    H133282   7.328   0.828   4.119
11113TIP3    H233283   7.259   0.963   4.118
11114TIP3   OH233284   4.244   2.670   1.833
11114TIP3    H133285   4.254   2.693   1.925
11114TIP3    H233286   4.320   2.615   1.814
11115TIP3   OH233287   5.239   1.857   0.422
11115TIP3    H133288   5.203   1.945   0.412
11115TIP3    H233289   5.333   1.868   0.413
11116TIP3   OH233290   7.641   2.392   5.171
11116TIP3    H133291   7.568   2.342   5.137
11116TIP3    H233292   7.682   2.335   5.236
11117TIP3   OH233293   8.209   0.163   5.739
11117TIP3    H133294   8.205   0.254   5.767
11117TIP3    H233295   8.254   0.118   5.810
11118TIP3   OH233296   2.419   2.934   3.099
11118TIP3    H133297   2.375   3.019   3.103
11118TIP3    H233298   2.386   2.894   3.018
11119TIP3   OH233299   7.330   5.626   4.753
11119TIP3    H133300   7.343   5.565   4.681
11119TIP3    H233301   7.299   5.706   4.712
11120TIP3   OH233302   6.078   7.485   2.706
11120TIP3    H133303   6.153   7.544   2.714
11120TIP3    H233304   6.002   7.543   2.703
11121TIP3   OH233305   7.051   6.067   2.412
11121TIP3    H133306   7.123   6.021   2.454
11121TIP3    H233307   6.978   6.006   2.415
11122TIP3   OH233308   1.086   6.422   4.128
11122TIP3    H133309   1.116   6.392   4.042
11122TIP3    H233310   1.162   6.467   4.165
11123TIP3   OH233311   5.611   0.833   1.747
11123TIP3    H133312   5.549   0.867   1.811
11123TIP3    H233313   5.568   0.757   1.708
11124TIP3   OH233314   6.455   4.427   0.331
11124TIP3    H133315   6.468   4.514   0.294
11124TIP3    H233316   6.394   4.440   0.404
11125TIP3   OH233317   5.467   3.742   1.444
11125TIP3    H133318   5.482   3.695   1.526
11125TIP3    H233319   5.514   3.691   1.378
11126TIP3   OH233320   5.383   4.983   6.116
11126TIP3    H133321   5.303   4.934   6.097
11126TIP3    H233322   5.420   4.940   6.193
11127TIP3   OH233323   2.407   0.588   2.374
11127TIP3    H133324   2.327   0.601   2.323
11127TIP3    H233325   2.388   0.629   2.459
11128TIP3   OH233326   7.343   0.215   0.688
11128TIP3    H133327   7.362   0.189   0.778
11128TIP3    H233328   7.365   0.308   0.684
11129TIP3   OH233329   6.123   0.683   3.324
11129TIP3    H133330   6.175   0.756   3.357
11129TIP3    H233331   6.152   0.672   3.233
11130TIP3   OH233332   2.354   0.596   2.825
11130TIP3    H133333   2.274   0.578   2.873
11130TIP3    H233334   2.377   0.513   2.783
11131TIP3   OH233335   0.874   4.792   6.304
11131TIP3    H133336   0.928   4.850   6.357
11131TIP3    H233337   0.908   4.704   6.323
11132TIP3   OH233338   1.673   1.555   4.149
11132TIP3    H133339   1.725   1.474   4.150
11132TIP3    H233340   1.585   1.526   4.122
11133TIP3   OH233341   4.964   7.175   1.704
11133TIP3    H133342   4.877   7.166   1.742
11133TIP3    H233343   4.956   7.247   1.641
11134TIP3   OH233344   7.232   6.522   6.320
11134TIP3    H133345   7.314   6.490   6.282
11134TIP3    H233346   7.229   6.482   6.407
11135TIP3   OH233347   6.912   0.103   4.310
11135TIP3    H133348   6.980   0.041   4.339
11135TIP3    H233349   6.830   0.063   4.339
11136TIP3   OH233350   2.926   6.003   1.899
11136TIP3    H133351   2.919   5.936   1.831
11136TIP3    H233352   2.840   6.003   1.942
11137TIP3   OH233353   1.829   4.651   4.378
11137TIP3    H133354   1.905   4.686   4.426
11137TIP3    H233355   1.754   4.671   4.434
11138TIP3   OH233356   5.041   4.042   3.266
11138TIP3    H133357   5.014   3.954   3.238
11138TIP3    H233358   4.966   4.075   3.316
11139TIP3   OH233359   6.323   7.372   2.172
11139TIP3    H133360   6.254   7.364   2.106
11139TIP3    H233361   6.403   7.389   2.121
11140TIP3   OH233362   8.092   1.440   0.967
11140TIP3    H133363   8.094   1.513   1.029
11140TIP3    H233364   8.000   1.418   0.958
11141TIP3   OH233365   1.911   5.218   2.210
11141TIP3    H133366   1.858   5.138   2.202
11141TIP3    H233367   1.924   5.246   2.119
11142TIP3   OH233368   2.751   0.559   0.021
11142TIP3    H133369   2.823   0.500  -0.002
11142TIP3    H233370   2.695   0.507   0.079
11143TIP3   OH233371   6.099   2.704   0.815
11143TIP3    H133372   6.058   2.710   0.901
11143TIP3    H233373   6.127   2.793   0.795
11144TIP3   OH233374   6.976   6.852   3.476
11144TIP3    H133375   7.053   6.842   3.420
11144TIP3    H233376   6.907   6.802   3.432
11145TIP3   OH233377   5.235   2.802   3.346
11145TIP3    H133378   5.146   2.837   3.335
11145TIP3    H233379   5.240   2.778   3.439
11146TIP3   OH233380   8.234   1.077   6.258
11146TIP3    H133381   8.188   0.993   6.265
11146TIP3    H233382   8.202   1.115   6.176
11147TIP3   OH233383   4.466   4.231   4.750
11147TIP3    H133384   4.440   4.212   4.840
11147TIP3    H233385   4.386   4.216   4.699
11148TIP3   OH233386   1.385   3.654   1.565
11148TIP3    H133387   1.347   3.687   1.483
11148TIP3    H233388   1.464   3.608   1.537
11149TIP3   OH233389   0.079   3.027   4.790
11149TIP3    H133390   0.086   2.969   4.714
11149TIP3    H233391   0.150   3.091   4.778
11150TIP3   OH233392   0.986   6.986   6.053
11150TIP3    H133393   1.010   7.006   5.963
11150TIP3    H233394   1.069   6.963   6.096
11151TIP3   OH233395   5.940   6.566   0.945
11151TIP3    H133396   5.905   6.492   0.896
11151TIP3    H233397   5.868   6.628   0.950
11152TIP3   OH233398   7.147   1.817   5.211
11152TIP3    H133399   7.063   1.805   5.168
11152TIP3    H233400   7.132   1.792   5.302
11153TIP3   OH233401   8.269   1.393   2.190
11153TIP3    H133402   8.184   1.379   2.148
11153TIP3    H233403   8.332   1.392   2.118
11154TIP3   OH233404   8.004   5.434   5.312
11154TIP3    H133405   8.063   5.361   5.334
11154TIP3    H233406   7.959   5.453   5.394
11155TIP3   OH233407   6.078   0.398   4.226
11155TIP3    H133408   6.121   0.386   4.310
11155TIP3    H233409   6.088   0.491   4.206
11156TIP3   OH233410   6.253   7.593   6.072
11156TIP3    H133411   6.199   7.514   6.080
11156TIP3    H233412   6.265   7.604   5.978
11157TIP3   OH233413   1.480   7.289   1.329
11157TIP3    H133414   1.409   7.352   1.344
11157TIP3    H233415   1.484   7.280   1.234
11158TIP3   OH233416   3.362   7.499   5.645
11158TIP3    H133417   3.316   7.466   5.568
11158TIP3    H233418   3.311   7.575   5.673
11159TIP3   OH233419   3.595   5.650   4.041
11159TIP3    H133420   3.624   5.647   4.132
11159TIP3    H233421   3.514   5.600   4.040
11160TIP3   OH233422   1.130   1.802   1.669
11160TIP3    H133423   1.158   1.868   1.605
11160TIP3    H233424   1.125   1.721   1.619
11161TIP3   OH233425   2.846   4.058   6.527
11161TIP3    H133426   2.934   4.069   6.563
11161TIP3    H233427   2.857   4.069   6.433
11162TIP3   OH233428   6.556   4.662   2.061
11162TIP3    H133429   6.615   4.623   1.996
11162TIP3    H233430   6.490   4.707   2.008
11163TIP3   OH233431   5.502   0.918   2.105
11163TIP3    H133432   5.469   0.857   2.038
11163TIP3    H233433   5.549   0.862   2.167
11164TIP3   OH233434   3.001   6.688   0.762
11164TIP3    H133435   2.911   6.697   0.733
11164TIP3    H233436   3.003   6.605   0.809
11165TIP3   OH233437   0.132   1.743   6.079
11165TIP3    H133438   0.082   1.669   6.045
11165TIP3    H233439   0.103   1.817   6.026
11166TIP3   OH233440   1.654   5.198   4.679
11166TIP3    H133441   1.702   5.130   4.726
11166TIP3    H233442   1.630   5.157   4.596
11167TIP3   OH233443   1.812   4.235   3.009
11167TIP3    H133444   1.739   4.206   2.954
11167TIP3    H233445   1.790   4.326   3.031
11168TIP3   OH233446   8.134   2.782   1.855
11168TIP3    H133447   8.162   2.797   1.945
11168TIP3    H233448   8.131   2.869   1.815
11169TIP3   OH233449   0.645   3.762   2.353
11169TIP3    H133450   0.628   3.808   2.435
11169TIP3    H233451   0.733   3.725   2.365
11170TIP3   OH233452   6.528   6.798   4.571
11170TIP3    H133453   6.602   6.767   4.622
11170TIP3    H233454   6.502   6.723   4.518
11171TIP3   OH233455   5.307   2.548   0.784
11171TIP3    H133456   5.292   2.517   0.873
11171TIP3    H233457   5.220   2.557   0.746
11172TIP3   OH233458   7.263   4.578   3.442
11172TIP3    H133459   7.208   4.633   3.386
11172TIP3    H233460   7.217   4.575   3.526
11173TIP3   OH233461   3.032   6.086   2.445
11173TIP3    H133462   2.970   6.017   2.424
11173TIP3    H233463   3.111   6.040   2.475
11174TIP3   OH233464   4.858   6.352   5.365
11174TIP3    H133465   4.888   6.326   5.452
11174TIP3    H233466   4.852   6.269   5.316
11175TIP3   OH233467   0.934   0.603   0.217
11175TIP3    H133468   1.014   0.651   0.238
11175TIP3    H233469   0.954   0.512   0.239
11176TIP3   OH233470   4.901   0.761   6.048
11176TIP3    H133471   4.869   0.696   5.986
11176TIP3    H233472   4.995   0.768   6.029
11177TIP3   OH233473   2.525   5.125   1.238
11177TIP3    H133474   2.502   5.205   1.191
11177TIP3    H233475   2.617   5.136   1.260
11178TIP3   OH233476   3.682   5.001   2.402
11178TIP3    H133477   3.698   5.075   2.460
11178TIP3    H233478   3.591   5.010   2.375
11179TIP3   OH233479   7.969   5.971   2.418
11179TIP3    H133480   7.905   5.932   2.476
11179TIP3    H233481   7.945   5.940   2.330
11180TIP3   OH233482   7.586   3.814   2.281
11180TIP3    H133483   7.632   3.807   2.365
11180TIP3    H233484   7.550   3.902   2.281
11181TIP3   OH233485   1.631   3.688   3.960
11181TIP3    H133486   1.586   3.706   4.042
11181TIP3    H233487   1.573   3.722   3.892
11182TIP3   OH233488   4.561   6.228   5.054
11182TIP3    H133489   4.466   6.213   5.054
11182TIP3    H233490   4.572   6.310   5.102
11183TIP3   OH233491   1.822   1.766   5.678
11183TIP3    H133492   1.908   1.808   5.676
11183TIP3    H233493   1.823   1.707   5.602
11184TIP3   OH233494   6.337   0.270   0.230
11184TIP3    H133495   6.417   0.314   0.259
11184TIP3    H233496   6.300   0.328   0.164
11185TIP3   OH233497   0.449   4.054   6.418
11185TIP3    H133498   0.480   4.094   6.336
11185TIP3    H233499   0.510   4.085   6.485
11186TIP3   OH233500   3.024   4.410   4.600
11186TIP3    H133501   3.096   4.428   4.539
11186TIP3    H233502   3.011   4.493   4.647
11187TIP3   OH233503   2.416   3.269   3.262
11187TIP3    H133504   2.440   3.296   3.174
11187TIP3    H233505   2.376   3.347   3.301
11188TIP3   OH233506   3.310   2.955   3.961
11188TIP3    H133507   3.344   2.866   3.963
11188TIP3    H233508   3.281   2.967   3.870
11189TIP3   OH233509   2.155   1.876   0.331
11189TIP3    H133510   2.198   1.961   0.316
11189TIP3    H233511   2.131   1.877   0.423
11190TIP3   OH233512   1.127   2.368   4.693
11190TIP3    H133513   1.189   2.305   4.656
11190TIP3    H233514   1.044   2.321   4.698
11191TIP3   OH233515   5.366   5.861   1.911
11191TIP3    H133516   5.393   5.870   2.002
11191TIP3    H233517   5.438   5.899   1.861
11192TIP3   OH233518   2.076   4.081   6.542
11192TIP3    H133519   2.065   4.065   6.635
11192TIP3    H233520   2.141   4.017   6.514
11193TIP3   OH233521   2.999   6.524   1.693
11193TIP3    H133522   3.043   6.445   1.725
11193TIP3    H233523   2.980   6.505   1.601
11194TIP3   OH233524   7.957   3.248   3.235
11194TIP3    H133525   8.044   3.286   3.226
11194TIP3    H233526   7.973   3.161   3.273
11195TIP3   OH233527   1.809   5.637   1.094
11195TIP3    H133528   1.834   5.727   1.071
11195TIP3    H233529   1.805   5.637   1.189
11196TIP3   OH233530   6.202   5.470   4.439
11196TIP3    H133531   6.225   5.530   4.368
11196TIP3    H233532   6.164   5.527   4.506
11197TIP3   OH233533   7.177   3.078   3.201
11197TIP3    H133534   7.210   3.041   3.282
11197TIP3    H233535   7.105   3.135   3.228
11198TIP3   OH233536   6.295   3.963   1.585
11198TIP3    H133537   6.348   4.042   1.584
11198TIP3    H233538   6.357   3.892   1.602
11199TIP3   OH233539   0.588   0.230   4.655
11199TIP3    H133540   0.564   0.193   4.570
11199TIP3    H233541   0.644   0.305   4.633
11200TIP3   OH233542   6.949   0.734   1.941
11200TIP3    H133543   6.993   0.650   1.955
11200TIP3    H233544   6.863   0.723   1.982
11201TIP3   OH233545   2.478   5.113   5.303
11201TIP3    H133546   2.390   5.118   5.265
11201TIP3    H233547   2.476   5.175   5.376
11202TIP3   OH233548   3.043   6.249   5.417
11202TIP3    H133549   2.973   6.282   5.474
11202TIP3    H233550   3.069   6.165   5.456
11203TIP3   OH233551   5.251   3.787   1.820
11203TIP3    H133552   5.262   3.836   1.738
11203TIP3    H233553   5.165   3.745   1.812
11204TIP3   OH233554   2.196   0.892   4.022
11204TIP3    H133555   2.124   0.954   4.034
11204TIP3    H233556   2.253   0.906   4.098
11205TIP3   OH233557  -0.030   6.039   6.620
11205TIP3    H133558   0.019   5.983   6.560
11205TIP3    H233559   0.032   6.109   6.642
11206TIP3   OH233560   8.243   7.753   4.004
11206TIP3    H133561   8.224   7.766   3.911
11206TIP3    H233562   8.174   7.801   4.049
11207TIP3   OH233563   0.467   5.426   4.769
11207TIP3    H133564   0.439   5.460   4.684
11207TIP3    H233565   0.460   5.331   4.761
11208TIP3   OH233566   7.923   3.259   0.345
11208TIP3    H133567   7.955   3.332   0.397
11208TIP3    H233568   7.885   3.301   0.267
11209TIP3   OH233569   1.623   3.792   2.711
11209TIP3    H133570   1.621   3.701   2.740
11209TIP3    H233571   1.589   3.842   2.786
11210TIP3   OH233572   3.857   1.821   2.098
11210TIP3    H133573   3.838   1.911   2.069
11210TIP3    H233574   3.805   1.766   2.038
11211TIP3   OH233575   1.844   3.519   1.701
11211TIP3    H133576   1.858   3.426   1.682
11211TIP3    H233577   1.910   3.564   1.648
11212TIP3   OH233578   2.764   1.926   6.318
11212TIP3    H133579   2.682   1.878   6.303
11212TIP3    H233580   2.768   1.990   6.247
11213TIP3   OH233581   2.119   6.362   3.480
11213TIP3    H133582   2.204   6.356   3.435
11213TIP3    H233583   2.125   6.298   3.551
11214TIP3   OH233584   5.415   6.495   4.842
11214TIP3    H133585   5.379   6.432   4.780
11214TIP3    H233586   5.341   6.548   4.868
11215TIP3   OH233587   5.851   6.586   0.537
11215TIP3    H133588   5.765   6.549   0.517
11215TIP3    H233589   5.912   6.533   0.486
11216TIP3   OH233590   3.974   7.397   2.658
11216TIP3    H133591   3.963   7.491   2.665
11216TIP3    H233592   3.967   7.379   2.564
11217TIP3   OH233593   7.554   0.148   3.211
11217TIP3    H133594   7.623   0.144   3.278
11217TIP3    H233595   7.558   0.062   3.168
11218TIP3   OH233596   1.086   2.212   2.567
11218TIP3    H133597   1.166   2.171   2.532
11218TIP3    H233598   1.043   2.142   2.616
11219TIP3   OH233599   3.073   5.441   3.737
11219TIP3    H133600   3.036   5.492   3.809
11219TIP3    H233601   3.116   5.506   3.682
11220TIP3   OH233602   3.902   4.115   4.420
11220TIP3    H133603   3.959   4.192   4.421
11220TIP3    H233604   3.960   4.042   4.441
11221TIP3   OH233605   4.591   4.648   6.465
11221TIP3    H133606   4.534   4.720   6.495
11221TIP3    H233607   4.606   4.666   6.372
11222TIP3   OH233608   1.274   3.402   4.767
11222TIP3    H133609   1.367   3.380   4.760
11222TIP3    H233610   1.262   3.476   4.708
11223TIP3   OH233611   2.409   6.336   0.198
11223TIP3    H133612   2.404   6.245   0.228
11223TIP3    H233613   2.499   6.363   0.217
11224TIP3   OH233614   6.785   0.515   6.485
11224TIP3    H133615   6.767   0.575   6.413
11224TIP3    H233616   6.865   0.469   6.459
11225TIP3   OH233617   7.538   7.146   1.696
11225TIP3    H133618   7.627   7.172   1.671
11225TIP3    H233619   7.520   7.195   1.776
11226TIP3   OH233620   1.870   7.020   3.597
11226TIP3    H133621   1.814   6.989   3.669
11226TIP3    H233622   1.956   7.034   3.638
11227TIP3   OH233623   2.875   5.608   2.008
11227TIP3    H133624   2.840   5.695   1.988
11227TIP3    H233625   2.846   5.553   1.935
11228TIP3   OH233626   8.012   0.488   4.311
11228TIP3    H133627   7.917   0.481   4.311
11228TIP3    H233628   8.034   0.525   4.397
11229TIP3   OH233629   5.700   0.556   5.401
11229TIP3    H133630   5.766   0.540   5.334
11229TIP3    H233631   5.625   0.502   5.374
11230TIP3   OH233632   5.299   6.243   3.087
11230TIP3    H133633   5.204   6.248   3.100
11230TIP3    H233634   5.318   6.149   3.090
11231TIP3   OH233635   6.840   7.567   2.883
11231TIP3    H133636   6.869   7.500   2.821
11231TIP3    H233637   6.746   7.577   2.865
11232TIP3   OH233638   5.406   4.061   0.513
11232TIP3    H133639   5.343   4.033   0.580
11232TIP3    H233640   5.351   4.098   0.444
11233TIP3   OH233641   1.655   2.178   4.041
11233TIP3    H133642   1.567   2.142   4.026
11233TIP3    H233643   1.690   2.127   4.113
11234TIP3   OH233644   7.456   7.410   0.217
11234TIP3    H133645   7.415   7.485   0.176
11234TIP3    H233646   7.387   7.371   0.270
11235TIP3   OH233647   0.213   5.725   4.540
11235TIP3    H133648   0.292   5.698   4.587
11235TIP3    H233649   0.151   5.653   4.555
11236TIP3   OH233650   2.309   2.598   3.744
11236TIP3    H133651   2.230   2.620   3.793
11236TIP3    H233652   2.380   2.613   3.806
11237TIP3   OH233653   4.426   7.114   5.004
11237TIP3    H133654   4.397   7.034   4.960
11237TIP3    H233655   4.506   7.089   5.049
11238TIP3   OH233656   0.914   0.727   2.850
11238TIP3    H133657   0.852   0.699   2.918
11238TIP3    H233658   0.939   0.645   2.806
11239TIP3   OH233659   3.605   6.481   1.274
11239TIP3    H133660   3.672   6.475   1.342
11239TIP3    H233661   3.554   6.400   1.283
11240TIP3   OH233662   5.370   2.032   1.661
11240TIP3    H133663   5.304   1.994   1.718
11240TIP3    H233664   5.396   2.113   1.705
11241TIP3   OH233665   5.506   1.880   3.488
11241TIP3    H133666   5.455   1.852   3.412
11241TIP3    H233667   5.569   1.810   3.502
11242TIP3   OH233668   2.603   1.333   1.548
11242TIP3    H133669   2.559   1.288   1.476
11242TIP3    H233670   2.692   1.347   1.517
11243TIP3   OH233671   5.847   6.295   0.326
11243TIP3    H133672   5.790   6.258   0.258
11243TIP3    H233673   5.862   6.222   0.386
11244TIP3   OH233674   2.459   0.520   0.150
11244TIP3    H133675   2.377   0.471   0.156
11244TIP3    H233676   2.478   0.546   0.241
11245TIP3   OH233677   4.559   4.292   5.507
11245TIP3    H133678   4.576   4.279   5.414
11245TIP3    H233679   4.644   4.282   5.549
11246TIP3   OH233680   5.261   2.688   3.099
11246TIP3    H133681   5.248   2.773   3.056
11246TIP3    H233682   5.227   2.700   3.188
11247TIP3   OH233683   2.730   7.745   1.053
11247TIP3    H133684   2.694   7.715   0.970
11247TIP3    H233685   2.694   7.834   1.063
11248TIP3   OH233686   1.647   5.266   5.297
11248TIP3    H133687   1.691   5.181   5.296
11248TIP3    H233688   1.658   5.299   5.208
11249TIP3   OH233689   3.851   3.585   4.559
11249TIP3    H133690   3.910   3.546   4.494
11249TIP3    H233691   3.766   3.587   4.516
11250TIP3   OH233692   2.773   6.102   4.497
11250TIP3    H133693   2.696   6.061   4.537
11250TIP3    H233694   2.844   6.039   4.511
11251TIP3   OH233695   4.755   6.707   5.735
11251TIP3    H133696   4.785   6.785   5.690
11251TIP3    H233697   4.750   6.732   5.827
11252TIP3   OH233698   7.691   7.223   6.054
11252TIP3    H133699   7.690   7.318   6.056
11252TIP3    H233700   7.695   7.197   6.146
11253TIP3   OH233701   3.796   3.169   0.329
11253TIP3    H133702   3.818   3.166   0.422
11253TIP3    H233703   3.726   3.105   0.318
11254TIP3   OH233704   1.683   3.876   1.460
11254TIP3    H133705   1.631   3.899   1.537
11254TIP3    H233706   1.619   3.853   1.393
11255TIP3   OH233707   6.341   5.638   5.093
11255TIP3    H133708   6.280   5.570   5.064
11255TIP3    H233709   6.296   5.720   5.076
11256TIP3   OH233710   3.670   4.353   2.256
11256TIP3    H133711   3.654   4.333   2.164
11256TIP3    H233712   3.629   4.439   2.269
11257TIP3   OH233713   0.387   7.402   1.953
11257TIP3    H133714   0.414   7.325   2.002
11257TIP3    H233715   0.449   7.408   1.881
11258TIP3   OH233716   2.881   4.285   2.998
11258TIP3    H133717   2.891   4.255   2.907
11258TIP3    H233718   2.899   4.379   2.994
11259TIP3   OH233719   6.265   3.050   3.301
11259TIP3    H133720   6.360   3.055   3.295
11259TIP3    H233721   6.248   2.978   3.362
11260TIP3   OH233722   7.858   3.499   5.545
11260TIP3    H133723   7.880   3.552   5.468
11260TIP3    H233724   7.795   3.553   5.593
11261TIP3   OH233725   7.663   6.423   4.776
11261TIP3    H133726   7.697   6.335   4.755
11261TIP3    H233727   7.690   6.437   4.867
11262TIP3   OH233728   1.663   2.718   5.900
11262TIP3    H133729   1.694   2.644   5.847
11262TIP3    H233730   1.622   2.777   5.837
11263TIP3   OH233731   0.774   0.783   6.180
11263TIP3    H133732   0.760   0.701   6.134
11263TIP3    H233733   0.812   0.758   6.264
11264TIP3   OH233734   4.435   2.598   3.545
11264TIP3    H133735   4.455   2.548   3.465
11264TIP3    H233736   4.512   2.586   3.600
11265TIP3   OH233737   6.737   6.180   1.889
11265TIP3    H133738   6.790   6.244   1.938
11265TIP3    H233739   6.666   6.232   1.851
11266TIP3   OH233740   6.382   0.847   4.878
11266TIP3    H133741   6.362   0.897   4.798
11266TIP3    H233742   6.352   0.904   4.949
11267TIP3   OH233743   8.251   4.938   5.585
11267TIP3    H133744   8.292   4.983   5.659
11267TIP3    H233745   8.157   4.948   5.600
11268TIP3   OH233746   6.266   1.949   5.080
11268TIP3    H133747   6.193   1.905   5.125
11268TIP3    H233748   6.223   2.016   5.027
11269TIP3   OH233749   0.024   5.979   5.276
11269TIP3    H133750   0.099   5.920   5.280
11269TIP3    H233751   0.017   6.003   5.184
11270TIP3   OH233752   0.650   4.896   1.997
11270TIP3    H133753   0.619   4.960   2.061
11270TIP3    H233754   0.745   4.909   1.994
11271TIP3   OH233755   6.596   1.944   5.118
11271TIP3    H133756   6.519   1.926   5.172
11271TIP3    H233757   6.602   1.869   5.059
11272TIP3   OH233758   5.959   3.247   0.801
11272TIP3    H133759   5.867   3.241   0.826
11272TIP3    H233760   5.958   3.293   0.717
11273TIP3   OH233761   6.265   7.645   2.239
11273TIP3    H133762   6.180   7.679   2.268
11273TIP3    H233763   6.249   7.553   2.222
11274TIP3   OH233764   6.654   4.771   6.320
11274TIP3    H133765   6.673   4.677   6.315
11274TIP3    H233766   6.737   4.810   6.349
11275TIP3   OH233767   4.626   5.922   4.120
11275TIP3    H133768   4.719   5.937   4.106
11275TIP3    H233769   4.612   5.831   4.093
11276TIP3   OH233770   0.998   3.223   6.566
11276TIP3    H133771   1.021   3.131   6.550
11276TIP3    H233772   0.905   3.221   6.589
11277TIP3   OH233773   0.931   1.111   1.361
11277TIP3    H133774   0.918   1.206   1.371
11277TIP3    H233775   1.003   1.090   1.420
11278TIP3   OH233776   7.598   3.840   1.654
11278TIP3    H133777   7.531   3.831   1.721
11278TIP3    H233778   7.586   3.928   1.620
11279TIP3   OH233779   4.025   6.233   2.676
11279TIP3    H133780   3.984   6.319   2.677
11279TIP3    H233781   4.026   6.207   2.584
11280TIP3   OH233782   2.149   3.881   2.714
11280TIP3    H133783   2.115   3.953   2.660
11280TIP3    H233784   2.182   3.923   2.793
11281TIP3   OH233785   1.213   1.725   1.211
11281TIP3    H133786   1.162   1.659   1.258
11281TIP3    H233787   1.189   1.713   1.119
11282TIP3   OH233788   1.087   6.479   5.952
11282TIP3    H133789   1.088   6.553   6.012
11282TIP3    H233790   1.008   6.492   5.899
11283TIP3   OH233791   3.251   6.806   0.628
11283TIP3    H133792   3.199   6.788   0.706
11283TIP3    H233793   3.255   6.722   0.582
11284TIP3   OH233794   6.042   0.075   4.177
11284TIP3    H133795   6.059   0.093   4.084
11284TIP3    H233796   6.026  -0.019   4.180
11285TIP3   OH233797   3.709   0.888   1.553
11285TIP3    H133798   3.683   0.828   1.484
11285TIP3    H233799   3.734   0.831   1.626
11286TIP3   OH233800   3.100   5.598   0.531
11286TIP3    H133801   3.159   5.654   0.480
11286TIP3    H233802   3.154   5.567   0.604
11287TIP3   OH233803   8.116   2.188   5.754
11287TIP3    H133804   8.033   2.168   5.798
11287TIP3    H233805   8.099   2.271   5.709
11288TIP3   OH233806   0.150   6.804   4.059
11288TIP3    H133807   0.113   6.792   3.972
11288TIP3    H233808   0.160   6.899   4.069
11289TIP3   OH233809   0.499   4.309   6.532
11289TIP3    H133810   0.500   4.405   6.537
11289TIP3    H233811   0.406   4.286   6.539
11290TIP3   OH233812   7.715   0.133   1.808
11290TIP3    H133813   7.766   0.213   1.814
11290TIP3    H233814   7.653   0.149   1.737
11291TIP3   OH233815   7.155   4.072   5.257
11291TIP3    H133816   7.158   3.988   5.303
11291TIP3    H233817   7.212   4.061   5.181
11292TIP3   OH233818   1.935   1.617   3.277
11292TIP3    H133819   2.029   1.638   3.278
11292TIP3    H233820   1.917   1.584   3.365
11293TIP3   OH233821   5.331   0.056   0.649
11293TIP3    H133822   5.352   0.147   0.668
11293TIP3    H233823   5.387   0.033   0.575
11294TIP3   OH233824   5.210   7.089   1.613
11294TIP3    H133825   5.122   7.108   1.646
11294TIP3    H233826   5.261   7.167   1.633
11295TIP3   OH233827   5.246   7.330   1.976
11295TIP3    H133828   5.200   7.289   1.903
11295TIP3    H233829   5.179   7.383   2.019
11296TIP3   OH233830   5.083   2.098   5.961
11296TIP3    H133831   5.165   2.080   6.007
11296TIP3    H233832   5.110   2.137   5.878
11297TIP3   OH233833   2.731   6.651   0.667
11297TIP3    H133834   2.720   6.713   0.596
11297TIP3    H233835   2.655   6.594   0.661
11298TIP3   OH233836   4.570   2.133   1.397
11298TIP3    H133837   4.477   2.109   1.393
11298TIP3    H233838   4.615   2.059   1.356
11299TIP3   OH233839   5.134   7.357   5.725
11299TIP3    H133840   5.124   7.422   5.655
11299TIP3    H233841   5.060   7.372   5.783
11300TIP3   OH233842   6.397   7.213   6.001
11300TIP3    H133843   6.315   7.169   5.981
11300TIP3    H233844   6.408   7.277   5.931
11301TIP3   OH233845   1.417   0.838   3.474
11301TIP3    H133846   1.484   0.777   3.442
11301TIP3    H233847   1.406   0.901   3.403
11302TIP3   OH233848   2.701   7.279   0.260
11302TIP3    H133849   2.793   7.270   0.233
11302TIP3    H233850   2.656   7.209   0.212
11303TIP3   OH233851   4.705   0.739   1.185
11303TIP3    H133852   4.759   0.735   1.106
11303TIP3    H233853   4.707   0.649   1.219
11304TIP3   OH233854   1.324   3.846   3.382
11304TIP3    H133855   1.240   3.889   3.399
11304TIP3    H233856   1.301   3.755   3.366
11305TIP3   OH233857   4.117   3.444   1.265
11305TIP3    H133858   4.185   3.420   1.202
11305TIP3    H233859   4.075   3.362   1.288
11306TIP3   OH233860   2.215   2.726   3.464
11306TIP3    H133861   2.200   2.632   3.456
11306TIP3    H233862   2.233   2.740   3.557
11307TIP3   OH233863   4.793   6.156   3.126
11307TIP3    H133864   4.885   6.137   3.107
11307TIP3    H233865   4.796   6.226   3.192
11308TIP3   OH233866   5.432   0.295   0.682
11308TIP3    H133867   5.509   0.310   0.737
11308TIP3    H233868   5.442   0.357   0.610
11309TIP3   OH233869   0.204   4.863   2.067
11309TIP3    H133870   0.214   4.849   1.973
11309TIP3    H233871   0.111   4.883   2.078
11310TIP3   OH233872   4.688   2.704   1.555
11310TIP3    H133873   4.630   2.640   1.514
11310TIP3    H233874   4.635   2.745   1.623
11311TIP3   OH233875   3.897   7.007   2.835
11311TIP3    H133876   3.836   6.985   2.906
11311TIP3    H233877   3.860   7.086   2.795
11312TIP3   OH233878   3.111   1.036   0.945
11312TIP3    H133879   3.074   1.069   1.026
11312TIP3    H233880   3.036   1.004   0.894
11313TIP3   OH233881   7.531   0.009   6.472
11313TIP3    H133882   7.471   0.077   6.441
11313TIP3    H233883   7.476  -0.051   6.523
11314TIP3   OH233884   6.534   6.264   0.722
11314TIP3    H133885   6.531   6.347   0.769
11314TIP3    H233886   6.559   6.200   0.787
11315TIP3   OH233887   7.870   3.587   6.126
11315TIP3    H133888   7.797   3.611   6.069
11315TIP3    H233889   7.946   3.585   6.067
11316TIP3   OH233890   0.630   6.743   1.120
11316TIP3    H133891   0.679   6.799   1.180
11316TIP3    H233892   0.684   6.664   1.111
11317TIP3   OH233893   2.575   1.699   3.850
11317TIP3    H133894   2.501   1.655   3.893
11317TIP3    H233895   2.601   1.638   3.781
11318TIP3   OH233896   4.860   1.109   4.470
11318TIP3    H133897   4.862   1.063   4.554
11318TIP3    H233898   4.845   1.039   4.405
11319TIP3   OH233899   4.937   4.649   2.218
11319TIP3    H133900   4.993   4.617   2.147
11319TIP3    H233901   4.865   4.587   2.223
11320TIP3   OH233902   4.255   6.878   6.369
11320TIP3    H133903   4.247   6.967   6.336
11320TIP3    H233904   4.216   6.881   6.456
11321TIP3   OH233905   7.455   6.135   0.127
11321TIP3    H133906   7.459   6.165   0.037
11321TIP3    H233907   7.405   6.053   0.124
11322TIP3   OH233908   4.438   3.353   2.711
11322TIP3    H133909   4.490   3.311   2.779
11322TIP3    H233910   4.384   3.417   2.757
11323TIP3   OH233911   8.024   6.574   3.352
11323TIP3    H133912   8.029   6.600   3.444
11323TIP3    H233913   7.931   6.557   3.337
11324TIP3   OH233914   0.048   0.812   6.220
11324TIP3    H133915   0.037   0.751   6.147
11324TIP3    H233916   0.031   0.760   6.298
11325TIP3   OH233917   6.667   5.764   0.711
11325TIP3    H133918   6.661   5.671   0.733
11325TIP3    H233919   6.637   5.769   0.620
11326TIP3   OH233920   5.614   0.342   2.685
11326TIP3    H133921   5.576   0.288   2.754
11326TIP3    H233922   5.652   0.417   2.731
11327TIP3   OH233923   0.703   5.291   1.285
11327TIP3    H133924   0.757   5.215   1.263
11327TIP3    H233925   0.728   5.357   1.219
11328TIP3   OH233926   1.143   6.586   1.813
11328TIP3    H133927   1.224   6.631   1.787
11328TIP3    H233928   1.075   6.653   1.804
11329TIP3   OH233929   4.860   7.113   4.909
11329TIP3    H133930   4.806   7.109   4.987
11329TIP3    H233931   4.865   7.023   4.877
11330TIP3   OH233932   6.098   6.232   0.792
11330TIP3    H133933   6.059   6.177   0.724
11330TIP3    H233934   6.023   6.274   0.834
11331TIP3   OH233935   6.596   7.543   2.319
11331TIP3    H133936   6.682   7.584   2.312
11331TIP3    H233937   6.559   7.550   2.231
11332TIP3   OH233938   3.564   6.203   0.873
11332TIP3    H133939   3.643   6.247   0.904
11332TIP3    H233940   3.499   6.272   0.864
11333TIP3   OH233941   6.283   2.321   1.575
11333TIP3    H133942   6.246   2.267   1.645
11333TIP3    H233943   6.373   2.337   1.602
11334TIP3   OH233944   3.698   1.184   6.147
11334TIP3    H133945   3.633   1.138   6.094
11334TIP3    H233946   3.778   1.132   6.137
11335TIP3   OH233947   0.951   5.211   4.123
11335TIP3    H133948   0.871   5.258   4.146
11335TIP3    H233949   0.922   5.123   4.101
11336TIP3   OH233950   0.605   1.364   0.943
11336TIP3    H133951   0.652   1.337   0.865
11336TIP3    H233952   0.671   1.361   1.013
11337TIP3   OH233953   1.161   7.338   6.106
11337TIP3    H133954   1.158   7.263   6.047
11337TIP3    H233955   1.219   7.401   6.063
11338TIP3   OH233956   7.603   7.639   0.906
11338TIP3    H133957   7.510   7.655   0.893
11338TIP3    H233958   7.632   7.711   0.963
11339TIP3   OH233959   7.988   3.000   0.248
11339TIP3    H133960   7.968   2.941   0.320
11339TIP3    H233961   7.962   3.086   0.280
11340TIP3   OH233962   3.528   6.704   6.156
11340TIP3    H133963   3.545   6.799   6.154
11340TIP3    H233964   3.433   6.697   6.145
11341TIP3   OH233965   5.588   2.309   2.663
11341TIP3    H133966   5.540   2.369   2.721
11341TIP3    H233967   5.538   2.308   2.582
11342TIP3   OH233968   4.915   2.964   2.106
11342TIP3    H133969   4.980   3.016   2.059
11342TIP3    H233970   4.895   2.892   2.047
11343TIP3   OH233971   0.662   3.245   3.283
11343TIP3    H133972   0.584   3.248   3.228
11343TIP3    H233973   0.641   3.181   3.350
11344TIP3   OH233974   0.597   1.786   1.053
11344TIP3    H133975   0.597   1.692   1.039
11344TIP3    H233976   0.571   1.823   0.969
11345TIP3   OH233977   5.262   4.770   5.901
11345TIP3    H133978   5.331   4.812   5.850
11345TIP3    H233979   5.275   4.676   5.888
11346TIP3   OH233980   6.200   5.023   0.488
11346TIP3    H133981   6.165   4.943   0.447
11346TIP3    H233982   6.273   4.993   0.542
11347TIP3   OH233983   7.867   6.886   1.441
11347TIP3    H133984   7.832   6.883   1.352
11347TIP3    H233985   7.801   6.935   1.491
11348TIP3   OH233986   6.100   6.080   3.386
11348TIP3    H133987   6.098   6.161   3.437
11348TIP3    H233988   6.133   6.105   3.300
11349TIP3   OH233989   2.995   4.083   1.066
11349TIP3    H133990   2.999   4.170   1.105
11349TIP3    H233991   3.046   4.091   0.985
11350TIP3   OH233992   1.759   5.315   6.472
11350TIP3    H133993   1.700   5.385   6.444
11350TIP3    H233994   1.785   5.340   6.560
11351TIP3   OH233995   5.973   5.457   6.179
11351TIP3    H133996   6.008   5.411   6.103
11351TIP3    H233997   5.889   5.415   6.197
11352TIP3   OH233998   6.390   4.895   6.162
11352TIP3    H133999   6.483   4.896   6.140
11352TIP3    H234000   6.386   4.939   6.247
11353TIP3   OH234001   1.543   2.532   3.837
11353TIP3    H134002   1.476   2.538   3.906
11353TIP3    H234003   1.552   2.621   3.805
11354TIP3   OH234004   1.456  -0.013   2.333
11354TIP3    H134005   1.411   0.068   2.310
11354TIP3    H234006   1.549   0.009   2.333
11355TIP3   OH234007   4.544   5.369   1.936
11355TIP3    H134008   4.525   5.460   1.961
11355TIP3    H234009   4.486   5.352   1.862
11356TIP3   OH234010   3.712   4.409   6.398
11356TIP3    H134011   3.722   4.367   6.483
11356TIP3    H234012   3.677   4.496   6.419
11357TIP3   OH234013   2.307   1.477   6.235
11357TIP3    H134014   2.394   1.443   6.215
11357TIP3    H234015   2.306   1.487   6.330
11358TIP3   OH234016   6.774   6.050   0.187
11358TIP3    H134017   6.842   6.114   0.207
11358TIP3    H234018   6.781   5.984   0.256
11359TIP3   OH234019   1.315   0.084   6.795
11359TIP3    H134020   1.335   0.174   6.772
11359TIP3    H234021   1.290   0.043   6.712
11360TIP3   OH234022   1.102   7.260   1.128
11360TIP3    H134023   1.151   7.246   1.047
11360TIP3    H234024   1.122   7.350   1.153
11361TIP3   OH234025   5.956   0.913   6.350
11361TIP3    H134026   6.048   0.930   6.368
11361TIP3    H234027   5.912   0.929   6.433
11362TIP3   OH234028   0.721   5.072   2.903
11362TIP3    H134029   0.699   4.979   2.915
11362TIP3    H234030   0.789   5.089   2.967
11363TIP3   OH234031   6.473   5.036   6.654
11363TIP3    H134032   6.418   5.100   6.698
11363TIP3    H234033   6.453   5.046   6.561
11364TIP3   OH234034   5.129   0.482   1.483
11364TIP3    H134035   5.193   0.483   1.412
11364TIP3    H234036   5.177   0.445   1.558
11365TIP3   OH234037   6.975   5.507   4.693
11365TIP3    H134038   7.020   5.464   4.620
11365TIP3    H234039   6.882   5.488   4.677
11366TIP3   OH234040   3.582   5.164   1.339
11366TIP3    H134041   3.673   5.159   1.367
11366TIP3    H234042   3.544   5.081   1.365
11367TIP3   OH234043   7.740   6.767   4.736
11367TIP3    H134044   7.676   6.748   4.805
11367TIP3    H234045   7.812   6.811   4.781
11368TIP3   OH234046   4.107   0.845   6.788
11368TIP3    H134047   4.057   0.892   6.721
11368TIP3    H234048   4.077   0.755   6.782
11369TIP3   OH234049   1.197   7.163   2.608
11369TIP3    H134050   1.204   7.081   2.657
11369TIP3    H234051   1.283   7.203   2.616
11370TIP3   OH234052   6.127   4.411   5.282
11370TIP3    H134053   6.122   4.496   5.237
11370TIP3    H234054   6.214   4.411   5.322
11371TIP3   OH234055   6.880   4.316   6.219
11371TIP3    H134056   6.973   4.330   6.238
11371TIP3    H234057   6.870   4.341   6.128
11372TIP3   OH234058   1.693   0.784   3.352
11372TIP3    H134059   1.749   0.846   3.306
11372TIP3    H234060   1.641   0.743   3.283
11373TIP3   OH234061   0.542   4.632   5.634
11373TIP3    H134062   0.527   4.583   5.553
11373TIP3    H234063   0.586   4.712   5.606
11374TIP3   OH234064   5.841   6.390   3.562
11374TIP3    H134065   5.935   6.402   3.547
11374TIP3    H234066   5.804   6.478   3.559
11375TIP3   OH234067   7.766   7.126   5.344
11375TIP3    H134068   7.800   7.056   5.400
11375TIP3    H234069   7.841   7.184   5.329
11376TIP3   OH234070   8.250   1.745   6.621
11376TIP3    H134071   8.200   1.827   6.614
11376TIP3    H234072   8.221   1.706   6.704
11377TIP3   OH234073   4.174   6.417   0.465
11377TIP3    H134074   4.182   6.459   0.551
11377TIP3    H234075   4.186   6.488   0.403
11378TIP3   OH234076   5.630   6.504   6.480
11378TIP3    H134077   5.698   6.557   6.523
11378TIP3    H234078   5.553   6.516   6.535
11379TIP3   OH234079   1.216   4.768   0.009
11379TIP3    H134080   1.214   4.702   0.078
11379TIP3    H234081   1.136   4.819   0.023
11380TIP3   OH234082   3.898   5.767   3.468
11380TIP3    H134083   3.985   5.772   3.430
11380TIP3    H234084   3.911   5.777   3.562
11381TIP3   OH234085   3.294   7.023   2.058
11381TIP3    H134086   3.243   6.943   2.041
11381TIP3    H234087   3.337   7.042   1.975
11382TIP3   OH234088   2.138   3.385   0.304
11382TIP3    H134089   2.054   3.357   0.339
11382TIP3    H234090   2.185   3.420   0.380
11383TIP3   OH234091   4.530   1.603   3.316
11383TIP3    H134092   4.498   1.689   3.289
11383TIP3    H234093   4.586   1.575   3.244
11384TIP3   OH234094   4.847   6.540   0.492
11384TIP3    H134095   4.831   6.631   0.467
11384TIP3    H234096   4.931   6.519   0.452
11385TIP3   OH234097   1.374   3.967   4.427
11385TIP3    H134098   1.309   3.936   4.364
11385TIP3    H234099   1.325   4.024   4.486
11386TIP3   OH234100   5.124   6.384   3.954
11386TIP3    H134101   5.201   6.419   3.908
11386TIP3    H234102   5.161   6.324   4.019
11387TIP3   OH234103   7.004   1.155   3.897
11387TIP3    H134104   6.985   1.062   3.909
11387TIP3    H234105   6.962   1.178   3.815
11388TIP3   OH234106   2.059   7.353   3.805
11388TIP3    H134107   2.084   7.414   3.736
11388TIP3    H234108   2.099   7.388   3.884
11389TIP3   OH234109   6.474   4.022   6.529
11389TIP3    H134110   6.386   3.995   6.502
11389TIP3    H234111   6.508   4.070   6.453
11390TIP3   OH234112   2.442   5.157   2.882
11390TIP3    H134113   2.432   5.062   2.880
11390TIP3    H234114   2.472   5.176   2.971
11391TIP3   OH234115   6.365   6.133   5.923
11391TIP3    H134116   6.300   6.100   5.985
11391TIP3    H234117   6.408   6.054   5.889
11392TIP3   OH234118   2.815   4.953   4.930
11392TIP3    H134119   2.897   4.910   4.904
11392TIP3    H234120   2.764   4.959   4.849
11393TIP3   OH234121   2.016   0.742   0.838
11393TIP3    H134122   2.036   0.711   0.927
11393TIP3    H234123   2.092   0.717   0.786
11394TIP3   OH234124   3.085   5.347   4.684
11394TIP3    H134125   3.024   5.274   4.680
11394TIP3    H234126   3.084   5.384   4.595
11395TIP3   OH234127   5.756   3.631   2.617
11395TIP3    H134128   5.662   3.614   2.609
11395TIP3    H234129   5.797   3.565   2.562
11396TIP3   OH234130   0.294   3.803   4.212
11396TIP3    H134131   0.202   3.777   4.207
11396TIP3    H234132   0.341   3.733   4.166
11397TIP3   OH234133   7.046   7.182   3.096
11397TIP3    H134134   7.053   7.165   3.190
11397TIP3    H234135   6.953   7.169   3.077
11398TIP3   OH234136   2.362   5.622   0.040
11398TIP3    H134137   2.321   5.634  -0.046
11398TIP3    H234138   2.363   5.527   0.053
11399TIP3   OH234139   6.130   1.530   5.003
11399TIP3    H134140   6.035   1.542   5.002
11399TIP3    H234141   6.149   1.484   4.921
11400TIP3   OH234142   0.615   7.709   3.579
11400TIP3    H134143   0.616   7.694   3.674
11400TIP3    H234144   0.594   7.801   3.570
11401TIP3   OH234145   3.101   4.120   0.105
11401TIP3    H134146   3.125   4.163   0.187
11401TIP3    H234147   3.009   4.094   0.118
11402TIP3   OH234148   7.862   7.069   4.750
11402TIP3    H134149   7.891   7.038   4.664
11402TIP3    H234150   7.906   7.012   4.813
11403TIP3   OH234151   7.795   1.156   5.369
11403TIP3    H134152   7.818   1.243   5.335
11403TIP3    H234153   7.765   1.108   5.292
11404TIP3   OH234154   7.890   2.106   0.354
11404TIP3    H134155   7.800   2.081   0.335
11404TIP3    H234156   7.912   2.057   0.434
11405TIP3   OH234157   6.516   7.322   4.235
11405TIP3    H134158   6.573   7.399   4.239
11405TIP3    H234159   6.443   7.349   4.180
11406TIP3   OH234160   4.237   0.804   2.781
11406TIP3    H134161   4.269   0.721   2.747
11406TIP3    H234162   4.221   0.787   2.874
11407TIP3   OH234163   7.690   3.081   3.454
11407TIP3    H134164   7.640   3.004   3.425
11407TIP3    H234165   7.640   3.155   3.422
11408TIP3   OH234166   6.484   4.360   6.749
11408TIP3    H134167   6.519   4.381   6.662
11408TIP3    H234168   6.492   4.443   6.797
11409TIP3   OH234169   1.495   5.173   1.016
11409TIP3    H134170   1.577   5.125   1.031
11409TIP3    H234171   1.522   5.265   1.013
11410TIP3   OH234172   0.844   6.856   3.383
11410TIP3    H134173   0.897   6.867   3.462
11410TIP3    H234174   0.879   6.921   3.322
11411TIP3   OH234175   7.309   4.486   0.639
11411TIP3    H134176   7.360   4.524   0.711
11411TIP3    H234177   7.373   4.439   0.586
11412TIP3   OH234178   3.607   0.594   5.858
11412TIP3    H134179   3.569   0.510   5.886
11412TIP3    H234180   3.699   0.574   5.844
11413TIP3   OH234181   6.624   2.976   0.813
11413TIP3    H134182   6.582   2.976   0.899
11413TIP3    H234183   6.553   2.957   0.752
11414TIP3   OH234184   1.136   5.947   2.384
11414TIP3    H134185   1.199   5.965   2.315
11414TIP3    H234186   1.091   5.867   2.355
11415TIP3   OH234187   0.189   2.877   4.377
11415TIP3    H134188   0.100   2.892   4.346
11415TIP3    H234189   0.178   2.861   4.471
11416TIP3   OH234190   3.769   0.390   1.977
11416TIP3    H134191   3.709   0.465   1.979
11416TIP3    H234192   3.768   0.361   1.885
11417TIP3   OH234193   7.304   0.213   5.805
11417TIP3    H134194   7.338   0.130   5.771
11417TIP3    H234195   7.379   0.253   5.850
11418TIP3   OH234196   1.063   3.991   6.248
11418TIP3    H134197   1.107   4.074   6.232
11418TIP3    H234198   1.134   3.927   6.258
11419TIP3   OH234199   6.527   7.481   0.695
11419TIP3    H134200   6.561   7.416   0.756
11419TIP3    H234201   6.443   7.446   0.666
11420TIP3   OH234202   3.916   2.108   4.993
11420TIP3    H134203   3.877   2.163   5.060
11420TIP3    H234204   3.843   2.059   4.956
11421TIP3   OH234205   3.790   3.853   4.101
11421TIP3    H134206   3.768   3.773   4.054
11421TIP3    H234207   3.819   3.823   4.187
11422TIP3   OH234208   3.040   4.603   0.337
11422TIP3    H134209   2.974   4.670   0.356
11422TIP3    H234210   3.122   4.640   0.370
11423TIP3   OH234211   1.600   0.746   1.644
11423TIP3    H134212   1.513   0.708   1.633
11423TIP3    H234213   1.656   0.695   1.585
11424TIP3   OH234214   1.975   2.135   1.919
11424TIP3    H134215   1.961   2.185   1.838
11424TIP3    H234216   2.067   2.150   1.941
11425TIP3   OH234217   3.223   4.698   5.704
11425TIP3    H134218   3.269   4.748   5.637
11425TIP3    H234219   3.253   4.736   5.787
11426TIP3   OH234220   0.524   1.765   0.441
11426TIP3    H134221   0.609   1.735   0.410
11426TIP3    H234222   0.465   1.752   0.367
11427TIP3   OH234223   2.978   7.465   2.192
11427TIP3    H134224   2.884   7.447   2.190
11427TIP3    H234225   3.019   7.379   2.181
11428TIP3   OH234226   5.249   4.682   1.031
11428TIP3    H134227   5.344   4.668   1.027
11428TIP3    H234228   5.233   4.709   1.121
11429TIP3   OH234229   6.533   7.432   1.671
11429TIP3    H134230   6.593   7.504   1.693
11429TIP3    H234231   6.446   7.465   1.696
11430TIP3   OH234232   0.076   3.553   3.916
11430TIP3    H134233   0.095   3.459   3.905
11430TIP3    H234234   0.151   3.597   3.876
11431TIP3   OH234235   7.983   4.408   4.453
11431TIP3    H134236   7.953   4.397   4.544
11431TIP3    H234237   8.065   4.457   4.461
11432TIP3   OH234238   4.273   7.063   3.934
11432TIP3    H134239   4.315   7.044   4.017
11432TIP3    H234240   4.287   6.984   3.881
11433TIP3   OH234241   3.242   0.729   3.191
11433TIP3    H134242   3.164   0.681   3.164
11433TIP3    H234243   3.306   0.710   3.122
11434TIP3   OH234244   6.150   4.232   6.082
11434TIP3    H134245   6.189   4.308   6.039
11434TIP3    H234246   6.128   4.173   6.010
11435TIP3   OH234247   3.476   1.120   4.810
11435TIP3    H134248   3.493   1.135   4.903
11435TIP3    H234249   3.477   1.025   4.801
11436TIP3   OH234250   6.399   2.090   2.859
11436TIP3    H134251   6.481   2.042   2.847
11436TIP3    H234252   6.425   2.170   2.905
11437TIP3   OH234253   6.314   7.524   4.110
11437TIP3    H134254   6.243   7.527   4.174
11437TIP3    H234255   6.281   7.467   4.041
11438TIP3   OH234256   7.400   5.370   1.330
11438TIP3    H134257   7.350   5.297   1.366
11438TIP3    H234258   7.337   5.441   1.322
11439TIP3   OH234259   5.141   1.436   4.396
11439TIP3    H134260   5.226   1.460   4.432
11439TIP3    H234261   5.091   1.517   4.396
11440TIP3   OH234262   5.519   7.609   1.317
11440TIP3    H134263   5.547   7.590   1.227
11440TIP3    H234264   5.480   7.696   1.312
11441TIP3   OH234265   2.061   0.082   2.237
11441TIP3    H134266   2.053  -0.013   2.249
11441TIP3    H234267   2.012   0.119   2.310
11442TIP3   OH234268   2.159   4.627   5.640
11442TIP3    H134269   2.131   4.610   5.729
11442TIP3    H234270   2.165   4.540   5.600
11443TIP3   OH234271   5.044   1.189   5.265
11443TIP3    H134272   5.002   1.102   5.267
11443TIP3    H234273   5.137   1.171   5.279
11444TIP3   OH234274   1.456   2.332   3.689
11444TIP3    H134275   1.389   2.377   3.638
11444TIP3    H234276   1.493   2.399   3.746
11445TIP3   OH234277   5.432   1.156   2.022
11445TIP3    H134278   5.448   1.077   2.074
11445TIP3    H234279   5.418   1.123   1.933
11446TIP3   OH234280   2.987   0.621   3.216
11446TIP3    H134281   2.990   0.526   3.204
11446TIP3    H234282   2.913   0.650   3.163
11447TIP3   OH234283   7.238   6.541   2.342
11447TIP3    H134284   7.148   6.573   2.354
11447TIP3    H234285   7.272   6.593   2.269
11448TIP3   OH234286   1.250   3.911   4.020
11448TIP3    H134287   1.217   3.897   3.931
11448TIP3    H234288   1.329   3.963   4.008
11449TIP3   OH234289   6.413   0.690   4.641
11449TIP3    H134290   6.430   0.753   4.571
11449TIP3    H234291   6.452   0.729   4.719
11450TIP3   OH234292   2.796   6.172   4.239
11450TIP3    H134293   2.877   6.216   4.213
11450TIP3    H234294   2.810   6.149   4.331
11451TIP3   OH234295   3.789   7.631   4.198
11451TIP3    H134296   3.735   7.671   4.130
11451TIP3    H234297   3.833   7.558   4.153
11452TIP3   OH234298   0.938   1.597   3.048
11452TIP3    H134299   1.021   1.588   3.001
11452TIP3    H234300   0.931   1.517   3.100
11453TIP3   OH234301   6.653   0.705   2.175
11453TIP3    H134302   6.664   0.701   2.080
11453TIP3    H234303   6.652   0.614   2.203
11454TIP3   OH234304   3.772   4.506   4.564
11454TIP3    H134305   3.733   4.494   4.651
11454TIP3    H234306   3.708   4.468   4.504
11455TIP3   OH234307   7.628   2.265   5.636
11455TIP3    H134308   7.647   2.340   5.580
11455TIP3    H234309   7.584   2.203   5.578
11456TIP3   OH234310   3.469   3.301   3.289
11456TIP3    H134311   3.412   3.375   3.311
11456TIP3    H234312   3.420   3.224   3.316
11457TIP3   OH234313   5.116   2.199   6.740
11457TIP3    H134314   5.051   2.156   6.796
11457TIP3    H234315   5.151   2.270   6.794
11458TIP3   OH234316   7.930   4.031   4.413
11458TIP3    H134317   7.873   4.053   4.487
11458TIP3    H234318   7.923   4.106   4.354
11459TIP3   OH234319   6.479   1.240   5.717
11459TIP3    H134320   6.569   1.272   5.725
11459TIP3    H234321   6.472   1.172   5.784
11460TIP3   OH234322   8.084   7.507   1.629
11460TIP3    H134323   8.058   7.424   1.588
11460TIP3    H234324   8.129   7.555   1.559
11461TIP3   OH234325   5.015   6.289   5.585
11461TIP3    H134326   5.093   6.242   5.613
11461TIP3    H234327   4.982   6.331   5.665
11462TIP3   OH234328   4.996   2.718   4.405
11462TIP3    H134329   5.037   2.670   4.478
11462TIP3    H234330   4.993   2.655   4.334
11463TIP3   OH234331   0.531   2.106   2.111
11463TIP3    H134332   0.576   2.191   2.107
11463TIP3    H234333   0.549   2.066   2.026
11464TIP3   OH234334   0.697   2.507   3.263
11464TIP3    H134335   0.646   2.544   3.335
11464TIP3    H234336   0.778   2.558   3.262
11465TIP3   OH234337   3.235   4.192   2.253
11465TIP3    H134338   3.304   4.227   2.196
11465TIP3    H234339   3.160   4.179   2.194
11466TIP3   OH234340   4.863   5.188   3.079
11466TIP3    H134341   4.806   5.253   3.119
11466TIP3    H234342   4.939   5.182   3.138
11467TIP3   OH234343   5.405   4.758   1.457
11467TIP3    H134344   5.376   4.839   1.498
11467TIP3    H234345   5.411   4.695   1.529
11468TIP3   OH234346   1.258   3.834   4.928
11468TIP3    H134347   1.343   3.792   4.916
11468TIP3    H234348   1.196   3.761   4.932
11469TIP3   OH234349   8.244   3.407   5.009
11469TIP3    H134350   8.235   3.312   4.994
11469TIP3    H234351   8.232   3.446   4.922
11470TIP3   OH234352   5.883   2.302   4.944
11470TIP3    H134353   5.869   2.324   5.035
11470TIP3    H234354   5.956   2.358   4.917
11471TIP3   OH234355   5.124   5.149   5.798
11471TIP3    H134356   5.073   5.070   5.818
11471TIP3    H234357   5.142   5.188   5.884
11472TIP3   OH234358   7.778   2.628   1.223
11472TIP3    H134359   7.833   2.601   1.297
11472TIP3    H234360   7.771   2.723   1.232
11473TIP3   OH234361   3.803   0.496   1.209
11473TIP3    H134362   3.852   0.576   1.192
11473TIP3    H234363   3.713   0.525   1.221
11474TIP3   OH234364   4.542   6.689   3.467
11474TIP3    H134365   4.617   6.661   3.414
11474TIP3    H234366   4.559   6.782   3.485
11475TIP3   OH234367   1.622   2.364   4.334
11475TIP3    H134368   1.593   2.420   4.406
11475TIP3    H234369   1.677   2.421   4.280
11476TIP3   OH234370   0.824   1.960   1.316
11476TIP3    H134371   0.859   2.029   1.260
11476TIP3    H234372   0.730   1.981   1.324
11477TIP3   OH234373   5.991   2.453   3.172
11477TIP3    H134374   6.054   2.470   3.242
11477TIP3    H234375   5.925   2.521   3.181
11478TIP3   OH234376   3.475   5.802   3.423
11478TIP3    H134377   3.525   5.875   3.387
11478TIP3    H234378   3.391   5.806   3.376
11479TIP3   OH234379   3.058   4.878   4.798
11479TIP3    H134380   3.093   4.922   4.720
11479TIP3    H234381   3.124   4.893   4.865
11480TIP3   OH234382   0.633   3.579   4.804
11480TIP3    H134383   0.617   3.664   4.764
11480TIP3    H234384   0.546   3.539   4.811
11481TIP3   OH234385   1.571   0.474   0.469
11481TIP3    H134386   1.640   0.500   0.407
11481TIP3    H234387   1.491   0.478   0.417
11482TIP3   OH234388   7.465   6.631   3.413
11482TIP3    H134389   7.471   6.573   3.489
11482TIP3    H234390   7.430   6.575   3.343
11483TIP3   OH234391   7.252   1.962   4.223
11483TIP3    H134392   7.325   1.912   4.258
11483TIP3    H234393   7.258   2.048   4.266
11484TIP3   OH234394   1.573   2.985   5.694
11484TIP3    H134395   1.548   3.068   5.653
11484TIP3    H234396   1.580   3.006   5.787
11485TIP3   OH234397   7.079   2.540   3.954
11485TIP3    H134398   6.987   2.515   3.942
11485TIP3    H234399   7.127   2.457   3.955
11486TIP3   OH234400   6.439   0.500   0.861
11486TIP3    H134401   6.496   0.433   0.824
11486TIP3    H234402   6.373   0.516   0.793
11487TIP3   OH234403   3.828   2.008   3.585
11487TIP3    H134404   3.840   1.949   3.660
11487TIP3    H234405   3.900   1.986   3.526
11488TIP3   OH234406   6.007   2.697   5.674
11488TIP3    H134407   5.968   2.665   5.593
11488TIP3    H234408   5.938   2.749   5.715
11489TIP3   OH234409   2.069   4.074   4.615
11489TIP3    H134410   2.001   4.095   4.550
11489TIP3    H234411   2.105   4.160   4.639
11490TIP3   OH234412   5.631   0.710   1.068
11490TIP3    H134413   5.694   0.779   1.090
11490TIP3    H234414   5.665   0.631   1.110
11491TIP3   OH234415   4.518   2.675   4.514
11491TIP3    H134416   4.453   2.644   4.450
11491TIP3    H234417   4.498   2.768   4.525
11492TIP3   OH234418   1.757   5.718   1.570
11492TIP3    H134419   1.821   5.656   1.604
11492TIP3    H234420   1.675   5.694   1.612
11493TIP3   OH234421   0.709   4.529   1.260
11493TIP3    H134422   0.781   4.504   1.203
11493TIP3    H234423   0.727   4.486   1.343
11494TIP3   OH234424   1.971   2.313   2.837
11494TIP3    H134425   1.932   2.323   2.924
11494TIP3    H234426   2.058   2.276   2.855
11495TIP3   OH234427   1.684   7.139   4.728
11495TIP3    H134428   1.777   7.155   4.712
11495TIP3    H234429   1.683   7.060   4.782
11496TIP3   OH234430   5.741   5.064   0.591
11496TIP3    H134431   5.754   5.058   0.496
11496TIP3    H234432   5.829   5.077   0.626
11497TIP3   OH234433   5.812   2.035   2.973
11497TIP3    H134434   5.899   2.073   2.977
11497TIP3    H234435   5.774   2.051   3.059
11498TIP3   OH234436   0.430   6.125   2.568
11498TIP3    H134437   0.418   6.031   2.585
11498TIP3    H234438   0.502   6.150   2.625
11499TIP3   OH234439   6.910   1.413   3.573
11499TIP3    H134440   6.815   1.405   3.560
11499TIP3    H234441   6.937   1.327   3.604
11500TIP3   OH234442   2.584   0.737   2.857
11500TIP3    H134443   2.600   0.716   2.765
11500TIP3    H234444   2.490   0.727   2.868
11501TIP3   OH234445   2.766   7.101   4.316
11501TIP3    H134446   2.769   7.051   4.235
11501TIP3    H234447   2.854   7.136   4.327
11502TIP3   OH234448   1.300   2.579   0.173
11502TIP3    H134449   1.370   2.634   0.207
11502TIP3    H234450   1.345   2.512   0.121
11503TIP3   OH234451   0.871   6.676   4.405
11503TIP3    H134452   0.799   6.701   4.463
11503TIP3    H234453   0.829   6.645   4.325
11504TIP3   OH234454   8.142   5.370   0.110
11504TIP3    H134455   8.227   5.388   0.150
11504TIP3    H234456   8.147   5.279   0.081
11505TIP3   OH234457   6.441   3.609   3.669
11505TIP3    H134458   6.366   3.619   3.610
11505TIP3    H234459   6.408   3.554   3.739
11506TIP3   OH234460   4.496   2.961   3.867
11506TIP3    H134461   4.473   3.047   3.903
11506TIP3    H234462   4.549   2.981   3.790
11507TIP3   OH234463   4.882   5.273   2.581
11507TIP3    H134464   4.902   5.310   2.495
11507TIP3    H234465   4.966   5.237   2.611
11508TIP3   OH234466   2.000   0.289   5.007
11508TIP3    H134467   1.961   0.327   5.086
11508TIP3    H234468   2.003   0.195   5.025
11509TIP3   OH234469   2.553   4.430   2.975
11509TIP3    H134470   2.490   4.498   2.952
11509TIP3    H234471   2.639   4.471   2.961
11510TIP3   OH234472   6.199   4.257   1.782
11510TIP3    H134473   6.240   4.329   1.830
11510TIP3    H234474   6.210   4.280   1.690
11511TIP3   OH234475   7.759   2.912   4.859
11511TIP3    H134476   7.808   2.834   4.835
11511TIP3    H234477   7.825   2.981   4.867
11512TIP3   OH234478   3.281   4.293   3.933
11512TIP3    H134479   3.213   4.232   3.903
11512TIP3    H234480   3.260   4.308   4.025
11513TIP3   OH234481   4.875   6.916   5.116
11513TIP3    H134482   4.919   6.859   5.053
11513TIP3    H234483   4.920   6.899   5.199
11514TIP3   OH234484   7.220   7.377   1.084
11514TIP3    H134485   7.234   7.301   1.140
11514TIP3    H234486   7.126   7.375   1.065
11515TIP3   OH234487   2.628   7.796   5.387
11515TIP3    H134488   2.571   7.867   5.359
11515TIP3    H234489   2.618   7.729   5.320
11516TIP3   OH234490   4.586   7.254   3.770
11516TIP3    H134491   4.614   7.257   3.679
11516TIP3    H234492   4.548   7.340   3.787
11517TIP3   OH234493   2.951   7.418   3.177
11517TIP3    H134494   3.035   7.372   3.168
11517TIP3    H234495   2.886   7.348   3.176
11518TIP3   OH234496   7.201   7.235   4.415
11518TIP3    H134497   7.225   7.301   4.350
11518TIP3    H234498   7.106   7.246   4.426
11519TIP3   OH234499   6.066   3.789   1.626
11519TIP3    H134500   6.104   3.702   1.617
11519TIP3    H234501   6.140   3.849   1.617
11520TIP3   OH234502   0.310   6.989   5.081
11520TIP3    H134503   0.260   7.040   5.017
11520TIP3    H234504   0.243   6.951   5.139
11521TIP3   OH234505   0.559   6.272   5.695
11521TIP3    H134506   0.491   6.337   5.680
11521TIP3    H234507   0.609   6.269   5.613
11522TIP3   OH234508   7.459   2.973   5.876
11522TIP3    H134509   7.450   3.062   5.910
11522TIP3    H234510   7.370   2.942   5.867
11523TIP3   OH234511   4.069   2.860   1.758
11523TIP3    H134512   4.006   2.789   1.745
11523TIP3    H234513   4.154   2.816   1.759
11524TIP3   OH234514   1.879   5.098   5.229
11524TIP3    H134515   1.886   5.154   5.152
11524TIP3    H234516   1.959   5.115   5.279
11525TIP3   OH234517   1.447   6.075   4.968
11525TIP3    H134518   1.512   6.038   5.029
11525TIP3    H234519   1.469   6.168   4.964
11526TIP3   OH234520   7.718   5.386   0.929
11526TIP3    H134521   7.808   5.356   0.945
11526TIP3    H234522   7.703   5.369   0.836
11527TIP3   OH234523   0.508   7.540   6.061
11527TIP3    H134524   0.511   7.463   6.117
11527TIP3    H234525   0.508   7.505   5.972
11528TIP3   OH234526   7.319   1.919   1.509
11528TIP3    H134527   7.317   2.014   1.516
11528TIP3    H234528   7.351   1.889   1.594
11529TIP3   OH234529   4.481   6.487   2.689
11529TIP3    H134530   4.453   6.412   2.636
11529TIP3    H234531   4.415   6.492   2.759
11530TIP3   OH234532   4.320   5.788   4.846
11530TIP3    H134533   4.227   5.802   4.827
11530TIP3    H234534   4.327   5.794   4.941
11531TIP3   OH234535   1.402   7.027   5.411
11531TIP3    H134536   1.466   7.098   5.409
11531TIP3    H234537   1.346   7.048   5.486
11532TIP3   OH234538   3.462   5.424   0.774
11532TIP3    H134539   3.435   5.380   0.694
11532TIP3    H234540   3.489   5.353   0.833
11533TIP3   OH234541   5.855   4.275   4.890
11533TIP3    H134542   5.769   4.235   4.906
11533TIP3    H234543   5.855   4.353   4.946
11534TIP3   OH234544   7.967   2.891   2.908
11534TIP3    H134545   7.913   2.967   2.928
11534TIP3    H234546   7.999   2.907   2.819
11535TIP3   OH234547   5.419   7.533   6.229
11535TIP3    H134548   5.493   7.483   6.195
11535TIP3    H234549   5.450   7.566   6.313
11536TIP3   OH234550   5.656   0.471   6.340
11536TIP3    H134551   5.670   0.546   6.281
11536TIP3    H234552   5.676   0.394   6.286
11537TIP3   OH234553   7.443   5.502   4.502
11537TIP3    H134554   7.512   5.466   4.447
11537TIP3    H234555   7.404   5.425   4.545
11538TIP3   OH234556   4.399   6.483   6.027
11538TIP3    H134557   4.314   6.461   5.988
11538TIP3    H234558   4.394   6.577   6.042
11539TIP3   OH234559   6.489   1.231   5.454
11539TIP3    H134560   6.512   1.320   5.429
11539TIP3    H234561   6.478   1.234   5.549
11540TIP3   OH234562   1.217   0.242   4.218
11540TIP3    H134563   1.201   0.170   4.279
11540TIP3    H234564   1.136   0.293   4.221
11541TIP3   OH234565   6.639   0.158   2.053
11541TIP3    H134566   6.560   0.126   2.009
11541TIP3    H234567   6.656   0.092   2.120
11542TIP3   OH234568   0.812   4.166   0.507
11542TIP3    H134569   0.793   4.135   0.596
11542TIP3    H234570   0.726   4.169   0.465
11543TIP3   OH234571   6.253   3.842   6.335
11543TIP3    H134572   6.189   3.902   6.375
11543TIP3    H234573   6.259   3.769   6.397
11544TIP3   OH234574   3.124   4.770   3.236
11544TIP3    H134575   3.159   4.850   3.276
11544TIP3    H234576   3.131   4.785   3.142
11545TIP3   OH234577   4.430   2.449   1.793
11545TIP3    H134578   4.482   2.399   1.731
11545TIP3    H234579   4.369   2.386   1.831
11546TIP3   OH234580   5.897   2.919   2.013
11546TIP3    H134581   5.854   2.849   1.966
11546TIP3    H234582   5.851   2.999   1.986
11547TIP3   OH234583   3.792   4.463   4.020
11547TIP3    H134584   3.753   4.550   4.013
11547TIP3    H234585   3.771   4.434   4.109
11548TIP3   OH234586   3.628   7.628   2.086
11548TIP3    H134587   3.578   7.631   2.004
11548TIP3    H234588   3.645   7.535   2.101
11549TIP3   OH234589   6.809   6.432   4.497
11549TIP3    H134590   6.888   6.438   4.551
11549TIP3    H234591   6.744   6.485   4.543
11550TIP3   OH234592   6.289   3.739   0.477
11550TIP3    H134593   6.373   3.710   0.512
11550TIP3    H234594   6.296   3.835   0.474
11551TIP3   OH234595   0.949   5.217   4.561
11551TIP3    H134596   1.025   5.161   4.578
11551TIP3    H234597   0.909   5.231   4.647
11552TIP3   OH234598   7.843   6.724   3.020
11552TIP3    H134599   7.854   6.763   2.933
11552TIP3    H234600   7.753   6.743   3.044
11553TIP3   OH234601   1.716   0.070   0.771
11553TIP3    H134602   1.717   0.100   0.681
11553TIP3    H234603   1.661  -0.009   0.770
11554TIP3   OH234604   0.180   3.800   4.866
11554TIP3    H134605   0.171   3.729   4.803
11554TIP3    H234606   0.170   3.880   4.814
11555TIP3   OH234607   3.999   2.636   2.876
11555TIP3    H134608   3.958   2.553   2.898
11555TIP3    H234609   3.934   2.702   2.900
11556TIP3   OH234610   4.630   7.153   2.462
11556TIP3    H134611   4.544   7.194   2.472
11556TIP3    H234612   4.611   7.062   2.438
11557TIP3   OH234613   4.668   1.194   5.043
11557TIP3    H134614   4.726   1.249   5.096
11557TIP3    H234615   4.593   1.177   5.101
11558TIP3   OH234616   0.191   6.295   3.229
11558TIP3    H134617   0.148   6.261   3.307
11558TIP3    H234618   0.280   6.262   3.234
11559TIP3   OH234619   4.737   0.811   2.411
11559TIP3    H134620   4.808   0.840   2.354
11559TIP3    H234621   4.752   0.717   2.421
11560TIP3   OH234622   3.764   3.529   0.816
11560TIP3    H134623   3.725   3.442   0.811
11560TIP3    H234624   3.693   3.586   0.844
11561TIP3   OH234625   5.959   2.357   1.758
11561TIP3    H134626   6.016   2.432   1.777
11561TIP3    H234627   6.017   2.292   1.720
11562TIP3   OH234628   7.995   4.054   1.610
11562TIP3    H134629   7.984   4.147   1.632
11562TIP3    H234630   7.980   4.008   1.692
11563TIP3   OH234631   8.195   4.774   3.578
11563TIP3    H134632   8.142   4.743   3.505
11563TIP3    H234633   8.226   4.694   3.620
11564TIP3   OH234634   2.975   3.824   5.592
11564TIP3    H134635   2.912   3.783   5.532
11564TIP3    H234636   3.010   3.898   5.542
11565TIP3   OH234637   1.290   4.494   0.159
11565TIP3    H134638   1.324   4.428   0.219
11565TIP3    H234639   1.236   4.551   0.214
11566TIP3   OH234640   3.586   7.748   6.729
11566TIP3    H134641   3.535   7.807   6.784
11566TIP3    H234642   3.578   7.784   6.641
11567TIP3   OH234643   5.013   6.215   6.746
11567TIP3    H134644   5.020   6.289   6.687
11567TIP3    H234645   5.080   6.231   6.813
11568TIP3   OH234646   7.551   7.558   1.223
11568TIP3    H134647   7.586   7.523   1.140
11568TIP3    H234648   7.585   7.499   1.290
11569TIP3   OH234649   4.567   6.226   2.955
11569TIP3    H134650   4.555   6.163   2.884
11569TIP3    H234651   4.566   6.173   3.035
11570TIP3   OH234652   4.043   6.479   3.643
11570TIP3    H134653   3.970   6.419   3.630
11570TIP3    H234654   4.018   6.532   3.719
11571TIP3   OH234655   3.929   1.517   5.195
11571TIP3    H134656   3.885   1.510   5.110
11571TIP3    H234657   4.022   1.512   5.174
11572TIP3   OH234658   0.044   3.717   0.917
11572TIP3    H134659  -0.018   3.784   0.944
11572TIP3    H234660   0.086   3.689   0.998
11573TIP3   OH234661   1.964   3.360   2.289
11573TIP3    H134662   2.056   3.385   2.287
11573TIP3    H234663   1.917   3.442   2.302
11574TIP3   OH234664   4.099   5.366   6.359
11574TIP3    H134665   4.100   5.417   6.277
11574TIP3    H234666   4.128   5.279   6.333
11575TIP3   OH234667   0.282   4.535   3.951
11575TIP3    H134668   0.266   4.517   4.044
11575TIP3    H234669   0.240   4.462   3.905
11576TIP3   OH234670   6.099   0.161   5.742
11576TIP3    H134671   6.050   0.240   5.765
11576TIP3    H234672   6.190   0.190   5.735
11577TIP3   OH234673   0.029   0.842   3.244
11577TIP3    H134674   0.030   0.812   3.335
11577TIP3    H234675  -0.042   0.906   3.241
11578TIP3   OH234676   0.140   6.453   4.316
11578TIP3    H134677   0.223   6.420   4.350
11578TIP3    H234678   0.125   6.535   4.364
11579TIP3   OH234679   6.317   4.885   2.541
11579TIP3    H134680   6.282   4.964   2.499
11579TIP3    H234681   6.381   4.851   2.479
11580TIP3   OH234682   3.137   2.962   4.171
11580TIP3    H134683   3.094   3.046   4.158
11580TIP3    H234684   3.222   2.972   4.129
11581TIP3   OH234685   5.747   5.700   0.308
11581TIP3    H134686   5.834   5.662   0.297
11581TIP3    H234687   5.693   5.627   0.339
11582TIP3   OH234688   3.633   3.237   1.532
11582TIP3    H134689   3.597   3.149   1.534
11582TIP3    H234690   3.711   3.232   1.586
11583TIP3   OH234691   1.202   2.831   4.654
11583TIP3    H134692   1.157   2.885   4.590
11583TIP3    H234693   1.270   2.888   4.689
11584TIP3   OH234694   7.162   3.417   3.437
11584TIP3    H134695   7.113   3.353   3.489
11584TIP3    H234696   7.253   3.405   3.464
11585TIP3   OH234697   7.817   7.311   1.165
11585TIP3    H134698   7.874   7.356   1.102
11585TIP3    H234699   7.809   7.372   1.238
11586TIP3   OH234700   6.516   4.041   4.195
11586TIP3    H134701   6.563   4.053   4.277
11586TIP3    H234702   6.554   3.962   4.157
11587TIP3   OH234703   2.763   1.660   3.021
11587TIP3    H134704   2.851   1.633   2.996
11587TIP3    H234705   2.715   1.578   3.030
11588TIP3   OH234706   4.946   6.794   5.396
11588TIP3    H134707   5.033   6.793   5.434
11588TIP3    H234708   4.895   6.852   5.453
11589TIP3   OH234709   3.800   2.233   1.360
11589TIP3    H134710   3.711   2.239   1.393
11589TIP3    H234711   3.827   2.324   1.348
11590TIP3   OH234712   1.204   7.656   4.700
11590TIP3    H134713   1.220   7.637   4.793
11590TIP3    H234714   1.130   7.599   4.677
11591TIP3   OH234715   7.996   7.805   2.360
11591TIP3    H134716   8.079   7.768   2.390
11591TIP3    H234717   8.011   7.825   2.267
11592TIP3   OH234718   4.860   6.658   3.089
11592TIP3    H134719   4.911   6.731   3.053
11592TIP3    H234720   4.918   6.582   3.082
11593TIP3   OH234721   0.992   6.777   1.158
11593TIP3    H134722   1.054   6.729   1.103
11593TIP3    H234723   0.957   6.845   1.100
11594TIP3   OH234724   7.882   3.530   1.909
11594TIP3    H134725   7.819   3.519   1.837
11594TIP3    H234726   7.967   3.536   1.866
11595TIP3   OH234727   7.808   7.532   2.436
11595TIP3    H134728   7.855   7.598   2.487
11595TIP3    H234729   7.876   7.470   2.410
11596TIP3   OH234730   3.785   1.294   6.379
11596TIP3    H134731   3.758   1.223   6.438
11596TIP3    H234732   3.752   1.267   6.294
11597TIP3   OH234733   5.863   7.065   6.166
11597TIP3    H134734   5.867   7.101   6.077
11597TIP3    H234735   5.881   6.971   6.155
11598TIP3   OH234736   7.077   0.580  -0.019
11598TIP3    H134737   7.093   0.495   0.021
11598TIP3    H234738   7.046   0.635   0.053
11599TIP3   OH234739   7.577   5.969   3.830
11599TIP3    H134740   7.664   5.968   3.869
11599TIP3    H234741   7.517   5.976   3.904
11600TIP3   OH234742   0.074   7.568   5.827
11600TIP3    H134743   0.006   7.526   5.774
11600TIP3    H234744   0.026   7.606   5.901
11601TIP3   OH234745   5.580   3.758   6.446
11601TIP3    H134746   5.561   3.721   6.360
11601TIP3    H234747   5.530   3.840   6.448
11602TIP3   OH234748   2.675   0.701   6.232
11602TIP3    H134749   2.669   0.742   6.146
11602TIP3    H234750   2.584   0.696   6.262
11603TIP3   OH234751   0.383   2.651   3.221
11603TIP3    H134752   0.344   2.564   3.213
11603TIP3    H234753   0.427   2.650   3.306
11604TIP3   OH234754   1.145   5.982   1.120
11604TIP3    H134755   1.228   6.029   1.128
11604TIP3    H234756   1.167   5.891   1.138
11605TIP3   OH234757   6.769   0.143   4.862
11605TIP3    H134758   6.695   0.147   4.802
11605TIP3    H234759   6.830   0.081   4.823
11606TIP3   OH234760   1.429   3.216   5.609
11606TIP3    H134761   1.456   3.280   5.543
11606TIP3    H234762   1.335   3.230   5.619
11607TIP3   OH234763   2.138   0.497   4.911
11607TIP3    H134764   2.230   0.472   4.906
11607TIP3    H234765   2.095   0.423   4.952
11608TIP3   OH234766   4.229   0.973   6.149
11608TIP3    H134767   4.259   1.011   6.231
11608TIP3    H234768   4.190   0.889   6.175
11609TIP3   OH234769   7.495   6.655   1.326
11609TIP3    H134770   7.438   6.717   1.281
11609TIP3    H234771   7.460   6.651   1.415
11610TIP3   OH234772   8.268   3.625   6.542
11610TIP3    H134773   8.181   3.664   6.548
11610TIP3    H234774   8.253   3.531   6.550
11611TIP3   OH234775   3.321   1.427   5.766
11611TIP3    H134776   3.357   1.350   5.809
11611TIP3    H234777   3.381   1.446   5.694
11612TIP3   OH234778   7.184   6.693   4.157
11612TIP3    H134779   7.232   6.669   4.077
11612TIP3    H234780   7.243   6.754   4.203
11613TIP3   OH234781   7.530   4.089   4.079
11613TIP3    H134782   7.567   4.134   4.155
11613TIP3    H234783   7.574   4.129   4.004
11614TIP3   OH234784   3.003   6.757   2.796
11614TIP3    H134785   2.969   6.833   2.749
11614TIP3    H234786   3.048   6.705   2.728
11615TIP3   OH234787   7.026   6.737   5.845
11615TIP3    H134788   7.097   6.706   5.902
11615TIP3    H234789   6.981   6.803   5.897
11616TIP3   OH234790   2.430   4.500   3.467
11616TIP3    H134791   2.469   4.570   3.414
11616TIP3    H234792   2.398   4.545   3.545
11617TIP3   OH234793   0.255   2.032   2.507
11617TIP3    H134794   0.216   2.000   2.425
11617TIP3    H234795   0.336   2.075   2.480
11618TIP3   OH234796   5.638   4.460   0.078
11618TIP3    H134797   5.712   4.518   0.095
11618TIP3    H234798   5.574   4.515   0.034
11619TIP3   OH234799   0.087   2.396   4.066
11619TIP3    H134800   0.136   2.446   4.132
11619TIP3    H234801   0.109   2.305   4.083
11620TIP3   OH234802   7.591   4.737   2.096
11620TIP3    H134803   7.566   4.647   2.075
11620TIP3    H234804   7.522   4.767   2.155
11621TIP3   OH234805   7.572   2.015   6.668
11621TIP3    H134806   7.562   2.064   6.751
11621TIP3    H234807   7.536   2.074   6.602
11622TIP3   OH234808   2.612   5.337   4.272
11622TIP3    H134809   2.553   5.276   4.316
11622TIP3    H234810   2.556   5.384   4.210
11623TIP3   OH234811   2.719   5.623   5.643
11623TIP3    H134812   2.626   5.646   5.641
11623TIP3    H234813   2.758   5.686   5.703
11624TIP3   OH234814   1.970   5.438   6.321
11624TIP3    H134815   1.915   5.510   6.291
11624TIP3    H234816   1.909   5.371   6.351
11625TIP3   OH234817   1.039   7.664   5.724
11625TIP3    H134818   0.958   7.714   5.717
11625TIP3    H234819   1.014   7.574   5.699
11626TIP3   OH234820   5.926   2.990   2.307
11626TIP3    H134821   5.868   2.968   2.234
11626TIP3    H234822   5.975   3.067   2.277
11627TIP3   OH234823   0.907   6.148   6.334
11627TIP3    H134824   1.002   6.152   6.343
11627TIP3    H234825   0.892   6.084   6.265
11628TIP3   OH234826   8.251   2.240   4.727
11628TIP3    H134827   8.323   2.302   4.714
11628TIP3    H234828   8.174   2.296   4.741
11629TIP3   OH234829   7.567   6.919   2.205
11629TIP3    H134830   7.608   6.849   2.154
11629TIP3    H234831   7.533   6.979   2.140
11630TIP3   OH234832   4.510   0.879   3.140
11630TIP3    H134833   4.520   0.818   3.066
11630TIP3    H234834   4.597   0.920   3.148
11631TIP3   OH234835   6.323   3.156   2.383
11631TIP3    H134836   6.343   3.160   2.290
11631TIP3    H234837   6.236   3.195   2.390
11632TIP3   OH234838   7.085   7.803   0.072
11632TIP3    H134839   7.014   7.749   0.037
11632TIP3    H234840   7.050   7.837   0.155
11633TIP3   OH234841   1.178   5.338   1.391
11633TIP3    H134842   1.244   5.402   1.363
11633TIP3    H234843   1.228   5.261   1.417
11634TIP3   OH234844   7.243   1.116   0.516
11634TIP3    H134845   7.324   1.074   0.488
11634TIP3    H234846   7.181   1.044   0.529
11635TIP3   OH234847   7.146   7.716   0.442
11635TIP3    H134848   7.091   7.640   0.424
11635TIP3    H234849   7.103   7.788   0.395
11636TIP3   OH234850   4.540   0.645   0.059
11636TIP3    H134851   4.623   0.607   0.087
11636TIP3    H234852   4.523   0.716   0.121
11637TIP3   OH234853   6.321   2.999   4.026
11637TIP3    H134854   6.416   3.005   4.031
11637TIP3    H234855   6.290   3.032   4.111
11638TIP3   OH234856   4.892   2.484   2.748
11638TIP3    H134857   4.950   2.490   2.824
11638TIP3    H234858   4.909   2.397   2.712
11639TIP3   OH234859   1.993   4.035   3.056
11639TIP3    H134860   2.055   4.082   3.112
11639TIP3    H234861   1.930   4.102   3.028
11640TIP3   OH234862   5.206   0.029   3.385
11640TIP3    H134863   5.197   0.107   3.439
11640TIP3    H234864   5.213  -0.043   3.448
11641TIP3   OH234865   1.763   5.424   6.024
11641TIP3    H134866   1.772   5.456   5.935
11641TIP3    H234867   1.794   5.496   6.080
11642TIP3   OH234868   0.920   3.569   5.671
11642TIP3    H134869   0.977   3.637   5.635
11642TIP3    H234870   0.839   3.616   5.695
11643TIP3   OH234871   1.772   7.447   0.486
11643TIP3    H134872   1.698   7.449   0.426
11643TIP3    H234873   1.801   7.355   0.486
11644TIP3   OH234874   7.303   7.750   1.895
11644TIP3    H134875   7.370   7.803   1.852
11644TIP3    H234876   7.222   7.801   1.884
11645TIP3   OH234877   6.097   2.699   2.150
11645TIP3    H134878   6.114   2.646   2.228
11645TIP3    H234879   6.091   2.789   2.184
11646TIP3   OH234880   1.878   6.117   2.282
11646TIP3    H134881   1.880   6.021   2.279
11646TIP3    H234882   1.870   6.138   2.375
11647TIP3   OH234883   4.764   7.712   3.123
11647TIP3    H134884   4.710   7.656   3.066
11647TIP3    H234885   4.798   7.652   3.189
11648TIP3   OH234886   4.265   4.605   3.712
11648TIP3    H134887   4.213   4.601   3.792
11648TIP3    H234888   4.323   4.680   3.725
11649TIP3   OH234889   7.086   2.587   4.608
11649TIP3    H134890   7.119   2.518   4.664
11649TIP3    H234891   7.151   2.595   4.538
11650TIP3   OH234892   3.475   4.312   1.660
11650TIP3    H134893   3.563   4.350   1.658
11650TIP3    H234894   3.485   4.228   1.614
11651TIP3   OH234895   8.206   5.831   5.525
11651TIP3    H134896   8.298   5.806   5.531
11651TIP3    H234897   8.200   5.913   5.573
11652TIP3   OH234898   1.853   4.346   6.594
11652TIP3    H134899   1.905   4.345   6.674
11652TIP3    H234900   1.825   4.255   6.582
11653TIP3   OH234901   2.381   3.747   3.561
11653TIP3    H134902   2.463   3.784   3.530
11653TIP3    H234903   2.337   3.819   3.606
11654TIP3   OH234904   1.860   1.058   2.565
11654TIP3    H134905   1.816   1.140   2.544
11654TIP3    H234906   1.914   1.039   2.488
11655TIP3   OH234907   6.206   1.354   6.063
11655TIP3    H134908   6.204   1.317   5.975
11655TIP3    H234909   6.142   1.304   6.112
11656TIP3   OH234910   7.127   4.020   2.739
11656TIP3    H134911   7.187   4.092   2.721
11656TIP3    H234912   7.044   4.064   2.760
11657TIP3   OH234913   2.545   7.187   2.417
11657TIP3    H134914   2.517   7.278   2.409
11657TIP3    H234915   2.594   7.184   2.499
11658TIP3   OH234916   4.766   6.646   3.848
11658TIP3    H134917   4.689   6.618   3.798
11658TIP3    H234918   4.836   6.589   3.818
11659TIP3   OH234919   1.366   0.923   3.197
11659TIP3    H134920   1.439   0.869   3.169
11659TIP3    H234921   1.290   0.889   3.149
11660TIP3   OH234922   5.414   1.629   4.132
11660TIP3    H134923   5.407   1.700   4.197
11660TIP3    H234924   5.457   1.558   4.180
11661TIP3   OH234925   5.895   7.735   0.788
11661TIP3    H134926   5.936   7.695   0.712
11661TIP3    H234927   5.869   7.662   0.843
11662TIP3   OH234928   7.564   6.390   5.537
11662TIP3    H134929   7.630   6.353   5.480
11662TIP3    H234930   7.606   6.467   5.575
11663TIP3   OH234931   2.671   6.490   0.980
11663TIP3    H134932   2.624   6.486   0.897
11663TIP3    H234933   2.702   6.580   0.986
11664TIP3   OH234934   7.338   7.238   1.529
11664TIP3    H134935   7.384   7.309   1.484
11664TIP3    H234936   7.388   7.224   1.609
11665TIP3   OH234937   2.757   1.463   5.287
11665TIP3    H134938   2.745   1.555   5.264
11665TIP3    H234939   2.786   1.421   5.205
11666TIP3   OH234940   6.013   7.625   0.578
11666TIP3    H134941   6.087   7.604   0.634
11666TIP3    H234942   6.028   7.575   0.498
11667TIP3   OH234943   5.280   2.089   2.412
11667TIP3    H134944   5.301   2.049   2.497
11667TIP3    H234945   5.192   2.058   2.393
11668TIP3   OH234946   0.861   2.533   0.318
11668TIP3    H134947   0.803   2.551   0.391
11668TIP3    H234948   0.808   2.550   0.240
11669TIP3   OH234949   4.309   3.952   6.051
11669TIP3    H134950   4.271   4.039   6.060
11669TIP3    H234951   4.380   3.963   5.987
11670TIP3   OH234952   2.483   2.906   1.420
11670TIP3    H134953   2.491   2.813   1.443
11670TIP3    H234954   2.569   2.943   1.442
11671TIP3   OH234955   5.209   6.755   5.458
11671TIP3    H134956   5.296   6.784   5.485
11671TIP3    H234957   5.220   6.663   5.433
11672TIP3   OH234958   3.159   5.960   2.096
11672TIP3    H134959   3.219   6.034   2.087
11672TIP3    H234960   3.092   5.975   2.029
11673TIP3   OH234961   0.943   3.704   2.313
11673TIP3    H134962   0.936   3.686   2.220
11673TIP3    H234963   0.999   3.634   2.347
11674TIP3   OH234964   4.240   2.538   2.768
11674TIP3    H134965   4.176   2.584   2.822
11674TIP3    H234966   4.205   2.450   2.759
11675TIP3   OH234967   2.639   0.528   3.739
11675TIP3    H134968   2.631   0.449   3.792
11675TIP3    H234969   2.634   0.496   3.649
11676TIP3   OH234970   0.565   1.025   0.200
11676TIP3    H134971   0.623   0.982   0.262
11676TIP3    H234972   0.477   1.004   0.231
11677TIP3   OH234973   7.275   4.631   5.721
11677TIP3    H134974   7.278   4.547   5.767
11677TIP3    H234975   7.298   4.696   5.787
11678TIP3   OH234976   3.364   5.366   0.303
11678TIP3    H134977   3.390   5.321   0.223
11678TIP3    H234978   3.269   5.375   0.296
11679TIP3   OH234979   8.249   2.977   3.963
11679TIP3    H134980   8.280   3.007   3.877
11679TIP3    H234981   8.160   3.012   3.970
11680TIP3   OH234982   0.272   1.517   4.743
11680TIP3    H134983   0.263   1.511   4.648
11680TIP3    H234984   0.328   1.444   4.767
11681TIP3   OH234985   7.755   3.262   2.173
11681TIP3    H134986   7.782   3.352   2.159
11681TIP3    H234987   7.717   3.235   2.089
11682TIP3   OH234988   5.176   6.626   6.010
11682TIP3    H134989   5.175   6.536   6.044
11682TIP3    H234990   5.129   6.621   5.927
11683TIP3   OH234991   6.875   4.005   5.196
11683TIP3    H134992   6.967   4.031   5.205
11683TIP3    H234993   6.837   4.020   5.283
11684TIP3   OH234994   1.113   4.845   4.120
11684TIP3    H134995   1.117   4.797   4.203
11684TIP3    H234996   1.164   4.924   4.136
11685TIP3   OH234997   1.094   2.540   4.891
11685TIP3    H134998   1.104   2.480   4.817
11685TIP3    H234999   1.041   2.612   4.857
11686TIP3   OH235000   2.187   1.643   2.382
11686TIP3    H135001   2.222   1.676   2.300
11686TIP3    H235002   2.110   1.592   2.357
11687TIP3   OH235003   7.972   2.591   1.758
11687TIP3    H135004   8.037   2.647   1.799
11687TIP3    H235005   7.888   2.620   1.794
11688TIP3   OH235006   0.375   4.081   2.420
11688TIP3    H135007   0.458   4.100   2.465
11688TIP3    H235008   0.402   4.031   2.343
11689TIP3   OH235009   7.393   3.420   3.568
11689TIP3    H135010   7.448   3.449   3.641
11689TIP3    H235011   7.432   3.337   3.540
11690TIP3   OH235012   4.061   3.219   5.426
11690TIP3    H135013   4.009   3.255   5.498
11690TIP3    H235014   4.054   3.285   5.356
11691TIP3   OH235015   4.210   5.488   1.092
11691TIP3    H135016   4.121   5.469   1.062
11691TIP3    H235017   4.201   5.561   1.153
11692TIP3   OH235018   1.337   6.462   4.573
11692TIP3    H135019   1.322   6.444   4.480
11692TIP3    H235020   1.294   6.390   4.619
11693TIP3   OH235021   7.776   2.812   1.777
11693TIP3    H135022   7.815   2.801   1.690
11693TIP3    H235023   7.807   2.898   1.805
11694TIP3   OH235024   7.306   7.636   1.219
11694TIP3    H135025   7.272   7.552   1.189
11694TIP3    H235026   7.400   7.620   1.232
11695TIP3   OH235027   1.539   0.586   5.848
11695TIP3    H135028   1.520   0.548   5.933
11695TIP3    H235029   1.579   0.671   5.868
11696TIP3   OH235030   2.286   6.891   5.567
11696TIP3    H135031   2.377   6.871   5.591
11696TIP3    H235032   2.263   6.821   5.505
11697TIP3   OH235033   1.628   3.445   0.418
11697TIP3    H135034   1.543   3.441   0.374
11697TIP3    H235035   1.629   3.370   0.476
11698TIP3   OH235036   5.161   3.419   6.451
11698TIP3    H135037   5.092   3.449   6.510
11698TIP3    H235038   5.178   3.494   6.394
11699TIP3   OH235039   0.635   6.946   1.929
11699TIP3    H135040   0.606   6.855   1.923
11699TIP3    H235041   0.608   6.985   1.846
11700TIP3   OH235042   7.285   6.410   5.460
11700TIP3    H135043   7.252   6.468   5.529
11700TIP3    H235044   7.376   6.393   5.483
11701TIP3   OH235045   6.889   7.393   4.186
11701TIP3    H135046   6.930   7.445   4.255
11701TIP3    H235047   6.874   7.307   4.227
11702TIP3   OH235048   3.736   5.545   3.059
11702TIP3    H135049   3.825   5.568   3.084
11702TIP3    H235050   3.680   5.578   3.129
11703TIP3   OH235051   4.063   6.900   3.142
11703TIP3    H135052   4.129   6.961   3.174
11703TIP3    H235053   4.106   6.852   3.072
11704TIP3   OH235054   3.933   0.005   2.985
11704TIP3    H135055   3.956   0.091   2.949
11704TIP3    H235056   4.009  -0.020   3.037
11705TIP3   OH235057   7.627   4.549   1.697
11705TIP3    H135058   7.685   4.606   1.645
11705TIP3    H235059   7.554   4.605   1.721
11706TIP3   OH235060   0.764   5.505   1.126
11706TIP3    H135061   0.718   5.588   1.115
11706TIP3    H235062   0.844   5.527   1.173
11707TIP3   OH235063   5.979   2.334   2.398
11707TIP3    H135064   5.938   2.333   2.484
11707TIP3    H235065   5.916   2.292   2.340
11708TIP3   OH235066   5.853   0.957   2.963
11708TIP3    H135067   5.822   1.048   2.957
11708TIP3    H235068   5.881   0.947   3.054
11709TIP3   OH235069   3.863   1.774   5.583
11709TIP3    H135070   3.773   1.788   5.553
11709TIP3    H235071   3.857   1.780   5.679
11710TIP3   OH235072   7.001   5.701   6.300
11710TIP3    H135073   7.095   5.691   6.287
11710TIP3    H235074   6.993   5.743   6.386
11711TIP3   OH235075   6.461   2.212   5.101
11711TIP3    H135076   6.387   2.190   5.158
11711TIP3    H235077   6.501   2.127   5.080
11712TIP3   OH235078   2.659   4.947   5.840
11712TIP3    H135079   2.718   5.000   5.786
11712TIP3    H235080   2.715   4.878   5.875
11713TIP3   OH235081   7.812   4.661   3.621
11713TIP3    H135082   7.722   4.691   3.606
11713TIP3    H235083   7.851   4.660   3.534
11714TIP3   OH235084   6.450   0.076   2.509
11714TIP3    H135085   6.370   0.128   2.509
11714TIP3    H235086   6.520   0.139   2.524
11715TIP3   OH235087   4.139   0.868   3.817
11715TIP3    H135088   4.224   0.895   3.851
11715TIP3    H235089   4.150   0.868   3.722
11716TIP3   OH235090   1.189   3.387   6.633
11716TIP3    H135091   1.208   3.345   6.718
11716TIP3    H235092   1.166   3.314   6.576
11717TIP3   OH235093   0.965   5.811   5.409
11717TIP3    H135094   1.034   5.878   5.409
11717TIP3    H235095   1.007   5.733   5.445
11718TIP3   OH235096   3.028   0.860  -0.001
11718TIP3    H135097   3.087   0.911  -0.056
11718TIP3    H235098   3.030   0.903   0.084
11719TIP3   OH235099   1.051   2.012   3.740
11719TIP3    H135100   0.988   1.946   3.768
11719TIP3    H235101   1.123   1.963   3.701
11720TIP3   OH235102   4.207   3.965   4.934
11720TIP3    H135103   4.275   3.985   4.999
11720TIP3    H235104   4.147   4.038   4.939
11721TIP3   OH235105   1.064   6.652   6.197
11721TIP3    H135106   1.033   6.613   6.279
11721TIP3    H235107   1.159   6.655   6.206
11722TIP3   OH235108   2.945   2.464   0.130
11722TIP3    H135109   2.863   2.502   0.098
11722TIP3    H235110   3.005   2.473   0.056
11723TIP3   OH235111   5.457   4.441   6.456
11723TIP3    H135112   5.416   4.445   6.370
11723TIP3    H235113   5.439   4.526   6.496
11724TIP3   OH235114   3.262   6.757   3.585
11724TIP3    H135115   3.249   6.733   3.494
11724TIP3    H235116   3.287   6.850   3.582
11725TIP3   OH235117   1.623   4.020   2.008
11725TIP3    H135118   1.619   4.085   2.077
11725TIP3    H235119   1.542   4.032   1.959
11726TIP3   OH235120   2.827   0.773   1.345
11726TIP3    H135121   2.912   0.813   1.364
11726TIP3    H235122   2.811   0.794   1.253
11727TIP3   OH235123   4.820   7.827   3.961
11727TIP3    H135124   4.743   7.847   4.013
11727TIP3    H235125   4.792   7.756   3.903
11728TIP3   OH235126   8.078   6.195   4.941
11728TIP3    H135127   8.143   6.191   4.870
11728TIP3    H235128   8.129   6.212   5.020
11729TIP3   OH235129   0.272   4.007   5.557
11729TIP3    H135130   0.302   4.034   5.470
11729TIP3    H235131   0.310   4.071   5.617
11730TIP3   OH235132   2.090   7.230   6.497
11730TIP3    H135133   2.121   7.187   6.577
11730TIP3    H235134   2.125   7.319   6.502
11731TIP3   OH235135   7.157   6.219   5.298
11731TIP3    H135136   7.193   6.217   5.209
11731TIP3    H235137   7.210   6.285   5.344
11732TIP3   OH235138   8.168   1.086   2.364
11732TIP3    H135139   8.210   1.153   2.419
11732TIP3    H235140   8.219   1.085   2.284
11733TIP3   OH235141   4.153   3.199   3.248
11733TIP3    H135142   4.203   3.249   3.313
11733TIP3    H235143   4.135   3.262   3.178
11734TIP3   OH235144   2.779   5.965   1.468
11734TIP3    H135145   2.857   5.910   1.478
11734TIP3    H235146   2.785   6.028   1.540
11735TIP3   OH235147   2.415   4.190   5.075
11735TIP3    H135148   2.466   4.271   5.070
11735TIP3    H235149   2.472   4.123   5.038
11736TIP3   OH235150   3.475   0.485   3.043
11736TIP3    H135151   3.404   0.448   2.990
11736TIP3    H235152   3.481   0.576   3.014
11737TIP3   OH235153   7.398   5.801   0.032
11737TIP3    H135154   7.489   5.824   0.016
11737TIP3    H235155   7.402   5.720   0.083
11738TIP3   OH235156   3.944   4.259   5.285
11738TIP3    H135157   3.919   4.182   5.235
11738TIP3    H235158   3.862   4.306   5.300
11739TIP3   OH235159   6.662   6.172   4.481
11739TIP3    H135160   6.578   6.218   4.477
11739TIP3    H235161   6.727   6.242   4.491
11740TIP3   OH235162   2.422   4.365   2.481
11740TIP3    H135163   2.352   4.417   2.521
11740TIP3    H235164   2.394   4.274   2.492
11741TIP3   OH235165   5.319   1.183   5.764
11741TIP3    H135166   5.329   1.093   5.735
11741TIP3    H235167   5.250   1.219   5.709
11742TIP3   OH235168   6.841   3.415   2.850
11742TIP3    H135169   6.900   3.426   2.775
11742TIP3    H235170   6.863   3.487   2.909
11743TIP3   OH235171   4.500   3.779   3.306
11743TIP3    H135172   4.562   3.834   3.257
11743TIP3    H235173   4.554   3.711   3.345
11744TIP3   OH235174   0.145   4.451   3.269
11744TIP3    H135175   0.146   4.486   3.181
11744TIP3    H235176   0.052   4.449   3.293
11745TIP3   OH235177   2.188   4.694   4.719
11745TIP3    H135178   2.140   4.664   4.796
11745TIP3    H235179   2.273   4.653   4.725
11746TIP3   OH235180   3.845   3.565   0.508
11746TIP3    H135181   3.877   3.639   0.559
11746TIP3    H235182   3.925   3.519   0.480
11747TIP3   OH235183   1.223   6.752   6.700
11747TIP3    H135184   1.253   6.829   6.748
11747TIP3    H235185   1.213   6.782   6.610
11748TIP3   OH235186   4.565   3.977   6.620
11748TIP3    H135187   4.616   3.985   6.539
11748TIP3    H235188   4.623   3.931   6.681
11749TIP3   OH235189   6.631   4.632   4.785
11749TIP3    H135190   6.637   4.547   4.828
11749TIP3    H235191   6.540   4.638   4.756
11750TIP3   OH235192   5.826   4.623   0.454
11750TIP3    H135193   5.742   4.666   0.470
11750TIP3    H235194   5.804   4.537   0.418
11751TIP3   OH235195   5.883   7.307   3.058
11751TIP3    H135196   5.866   7.320   2.964
11751TIP3    H235197   5.871   7.213   3.072
11752TIP3   OH235198   0.289   2.940   0.091
11752TIP3    H135199   0.203   2.959   0.128
11752TIP3    H235200   0.333   3.025   0.088
11753TIP3   OH235201   5.729   2.978   1.691
11753TIP3    H135202   5.643   2.957   1.655
11753TIP3    H235203   5.772   3.031   1.624
11754TIP3   OH235204   7.397   2.353   1.627
11754TIP3    H135205   7.395   2.329   1.534
11754TIP3    H235206   7.452   2.287   1.667
11755TIP3   OH235207   7.242   2.112   3.413
11755TIP3    H135208   7.165   2.147   3.368
11755TIP3    H235209   7.211   2.084   3.498
11756TIP3   OH235210   3.478   0.267   4.058
11756TIP3    H135211   3.514   0.353   4.039
11756TIP3    H235212   3.430   0.243   3.979
11757TIP3   OH235213   0.607   0.386   3.768
11757TIP3    H135214   0.676   0.409   3.829
11757TIP3    H235215   0.589   0.294   3.785
11758TIP3   OH235216   7.972   5.277   4.019
11758TIP3    H135217   7.937   5.341   3.957
11758TIP3    H235218   8.034   5.326   4.073
11759TIP3   OH235219   0.856   4.107   1.180
11759TIP3    H135220   0.942   4.142   1.206
11759TIP3    H235221   0.825   4.060   1.257
11760TIP3   OH235222   5.261   0.152   4.026
11760TIP3    H135223   5.237   0.228   4.079
11760TIP3    H235224   5.329   0.184   3.967
11761TIP3   OH235225   2.766   0.223   1.793
11761TIP3    H135226   2.689   0.272   1.822
11761TIP3    H235227   2.836   0.289   1.790
11762TIP3   OH235228   0.378   6.484   2.675
11762TIP3    H135229   0.365   6.544   2.748
11762TIP3    H235230   0.298   6.433   2.670
11763TIP3   OH235231   4.686   3.111   4.863
11763TIP3    H135232   4.715   3.202   4.872
11763TIP3    H235233   4.612   3.103   4.923
11764TIP3   OH235234   0.778   0.133   1.163
11764TIP3    H135235   0.857   0.160   1.210
11764TIP3    H235236   0.722   0.210   1.165
11765TIP3   OH235237   3.109   7.583   1.980
11765TIP3    H135238   3.054   7.542   1.913
11765TIP3    H235239   3.072   7.553   2.063
11766TIP3   OH235240   3.323   7.211   6.775
11766TIP3    H135241   3.393   7.183   6.834
11766TIP3    H235242   3.330   7.151   6.700
11767TIP3   OH235243   6.599   7.770   3.468
11767TIP3    H135244   6.622   7.796   3.379
11767TIP3    H235245   6.620   7.677   3.472
11768TIP3   OH235246   1.330   4.672   5.431
11768TIP3    H135247   1.382   4.595   5.409
11768TIP3    H235248   1.367   4.742   5.377
11769TIP3   OH235249   1.760   2.898   2.027
11769TIP3    H135250   1.787   2.893   2.119
11769TIP3    H235251   1.835   2.863   1.979
11770TIP3   OH235252   4.948   0.875   2.249
11770TIP3    H135253   4.964   0.821   2.171
11770TIP3    H235254   5.031   0.920   2.264
11771TIP3   OH235255   1.965   5.087   6.317
11771TIP3    H135256   1.916   5.137   6.252
11771TIP3    H235257   1.905   5.080   6.391
11772TIP3   OH235258   7.590   0.125   5.932
11772TIP3    H135259   7.521   0.092   5.990
11772TIP3    H235260   7.632   0.047   5.897
11773TIP3   OH235261   4.744   1.996   5.314
11773TIP3    H135262   4.743   1.979   5.220
11773TIP3    H235263   4.673   1.943   5.349
11774TIP3   OH235264   5.437   5.003   3.819
11774TIP3    H135265   5.349   4.993   3.781
11774TIP3    H235266   5.473   4.914   3.819
11775TIP3   OH235267   2.092   7.077   2.308
11775TIP3    H135268   2.052   7.010   2.253
11775TIP3    H235269   2.182   7.046   2.324
11776TIP3   OH235270   6.342   7.742   1.952
11776TIP3    H135271   6.359   7.748   2.046
11776TIP3    H235272   6.295   7.822   1.931
11777TIP3   OH235273   1.945   2.679   0.098
11777TIP3    H135274   1.851   2.664   0.095
11777TIP3    H235275   1.975   2.666   0.008
11778TIP3   OH235276   7.814   3.016   5.488
11778TIP3    H135277   7.834   3.102   5.524
11778TIP3    H235278   7.766   2.971   5.557
11779TIP3   OH235279   1.898   4.506   2.779
11779TIP3    H135280   1.854   4.422   2.762
11779TIP3    H235281   1.835   4.572   2.751
11780TIP3   OH235282   7.253   3.194   2.392
11780TIP3    H135283   7.312   3.230   2.326
11780TIP3    H235284   7.294   3.218   2.475
11781TIP3   OH235285   6.324   6.839   1.648
11781TIP3    H135286   6.393   6.899   1.618
11781TIP3    H235287   6.290   6.799   1.567
11782TIP3   OH235288   8.075   2.972   4.600
11782TIP3    H135289   8.132   3.047   4.580
11782TIP3    H235290   8.027   2.956   4.519
11783TIP3   OH235291   2.841   1.583   2.577
11783TIP3    H135292   2.788   1.504   2.580
11783TIP3    H235293   2.868   1.591   2.485
11784TIP3   OH235294   3.783   3.386   1.136
11784TIP3    H135295   3.806   3.341   1.055
11784TIP3    H235296   3.851   3.452   1.148
11785TIP3   OH235297   0.667   4.960   4.847
11785TIP3    H135298   0.734   4.931   4.909
11785TIP3    H235299   0.587   4.966   4.900
11786TIP3   OH235300   0.383   3.782   6.323
11786TIP3    H135301   0.445   3.775   6.251
11786TIP3    H235302   0.400   3.868   6.361
11787TIP3   OH235303   2.668   1.941   3.606
11787TIP3    H135304   2.655   1.975   3.517
11787TIP3    H235305   2.712   1.857   3.593
11788TIP3   OH235306   2.722   2.997   5.270
11788TIP3    H135307   2.696   3.085   5.242
11788TIP3    H235308   2.715   2.944   5.190
11789TIP3   OH235309   5.679   0.615   1.430
11789TIP3    H135310   5.686   0.708   1.409
11789TIP3    H235311   5.741   0.601   1.502
11790TIP3   OH235312   7.478   4.329   2.435
11790TIP3    H135313   7.475   4.240   2.472
11790TIP3    H235314   7.390   4.363   2.446
11791TIP3   OH235315   2.765   6.633   1.316
11791TIP3    H135316   2.676   6.640   1.351
11791TIP3    H235317   2.754   6.636   1.221
11792TIP3   OH235318   4.130   2.302   0.593
11792TIP3    H135319   4.123   2.374   0.656
11792TIP3    H235320   4.171   2.231   0.643
11793TIP3   OH235321   0.260   3.568   2.998
11793TIP3    H135322   0.302   3.654   3.000
11793TIP3    H235323   0.285   3.531   2.913
11794TIP3   OH235324   2.568   4.689   3.290
11794TIP3    H135325   2.649   4.648   3.261
11794TIP3    H235326   2.595   4.773   3.327
11795TIP3   OH235327   8.104   0.325   4.107
11795TIP3    H135328   8.059   0.378   4.173
11795TIP3    H235329   8.069   0.358   4.024
11796TIP3   OH235330   8.166   4.320   1.168
11796TIP3    H135331   8.219   4.380   1.116
11796TIP3    H235332   8.219   4.300   1.245
11797TIP3   OH235333   4.134   3.146   6.566
11797TIP3    H135334   4.133   3.053   6.590
11797TIP3    H235335   4.225   3.164   6.542
11798TIP3   OH235336   2.372   2.576   4.407
11798TIP3    H135337   2.446   2.562   4.465
11798TIP3    H235338   2.392   2.524   4.329
11799TIP3   OH235339   7.277   2.574   3.446
11799TIP3    H135340   7.206   2.567   3.382
11799TIP3    H235341   7.327   2.493   3.436
11800TIP3   OH235342   3.227   2.658   5.187
11800TIP3    H135343   3.301   2.719   5.191
11800TIP3    H235344   3.267   2.575   5.160
11801TIP3   OH235345   6.892   7.574   2.454
11801TIP3    H135346   6.859   7.612   2.535
11801TIP3    H235347   6.938   7.646   2.410
11802TIP3   OH235348   6.913   3.596   6.117
11802TIP3    H135349   6.826   3.603   6.156
11802TIP3    H235350   6.971   3.576   6.191
11803TIP3   OH235351   6.340   0.990   2.263
11803TIP3    H135352   6.299   1.076   2.251
11803TIP3    H235353   6.426   1.009   2.299
11804TIP3   OH235354   7.740   0.377   6.190
11804TIP3    H135355   7.682   0.453   6.198
11804TIP3    H235356   7.725   0.326   6.269
11805TIP3   OH235357   5.486   6.366   4.068
11805TIP3    H135358   5.561   6.316   4.100
11805TIP3    H235359   5.410   6.321   4.104
11806TIP3   OH235360   7.153   3.085   1.388
11806TIP3    H135361   7.191   3.059   1.472
11806TIP3    H235362   7.067   3.120   1.409
11807TIP3   OH235363   5.947   5.878   2.580
11807TIP3    H135364   5.953   5.813   2.650
11807TIP3    H235365   5.987   5.835   2.505
11808TIP3   OH235366   6.918   2.102   6.552
11808TIP3    H135367   6.952   2.075   6.466
11808TIP3    H235368   6.945   2.031   6.611
11809TIP3   OH235369   5.677   1.645   3.771
11809TIP3    H135370   5.679   1.661   3.677
11809TIP3    H235371   5.602   1.588   3.784
11810TIP3   OH235372   0.076   7.503   0.351
11810TIP3    H135373   0.104   7.560   0.280
11810TIP3    H235374   0.107   7.547   0.431
11811TIP3   OH235375   6.384   6.836   0.662
11811TIP3    H135376   6.307   6.893   0.658
11811TIP3    H235377   6.456   6.895   0.684
11812TIP3   OH235378   2.618   0.414   4.037
11812TIP3    H135379   2.545   0.371   3.993
11812TIP3    H235380   2.578   0.464   4.108
11813TIP3   OH235381   1.103   0.814   1.423
11813TIP3    H135382   1.128   0.883   1.362
11813TIP3    H235383   1.152   0.737   1.393
11814TIP3   OH235384   8.195   6.964   5.017
11814TIP3    H135385   8.245   6.989   4.939
11814TIP3    H235386   8.195   7.043   5.071
11815TIP3   OH235387   0.707   0.443   0.149
11815TIP3    H135388   0.630   0.496   0.168
11815TIP3    H235389   0.781   0.500   0.171
11816TIP3   OH235390   2.912   6.748   1.810
11816TIP3    H135391   2.957   6.674   1.768
11816TIP3    H235392   2.888   6.805   1.737
11817TIP3   OH235393   1.813   5.029   3.211
11817TIP3    H135394   1.814   5.088   3.287
11817TIP3    H235395   1.721   5.007   3.198
11818TIP3   OH235396   6.856   1.503   4.369
11818TIP3    H135397   6.815   1.543   4.446
11818TIP3    H235398   6.822   1.553   4.295
11819TIP3   OH235399   2.794   6.440   0.473
11819TIP3    H135400   2.852   6.412   0.544
11819TIP3    H235401   2.814   6.533   0.462
11820TIP3   OH235402   8.253   7.372   5.658
11820TIP3    H135403   8.158   7.359   5.656
11820TIP3    H235404   8.274   7.410   5.572
11821TIP3   OH235405   8.311   6.551   1.456
11821TIP3    H135406   8.242   6.613   1.478
11821TIP3    H235407   8.289   6.523   1.367
11822TIP3   OH235408   3.236   6.618   6.483
11822TIP3    H135409   3.241   6.617   6.388
11822TIP3    H235410   3.308   6.561   6.512
11823TIP3   OH235411   7.457   0.452   0.077
11823TIP3    H135412   7.422   0.373   0.120
11823TIP3    H235413   7.441   0.522   0.141
11824TIP3   OH235414   7.051   4.170   3.872
11824TIP3    H135415   7.057   4.075   3.862
11824TIP3    H235416   7.069   4.204   3.784
11825TIP3   OH235417   1.477   0.768   0.847
11825TIP3    H135418   1.467   0.859   0.819
11825TIP3    H235419   1.527   0.726   0.777
11826TIP3   OH235420   3.800   3.465   2.254
11826TIP3    H135421   3.754   3.401   2.308
11826TIP3    H235422   3.858   3.510   2.314
11827TIP3   OH235423   7.147   5.015   6.325
11827TIP3    H135424   7.108   5.083   6.269
11827TIP3    H235425   7.206   5.064   6.383
11828TIP3   OH235426   0.112   6.234   5.009
11828TIP3    H135427   0.077   6.147   4.987
11828TIP3    H235428   0.110   6.281   4.926
11829TIP3   OH235429   4.379   4.692   0.473
11829TIP3    H135430   4.466   4.714   0.508
11829TIP3    H235431   4.372   4.597   0.485
11830TIP3   OH235432   0.986   3.444   0.011
11830TIP3    H135433   0.950   3.530   0.034
11830TIP3    H235434   1.065   3.436   0.063
11831TIP3   OH235435   1.212   4.603   0.744
11831TIP3    H135436   1.145   4.633   0.805
11831TIP3    H235437   1.217   4.509   0.758
11832TIP3   OH235438   3.962   3.228   2.432
11832TIP3    H135439   3.904   3.188   2.368
11832TIP3    H235440   4.049   3.194   2.410
11833TIP3   OH235441   6.884   5.960   0.687
11833TIP3    H135442   6.811   5.906   0.718
11833TIP3    H235443   6.961   5.924   0.731
11834TIP3   OH235444   7.305   4.430   3.922
11834TIP3    H135445   7.215   4.463   3.920
11834TIP3    H235446   7.354   4.493   3.974
11835TIP3   OH235447   1.450   1.121   3.671
11835TIP3    H135448   1.530   1.074   3.647
11835TIP3    H235449   1.416   1.156   3.589
11836TIP3   OH235450   7.813   6.797   2.030
11836TIP3    H135451   7.842   6.848   1.955
11836TIP3    H235452   7.853   6.711   2.017
11837TIP3   OH235453   5.296   7.698   3.251
11837TIP3    H135454   5.364   7.658   3.197
11837TIP3    H235455   5.309   7.792   3.240
11838TIP3   OH235456   3.336   1.937   5.927
11838TIP3    H135457   3.252   1.960   5.889
11838TIP3    H235458   3.379   2.021   5.944
11839TIP3   OH235459   3.520   5.405   2.086
11839TIP3    H135460   3.451   5.420   2.022
11839TIP3    H235461   3.473   5.382   2.167
11840TIP3   OH235462   5.521   7.286   5.166
11840TIP3    H135463   5.531   7.238   5.248
11840TIP3    H235464   5.427   7.282   5.148
11841TIP3   OH235465   8.254   2.600   3.187
11841TIP3    H135466   8.271   2.571   3.277
11841TIP3    H235467   8.290   2.531   3.132
11842TIP3   OH235468   1.028   7.458   0.183
11842TIP3    H135469   1.056   7.486   0.271
11842TIP3    H235470   1.090   7.502   0.125
11843TIP3   OH235471   1.311   6.743   4.384
11843TIP3    H135472   1.290   6.761   4.476
11843TIP3    H235473   1.227   6.756   4.339
11844TIP3   OH235474   5.775   4.742   4.010
11844TIP3    H135475   5.735   4.823   4.043
11844TIP3    H235476   5.832   4.713   4.081
11845TIP3   OH235477   3.237   4.337   0.629
11845TIP3    H135478   3.173   4.317   0.561
11845TIP3    H235479   3.313   4.283   0.608
11846TIP3   OH235480   5.241   6.975   3.445
11846TIP3    H135481   5.246   6.954   3.351
11846TIP3    H235482   5.190   6.903   3.482
11847TIP3   OH235483   3.037   6.764   6.605
11847TIP3    H135484   3.113   6.709   6.588
11847TIP3    H235485   3.037   6.776   6.700
11848TIP3   OH235486   6.181   3.399   3.432
11848TIP3    H135487   6.275   3.397   3.414
11848TIP3    H235488   6.144   3.329   3.378
11849TIP3   OH235489   8.085   4.788   5.858
11849TIP3    H135490   8.113   4.740   5.936
11849TIP3    H235491   7.991   4.802   5.871
11850TIP3   OH235492   0.491   7.023   6.734
11850TIP3    H135493   0.421   7.009   6.670
11850TIP3    H235494   0.535   7.103   6.705
11851TIP3   OH235495   3.034   2.092   5.872
11851TIP3    H135496   3.033   2.026   5.942
11851TIP3    H235497   2.956   2.144   5.887
11852TIP3   OH235498   2.663   3.061   2.676
11852TIP3    H135499   2.718   3.138   2.689
11852TIP3    H235500   2.574   3.095   2.674
11853TIP3   OH235501   1.697   3.965   3.809
11853TIP3    H135502   1.726   4.033   3.747
11853TIP3    H235503   1.739   3.989   3.892
11854TIP3   OH235504   2.622   1.613   1.663
11854TIP3    H135505   2.629   1.628   1.568
11854TIP3    H235506   2.598   1.521   1.671
11855TIP3   OH235507   0.440   4.466   0.868
11855TIP3    H135508   0.518   4.520   0.882
11855TIP3    H235509   0.471   4.377   0.882
11856TIP3   OH235510   3.214   4.298   5.069
11856TIP3    H135511   3.277   4.237   5.107
11856TIP3    H235512   3.129   4.270   5.104
11857TIP3   OH235513   0.830   4.742   0.642
11857TIP3    H135514   0.913   4.779   0.671
11857TIP3    H235515   0.788   4.812   0.592
11858TIP3   OH235516   3.646   4.808   0.001
11858TIP3    H135517   3.586   4.826   0.074
11858TIP3    H235518   3.725   4.774   0.043
11859TIP3   OH235519   4.240   7.519   2.203
11859TIP3    H135520   4.147   7.502   2.189
11859TIP3    H235521   4.248   7.614   2.200
11860TIP3   OH235522   5.622   2.946   0.458
11860TIP3    H135523   5.649   2.941   0.549
11860TIP3    H235524   5.600   2.856   0.435
11861TIP3   OH235525   5.220   7.084   2.858
11861TIP3    H135526   5.140   7.132   2.879
11861TIP3    H235527   5.236   7.029   2.935
11862TIP3   OH235528   1.195   4.731   2.443
11862TIP3    H135529   1.183   4.747   2.536
11862TIP3    H235530   1.113   4.691   2.414
11863TIP3   OH235531   0.267   5.686   1.999
11863TIP3    H135532   0.315   5.755   2.045
11863TIP3    H235533   0.181   5.686   2.042
11864TIP3   OH235534   8.118   4.281   0.899
11864TIP3    H135535   8.065   4.258   0.975
11864TIP3    H235536   8.129   4.376   0.906
11865TIP3   OH235537   4.972   2.610   5.277
11865TIP3    H135538   4.991   2.594   5.369
11865TIP3    H235539   5.051   2.653   5.243
11866TIP3   OH235540   1.425   3.629   6.688
11866TIP3    H135541   1.389   3.663   6.770
11866TIP3    H235542   1.365   3.661   6.620
11867TIP3   OH235543   5.089   7.611   6.109
11867TIP3    H135544   5.168   7.659   6.134
11867TIP3    H235545   5.115   7.519   6.116
11868TIP3   OH235546   7.419   6.924   5.313
11868TIP3    H135547   7.451   7.013   5.299
11868TIP3    H235548   7.371   6.904   5.233
11869TIP3   OH235549   2.523   0.072   4.156
11869TIP3    H135550   2.451   0.023   4.195
11869TIP3    H235551   2.560   0.123   4.228
11870TIP3   OH235552   4.830   4.517   0.849
11870TIP3    H135553   4.874   4.569   0.917
11870TIP3    H235554   4.740   4.508   0.882
11871TIP3   OH235555   3.238   7.273   3.858
11871TIP3    H135556   3.171   7.340   3.873
11871TIP3    H235557   3.264   7.284   3.767
11872TIP3   OH235558   0.132   3.664   5.806
11872TIP3    H135559   0.169   3.743   5.845
11872TIP3    H235560   0.100   3.614   5.881
11873TIP3   OH235561   0.969   6.085   3.086
11873TIP3    H135562   1.045   6.102   3.030
11873TIP3    H235563   1.006   6.070   3.173
11874TIP3   OH235564   4.570   4.526   4.892
11874TIP3    H135565   4.516   4.595   4.931
11874TIP3    H235566   4.514   4.449   4.893
11875TIP3   OH235567   1.392   2.684   4.920
11875TIP3    H135568   1.376   2.625   4.993
11875TIP3    H235569   1.311   2.682   4.869
11876TIP3   OH235570   4.804   3.270   1.141
11876TIP3    H135571   4.785   3.219   1.062
11876TIP3    H235572   4.722   3.271   1.189
11877TIP3   OH235573   2.849   2.107   6.132
11877TIP3    H135574   2.838   2.171   6.061
11877TIP3    H235575   2.944   2.092   6.136
11878TIP3   OH235576   6.984   5.493   4.020
11878TIP3    H135577   6.964   5.407   4.057
11878TIP3    H235578   7.002   5.477   3.927
11879TIP3   OH235579   4.115   2.833   4.391
11879TIP3    H135580   4.078   2.827   4.303
11879TIP3    H235581   4.208   2.810   4.379
11880TIP3   OH235582   7.534   1.531   0.245
11880TIP3    H135583   7.536   1.608   0.302
11880TIP3    H235584   7.582   1.464   0.294
11881TIP3   OH235585   4.301   3.069   2.989
11881TIP3    H135586   4.387   3.080   2.949
11881TIP3    H235587   4.318   3.023   3.071
11882TIP3   OH235588   6.919   2.917   1.565
11882TIP3    H135589   6.991   2.858   1.542
11882TIP3    H235590   6.862   2.864   1.620
11883TIP3   OH235591   6.716   4.080   1.529
11883TIP3    H135592   6.771   4.022   1.581
11883TIP3    H235593   6.734   4.056   1.438
11884TIP3   OH235594   1.184   7.081   0.518
11884TIP3    H135595   1.264   7.119   0.483
11884TIP3    H235596   1.200   6.987   0.519
11885TIP3   OH235597   4.808   6.748   2.537
11885TIP3    H135598   4.833   6.821   2.595
11885TIP3    H235599   4.732   6.781   2.490
11886TIP3   OH235600   6.988   2.952   4.181
11886TIP3    H135601   6.943   2.867   4.183
11886TIP3    H235602   7.018   2.960   4.090
11887TIP3   OH235603   4.103   5.980   5.211
11887TIP3    H135604   4.060   6.049   5.262
11887TIP3    H235605   4.154   6.028   5.146
11888TIP3   OH235606   2.919   7.397   4.504
11888TIP3    H135607   2.937   7.489   4.526
11888TIP3    H235608   2.854   7.402   4.434
11889TIP3   OH235609   7.582   3.306   6.572
11889TIP3    H135610   7.678   3.308   6.562
11889TIP3    H235611   7.552   3.245   6.505
11890TIP3   OH235612   4.339   3.726   2.319
11890TIP3    H135613   4.307   3.743   2.408
11890TIP3    H235614   4.367   3.812   2.287
11891TIP3   OH235615   4.034   2.822   1.383
11891TIP3    H135616   4.095   2.883   1.426
11891TIP3    H235617   3.948   2.858   1.402
11892TIP3   OH235618   6.237   4.570   4.155
11892TIP3    H135619   6.292   4.538   4.083
11892TIP3    H235620   6.288   4.642   4.193
11893TIP3   OH235621   7.341   0.564   4.250
11893TIP3    H135622   7.281   0.604   4.314
11893TIP3    H235623   7.374   0.638   4.200
11894TIP3   OH235624   2.838   7.782   5.884
11894TIP3    H135625   2.794   7.724   5.947
11894TIP3    H235626   2.793   7.764   5.801
11895TIP3   OH235627   1.793   2.885   2.897
11895TIP3    H135628   1.740   2.806   2.912
11895TIP3    H235629   1.881   2.860   2.924
11896TIP3   OH235630   3.469   4.927   2.807
11896TIP3    H135631   3.460   4.954   2.898
11896TIP3    H235632   3.537   4.985   2.771
11897TIP3   OH235633   4.845   4.422   1.219
11897TIP3    H135634   4.853   4.348   1.158
11897TIP3    H235635   4.865   4.499   1.167
11898TIP3   OH235636   5.232   3.772   5.207
11898TIP3    H135637   5.238   3.745   5.115
11898TIP3    H235638   5.155   3.726   5.241
11899TIP3   OH235639   6.014   0.962   3.210
11899TIP3    H135640   5.992   0.963   3.303
11899TIP3    H235641   6.106   0.934   3.208
11900TIP3   OH235642   0.186   5.578   6.185
11900TIP3    H135643   0.204   5.530   6.266
11900TIP3    H235644   0.098   5.549   6.159
11901TIP3   OH235645   7.778   7.137   3.155
11901TIP3    H135646   7.761   7.182   3.238
11901TIP3    H235647   7.691   7.114   3.122
11902TIP3   OH235648   0.335   6.389   5.594
11902TIP3    H135649   0.249   6.376   5.635
11902TIP3    H235650   0.316   6.440   5.515
11903TIP3   OH235651   6.944   2.942   3.107
11903TIP3    H135652   6.898   3.020   3.137
11903TIP3    H235653   7.035   2.971   3.095
11904TIP3   OH235654   1.276   0.222   1.340
11904TIP3    H135655   1.303   0.249   1.428
11904TIP3    H235656   1.277   0.126   1.343
11905TIP3   OH235657   3.051   6.206   1.161
11905TIP3    H135658   3.023   6.117   1.181
11905TIP3    H235659   3.009   6.226   1.077
11906TIP3   OH235660   1.702   5.637   2.161
11906TIP3    H135661   1.752   5.571   2.210
11906TIP3    H235662   1.614   5.601   2.155
11907TIP3   OH235663   7.736   0.600   1.752
11907TIP3    H135664   7.753   0.507   1.742
11907TIP3    H235665   7.743   0.636   1.663
11908TIP3   OH235666   6.297   0.562   3.585
11908TIP3    H135667   6.304   0.657   3.579
11908TIP3    H235668   6.343   0.540   3.666
11909TIP3   OH235669   7.670   4.290   0.875
11909TIP3    H135670   7.753   4.266   0.917
11909TIP3    H235671   7.696   4.345   0.801
11910TIP3   OH235672   4.729   1.230   5.488
11910TIP3    H135673   4.775   1.161   5.535
11910TIP3    H235674   4.637   1.216   5.508
11911TIP3   OH235675   3.572   1.887   1.610
11911TIP3    H135676   3.488   1.916   1.574
11911TIP3    H235677   3.630   1.879   1.534
11912TIP3   OH235678   5.741   4.420   1.160
11912TIP3    H135679   5.710   4.408   1.250
11912TIP3    H235680   5.834   4.439   1.168
11913TIP3   OH235681   8.150   6.132   2.727
11913TIP3    H135682   8.134   6.216   2.770
11913TIP3    H235683   8.219   6.090   2.780
11914TIP3   OH235684   0.097   1.784   3.151
11914TIP3    H135685   0.100   1.858   3.212
11914TIP3    H235686   0.150   1.812   3.076
11915TIP3   OH235687   3.842   6.055   3.476
11915TIP3    H135688   3.861   5.963   3.454
11915TIP3    H235689   3.761   6.075   3.430
11916TIP3   OH235690   0.483   1.112   3.131
11916TIP3    H135691   0.550   1.068   3.079
11916TIP3    H235692   0.479   1.062   3.213
11917TIP3   OH235693   2.271   2.886   2.058
11917TIP3    H135694   2.184   2.894   2.097
11917TIP3    H235695   2.311   2.972   2.071
11918TIP3   OH235696   0.266   1.552   4.231
11918TIP3    H135697   0.250   1.511   4.146
11918TIP3    H235698   0.197   1.516   4.288
11919TIP3   OH235699   3.824   7.498   5.724
11919TIP3    H135700   3.736   7.472   5.753
11919TIP3    H235701   3.855   7.556   5.793
11920TIP3   OH235702   3.619   1.821   0.122
11920TIP3    H135703   3.674   1.743   0.120
11920TIP3    H235704   3.628   1.860   0.035
11921TIP3   OH235705   2.974   3.488   3.702
11921TIP3    H135706   3.040   3.496   3.771
11921TIP3    H235707   2.895   3.460   3.748
11922TIP3   OH235708   2.317   1.776   6.416
11922TIP3    H135709   2.281   1.692   6.446
11922TIP3    H235710   2.283   1.840   6.478
11923TIP3   OH235711   0.687   3.537   3.844
11923TIP3    H135712   0.665   3.502   3.930
11923TIP3    H235713   0.780   3.516   3.833
11924TIP3   OH235714   1.120   2.403   2.809
11924TIP3    H135715   1.193   2.452   2.770
11924TIP3    H235716   1.126   2.316   2.768
11925TIP3   OH235717   5.925   3.220   5.219
11925TIP3    H135718   5.857   3.155   5.199
11925TIP3    H235719   5.970   3.234   5.136
11926TIP3   OH235720   6.367   0.324   1.391
11926TIP3    H135721   6.286   0.273   1.386
11926TIP3    H235722   6.385   0.330   1.485
11927TIP3   OH235723   1.158   1.642   2.125
11927TIP3    H135724   1.250   1.632   2.101
11927TIP3    H235725   1.131   1.557   2.159
11928TIP3   OH235726   7.346   4.711   4.424
11928TIP3    H135727   7.272   4.653   4.445
11928TIP3    H235728   7.304   4.791   4.393
11929TIP3   OH235729   3.268   3.808   4.872
11929TIP3    H135730   3.208   3.849   4.809
11929TIP3    H235731   3.218   3.734   4.907
11930TIP3   OH235732   5.658   0.811   2.790
11930TIP3    H135733   5.714   0.868   2.843
11930TIP3    H235734   5.572   0.816   2.833
11931TIP3   OH235735   7.078   0.721   3.161
11931TIP3    H135736   7.001   0.714   3.106
11931TIP3    H235737   7.152   0.711   3.101
11932TIP3   OH235738   3.777   5.539   3.412
11932TIP3    H135739   3.812   5.625   3.436
11932TIP3    H235740   3.784   5.487   3.492
11933TIP3   OH235741   2.075   7.561   0.293
11933TIP3    H135742   2.052   7.648   0.327
11933TIP3    H235743   1.998   7.535   0.242
11934TIP3   OH235744   4.868   6.454   6.351
11934TIP3    H135745   4.842   6.510   6.278
11934TIP3    H235746   4.839   6.366   6.325
11935TIP3   OH235747   6.738   2.861   2.301
11935TIP3    H135748   6.715   2.769   2.315
11935TIP3    H235749   6.727   2.902   2.387
11936TIP3   OH235750   6.278   4.897   1.587
11936TIP3    H135751   6.196   4.915   1.633
11936TIP3    H235752   6.279   4.960   1.515
11937TIP3   OH235753   0.197   2.185   4.215
11937TIP3    H135754   0.272   2.222   4.168
11937TIP3    H235755   0.219   2.197   4.307
11938TIP3   OH235756   2.068   0.622   3.546
11938TIP3    H135757   2.162   0.630   3.561
11938TIP3    H235758   2.053   0.672   3.465
11939TIP3   OH235759   0.422   3.130   2.707
11939TIP3    H135760   0.370   3.050   2.698
11939TIP3    H235761   0.491   3.107   2.769
11940TIP3   OH235762   0.106   5.721   0.223
11940TIP3    H135763   0.048   5.790   0.190
11940TIP3    H235764   0.169   5.707   0.153
11941TIP3   OH235765   6.660   6.950   1.928
11941TIP3    H135766   6.673   6.951   1.833
11941TIP3    H235767   6.664   6.858   1.952
11942TIP3   OH235768   1.522   4.759   5.219
11942TIP3    H135769   1.584   4.691   5.245
11942TIP3    H235770   1.576   4.826   5.176
11943TIP3   OH235771   6.471   7.777   5.622
11943TIP3    H135772   6.532   7.705   5.609
11943TIP3    H235773   6.525   7.850   5.654
11944TIP3   OH235774   2.617   7.443   0.746
11944TIP3    H135775   2.675   7.491   0.688
11944TIP3    H235776   2.641   7.352   0.735
11945TIP3   OH235777   2.504   4.925   0.516
11945TIP3    H135778   2.414   4.953   0.505
11945TIP3    H235779   2.553   5.006   0.534
11946TIP3   OH235780   1.327   5.590   6.373
11946TIP3    H135781   1.300   5.545   6.293
11946TIP3    H235782   1.261   5.658   6.386
11947TIP3   OH235783   3.053   1.411   2.773
11947TIP3    H135784   2.992   1.443   2.707
11947TIP3    H235785   3.092   1.333   2.735
11948TIP3   OH235786   2.046   2.019   2.916
11948TIP3    H135787   2.065   1.962   2.990
11948TIP3    H235788   2.120   2.080   2.913
11949TIP3   OH235789   1.347   6.119   1.584
11949TIP3    H135790   1.274   6.156   1.634
11949TIP3    H235791   1.312   6.037   1.549
11950TIP3   OH235792   6.155   2.025   0.996
11950TIP3    H135793   6.103   1.998   0.921
11950TIP3    H235794   6.224   1.959   1.002
11951TIP3   OH235795   1.315   2.569   2.717
11951TIP3    H135796   1.386   2.528   2.766
11951TIP3    H235797   1.355   2.599   2.636
11952TIP3   OH235798   2.692   5.479   3.267
11952TIP3    H135799   2.658   5.556   3.312
11952TIP3    H235800   2.751   5.514   3.200
11953TIP3   OH235801   8.271   7.399   1.221
11953TIP3    H135802   8.216   7.328   1.255
11953TIP3    H235803   8.356   7.384   1.260
11954TIP3   OH235804   2.155   7.168   1.442
11954TIP3    H135805   2.136   7.109   1.369
11954TIP3    H235806   2.078   7.224   1.449
11955TIP3   OH235807   7.739   3.264   4.349
11955TIP3    H135808   7.662   3.319   4.366
11955TIP3    H235809   7.801   3.322   4.304
11956TIP3   OH235810   6.933   0.336   3.174
11956TIP3    H135811   6.871   0.385   3.228
11956TIP3    H235812   6.883   0.263   3.139
11957TIP3   OH235813   1.217   0.926   0.757
11957TIP3    H135814   1.240   0.859   0.692
11957TIP3    H235815   1.170   0.878   0.825
11958TIP3   OH235816   5.332   0.548   4.393
11958TIP3    H135817   5.303   0.602   4.467
11958TIP3    H235818   5.286   0.465   4.404
11959TIP3   OH235819   7.785   7.002   5.624
11959TIP3    H135820   7.700   6.973   5.591
11959TIP3    H235821   7.770   7.022   5.716
11960TIP3   OH235822   1.327   5.407   6.576
11960TIP3    H135823   1.402   5.435   6.629
11960TIP3    H235824   1.308   5.483   6.520
11961TIP3   OH235825   5.520   7.771   0.848
11961TIP3    H135826   5.446   7.783   0.907
11961TIP3    H235827   5.548   7.681   0.864
11962TIP3   OH235828   3.915   5.822   4.194
11962TIP3    H135829   3.910   5.727   4.201
11962TIP3    H235830   4.006   5.840   4.170
11963TIP3   OH235831   6.168   2.155   3.406
11963TIP3    H135832   6.082   2.188   3.430
11963TIP3    H235833   6.202   2.220   3.345
11964TIP3   OH235834   7.508   2.731   0.370
11964TIP3    H135835   7.465   2.813   0.396
11964TIP3    H235836   7.561   2.755   0.294
11965TIP3   OH235837   2.916   6.634   3.250
11965TIP3    H135838   2.948   6.557   3.203
11965TIP3    H235839   2.928   6.706   3.188
11966TIP3   OH235840   3.919   5.323   5.026
11966TIP3    H135841   3.940   5.416   5.019
11966TIP3    H235842   3.960   5.295   5.108
11967TIP3   OH235843   3.701   4.804   4.434
11967TIP3    H135844   3.651   4.723   4.435
11967TIP3    H235845   3.779   4.785   4.486
11968TIP3   OH235846   4.251   2.463   4.139
11968TIP3    H135847   4.201   2.506   4.070
11968TIP3    H235848   4.187   2.441   4.206
11969TIP3   OH235849   5.280   2.159   2.889
11969TIP3    H135850   5.322   2.110   2.959
11969TIP3    H235851   5.186   2.148   2.904
11970TIP3   OH235852   5.742   4.963   3.446
11970TIP3    H135853   5.764   4.927   3.532
11970TIP3    H235854   5.789   5.046   3.442
11971TIP3   OH235855   4.039   1.293   1.139
11971TIP3    H135856   4.046   1.198   1.126
11971TIP3    H235857   4.101   1.330   1.076
11972TIP3   OH235858   6.800   5.003   0.368
11972TIP3    H135859   6.718   4.983   0.323
11972TIP3    H235860   6.823   5.091   0.338
11973TIP3   OH235861   5.910   6.054   1.997
11973TIP3    H135862   5.843   6.032   1.933
11973TIP3    H235863   5.890   6.143   2.024
11974TIP3   OH235864   0.660   6.062   0.910
11974TIP3    H135865   0.702   6.007   0.844
11974TIP3    H235866   0.579   6.092   0.869
11975TIP3   OH235867   6.086   6.900   6.346
11975TIP3    H135868   6.131   6.984   6.358
11975TIP3    H235869   6.116   6.846   6.418
11976TIP3   OH235870   8.009   1.702   4.393
11976TIP3    H135871   7.979   1.789   4.420
11976TIP3    H235872   8.101   1.699   4.418
11977TIP3   OH235873   3.479   6.302   4.027
11977TIP3    H135874   3.528   6.353   3.962
11977TIP3    H235875   3.541   6.288   4.098
11978TIP3   OH235876   6.166   4.812   0.951
11978TIP3    H135877   6.149   4.786   1.041
11978TIP3    H235878   6.096   4.771   0.901
11979TIP3   OH235879   1.582   5.850   6.033
11979TIP3    H135880   1.614   5.930   5.992
11979TIP3    H235881   1.589   5.784   5.964
11980TIP3   OH235882   6.862   7.699   3.846
11980TIP3    H135883   6.860   7.762   3.917
11980TIP3    H235884   6.776   7.657   3.848
11981TIP3   OH235885   3.242   0.490   4.546
11981TIP3    H135886   3.236   0.586   4.551
11981TIP3    H235887   3.186   0.467   4.471
11982TIP3   OH235888   5.302   5.495   0.545
11982TIP3    H135889   5.268   5.427   0.603
11982TIP3    H235890   5.227   5.551   0.528
11983TIP3   OH235891   4.453   1.496   2.531
11983TIP3    H135892   4.519   1.430   2.552
11983TIP3    H235893   4.500   1.564   2.483
11984TIP3   OH235894   0.568   5.392   0.977
11984TIP3    H135895   0.641   5.416   1.034
11984TIP3    H235896   0.490   5.423   1.022
11985TIP3   OH235897   3.449   4.372   0.853
11985TIP3    H135898   3.494   4.440   0.803
11985TIP3    H235899   3.371   4.352   0.801
11986TIP3   OH235900   0.131   2.359   1.672
11986TIP3    H135901   0.155   2.451   1.686
11986TIP3    H235902   0.035   2.358   1.675
11987TIP3   OH235903   2.774   0.274   0.252
11987TIP3    H135904   2.757   0.341   0.318
11987TIP3    H235905   2.864   0.291   0.224
11988TIP3   OH235906   3.088   0.832   1.479
11988TIP3    H135907   3.030   0.879   1.539
11988TIP3    H235908   3.155   0.896   1.454
11989TIP3   OH235909   4.534   1.018   2.026
11989TIP3    H135910   4.533   0.948   2.092
11989TIP3    H235911   4.532   0.972   1.942
11990TIP3   OH235912   5.286   3.091   3.761
11990TIP3    H135913   5.217   3.101   3.696
11990TIP3    H235914   5.318   3.001   3.748
11991TIP3   OH235915   1.821   7.696   4.167
11991TIP3    H135916   1.784   7.707   4.255
11991TIP3    H235917   1.911   7.670   4.182
11992TIP3   OH235918   6.740   2.813   2.942
11992TIP3    H135919   6.659   2.821   2.993
11992TIP3    H235920   6.806   2.857   2.995
11993TIP3   OH235921   2.970   1.936   1.623
11993TIP3    H135922   3.056   1.968   1.651
11993TIP3    H235923   2.964   1.848   1.659
11994TIP3   OH235924   5.013   4.220   3.935
11994TIP3    H135925   4.943   4.196   3.995
11994TIP3    H235926   5.065   4.285   3.983
11995TIP3   OH235927   8.084   6.265   3.144
11995TIP3    H135928   8.060   6.184   3.189
11995TIP3    H235929   8.033   6.333   3.190
11996TIP3   OH235930   2.476   5.323   3.365
11996TIP3    H135931   2.418   5.346   3.292
11996TIP3    H235932   2.547   5.387   3.360
11997TIP3   OH235933   4.285   2.661   6.339
11997TIP3    H135934   4.294   2.594   6.408
11997TIP3    H235935   4.374   2.674   6.306
11998TIP3   OH235936   0.040   4.537   1.086
11998TIP3    H135937   0.128   4.550   1.123
11998TIP3    H235938  -0.014   4.602   1.131
11999TIP3   OH235939   3.726   2.008   6.085
11999TIP3    H135940   3.820   1.995   6.073
11999TIP3    H235941   3.694   1.925   6.120
12000TIP3   OH235942   4.292   3.733   5.183
12000TIP3    H135943   4.319   3.698   5.098
12000TIP3    H235944   4.203   3.700   5.195
12001TIP3   OH235945   3.117   2.911   1.439
12001TIP3    H135946   3.185   2.978   1.444
12001TIP3    H235947   3.062   2.937   1.365
12002TIP3   OH235948   5.933   7.173   6.631
12002TIP3    H135949   5.885   7.153   6.550
12002TIP3    H235950   6.004   7.109   6.633
12003TIP3   OH235951   3.797   1.643   0.478
12003TIP3    H135952   3.814   1.611   0.566
12003TIP3    H235953   3.855   1.591   0.422
12004TIP3   OH235954   7.964   0.969   1.154
12004TIP3    H135955   8.022   0.913   1.103
12004TIP3    H235956   8.006   1.054   1.154
12005TIP3   OH235957   3.443   5.029   3.062
12005TIP3    H135958   3.527   5.074   3.062
12005TIP3    H235959   3.382   5.091   3.022
12006TIP3   OH235960   4.956   1.772   1.259
12006TIP3    H135961   4.878   1.826   1.275
12006TIP3    H235962   5.009   1.823   1.198
12007TIP3   OH235963   1.033   4.249   2.269
12007TIP3    H135964   0.961   4.250   2.332
12007TIP3    H235965   1.074   4.163   2.281
12008TIP3   OH235966   5.804   5.655   6.003
12008TIP3    H135967   5.735   5.651   6.069
12008TIP3    H235968   5.884   5.629   6.050
12009TIP3   OH235969   3.507   6.473   6.515
12009TIP3    H135970   3.510   6.395   6.570
12009TIP3    H235971   3.549   6.541   6.569
12010TIP3   OH235972   3.740   0.093   2.027
12010TIP3    H135973   3.706   0.019   1.976
12010TIP3    H235974   3.760   0.160   1.962
12011TIP3   OH235975   6.803   4.797   5.071
12011TIP3    H135976   6.810   4.786   4.976
12011TIP3    H235977   6.742   4.870   5.082
12012TIP3   OH235978   4.019   1.566   6.373
12012TIP3    H135979   4.098   1.611   6.403
12012TIP3    H235980   3.998   1.607   6.289
12013TIP3   OH235981   0.735   5.181   6.382
12013TIP3    H135982   0.657   5.235   6.393
12013TIP3    H235983   0.770   5.171   6.470
12014TIP3   OH235984   7.670   5.813   1.557
12014TIP3    H135985   7.761   5.794   1.577
12014TIP3    H235986   7.663   5.908   1.565
12015TIP3   OH235987   4.365   6.511   4.228
12015TIP3    H135988   4.367   6.489   4.321
12015TIP3    H235989   4.363   6.426   4.184
12016TIP3   OH235990   5.504   1.579   3.446
12016TIP3    H135991   5.436   1.545   3.505
12016TIP3    H235992   5.455   1.619   3.374
12017TIP3   OH235993   1.124   1.805   2.353
12017TIP3    H135994   1.122   1.769   2.264
12017TIP3    H235995   1.114   1.899   2.341
12018TIP3   OH235996   1.897   5.922   4.887
12018TIP3    H135997   1.875   5.987   4.820
12018TIP3    H235998   1.928   5.847   4.837
12019TIP3   OH235999   5.423   2.118   3.679
12019TIP3    H136000   5.511   2.123   3.644
12019TIP3    H236001   5.430   2.061   3.756
12020TIP3   OH236002   3.446   0.504   1.626
12020TIP3    H136003   3.533   0.528   1.656
12020TIP3    H236004   3.389   0.522   1.701
12021TIP3   OH236005   1.145   4.395   3.862
12021TIP3    H136006   1.107   4.307   3.856
12021TIP3    H236007   1.073   4.454   3.839
12022TIP3   OH236008   7.429   7.076   6.517
12022TIP3    H136009   7.399   7.163   6.490
12022TIP3    H236010   7.467   7.089   6.604
12023TIP3   OH236011   5.139   1.164   3.533
12023TIP3    H136012   5.234   1.166   3.541
12023TIP3    H236013   5.110   1.251   3.560
12024TIP3   OH236014   7.229   6.743   2.152
12024TIP3    H136015   7.213   6.828   2.194
12024TIP3    H236016   7.304   6.759   2.095
12025TIP3   OH236017   5.113   4.293   3.372
12025TIP3    H136018   5.107   4.198   3.361
12025TIP3    H236019   5.043   4.314   3.433
12026TIP3   OH236020   2.944   4.103   4.352
12026TIP3    H136021   2.960   4.056   4.269
12026TIP3    H236022   3.016   4.076   4.408
12027TIP3   OH236023   0.319   1.538   5.162
12027TIP3    H136024   0.406   1.552   5.125
12027TIP3    H236025   0.267   1.613   5.133
12028TIP3   OH236026   0.727   5.448   3.148
12028TIP3    H136027   0.774   5.510   3.203
12028TIP3    H236028   0.731   5.365   3.196
12029TIP3   OH236029   5.618   1.642   5.758
12029TIP3    H136030   5.561   1.584   5.707
12029TIP3    H236031   5.566   1.720   5.773
12030TIP3   OH236032   4.515   4.170   0.790
12030TIP3    H136033   4.543   4.145   0.702
12030TIP3    H236034   4.453   4.242   0.776
12031TIP3   OH236035   6.760   3.012   2.530
12031TIP3    H136036   6.687   2.992   2.589
12031TIP3    H236037   6.734   3.094   2.487
12032TIP3   OH236038   3.726   6.407   1.030
12032TIP3    H136039   3.741   6.496   0.998
12032TIP3    H236040   3.680   6.419   1.113
12033TIP3   OH236041   5.423   4.264   1.329
12033TIP3    H136042   5.357   4.333   1.324
12033TIP3    H236043   5.490   4.298   1.388
12034TIP3   OH236044   0.685   7.114   1.429
12034TIP3    H136045   0.699   7.120   1.335
12034TIP3    H236046   0.765   7.150   1.468
12035TIP3   OH236047   5.782   3.048   3.212
12035TIP3    H136048   5.825   3.005   3.137
12035TIP3    H236049   5.726   3.114   3.172
12036TIP3   OH236050   0.149   0.443   2.832
12036TIP3    H136051   0.131   0.477   2.920
12036TIP3    H236052   0.243   0.430   2.830
12037TIP3   OH236053   3.784   2.919   6.675
12037TIP3    H136054   3.744   2.832   6.676
12037TIP3    H236055   3.765   2.954   6.588
12038TIP3   OH236056   2.953   2.132   2.598
12038TIP3    H136057   2.899   2.161   2.524
12038TIP3    H236058   2.892   2.089   2.657
12039TIP3   OH236059   2.888   3.820   1.950
12039TIP3    H136060   2.981   3.838   1.968
12039TIP3    H236061   2.884   3.807   1.855
12040TIP3   OH236062   3.326   5.562   6.489
12040TIP3    H136063   3.337   5.511   6.408
12040TIP3    H236064   3.400   5.537   6.544
12041TIP3   OH236065   1.493   6.082   1.813
12041TIP3    H136066   1.447   6.108   1.733
12041TIP3    H236067   1.556   6.153   1.828
12042TIP3   OH236068   3.416   3.576   6.645
12042TIP3    H136069   3.457   3.565   6.559
12042TIP3    H236070   3.337   3.522   6.641
12043TIP3   OH236071   1.507   1.198   6.723
12043TIP3    H136072   1.455   1.270   6.687
12043TIP3    H236073   1.594   1.235   6.736
12044TIP3   OH236074   1.265   3.419   2.632
12044TIP3    H136075   1.319   3.428   2.553
12044TIP3    H236076   1.260   3.325   2.647
12045TIP3   OH236077   5.059   0.045   1.574
12045TIP3    H136078   5.142   0.054   1.529
12045TIP3    H236079   4.993   0.055   1.505
12046TIP3   OH236080   5.108   1.640   0.309
12046TIP3    H136081   5.142   1.564   0.357
12046TIP3    H236082   5.163   1.713   0.337
12047TIP3   OH236083   0.870   4.961   2.610
12047TIP3    H136084   0.841   4.950   2.701
12047TIP3    H236085   0.894   5.053   2.604
12048TIP3   OH236086   7.696   0.659   2.315
12048TIP3    H136087   7.701   0.564   2.306
12048TIP3    H236088   7.603   0.677   2.328
12049TIP3   OH236089   5.394   6.271   2.405
12049TIP3    H136090   5.430   6.355   2.432
12049TIP3    H236091   5.423   6.260   2.315
12050TIP3   OH236092   7.881   3.250   5.612
12050TIP3    H136093   7.967   3.231   5.651
12050TIP3    H236094   7.887   3.342   5.584
12051TIP3   OH236095   3.908   3.628   5.968
12051TIP3    H136096   3.925   3.624   6.062
12051TIP3    H236097   3.832   3.571   5.955
12052TIP3   OH236098   5.270   7.562   1.149
12052TIP3    H136099   5.264   7.503   1.074
12052TIP3    H236100   5.337   7.524   1.206
12053TIP3   OH236101   7.151   0.243   2.297
12053TIP3    H136102   7.134   0.175   2.231
12053TIP3    H236103   7.244   0.234   2.316
12054TIP3   OH236104   7.368   3.896   3.888
12054TIP3    H136105   7.370   3.991   3.880
12054TIP3    H236106   7.440   3.875   3.948
12055TIP3   OH236107   1.751   3.539   4.282
12055TIP3    H136108   1.657   3.531   4.297
12055TIP3    H236109   1.771   3.630   4.302
12056TIP3   OH236110   4.335   1.599   2.941
12056TIP3    H136111   4.279   1.522   2.952
12056TIP3    H236112   4.315   1.654   3.016
12057TIP3   OH236113   0.530   3.680   3.231
12057TIP3    H136114   0.448   3.726   3.247
12057TIP3    H236115   0.536   3.615   3.302
12058TIP3   OH236116   2.993   7.726   4.435
12058TIP3    H136117   2.983   7.678   4.517
12058TIP3    H236118   3.024   7.813   4.461
12059TIP3   OH236119   7.068   1.075   6.589
12059TIP3    H136120   7.139   1.073   6.525
12059TIP3    H236121   7.102   1.024   6.664
12060TIP3   OH236122   5.897   6.792   6.045
12060TIP3    H136123   5.878   6.703   6.074
12060TIP3    H236124   5.992   6.797   6.044
12061TIP3   OH236125   5.144   2.316   5.380
12061TIP3    H136126   5.215   2.264   5.418
12061TIP3    H236127   5.065   2.266   5.396
12062TIP3   OH236128   8.103   2.192   1.469
12062TIP3    H136129   8.044   2.133   1.422
12062TIP3    H236130   8.190   2.157   1.453
12063TIP3   OH236131   6.452   4.408   6.276
12063TIP3    H136132   6.428   4.494   6.309
12063TIP3    H236133   6.519   4.425   6.210
12064TIP3   OH236134   2.773   0.551   5.971
12064TIP3    H136135   2.678   0.560   5.984
12064TIP3    H236136   2.806   0.641   5.973
12065TIP3   OH236137   1.610   6.540   2.150
12065TIP3    H136138   1.653   6.456   2.145
12065TIP3    H236139   1.540   6.535   2.085
12066TIP3   OH236140   8.152   3.466   2.540
12066TIP3    H136141   8.102   3.530   2.490
12066TIP3    H236142   8.212   3.427   2.477
12067TIP3   OH236143   5.058   5.665   0.523
12067TIP3    H136144   4.967   5.654   0.551
12067TIP3    H236145   5.059   5.635   0.432
12068TIP3   OH236146   2.871   1.400   4.979
12068TIP3    H136147   2.936   1.337   5.012
12068TIP3    H236148   2.923   1.476   4.953
12069TIP3   OH236149   1.069   5.268   6.295
12069TIP3    H136150   1.131   5.315   6.239
12069TIP3    H236151   1.075   5.177   6.266
12070TIP3   OH236152   4.672   2.432   1.366
12070TIP3    H136153   4.650   2.339   1.358
12070TIP3    H236154   4.734   2.449   1.296
12071TIP3   OH236155   2.881   5.413   4.249
12071TIP3    H136156   2.822   5.339   4.262
12071TIP3    H236157   2.826   5.482   4.213
12072TIP3   OH236158   5.234   4.919   6.472
12072TIP3    H136159   5.326   4.897   6.486
12072TIP3    H236160   5.214   4.987   6.536
12073TIP3   OH236161   1.039   3.662   3.967
12073TIP3    H136162   1.119   3.612   3.952
12073TIP3    H236163   1.014   3.641   4.057
12074TIP3   OH236164   7.373   7.062   4.069
12074TIP3    H136165   7.305   7.025   4.013
12074TIP3    H236166   7.383   7.152   4.037
12075TIP3   OH236167   6.879   0.133   1.095
12075TIP3    H136168   6.814   0.074   1.056
12075TIP3    H236169   6.827   0.203   1.134
12076TIP3   OH236170   8.037   6.344   6.782
12076TIP3    H136171   7.994   6.368   6.700
12076TIP3    H236172   8.116   6.398   6.784
12077TIP3   OH236173   3.140   7.783   5.831
12077TIP3    H136174   3.187   7.856   5.792
12077TIP3    H236175   3.053   7.819   5.852
12078TIP3   OH236176   1.087   0.645   2.569
12078TIP3    H136177   1.020   0.581   2.544
12078TIP3    H236178   1.168   0.595   2.572
12079TIP3   OH236179   3.381   4.853   4.485
12079TIP3    H136180   3.444   4.925   4.483
12079TIP3    H236181   3.435   4.775   4.497
12080TIP3   OH236182   7.466   4.493   0.884
12080TIP3    H136183   7.529   4.423   0.865
12080TIP3    H236184   7.500   4.534   0.964
12081TIP3   OH236185   6.526   6.691   6.656
12081TIP3    H136186   6.588   6.657   6.591
12081TIP3    H236187   6.551   6.649   6.738
12082TIP3   OH236188   5.350   1.372   3.024
12082TIP3    H136189   5.291   1.443   3.049
12082TIP3    H236190   5.390   1.402   2.943
12083TIP3   OH236191   1.479   5.073   3.935
12083TIP3    H136192   1.438   5.111   3.857
12083TIP3    H236193   1.415   5.009   3.966
12084TIP3   OH236194   7.956   2.859   6.140
12084TIP3    H136195   7.940   2.924   6.073
12084TIP3    H236196   8.051   2.860   6.152
12085TIP3   OH236197   2.499   3.703   5.189
12085TIP3    H136198   2.431   3.649   5.149
12085TIP3    H236199   2.551   3.642   5.241
12086TIP3   OH236200   2.772   7.828   3.880
12086TIP3    H136201   2.862   7.855   3.898
12086TIP3    H236202   2.765   7.740   3.916
12087TIP3   OH236203   0.334   4.646   0.089
12087TIP3    H136204   0.390   4.723   0.088
12087TIP3    H236205   0.303   4.640   0.180
12088TIP3   OH236206   6.123   2.912   2.991
12088TIP3    H136207   6.112   2.886   3.083
12088TIP3    H236208   6.035   2.934   2.962
12089TIP3   OH236209   2.678   5.553   3.903
12089TIP3    H136210   2.744   5.620   3.882
12089TIP3    H236211   2.728   5.483   3.944
12090TIP3   OH236212   2.651   7.174   6.050
12090TIP3    H136213   2.705   7.145   6.123
12090TIP3    H236214   2.709   7.170   5.974
12091TIP3   OH236215   5.434   4.406   4.088
12091TIP3    H136216   5.465   4.496   4.097
12091TIP3    H236217   5.467   4.378   4.002
12092TIP3   OH236218   8.093   3.332   5.230
12092TIP3    H136219   8.017   3.301   5.181
12092TIP3    H236220   8.157   3.354   5.162
12093TIP3   OH236221   1.449   3.272   5.882
12093TIP3    H136222   1.448   3.223   5.800
12093TIP3    H236223   1.503   3.349   5.863
12094TIP3   OH236224   0.296   5.518   5.258
12094TIP3    H136225   0.320   5.435   5.215
12094TIP3    H236226   0.375   5.544   5.305
12095TIP3   OH236227   0.563   3.448   4.479
12095TIP3    H136228   0.515   3.438   4.397
12095TIP3    H236229   0.498   3.477   4.542
12096TIP3   OH236230   1.802   7.425   2.327
12096TIP3    H136231   1.710   7.451   2.319
12096TIP3    H236232   1.851   7.505   2.310
12097TIP3   OH236233   4.205   6.048   2.211
12097TIP3    H136234   4.257   6.118   2.252
12097TIP3    H236235   4.247   5.967   2.239
12098TIP3   OH236236   0.065   0.500   6.592
12098TIP3    H136237   0.073   0.531   6.682
12098TIP3    H236238   0.121   0.559   6.541
12099TIP3   OH236239   2.212   6.983   4.018
12099TIP3    H136240   2.224   7.038   4.095
12099TIP3    H236241   2.288   6.925   4.018
12100TIP3   OH236242   7.745   5.984   4.055
12100TIP3    H136243   7.728   5.906   4.107
12100TIP3    H236244   7.841   5.991   4.051
12101TIP3   OH236245   5.933   5.582   1.430
12101TIP3    H136246   5.922   5.500   1.478
12101TIP3    H236247   5.914   5.558   1.339
12102TIP3   OH236248   6.014   1.787   1.297
12102TIP3    H136249   5.998   1.720   1.230
12102TIP3    H236250   6.014   1.740   1.380
12103TIP3   OH236251   2.531   5.237   0.878
12103TIP3    H136252   2.537   5.211   0.970
12103TIP3    H236253   2.619   5.267   0.856
12104TIP3   OH236254   6.695   4.795   0.995
12104TIP3    H136255   6.606   4.765   1.014
12104TIP3    H236256   6.714   4.859   1.063
12105TIP3   OH236257   0.993   2.281   0.297
12105TIP3    H136258   0.949   2.366   0.306
12105TIP3    H236259   0.981   2.257   0.206
12106TIP3   OH236260   3.907   6.473   2.632
12106TIP3    H136261   3.825   6.433   2.605
12106TIP3    H236262   3.887   6.566   2.641
12107TIP3   OH236263   0.269   4.571   1.237
12107TIP3    H136264   0.297   4.481   1.218
12107TIP3    H236265   0.348   4.623   1.224
12108TIP3   OH236266   0.418   4.560   1.798
12108TIP3    H136267   0.499   4.603   1.823
12108TIP3    H236268   0.413   4.484   1.856
12109TIP3   OH236269   6.636   3.474   6.121
12109TIP3    H136270   6.627   3.388   6.161
12109TIP3    H236271   6.565   3.477   6.056
12110TIP3   OH236272   3.759   7.747   1.154
12110TIP3    H136273   3.669   7.769   1.131
12110TIP3    H236274   3.770   7.657   1.125
12111TIP3   OH236275   0.551   6.136   4.630
12111TIP3    H136276   0.543   6.041   4.640
12111TIP3    H236277   0.588   6.148   4.543
12112TIP3   OH236278   0.452   6.119   1.407
12112TIP3    H136279   0.529   6.064   1.415
12112TIP3    H236280   0.473   6.178   1.334
12113TIP3   OH236281   7.654   1.099   3.158
12113TIP3    H136282   7.691   1.047   3.229
12113TIP3    H236283   7.689   1.187   3.172
12114TIP3   OH236284   5.707   7.075   2.390
12114TIP3    H136285   5.720   7.108   2.301
12114TIP3    H236286   5.627   7.024   2.385
12115TIP3   OH236287   4.250   3.765   1.425
12115TIP3    H136288   4.319   3.711   1.464
12115TIP3    H236289   4.250   3.741   1.332
12116TIP3   OH236290   6.435   0.070   2.818
12116TIP3    H136291   6.423   0.023   2.736
12116TIP3    H236292   6.530   0.072   2.831
12117TIP3   OH236293   5.244   0.459   2.585
12117TIP3    H136294   5.172   0.397   2.593
12117TIP3    H236295   5.272   0.476   2.675
12118TIP3   OH236296   7.578   1.076   2.901
12118TIP3    H136297   7.598   1.066   2.994
12118TIP3    H236298   7.486   1.051   2.894
12119TIP3   OH236299   3.258   3.382   5.182
12119TIP3    H136300   3.353   3.391   5.188
12119TIP3    H236301   3.233   3.437   5.108
12120TIP3   OH236302   1.661   3.462   3.501
12120TIP3    H136303   1.701   3.489   3.419
12120TIP3    H236304   1.735   3.445   3.559
12121TIP3   OH236305   6.495   4.153   6.100
12121TIP3    H136306   6.511   4.183   6.010
12121TIP3    H236307   6.487   4.234   6.150
12122TIP3   OH236308   7.866   2.521   1.494
12122TIP3    H136309   7.908   2.560   1.570
12122TIP3    H236310   7.772   2.539   1.507
12123TIP3   OH236311   6.442   3.710   1.566
12123TIP3    H136312   6.527   3.695   1.526
12123TIP3    H236313   6.395   3.628   1.554
12124TIP3   OH236314   6.007   4.120   1.651
12124TIP3    H136315   6.056   4.139   1.571
12124TIP3    H236316   6.066   4.144   1.722
12125TIP3   OH236317   5.247   2.150   0.058
12125TIP3    H136318   5.269   2.236   0.022
12125TIP3    H236319   5.152   2.152   0.070
12126TIP3   OH236320   6.147   2.269   1.140
12126TIP3    H136321   6.114   2.191   1.095
12126TIP3    H236322   6.222   2.237   1.190
12127TIP3   OH236323   2.172   1.719   1.018
12127TIP3    H136324   2.264   1.712   0.994
12127TIP3    H236325   2.129   1.652   0.964
12128TIP3   OH236326   5.134   4.650   5.326
12128TIP3    H136327   5.191   4.606   5.262
12128TIP3    H236328   5.074   4.581   5.355
12129TIP3   OH236329   0.247   1.393   0.766
12129TIP3    H136330   0.240   1.487   0.782
12129TIP3    H236331   0.206   1.380   0.681
12130TIP3   OH236332   5.370   4.749   2.305
12130TIP3    H136333   5.444   4.690   2.315
12130TIP3    H236334   5.354   4.752   2.211
12131TIP3   OH236335   6.964   3.263   0.656
12131TIP3    H136336   6.946   3.185   0.602
12131TIP3    H236337   6.993   3.329   0.593
12132TIP3   OH236338   4.404   3.542   6.349
12132TIP3    H136339   4.387   3.636   6.355
12132TIP3    H236340   4.493   3.532   6.382
12133TIP3   OH236341   6.512   5.127   3.077
12133TIP3    H136342   6.465   5.052   3.114
12133TIP3    H236343   6.579   5.088   3.022
12134TIP3   OH236344   4.554   0.864   6.236
12134TIP3    H136345   4.466   0.827   6.227
12134TIP3    H236346   4.595   0.811   6.304
12135TIP3   OH236347   8.053   4.970   5.246
12135TIP3    H136348   8.053   4.876   5.263
12135TIP3    H236349   7.991   5.006   5.310
12136TIP3   OH236350   3.479   5.922   2.219
12136TIP3    H136351   3.451   5.983   2.287
12136TIP3    H236352   3.454   5.836   2.252
12137TIP3   OH236353   5.071   4.485   3.667
12137TIP3    H136354   4.985   4.495   3.628
12137TIP3    H236355   5.088   4.391   3.664
12138TIP3   OH236356   1.300   5.337   5.623
12138TIP3    H136357   1.232   5.344   5.556
12138TIP3    H236358   1.270   5.265   5.680
12139TIP3   OH236359   2.333   1.074   3.681
12139TIP3    H136360   2.399   1.054   3.747
12139TIP3    H236361   2.280   0.994   3.675
12140TIP3   OH236362   2.313   7.204   5.215
12140TIP3    H136363   2.319   7.115   5.181
12140TIP3    H236364   2.236   7.242   5.172
12141TIP3   OH236365   1.220   5.390   6.085
12141TIP3    H136366   1.308   5.426   6.083
12141TIP3    H236367   1.228   5.305   6.043
12142TIP3   OH236368   2.123   6.149   2.436
12142TIP3    H136369   2.054   6.183   2.378
12142TIP3    H236370   2.192   6.120   2.376
12143TIP3   OH236371   0.340   3.357   1.353
12143TIP3    H136372   0.277   3.327   1.419
12143TIP3    H236373   0.389   3.428   1.396
12144TIP3   OH236374   2.949   6.540   5.036
12144TIP3    H136375   2.984   6.487   4.965
12144TIP3    H236376   2.944   6.629   5.000
12145TIP3   OH236377   6.544   3.070   2.704
12145TIP3    H136378   6.524   3.147   2.650
12145TIP3    H236379   6.472   3.065   2.766
12146TIP3   OH236380   1.467   6.608   3.059
12146TIP3    H136381   1.385   6.601   3.010
12146TIP3    H236382   1.516   6.529   3.038
12147TIP3   OH236383   2.896   0.053   2.544
12147TIP3    H136384   2.947   0.007   2.478
12147TIP3    H236385   2.918   0.146   2.531
12148TIP3   OH236386   4.027   3.176   3.886
12148TIP3    H136387   4.099   3.148   3.943
12148TIP3    H236388   4.035   3.122   3.808
12149TIP3   OH236389   3.168   2.647   1.492
12149TIP3    H136390   3.165   2.742   1.486
12149TIP3    H236391   3.079   2.618   1.471
12150TIP3   OH236392   0.203   0.073   1.206
12150TIP3    H136393   0.115   0.037   1.202
12150TIP3    H236394   0.220   0.085   1.300
12151TIP3   OH236395   7.400   2.551   2.434
12151TIP3    H136396   7.417   2.550   2.340
12151TIP3    H236397   7.348   2.471   2.449
12152TIP3   OH236398   2.258   3.289   2.588
12152TIP3    H136399   2.176   3.242   2.607
12152TIP3    H236400   2.233   3.382   2.588
12153TIP3   OH236401   6.870   4.918   6.346
12153TIP3    H136402   6.960   4.939   6.322
12153TIP3    H236403   6.823   5.001   6.335
12154TIP3   OH236404   6.581   1.079   6.224
12154TIP3    H136405   6.618   1.135   6.156
12154TIP3    H236406   6.564   1.138   6.297
12155TIP3   OH236407   0.375   1.117   1.472
12155TIP3    H136408   0.365   1.098   1.565
12155TIP3    H236409   0.382   1.030   1.431
12156TIP3   OH236410   4.506   1.370   3.856
12156TIP3    H136411   4.472   1.449   3.813
12156TIP3    H236412   4.572   1.403   3.917
12157TIP3   OH236413   6.304   1.774   4.179
12157TIP3    H136414   6.342   1.801   4.262
12157TIP3    H236415   6.325   1.844   4.118
12158TIP3   OH236416   0.393   1.738   5.529
12158TIP3    H136417   0.406   1.646   5.552
12158TIP3    H236418   0.475   1.764   5.488
12159TIP3   OH236419   7.619   3.701   4.583
12159TIP3    H136420   7.528   3.679   4.563
12159TIP3    H236421   7.646   3.757   4.510
12160TIP3   OH236422   5.680   7.719   5.371
12160TIP3    H136423   5.770   7.721   5.338
12160TIP3    H236424   5.656   7.626   5.371
12161TIP3   OH236425   6.045   0.667   4.938
12161TIP3    H136426   5.951   0.655   4.951
12161TIP3    H236427   6.051   0.713   4.854
12162TIP3   OH236428   2.356   7.494   3.501
12162TIP3    H136429   2.406   7.555   3.555
12162TIP3    H236430   2.382   7.515   3.411
12163TIP3   OH236431   7.040   3.390   2.380
12163TIP3    H136432   7.124   3.351   2.359
12163TIP3    H236433   6.991   3.389   2.298
12164TIP3   OH236434   1.031   7.367   3.926
12164TIP3    H136435   1.085   7.441   3.953
12164TIP3    H236436   0.947   7.405   3.903
12165TIP3   OH236437   5.053   2.920   3.837
12165TIP3    H136438   5.118   2.940   3.904
12165TIP3    H236439   5.062   2.826   3.822
12166TIP3   OH236440   3.804   6.619   3.619
12166TIP3    H136441   3.856   6.688   3.659
12166TIP3    H236442   3.727   6.665   3.584
12167TIP3   OH236443   3.228   5.805   0.409
12167TIP3    H136444   3.300   5.865   0.427
12167TIP3    H236445   3.230   5.792   0.314
12168TIP3   OH236446   7.628   0.101   2.370
12168TIP3    H136447   7.606   0.036   2.436
12168TIP3    H236448   7.679   0.054   2.305
12169TIP3   OH236449   5.453   5.277   3.859
12169TIP3    H136450   5.476   5.187   3.835
12169TIP3    H236451   5.513   5.332   3.810
12170TIP3   OH236452   0.650   4.406   4.330
12170TIP3    H136453   0.605   4.489   4.313
12170TIP3    H236454   0.739   4.432   4.355
12171TIP3   OH236455   2.380   0.982   6.706
12171TIP3    H136456   2.373   1.061   6.651
12171TIP3    H236457   2.448   0.930   6.664
12172TIP3   OH236458   7.948   2.980   2.088
12172TIP3    H136459   7.887   2.912   2.118
12172TIP3    H236460   8.025   2.969   2.144
12173TIP3   OH236461   0.797   4.054   4.462
12173TIP3    H136462   0.764   3.968   4.436
12173TIP3    H236463   0.741   4.081   4.534
12174TIP3   OH236464   3.699   4.373   5.306
12174TIP3    H136465   3.728   4.411   5.223
12174TIP3    H236466   3.605   4.390   5.308
12175TIP3   OH236467   3.231   7.661   5.327
12175TIP3    H136468   3.269   7.694   5.409
12175TIP3    H236469   3.226   7.567   5.339
12176TIP3   OH236470   1.918   7.805   4.639
12176TIP3    H136471   1.829   7.831   4.665
12176TIP3    H236472   1.907   7.718   4.601
12177TIP3   OH236473   2.826   7.060   5.828
12177TIP3    H136474   2.734   7.032   5.826
12177TIP3    H236475   2.875   6.979   5.841
12178TIP3   OH236476   6.060   4.043   0.982
12178TIP3    H136477   6.060   3.964   1.037
12178TIP3    H236478   6.127   4.025   0.916
12179TIP3   OH236479   7.101   0.289   2.750
12179TIP3    H136480   7.151   0.225   2.800
12179TIP3    H236481   7.092   0.250   2.663
12180TIP3   OH236482   4.232   4.769   2.287
12180TIP3    H136483   4.316   4.801   2.320
12180TIP3    H236484   4.167   4.817   2.338
12181TIP3   OH236485   7.978   6.481   2.703
12181TIP3    H136486   8.027   6.434   2.771
12181TIP3    H236487   7.984   6.573   2.728
12182TIP3   OH236488   7.054   2.703   0.986
12182TIP3    H136489   7.030   2.743   1.070
12182TIP3    H236490   7.122   2.760   0.951
12183TIP3   OH236491   6.065   4.795   6.244
12183TIP3    H136492   5.974   4.769   6.239
12183TIP3    H236493   6.079   4.850   6.166
12184TIP3   OH236494   5.923   3.716   3.615
12184TIP3    H136495   5.980   3.641   3.600
12184TIP3    H236496   5.984   3.788   3.634
12185TIP3   OH236497   0.745   0.833   3.892
12185TIP3    H136498   0.735   0.876   3.977
12185TIP3    H236499   0.822   0.874   3.852
12186TIP3   OH236500   4.692   0.418   0.148
12186TIP3    H136501   4.670   0.326   0.162
12186TIP3    H236502   4.659   0.463   0.226
12187TIP3   OH236503   0.869   1.862   1.027
12187TIP3    H136504   0.787   1.825   1.062
12187TIP3    H236505   0.849   1.954   1.012
12188TIP3   OH236506   4.193   5.049   3.475
12188TIP3    H136507   4.197   5.058   3.570
12188TIP3    H236508   4.243   4.970   3.456
12189TIP3   OH236509   6.094   7.640   1.360
12189TIP3    H136510   6.156   7.657   1.431
12189TIP3    H236511   6.037   7.717   1.359
12190TIP3   OH236512   5.808   6.948   1.939
12190TIP3    H136513   5.804   7.044   1.944
12190TIP3    H236514   5.727   6.919   1.981
12191TIP3   OH236515   2.451   5.149   5.954
12191TIP3    H136516   2.530   5.140   6.007
12191TIP3    H236517   2.424   5.059   5.935
12192TIP3   OH236518   7.280   1.029   5.455
12192TIP3    H136519   7.211   1.073   5.407
12192TIP3    H236520   7.284   0.941   5.417
12193TIP3   OH236521   6.818   1.248   4.688
12193TIP3    H136522   6.784   1.298   4.762
12193TIP3    H236523   6.909   1.277   4.679
12194TIP3   OH236524   0.119   5.478   4.569
12194TIP3    H136525   0.211   5.453   4.580
12194TIP3    H236526   0.074   5.395   4.551
12195TIP3   OH236527   6.855   4.533   0.333
12195TIP3    H136528   6.805   4.487   0.401
12195TIP3    H236529   6.944   4.534   0.366
12196TIP3   OH236530   7.239   6.116   6.134
12196TIP3    H136531   7.243   6.079   6.045
12196TIP3    H236532   7.191   6.198   6.123
12197TIP3   OH236533   0.607   7.783   6.287
12197TIP3    H136534   0.655   7.799   6.206
12197TIP3    H236535   0.591   7.689   6.287
12198TIP3   OH236536   8.186   2.816   4.999
12198TIP3    H136537   8.094   2.813   5.025
12198TIP3    H236538   8.223   2.735   5.034
12199TIP3   OH236539   3.381   3.550   4.237
12199TIP3    H136540   3.337   3.518   4.158
12199TIP3    H236541   3.329   3.516   4.309
12200TIP3   OH236542   5.064   6.820   3.251
12200TIP3    H136543   5.046   6.839   3.158
12200TIP3    H236544   4.979   6.833   3.294
12201TIP3   OH236545   2.238   1.446   3.534
12201TIP3    H136546   2.173   1.388   3.574
12201TIP3    H236547   2.319   1.428   3.582
12202TIP3   OH236548   2.950   1.438   2.289
12202TIP3    H136549   3.043   1.455   2.272
12202TIP3    H236550   2.914   1.524   2.313
12203TIP3   OH236551   6.738   3.787   2.999
12203TIP3    H136552   6.709   3.717   2.941
12203TIP3    H236553   6.824   3.813   2.964
12204TIP3   OH236554   5.813   2.652   3.222
12204TIP3    H136555   5.738   2.712   3.224
12204TIP3    H236556   5.889   2.709   3.236
12205TIP3   OH236557   0.773   3.594   2.683
12205TIP3    H136558   0.749   3.563   2.595
12205TIP3    H236559   0.839   3.532   2.713
12206TIP3   OH236560   1.997   3.467   6.380
12206TIP3    H136561   1.938   3.392   6.383
12206TIP3    H236562   2.043   3.466   6.465
12207TIP3   OH236563   4.591   0.504   6.739
12207TIP3    H136564   4.534   0.479   6.666
12207TIP3    H236565   4.662   0.554   6.699
12208TIP3   OH236566   5.712   4.974   0.968
12208TIP3    H136567   5.701   4.887   1.006
12208TIP3    H236568   5.630   4.991   0.921
12209TIP3   OH236569   6.027   0.098   0.037
12209TIP3    H136570   6.004   0.008   0.057
12209TIP3    H236571   5.951   0.132  -0.010
12210TIP3   OH236572   3.693   5.740   6.333
12210TIP3    H136573   3.607   5.761   6.296
12210TIP3    H236574   3.728   5.673   6.274
12211TIP3   OH236575   3.128   6.006   0.138
12211TIP3    H136576   3.128   5.911   0.130
12211TIP3    H236577   3.197   6.036   0.079
12212TIP3   OH236578   0.636   0.202   3.161
12212TIP3    H136579   0.659   0.217   3.253
12212TIP3    H236580   0.573   0.130   3.163
12213TIP3   OH236581   6.855   0.016   6.111
12213TIP3    H136582   6.926   0.079   6.103
12213TIP3    H236583   6.835  -0.010   6.021
12214TIP3   OH236584   3.825   6.808   4.899
12214TIP3    H136585   3.786   6.834   4.815
12214TIP3    H236586   3.806   6.881   4.957
12215TIP3   OH236587   4.059   6.449   4.333
12215TIP3    H136588   4.029   6.469   4.421
12215TIP3    H236589   4.144   6.492   4.325
12216TIP3   OH236590   1.990   5.671   1.860
12216TIP3    H136591   1.974   5.615   1.784
12216TIP3    H236592   1.913   5.726   1.866
12217TIP3   OH236593   0.648   7.541   4.135
12217TIP3    H136594   0.569   7.591   4.116
12217TIP3    H236595   0.720   7.598   4.109
12218TIP3   OH236596   7.335   3.440   6.612
12218TIP3    H136597   7.329   3.472   6.522
12218TIP3    H236598   7.416   3.391   6.614
12219TIP3   OH236599   0.309   2.634   6.515
12219TIP3    H136600   0.260   2.552   6.518
12219TIP3    H236601   0.339   2.640   6.424
12220TIP3   OH236602   6.874   7.519   0.091
12220TIP3    H136603   6.785   7.496   0.119
12220TIP3    H236604   6.896   7.453   0.025
12221TIP3   OH236605   5.600   3.556   1.293
12221TIP3    H136606   5.580   3.574   1.201
12221TIP3    H236607   5.573   3.465   1.306
12222TIP3   OH236608   5.244   2.789   3.631
12222TIP3    H136609   5.162   2.740   3.635
12222TIP3    H236610   5.295   2.757   3.706
12223TIP3   OH236611   1.513   2.405   0.042
12223TIP3    H136612   1.529   2.415  -0.052
12223TIP3    H236613   1.548   2.319   0.063
12224TIP3   OH236614   4.983   6.280   2.305
12224TIP3    H136615   4.957   6.214   2.241
12224TIP3    H236616   5.027   6.230   2.374
12225TIP3   OH236617   5.523   2.311   6.755
12225TIP3    H136618   5.533   2.355   6.840
12225TIP3    H236619   5.598   2.342   6.704
12226TIP3   OH236620   0.727   5.880   0.692
12226TIP3    H136621   0.642   5.882   0.647
12226TIP3    H236622   0.733   5.791   0.727
12227TIP3   OH236623   0.428   1.473   5.551
12227TIP3    H136624   0.502   1.426   5.589
12227TIP3    H236625   0.384   1.409   5.496
12228TIP3   OH236626   0.325   6.289   2.374
12228TIP3    H136627   0.231   6.270   2.375
12228TIP3    H236628   0.354   6.270   2.464
12229TIP3   OH236629   0.796   2.811   3.874
12229TIP3    H136630   0.799   2.904   3.899
12229TIP3    H236631   0.884   2.791   3.845
12230TIP3   OH236632   7.208   7.301   0.320
12230TIP3    H136633   7.148   7.375   0.334
12230TIP3    H236634   7.186   7.269   0.232
12231TIP3   OH236635   2.905   7.655   6.677
12231TIP3    H136636   2.948   7.644   6.761
12231TIP3    H236637   2.880   7.566   6.651
12232TIP3   OH236638   4.727   4.156   0.523
12232TIP3    H136639   4.787   4.226   0.549
12232TIP3    H236640   4.664   4.200   0.465
12233TIP3   OH236641   8.175   3.838   3.409
12233TIP3    H136642   8.147   3.764   3.356
12233TIP3    H236643   8.196   3.799   3.494
12234TIP3   OH236644   2.078   1.242   5.829
12234TIP3    H136645   2.102   1.158   5.869
12234TIP3    H236646   2.074   1.304   5.902
12235TIP3   OH236647   4.406   6.765   6.040
12235TIP3    H136648   4.458   6.801   6.112
12235TIP3    H236649   4.457   6.783   5.961
12236TIP3   OH236650   7.176   5.645   0.155
12236TIP3    H136651   7.189   5.697   0.234
12236TIP3    H236652   7.261   5.603   0.140
12237TIP3   OH236653   7.524   2.910   0.913
12237TIP3    H136654   7.497   2.985   0.966
12237TIP3    H236655   7.605   2.938   0.871
12238TIP3   OH236656   6.535   7.774   2.504
12238TIP3    H136657   6.616   7.815   2.536
12238TIP3    H236658   6.562   7.727   2.425
12239TIP3   OH236659   4.255   5.047   1.804
12239TIP3    H136660   4.212   5.035   1.889
12239TIP3    H236661   4.344   5.015   1.817
12240TIP3   OH236662   1.549   1.386   0.080
12240TIP3    H136663   1.529   1.350  -0.007
12240TIP3    H236664   1.475   1.443   0.100
12241TIP3   OH236665   7.914   4.387   3.189
12241TIP3    H136666   7.846   4.334   3.231
12241TIP3    H236667   7.987   4.385   3.251
12242TIP3   OH236668   7.816   0.551   4.862
12242TIP3    H136669   7.771   0.470   4.837
12242TIP3    H236670   7.775   0.577   4.944
12243TIP3   OH236671   6.928   1.374   4.052
12243TIP3    H136672   6.982   1.338   4.123
12243TIP3    H236673   6.953   1.323   3.975
12244TIP3   OH236674   7.526   5.158   3.944
12244TIP3    H136675   7.620   5.151   3.930
12244TIP3    H236676   7.488   5.084   3.897
12245TIP3   OH236677   1.394   7.435   5.986
12245TIP3    H136678   1.458   7.371   6.016
12245TIP3    H236679   1.386   7.419   5.892
12246TIP3   OH236680   7.109   2.725   2.773
12246TIP3    H136681   7.172   2.742   2.704
12246TIP3    H236682   7.141   2.774   2.849
12247TIP3   OH236683   7.075   0.769   0.280
12247TIP3    H136684   7.047   0.809   0.198
12247TIP3    H236685   7.008   0.702   0.298
12248TIP3   OH236686   0.464   7.516   0.208
12248TIP3    H136687   0.397   7.517   0.140
12248TIP3    H236688   0.538   7.564   0.170
12249TIP3   OH236689   6.499   3.563   2.921
12249TIP3    H136690   6.408   3.587   2.908
12249TIP3    H236691   6.535   3.556   2.832
12250TIP3   OH236692   4.949   5.799   5.775
12250TIP3    H136693   5.009   5.731   5.745
12250TIP3    H236694   4.953   5.794   5.871
12251TIP3   OH236695   2.872   2.266   5.310
12251TIP3    H136696   2.953   2.317   5.314
12251TIP3    H236697   2.803   2.327   5.337
12252TIP3   OH236698   8.082   3.722   0.746
12252TIP3    H136699   8.142   3.650   0.727
12252TIP3    H236700   8.140   3.795   0.768
12253TIP3   OH236701   1.511   7.522   0.326
12253TIP3    H136702   1.549   7.436   0.310
12253TIP3    H236703   1.526   7.571   0.245
12254TIP3   OH236704   5.656   0.217   5.464
12254TIP3    H136705   5.605   0.279   5.412
12254TIP3    H236706   5.676   0.145   5.405
12255TIP3   OH236707   6.879   5.472   0.594
12255TIP3    H136708   6.922   5.453   0.678
12255TIP3    H236709   6.786   5.478   0.615
12256TIP3   OH236710   6.826   4.337   1.649
12256TIP3    H136711   6.776   4.257   1.630
12256TIP3    H236712   6.819   4.389   1.570
12257TIP3   OH236713   7.927   6.651   0.979
12257TIP3    H136714   7.835   6.627   0.983
12257TIP3    H236715   7.944   6.668   0.887
12258TIP3   OH236716   7.844   4.793   2.037
12258TIP3    H136717   7.751   4.779   2.054
12258TIP3    H236718   7.848   4.822   1.946
12259TIP3   OH236719   4.425   0.304   1.210
12259TIP3    H136720   4.455   0.215   1.192
12259TIP3    H236721   4.461   0.357   1.139
12260TIP3   OH236722   6.610   3.961   1.214
12260TIP3    H136723   6.667   4.034   1.191
12260TIP3    H236724   6.654   3.884   1.177
12261TIP3   OH236725   6.155   0.386   4.913
12261TIP3    H136726   6.211   0.367   4.838
12261TIP3    H236727   6.156   0.481   4.920
12262TIP3   OH236728   5.667   0.314   3.497
12262TIP3    H136729   5.717   0.243   3.456
12262TIP3    H236730   5.686   0.305   3.590
12263TIP3   OH236731   6.986   6.942   2.154
12263TIP3    H136732   6.999   7.034   2.177
12263TIP3    H236733   6.976   6.898   2.238
12264TIP3   OH236734   4.519   6.928   5.548
12264TIP3    H136735   4.464   6.982   5.492
12264TIP3    H236736   4.594   6.983   5.570
12265TIP3   OH236737   7.823   7.635   2.169
12265TIP3    H136738   7.870   7.554   2.148
12265TIP3    H236739   7.872   7.673   2.242
12266TIP3   OH236740   3.317   0.319   1.158
12266TIP3    H136741   3.341   0.409   1.134
12266TIP3    H236742   3.223   0.314   1.142
12267TIP3   OH236743   7.208   6.373   1.758
12267TIP3    H136744   7.244   6.303   1.812
12267TIP3    H236745   7.155   6.424   1.819
12268TIP3   OH236746   3.563   5.990   6.668
12268TIP3    H136747   3.524   5.905   6.685
12268TIP3    H236748   3.646   5.971   6.624
12269TIP3   OH236749   7.651   5.028   6.730
12269TIP3    H136750   7.572   5.069   6.766
12269TIP3    H236751   7.664   4.951   6.785
12270TIP3   OH236752   2.103   1.516   3.875
12270TIP3    H136753   2.014   1.484   3.864
12270TIP3    H236754   2.093   1.607   3.904
12271TIP3   OH236755   2.925   0.755   6.132
12271TIP3    H136756   2.857   0.703   6.175
12271TIP3    H236757   3.007   0.727   6.174
12272TIP3   OH236758   6.363   6.375   5.775
12272TIP3    H136759   6.292   6.431   5.807
12272TIP3    H236760   6.360   6.298   5.832
12273TIP3   OH236761   6.237   6.708   2.349
12273TIP3    H136762   6.151   6.731   2.383
12273TIP3    H236763   6.291   6.786   2.364
12274TIP3   OH236764   1.664   2.397   2.204
12274TIP3    H136765   1.640   2.485   2.173
12274TIP3    H236766   1.600   2.377   2.271
12275TIP3   OH236767   7.423   2.477   5.726
12275TIP3    H136768   7.417   2.546   5.659
12275TIP3    H236769   7.373   2.404   5.689
12276TIP3   OH236770   4.110   2.235   1.385
12276TIP3    H136771   4.064   2.188   1.316
12276TIP3    H236772   4.072   2.201   1.466
12277TIP3   OH236773   3.687   7.773   4.006
12277TIP3    H136774   3.606   7.820   3.991
12277TIP3    H236775   3.698   7.717   3.929
12278TIP3   OH236776   2.459   2.396   0.703
12278TIP3    H136777   2.542   2.391   0.655
12278TIP3    H236778   2.463   2.480   0.748
12279TIP3   OH236779   5.684   1.756   2.695
12279TIP3    H136780   5.629   1.708   2.633
12279TIP3    H236781   5.681   1.847   2.664
12280TIP3   OH236782   3.709   0.753   4.032
12280TIP3    H136783   3.759   0.678   4.065
12280TIP3    H236784   3.739   0.764   3.942
12281TIP3   OH236785   0.906   3.609   0.701
12281TIP3    H136786   0.950   3.581   0.781
12281TIP3    H236787   0.975   3.646   0.646
12282TIP3   OH236788   6.881   1.653   3.414
12282TIP3    H136789   6.891   1.597   3.492
12282TIP3    H236790   6.804   1.707   3.434
12283TIP3   OH236791   5.188   0.731   6.299
12283TIP3    H136792   5.246   0.656   6.310
12283TIP3    H236793   5.225   0.780   6.226
12284TIP3   OH236794   2.272   0.278   5.799
12284TIP3    H136795   2.340   0.226   5.757
12284TIP3    H236796   2.190   0.238   5.771
12285TIP3   OH236797   7.950   1.052   4.711
12285TIP3    H136798   7.972   1.029   4.801
12285TIP3    H236799   7.869   1.006   4.693
12286TIP3   OH236800   4.368   4.727   6.194
12286TIP3    H136801   4.446   4.676   6.174
12286TIP3    H236802   4.306   4.706   6.124
12287TIP3   OH236803   4.725   5.143   3.496
12287TIP3    H136804   4.645   5.164   3.545
12287TIP3    H236805   4.694   5.119   3.409
12288TIP3   OH236806   6.864   1.396   3.248
12288TIP3    H136807   6.800   1.326   3.237
12288TIP3    H236808   6.822   1.458   3.308
12289TIP3   OH236809   2.974   1.247   1.581
12289TIP3    H136810   2.917   1.323   1.565
12289TIP3    H236811   3.055   1.285   1.615
12290TIP3   OH236812   5.817   5.539   6.461
12290TIP3    H136813   5.901   5.526   6.417
12290TIP3    H236814   5.753   5.502   6.401
12291TIP3   OH236815   5.765   2.903   6.206
12291TIP3    H136816   5.696   2.859   6.156
12291TIP3    H236817   5.742   2.886   6.297
12292TIP3   OH236818   5.571   6.625   5.733
12292TIP3    H136819   5.601   6.706   5.774
12292TIP3    H236820   5.510   6.654   5.665
12293TIP3   OH236821   6.760   4.481   0.050
12293TIP3    H136822   6.818   4.454   0.121
12293TIP3    H236823   6.689   4.417   0.051
12294TIP3   OH236824   3.587   1.706   3.554
12294TIP3    H136825   3.675   1.686   3.589
12294TIP3    H236826   3.528   1.684   3.626
12295TIP3   OH236827   1.525   7.695   5.614
12295TIP3    H136828   1.439   7.736   5.623
12295TIP3    H236829   1.509   7.602   5.630
12296TIP3   OH236830   2.978   0.258   0.655
12296TIP3    H136831   2.991   0.264   0.561
12296TIP3    H236832   2.966   0.348   0.684
12297TIP3   OH236833   8.017   3.933   2.195
12297TIP3    H136834   7.975   4.014   2.166
12297TIP3    H236835   8.000   3.930   2.290
12298TIP3   OH236836   1.700   6.241   6.629
12298TIP3    H136837   1.683   6.233   6.722
12298TIP3    H236838   1.786   6.200   6.616
12299TIP3   OH236839   2.705   6.226   5.395
12299TIP3    H136840   2.635   6.291   5.400
12299TIP3    H236841   2.758   6.242   5.473
12300TIP3   OH236842   7.682   1.710   3.119
12300TIP3    H136843   7.714   1.795   3.087
12300TIP3    H236844   7.605   1.732   3.172
12301TIP3   OH236845   2.317   6.036   1.374
12301TIP3    H136846   2.257   6.024   1.447
12301TIP3    H236847   2.400   5.998   1.403
12302TIP3   OH236848   0.364   5.927   4.769
12302TIP3    H136849   0.423   5.952   4.840
12302TIP3    H236850   0.412   5.860   4.721
12303TIP3   OH236851   2.400   3.491   3.439
12303TIP3    H136852   2.318   3.452   3.468
12303TIP3    H236853   2.403   3.577   3.482
12304TIP3   OH236854   2.411   4.047   5.586
12304TIP3    H136855   2.426   4.118   5.648
12304TIP3    H236856   2.356   3.985   5.634
12305TIP3   OH236857   0.131   1.405   4.454
12305TIP3    H136858   0.056   1.348   4.473
12305TIP3    H236859   0.206   1.346   4.452
12306TIP3   OH236860   3.538   1.426   3.787
12306TIP3    H136861   3.485   1.421   3.707
12306TIP3    H236862   3.501   1.360   3.845
12307TIP3   OH236863   8.147   7.015   4.070
12307TIP3    H136864   8.105   6.958   4.005
12307TIP3    H236865   8.145   6.964   4.151
12308TIP3   OH236866   1.114   5.616   4.569
12308TIP3    H136867   1.195   5.565   4.574
12308TIP3    H236868   1.100   5.647   4.658
12309TIP3   OH236869   0.264   7.041   2.096
12309TIP3    H136870   0.262   6.978   2.168
12309TIP3    H236871   0.177   7.035   2.057
12310TIP3   OH236872   7.794   1.464   2.642
12310TIP3    H136873   7.798   1.400   2.714
12310TIP3    H236874   7.784   1.410   2.563
12311TIP3   OH236875   3.248   3.490   3.806
12311TIP3    H136876   3.216   3.566   3.856
12311TIP3    H236877   3.342   3.505   3.796
12312TIP3   OH236878   6.107   3.858   6.080
12312TIP3    H136879   6.175   3.809   6.127
12312TIP3    H236880   6.156   3.914   6.020
12313TIP3   OH236881   3.584   2.290   1.514
12313TIP3    H136882   3.530   2.247   1.580
12313TIP3    H236883   3.522   2.344   1.465
12314TIP3   OH236884   0.709   0.146   0.678
12314TIP3    H136885   0.713   0.060   0.635
12314TIP3    H236886   0.641   0.136   0.744
12315TIP3   OH236887   0.658   2.368   6.199
12315TIP3    H136888   0.597   2.317   6.252
12315TIP3    H236889   0.668   2.317   6.119
12316TIP3   OH236890   6.591   2.040   4.117
12316TIP3    H136891   6.607   1.946   4.106
12316TIP3    H236892   6.498   2.050   4.100
12317TIP3   OH236893   0.795   0.473   3.936
12317TIP3    H136894   0.826   0.561   3.913
12317TIP3    H236895   0.753   0.484   4.021
12318TIP3   OH236896   6.485   4.479   2.433
12318TIP3    H136897   6.488   4.572   2.410
12318TIP3    H236898   6.453   4.435   2.354
12319TIP3   OH236899   6.622   2.405   6.288
12319TIP3    H136900   6.564   2.472   6.325
12319TIP3    H236901   6.704   2.414   6.336
12320TIP3   OH236902   1.550   1.882   4.535
12320TIP3    H136903   1.590   1.946   4.594
12320TIP3    H236904   1.621   1.858   4.475
12321TIP3   OH236905   0.838   4.949   3.674
12321TIP3    H136906   0.904   4.907   3.619
12321TIP3    H236907   0.760   4.952   3.620
12322TIP3   OH236908   1.474   4.510   1.134
12322TIP3    H136909   1.409   4.577   1.154
12322TIP3    H236910   1.423   4.434   1.107
12323TIP3   OH236911   3.172   2.197   0.034
12323TIP3    H136912   3.155   2.112  -0.005
12323TIP3    H236913   3.093   2.216   0.086
12324TIP3   OH236914   2.349   4.837   5.416
12324TIP3    H136915   2.352   4.785   5.496
12324TIP3    H236916   2.340   4.927   5.445
12325TIP3   OH236917   6.720   1.477   6.253
12325TIP3    H136918   6.717   1.572   6.237
12325TIP3    H236919   6.635   1.445   6.225
12326TIP3   OH236920   4.808   3.355   4.954
12326TIP3    H136921   4.816   3.357   5.049
12326TIP3    H236922   4.893   3.325   4.922
12327TIP3   OH236923   1.283   3.759   0.321
12327TIP3    H136924   1.314   3.817   0.391
12327TIP3    H236925   1.189   3.777   0.315
12328TIP3   OH236926   6.762   4.503   1.883
12328TIP3    H136927   6.731   4.435   1.942
12328TIP3    H236928   6.784   4.457   1.802
12329TIP3   OH236929   7.397   1.050   1.607
12329TIP3    H136930   7.469   1.050   1.670
12329TIP3    H236931   7.321   1.019   1.656
12330TIP3   OH236932   3.079   7.741   3.738
12330TIP3    H136933   3.140   7.815   3.730
12330TIP3    H236934   3.029   7.742   3.656
12331TIP3   OH236935   1.102   4.657   4.320
12331TIP3    H136936   1.138   4.599   4.252
12331TIP3    H236937   1.026   4.610   4.354
12332TIP3   OH236938   3.640   1.089   5.302
12332TIP3    H136939   3.670   1.001   5.281
12332TIP3    H236940   3.719   1.143   5.302
12333TIP3   OH236941   5.314   5.016   0.162
12333TIP3    H136942   5.274   5.063   0.089
12333TIP3    H236943   5.319   4.925   0.132
12334TIP3   OH236944   0.510   3.546   2.617
12334TIP3    H136945   0.576   3.600   2.661
12334TIP3    H236946   0.458   3.609   2.567
12335TIP3   OH236947   3.506   6.123   4.469
12335TIP3    H136948   3.433   6.184   4.482
12335TIP3    H236949   3.479   6.044   4.516
12336TIP3   OH236950   0.287   4.574   5.674
12336TIP3    H136951   0.296   4.486   5.639
12336TIP3    H236952   0.376   4.608   5.677
12337TIP3   OH236953   0.509   5.607   3.018
12337TIP3    H136954   0.573   5.539   3.037
12337TIP3    H236955   0.561   5.681   2.986
12338TIP3   OH236956   3.502   2.009   2.797
12338TIP3    H136957   3.425   1.952   2.805
12338TIP3    H236958   3.465   2.097   2.792
12339TIP3   OH236959   4.005   7.104   1.790
12339TIP3    H136960   4.095   7.109   1.757
12339TIP3    H236961   3.986   7.193   1.820
12340TIP3   OH236962   4.531   0.142   5.855
12340TIP3    H136963   4.492   0.184   5.932
12340TIP3    H236964   4.513   0.049   5.866
12341TIP3   OH236965   5.903   1.139   2.259
12341TIP3    H136966   5.924   1.155   2.167
12341TIP3    H236967   5.973   1.182   2.307
12342TIP3   OH236968   3.247   6.007   2.882
12342TIP3    H136969   3.175   5.962   2.836
12342TIP3    H236970   3.326   5.979   2.836
12343TIP3   OH236971   1.531   3.977   2.919
12343TIP3    H136972   1.514   3.937   3.004
12343TIP3    H236973   1.447   3.978   2.875
12344TIP3   OH236974   5.607   0.505   0.003
12344TIP3    H136975   5.638   0.560  -0.068
12344TIP3    H236976   5.663   0.526   0.077
12345TIP3   OH236977   2.125   4.199   3.420
12345TIP3    H136978   2.214   4.163   3.422
12345TIP3    H236979   2.070   4.124   3.398
12346TIP3   OH236980   6.634   3.589   2.634
12346TIP3    H136981   6.725   3.583   2.606
12346TIP3    H236982   6.583   3.571   2.555
12347TIP3   OH236983   2.287   4.930   0.270
12347TIP3    H136984   2.310   4.959   0.182
12347TIP3    H236985   2.248   5.007   0.311
12348TIP3   OH236986   6.813   7.122   0.950
12348TIP3    H136987   6.855   7.097   1.033
12348TIP3    H236988   6.882   7.168   0.902
12349TIP3   OH236989   4.000   1.429   0.122
12349TIP3    H136990   4.088   1.443   0.158
12349TIP3    H236991   4.012   1.357   0.059
12350TIP3   OH236992   7.138   2.206   6.701
12350TIP3    H136993   7.143   2.162   6.786
12350TIP3    H236994   7.053   2.181   6.666
12351TIP3   OH236995   1.853   0.924   4.447
12351TIP3    H136996   1.866   0.868   4.371
12351TIP3    H236997   1.854   1.013   4.413
12352TIP3   OH236998   6.701   4.614   4.004
12352TIP3    H136999   6.696   4.630   4.098
12352TIP3    H237000   6.733   4.524   3.996
12353TIP3   OH237001   4.600   5.125   1.681
12353TIP3    H137002   4.631   5.215   1.668
12353TIP3    H237003   4.524   5.117   1.624
12354TIP3   OH237004   4.806   3.919   2.495
12354TIP3    H137005   4.773   3.978   2.562
12354TIP3    H237006   4.809   3.833   2.537
12355TIP3   OH237007   1.090   7.668   2.750
12355TIP3    H137008   1.111   7.722   2.826
12355TIP3    H237009   1.165   7.677   2.692
12356TIP3   OH237010   8.169   0.578   5.395
12356TIP3    H137011   8.091   0.624   5.426
12356TIP3    H237012   8.240   0.641   5.404
12357TIP3   OH237013   3.641   4.504   6.112
12357TIP3    H137014   3.658   4.482   6.204
12357TIP3    H237015   3.671   4.428   6.063
12358TIP3   OH237016   5.225   2.811   5.346
12358TIP3    H137017   5.267   2.730   5.375
12358TIP3    H237018   5.284   2.880   5.375
12359TIP3   OH237019   1.102   6.909   2.833
12359TIP3    H137020   1.155   6.946   2.903
12359TIP3    H237021   1.057   6.985   2.795
12360TIP3   OH237022   3.014   6.858   4.684
12360TIP3    H137023   3.060   6.928   4.637
12360TIP3    H237024   2.974   6.805   4.615
12361TIP3   OH237025   4.543   2.378   6.303
12361TIP3    H137026   4.485   2.423   6.364
12361TIP3    H237027   4.515   2.407   6.216
12362TIP3   OH237028   5.681   5.240   2.030
12362TIP3    H137029   5.772   5.214   2.012
12362TIP3    H237030   5.657   5.296   1.956
12363TIP3   OH237031   5.510   4.734   3.473
12363TIP3    H137032   5.497   4.655   3.421
12363TIP3    H237033   5.578   4.783   3.427
12364TIP3   OH237034   0.372   2.157   6.521
12364TIP3    H137035   0.443   2.219   6.506
12364TIP3    H237036   0.356   2.116   6.436
12365TIP3   OH237037   1.052   4.091   5.944
12365TIP3    H137038   1.000   4.012   5.962
12365TIP3    H237039   1.138   4.071   5.980
12366TIP3   OH237040   6.887   5.049   3.443
12366TIP3    H137041   6.874   4.954   3.439
12366TIP3    H237042   6.967   5.064   3.393
12367TIP3   OH237043   7.867   4.752   4.057
12367TIP3    H137044   7.927   4.739   4.130
12367TIP3    H237045   7.912   4.712   3.982
12368TIP3   OH237046   4.475   4.831   2.404
12368TIP3    H137047   4.444   4.754   2.452
12368TIP3    H237048   4.539   4.872   2.463
12369TIP3   OH237049   7.755   5.804   5.521
12369TIP3    H137050   7.693   5.809   5.594
12369TIP3    H237051   7.701   5.819   5.443
12370TIP3   OH237052   1.087   1.605   5.345
12370TIP3    H137053   1.133   1.563   5.417
12370TIP3    H237054   1.095   1.699   5.363
12371TIP3   OH237055   0.009   7.553   5.470
12371TIP3    H137056   0.098   7.567   5.436
12371TIP3    H237057  -0.015   7.637   5.509
12372TIP3   OH237058   3.413   5.951   5.565
12372TIP3    H137059   3.469   6.023   5.534
12372TIP3    H237060   3.448   5.873   5.522
12373TIP3   OH237061   6.931   6.773   5.316
12373TIP3    H137062   6.918   6.682   5.288
12373TIP3    H237063   6.883   6.780   5.398
12374TIP3   OH237064   4.934   5.600   4.294
12374TIP3    H137065   4.982   5.636   4.219
12374TIP3    H237066   4.901   5.676   4.341
12375TIP3   OH237067   5.360   3.434   3.197
12375TIP3    H137068   5.412   3.401   3.270
12375TIP3    H237069   5.298   3.495   3.236
12376TIP3   OH237070   1.306   2.961   0.042
12376TIP3    H137071   1.348   2.941  -0.042
12376TIP3    H237072   1.264   3.046   0.029
12377TIP3   OH237073   6.407   7.006   5.640
12377TIP3    H137074   6.405   6.963   5.726
12377TIP3    H237075   6.315   7.024   5.620
12378TIP3   OH237076   6.981   1.855   4.253
12378TIP3    H137077   7.067   1.889   4.231
12378TIP3    H237078   6.955   1.804   4.176
12379TIP3   OH237079   1.047   7.022   5.774
12379TIP3    H137080   1.006   7.070   5.702
12379TIP3    H237081   1.078   6.940   5.733
12380TIP3   OH237082   2.949   5.349   5.092
12380TIP3    H137083   2.902   5.281   5.044
12380TIP3    H237084   2.896   5.364   5.171
12381TIP3   OH237085   7.674   6.653   5.578
12381TIP3    H137086   7.660   6.721   5.512
12381TIP3    H237087   7.768   6.655   5.595
12382TIP3   OH237088   4.216   4.817   1.351
12382TIP3    H137089   4.284   4.870   1.392
12382TIP3    H237090   4.197   4.748   1.415
12383TIP3   OH237091   4.776   2.234   1.885
12383TIP3    H137092   4.759   2.327   1.869
12383TIP3    H237093   4.871   2.225   1.876
12384TIP3   OH237094   0.878   4.182   5.061
12384TIP3    H137095   0.874   4.166   4.967
12384TIP3    H237096   0.966   4.152   5.086
12385TIP3   OH237097   2.434   5.762   5.111
12385TIP3    H137098   2.354   5.758   5.059
12385TIP3    H237099   2.412   5.819   5.185
12386TIP3   OH237100   3.425   1.516   0.749
12386TIP3    H137101   3.461   1.601   0.771
12386TIP3    H237102   3.424   1.468   0.831
12387TIP3   OH237103   5.297   0.935   6.703
12387TIP3    H137104   5.214   0.930   6.655
12387TIP3    H237105   5.272   0.940   6.795
12388TIP3   OH237106   3.843   1.737   5.861
12388TIP3    H137107   3.866   1.830   5.857
12388TIP3    H237108   3.749   1.736   5.877
12389TIP3   OH237109   0.807   6.386   5.972
12389TIP3    H137110   0.772   6.298   5.968
12389TIP3    H237111   0.769   6.424   6.052
12390TIP3   OH237112   5.994   7.171   4.605
12390TIP3    H137113   5.978   7.204   4.517
12390TIP3    H237114   6.005   7.076   4.593
12391TIP3   OH237115   4.713   2.530   3.040
12391TIP3    H137116   4.738   2.622   3.030
12391TIP3    H237117   4.742   2.507   3.129
12392TIP3   OH237118   1.080   4.238   1.270
12392TIP3    H137119   1.151   4.181   1.300
12392TIP3    H237120   1.030   4.258   1.349
12393TIP3   OH237121   2.434   6.619   1.182
12393TIP3    H137122   2.395   6.656   1.260
12393TIP3    H237123   2.438   6.525   1.199
12394TIP3   OH237124   1.412   1.844   3.277
12394TIP3    H137125   1.495   1.891   3.288
12394TIP3    H237126   1.374   1.882   3.198
12395TIP3   OH237127   8.266   1.243   5.313
12395TIP3    H137128   8.265   1.243   5.218
12395TIP3    H237129   8.189   1.193   5.338
12396TIP3   OH237130   8.174   0.133   4.260
12396TIP3    H137131   8.138   0.197   4.199
12396TIP3    H237132   8.245   0.091   4.211
12397TIP3   OH237133   7.490   2.127   2.005
12397TIP3    H137134   7.481   2.089   1.918
12397TIP3    H237135   7.498   2.222   1.990
12398TIP3   OH237136   5.567   6.755   6.246
12398TIP3    H137137   5.615   6.710   6.316
12398TIP3    H237138   5.502   6.808   6.292
12399TIP3   OH237139   2.823   5.305   0.912
12399TIP3    H137140   2.899   5.248   0.927
12399TIP3    H237141   2.825   5.368   0.983
12400TIP3   OH237142   4.342   2.664   3.009
12400TIP3    H137143   4.317   2.619   2.929
12400TIP3    H237144   4.368   2.594   3.069
12401TIP3   OH237145   0.690   5.398   1.764
12401TIP3    H137146   0.676   5.417   1.671
12401TIP3    H237147   0.637   5.464   1.810
12402TIP3   OH237148   3.732   7.122   5.007
12402TIP3    H137149   3.702   7.204   4.968
12402TIP3    H237150   3.653   7.069   5.015
12403TIP3   OH237151   2.948   7.753   5.326
12403TIP3    H137152   3.009   7.681   5.335
12403TIP3    H237153   2.870   7.724   5.373
12404TIP3   OH237154   3.325   3.831   4.265
12404TIP3    H137155   3.380   3.859   4.192
12404TIP3    H237156   3.310   3.738   4.249
12405TIP3   OH237157   4.789   5.898   0.637
12405TIP3    H137158   4.712   5.940   0.674
12405TIP3    H237159   4.841   5.872   0.713
12406TIP3   OH237160   1.542   2.815   3.720
12406TIP3    H137161   1.456   2.857   3.719
12406TIP3    H237162   1.596   2.868   3.661
12407TIP3   OH237163   1.967   5.810   3.669
12407TIP3    H137164   1.936   5.785   3.756
12407TIP3    H237165   1.947   5.903   3.662
12408TIP3   OH237166   1.036   6.617   2.233
12408TIP3    H137167   1.048   6.527   2.202
12408TIP3    H237168   1.103   6.668   2.186
12409TIP3   OH237169   7.547   5.394   3.086
12409TIP3    H137170   7.568   5.436   3.169
12409TIP3    H237171   7.630   5.392   3.038
12410TIP3   OH237172   2.339   4.452   6.018
12410TIP3    H137173   2.254   4.486   5.991
12410TIP3    H237174   2.362   4.503   6.096
12411TIP3   OH237175   7.677   1.255   2.185
12411TIP3    H137176   7.632   1.309   2.120
12411TIP3    H237177   7.657   1.165   2.160
12412TIP3   OH237178   3.231   6.513   3.742
12412TIP3    H137179   3.233   6.595   3.692
12412TIP3    H237180   3.288   6.530   3.817
12413TIP3   OH237181   8.263   2.462   4.955
12413TIP3    H137182   8.333   2.483   5.016
12413TIP3    H237183   8.273   2.527   4.885
12414TIP3   OH237184   1.549   6.834   2.641
12414TIP3    H137185   1.519   6.896   2.707
12414TIP3    H237186   1.632   6.801   2.675
12415TIP3   OH237187   7.391   1.771   2.306
12415TIP3    H137188   7.305   1.730   2.312
12415TIP3    H237189   7.376   1.853   2.258
12416TIP3   OH237190   4.063   7.340   1.873
12416TIP3    H137191   4.093   7.422   1.834
12416TIP3    H237192   4.144   7.299   1.906
12417TIP3   OH237193   6.759   4.545   5.825
12417TIP3    H137194   6.843   4.557   5.782
12417TIP3    H237195   6.694   4.560   5.757
12418TIP3   OH237196   3.340   3.059   0.399
12418TIP3    H137197   3.284   3.061   0.477
12418TIP3    H237198   3.358   3.151   0.381
12419TIP3   OH237199   4.926   4.263   6.043
12419TIP3    H137200   4.920   4.210   6.123
12419TIP3    H237201   5.020   4.269   6.026
12420TIP3   OH237202   0.797   5.497   5.188
12420TIP3    H137203   0.823   5.405   5.183
12420TIP3    H237204   0.841   5.540   5.116
12421TIP3   OH237205   6.426   6.133   4.754
12421TIP3    H137206   6.467   6.058   4.796
12421TIP3    H237207   6.404   6.192   4.826
12422TIP3   OH237208   4.846   7.173   3.376
12422TIP3    H137209   4.913   7.159   3.309
12422TIP3    H237210   4.871   7.115   3.448
12423TIP3   OH237211   0.822   5.227   4.837
12423TIP3    H137212   0.911   5.195   4.856
12423TIP3    H237213   0.767   5.149   4.845
12424TIP3   OH237214   3.276   6.410   3.487
12424TIP3    H137215   3.261   6.488   3.434
12424TIP3    H237216   3.261   6.438   3.577
12425TIP3   OH237217   1.261   0.319   5.877
12425TIP3    H137218   1.235   0.228   5.893
12425TIP3    H237219   1.186   0.358   5.832
12426TIP3   OH237220   3.149   0.656   6.275
12426TIP3    H137221   3.202   0.576   6.267
12426TIP3    H237222   3.208   0.719   6.317
12427TIP3   OH237223   3.776   0.605   3.067
12427TIP3    H137224   3.716   0.531   3.081
12427TIP3    H237225   3.859   0.563   3.046
12428TIP3   OH237226   1.590   5.688   5.024
12428TIP3    H137227   1.620   5.659   4.938
12428TIP3    H237228   1.628   5.775   5.035
12429TIP3   OH237229   3.147   2.397   0.442
12429TIP3    H137230   3.155   2.308   0.409
12429TIP3    H237231   3.183   2.452   0.371
12430TIP3   OH237232   1.801   5.623   6.171
12430TIP3    H137233   1.844   5.707   6.156
12430TIP3    H237234   1.723   5.645   6.221
12431TIP3   OH237235   6.573   4.025   4.825
12431TIP3    H137236   6.527   4.051   4.745
12431TIP3    H237237   6.552   4.095   4.887
12432TIP3   OH237238   3.096   5.181   1.810
12432TIP3    H137239   3.058   5.166   1.897
12432TIP3    H237240   3.095   5.276   1.800
12433TIP3   OH237241   4.999   4.097   2.606
12433TIP3    H137242   5.045   4.161   2.551
12433TIP3    H237243   5.011   4.014   2.561
12434TIP3   OH237244   3.706   2.968   0.848
12434TIP3    H137245   3.663   3.009   0.773
12434TIP3    H237246   3.636   2.955   0.911
12435TIP3   OH237247   4.684   0.932   3.631
12435TIP3    H137248   4.778   0.946   3.628
12435TIP3    H237249   4.662   0.900   3.543
12436TIP3   OH237250   3.693   1.146   3.561
12436TIP3    H137251   3.687   1.210   3.632
12436TIP3    H237252   3.607   1.146   3.520
12437TIP3   OH237253   3.866   3.911   3.833
12437TIP3    H137254   3.910   3.910   3.918
12437TIP3    H237255   3.936   3.893   3.770
12438TIP3   OH237256   4.962   2.226   3.297
12438TIP3    H137257   4.935   2.143   3.258
12438TIP3    H237258   5.017   2.268   3.231
12439TIP3   OH237259   6.634   3.226   4.074
12439TIP3    H137260   6.544   3.218   4.104
12439TIP3    H237261   6.670   3.137   4.081
12440TIP3   OH237262   3.494   6.942   4.752
12440TIP3    H137263   3.418   7.000   4.748
12440TIP3    H237264   3.502   6.920   4.845
12441TIP3   OH237265   3.261   2.100   4.219
12441TIP3    H137266   3.289   2.046   4.293
12441TIP3    H237267   3.196   2.159   4.256
12442TIP3   OH237268   4.965   6.498   3.774
12442TIP3    H137269   4.994   6.450   3.696
12442TIP3    H237270   5.017   6.461   3.845
12443TIP3   OH237271   2.882   3.161   0.795
12443TIP3    H137272   2.937   3.096   0.839
12443TIP3    H237273   2.840   3.209   0.866
12444TIP3   OH237274   4.084   5.545   0.409
12444TIP3    H137275   4.118   5.615   0.354
12444TIP3    H237276   3.996   5.528   0.375
12445TIP3   OH237277   2.229   3.709   1.325
12445TIP3    H137278   2.229   3.777   1.258
12445TIP3    H237279   2.234   3.757   1.408
12446TIP3   OH237280   3.329   2.105   4.496
12446TIP3    H137281   3.275   2.180   4.521
12446TIP3    H237282   3.407   2.111   4.551
12447TIP3   OH237283   3.626   7.429   3.222
12447TIP3    H137284   3.592   7.488   3.155
12447TIP3    H237285   3.721   7.432   3.211
12448TIP3   OH237286   0.539   6.216   1.137
12448TIP3    H137287   0.472   6.157   1.102
12448TIP3    H237288   0.589   6.244   1.061
12449TIP3   OH237289   0.938   6.250   2.082
12449TIP3    H137290   0.886   6.286   2.010
12449TIP3    H237291   1.020   6.300   2.080
12450TIP3   OH237292   4.993   3.821   6.165
12450TIP3    H137293   4.923   3.793   6.224
12450TIP3    H237294   4.981   3.766   6.087
12451TIP3   OH237295   7.488   7.762   5.823
12451TIP3    H137296   7.549   7.721   5.762
12451TIP3    H237297   7.539   7.771   5.904
12452TIP3   OH237298   0.550   0.552   3.524
12452TIP3    H137299   0.613   0.625   3.523
12452TIP3    H237300   0.570   0.504   3.605
12453TIP3   OH237301   7.646   6.488   5.061
12453TIP3    H137302   7.582   6.538   5.112
12453TIP3    H237303   7.726   6.492   5.112
12454TIP3   OH237304   7.560   3.313   5.432
12454TIP3    H137305   7.593   3.277   5.514
12454TIP3    H237306   7.557   3.238   5.372
12455TIP3   OH237307   4.578   3.424   0.571
12455TIP3    H137308   4.668   3.441   0.600
12455TIP3    H237309   4.556   3.502   0.519
12456TIP3   OH237310   2.859   0.600   6.450
12456TIP3    H137311   2.943   0.557   6.435
12456TIP3    H237312   2.822   0.612   6.362
12457TIP3   OH237313   6.598   3.777   5.358
12457TIP3    H137314   6.540   3.723   5.411
12457TIP3    H237315   6.633   3.718   5.292
12458TIP3   OH237316   4.010   4.186   3.919
12458TIP3    H137317   3.930   4.136   3.903
12458TIP3    H237318   4.055   4.136   3.987
12459TIP3   OH237319   3.763   1.176   1.603
12459TIP3    H137320   3.796   1.091   1.575
12459TIP3    H237321   3.691   1.156   1.661
12460TIP3   OH237322   3.813   3.015   1.362
12460TIP3    H137323   3.842   3.065   1.439
12460TIP3    H237324   3.740   3.065   1.327
12461TIP3   OH237325   5.095   7.821   2.537
12461TIP3    H137326   5.183   7.836   2.573
12461TIP3    H237327   5.048   7.775   2.607
12462TIP3   OH237328   1.587   6.320   0.996
12462TIP3    H137329   1.655   6.274   0.948
12462TIP3    H237330   1.609   6.306   1.088
12463TIP3   OH237331   4.420   7.695   6.241
12463TIP3    H137332   4.417   7.609   6.283
12463TIP3    H237333   4.366   7.686   6.163
12464TIP3   OH237334   5.271   3.013   2.998
12464TIP3    H137335   5.230   3.054   2.922
12464TIP3    H237336   5.228   3.053   3.073
12465TIP3   OH237337   4.881   0.315   3.963
12465TIP3    H137338   4.966   0.294   4.001
12465TIP3    H237339   4.841   0.230   3.944
12466TIP3   OH237340   4.949   0.127   1.828
12466TIP3    H137341   4.968   0.221   1.829
12466TIP3    H237342   5.002   0.092   1.756
12467TIP3   OH237343   7.265   5.040   4.103
12467TIP3    H137344   7.329   5.101   4.067
12467TIP3    H237345   7.277   4.960   4.052
12468TIP3   OH237346   3.599   6.845   3.304
12468TIP3    H137347   3.558   6.890   3.230
12468TIP3    H237348   3.691   6.836   3.279
12469TIP3   OH237349   0.046   5.561   4.308
12469TIP3    H137350   0.050   5.550   4.403
12469TIP3    H237351   0.131   5.528   4.277
12470TIP3   OH237352   7.232   0.389   3.461
12470TIP3    H137353   7.312   0.379   3.513
12470TIP3    H237354   7.161   0.366   3.521
12471TIP3   OH237355   7.781   7.571   0.681
12471TIP3    H137356   7.712   7.607   0.738
12471TIP3    H237357   7.807   7.490   0.725
12472TIP3   OH237358   4.339   4.137   5.500
12472TIP3    H137359   4.426   4.176   5.497
12472TIP3    H237360   4.303   4.153   5.413
12473TIP3   OH237361   1.224   3.109   4.788
12473TIP3    H137362   1.252   3.201   4.779
12473TIP3    H237363   1.220   3.095   4.883
12474TIP3   OH237364   3.456   2.668   0.897
12474TIP3    H137365   3.442   2.697   0.987
12474TIP3    H237366   3.445   2.747   0.844
12475TIP3   OH237367   6.055   6.411   1.717
12475TIP3    H137368   5.959   6.413   1.718
12475TIP3    H237369   6.081   6.499   1.742
12476TIP3   OH237370   0.227   6.673   5.719
12476TIP3    H137371   0.146   6.623   5.714
12476TIP3    H237372   0.218   6.725   5.799
12477TIP3   OH237373   2.760   7.249   4.019
12477TIP3    H137374   2.854   7.233   4.011
12477TIP3    H237375   2.732   7.271   3.930
12478TIP3   OH237376   1.519   1.630   2.980
12478TIP3    H137377   1.496   1.715   2.942
12478TIP3    H237378   1.575   1.652   3.055
12479TIP3   OH237379   4.762   7.099   1.097
12479TIP3    H137380   4.711   7.065   1.170
12479TIP3    H237381   4.709   7.080   1.020
12480TIP3   OH237382   6.608   2.272   6.726
12480TIP3    H137383   6.683   2.243   6.778
12480TIP3    H237384   6.626   2.364   6.708
12481TIP3   OH237385   6.083   4.023   4.494
12481TIP3    H137386   6.057   3.984   4.411
12481TIP3    H237387   6.001   4.055   4.532
12482TIP3   OH237388   8.248   1.871   3.820
12482TIP3    H137389   8.195   1.868   3.900
12482TIP3    H237390   8.271   1.963   3.810
12483TIP3   OH237391   6.047   4.996   0.144
12483TIP3    H137392   6.116   4.951   0.194
12483TIP3    H237393   6.064   4.969   0.053
12484TIP3   OH237394   3.848   3.380   1.453
12484TIP3    H137395   3.844   3.400   1.359
12484TIP3    H237396   3.762   3.341   1.473
12485TIP3   OH237397   1.659   4.732   1.225
12485TIP3    H137398   1.746   4.698   1.247
12485TIP3    H237399   1.609   4.656   1.196
12486TIP3   OH237400   4.819   1.361   1.980
12486TIP3    H137401   4.753   1.371   2.048
12486TIP3    H237402   4.842   1.268   1.982
12487TIP3   OH237403   0.209   7.699   0.186
12487TIP3    H137404   0.271   7.632   0.160
12487TIP3    H237405   0.154   7.712   0.109
12488TIP3   OH237406   4.015   7.400   6.438
12488TIP3    H137407   4.026   7.461   6.365
12488TIP3    H237408   3.925   7.369   6.429
12489TIP3   OH237409   5.921   4.055   4.728
12489TIP3    H137410   5.999   4.000   4.742
12489TIP3    H237411   5.926   4.121   4.797
12490TIP3   OH237412   8.005   6.933   4.567
12490TIP3    H137413   8.027   6.920   4.475
12490TIP3    H237414   8.035   6.854   4.611
12491TIP3   OH237415   7.934   5.698   1.957
12491TIP3    H137416   8.026   5.674   1.967
12491TIP3    H237417   7.888   5.614   1.954
12492TIP3   OH237418   3.136   1.967   1.010
12492TIP3    H137419   3.084   2.038   1.048
12492TIP3    H237420   3.210   2.011   0.967
12493TIP3   OH237421   2.577   0.987   0.136
12493TIP3    H137422   2.502   0.966   0.081
12493TIP3    H237423   2.598   0.904   0.180
12494TIP3   OH237424   7.701   2.824   2.680
12494TIP3    H137425   7.744   2.756   2.629
12494TIP3    H237426   7.764   2.896   2.683
12495TIP3   OH237427   2.130   3.805   0.711
12495TIP3    H137428   2.090   3.724   0.680
12495TIP3    H237429   2.101   3.814   0.802
12496TIP3   OH237430   0.048   3.862   4.587
12496TIP3    H137431  -0.008   3.785   4.580
12496TIP3    H237432  -0.011   3.936   4.575
12497TIP3   OH237433   4.621   6.861   4.598
12497TIP3    H137434   4.531   6.887   4.619
12497TIP3    H237435   4.614   6.768   4.576
12498TIP3   OH237436   2.786   4.292   1.051
12498TIP3    H137437   2.823   4.380   1.058
12498TIP3    H237438   2.771   4.279   0.957
12499TIP3   OH237439   0.323   6.362   4.492
12499TIP3    H137440   0.394   6.406   4.538
12499TIP3    H237441   0.295   6.293   4.553
12500TIP3   OH237442   3.154   2.900   2.430
12500TIP3    H137443   3.142   2.932   2.341
12500TIP3    H237444   3.070   2.860   2.452
12501TIP3   OH237445   6.747   0.230   5.113
12501TIP3    H137446   6.656   0.260   5.102
12501TIP3    H237447   6.767   0.184   5.031
12502TIP3   OH237448   6.603   6.829   5.576
12502TIP3    H137449   6.682   6.882   5.568
12502TIP3    H237450   6.533   6.892   5.595
12503TIP3   OH237451   1.077   7.662   1.305
12503TIP3    H137452   1.048   7.751   1.286
12503TIP3    H237453   0.999   7.618   1.338
12504TIP3   OH237454   6.180   3.790   3.145
12504TIP3    H137455   6.172   3.750   3.058
12504TIP3    H237456   6.274   3.808   3.154
12505TIP3   OH237457   1.950   5.261   4.227
12505TIP3    H137458   1.897   5.181   4.222
12505TIP3    H237459   1.912   5.319   4.161
12506TIP3   OH237460   7.366   0.776   0.842
12506TIP3    H137461   7.406   0.723   0.910
12506TIP3    H237462   7.342   0.858   0.885
12507TIP3   OH237463   1.079   0.059   6.296
12507TIP3    H137464   1.076  -0.019   6.241
12507TIP3    H237465   0.988   0.087   6.304
12508TIP3   OH237466   1.698   6.263   6.263
12508TIP3    H137467   1.667   6.240   6.175
12508TIP3    H237468   1.623   6.247   6.320
12509TIP3   OH237469   5.472   1.119   5.206
12509TIP3    H137470   5.391   1.148   5.249
12509TIP3    H237471   5.541   1.138   5.269
12510TIP3   OH237472   0.964   0.519   0.573
12510TIP3    H137473   0.951   0.492   0.482
12510TIP3    H237474   0.937   0.611   0.574
12511TIP3   OH237475   5.297   6.445   2.904
12511TIP3    H137476   5.294   6.370   2.963
12511TIP3    H237477   5.345   6.414   2.827
12512TIP3   OH237478   4.780   2.316   6.457
12512TIP3    H137479   4.774   2.411   6.470
12512TIP3    H237480   4.702   2.293   6.407
12513TIP3   OH237481   1.443   4.344   3.052
12513TIP3    H137482   1.510   4.311   2.993
12513TIP3    H237483   1.399   4.266   3.085
12514TIP3   OH237484   2.945   3.913   2.608
12514TIP3    H137485   2.962   3.901   2.515
12514TIP3    H237486   2.871   3.856   2.628
12515TIP3   OH237487   0.061   7.400   6.189
12515TIP3    H137488   0.114   7.476   6.165
12515TIP3    H237489   0.126   7.335   6.218
12516TIP3   OH237490   1.169   4.243   6.239
12516TIP3    H137491   1.185   4.307   6.170
12516TIP3    H237492   1.235   4.262   6.306
12517TIP3   OH237493   6.626   6.796   2.994
12517TIP3    H137494   6.690   6.729   2.972
12517TIP3    H237495   6.669   6.849   3.061
12518TIP3   OH237496   2.694   2.306   3.424
12518TIP3    H137497   2.606   2.343   3.433
12518TIP3    H237498   2.679   2.218   3.388
12519TIP3   OH237499   6.399   1.641   2.723
12519TIP3    H137500   6.400   1.669   2.814
12519TIP3    H237501   6.490   1.618   2.704
12520TIP3   OH237502   4.451   3.255   2.149
12520TIP3    H137503   4.417   3.345   2.150
12520TIP3    H237504   4.538   3.262   2.189
12521TIP3   OH237505   0.306   4.858   6.603
12521TIP3    H137506   0.287   4.949   6.580
12521TIP3    H237507   0.392   4.860   6.644
12522TIP3   OH237508   0.385   4.447   3.609
12522TIP3    H137509   0.371   4.541   3.601
12522TIP3    H237510   0.452   4.439   3.677
12523TIP3   OH237511   5.750   0.728   0.783
12523TIP3    H137512   5.714   0.769   0.862
12523TIP3    H237513   5.740   0.634   0.799
12524TIP3   OH237514   2.017   6.540   1.310
12524TIP3    H137515   2.021   6.480   1.236
12524TIP3    H237516   1.930   6.580   1.305
12525TIP3   OH237517   0.886   2.289   4.062
12525TIP3    H137518   0.969   2.251   4.034
12525TIP3    H237519   0.829   2.213   4.078
12526TIP3   OH237520   2.761   0.864   4.589
12526TIP3    H137521   2.697   0.896   4.653
12526TIP3    H237522   2.798   0.944   4.551
12527TIP3   OH237523   0.249   4.195   6.220
12527TIP3    H137524   0.221   4.105   6.234
12527TIP3    H237525   0.225   4.241   6.301
12528TIP3   OH237526   0.502   6.761   5.620
12528TIP3    H137527   0.561   6.718   5.681
12528TIP3    H237528   0.418   6.717   5.633
12529TIP3   OH237529   0.437   5.793   5.687
12529TIP3    H137530   0.356   5.764   5.729
12529TIP3    H237531   0.493   5.822   5.759
12530TIP3   OH237532   4.070   1.184   5.225
12530TIP3    H137533   4.155   1.177   5.269
12530TIP3    H237534   4.088   1.235   5.147
12531TIP3   OH237535   2.946   4.684   4.393
12531TIP3    H137536   3.016   4.676   4.328
12531TIP3    H237537   2.898   4.602   4.387
12532TIP3   OH237538   6.584   1.480   1.203
12532TIP3    H137539   6.581   1.414   1.273
12532TIP3    H237540   6.668   1.524   1.215
12533TIP3   OH237541   0.909   6.062   2.742
12533TIP3    H137542   0.951   6.120   2.805
12533TIP3    H237543   0.937   6.095   2.656
12534TIP3   OH237544   6.685   5.643   5.359
12534TIP3    H137545   6.727   5.716   5.313
12534TIP3    H237546   6.595   5.672   5.374
12535TIP3   OH237547   5.904   4.274   1.943
12535TIP3    H137548   5.926   4.181   1.940
12535TIP3    H237549   5.951   4.312   1.869
12536TIP3   OH237550   2.249   2.196   1.912
12536TIP3    H137551   2.306   2.163   1.844
12536TIP3    H237552   2.218   2.281   1.879
12537TIP3   OH237553   2.219   2.716   2.412
12537TIP3    H137554   2.293   2.767   2.444
12537TIP3    H237555   2.151   2.781   2.393
12538TIP3   OH237556   1.207   4.707   1.722
12538TIP3    H137557   1.192   4.688   1.815
12538TIP3    H237558   1.213   4.621   1.681
12539TIP3   OH237559   7.776   6.751   2.611
12539TIP3    H137560   7.759   6.805   2.689
12539TIP3    H237561   7.779   6.813   2.539
12540TIP3   OH237562   7.543   2.529   6.166
12540TIP3    H137563   7.468   2.579   6.133
12540TIP3    H237564   7.608   2.533   6.096
12541TIP3   OH237565   6.504   7.662   0.928
12541TIP3    H137566   6.532   7.753   0.918
12541TIP3    H237567   6.479   7.636   0.840
12542TIP3   OH237568   4.818   4.847   5.204
12542TIP3    H137569   4.810   4.773   5.144
12542TIP3    H237570   4.883   4.904   5.163
12543TIP3   OH237571   2.438   4.339   0.809
12543TIP3    H137572   2.422   4.292   0.727
12543TIP3    H237573   2.446   4.271   0.875
12544TIP3   OH237574   8.189   1.353   5.752
12544TIP3    H137575   8.277   1.346   5.715
12544TIP3    H237576   8.191   1.433   5.803
12545TIP3   OH237577   1.371   0.604   2.993
12545TIP3    H137578   1.411   0.608   2.906
12545TIP3    H237579   1.282   0.573   2.976
12546TIP3   OH237580   4.537   4.332   6.232
12546TIP3    H137581   4.452   4.371   6.252
12546TIP3    H237582   4.575   4.390   6.166
12547TIP3   OH237583   1.987   4.621   3.548
12547TIP3    H137584   2.074   4.594   3.518
12547TIP3    H237585   1.937   4.540   3.555
12548TIP3   OH237586   6.859   4.079   4.204
12548TIP3    H137587   6.821   4.061   4.290
12548TIP3    H237588   6.891   3.995   4.173
12549TIP3   OH237589   7.470   1.166   4.207
12549TIP3    H137590   7.454   1.259   4.223
12549TIP3    H237591   7.565   1.159   4.203
12550TIP3   OH237592   4.541   1.784   0.708
12550TIP3    H137593   4.474   1.719   0.687
12550TIP3    H237594   4.495   1.850   0.759
12551TIP3   OH237595   3.711   2.612   1.462
12551TIP3    H137596   3.643   2.554   1.428
12551TIP3    H237597   3.791   2.583   1.419
12552TIP3   OH237598   2.431   5.366   1.132
12552TIP3    H137599   2.422   5.449   1.085
12552TIP3    H237600   2.344   5.349   1.168
12553TIP3   OH237601   3.557   4.854   1.406
12553TIP3    H137602   3.528   4.763   1.408
12553TIP3    H237603   3.599   4.863   1.320
12554TIP3   OH237604   4.960   4.415   5.760
12554TIP3    H137605   4.868   4.411   5.787
12554TIP3    H237606   4.985   4.506   5.775
12555TIP3   OH237607   2.194   0.336   3.355
12555TIP3    H137608   2.112   0.298   3.325
12555TIP3    H237609   2.202   0.418   3.305
12556TIP3   OH237610   0.161   7.544   2.528
12556TIP3    H137611   0.138   7.479   2.462
12556TIP3    H237612   0.252   7.567   2.508
12557TIP3   OH237613   2.843   3.057   5.518
12557TIP3    H137614   2.814   3.028   5.431
12557TIP3    H237615   2.810   3.146   5.526
12558TIP3   OH237616   0.510   7.200   4.496
12558TIP3    H137617   0.604   7.217   4.501
12558TIP3    H237618   0.481   7.246   4.418
12559TIP3   OH237619   2.148   0.144   0.286
12559TIP3    H137620   2.190   0.059   0.276
12559TIP3    H237621   2.055   0.127   0.271
12560TIP3   OH237622   6.597   1.507   2.005
12560TIP3    H137623   6.668   1.498   1.942
12560TIP3    H237624   6.621   1.583   2.058
12561TIP3   OH237625   3.752   1.147   6.619
12561TIP3    H137626   3.773   1.209   6.689
12561TIP3    H237627   3.820   1.080   6.626
12562TIP3   OH237628   0.062   5.787   1.655
12562TIP3    H137629   0.020   5.854   1.708
12562TIP3    H237630  -0.007   5.723   1.636
12563TIP3   OH237631   5.468   0.789   0.671
12563TIP3    H137632   5.512   0.704   0.672
12563TIP3    H237633   5.503   0.835   0.747
12564TIP3   OH237634   0.454   6.155   3.395
12564TIP3    H137635   0.534   6.181   3.440
12564TIP3    H237636   0.442   6.064   3.418
12565TIP3   OH237637   3.409   6.903   0.938
12565TIP3    H137638   3.482   6.900   1.000
12565TIP3    H237639   3.361   6.821   0.954
12566TIP3   OH237640   7.531   4.639   0.466
12566TIP3    H137641   7.611   4.603   0.429
12566TIP3    H237642   7.469   4.641   0.393
12567TIP3   OH237643   0.908   4.067   0.160
12567TIP3    H137644   0.906   4.091   0.067
12567TIP3    H237645   0.826   4.021   0.175
12568TIP3   OH237646   7.980   1.027   4.978
12568TIP3    H137647   8.047   0.959   4.985
12568TIP3    H237648   7.912   0.999   5.039
12569TIP3   OH237649   5.671   3.925   1.100
12569TIP3    H137650   5.704   3.980   1.171
12569TIP3    H237651   5.580   3.908   1.125
12570TIP3   OH237652   8.143   5.026   6.004
12570TIP3    H137653   8.054   5.000   6.029
12570TIP3    H237654   8.162   4.977   5.925
12571TIP3   OH237655   8.274   5.064   2.000
12571TIP3    H137656   8.190   5.110   1.997
12571TIP3    H237657   8.339   5.134   2.007
12572TIP3   OH237658   6.972   6.511   5.254
12572TIP3    H137659   6.951   6.435   5.309
12572TIP3    H237660   6.995   6.473   5.169
12573TIP3   OH237661   0.622   0.710   4.793
12573TIP3    H137662   0.677   0.781   4.761
12573TIP3    H237663   0.679   0.660   4.851
12574TIP3   OH237664   2.225   3.539   0.610
12574TIP3    H137665   2.277   3.597   0.555
12574TIP3    H237666   2.287   3.504   0.674
12575TIP3   OH237667   4.901   6.213   4.003
12575TIP3    H137668   4.849   6.219   3.923
12575TIP3    H237669   4.954   6.293   4.003
12576TIP3   OH237670   6.849   5.980   4.652
12576TIP3    H137671   6.762   5.944   4.635
12576TIP3    H237672   6.845   6.068   4.614
12577TIP3   OH237673   6.864   2.555   0.884
12577TIP3    H137674   6.936   2.594   0.934
12577TIP3    H237675   6.857   2.610   0.805
12578TIP3   OH237676   7.289  -0.030   3.782
12578TIP3    H137677   7.248   0.047   3.821
12578TIP3    H237678   7.331   0.003   3.702
12579TIP3   OH237679   1.328   4.091   6.023
12579TIP3    H137680   1.339   4.056   6.112
12579TIP3    H237681   1.416   4.090   5.985
12580TIP3   OH237682   1.100   4.729   5.810
12580TIP3    H137683   1.039   4.764   5.745
12580TIP3    H237684   1.049   4.723   5.891
12581TIP3   OH237685   1.144   3.242   0.632
12581TIP3    H137686   1.188   3.173   0.682
12581TIP3    H237687   1.112   3.198   0.553
12582TIP3   OH237688   3.756   4.193   1.446
12582TIP3    H137689   3.744   4.264   1.384
12582TIP3    H237690   3.832   4.219   1.498
12583TIP3   OH237691   2.405   3.196   0.417
12583TIP3    H137692   2.327   3.181   0.364
12583TIP3    H237693   2.478   3.183   0.357
12584TIP3   OH237694   4.934   0.043   0.942
12584TIP3    H137695   4.975   0.058   0.857
12584TIP3    H237696   4.913  -0.050   0.942
12585TIP3   OH237697   0.830   3.662   6.113
12585TIP3    H137698   0.925   3.663   6.104
12585TIP3    H237699   0.814   3.675   6.207
12586TIP3   OH237700   2.808   2.390   4.185
12586TIP3    H137701   2.820   2.409   4.092
12586TIP3    H237702   2.742   2.320   4.186
12587TIP3   OH237703   3.740   6.276   5.560
12587TIP3    H137704   3.681   6.265   5.634
12587TIP3    H237705   3.757   6.370   5.557
12588TIP3   OH237706   8.312   1.679   0.981
12588TIP3    H137707   8.284   1.673   1.072
12588TIP3    H237708   8.244   1.733   0.939
12589TIP3   OH237709   4.970   3.768   4.649
12589TIP3    H137710   4.975   3.725   4.734
12589TIP3    H237711   4.964   3.697   4.585
12590TIP3   OH237712   6.281   4.467   2.004
12590TIP3    H137713   6.364   4.449   2.047
12590TIP3    H237714   6.216   4.466   2.074
12591TIP3   OH237715   4.740   2.656   5.381
12591TIP3    H137716   4.765   2.655   5.473
12591TIP3    H237717   4.822   2.640   5.333
12592TIP3   OH237718   5.901   3.876   2.545
12592TIP3    H137719   5.877   3.956   2.592
12592TIP3    H237720   5.830   3.815   2.563
12593TIP3   OH237721   7.761   7.341   3.790
12593TIP3    H137722   7.695   7.402   3.756
12593TIP3    H237723   7.844   7.388   3.783
12594TIP3   OH237724   4.681   1.303   6.808
12594TIP3    H137725   4.725   1.326   6.726
12594TIP3    H237726   4.590   1.330   6.794
12595TIP3   OH237727   5.693   1.260   0.763
12595TIP3    H137728   5.744   1.180   0.748
12595TIP3    H237729   5.606   1.238   0.731
12596TIP3   OH237730   5.782   1.401   4.021
12596TIP3    H137731   5.806   1.491   4.001
12596TIP3    H237732   5.852   1.348   3.981
12597TIP3   OH237733   5.155   1.931   3.313
12597TIP3    H137734   5.075   1.933   3.259
12597TIP3    H237735   5.196   1.847   3.292
12598TIP3   OH237736   3.356   0.884   1.196
12598TIP3    H137737   3.387   0.958   1.144
12598TIP3    H237738   3.337   0.921   1.282
12599TIP3   OH237739   5.715   4.360   5.484
12599TIP3    H137740   5.679   4.425   5.544
12599TIP3    H237741   5.784   4.406   5.437
12600TIP3   OH237742   2.295   5.607   4.582
12600TIP3    H137743   2.212   5.568   4.607
12600TIP3    H237744   2.295   5.605   4.487
12601TIP3   OH237745   5.635   3.327   5.006
12601TIP3    H137746   5.662   3.415   5.031
12601TIP3    H237747   5.648   3.275   5.086
12602TIP3   OH237748   6.579   1.293   3.266
12602TIP3    H137749   6.633   1.222   3.232
12602TIP3    H237750   6.609   1.303   3.357
12603TIP3   OH237751   4.105   5.990   6.582
12603TIP3    H137752   4.033   5.991   6.519
12603TIP3    H237753   4.182   6.014   6.531
12604TIP3   OH237754   6.827   2.813   0.738
12604TIP3    H137755   6.752   2.872   0.746
12604TIP3    H237756   6.892   2.849   0.799
12605TIP3   OH237757   7.016   0.113   4.574
12605TIP3    H137758   7.096   0.145   4.533
12605TIP3    H237759   6.954   0.184   4.563
12606TIP3   OH237760   7.257   0.454   0.931
12606TIP3    H137761   7.277   0.360   0.936
12606TIP3    H237762   7.338   0.497   0.961
12607TIP3   OH237763   2.636   0.291   6.547
12607TIP3    H137764   2.726   0.261   6.532
12607TIP3    H237765   2.582   0.215   6.525
12608TIP3   OH237766   4.623   4.355   6.787
12608TIP3    H137767   4.656   4.444   6.782
12608TIP3    H237768   4.593   4.335   6.698
12609TIP3   OH237769   0.621   5.158   3.484
12609TIP3    H137770   0.568   5.107   3.546
12609TIP3    H237771   0.615   5.248   3.517
12610TIP3   OH237772   5.146   6.761   3.606
12610TIP3    H137773   5.232   6.739   3.640
12610TIP3    H237774   5.087   6.696   3.645
12611TIP3   OH237775   4.269   7.676   2.715
12611TIP3    H137776   4.322   7.668   2.636
12611TIP3    H237777   4.247   7.586   2.739
12612TIP3   OH237778   5.793   5.997   2.370
12612TIP3    H137779   5.707   5.955   2.365
12612TIP3    H237780   5.844   5.942   2.430
12613TIP3   OH237781   5.078   6.708   5.752
12613TIP3    H137782   5.055   6.727   5.660
12613TIP3    H237783   5.138   6.778   5.776
12614TIP3   OH237784   5.896   3.402   0.084
12614TIP3    H137785   5.856   3.433   0.165
12614TIP3    H237786   5.973   3.458   0.072
12615TIP3   OH237787   1.444   4.294   0.271
12615TIP3    H137788   1.485   4.208   0.264
12615TIP3    H237789   1.503   4.344   0.328
12616TIP3   OH237790   7.055   0.919   0.630
12616TIP3    H137791   7.050   0.823   0.638
12616TIP3    H237792   7.063   0.950   0.720
12617TIP3   OH237793   4.452   1.835   2.383
12617TIP3    H137794   4.425   1.743   2.378
12617TIP3    H237795   4.388   1.875   2.442
12618TIP3   OH237796   0.233   1.416   5.385
12618TIP3    H137797   0.163   1.351   5.372
12618TIP3    H237798   0.254   1.445   5.296
12619TIP3   OH237799   0.539   1.179   3.899
12619TIP3    H137800   0.463   1.121   3.898
12619TIP3    H237801   0.586   1.158   3.818
12620TIP3   OH237802   5.069   7.413   1.277
12620TIP3    H137803   5.038   7.363   1.201
12620TIP3    H237804   5.114   7.488   1.238
12621TIP3   OH237805   1.586   2.442   0.307
12621TIP3    H137806   1.545   2.444   0.220
12621TIP3    H237807   1.669   2.396   0.294
12622TIP3   OH237808   3.680   4.230   5.538
12622TIP3    H137809   3.691   4.295   5.468
12622TIP3    H237810   3.623   4.273   5.601
12623TIP3   OH237811   4.644   5.112   5.637
12623TIP3    H137812   4.572   5.068   5.681
12623TIP3    H237813   4.638   5.203   5.665
12624TIP3   OH237814   7.083   6.158  -0.007
12624TIP3    H137815   7.165   6.145  -0.056
12624TIP3    H237816   7.093   6.104   0.071
12625TIP3   OH237817   7.289   2.534   0.349
12625TIP3    H137818   7.367   2.588   0.350
12625TIP3    H237819   7.319   2.446   0.373
12626TIP3   OH237820   1.569   0.216   5.894
12626TIP3    H137821   1.536   0.305   5.878
12626TIP3    H237822   1.565   0.173   5.808
12627TIP3   OH237823   7.097   0.597   2.146
12627TIP3    H137824   7.043   0.591   2.225
12627TIP3    H237825   7.146   0.678   2.157
12628TIP3   OH237826   3.264   1.036   1.415
12628TIP3    H137827   3.217   1.116   1.391
12628TIP3    H237828   3.299   1.054   1.501
12629TIP3   OH237829   6.859   6.047   5.727
12629TIP3    H137830   6.864   6.127   5.781
12629TIP3    H237831   6.816   5.983   5.784
12630TIP3   OH237832   5.370   2.332   2.495
12630TIP3    H137833   5.336   2.257   2.445
12630TIP3    H237834   5.321   2.329   2.577
12631TIP3   OH237835   5.440   4.753   4.113
12631TIP3    H137836   5.366   4.762   4.173
12631TIP3    H237837   5.511   4.800   4.157
12632TIP3   OH237838   3.270   1.994   3.918
12632TIP3    H137839   3.290   2.064   3.980
12632TIP3    H237840   3.177   1.977   3.930
12633TIP3   OH237841   1.376   1.307   0.505
12633TIP3    H137842   1.288   1.268   0.514
12633TIP3    H237843   1.360   1.396   0.474
12634TIP3   OH237844   2.765   6.190   0.129
12634TIP3    H137845   2.781   6.112   0.182
12634TIP3    H237846   2.749   6.157   0.041
12635TIP3   OH237847   4.251   7.694   3.857
12635TIP3    H137848   4.240   7.698   3.952
12635TIP3    H237849   4.335   7.736   3.840
12636TIP3   OH237850   2.111   2.248   0.801
12636TIP3    H137851   2.028   2.242   0.754
12636TIP3    H237852   2.107   2.180   0.868
12637TIP3   OH237853   1.259   4.747   6.146
12637TIP3    H137854   1.238   4.831   6.187
12637TIP3    H237855   1.213   4.683   6.200
12638TIP3   OH237856   6.264   0.824   6.403
12638TIP3    H137857   6.258   0.730   6.391
12638TIP3    H237858   6.332   0.852   6.342
12639TIP3   OH237859   2.686   6.822   2.803
12639TIP3    H137860   2.760   6.868   2.764
12639TIP3    H237861   2.711   6.729   2.801
12640TIP3   OH237862   3.148   0.983   3.285
12640TIP3    H137863   3.193   1.062   3.255
12640TIP3    H237864   3.210   0.912   3.268
12641TIP3   OH237865   3.499   3.615   0.817
12641TIP3    H137866   3.454   3.562   0.751
12641TIP3    H237867   3.469   3.579   0.901
12642TIP3   OH237868   4.978   7.043   0.138
12642TIP3    H137869   4.889   7.015   0.159
12642TIP3    H237870   5.022   6.964   0.109
12643TIP3   OH237871   0.800   2.475   5.548
12643TIP3    H137872   0.786   2.395   5.598
12643TIP3    H237873   0.856   2.528   5.603
12644TIP3   OH237874   5.190   0.793   5.091
12644TIP3    H137875   5.137   0.872   5.082
12644TIP3    H237876   5.158   0.735   5.021
12645TIP3   OH237877   7.547   3.044   6.467
12645TIP3    H137878   7.475   3.045   6.404
12645TIP3    H237879   7.607   2.977   6.433
12646TIP3   OH237880   5.360   7.211   2.356
12646TIP3    H137881   5.379   7.118   2.353
12646TIP3    H237882   5.370   7.235   2.448
12647TIP3   OH237883   6.335   7.269   3.567
12647TIP3    H137884   6.340   7.322   3.487
12647TIP3    H237885   6.241   7.259   3.583
12648TIP3   OH237886   6.829   4.014   4.745
12648TIP3    H137887   6.742   3.997   4.781
12648TIP3    H237888   6.821   4.099   4.702
12649TIP3   OH237889   1.505   7.413   5.615
12649TIP3    H137890   1.529   7.355   5.543
12649TIP3    H237891   1.562   7.388   5.688
12650TIP3   OH237892   3.313   7.037   2.732
12650TIP3    H137893   3.278   7.003   2.650
12650TIP3    H237894   3.320   6.961   2.789
12651TIP3   OH237895   7.185   2.174   6.033
12651TIP3    H137896   7.239   2.252   6.043
12651TIP3    H237897   7.097   2.202   6.057
12652TIP3   OH237898   0.495   1.463   1.669
12652TIP3    H137899   0.514   1.499   1.756
12652TIP3    H237900   0.569   1.407   1.649
12653TIP3   OH237901   4.212   3.403   6.212
12653TIP3    H137902   4.147   3.463   6.176
12653TIP3    H237903   4.270   3.458   6.264
12654TIP3   OH237904   5.383   5.388   1.639
12654TIP3    H137905   5.408   5.299   1.617
12654TIP3    H237906   5.368   5.386   1.734
12655TIP3   OH237907   6.608   5.823   4.623
12655TIP3    H137908   6.619   5.731   4.649
12655TIP3    H237909   6.565   5.864   4.698
12656TIP3   OH237910   6.513   1.105   1.215
12656TIP3    H137911   6.504   1.133   1.306
12656TIP3    H237912   6.549   1.016   1.221
12657TIP3   OH237913   1.140   3.307   0.237
12657TIP3    H137914   1.220   3.349   0.269
12657TIP3    H237915   1.073   3.330   0.301
12658TIP3   OH237916   5.595   3.900   2.570
12658TIP3    H137917   5.619   3.985   2.607
12658TIP3    H237918   5.516   3.875   2.617
12659TIP3   OH237919   4.949   7.491   5.879
12659TIP3    H137920   4.970   7.549   5.952
12659TIP3    H237921   4.962   7.545   5.801
12660TIP3   OH237922   6.047   0.992   4.378
12660TIP3    H137923   5.960   0.956   4.364
12660TIP3    H237924   6.093   0.978   4.296
12661TIP3   OH237925   3.855   0.274   3.487
12661TIP3    H137926   3.946   0.277   3.518
12661TIP3    H237927   3.862   0.270   3.392
12662TIP3   OH237928   1.477   4.615   6.508
12662TIP3    H137929   1.425   4.695   6.513
12662TIP3    H237930   1.505   4.598   6.597
12663TIP3   OH237931   7.119   4.904   4.417
12663TIP3    H137932   7.076   4.903   4.503
12663TIP3    H237933   7.177   4.981   4.420
12664TIP3   OH237934   6.392   4.990   0.119
12664TIP3    H137935   6.345   5.065   0.084
12664TIP3    H237936   6.427   5.021   0.202
12665TIP3   OH237937   7.378   7.499   3.158
12665TIP3    H137938   7.353   7.437   3.089
12665TIP3    H237939   7.432   7.446   3.218
12666TIP3   OH237940   6.740   4.147   0.907
12666TIP3    H137941   6.776   4.225   0.866
12666TIP3    H237942   6.653   4.138   0.869
12667TIP3   OH237943   8.086   1.885   1.547
12667TIP3    H137944   8.053   1.956   1.493
12667TIP3    H237945   8.041   1.895   1.631
12668TIP3   OH237946   5.832   6.375   0.795
12668TIP3    H137947   5.744   6.339   0.809
12668TIP3    H237948   5.828   6.416   0.709
12669TIP3   OH237949   3.126   2.398   5.311
12669TIP3    H137950   3.218   2.421   5.314
12669TIP3    H237951   3.082   2.463   5.366
12670TIP3   OH237952   8.199   3.417   5.466
12670TIP3    H137953   8.148   3.397   5.388
12670TIP3    H237954   8.290   3.397   5.442
12671TIP3   OH237955   8.133   3.202   6.420
12671TIP3    H137956   8.123   3.113   6.455
12671TIP3    H237957   8.050   3.245   6.440
12672TIP3   OH237958   7.653   5.359   1.462
12672TIP3    H137959   7.562   5.355   1.434
12672TIP3    H237960   7.700   5.394   1.386
12673TIP3   OH237961   8.164   1.210   6.038
12673TIP3    H137962   8.230   1.276   6.060
12673TIP3    H237963   8.145   1.224   5.946
12674TIP3   OH237964   1.685   7.029   6.306
12674TIP3    H137965   1.737   6.954   6.278
12674TIP3    H237966   1.726   7.059   6.386
12675TIP3   OH237967   0.392   3.439   6.036
12675TIP3    H137968   0.417   3.522   6.075
12675TIP3    H237969   0.378   3.459   5.943
12676TIP3   OH237970   6.092   6.397   1.100
12676TIP3    H137971   6.171   6.397   1.046
12676TIP3    H237972   6.040   6.470   1.068
12677TIP3   OH237973   6.978   7.208   2.215
12677TIP3    H137974   7.047   7.272   2.232
12677TIP3    H237975   6.902   7.241   2.264
12678TIP3   OH237976   0.277   6.999   0.869
12678TIP3    H137977   0.356   7.012   0.922
12678TIP3    H237978   0.309   6.972   0.783
12679TIP3   OH237979   3.382   5.943   3.681
12679TIP3    H137980   3.406   5.855   3.650
12679TIP3    H237981   3.365   5.931   3.775
12680TIP3   OH237982   3.050   0.053   0.854
12680TIP3    H137983   3.044   0.130   0.797
12680TIP3    H237984   2.959   0.038   0.882
12681TIP3   OH237985   6.708   7.038   2.499
12681TIP3    H137986   6.650   7.027   2.575
12681TIP3    H237987   6.659   7.097   2.441
12682TIP3   OH237988   3.949   7.009   0.504
12682TIP3    H137989   4.004   7.087   0.502
12682TIP3    H237990   3.895   7.015   0.425
12683TIP3   OH237991   3.903   4.978   3.053
12683TIP3    H137992   3.895   4.892   3.010
12683TIP3    H237993   3.997   4.998   3.050
12684TIP3   OH237994   6.829   2.069   4.308
12684TIP3    H137995   6.823   2.098   4.399
12684TIP3    H237996   6.880   1.988   4.312
12685TIP3   OH237997   3.419   5.226   4.598
12685TIP3    H137998   3.401   5.313   4.563
12685TIP3    H237999   3.466   5.181   4.528
12686TIP3   OH238000   4.032   0.309   5.088
12686TIP3    H138001   4.110   0.265   5.122
12686TIP3    H238002   4.064   0.394   5.058
12687TIP3   OH238003   7.333   4.242   2.736
12687TIP3    H138004   7.356   4.327   2.699
12687TIP3    H238005   7.416   4.206   2.766
12688TIP3   OH238006   4.593   6.545   4.525
12688TIP3    H138007   4.560   6.532   4.437
12688TIP3    H238008   4.551   6.476   4.577
12689TIP3   OH238009   6.070   2.032   1.352
12689TIP3    H138010   5.982   2.070   1.350
12689TIP3    H238011   6.063   1.953   1.298
12690TIP3   OH238012   6.982   3.216   6.339
12690TIP3    H138013   6.933   3.151   6.390
12690TIP3    H238014   6.959   3.198   6.248
12691TIP3   OH238015   5.176   3.736   1.016
12691TIP3    H138016   5.142   3.817   0.979
12691TIP3    H238017   5.185   3.754   1.110
12692TIP3   OH238018   2.648   5.726   3.346
12692TIP3    H138019   2.611   5.798   3.294
12692TIP3    H238020   2.604   5.732   3.430
12693TIP3   OH238021   3.823   5.057   3.907
12693TIP3    H138022   3.877   4.978   3.914
12693TIP3    H238023   3.805   5.065   3.814
12694TIP3   OH238024   0.229   5.730   6.590
12694TIP3    H138025   0.322   5.715   6.608
12694TIP3    H238026   0.197   5.646   6.558
12695TIP3   OH238027   0.404   6.210   4.188
12695TIP3    H138028   0.408   6.117   4.165
12695TIP3    H238029   0.367   6.252   4.110
12696TIP3   OH238030   6.410   3.015   4.510
12696TIP3    H138031   6.498   2.983   4.491
12696TIP3    H238032   6.391   2.981   4.598
12697TIP3   OH238033   4.873   2.418   6.123
12697TIP3    H138034   4.825   2.338   6.101
12697TIP3    H238035   4.956   2.410   6.077
12698TIP3   OH238036   1.400   2.317   4.771
12698TIP3    H138037   1.363   2.301   4.857
12698TIP3    H238038   1.494   2.330   4.786
12699TIP3   OH238039   5.245   5.850   0.093
12699TIP3    H138040   5.323   5.882   0.139
12699TIP3    H238041   5.175   5.852   0.159
12700TIP3   OH238042   5.367   2.997   0.370
12700TIP3    H138043   5.402   2.950   0.294
12700TIP3    H238044   5.441   3.001   0.431
12701TIP3   OH238045   2.022   1.050   6.268
12701TIP3    H138046   1.962   1.122   6.245
12701TIP3    H238047   2.106   1.078   6.233
12702TIP3   OH238048   1.889   1.109   5.679
12702TIP3    H138049   1.852   1.093   5.766
12702TIP3    H238050   1.954   1.177   5.692
12703TIP3   OH238051   5.713   7.534   2.705
12703TIP3    H138052   5.618   7.533   2.694
12703TIP3    H238053   5.748   7.511   2.619
12704TIP3   OH238054   5.874   3.534   1.365
12704TIP3    H138055   5.781   3.532   1.345
12704TIP3    H238056   5.879   3.532   1.460
12705TIP3   OH238057   7.094   1.582   3.251
12705TIP3    H138058   7.159   1.631   3.301
12705TIP3    H238059   7.012   1.593   3.300
12706TIP3   OH238060   2.125   7.010   0.355
12706TIP3    H138061   2.092   6.922   0.342
12706TIP3    H238062   2.106   7.056   0.273
12707TIP3   OH238063   6.075   1.932   3.161
12707TIP3    H138064   6.144   1.928   3.094
12707TIP3    H238065   6.043   2.022   3.157
12708TIP3   OH238066   5.623   0.122   6.365
12708TIP3    H138067   5.717   0.139   6.362
12708TIP3    H238068   5.594   0.129   6.273
12709TIP3   OH238069   0.953   1.115   2.207
12709TIP3    H138070   0.890   1.126   2.278
12709TIP3    H238071   1.039   1.116   2.249
12710TIP3   OH238072   1.043   2.716   3.809
12710TIP3    H138073   1.094   2.715   3.889
12710TIP3    H238074   1.047   2.626   3.776
12711TIP3   OH238075   7.397   4.580   6.446
12711TIP3    H138076   7.307   4.612   6.448
12711TIP3    H238077   7.450   4.657   6.465
12712TIP3   OH238078   3.827   0.687   4.438
12712TIP3    H138079   3.884   0.739   4.494
12712TIP3    H238080   3.744   0.735   4.437
12713TIP3   OH238081   1.079   5.317   1.100
12713TIP3    H138082   1.117   5.268   1.027
12713TIP3    H238083   1.035   5.251   1.154
12714TIP3   OH238084   1.535   7.288   2.079
12714TIP3    H138085   1.573   7.260   1.995
12714TIP3    H238086   1.474   7.217   2.102
12715TIP3   OH238087   7.879   1.763   5.456
12715TIP3    H138088   7.954   1.705   5.471
12715TIP3    H238089   7.915   1.851   5.463
12716TIP3   OH238090   0.942   1.425   6.017
12716TIP3    H138091   0.904   1.457   6.099
12716TIP3    H238092   0.933   1.499   5.957
12717TIP3   OH238093   1.501   7.806   6.389
12717TIP3    H138094   1.440   7.761   6.448
12717TIP3    H238095   1.444   7.846   6.322
12718TIP3   OH238096   0.706   5.916   2.597
12718TIP3    H138097   0.752   5.925   2.514
12718TIP3    H238098   0.748   5.980   2.654
12719TIP3   OH238099   6.372   6.840   5.850
12719TIP3    H138100   6.451   6.799   5.884
12719TIP3    H238101   6.303   6.817   5.913
12720TIP3   OH238102   0.946   3.526   5.294
12720TIP3    H138103   0.986   3.571   5.369
12720TIP3    H238104   0.855   3.553   5.296
12721TIP3   OH238105   3.079   1.635   4.015
12721TIP3    H138106   3.005   1.577   4.033
12721TIP3    H238107   3.154   1.576   4.004
12722TIP3   OH238108   1.398   3.164   2.828
12722TIP3    H138109   1.492   3.152   2.824
12722TIP3    H238110   1.386   3.251   2.867
12723TIP3   OH238111   5.780   3.243   6.201
12723TIP3    H138112   5.780   3.170   6.263
12723TIP3    H238113   5.714   3.304   6.235
12724TIP3   OH238114   3.161   0.377   0.899
12724TIP3    H138115   3.104   0.341   0.967
12724TIP3    H238116   3.124   0.463   0.880
12725TIP3   OH238117   3.216   2.709   4.199
12725TIP3    H138118   3.176   2.795   4.188
12725TIP3    H238119   3.144   2.647   4.187
12726TIP3   OH238120   7.620   4.411   6.366
12726TIP3    H138121   7.538   4.460   6.360
12726TIP3    H238122   7.607   4.352   6.440
12727TIP3   OH238123   8.019   7.175   2.257
12727TIP3    H138124   8.104   7.186   2.299
12727TIP3    H238125   8.023   7.088   2.217
12728TIP3   OH238126   0.221   0.693   6.449
12728TIP3    H138127   0.294   0.634   6.433
12728TIP3    H238128   0.246   0.775   6.406
12729TIP3   OH238129   2.077   4.512   3.002
12729TIP3    H138130   2.017   4.517   2.928
12729TIP3    H238131   2.055   4.587   3.056
12730TIP3   OH238132   2.711   4.942   3.343
12730TIP3    H138133   2.769   4.905   3.278
12730TIP3    H238134   2.682   5.025   3.305
12731TIP3   OH238135   4.521   0.371   3.455
12731TIP3    H138136   4.578   0.295   3.446
12731TIP3    H238137   4.436   0.335   3.477
12732TIP3   OH238138   2.546   7.233   4.201
12732TIP3    H138139   2.587   7.188   4.274
12732TIP3    H238140   2.615   7.242   4.136
12733TIP3   OH238141   3.201   0.122   4.081
12733TIP3    H138142   3.237   0.184   4.018
12733TIP3    H238143   3.113   0.103   4.049
12734TIP3   OH238144   0.647   5.186   2.661
12734TIP3    H138145   0.678   5.146   2.742
12734TIP3    H238146   0.553   5.195   2.672
12735TIP3   OH238147   5.626   4.274   1.990
12735TIP3    H138148   5.721   4.285   1.993
12735TIP3    H238149   5.613   4.195   1.938
12736TIP3   OH238150   0.014   7.664   2.143
12736TIP3    H138151  -0.021   7.575   2.149
12736TIP3    H238152   0.108   7.652   2.131
12737TIP3   OH238153   6.768   4.520   6.354
12737TIP3    H138154   6.791   4.438   6.310
12737TIP3    H238155   6.852   4.558   6.378
12738TIP3   OH238156   2.329   5.484   4.944
12738TIP3    H138157   2.287   5.545   5.005
12738TIP3    H238158   2.258   5.428   4.914
12739TIP3   OH238159   0.891   5.594   3.324
12739TIP3    H138160   0.877   5.635   3.409
12739TIP3    H238161   0.964   5.534   3.338
12740TIP3   OH238162   1.436   1.021   6.106
12740TIP3    H138163   1.515   1.066   6.136
12740TIP3    H238164   1.400   0.981   6.185
12741TIP3   OH238165   5.223   6.162   6.502
12741TIP3    H138166   5.169   6.238   6.523
12741TIP3    H238167   5.233   6.166   6.407
12742TIP3   OH238168   2.221   7.794   2.079
12742TIP3    H138169   2.192   7.715   2.032
12742TIP3    H238170   2.206   7.866   2.018
12743TIP3   OH238171   0.933   4.923   2.048
12743TIP3    H138172   0.980   4.847   2.083
12743TIP3    H238173   0.985   4.950   1.972
12744TIP3   OH238174   1.638   7.408   1.572
12744TIP3    H138175   1.703   7.461   1.618
12744TIP3    H238176   1.562   7.406   1.631
12745TIP3   OH238177   0.713   4.756   1.673
12745TIP3    H138178   0.736   4.844   1.704
12745TIP3    H238179   0.699   4.705   1.752
12746TIP3   OH238180   0.358   7.014   6.449
12746TIP3    H138181   0.392   6.963   6.376
12746TIP3    H238182   0.393   7.102   6.435
12747TIP3   OH238183   7.823   7.445   6.423
12747TIP3    H138184   7.807   7.450   6.329
12747TIP3    H238185   7.742   7.408   6.459
12748TIP3   OH238186   7.619   2.561   1.592
12748TIP3    H138187   7.554   2.493   1.606
12748TIP3    H238188   7.579   2.640   1.629
12749TIP3   OH238189   4.451   1.208   6.138
12749TIP3    H138190   4.533   1.207   6.089
12749TIP3    H238191   4.477   1.194   6.229
12750TIP3   OH238192   3.263   0.346   5.176
12750TIP3    H138193   3.176   0.315   5.201
12750TIP3    H238194   3.253   0.442   5.171
12751TIP3   OH238195   2.808   2.031   1.932
12751TIP3    H138196   2.903   2.029   1.930
12751TIP3    H238197   2.785   1.999   2.020
12752TIP3   OH238198   1.299   5.004   0.153
12752TIP3    H138199   1.323   4.925   0.104
12752TIP3    H238200   1.302   5.074   0.087
12753TIP3   OH238201   5.915   7.446   2.455
12753TIP3    H138202   5.996   7.490   2.481
12753TIP3    H238203   5.944   7.368   2.407
12754TIP3   OH238204   1.264   5.451   1.701
12754TIP3    H138205   1.233   5.490   1.783
12754TIP3    H238206   1.238   5.514   1.634
12755TIP3   OH238207   2.299   1.154   6.505
12755TIP3    H138208   2.210   1.147   6.538
12755TIP3    H238209   2.288   1.173   6.412
12756TIP3   OH238210   1.270   3.672   2.259
12756TIP3    H138211   1.229   3.623   2.331
12756TIP3    H238212   1.330   3.733   2.302
12757TIP3   OH238213   1.395   7.066   3.616
12757TIP3    H138214   1.446   7.002   3.567
12757TIP3    H238215   1.460   7.126   3.653
12758TIP3   OH238216   5.863   0.731   4.640
12758TIP3    H138217   5.956   0.746   4.655
12758TIP3    H238218   5.846   0.644   4.676
12759TIP3   OH238219   4.765   5.597   6.195
12759TIP3    H138220   4.738   5.688   6.183
12759TIP3    H238221   4.841   5.602   6.254
12760TIP3   OH238222   5.149   6.258   1.073
12760TIP3    H138223   5.079   6.322   1.087
12760TIP3    H238224   5.104   6.173   1.076
12761TIP3   OH238225   3.175   5.344   5.898
12761TIP3    H138226   3.170   5.436   5.924
12761TIP3    H238227   3.085   5.321   5.873
12762TIP3   OH238228   3.106   4.754   1.738
12762TIP3    H138229   3.115   4.669   1.695
12762TIP3    H238230   3.011   4.766   1.745
12763TIP3   OH238231   0.141   4.282   2.998
12763TIP3    H138232   0.199   4.348   2.960
12763TIP3    H238233   0.095   4.246   2.922
12764TIP3   OH238234   7.822   5.874   3.410
12764TIP3    H138235   7.779   5.854   3.493
12764TIP3    H238236   7.894   5.811   3.405
12765TIP3   OH238237   4.213   2.978   2.723
12765TIP3    H138238   4.271   3.039   2.677
12765TIP3    H238239   4.255   2.965   2.808
12766TIP3   OH238240   0.598   0.907   4.394
12766TIP3    H138241   0.541   0.946   4.460
12766TIP3    H238242   0.581   0.813   4.400
12767TIP3   OH238243   5.099   6.618   0.201
12767TIP3    H138244   5.190   6.611   0.173
12767TIP3    H238245   5.105   6.652   0.291
12768TIP3   OH238246   2.158   5.387   3.180
12768TIP3    H138247   2.252   5.386   3.166
12768TIP3    H238248   2.126   5.309   3.135
12769TIP3   OH238249   2.543   3.231   5.397
12769TIP3    H138250   2.557   3.236   5.302
12769TIP3    H238251   2.500   3.146   5.411
12770TIP3   OH238252   5.841   4.352   4.040
12770TIP3    H138253   5.916   4.362   3.982
12770TIP3    H238254   5.835   4.434   4.088
12771TIP3   OH238255   1.389   4.292   5.707
12771TIP3    H138256   1.341   4.341   5.774
12771TIP3    H238257   1.435   4.224   5.756
12772TIP3   OH238258   4.824   0.709   6.733
12772TIP3    H138259   4.872   0.646   6.786
12772TIP3    H238260   4.890   0.775   6.710
12773TIP3   OH238261   2.006   0.208   5.748
12773TIP3    H138262   1.979   0.116   5.753
12773TIP3    H238263   1.991   0.232   5.656
12774TIP3   OH238264   4.455   3.220   3.968
12774TIP3    H138265   4.420   3.307   3.945
12774TIP3    H238266   4.405   3.194   4.045
12775TIP3   OH238267   3.203   5.015   4.605
12775TIP3    H138268   3.263   5.090   4.612
12775TIP3    H238269   3.248   4.953   4.548
12776TIP3   OH238270   6.502   5.037   5.528
12776TIP3    H138271   6.489   4.951   5.568
12776TIP3    H238272   6.582   5.070   5.569
12777TIP3   OH238273   6.378   4.347   4.418
12777TIP3    H138274   6.338   4.340   4.505
12777TIP3    H238275   6.309   4.317   4.358
12778TIP3   OH238276   0.722   0.473   1.107
12778TIP3    H138277   0.812   0.508   1.106
12778TIP3    H238278   0.704   0.450   1.016
12779TIP3   OH238279   3.884   0.533   5.814
12779TIP3    H138280   3.860   0.448   5.777
12779TIP3    H238281   3.952   0.566   5.756
12780TIP3   OH238282   8.076   6.894   4.291
12780TIP3    H138283   7.991   6.854   4.278
12780TIP3    H238284   8.138   6.821   4.294
12781TIP3   OH238285   4.054   2.383   4.311
12781TIP3    H138286   3.961   2.370   4.291
12781TIP3    H238287   4.054   2.418   4.400
12782TIP3   OH238288   2.826   6.024   3.141
12782TIP3    H138289   2.828   6.017   3.236
12782TIP3    H238290   2.803   6.116   3.125
12783TIP3   OH238291   8.152   1.751   1.204
12783TIP3    H138292   8.079   1.765   1.144
12783TIP3    H238293   8.117   1.695   1.273
12784TIP3   OH238294   6.852   7.169   0.183
12784TIP3    H138295   6.794   7.200   0.114
12784TIP3    H238296   6.876   7.080   0.156
12785TIP3   OH238297   0.693   3.893   0.193
12785TIP3    H138298   0.665   3.905   0.283
12785TIP3    H238299   0.615   3.862   0.147
12786TIP3   OH238300   8.078   7.597   1.180
12786TIP3    H138301   8.140   7.524   1.175
12786TIP3    H238302   8.128   7.669   1.217
12787TIP3   OH238303   7.204   0.527   2.497
12787TIP3    H138304   7.165   0.578   2.569
12787TIP3    H238305   7.130   0.481   2.458
12788TIP3   OH238306   5.398   1.759   3.869
12788TIP3    H138307   5.446   1.839   3.849
12788TIP3    H238308   5.423   1.737   3.958
12789TIP3   OH238309   3.246   0.776   4.018
12789TIP3    H138310   3.229   0.777   4.113
12789TIP3    H238311   3.168   0.817   3.980
12790TIP3   OH238312   6.656   5.252   5.007
12790TIP3    H138313   6.646   5.317   5.078
12790TIP3    H238314   6.745   5.220   5.017
12791TIP3   OH238315   8.076   3.219   2.693
12791TIP3    H138316   8.083   3.289   2.628
12791TIP3    H238317   8.157   3.226   2.744
12792TIP3   OH238318   1.599   2.049   1.112
12792TIP3    H138319   1.693   2.060   1.125
12792TIP3    H238320   1.585   2.071   1.019
12793TIP3   OH238321   6.250   4.058   1.212
12793TIP3    H138322   6.232   4.018   1.297
12793TIP3    H238323   6.303   3.994   1.166
12794TIP3   OH238324   1.986   5.313   0.567
12794TIP3    H138325   1.952   5.398   0.594
12794TIP3    H238326   1.907   5.260   0.553
12795TIP3   OH238327   6.340   7.646   0.039
12795TIP3    H138328   6.289   7.678   0.114
12795TIP3    H238329   6.273   7.617  -0.025
12796TIP3   OH238330   7.709   0.958   1.066
12796TIP3    H138331   7.747   0.928   0.984
12796TIP3    H238332   7.782   0.963   1.127
12797TIP3   OH238333   8.076   2.238   3.172
12797TIP3    H138334   8.128   2.250   3.251
12797TIP3    H238335   8.076   2.144   3.157
12798TIP3   OH238336   5.019   3.482   4.663
12798TIP3    H138337   5.084   3.412   4.665
12798TIP3    H238338   4.935   3.436   4.663
12799TIP3   OH238339   1.771   1.491   5.816
12799TIP3    H138340   1.753   1.443   5.735
12799TIP3    H238341   1.774   1.583   5.790
12800TIP3   OH238342   6.427   5.908   4.261
12800TIP3    H138343   6.431   5.997   4.226
12800TIP3    H238344   6.518   5.879   4.261
12801TIP3   OH238345   4.268   0.388   0.300
12801TIP3    H138346   4.331   0.329   0.342
12801TIP3    H238347   4.275   0.369   0.206
12802TIP3   OH238348   6.074   6.579   5.244
12802TIP3    H138349   6.083   6.643   5.174
12802TIP3    H238350   6.141   6.604   5.308
12803TIP3   OH238351   1.913   5.325   5.515
12803TIP3    H138352   1.891   5.274   5.592
12803TIP3    H238353   1.840   5.386   5.504
12804TIP3   OH238354   8.199   0.741   0.301
12804TIP3    H138355   8.280   0.713   0.258
12804TIP3    H238356   8.190   0.683   0.377
12805TIP3   OH238357   6.704   0.748   0.067
12805TIP3    H138358   6.644   0.676   0.052
12805TIP3    H238359   6.649   0.818   0.102
12806TIP3   OH238360   0.263   0.520   0.287
12806TIP3    H138361   0.207   0.569   0.226
12806TIP3    H238362   0.210   0.513   0.367
12807TIP3   OH238363   5.936   7.178   4.068
12807TIP3    H138364   5.887   7.229   4.133
12807TIP3    H238365   6.015   7.150   4.115
12808TIP3   OH238366   3.792   5.674   5.262
12808TIP3    H138367   3.797   5.742   5.195
12808TIP3    H238368   3.735   5.607   5.224
12809TIP3   OH238369   6.235   2.988   4.286
12809TIP3    H138370   6.292   2.994   4.363
12809TIP3    H238371   6.177   3.064   4.292
12810TIP3   OH238372   1.930   2.137   4.252
12810TIP3    H138373   1.844   2.149   4.292
12810TIP3    H238374   1.989   2.187   4.308
12811TIP3   OH238375   2.089   3.851   3.420
12811TIP3    H138376   2.080   3.791   3.494
12811TIP3    H238377   2.180   3.839   3.391
12812TIP3   OH238378   1.758   6.948   0.942
12812TIP3    H138379   1.845   6.915   0.965
12812TIP3    H238380   1.768   7.044   0.942
12813TIP3   OH238381   5.274   5.570   0.021
12813TIP3    H138382   5.190   5.525   0.010
12813TIP3    H238383   5.251   5.663   0.026
12814TIP3   OH238384   2.986   3.067   3.006
12814TIP3    H138385   3.001   3.125   3.081
12814TIP3    H238386   2.901   3.095   2.972
12815TIP3   OH238387   0.704   1.298   1.684
12815TIP3    H138388   0.776   1.281   1.745
12815TIP3    H238389   0.748   1.320   1.601
12816TIP3   OH238390   7.413   2.179   3.745
12816TIP3    H138391   7.372   2.106   3.698
12816TIP3    H238392   7.490   2.139   3.787
12817TIP3   OH238393   5.441   2.495   4.465
12817TIP3    H138394   5.364   2.439   4.478
12817TIP3    H238395   5.404   2.583   4.454
12818TIP3   OH238396   4.130   7.702   0.988
12818TIP3    H138397   4.173   7.781   0.955
12818TIP3    H238398   4.165   7.631   0.935
12819TIP3   OH238399   1.670   6.532   2.677
12819TIP3    H138400   1.627   6.500   2.756
12819TIP3    H238401   1.623   6.489   2.605
12820TIP3   OH238402   8.072   5.788   4.250
12820TIP3    H138403   8.147   5.838   4.216
12820TIP3    H238404   8.075   5.802   4.344
12821TIP3   OH238405   7.319   0.787   5.366
12821TIP3    H138406   7.379   0.724   5.326
12821TIP3    H238407   7.232   0.758   5.338
12822TIP3   OH238408   1.818   3.788   5.649
12822TIP3    H138409   1.756   3.842   5.600
12822TIP3    H238410   1.814   3.821   5.738
12823TIP3   OH238411   7.552   3.969   0.500
12823TIP3    H138412   7.554   3.989   0.406
12823TIP3    H238413   7.460   3.947   0.518
12824TIP3   OH238414   6.163   4.721   5.232
12824TIP3    H138415   6.236   4.682   5.280
12824TIP3    H238416   6.154   4.809   5.270
12825TIP3   OH238417   1.443   1.183   2.447
12825TIP3    H138418   1.446   1.260   2.391
12825TIP3    H238419   1.408   1.114   2.391
12826TIP3   OH238420   8.268   7.102   0.633
12826TIP3    H138421   8.357   7.092   0.598
12826TIP3    H238422   8.223   7.156   0.569
12827TIP3   OH238423   7.575   1.639   1.844
12827TIP3    H138424   7.648   1.691   1.811
12827TIP3    H238425   7.499   1.674   1.797
12828TIP3   OH238426   3.053   1.270   5.142
12828TIP3    H138427   3.102   1.247   5.063
12828TIP3    H238428   3.092   1.353   5.171
12829TIP3   OH238429   2.693   2.676   5.722
12829TIP3    H138430   2.775   2.723   5.739
12829TIP3    H238431   2.687   2.671   5.627
12830TIP3   OH238432   2.823   6.906   6.495
12830TIP3    H138433   2.759   6.910   6.566
12830TIP3    H238434   2.884   6.838   6.521
12831TIP3   OH238435   5.694   4.515   1.628
12831TIP3    H138436   5.778   4.526   1.674
12831TIP3    H238437   5.633   4.490   1.697
12832TIP3   OH238438   3.752   2.267   5.628
12832TIP3    H138439   3.721   2.241   5.715
12832TIP3    H238440   3.843   2.293   5.642
12833TIP3   OH238441   7.388   0.139   5.479
12833TIP3    H138442   7.395   0.064   5.421
12833TIP3    H238443   7.417   0.107   5.564
12834TIP3   OH238444   4.421   6.949   5.279
12834TIP3    H138445   4.511   6.947   5.247
12834TIP3    H238446   4.415   7.032   5.327
12835TIP3   OH238447   6.913   0.914   2.785
12835TIP3    H138448   6.824   0.881   2.781
12835TIP3    H238449   6.920   0.959   2.869
12836TIP3   OH238450   0.889   3.335   1.978
12836TIP3    H138451   0.892   3.298   1.890
12836TIP3    H238452   0.977   3.323   2.013
12837TIP3   OH238453   0.666   4.788   2.905
12837TIP3    H138454   0.670   4.724   2.976
12837TIP3    H238455   0.573   4.796   2.885
12838TIP3   OH238456   6.847   1.861   5.438
12838TIP3    H138457   6.850   1.766   5.447
12838TIP3    H238458   6.823   1.893   5.525
12839TIP3   OH238459   7.668   7.370   2.631
12839TIP3    H138460   7.692   7.435   2.565
12839TIP3    H238461   7.575   7.356   2.619
12840TIP3   OH238462   7.648   4.875   4.565
12840TIP3    H138463   7.702   4.946   4.600
12840TIP3    H238464   7.698   4.796   4.585
12841TIP3   OH238465   7.197   1.992   0.021
12841TIP3    H138466   7.150   1.978   0.102
12841TIP3    H238467   7.289   2.002   0.047
12842TIP3   OH238468   1.628   4.426   3.369
12842TIP3    H138469   1.685   4.437   3.445
12842TIP3    H238470   1.682   4.378   3.306
12843TIP3   OH238471   1.154   5.575   2.337
12843TIP3    H138472   1.060   5.590   2.353
12843TIP3    H238473   1.198   5.633   2.399
12844TIP3   OH238474   1.192   2.500   3.081
12844TIP3    H138475   1.159   2.431   3.138
12844TIP3    H238476   1.194   2.461   2.994
12845TIP3   OH238477   1.701   5.397   5.054
12845TIP3    H138478   1.665   5.417   4.968
12845TIP3    H238479   1.716   5.483   5.094
12846TIP3   OH238480   0.245   1.921   0.962
12846TIP3    H138481   0.292   1.905   1.044
12846TIP3    H238482   0.275   2.007   0.934
12847TIP3   OH238483   0.268   6.655   0.265
12847TIP3    H138484   0.233   6.576   0.306
12847TIP3    H238485   0.302   6.707   0.338
12848TIP3   OH238486   3.580   0.532   6.398
12848TIP3    H138487   3.486   0.523   6.417
12848TIP3    H238488   3.623   0.514   6.481
12849TIP3   OH238489   4.193   2.484   5.892
12849TIP3    H138490   4.267   2.502   5.833
12849TIP3    H238491   4.123   2.540   5.859
12850TIP3   OH238492   4.897   4.022   1.178
12850TIP3    H138493   4.900   4.106   1.132
12850TIP3    H238494   4.811   4.021   1.221
12851TIP3   OH238495   5.295   0.427   0.210
12851TIP3    H138496   5.246   0.353   0.245
12851TIP3    H238497   5.333   0.469   0.287
12852TIP3   OH238498   7.834   1.493   0.657
12852TIP3    H138499   7.819   1.452   0.742
12852TIP3    H238500   7.747   1.502   0.619
12853TIP3   OH238501   7.260   4.914   1.623
12853TIP3    H138502   7.309   4.994   1.606
12853TIP3    H238503   7.327   4.851   1.649
12854TIP3   OH238504   3.941   6.302   3.245
12854TIP3    H138505   4.019   6.250   3.261
12854TIP3    H238506   3.911   6.329   3.332
12855TIP3   OH238507   0.990   1.117   4.275
12855TIP3    H138508   0.974   1.156   4.189
12855TIP3    H238509   1.076   1.149   4.301
12856TIP3   OH238510   5.175   1.470   4.089
12856TIP3    H138511   5.223   1.389   4.108
12856TIP3    H238512   5.241   1.539   4.092
12857TIP3   OH238513   5.906   6.456   5.042
12857TIP3    H138514   5.964   6.521   5.082
12857TIP3    H238515   5.818   6.488   5.062
12858TIP3   OH238516   4.865   4.209   4.501
12858TIP3    H138517   4.838   4.240   4.588
12858TIP3    H238518   4.894   4.118   4.516
12859TIP3   OH238519   7.281   5.513   5.711
12859TIP3    H138520   7.362   5.473   5.681
12859TIP3    H238521   7.260   5.579   5.644
12860TIP3   OH238522   0.151   4.356   3.805
12860TIP3    H138523   0.186   4.390   3.723
12860TIP3    H238524   0.139   4.263   3.789
12861TIP3   OH238525   1.298   0.326   1.590
12861TIP3    H138526   1.304   0.328   1.685
12861TIP3    H238527   1.380   0.365   1.559
12862TIP3   OH238528   1.952   6.085   3.732
12862TIP3    H138529   1.888   6.050   3.793
12862TIP3    H238530   1.925   6.176   3.717
12863TIP3   OH238531   0.200   1.553   0.350
12863TIP3    H138532   0.184   1.632   0.298
12863TIP3    H238533   0.135   1.557   0.420
12864TIP3   OH238534   7.966   3.698   1.291
12864TIP3    H138535   8.004   3.695   1.203
12864TIP3    H238536   7.885   3.648   1.283
12865TIP3   OH238537   3.416   5.106   2.312
12865TIP3    H138538   3.342   5.165   2.328
12865TIP3    H238539   3.399   5.069   2.226
12866TIP3   OH238540   4.160   4.477   0.937
12866TIP3    H138541   4.079   4.487   0.887
12866TIP3    H238542   4.163   4.553   0.994
12867TIP3   OH238543   0.338   4.031   1.711
12867TIP3    H138544   0.361   3.965   1.776
12867TIP3    H238545   0.283   4.093   1.758
12868TIP3   OH238546   3.441   2.708   4.376
12868TIP3    H138547   3.383   2.717   4.300
12868TIP3    H238548   3.421   2.620   4.411
12869TIP3   OH238549   6.007   5.006   5.266
12869TIP3    H138550   6.070   5.034   5.333
12869TIP3    H238551   5.966   5.087   5.236
12870TIP3   OH238552   3.295   1.865   4.401
12870TIP3    H138553   3.376   1.822   4.430
12870TIP3    H238554   3.294   1.948   4.449
12871TIP3   OH238555   8.195   3.679   2.323
12871TIP3    H138556   8.188   3.602   2.266
12871TIP3    H238557   8.111   3.725   2.311
12872TIP3   OH238558   3.679   7.560   3.834
12872TIP3    H138559   3.672   7.520   3.747
12872TIP3    H238560   3.771   7.548   3.858
12873TIP3   OH238561   4.487   4.072   2.012
12873TIP3    H138562   4.498   3.995   2.068
12873TIP3    H238563   4.430   4.042   1.941
12874TIP3   OH238564   3.072   2.741   6.239
12874TIP3    H138565   3.159   2.742   6.199
12874TIP3    H238566   3.075   2.668   6.300
12875TIP3   OH238567   4.286   2.675   6.679
12875TIP3    H138568   4.275   2.690   6.773
12875TIP3    H238569   4.252   2.755   6.638
12876TIP3   OH238570   0.243   7.222   3.680
12876TIP3    H138571   0.329   7.263   3.672
12876TIP3    H238572   0.260   7.128   3.675
12877TIP3   OH238573   0.776   7.589   2.058
12877TIP3    H138574   0.850   7.595   2.118
12877TIP3    H238575   0.727   7.513   2.089
12878TIP3   OH238576   5.684   3.923   4.808
12878TIP3    H138577   5.778   3.923   4.829
12878TIP3    H238578   5.646   3.857   4.866
12879TIP3   OH238579   3.880   4.159   1.780
12879TIP3    H138580   3.943   4.155   1.708
12879TIP3    H238581   3.932   4.180   1.857
12880TIP3   OH238582   6.212   1.396   3.552
12880TIP3    H138583   6.258   1.396   3.636
12880TIP3    H238584   6.152   1.322   3.558
12881TIP3   OH238585   0.041   6.315   6.465
12881TIP3    H138586   0.121   6.296   6.415
12881TIP3    H238587  -0.012   6.369   6.406
12882TIP3   OH238588   7.565   6.785   0.088
12882TIP3    H138589   7.537   6.729   0.161
12882TIP3    H238590   7.491   6.782   0.027
12883TIP3   OH238591   1.248   1.638   6.337
12883TIP3    H138592   1.330   1.604   6.300
12883TIP3    H238593   1.220   1.571   6.399
12884TIP3   OH238594   3.540   1.133   4.488
12884TIP3    H138595   3.467   1.160   4.543
12884TIP3    H238596   3.602   1.206   4.495
12885TIP3   OH238597   7.236   1.568   4.177
12885TIP3    H138598   7.280   1.646   4.211
12885TIP3    H238599   7.308   1.515   4.142
12886TIP3   OH238600   3.894   1.667   3.981
12886TIP3    H138601   3.972   1.708   3.946
12886TIP3    H238602   3.888   1.699   4.071
12887TIP3   OH238603   6.175   4.911   5.674
12887TIP3    H138604   6.136   4.964   5.605
12887TIP3    H238605   6.161   4.820   5.646
12888TIP3   OH238606   1.389   4.387   5.458
12888TIP3    H138607   1.435   4.334   5.393
12888TIP3    H238608   1.397   4.337   5.539
12889TIP3   OH238609   6.539   7.841   0.516
12889TIP3    H138610   6.470   7.801   0.569
12889TIP3    H238611   6.529   7.800   0.430
12890TIP3   OH238612   0.447   5.852   2.660
12890TIP3    H138613   0.534   5.861   2.623
12890TIP3    H238614   0.391   5.828   2.586
12891TIP3   OH238615   4.494   2.902   5.554
12891TIP3    H138616   4.437   2.827   5.539
12891TIP3    H238617   4.478   2.927   5.645
12892TIP3   OH238618   0.589   7.547   5.541
12892TIP3    H138619   0.678   7.530   5.510
12892TIP3    H238620   0.535   7.544   5.462
12893TIP3   OH238621   7.546   3.723   2.018
12893TIP3    H138622   7.545   3.749   2.111
12893TIP3    H238623   7.496   3.792   1.974
12894TIP3   OH238624   2.388   4.094   6.746
12894TIP3    H138625   2.474   4.135   6.735
12894TIP3    H238626   2.383   4.031   6.674
12895TIP3   OH238627   4.135   2.304   6.525
12895TIP3    H138628   4.128   2.244   6.599
12895TIP3    H238629   4.057   2.359   6.531
12896TIP3   OH238630   2.577   3.210   4.326
12896TIP3    H138631   2.504   3.259   4.289
12896TIP3    H238632   2.638   3.277   4.356
12897TIP3   OH238633   7.129   2.049   3.650
12897TIP3    H138634   7.071   2.125   3.662
12897TIP3    H238635   7.092   1.982   3.707
12898TIP3   OH238636   6.978   2.499   6.581
12898TIP3    H138637   7.009   2.539   6.662
12898TIP3    H238638   7.012   2.555   6.511
12899TIP3   OH238639   0.005   5.805   4.692
12899TIP3    H138640   0.083   5.803   4.637
12899TIP3    H238641  -0.064   5.765   4.638
12900TIP3   OH238642   5.234   5.272   6.031
12900TIP3    H138643   5.247   5.350   6.085
12900TIP3    H238644   5.216   5.202   6.094
12901TIP3   OH238645   4.059   5.832   1.156
12901TIP3    H138646   4.137   5.877   1.125
12901TIP3    H238647   4.030   5.780   1.081
12902TIP3   OH238648   7.533   4.069   1.509
12902TIP3    H138649   7.525   4.100   1.419
12902TIP3    H238650   7.548   4.149   1.560
12903TIP3   OH238651   3.956   6.775   2.108
12903TIP3    H138652   3.990   6.793   2.196
12903TIP3    H238653   3.891   6.707   2.122
12904TIP3   OH238654   7.193   3.233   0.477
12904TIP3    H138655   7.215   3.270   0.563
12904TIP3    H238656   7.184   3.140   0.492
12905TIP3   OH238657   5.461   0.308   1.943
12905TIP3    H138658   5.487   0.226   1.984
12905TIP3    H238659   5.469   0.373   2.012
12906TIP3   OH238660   7.851   7.515   1.344
12906TIP3    H138661   7.913   7.567   1.293
12906TIP3    H238662   7.820   7.575   1.412
12907TIP3   OH238663   5.811   4.173   3.138
12907TIP3    H138664   5.724   4.176   3.176
12907TIP3    H238665   5.821   4.258   3.094
12908TIP3   OH238666   1.103   5.958   4.703
12908TIP3    H138667   1.090   5.879   4.756
12908TIP3    H238668   1.125   5.925   4.616
12909TIP3   OH238669   2.380   0.970   1.702
12909TIP3    H138670   2.305   0.955   1.646
12909TIP3    H238671   2.455   0.972   1.643
12910TIP3   OH238672   2.892   3.604   4.196
12910TIP3    H138673   2.905   3.620   4.103
12910TIP3    H238674   2.803   3.634   4.213
12911TIP3   OH238675   3.419   0.270   1.414
12911TIP3    H138676   3.468   0.192   1.442
12911TIP3    H238677   3.383   0.246   1.328
12912TIP3   OH238678   6.217   5.856   0.691
12912TIP3    H138679   6.260   5.889   0.612
12912TIP3    H238680   6.160   5.785   0.660
12913TIP3   OH238681   0.827   7.104   0.254
12913TIP3    H138682   0.843   7.151   0.336
12913TIP3    H238683   0.764   7.158   0.207
12914TIP3   OH238684   7.367   6.558   1.922
12914TIP3    H138685   7.326   6.508   1.851
12914TIP3    H238686   7.441   6.504   1.949
12915TIP3   OH238687   0.516   3.808   4.727
12915TIP3    H138688   0.528   3.897   4.694
12915TIP3    H238689   0.436   3.777   4.684
12916TIP3   OH238690   4.897   1.083   0.429
12916TIP3    H138691   4.880   1.162   0.480
12916TIP3    H238692   4.859   1.100   0.343
12917TIP3   OH238693   1.089   5.708   1.065
12917TIP3    H138694   1.076   5.667   1.151
12917TIP3    H238695   1.029   5.660   1.007
12918TIP3   OH238696   1.586   4.220   2.835
12918TIP3    H138697   1.543   4.215   2.750
12918TIP3    H238698   1.570   4.134   2.875
12919TIP3   OH238699   3.209   4.563   5.115
12919TIP3    H138700   3.207   4.471   5.091
12919TIP3    H238701   3.284   4.571   5.174
12920TIP3   OH238702   5.784   5.462   4.579
12920TIP3    H138703   5.782   5.373   4.543
12920TIP3    H238704   5.813   5.451   4.670
12921TIP3   OH238705   0.718   0.236   1.531
12921TIP3    H138706   0.756   0.252   1.618
12921TIP3    H238707   0.767   0.294   1.472
12922TIP3   OH238708   0.314   6.520   3.088
12922TIP3    H138709   0.410   6.516   3.098
12922TIP3    H238710   0.280   6.481   3.168
12923TIP3   OH238711   3.942   3.386   4.037
12923TIP3    H138712   4.004   3.443   3.991
12923TIP3    H238713   3.933   3.309   3.981
12924TIP3   OH238714   6.186   6.244   5.449
12924TIP3    H138715   6.166   6.207   5.535
12924TIP3    H238716   6.122   6.314   5.438
12925TIP3   OH238717   2.790   7.259   3.003
12925TIP3    H138718   2.845   7.295   2.933
12925TIP3    H238719   2.747   7.183   2.963
12926TIP3   OH238720   3.587   3.228   2.041
12926TIP3    H138721   3.665   3.283   2.045
12926TIP3    H238722   3.516   3.286   2.071
12927TIP3   OH238723   5.297   0.503   2.851
12927TIP3    H138724   5.304   0.477   2.943
12927TIP3    H238725   5.227   0.568   2.849
12928TIP3   OH238726   7.106   2.594   3.662
12928TIP3    H138727   7.149   2.564   3.742
12928TIP3    H238728   7.173   2.586   3.595
12929TIP3   OH238729   8.053   4.772   2.906
12929TIP3    H138730   8.133   4.796   2.858
12929TIP3    H238731   8.068   4.682   2.934
12930TIP3   OH238732   3.968   1.865   0.440
12930TIP3    H138733   3.902   1.798   0.454
12930TIP3    H238734   4.027   1.828   0.374
12931TIP3   OH238735   6.363   2.805   1.122
12931TIP3    H138736   6.294   2.800   1.189
12931TIP3    H238737   6.368   2.716   1.087
12932TIP3   OH238738   6.476   7.070   2.136
12932TIP3    H138739   6.402   7.091   2.079
12932TIP3    H238740   6.553   7.074   2.080
12933TIP3   OH238741   0.280   3.134   3.872
12933TIP3    H138742   0.295   3.041   3.890
12933TIP3    H238743   0.342   3.179   3.929
12934TIP3   OH238744   6.666   1.814   4.380
12934TIP3    H138745   6.707   1.869   4.314
12934TIP3    H238746   6.736   1.792   4.441
12935TIP3   OH238747   1.723   3.110   0.389
12935TIP3    H138748   1.718   3.018   0.415
12935TIP3    H238749   1.654   3.120   0.323
12936TIP3   OH238750   7.079   6.284   2.236
12936TIP3    H138751   7.093   6.212   2.298
12936TIP3    H238752   7.167   6.308   2.208
12937TIP3   OH238753   0.605   1.736   3.957
12937TIP3    H138754   0.548   1.811   3.973
12937TIP3    H238755   0.568   1.666   4.011
12938TIP3   OH238756   7.171   1.891   1.781
12938TIP3    H138757   7.189   1.911   1.873
12938TIP3    H238758   7.161   1.977   1.739
12939TIP3   OH238759   2.050   1.111   1.144
12939TIP3    H138760   2.018   1.030   1.183
12939TIP3    H238761   2.071   1.167   1.219
12940TIP3   OH238762   2.934   4.033   1.437
12940TIP3    H138763   2.876   4.105   1.413
12940TIP3    H238764   2.909   3.961   1.378
12941TIP3   OH238765   2.256   6.307   3.897
12941TIP3    H138766   2.303   6.338   3.975
12941TIP3    H238767   2.272   6.375   3.831
12942TIP3   OH238768   1.449   4.702   5.961
12942TIP3    H138769   1.413   4.739   5.881
12942TIP3    H238770   1.379   4.710   6.026
12943TIP3   OH238771   6.908   7.321   6.050
12943TIP3    H138772   6.982   7.288   6.101
12943TIP3    H238773   6.947   7.379   5.985
12944TIP3   OH238774   5.559   7.117   5.373
12944TIP3    H138775   5.584   7.091   5.462
12944TIP3    H238776   5.607   7.056   5.317
12945TIP3   OH238777   2.563   1.509   1.034
12945TIP3    H138778   2.633   1.444   1.030
12945TIP3    H238779   2.498   1.470   1.093
12946TIP3   OH238780   6.258   4.775   0.220
12946TIP3    H138781   6.281   4.694   0.175
12946TIP3    H238782   6.318   4.840   0.184
12947TIP3   OH238783   0.487   3.465   5.294
12947TIP3    H138784   0.459   3.425   5.212
12947TIP3    H238785   0.530   3.395   5.342
12948TIP3   OH238786   0.703   0.980   2.962
12948TIP3    H138787   0.710   0.913   3.029
12948TIP3    H238788   0.788   1.025   2.963
12949TIP3   OH238789   3.947   2.739   4.995
12949TIP3    H138790   3.964   2.816   5.049
12949TIP3    H238791   4.010   2.674   5.025
12950TIP3   OH238792   3.588   1.331   5.843
12950TIP3    H138793   3.627   1.353   5.758
12950TIP3    H238794   3.581   1.235   5.842
12951TIP3   OH238795   8.052   7.401   3.713
12951TIP3    H138796   8.097   7.322   3.684
12951TIP3    H238797   8.122   7.463   3.732
12952TIP3   OH238798   3.979   6.866   3.982
12952TIP3    H138799   3.987   6.958   4.007
12952TIP3    H238800   3.885   6.855   3.964
12953TIP3   OH238801   5.879   7.473   1.933
12953TIP3    H138802   5.788   7.501   1.920
12953TIP3    H238803   5.874   7.378   1.938
12954TIP3   OH238804   5.183   2.127   0.413
12954TIP3    H138805   5.110   2.139   0.474
12954TIP3    H238806   5.178   2.203   0.355
12955TIP3   OH238807   2.606   3.621   4.922
12955TIP3    H138808   2.606   3.677   4.999
12955TIP3    H238809   2.552   3.668   4.858
12956TIP3   OH238810   3.046   6.229   4.870
12956TIP3    H138811   2.971   6.188   4.913
12956TIP3    H238812   3.122   6.197   4.919
12957TIP3   OH238813   1.465   2.905   0.482
12957TIP3    H138814   1.386   2.937   0.437
12957TIP3    H238815   1.445   2.915   0.575
12958TIP3   OH238816   0.569   0.811   2.752
12958TIP3    H138817   0.642   0.837   2.808
12958TIP3    H238818   0.560   0.883   2.690
12959TIP3   OH238819   6.313   6.178   6.597
12959TIP3    H138820   6.247   6.150   6.534
12959TIP3    H238821   6.391   6.197   6.544
12960TIP3   OH238822   1.164   6.161   0.707
12960TIP3    H138823   1.114   6.117   0.775
12960TIP3    H238824   1.106   6.229   0.674
12961TIP3   OH238825   6.844   6.987   2.757
12961TIP3    H138826   6.856   6.989   2.662
12961TIP3    H238827   6.751   7.003   2.770
12962TIP3   OH238828   8.037   5.649   0.142
12962TIP3    H138829   8.092   5.576   0.113
12962TIP3    H238830   8.093   5.698   0.202
12963TIP3   OH238831   1.815   6.580   0.302
12963TIP3    H138832   1.790   6.619   0.218
12963TIP3    H238833   1.763   6.500   0.308
12964TIP3   OH238834   1.641   1.053   3.137
12964TIP3    H138835   1.635   1.131   3.082
12964TIP3    H238836   1.550   1.028   3.153
12965TIP3   OH238837   1.798   3.461   0.051
12965TIP3    H138838   1.868   3.484   0.112
12965TIP3    H238839   1.718   3.490   0.095
12966TIP3   OH238840   0.972   7.155   1.333
12966TIP3    H138841   1.007   7.200   1.410
12966TIP3    H238842   1.029   7.182   1.261
12967TIP3   OH238843   6.794   2.796   1.771
12967TIP3    H138844   6.860   2.796   1.840
12967TIP3    H238845   6.725   2.738   1.804
12968TIP3   OH238846   3.477   7.544   3.445
12968TIP3    H138847   3.550   7.514   3.392
12968TIP3    H238848   3.510   7.622   3.490
12969TIP3   OH238849   6.826   1.219   6.665
12969TIP3    H138850   6.913   1.182   6.648
12969TIP3    H238851   6.765   1.155   6.628
12970TIP3   OH238852   1.274   1.427   1.666
12970TIP3    H138853   1.211   1.479   1.615
12970TIP3    H238854   1.333   1.492   1.703
12971TIP3   OH238855   1.708   3.315   1.407
12971TIP3    H138856   1.692   3.407   1.425
12971TIP3    H238857   1.649   3.268   1.467
12972TIP3   OH238858   7.570   6.427   6.443
12972TIP3    H138859   7.627   6.403   6.370
12972TIP3    H238860   7.597   6.517   6.466
12973TIP3   OH238861   7.587   5.254   5.758
12973TIP3    H138862   7.581   5.318   5.829
12973TIP3    H238863   7.642   5.297   5.692
12974TIP3   OH238864   4.746   4.198   4.807
12974TIP3    H138865   4.656   4.231   4.796
12974TIP3    H238866   4.746   4.116   4.758
12975TIP3   OH238867   3.127   5.757   4.434
12975TIP3    H138868   3.217   5.762   4.402
12975TIP3    H238869   3.098   5.669   4.411
12976TIP3   OH238870   3.796   1.338   3.759
12976TIP3    H138871   3.709   1.362   3.789
12976TIP3    H238872   3.835   1.290   3.832
12977TIP3   OH238873   1.558   3.941   5.300
12977TIP3    H138874   1.587   3.859   5.260
12977TIP3    H238875   1.639   3.983   5.328
12978TIP3   OH238876   6.135   5.173   6.581
12978TIP3    H138877   6.053   5.178   6.629
12978TIP3    H238878   6.198   5.220   6.636
12979TIP3   OH238879   4.914   2.594   1.477
12979TIP3    H138880   4.820   2.591   1.497
12979TIP3    H238881   4.923   2.663   1.412
12980TIP3   OH238882   3.308   0.853   5.567
12980TIP3    H138883   3.350   0.865   5.482
12980TIP3    H238884   3.220   0.822   5.547
12981TIP3   OH238885   4.620   7.705   5.407
12981TIP3    H138886   4.663   7.650   5.472
12981TIP3    H238887   4.640   7.664   5.323
12982TIP3   OH238888   8.119   7.738   5.541
12982TIP3    H138889   8.046   7.701   5.592
12982TIP3    H238890   8.106   7.704   5.453
12983TIP3   OH238891   5.853   4.201   2.393
12983TIP3    H138892   5.796   4.149   2.336
12983TIP3    H238893   5.864   4.147   2.472
12984TIP3   OH238894   5.586   5.245   2.547
12984TIP3    H138895   5.493   5.223   2.546
12984TIP3    H238896   5.618   5.220   2.460
12985TIP3   OH238897   4.521   0.936   0.600
12985TIP3    H138898   4.468   0.984   0.663
12985TIP3    H238899   4.532   0.997   0.527
12986TIP3   OH238900   5.970   5.492   0.256
12986TIP3    H138901   5.997   5.406   0.225
12986TIP3    H238902   5.983   5.489   0.351
12987TIP3   OH238903   6.015   5.635   3.378
12987TIP3    H138904   5.986   5.574   3.446
12987TIP3    H238905   5.995   5.590   3.296
12988TIP3   OH238906   2.389   5.574   1.361
12988TIP3    H138907   2.481   5.575   1.337
12988TIP3    H238908   2.372   5.662   1.395
12989TIP3   OH238909   0.749   2.705   0.710
12989TIP3    H138910   0.767   2.798   0.700
12989TIP3    H238911   0.722   2.695   0.801
12990TIP3   OH238912   6.449   7.230   6.280
12990TIP3    H138913   6.433   7.241   6.186
12990TIP3    H238914   6.544   7.235   6.289
12991TIP3   OH238915   7.026   0.377   6.463
12991TIP3    H138916   7.084   0.451   6.480
12991TIP3    H238917   7.026   0.328   6.545
12992TIP3   OH238918   4.176   4.423   5.999
12992TIP3    H138919   4.097   4.386   5.961
12992TIP3    H238920   4.202   4.361   6.067
12993TIP3   OH238921   3.244   5.934   6.646
12993TIP3    H138922   3.177   5.936   6.714
12993TIP3    H238923   3.307   5.868   6.675
12994TIP3   OH238924   6.126   1.433   1.142
12994TIP3    H138925   6.185   1.503   1.170
12994TIP3    H238926   6.166   1.397   1.063
12995TIP3   OH238927   7.121   5.510   3.536
12995TIP3    H138928   7.035   5.491   3.499
12995TIP3    H238929   7.114   5.485   3.628
12996TIP3   OH238930   1.781   6.729   6.510
12996TIP3    H138931   1.760   6.636   6.518
12996TIP3    H238932   1.832   6.736   6.429
12997TIP3   OH238933   4.556   2.369   3.422
12997TIP3    H138934   4.494   2.336   3.357
12997TIP3    H238935   4.578   2.293   3.475
12998TIP3   OH238936   2.654   3.239   0.258
12998TIP3    H138937   2.616   3.282   0.181
12998TIP3    H238938   2.670   3.311   0.319
12999TIP3   OH238939   0.077   3.560   1.951
12999TIP3    H138940   0.060   3.583   2.042
12999TIP3    H238941   0.121   3.475   1.955
13000TIP3   OH238942   7.594   4.817   3.213
13000TIP3    H138943   7.663   4.822   3.147
13000TIP3    H238944   7.574   4.723   3.220
13001TIP3   OH238945   3.119   5.538   2.174
13001TIP3    H138946   3.079   5.472   2.230
13001TIP3    H238947   3.045   5.575   2.124
13002TIP3   OH238948   6.720   0.320   3.818
13002TIP3    H138949   6.780   0.259   3.861
13002TIP3    H238950   6.694   0.381   3.888
13003TIP3   OH238951   5.867   4.376   2.965
13003TIP3    H138952   5.804   4.390   2.894
13003TIP3    H238953   5.886   4.464   2.997
13004TIP3   OH238954   1.358   1.457   2.583
13004TIP3    H138955   1.395   1.458   2.495
13004TIP3    H238956   1.299   1.381   2.584
13005TIP3   OH238957   2.348   0.433   6.452
13005TIP3    H138958   2.384   0.388   6.528
13005TIP3    H238959   2.267   0.386   6.432
13006TIP3   OH238960   2.927   2.669   0.349
13006TIP3    H138961   2.847   2.658   0.297
13006TIP3    H238962   2.998   2.655   0.286
13007TIP3   OH238963   4.219   7.104   3.276
13007TIP3    H138964   4.311   7.108   3.303
13007TIP3    H238965   4.172   7.074   3.354
13008TIP3   OH238966   3.691   1.250   1.321
13008TIP3    H138967   3.693   1.342   1.349
13008TIP3    H238968   3.692   1.200   1.402
13009TIP3   OH238969   3.712   2.081   1.145
13009TIP3    H138970   3.644   2.058   1.208
13009TIP3    H238971   3.780   2.124   1.197
13010TIP3   OH238972   2.451   4.501   0.450
13010TIP3    H138973   2.391   4.473   0.381
13010TIP3    H238974   2.461   4.424   0.506
13011TIP3   OH238975   3.235   7.142   5.207
13011TIP3    H138976   3.216   7.229   5.171
13011TIP3    H238977   3.225   7.083   5.132
13012TIP3   OH238978   2.357   0.303   2.718
13012TIP3    H138979   2.393   0.254   2.792
13012TIP3    H238980   2.378   0.249   2.642
13013TIP3   OH238981   5.868   1.557   3.094
13013TIP3    H138982   5.804   1.624   3.068
13013TIP3    H238983   5.919   1.541   3.015
13014TIP3   OH238984   3.837   7.753   5.360
13014TIP3    H138985   3.921   7.798   5.350
13014TIP3    H238986   3.860   7.663   5.384
13015TIP3   OH238987   5.276   5.906   4.741
13015TIP3    H138988   5.202   5.870   4.693
13015TIP3    H238989   5.353   5.883   4.689
13016TIP3   OH238990   6.727   0.552   3.233
13016TIP3    H138991   6.721   0.630   3.287
13016TIP3    H238992   6.637   0.533   3.206
13017TIP3   OH238993   6.493   2.046   3.511
13017TIP3    H138994   6.461   2.122   3.464
13017TIP3    H238995   6.423   1.981   3.502
13018TIP3   OH238996   7.305   3.987   5.049
13018TIP3    H138997   7.261   4.035   4.979
13018TIP3    H238998   7.394   4.022   5.050
13019TIP3   OH238999   0.783   0.331   1.777
13019TIP3    H139000   0.841   0.373   1.841
13019TIP3    H239001   0.738   0.262   1.826
13020TIP3   OH239002   5.871   1.662   5.059
13020TIP3    H139003   5.940   1.706   5.110
13020TIP3    H239004   5.882   1.696   4.970
13021TIP3   OH239005   8.011   3.807   5.740
13021TIP3    H139006   8.005   3.861   5.661
13021TIP3    H239007   8.028   3.870   5.810
13022TIP3   OH239008   1.568   7.171   0.609
13022TIP3    H139009   1.543   7.095   0.661
13022TIP3    H239010   1.514   7.165   0.530
13023TIP3   OH239011   1.312   2.562   6.466
13023TIP3    H139012   1.270   2.635   6.421
13023TIP3    H239013   1.302   2.488   6.406
13024TIP3   OH239014   1.252   0.421   2.587
13024TIP3    H139015   1.298   0.393   2.666
13024TIP3    H239016   1.321   0.454   2.529
13025TIP3   OH239017   0.612   6.003   4.099
13025TIP3    H139018   0.673   5.933   4.120
13025TIP3    H239019   0.558   5.968   4.028
13026TIP3   OH239020   0.956   7.268   2.974
13026TIP3    H139021   1.016   7.316   2.917
13026TIP3    H239022   0.959   7.316   3.057
13027TIP3   OH239023   3.137   3.093   0.610
13027TIP3    H139024   3.067   3.056   0.555
13027TIP3    H239025   3.106   3.082   0.699
13028TIP3   OH239026   6.604   6.348   4.091
13028TIP3    H139027   6.695   6.336   4.118
13028TIP3    H239028   6.553   6.339   4.172
13029TIP3   OH239029   5.038   1.312   4.604
13029TIP3    H139030   5.089   1.342   4.529
13029TIP3    H239031   4.998   1.231   4.575
13030TIP3   OH239032   0.749   0.798   0.824
13030TIP3    H139033   0.797   0.718   0.845
13030TIP3    H239034   0.657   0.773   0.826
13031TIP3   OH239035   3.349   3.037   3.363
13031TIP3    H139036   3.404   2.972   3.408
13031TIP3    H239037   3.297   2.985   3.302
13032TIP3   OH239038   2.843   5.428   2.219
13032TIP3    H139039   2.827   5.498   2.155
13032TIP3    H239040   2.757   5.388   2.232
13033TIP3   OH239041   6.431   6.575   5.559
13033TIP3    H139042   6.443   6.609   5.647
13033TIP3    H239043   6.412   6.482   5.571
13034TIP3   OH239044   8.189   3.305   1.468
13034TIP3    H139045   8.103   3.345   1.478
13034TIP3    H239046   8.205   3.305   1.374
13035TIP3   OH239047   2.200   2.475   1.937
13035TIP3    H139048   2.248   2.522   2.005
13035TIP3    H239049   2.110   2.472   1.969
13036TIP3   OH239050   0.624   5.757   1.110
13036TIP3    H139051   0.689   5.827   1.122
13036TIP3    H239052   0.568   5.788   1.039
13037TIP3   OH239053   5.054   3.531   6.100
13037TIP3    H139054   5.096   3.457   6.055
13037TIP3    H239055   5.104   3.608   6.072
13038TIP3   OH239056   6.507   4.198   3.915
13038TIP3    H139057   6.595   4.174   3.886
13038TIP3    H239058   6.507   4.182   4.010
13039TIP3   OH239059   7.494   4.379   6.656
13039TIP3    H139060   7.429   4.449   6.648
13039TIP3    H239061   7.488   4.352   6.747
13040TIP3   OH239062   3.098   3.106   5.536
13040TIP3    H139063   3.007   3.084   5.554
13040TIP3    H239064   3.093   3.171   5.466
13041TIP3   OH239065   2.090   7.622   4.130
13041TIP3    H139066   2.140   7.666   4.198
13041TIP3    H239067   2.088   7.685   4.058
13042TIP3   OH239068   4.039   1.018   1.047
13042TIP3    H139069   4.108   0.957   1.071
13042TIP3    H239070   3.981   0.968   0.989
13043TIP3   OH239071   6.384   3.578   4.085
13043TIP3    H139072   6.344   3.585   4.172
13043TIP3    H239073   6.446   3.651   4.082
13044TIP3   OH239074   6.858   3.666   4.140
13044TIP3    H139075   6.828   3.708   4.221
13044TIP3    H239076   6.927   3.606   4.168
13045TIP3   OH239077   0.166   0.996   2.607
13045TIP3    H139078   0.249   1.042   2.594
13045TIP3    H239079   0.102   1.048   2.559
13046TIP3   OH239080   1.299   5.666   5.661
13046TIP3    H139081   1.222   5.625   5.622
13046TIP3    H239082   1.268   5.751   5.693
13047TIP3   OH239083   7.827   2.351   3.156
13047TIP3    H139084   7.866   2.437   3.174
13047TIP3    H239085   7.901   2.290   3.158
13048TIP3   OH239086   6.702   1.730   5.743
13048TIP3    H139087   6.765   1.668   5.707
13048TIP3    H239088   6.685   1.698   5.832
13049TIP3   OH239089   1.428   3.969   1.088
13049TIP3    H139090   1.480   4.033   1.137
13049TIP3    H239091   1.415   4.009   1.003
13050TIP3   OH239092   5.943   5.424   3.208
13050TIP3    H139093   5.908   5.415   3.120
13050TIP3    H239094   6.023   5.371   3.208
13051TIP3   OH239095   6.380   7.808   6.673
13051TIP3    H139096   6.360   7.740   6.609
13051TIP3    H239097   6.351   7.771   6.757
13052TIP3   OH239098   5.173   4.100   5.550
13052TIP3    H139099   5.211   4.184   5.524
13052TIP3    H239100   5.115   4.077   5.478
13053TIP3   OH239101   0.988   6.926   3.646
13053TIP3    H139102   1.023   6.994   3.704
13053TIP3    H239103   0.934   6.872   3.704
13054TIP3   OH239104   3.837   3.409   0.194
13054TIP3    H139105   3.914   3.438   0.243
13054TIP3    H239106   3.812   3.326   0.235
13055TIP3   OH239107   6.286   7.361   0.982
13055TIP3    H139108   6.362   7.306   0.965
13055TIP3    H239109   6.235   7.313   1.047
13056TIP3   OH239110   7.851   0.139   6.017
13056TIP3    H139111   7.899   0.152   6.099
13056TIP3    H239112   7.759   0.136   6.042
13057TIP3   OH239113   0.957   6.335   0.624
13057TIP3    H139114   0.997   6.384   0.695
13057TIP3    H239115   0.863   6.352   0.633
13058TIP3   OH239116   5.770   2.490   0.451
13058TIP3    H139117   5.753   2.580   0.479
13058TIP3    H239118   5.704   2.473   0.384
13059TIP3   OH239119   3.231   6.748   5.287
13059TIP3    H139120   3.141   6.729   5.260
13059TIP3    H239121   3.232   6.843   5.300
13060TIP3   OH239122   3.094   3.272   4.617
13060TIP3    H139123   3.089   3.256   4.711
13060TIP3    H239124   3.170   3.220   4.588
13061TIP3   OH239125   4.081   1.388   1.509
13061TIP3    H139126   3.998   1.403   1.465
13061TIP3    H239127   4.096   1.294   1.502
13062TIP3   OH239128   6.225   4.284   6.742
13062TIP3    H139129   6.185   4.353   6.794
13062TIP3    H239130   6.319   4.302   6.745
13063TIP3   OH239131   3.957   3.608   1.123
13063TIP3    H139132   4.016   3.571   1.189
13063TIP3    H239133   4.007   3.605   1.042
13064TIP3   OH239134   6.493   5.647   1.919
13064TIP3    H139135   6.413   5.664   1.869
13064TIP3    H239136   6.502   5.552   1.919
13065TIP3   OH239137   5.781   4.630   2.019
13065TIP3    H139138   5.861   4.669   1.984
13065TIP3    H239139   5.806   4.601   2.108
13066TIP3   OH239140   7.141   7.736   3.759
13066TIP3    H139141   7.132   7.823   3.720
13066TIP3    H239142   7.051   7.710   3.780
13067TIP3   OH239143   5.932   4.210   6.241
13067TIP3    H139144   5.936   4.297   6.280
13067TIP3    H239145   6.012   4.204   6.188
13068TIP3   OH239146   3.362   0.941   0.899
13068TIP3    H139147   3.281   0.983   0.927
13068TIP3    H239148   3.340   0.848   0.892
13069TIP3   OH239149   7.510   4.699   3.878
13069TIP3    H139150   7.421   4.674   3.853
13069TIP3    H239151   7.558   4.704   3.795
13070TIP3   OH239152   0.166   1.311   5.659
13070TIP3    H139153   0.212   1.338   5.579
13070TIP3    H239154   0.236   1.297   5.723
13071TIP3   OH239155   3.779   7.374   4.348
13071TIP3    H139156   3.767   7.469   4.356
13071TIP3    H239157   3.873   7.361   4.358
13072TIP3   OH239158   1.322   3.783   2.522
13072TIP3    H139159   1.298   3.823   2.606
13072TIP3    H239160   1.416   3.765   2.531
13073TIP3   OH239161   2.268   2.672   0.075
13073TIP3    H139162   2.219   2.679  -0.006
13073TIP3    H239163   2.353   2.710   0.056
13074TIP3   OH239164   4.736   6.572   6.144
13074TIP3    H139165   4.643   6.554   6.157
13074TIP3    H239166   4.738   6.659   6.104
13075TIP3   OH239167   7.217   3.652   1.983
13075TIP3    H139168   7.193   3.582   1.923
13075TIP3    H239169   7.167   3.633   2.063
13076TIP3   OH239170   2.386   1.210   5.040
13076TIP3    H139171   2.451   1.260   4.990
13076TIP3    H239172   2.307   1.213   4.985
13077TIP3   OH239173   0.880   7.708   0.001
13077TIP3    H139174   0.924   7.645   0.058
13077TIP3    H239175   0.942   7.782  -0.004
13078TIP3   OH239176   2.612   4.669   2.570
13078TIP3    H139177   2.538   4.652   2.627
13078TIP3    H239178   2.625   4.763   2.574
13079TIP3   OH239179   2.855   5.594   3.073
13079TIP3    H139180   2.911   5.516   3.072
13079TIP3    H239181   2.916   5.668   3.070
13080TIP3   OH239182   2.760   6.382   2.493
13080TIP3    H139183   2.727   6.293   2.483
13080TIP3    H239184   2.688   6.438   2.465
13081TIP3   OH239185   0.773   4.408   0.358
13081TIP3    H139186   0.781   4.408   0.453
13081TIP3    H239187   0.852   4.363   0.327
13082TIP3   OH239188   3.910   7.107   0.915
13082TIP3    H139189   3.879   7.025   0.877
13082TIP3    H239190   3.846   7.128   0.983
13083TIP3   OH239191   5.217   4.224   1.018
13083TIP3    H139192   5.204   4.275   1.098
13083TIP3    H239193   5.312   4.220   1.008
13084TIP3   OH239194   6.525   1.369   0.932
13084TIP3    H139195   6.542   1.412   1.015
13084TIP3    H239196   6.584   1.293   0.932
13085TIP3   OH239197   3.755   5.213   2.032
13085TIP3    H139198   3.795   5.221   1.945
13085TIP3    H239199   3.776   5.124   2.059
13086TIP3   OH239200   4.015   2.019   5.552
13086TIP3    H139201   4.019   2.047   5.461
13086TIP3    H239202   3.945   1.954   5.555
13087TIP3   OH239203   8.082   6.892   0.121
13087TIP3    H139204   8.167   6.908   0.163
13087TIP3    H239205   8.024   6.959   0.157
13088TIP3   OH239206   2.128   0.903   3.677
13088TIP3    H139207   2.092   0.902   3.765
13088TIP3    H239208   2.084   0.831   3.632
13089TIP3   OH239209   1.934   7.309   4.182
13089TIP3    H139210   1.926   7.339   4.273
13089TIP3    H239211   1.958   7.217   4.189
13090TIP3   OH239212   7.662   5.371   2.586
13090TIP3    H139213   7.748   5.365   2.628
13090TIP3    H239214   7.680   5.415   2.503
13091TIP3   OH239215   4.000   2.057   1.556
13091TIP3    H139216   3.952   2.107   1.622
13091TIP3    H239217   3.986   1.966   1.579
13092TIP3   OH239218   5.791   7.006   1.621
13092TIP3    H139219   5.883   7.021   1.645
13092TIP3    H239220   5.793   6.925   1.571
13093TIP3   OH239221   8.114   7.729   6.065
13093TIP3    H139222   8.185   7.782   6.029
13093TIP3    H239223   8.049   7.793   6.096
13094TIP3   OH239224   5.112   7.619   0.401
13094TIP3    H139225   5.168   7.689   0.366
13094TIP3    H239226   5.036   7.619   0.343
13095TIP3   OH239227   1.260   7.293   4.700
13095TIP3    H139228   1.186   7.234   4.685
13095TIP3    H239229   1.222   7.368   4.746
13096TIP3   OH239230   3.532   6.860   2.143
13096TIP3    H139231   3.541   6.861   2.048
13096TIP3    H239232   3.467   6.927   2.162
13097TIP3   OH239233   4.034   5.191   5.694
13097TIP3    H139234   4.123   5.171   5.721
13097TIP3    H239235   4.037   5.191   5.598
13098TIP3   OH239236   4.787   4.407   3.029
13098TIP3    H139237   4.846   4.467   2.981
13098TIP3    H239238   4.822   4.320   3.011
13099TIP3   OH239239   5.611   1.802   0.750
13099TIP3    H139240   5.645   1.859   0.681
13099TIP3    H239241   5.652   1.717   0.733
13100TIP3   OH239242   0.694   3.923   5.054
13100TIP3    H139243   0.599   3.932   5.043
13100TIP3    H239244   0.709   3.829   5.062
13101TIP3   OH239245   1.132   5.137   5.741
13101TIP3    H139246   1.195   5.065   5.743
13101TIP3    H239247   1.092   5.136   5.828
13102TIP3   OH239248   1.767   2.904   2.560
13102TIP3    H139249   1.820   2.906   2.640
13102TIP3    H239250   1.689   2.954   2.582
13103TIP3   OH239251   5.318   0.676   2.145
13103TIP3    H139252   5.225   0.655   2.148
13103TIP3    H239253   5.336   0.718   2.229
13104TIP3   OH239254   0.120   3.503   3.498
13104TIP3    H139255   0.154   3.544   3.418
13104TIP3    H239256   0.198   3.473   3.544
13105TIP3   OH239257   2.642   7.660   6.100
13105TIP3    H139258   2.584   7.584   6.094
13105TIP3    H239259   2.610   7.720   6.034
13106TIP3   OH239260   7.404   4.391   1.400
13106TIP3    H139261   7.388   4.319   1.339
13106TIP3    H239262   7.435   4.463   1.344
13107TIP3   OH239263   2.960   2.993   4.831
13107TIP3    H139264   3.019   2.920   4.846
13107TIP3    H239265   3.015   3.071   4.843
13108TIP3   OH239266   6.182   3.169   0.963
13108TIP3    H139267   6.094   3.203   0.946
13108TIP3    H239268   6.172   3.118   1.044
13109TIP3   OH239269   6.780   1.296   5.716
13109TIP3    H139270   6.807   1.226   5.656
13109TIP3    H239271   6.755   1.251   5.796
13110TIP3   OH239272   0.488   0.506   2.158
13110TIP3    H139273   0.428   0.546   2.221
13110TIP3    H239274   0.435   0.443   2.111
13111TIP3   OH239275   6.861   6.298   0.762
13111TIP3    H139276   6.776   6.295   0.717
13111TIP3    H239277   6.898   6.211   0.750
13112TIP3   OH239278   3.731   6.108   6.178
13112TIP3    H139279   3.645   6.068   6.171
13112TIP3    H239280   3.787   6.054   6.121
13113TIP3   OH239281   7.956   2.013   0.031
13113TIP3    H139282   7.934   1.922   0.050
13113TIP3    H239283   8.020   2.008  -0.041
13114TIP3   OH239284   0.764   1.850   2.826
13114TIP3    H139285   0.776   1.760   2.795
13114TIP3    H239286   0.752   1.842   2.920
13115TIP3   OH239287   4.070   3.383   5.223
13115TIP3    H139288   4.053   3.475   5.205
13115TIP3    H239289   4.048   3.338   5.142
13116TIP3   OH239290   0.951   0.334   3.700
13116TIP3    H139291   0.899   0.371   3.772
13116TIP3    H239292   1.033   0.383   3.703
13117TIP3   OH239293   3.857   1.500   0.702
13117TIP3    H139294   3.834   1.408   0.709
13117TIP3    H239295   3.831   1.538   0.786
13118TIP3   OH239296   5.303   6.039   2.733
13118TIP3    H139297   5.298   6.032   2.638
13118TIP3    H239298   5.212   6.048   2.760
13119TIP3   OH239299   6.838   3.903   6.407
13119TIP3    H139300   6.795   3.974   6.360
13119TIP3    H239301   6.849   3.834   6.342
13120TIP3   OH239302   7.535   2.828   1.634
13120TIP3    H139303   7.609   2.837   1.694
13120TIP3    H239304   7.458   2.840   1.690
13121TIP3   OH239305   3.622   3.303   6.225
13121TIP3    H139306   3.668   3.240   6.169
13121TIP3    H239307   3.653   3.388   6.194
13122TIP3   OH239308   0.603   0.449   2.497
13122TIP3    H139309   0.546   0.442   2.421
13122TIP3    H239310   0.546   0.426   2.571
13123TIP3   OH239311   4.355   2.084   0.130
13123TIP3    H139312   4.267   2.066   0.098
13123TIP3    H239313   4.365   2.179   0.121
13124TIP3   OH239314   8.304   3.277   0.156
13124TIP3    H139315   8.228   3.297   0.210
13124TIP3    H239316   8.373   3.256   0.219
13125TIP3   OH239317   6.174   2.946   5.058
13125TIP3    H139318   6.194   2.947   5.152
13125TIP3    H239319   6.086   2.908   5.054
13126TIP3   OH239320   0.310   1.798   3.616
13126TIP3    H139321   0.241   1.740   3.585
13126TIP3    H239322   0.380   1.740   3.643
13127TIP3   OH239323   1.852   6.344   3.939
13127TIP3    H139324   1.872   6.370   3.849
13127TIP3    H239325   1.757   6.331   3.940
13128TIP3   OH239326   6.926   4.824   6.002
13128TIP3    H139327   6.898   4.751   5.947
13128TIP3    H239328   7.015   4.801   6.029
13129TIP3   OH239329   7.852   5.552   3.159
13129TIP3    H139330   7.874   5.461   3.175
13129TIP3    H239331   7.765   5.563   3.198
13130TIP3   OH239332   6.774   4.196   1.227
13130TIP3    H139333   6.734   4.244   1.154
13130TIP3    H239334   6.868   4.198   1.210
13131TIP3   OH239335   7.115   4.505   0.035
13131TIP3    H139336   7.099   4.597   0.055
13131TIP3    H239337   7.210   4.496   0.039
13132TIP3   OH239338   4.334   4.692   4.759
13132TIP3    H139339   4.410   4.733   4.717
13132TIP3    H239340   4.272   4.764   4.772
13133TIP3   OH239341   3.497   3.457   5.953
13133TIP3    H139342   3.520   3.450   6.046
13133TIP3    H239343   3.543   3.384   5.911
13134TIP3   OH239344   6.088   1.745   2.301
13134TIP3    H139345   6.172   1.750   2.347
13134TIP3    H239346   6.041   1.823   2.329
13135TIP3   OH239347   0.091   6.524   2.904
13135TIP3    H139348   0.071   6.609   2.865
13135TIP3    H239349   0.103   6.542   2.997
13136TIP3   OH239350   2.280   3.932   1.141
13136TIP3    H139351   2.263   4.016   1.185
13136TIP3    H239352   2.359   3.948   1.090
13137TIP3   OH239353   7.294   5.917   3.929
13137TIP3    H139354   7.216   5.884   3.884
13137TIP3    H239355   7.263   5.996   3.974
13138TIP3   OH239356   5.231   5.400   3.600
13138TIP3    H139357   5.199   5.310   3.607
13138TIP3    H239358   5.222   5.437   3.688
13139TIP3   OH239359   3.106   2.917   2.707
13139TIP3    H139360   3.199   2.915   2.682
13139TIP3    H239361   3.063   2.962   2.634
13140TIP3   OH239362   5.277   3.906   3.246
13140TIP3    H139363   5.198   3.956   3.227
13140TIP3    H239364   5.322   3.956   3.314
13141TIP3   OH239365   1.457   4.649   3.377
13141TIP3    H139366   1.526   4.583   3.368
13141TIP3    H239367   1.438   4.676   3.287
13142TIP3   OH239368   0.823   5.825   3.058
13142TIP3    H139369   0.845   5.902   3.111
13142TIP3    H239370   0.834   5.751   3.118
13143TIP3   OH239371   2.101   2.510   4.961
13143TIP3    H139372   2.184   2.543   4.997
13143TIP3    H239373   2.092   2.557   4.877
13144TIP3   OH239374   0.617   4.030   5.681
13144TIP3    H139375   0.635   3.997   5.769
13144TIP3    H239376   0.692   4.085   5.660
13145TIP3   OH239377   2.476   7.263   3.675
13145TIP3    H139378   2.427   7.242   3.754
13145TIP3    H239379   2.432   7.213   3.606
13146TIP3   OH239380   4.335   0.677   6.275
13146TIP3    H139381   4.291   0.694   6.359
13146TIP3    H239382   4.264   0.675   6.211
13147TIP3   OH239383   3.754   7.162   3.242
13147TIP3    H139384   3.780   7.188   3.330
13147TIP3    H239385   3.762   7.243   3.190
13148TIP3   OH239386   5.487   4.976   1.808
13148TIP3    H139387   5.461   4.901   1.861
13148TIP3    H239388   5.418   4.983   1.742
13149TIP3   OH239389   3.776   7.291   6.434
13149TIP3    H139390   3.700   7.320   6.383
13149TIP3    H239391   3.744   7.287   6.524
13150TIP3   OH239392   1.076   7.185   0.138
13150TIP3    H139393   1.074   7.274   0.173
13150TIP3    H239394   0.996   7.145   0.173
13151TIP3   OH239395   3.171   3.980   4.439
13151TIP3    H139396   3.134   3.905   4.487
13151TIP3    H239397   3.232   3.941   4.377
13152TIP3   OH239398   1.332   6.133   4.727
13152TIP3    H139399   1.237   6.121   4.732
13152TIP3    H239400   1.365   6.096   4.808
13153TIP3   OH239401   4.502   4.297   3.011
13153TIP3    H139402   4.583   4.317   2.964
13153TIP3    H239403   4.432   4.323   2.951
13154TIP3   OH239404   7.662   4.723   2.556
13154TIP3    H139405   7.705   4.808   2.558
13154TIP3    H239406   7.587   4.732   2.615
13155TIP3   OH239407   0.970   6.641   3.919
13155TIP3    H139408   1.003   6.567   3.970
13155TIP3    H239409   1.020   6.717   3.952
13156TIP3   OH239410   1.789   4.341   0.696
13156TIP3    H139411   1.879   4.319   0.719
13156TIP3    H239412   1.738   4.266   0.726
13157TIP3   OH239413   6.017   0.920   3.606
13157TIP3    H139414   6.008   0.938   3.700
13157TIP3    H239415   5.957   0.848   3.589
13158TIP3   OH239416   5.957   1.191   6.176
13158TIP3    H139417   5.939   1.173   6.084
13158TIP3    H239418   5.914   1.119   6.223
13159TIP3   OH239419   4.670   7.547   0.030
13159TIP3    H139420   4.680   7.458   0.063
13159TIP3    H239421   4.584   7.574   0.061
13160TIP3   OH239422   4.560   4.443   2.693
13160TIP3    H139423   4.637   4.499   2.690
13160TIP3    H239424   4.521   4.459   2.779
13161TIP3   OH239425   4.685   6.926   3.173
13161TIP3    H139426   4.736   6.988   3.121
13161TIP3    H239427   4.612   6.902   3.116
13162TIP3   OH239428   2.784   6.509   5.253
13162TIP3    H139429   2.815   6.497   5.163
13162TIP3    H239430   2.863   6.500   5.307
13163TIP3   OH239431   0.258   4.887   3.230
13163TIP3    H139432   0.252   4.821   3.299
13163TIP3    H239433   0.288   4.966   3.275
13164TIP3   OH239434   2.802   4.766   0.141
13164TIP3    H139435   2.728   4.784   0.198
13164TIP3    H239436   2.878   4.766   0.200
13165TIP3   OH239437   1.626   6.826   3.045
13165TIP3    H139438   1.714   6.789   3.050
13165TIP3    H239439   1.567   6.750   3.048
13166TIP3   OH239440   2.282   7.274   5.489
13166TIP3    H139441   2.303   7.235   5.404
13166TIP3    H239442   2.304   7.366   5.479
13167TIP3   OH239443   4.444   5.422   3.033
13167TIP3    H139444   4.359   5.442   2.995
13167TIP3    H239445   4.431   5.426   3.127
13168TIP3   OH239446   1.694   4.061   4.212
13168TIP3    H139447   1.671   4.083   4.303
13168TIP3    H239448   1.776   4.107   4.197
13169TIP3   OH239449   6.253   3.307   1.818
13169TIP3    H139450   6.200   3.239   1.859
13169TIP3    H239451   6.342   3.274   1.822
13170TIP3   OH239452   4.108   4.700   3.483
13170TIP3    H139453   4.140   4.657   3.404
13170TIP3    H239454   4.165   4.668   3.552
13171TIP3   OH239455   2.436   3.973   3.719
13171TIP3    H139456   2.428   3.972   3.815
13171TIP3    H239457   2.484   4.054   3.700
13172TIP3   OH239458   0.264   7.397   4.381
13172TIP3    H139459   0.352   7.420   4.352
13172TIP3    H239460   0.267   7.404   4.477
13173TIP3   OH239461   0.764   7.133   6.723
13173TIP3    H139462   0.842   7.108   6.672
13173TIP3    H239463   0.786   7.110   6.813
13174TIP3   OH239464   2.774   3.445   6.737
13174TIP3    H139465   2.817   3.464   6.654
13174TIP3    H239466   2.721   3.523   6.754
13175TIP3   OH239467   2.586   3.675   3.882
13175TIP3    H139468   2.649   3.633   3.823
13175TIP3    H239469   2.579   3.765   3.850
13176TIP3   OH239470   3.723   5.846   0.267
13176TIP3    H139471   3.631   5.827   0.286
13176TIP3    H239472   3.722   5.932   0.225
13177TIP3   OH239473   1.209   4.342   6.728
13177TIP3    H139474   1.114   4.344   6.739
13177TIP3    H239475   1.230   4.250   6.712
13178TIP3   OH239476   3.020   2.006   2.344
13178TIP3    H139477   2.980   2.087   2.312
13178TIP3    H239478   3.045   2.025   2.434
13179TIP3   OH239479   1.786   0.529   4.340
13179TIP3    H139480   1.775   0.539   4.435
13179TIP3    H239481   1.834   0.447   4.331
13180TIP3   OH239482   2.892   6.003   4.962
13180TIP3    H139483   2.843   5.926   4.930
13180TIP3    H239484   2.927   5.976   5.047
13181TIP3   OH239485   0.634   0.327   5.682
13181TIP3    H139486   0.633   0.234   5.657
13181TIP3    H239487   0.725   0.353   5.674
13182TIP3   OH239488   5.811   6.531   2.604
13182TIP3    H139489   5.905   6.531   2.588
13182TIP3    H239490   5.779   6.453   2.558
13183TIP3   OH239491   4.703   0.187   4.448
13183TIP3    H139492   4.700   0.252   4.517
13183TIP3    H239493   4.708   0.103   4.494
13184TIP3   OH239494   8.065   2.982   6.534
13184TIP3    H139495   8.041   2.915   6.470
13184TIP3    H239496   8.031   2.949   6.617
13185TIP3   OH239497   3.848   6.309   0.686
13185TIP3    H139498   3.897   6.248   0.741
13185TIP3    H239499   3.880   6.395   0.713
13186TIP3   OH239500   6.903   1.154   4.381
13186TIP3    H139501   6.814   1.119   4.382
13186TIP3    H239502   6.901   1.227   4.443
13187TIP3   OH239503   2.554   1.850   4.642
13187TIP3    H139504   2.619   1.869   4.574
13187TIP3    H239505   2.601   1.798   4.707
13188TIP3   OH239506   5.818   1.286   4.615
13188TIP3    H139507   5.806   1.263   4.523
13188TIP3    H239508   5.812   1.203   4.662
13189TIP3   OH239509   2.079   6.566   3.950
13189TIP3    H139510   2.077   6.549   4.044
13189TIP3    H239511   2.129   6.493   3.914
13190TIP3   OH239512   4.065   5.335   2.359
13190TIP3    H139513   4.113   5.273   2.304
13190TIP3    H239514   4.080   5.420   2.318
13191TIP3   OH239515   8.185   4.521   3.012
13191TIP3    H139516   8.158   4.517   3.104
13191TIP3    H239517   8.270   4.566   3.014
13192TIP3   OH239518   2.158   6.040   3.337
13192TIP3    H139519   2.200   5.954   3.334
13192TIP3    H239520   2.155   6.061   3.431
13193TIP3   OH239521   3.872   1.396   4.014
13193TIP3    H139522   3.823   1.394   4.096
13193TIP3    H239523   3.876   1.488   3.991
13194TIP3   OH239524   8.171   5.634   2.816
13194TIP3    H139525   8.122   5.716   2.809
13194TIP3    H239526   8.257   5.661   2.849
13195TIP3   OH239527   7.797   0.612   0.527
13195TIP3    H139528   7.889   0.588   0.541
13195TIP3    H239529   7.802   0.700   0.488
13196TIP3   OH239530   7.932   6.680   5.713
13196TIP3    H139531   7.983   6.603   5.738
13196TIP3    H239532   7.941   6.740   5.788
13197TIP3   OH239533   1.686   5.746   2.928
13197TIP3    H139534   1.675   5.790   2.844
13197TIP3    H239535   1.633   5.667   2.921
13198TIP3   OH239536   0.152   1.842   4.482
13198TIP3    H139537   0.131   1.881   4.398
13198TIP3    H239538   0.247   1.833   4.482
13199TIP3   OH239539   2.287   6.045   0.771
13199TIP3    H139540   2.330   6.021   0.853
13199TIP3    H239541   2.349   6.103   0.727
13200TIP3   OH239542   3.687   3.992   3.527
13200TIP3    H139543   3.658   3.945   3.605
13200TIP3    H239544   3.708   4.080   3.558
13201TIP3   OH239545   4.852   0.176   4.772
13201TIP3    H139546   4.819   0.110   4.712
13201TIP3    H239547   4.794   0.251   4.760
13202TIP3   OH239548   5.603   3.902   0.467
13202TIP3    H139549   5.530   3.950   0.506
13202TIP3    H239550   5.654   3.871   0.542
13203TIP3   OH239551   6.715   6.311   6.289
13203TIP3    H139552   6.801   6.269   6.287
13203TIP3    H239553   6.661   6.260   6.229
13204TIP3   OH239554   3.543   2.102   3.670
13204TIP3    H139555   3.560   2.044   3.595
13204TIP3    H239556   3.564   2.048   3.746
13205TIP3   OH239557   3.139   4.278   3.342
13205TIP3    H139558   3.147   4.198   3.394
13205TIP3    H239559   3.191   4.260   3.263
13206TIP3   OH239560   3.780   6.158   4.536
13206TIP3    H139561   3.828   6.119   4.463
13206TIP3    H239562   3.693   6.118   4.530
13207TIP3   OH239563   4.362   1.917   4.633
13207TIP3    H139564   4.286   1.860   4.645
13207TIP3    H239565   4.416   1.902   4.711
13208TIP3   OH239566   1.527   0.688   2.204
13208TIP3    H139567   1.520   0.661   2.112
13208TIP3    H239568   1.607   0.645   2.235
13209TIP3   OH239569   7.009   1.885   1.076
13209TIP3    H139570   7.015   1.820   1.006
13209TIP3    H239571   6.977   1.964   1.033
13210TIP3   OH239572   1.367   1.967   4.852
13210TIP3    H139573   1.433   2.028   4.819
13210TIP3    H239574   1.322   1.936   4.773
13211TIP3   OH239575   3.332   0.482   5.596
13211TIP3    H139576   3.288   0.540   5.659
13211TIP3    H239577   3.271   0.409   5.586
13212TIP3   OH239578   7.960   3.085   4.848
13212TIP3    H139579   8.002   3.041   4.774
13212TIP3    H239580   7.984   3.177   4.838
13213TIP3   OH239581   2.951   0.558   2.114
13213TIP3    H139582   3.043   0.568   2.141
13213TIP3    H239583   2.943   0.465   2.093
13214TIP3   OH239584   4.173   6.832   0.450
13214TIP3    H139585   4.094   6.886   0.461
13214TIP3    H239586   4.242   6.880   0.495
13215TIP3   OH239587   1.907   0.254   6.551
13215TIP3    H139588   1.914   0.203   6.470
13215TIP3    H239589   1.837   0.317   6.533
13216TIP3   OH239590   7.422   5.553   0.194
13216TIP3    H139591   7.489   5.488   0.175
13216TIP3    H239592   7.423   5.560   0.290
13217TIP3   OH239593   7.125   4.685   0.978
13217TIP3    H139594   7.127   4.590   0.985
13217TIP3    H239595   7.104   4.702   0.887
13218TIP3   OH239596   5.886   2.257   3.763
13218TIP3    H139597   5.798   2.283   3.735
13218TIP3    H239598   5.944   2.326   3.732
13219TIP3   OH239599   4.445   4.018   3.474
13219TIP3    H139600   4.460   3.942   3.418
13219TIP3    H239601   4.450   4.093   3.414
13220TIP3   OH239602   5.534   4.994   4.464
13220TIP3    H139603   5.563   4.943   4.388
13220TIP3    H239604   5.601   4.978   4.531
13221TIP3   OH239605   7.788   4.495   0.395
13221TIP3    H139606   7.874   4.459   0.415
13221TIP3    H239607   7.780   4.486   0.300
13222TIP3   OH239608   4.644   6.504   3.248
13222TIP3    H139609   4.711   6.563   3.213
13222TIP3    H239610   4.679   6.477   3.333
13223TIP3   OH239611   8.114   0.571   4.896
13223TIP3    H139612   8.020   0.585   4.881
13223TIP3    H239613   8.118   0.512   4.970
13224TIP3   OH239614   0.907   7.424   5.655
13224TIP3    H139615   0.864   7.440   5.571
13224TIP3    H239616   0.911   7.329   5.663
13225TIP3   OH239617   0.192   4.809   5.534
13225TIP3    H139618   0.223   4.766   5.613
13225TIP3    H239619   0.112   4.854   5.561
13226TIP3   OH239620   4.818   6.173   6.269
13226TIP3    H139621   4.881   6.136   6.331
13226TIP3    H239622   4.860   6.164   6.183
13227TIP3   OH239623   2.218   6.731   0.624
13227TIP3    H139624   2.149   6.665   0.631
13227TIP3    H239625   2.195   6.796   0.691
13228TIP3   OH239626   1.801   3.668   6.431
13228TIP3    H139627   1.721   3.618   6.445
13228TIP3    H239628   1.865   3.605   6.398
13229TIP3   OH239629   2.422   6.371   1.335
13229TIP3    H139630   2.458   6.302   1.391
13229TIP3    H239631   2.329   6.350   1.329
13230TIP3   OH239632   5.877   6.866   3.904
13230TIP3    H139633   5.843   6.930   3.967
13230TIP3    H239634   5.812   6.796   3.903
13231TIP3   OH239635   7.484   5.946   0.879
13231TIP3    H139636   7.565   5.900   0.862
13231TIP3    H239637   7.504   6.004   0.953
13232TIP3   OH239638   4.455   2.002   4.022
13232TIP3    H139639   4.510   2.046   3.958
13232TIP3    H239640   4.505   2.006   4.104
13233TIP3   OH239641   7.902   6.051   3.753
13233TIP3    H139642   7.941   6.027   3.838
13233TIP3    H239643   7.858   6.134   3.770
13234TIP3   OH239644   0.429   3.513   6.424
13234TIP3    H139645   0.522   3.512   6.404
13234TIP3    H239646   0.406   3.606   6.430
13235TIP3   OH239647   0.184   3.501   0.418
13235TIP3    H139648   0.240   3.576   0.440
13235TIP3    H239649   0.105   3.514   0.471
13236TIP3   OH239650   4.946   2.187   1.271
13236TIP3    H139651   5.015   2.120   1.274
13236TIP3    H239652   4.994   2.270   1.276
13237TIP3   OH239653   4.283   7.304   0.002
13237TIP3    H139654   4.205   7.275   0.050
13237TIP3    H239655   4.254   7.384  -0.043
13238TIP3   OH239656   5.904   0.264   1.057
13238TIP3    H139657   5.946   0.203   0.996
13238TIP3    H239658   5.851   0.208   1.113
13239TIP3   OH239659   6.664   0.705   4.233
13239TIP3    H139660   6.570   0.690   4.238
13239TIP3    H239661   6.672   0.787   4.184
13240TIP3   OH239662   1.433   5.977   2.933
13240TIP3    H139663   1.484   5.942   3.006
13240TIP3    H239664   1.346   5.939   2.945
13241TIP3   OH239665   5.105   1.099   3.984
13241TIP3    H139666   5.054   1.017   3.982
13241TIP3    H239667   5.067   1.150   4.055
13242TIP3   OH239668   5.558   0.148   6.091
13242TIP3    H139669   5.577   0.234   6.054
13242TIP3    H239670   5.593   0.086   6.027
13243TIP3   OH239671   0.495   0.582   3.238
13243TIP3    H139672   0.496   0.533   3.321
13243TIP3    H239673   0.410   0.627   3.238
13244TIP3   OH239674   3.731   1.255   2.554
13244TIP3    H139675   3.772   1.185   2.504
13244TIP3    H239676   3.799   1.322   2.562
13245TIP3   OH239677   2.143   5.698   2.094
13245TIP3    H139678   2.122   5.788   2.068
13245TIP3    H239679   2.102   5.644   2.027
13246TIP3   OH239680   5.571   7.466   6.645
13246TIP3    H139681   5.665   7.460   6.660
13246TIP3    H239682   5.561   7.545   6.591
13247TIP3   OH239683   6.186   1.252   5.812
13247TIP3    H139684   6.208   1.164   5.781
13247TIP3    H239685   6.231   1.311   5.751
13248TIP3   OH239686   6.973   4.591   1.206
13248TIP3    H139687   7.007   4.611   1.119
13248TIP3    H239688   7.050   4.564   1.256
13249TIP3   OH239689   6.269   5.381   3.960
13249TIP3    H139690   6.188   5.428   3.942
13249TIP3    H239691   6.285   5.395   4.053
13250TIP3   OH239692   2.453   0.193   5.374
13250TIP3    H139693   2.542   0.171   5.346
13250TIP3    H239694   2.398   0.123   5.339
13251TIP3   OH239695   6.266   7.014   1.949
13251TIP3    H139696   6.315   6.931   1.943
13251TIP3    H239697   6.175   6.987   1.964
13252TIP3   OH239698  -0.016   1.632   4.443
13252TIP3    H139699   0.045   1.703   4.462
13252TIP3    H239700   0.033   1.552   4.461
13253TIP3   OH239701   2.521   2.606   1.767
13253TIP3    H139702   2.468   2.679   1.799
13253TIP3    H239703   2.462   2.555   1.712
13254TIP3   OH239704   5.585   5.312   5.239
13254TIP3    H139705   5.643   5.378   5.277
13254TIP3    H239706   5.517   5.298   5.305
13255TIP3   OH239707   3.052   0.952   0.270
13255TIP3    H139708   3.044   0.886   0.339
13255TIP3    H239709   2.976   1.009   0.281
13256TIP3   OH239710   2.541   0.754   1.293
13256TIP3    H139711   2.469   0.709   1.250
13256TIP3    H239712   2.615   0.742   1.233
13257TIP3   OH239713   4.988   5.981   0.468
13257TIP3    H139714   4.908   5.957   0.514
13257TIP3    H239715   5.040   5.901   0.466
13258TIP3   OH239716   1.911   2.725   3.694
13258TIP3    H139717   1.923   2.812   3.656
13258TIP3    H239718   1.844   2.683   3.640
13259TIP3   OH239719   2.725   5.955   5.362
13259TIP3    H139720   2.645   5.917   5.326
13259TIP3    H239721   2.698   6.041   5.396
13260TIP3   OH239722   3.018   1.611   4.879
13260TIP3    H139723   3.036   1.644   4.791
13260TIP3    H239724   3.021   1.688   4.935
13261TIP3   OH239725   8.310   1.588   0.531
13261TIP3    H139726   8.353   1.668   0.564
13261TIP3    H239727   8.217   1.601   0.551
13262TIP3   OH239728   1.795   6.926   3.854
13262TIP3    H139729   1.788   7.021   3.860
13262TIP3    H239730   1.874   6.905   3.904
13263TIP3   OH239731   5.430   4.823   4.893
13263TIP3    H139732   5.425   4.823   4.797
13263TIP3    H239733   5.511   4.777   4.913
13264TIP3   OH239734   7.693   0.269   0.803
13264TIP3    H139735   7.771   0.324   0.797
13264TIP3    H239736   7.620   0.329   0.789
13265TIP3   OH239737   4.854   1.912   3.737
13265TIP3    H139738   4.774   1.890   3.689
13265TIP3    H239739   4.902   1.829   3.742
13266TIP3   OH239740   1.316   4.839   3.581
13266TIP3    H139741   1.338   4.922   3.539
13266TIP3    H239742   1.297   4.862   3.672
13267TIP3   OH239743   7.584   7.583   1.686
13267TIP3    H139744   7.651   7.582   1.754
13267TIP3    H239745   7.531   7.505   1.703
13268TIP3   OH239746   0.799   7.770   1.861
13268TIP3    H139747   0.775   7.713   1.788
13268TIP3    H239748   0.753   7.733   1.936
13269TIP3   OH239749   1.575   6.325   3.459
13269TIP3    H139750   1.525   6.385   3.515
13269TIP3    H239751   1.520   6.247   3.453
13270TIP3   OH239752   7.589   1.368   1.936
13270TIP3    H139753   7.578   1.461   1.918
13270TIP3    H239754   7.500   1.332   1.927
13271TIP3   OH239755   7.799   7.443   5.450
13271TIP3    H139756   7.721   7.395   5.478
13271TIP3    H239757   7.781   7.468   5.360
13272TIP3   OH239758   7.853   4.881   1.320
13272TIP3    H139759   7.832   4.877   1.227
13272TIP3    H239760   7.917   4.952   1.327
13273TIP3   OH239761   5.100   5.600   5.676
13273TIP3    H139762   5.041   5.525   5.685
13273TIP3    H239763   5.173   5.567   5.625
13274TIP3   OH239764   3.013   7.241   1.058
13274TIP3    H139765   3.039   7.206   1.143
13274TIP3    H239766   2.935   7.191   1.034
13275TIP3   OH239767   0.322   0.495   1.123
13275TIP3    H139768   0.305   0.415   1.072
13275TIP3    H239769   0.235   0.532   1.137
13276TIP3   OH239770   2.044   3.157   2.714
13276TIP3    H139771   2.080   3.155   2.803
13276TIP3    H239772   1.953   3.186   2.725
13277TIP3   OH239773   2.895   1.004   2.818
13277TIP3    H139774   2.849   0.953   2.751
13277TIP3    H239775   2.949   0.939   2.864
13278TIP3   OH239776   1.707   4.373   1.095
13278TIP3    H139777   1.734   4.437   1.029
13278TIP3    H239778   1.625   4.407   1.129
13279TIP3   OH239779   5.609   6.081   2.669
13279TIP3    H139780   5.567   6.009   2.621
13279TIP3    H239781   5.627   6.044   2.755
13280TIP3   OH239782   0.873   0.479   3.476
13280TIP3    H139783   0.901   0.434   3.556
13280TIP3    H239784   0.835   0.561   3.506
13281TIP3   OH239785   5.269   1.275   2.629
13281TIP3    H139786   5.313   1.314   2.705
13281TIP3    H239787   5.246   1.350   2.574
13282TIP3   OH239788   6.130   4.679   2.473
13282TIP3    H139789   6.171   4.734   2.539
13282TIP3    H239790   6.083   4.612   2.524
13283TIP3   OH239791   1.485   5.111   2.213
13283TIP3    H139792   1.518   5.055   2.143
13283TIP3    H239793   1.407   5.064   2.244
13284TIP3   OH239794   0.098   1.074   1.940
13284TIP3    H139795   0.114   1.166   1.919
13284TIP3    H239796   0.003   1.067   1.946
13285TIP3   OH239797   6.449   4.170   1.598
13285TIP3    H139798   6.439   4.257   1.560
13285TIP3    H239799   6.535   4.140   1.568
13286TIP3   OH239800   2.532   5.932   4.556
13286TIP3    H139801   2.597   5.890   4.499
13286TIP3    H239802   2.494   5.860   4.605
13287TIP3   OH239803   7.691   2.821   0.190
13287TIP3    H139804   7.774   2.804   0.145
13287TIP3    H239805   7.671   2.912   0.170
13288TIP3   OH239806   2.551   7.380   6.342
13288TIP3    H139807   2.547   7.397   6.248
13288TIP3    H239808   2.538   7.466   6.382
13289TIP3   OH239809   0.090   6.757   2.743
13289TIP3    H139810   0.179   6.729   2.764
13289TIP3    H239811   0.101   6.833   2.686
13290TIP3   OH239812   0.888   6.897   2.077
13290TIP3    H139813   0.800   6.921   2.049
13290TIP3    H239814   0.900   6.944   2.160
13291TIP3   OH239815   2.637   0.055   1.505
13291TIP3    H139816   2.690  -0.022   1.525
13291TIP3    H239817   2.561   0.049   1.563
13292TIP3   OH239818   2.026   5.616   2.796
13292TIP3    H139819   1.938   5.616   2.758
13292TIP3    H239820   2.028   5.691   2.854
13293TIP3   OH239821   5.007   3.626   1.291
13293TIP3    H139822   4.951   3.653   1.218
13293TIP3    H239823   4.947   3.589   1.355
13294TIP3   OH239824   1.851   0.055   3.811
13294TIP3    H139825   1.944   0.074   3.824
13294TIP3    H239826   1.838   0.059   3.717
13295TIP3   OH239827   2.586   5.582   0.626
13295TIP3    H139828   2.675   5.548   0.618
13295TIP3    H239829   2.559   5.601   0.536
13296TIP3   OH239830   1.910   6.187   1.252
13296TIP3    H139831   1.964   6.224   1.183
13296TIP3    H239832   1.941   6.230   1.332
13297TIP3   OH239833   3.078   5.960   1.536
13297TIP3    H139834   3.172   5.950   1.547
13297TIP3    H239835   3.041   5.927   1.618
13298TIP3   OH239836   2.989   6.633   6.329
13298TIP3    H139837   2.925   6.648   6.260
13298TIP3    H239838   3.073   6.655   6.289
13299TIP3   OH239839   1.875   0.213   6.196
13299TIP3    H139840   1.911   0.145   6.253
13299TIP3    H239841   1.783   0.188   6.184
13300TIP3   OH239842   2.349   3.196   5.743
13300TIP3    H139843   2.271   3.143   5.757
13300TIP3    H239844   2.367   3.235   5.829
13301TIP3   OH239845   2.770   5.317   1.388
13301TIP3    H139846   2.733   5.324   1.476
13301TIP3    H239847   2.803   5.227   1.383
13302TIP3   OH239848   5.781   2.226   0.687
13302TIP3    H139849   5.771   2.236   0.592
13302TIP3    H239850   5.822   2.307   0.716
13303TIP3   OH239851   7.695   2.302   2.613
13303TIP3    H139852   7.663   2.219   2.646
13303TIP3    H239853   7.627   2.366   2.635
13304TIP3   OH239854   0.661   4.659   0.862
13304TIP3    H139855   0.669   4.729   0.927
13304TIP3    H239856   0.721   4.685   0.792
13305TIP3   OH239857   7.668   7.769   2.001
13305TIP3    H139858   7.720   7.743   1.926
13305TIP3    H239859   7.716   7.735   2.077
13306TIP3   OH239860   0.536   4.071   4.638
13306TIP3    H139861   0.523   4.136   4.569
13306TIP3    H239862   0.575   4.120   4.710
13307TIP3   OH239863   1.324   2.356   1.763
13307TIP3    H139864   1.326   2.286   1.698
13307TIP3    H239865   1.393   2.417   1.736
13308TIP3   OH239866   4.696   4.234   2.428
13308TIP3    H139867   4.725   4.193   2.347
13308TIP3    H239868   4.735   4.321   2.426
13309TIP3   OH239869   7.968   1.471   2.878
13309TIP3    H139870   7.977   1.423   2.961
13309TIP3    H239871   7.976   1.563   2.902
13310TIP3   OH239872   2.650   4.996   3.679
13310TIP3    H139873   2.643   4.978   3.773
13310TIP3    H239874   2.600   5.076   3.666
13311TIP3   OH239875   7.184   5.543   5.954
13311TIP3    H139876   7.156   5.633   5.969
13311TIP3    H239877   7.245   5.548   5.880
13312TIP3   OH239878   7.146   3.523   4.511
13312TIP3    H139879   7.183   3.444   4.472
13312TIP3    H239880   7.221   3.581   4.523
13313TIP3   OH239881   0.450   7.473   3.522
13313TIP3    H139882   0.504   7.552   3.523
13313TIP3    H239883   0.361   7.503   3.539
13314TIP3   OH239884   4.094   2.435   1.079
13314TIP3    H139885   4.089   2.422   0.985
13314TIP3    H239886   4.120   2.526   1.090
13315TIP3   OH239887   1.630   0.680   3.811
13315TIP3    H139888   1.682   0.627   3.871
13315TIP3    H239889   1.688   0.696   3.736
13316TIP3   OH239890   2.018   3.239   1.931
13316TIP3    H139891   1.936   3.198   1.958
13316TIP3    H239892   2.080   3.219   2.002
13317TIP3   OH239893   6.811   3.769   3.311
13317TIP3    H139894   6.890   3.790   3.262
13317TIP3    H239895   6.765   3.705   3.257
13318TIP3   OH239896   6.853   3.327   2.120
13318TIP3    H139897   6.865   3.232   2.124
13318TIP3    H239898   6.908   3.355   2.046
13319TIP3   OH239899   3.426   7.237   0.530
13319TIP3    H139900   3.343   7.190   0.535
13319TIP3    H239901   3.401   7.328   0.512
13320TIP3   OH239902   5.695   6.815   4.166
13320TIP3    H139903   5.759   6.768   4.220
13320TIP3    H239904   5.631   6.748   4.140
13321TIP3   OH239905   5.054   5.056   2.599
13321TIP3    H139906   5.094   4.970   2.586
13321TIP3    H239907   5.016   5.053   2.687
13322TIP3   OH239908   1.966   7.369   2.621
13322TIP3    H139909   2.053   7.345   2.653
13322TIP3    H239910   1.977   7.383   2.527
13323TIP3   OH239911   6.652   6.494   0.892
13323TIP3    H139912   6.714   6.482   0.820
13323TIP3    H239913   6.647   6.589   0.904
13324TIP3   OH239914   4.561   6.476   5.222
13324TIP3    H139915   4.633   6.514   5.273
13324TIP3    H239916   4.482   6.505   5.268
13325TIP3   OH239917   4.834   0.108   3.268
13325TIP3    H139918   4.814   0.014   3.272
13325TIP3    H239919   4.808   0.142   3.353
13326TIP3   OH239920   0.943   6.121   2.448
13326TIP3    H139921   0.884   6.086   2.381
13326TIP3    H239922   1.020   6.063   2.444
13327TIP3   OH239923   3.354   0.425   3.647
13327TIP3    H139924   3.442   0.455   3.624
13327TIP3    H239925   3.296   0.491   3.610
13328TIP3   OH239926   2.256   1.660   2.120
13328TIP3    H139927   2.295   1.582   2.082
13328TIP3    H239928   2.255   1.724   2.048
13329TIP3   OH239929   2.510   0.116   5.721
13329TIP3    H139930   2.525   0.056   5.648
13329TIP3    H239931   2.558   0.078   5.794
13330TIP3   OH239932   0.056   7.362   6.649
13330TIP3    H139933   0.029   7.386   6.737
13330TIP3    H239934  -0.026   7.359   6.599
13331TIP3   OH239935   2.611   6.691   0.210
13331TIP3    H139936   2.704   6.712   0.202
13331TIP3    H239937   2.609   6.597   0.229
13332TIP3   OH239938   2.548   0.988   3.851
13332TIP3    H139939   2.583   1.018   3.935
13332TIP3    H239940   2.598   0.909   3.831
13333TIP3   OH239941   2.387   3.005   5.410
13333TIP3    H139942   2.321   2.979   5.475
13333TIP3    H239943   2.427   2.922   5.383
13334TIP3   OH239944   1.161   1.109   4.068
13334TIP3    H139945   1.179   1.015   4.074
13334TIP3    H239946   1.203   1.146   4.146
13335TIP3   OH239947   0.629   5.586   0.784
13335TIP3    H139948   0.556   5.635   0.746
13335TIP3    H239949   0.588   5.512   0.828
13336TIP3   OH239950   5.200   4.382   6.350
13336TIP3    H139951   5.213   4.368   6.444
13336TIP3    H239952   5.133   4.451   6.345
13337TIP3   OH239953   7.104   3.868   3.803
13337TIP3    H139954   7.124   3.829   3.718
13337TIP3    H239955   7.189   3.875   3.847
13338TIP3   OH239956   3.119   4.017   0.441
13338TIP3    H139957   3.086   4.107   0.441
13338TIP3    H239958   3.075   3.975   0.515
13339TIP3   OH239959   1.932   2.567   0.348
13339TIP3    H139960   1.985   2.584   0.271
13339TIP3    H239961   1.845   2.546   0.314
13340TIP3   OH239962   6.934   5.139   4.963
13340TIP3    H139963   7.009   5.177   5.008
13340TIP3    H239964   6.968   5.112   4.878
13341TIP3   OH239965   5.641   7.520   0.350
13341TIP3    H139966   5.614   7.512   0.259
13341TIP3    H239967   5.725   7.475   0.354
13342TIP3   OH239968   4.096   6.221   4.019
13342TIP3    H139969   4.033   6.279   3.977
13342TIP3    H239970   4.086   6.239   4.113
13343TIP3   OH239971   1.391   2.849   6.017
13343TIP3    H139972   1.313   2.812   6.057
13343TIP3    H239973   1.458   2.781   6.025
13344TIP3   OH239974   6.540   2.258   1.164
13344TIP3    H139975   6.589   2.176   1.161
13344TIP3    H239976   6.453   2.233   1.198
13345TIP3   OH239977   7.152   0.832   1.240
13345TIP3    H139978   7.137   0.884   1.161
13345TIP3    H239979   7.192   0.894   1.302
13346TIP3   OH239980   1.631   5.667   0.850
13346TIP3    H139981   1.595   5.585   0.815
13346TIP3    H239982   1.692   5.640   0.918
13347TIP3   OH239983   8.261   3.732   3.651
13347TIP3    H139984   8.235   3.714   3.741
13347TIP3    H239985   8.310   3.654   3.623
13348TIP3   OH239986   7.337   0.192   0.989
13348TIP3    H139987   7.429   0.211   1.008
13348TIP3    H239988   7.305   0.148   1.068
13349TIP3   OH239989   7.135   4.001   6.399
13349TIP3    H139990   7.042   4.017   6.383
13349TIP3    H239991   7.147   4.020   6.492
13350TIP3   OH239992   5.361   3.817   4.696
13350TIP3    H139993   5.454   3.810   4.678
13350TIP3    H239994   5.322   3.743   4.649
13351TIP3   OH239995   3.828   1.217   0.764
13351TIP3    H139996   3.837   1.137   0.711
13351TIP3    H239997   3.796   1.185   0.849
13352TIP3   OH239998   0.233   4.892   0.650
13352TIP3    H139999   0.219   4.973   0.600
13352TIP3    H240000   0.320   4.903   0.689
13353TIP3   OH240001   3.762   7.250   1.540
13353TIP3    H140002   3.741   7.273   1.450
13353TIP3    H240003   3.851   7.283   1.553
13354TIP3   OH240004   0.082   1.317   0.555
13354TIP3    H140005   0.043   1.403   0.545
13354TIP3    H240006   0.008   1.259   0.573
13355TIP3   OH240007   6.956   2.769   2.538
13355TIP3    H140008   7.006   2.730   2.609
13355TIP3    H240009   6.899   2.698   2.507
13356TIP3   OH240010   2.951   7.507   1.322
13356TIP3    H140011   2.966   7.599   1.341
13356TIP3    H240012   2.997   7.491   1.240
13357TIP3   OH240013   3.327   5.102   6.577
13357TIP3    H140014   3.264   5.031   6.588
13357TIP3    H240015   3.299   5.170   6.637
13358TIP3   OH240016   5.163   2.366   0.279
13358TIP3    H140017   5.074   2.340   0.256
13358TIP3    H240018   5.204   2.388   0.195
13359TIP3   OH240019   2.287   3.651   4.527
13359TIP3    H140020   2.212   3.593   4.510
13359TIP3    H240021   2.330   3.660   4.442
13360TIP3   OH240022   5.644   1.230   1.418
13360TIP3    H140023   5.569   1.200   1.366
13360TIP3    H240024   5.668   1.314   1.379
13361TIP3   OH240025   7.372   4.137   6.294
13361TIP3    H140026   7.296   4.081   6.305
13361TIP3    H240027   7.443   4.077   6.270
13362TIP3   OH240028   6.158   7.178   1.181
13362TIP3    H140029   6.149   7.088   1.215
13362TIP3    H240030   6.076   7.220   1.204
13363TIP3   OH240031   2.726   2.605   6.499
13363TIP3    H140032   2.676   2.686   6.501
13363TIP3    H240033   2.813   2.630   6.529
13364TIP3   OH240034   7.838   6.209   4.723
13364TIP3    H140035   7.906   6.231   4.787
13364TIP3    H240036   7.886   6.168   4.651
13365TIP3   OH240037   0.603   2.805   5.802
13365TIP3    H140038   0.599   2.838   5.712
13365TIP3    H240039   0.511   2.797   5.828
13366TIP3   OH240040   0.736   1.871   2.423
13366TIP3    H140041   0.707   1.868   2.514
13366TIP3    H240042   0.786   1.953   2.416
13367TIP3   OH240043   8.071   6.475   1.224
13367TIP3    H140044   8.104   6.385   1.223
13367TIP3    H240045   8.017   6.481   1.303
13368TIP3   OH240046   2.968   7.469   5.287
13368TIP3    H140047   2.899   7.404   5.278
13368TIP3    H240048   2.979   7.506   5.199
13369TIP3   OH240049   2.584   2.980   4.451
13369TIP3    H140050   2.672   2.977   4.489
13369TIP3    H240051   2.589   3.048   4.384
13370TIP3   OH240052   3.760   2.098   6.346
13370TIP3    H140053   3.665   2.094   6.352
13370TIP3    H240054   3.779   2.088   6.253
13371TIP3   OH240055   5.161   3.759   6.410
13371TIP3    H140056   5.156   3.818   6.336
13371TIP3    H240057   5.104   3.798   6.476
13372TIP3   OH240058   3.116   4.871   3.851
13372TIP3    H140059   3.200   4.893   3.892
13372TIP3    H240060   3.138   4.805   3.785
13373TIP3   OH240061   6.962   1.604   6.391
13373TIP3    H140062   7.034   1.560   6.436
13373TIP3    H240063   6.890   1.542   6.393
13374TIP3   OH240064   2.113   7.524   1.001
13374TIP3    H140065   2.201   7.556   1.019
13374TIP3    H240066   2.123   7.429   0.990
13375TIP3   OH240067   3.568   5.169   0.723
13375TIP3    H140068   3.608   5.083   0.713
13375TIP3    H240069   3.592   5.197   0.811
13376TIP3   OH240070   7.307   2.174   0.382
13376TIP3    H140071   7.356   2.209   0.456
13376TIP3    H240072   7.261   2.097   0.418
13377TIP3   OH240073   7.044   5.233   4.147
13377TIP3    H140074   7.115   5.173   4.123
13377TIP3    H240075   6.967   5.198   4.103
13378TIP3   OH240076   8.187   5.182   6.237
13378TIP3    H140077   8.247   5.122   6.281
13378TIP3    H240078   8.179   5.147   6.148
13379TIP3   OH240079   3.906   1.879   3.086
13379TIP3    H140080   3.902   1.802   3.143
13379TIP3    H240081   3.821   1.882   3.042
13380TIP3   OH240082   0.251   6.237   5.246
13380TIP3    H140083   0.320   6.303   5.247
13380TIP3    H240084   0.192   6.265   5.176
13381TIP3   OH240085   4.903   5.922   0.142
13381TIP3    H140086   4.928   6.008   0.110
13381TIP3    H240087   4.835   5.939   0.207
13382TIP3   OH240088   4.597   1.041   6.593
13382TIP3    H140089   4.674   1.002   6.553
13382TIP3    H240090   4.570   1.109   6.532
13383TIP3   OH240091   4.908   0.483   3.227
13383TIP3    H140092   4.910   0.502   3.321
13383TIP3    H240093   4.983   0.425   3.213
13384TIP3   OH240094   2.702   3.442   4.434
13384TIP3    H140095   2.790   3.418   4.406
13384TIP3    H240096   2.714   3.477   4.522
13385TIP3   OH240097   7.832   3.958   5.259
13385TIP3    H140098   7.920   3.934   5.231
13385TIP3    H240099   7.774   3.900   5.208
13386TIP3   OH240100   4.267   2.784   3.941
13386TIP3    H140101   4.347   2.816   3.900
13386TIP3    H240102   4.197   2.814   3.883
13387TIP3   OH240103   2.656   2.885   6.517
13387TIP3    H140104   2.605   2.939   6.457
13387TIP3    H240105   2.711   2.948   6.564
13388TIP3   OH240106   4.303   2.906   1.124
13388TIP3    H140107   4.296   2.817   1.160
13388TIP3    H240108   4.255   2.901   1.041
13389TIP3   OH240109   1.294   7.669   0.398
13389TIP3    H140110   1.372   7.614   0.393
13389TIP3    H240111   1.290   7.712   0.312
13390TIP3   OH240112   4.837   4.467   4.836
13390TIP3    H140113   4.750   4.505   4.850
13390TIP3    H240114   4.819   4.374   4.822
13391TIP3   OH240115   4.346   7.726   5.416
13391TIP3    H140116   4.441   7.720   5.412
13391TIP3    H240117   4.319   7.750   5.328
13392TIP3   OH240118   3.912   6.110   6.400
13392TIP3    H140119   3.875   6.129   6.314
13392TIP3    H240120   3.856   6.042   6.436
13393TIP3   OH240121   5.443   7.800   5.257
13393TIP3    H140122   5.513   7.756   5.306
13393TIP3    H240123   5.392   7.846   5.324
13394TIP3   OH240124   7.316   3.581   4.254
13394TIP3    H140125   7.320   3.589   4.158
13394TIP3    H240126   7.308   3.671   4.285
13395TIP3   OH240127   2.415   3.662   1.049
13395TIP3    H140128   2.320   3.649   1.046
13395TIP3    H240129   2.447   3.595   1.109
13396TIP3   OH240130   0.439   2.824   0.514
13396TIP3    H140131   0.410   2.741   0.553
13396TIP3    H240132   0.422   2.889   0.582
13397TIP3   OH240133   4.118   0.160   5.403
13397TIP3    H140134   4.121   0.103   5.480
13397TIP3    H240135   4.196   0.215   5.411
13398TIP3   OH240136   7.904   0.253   3.695
13398TIP3    H140137   7.943   0.336   3.722
13398TIP3    H240138   7.906   0.199   3.774
13399TIP3   OH240139   4.252   0.106   6.709
13399TIP3    H140140   4.271   0.169   6.640
13399TIP3    H240141   4.332   0.104   6.763
13400TIP3   OH240142   1.818   3.137   3.128
13400TIP3    H140143   1.761   3.194   3.180
13400TIP3    H240144   1.795   3.048   3.156
13401TIP3   OH240145   6.789   1.627   0.538
13401TIP3    H140146   6.741   1.664   0.612
13401TIP3    H240147   6.759   1.678   0.462
13402TIP3   OH240148   6.039   1.235   2.484
13402TIP3    H140149   6.108   1.174   2.511
13402TIP3    H240150   6.010   1.276   2.565
13403TIP3   OH240151   4.101   2.533   3.918
13403TIP3    H140152   4.137   2.621   3.922
13403TIP3    H240153   4.108   2.509   3.826
13404TIP3   OH240154   2.663   2.402   2.712
13404TIP3    H140155   2.690   2.435   2.626
13404TIP3    H240156   2.722   2.446   2.774
13405TIP3   OH240157   2.976   1.316   0.693
13405TIP3    H140158   3.056   1.267   0.716
13405TIP3    H240159   2.929   1.259   0.633
13406TIP3   OH240160   7.630   4.245   2.047
13406TIP3    H140161   7.696   4.208   2.106
13406TIP3    H240162   7.671   4.323   2.011
13407TIP3   OH240163   4.114   4.063   0.382
13407TIP3    H140164   4.048   4.002   0.415
13407TIP3    H240165   4.094   4.146   0.426
13408TIP3   OH240166   5.485   7.188   1.830
13408TIP3    H140167   5.433   7.251   1.880
13408TIP3    H240168   5.506   7.233   1.748
13409TIP3   OH240169   6.365   3.391   2.144
13409TIP3    H140170   6.406   3.341   2.074
13409TIP3    H240171   6.273   3.400   2.118
13410TIP3   OH240172   0.341   6.732   2.851
13410TIP3    H140173   0.313   6.711   2.940
13410TIP3    H240174   0.413   6.794   2.862
13411TIP3   OH240175   6.608   6.574   3.535
13411TIP3    H140176   6.594   6.650   3.478
13411TIP3    H240177   6.701   6.553   3.524
13412TIP3   OH240178   3.055   0.302   0.171
13412TIP3    H140179   3.131   0.244   0.163
13412TIP3    H240180   3.090   0.383   0.209
13413TIP3   OH240181   0.570   1.060   5.192
13413TIP3    H140182   0.550   0.982   5.243
13413TIP3    H240183   0.572   1.131   5.257
13414TIP3   OH240184   6.997   4.848   4.659
13414TIP3    H140185   6.907   4.871   4.679
13414TIP3    H240186   7.016   4.773   4.715
13415TIP3   OH240187   6.174   7.188   0.408
13415TIP3    H140188   6.108   7.121   0.428
13415TIP3    H240189   6.140   7.268   0.449
13416TIP3   OH240190   5.170   5.880   2.264
13416TIP3    H140191   5.254   5.893   2.218
13416TIP3    H240192   5.176   5.792   2.300
13417TIP3   OH240193   0.444   4.599   2.397
13417TIP3    H140194   0.435   4.692   2.379
13417TIP3    H240195   0.415   4.556   2.317
13418TIP3   OH240196   3.101   2.413   2.933
13418TIP3    H140197   3.057   2.493   2.904
13418TIP3    H240198   3.032   2.347   2.932
13419TIP3   OH240199   7.387   7.827   5.049
13419TIP3    H140200   7.349   7.741   5.069
13419TIP3    H240201   7.347   7.852   4.966
13420TIP3   OH240202   7.745   5.485   2.360
13420TIP3    H140203   7.712   5.575   2.368
13420TIP3    H240204   7.835   5.496   2.329
13421TIP3   OH240205   8.309   1.968   5.931
13421TIP3    H140206   8.227   1.931   5.897
13421TIP3    H240207   8.291   2.061   5.941
13422TIP3   OH240208   8.087   2.937   2.655
13422TIP3    H140209   8.034   2.915   2.579
13422TIP3    H240210   8.100   3.032   2.648
13423TIP3   OH240211   6.363   0.852   5.570
13423TIP3    H140212   6.327   0.786   5.629
13423TIP3    H240213   6.286   0.894   5.531
13424TIP3   OH240214   0.937   4.230   3.525
13424TIP3    H140215   0.948   4.203   3.616
13424TIP3    H240216   0.845   4.252   3.518
13425TIP3   OH240217   2.230   5.346   1.975
13425TIP3    H140218   2.135   5.344   1.977
13425TIP3    H240219   2.252   5.400   1.900
13426TIP3   OH240220   2.694   1.443   3.503
13426TIP3    H140221   2.748   1.381   3.454
13426TIP3    H240222   2.647   1.389   3.567
13427TIP3   OH240223   2.965   7.527   0.300
13427TIP3    H140224   2.953   7.586   0.375
13427TIP3    H240225   2.962   7.439   0.338
13428TIP3   OH240226   2.298   0.674   5.480
13428TIP3    H140227   2.287   0.767   5.501
13428TIP3    H240228   2.337   0.674   5.392
13429TIP3   OH240229   7.162   6.817   2.701
13429TIP3    H140230   7.113   6.751   2.653
13429TIP3    H240231   7.207   6.868   2.633
13430TIP3   OH240232   2.697   4.103   5.951
13430TIP3    H140233   2.758   4.105   5.878
13430TIP3    H240234   2.682   4.195   5.972
13431TIP3   OH240235   8.066   5.811   5.073
13431TIP3    H140236   8.053   5.795   5.166
13431TIP3    H240237   8.146   5.764   5.051
13432TIP3   OH240238   0.201   1.000   1.206
13432TIP3    H140239   0.180   1.069   1.268
13432TIP3    H240240   0.292   1.015   1.182
13433TIP3   OH240241   6.159   4.229   3.567
13433TIP3    H140242   6.071   4.195   3.552
13433TIP3    H240243   6.176   4.210   3.660
13434TIP3   OH240244   5.878   0.058   1.993
13434TIP3    H140245   5.909  -0.032   2.004
13434TIP3    H240246   5.793   0.060   2.036
13435TIP3   OH240247   0.597   6.584   6.060
13435TIP3    H140248   0.519   6.633   6.036
13435TIP3    H240249   0.589   6.501   6.013
13436TIP3   OH240250   7.475   0.802   1.496
13436TIP3    H140251   7.415   0.730   1.518
13436TIP3    H240252   7.439   0.878   1.542
13437TIP3   OH240253   6.790   7.616   0.701
13437TIP3    H140254   6.798   7.711   0.715
13437TIP3    H240255   6.696   7.601   0.694
13438TIP3   OH240256   2.474   3.118   0.733
13438TIP3    H140257   2.419   3.084   0.804
13438TIP3    H240258   2.412   3.142   0.664
13439TIP3   OH240259   3.690   4.712   3.949
13439TIP3    H140260   3.597   4.735   3.959
13439TIP3    H240261   3.733   4.751   4.025
13440TIP3   OH240262   7.066   7.664   2.134
13440TIP3    H140263   7.161   7.654   2.138
13440TIP3    H240264   7.041   7.696   2.221
13441TIP3   OH240265   3.064   4.105   4.040
13441TIP3    H140266   3.067   4.017   4.076
13441TIP3    H240267   2.970   4.126   4.036
13442TIP3   OH240268   3.705   3.715   3.235
13442TIP3    H140269   3.635   3.699   3.172
13442TIP3    H240270   3.673   3.676   3.317
13443TIP3   OH240271   2.229   3.066   3.360
13443TIP3    H140272   2.263   2.979   3.382
13443TIP3    H240273   2.306   3.122   3.357
13444TIP3   OH240274   0.736   6.826   1.376
13444TIP3    H140275   0.789   6.882   1.433
13444TIP3    H240276   0.646   6.843   1.402
13445TIP3   OH240277   3.555   2.620   4.738
13445TIP3    H140278   3.570   2.672   4.818
13445TIP3    H240279   3.539   2.686   4.670
13446TIP3   OH240280   6.052   7.787   3.716
13446TIP3    H140281   6.054   7.818   3.625
13446TIP3    H240282   5.978   7.833   3.755
13447TIP3   OH240283   5.352   5.123   2.063
13447TIP3    H140284   5.299   5.066   2.007
13447TIP3    H240285   5.441   5.087   2.057
13448TIP3   OH240286   4.876   5.482   5.509
13448TIP3    H140287   4.792   5.441   5.486
13448TIP3    H240288   4.902   5.439   5.590
13449TIP3   OH240289   4.992   2.951   3.325
13449TIP3    H140290   4.921   2.998   3.369
13449TIP3    H240291   5.039   3.018   3.276
13450TIP3   OH240292   1.282   5.819   3.089
13450TIP3    H140293   1.248   5.730   3.084
13450TIP3    H240294   1.367   5.810   3.132
13451TIP3   OH240295   7.498   3.070   2.121
13451TIP3    H140296   7.453   2.988   2.139
13451TIP3    H240297   7.591   3.049   2.126
13452TIP3   OH240298   3.386   2.692   2.517
13452TIP3    H140299   3.323   2.667   2.450
13452TIP3    H240300   3.448   2.749   2.472
13453TIP3   OH240301   3.356   7.745   1.278
13453TIP3    H140302   3.411   7.712   1.350
13453TIP3    H240303   3.371   7.683   1.207
13454TIP3   OH240304   0.558   7.777   5.898
13454TIP3    H140305   0.542   7.689   5.931
13454TIP3    H240306   0.474   7.803   5.860
13455TIP3   OH240307   1.383   3.263   4.499
13455TIP3    H140308   1.458   3.205   4.508
13455TIP3    H240309   1.415   3.348   4.528
13456TIP3   OH240310   0.399   6.132   0.221
13456TIP3    H140311   0.380   6.173   0.136
13456TIP3    H240312   0.422   6.041   0.199
13457TIP3   OH240313   3.317   4.561   1.164
13457TIP3    H140314   3.312   4.492   1.231
13457TIP3    H240315   3.226   4.583   1.145
13458TIP3   OH240316   5.271   2.635   2.583
13458TIP3    H140317   5.327   2.649   2.507
13458TIP3    H240318   5.293   2.546   2.612
13459TIP3   OH240319   6.790   4.230   4.585
13459TIP3    H140320   6.766   4.304   4.529
13459TIP3    H240321   6.814   4.270   4.668
13460TIP3   OH240322   1.704   0.260   0.196
13460TIP3    H140323   1.731   0.344   0.233
13460TIP3    H240324   1.720   0.269   0.102
13461TIP3   OH240325   0.134   2.787   3.093
13461TIP3    H140326   0.217   2.739   3.101
13461TIP3    H240327   0.070   2.732   3.139
13462TIP3   OH240328   7.462   5.102   2.814
13462TIP3    H140329   7.371   5.079   2.833
13462TIP3    H240330   7.472   5.087   2.720
13463TIP3   OH240331   3.938   3.740   5.718
13463TIP3    H140332   3.950   3.698   5.803
13463TIP3    H240333   4.001   3.812   5.717
13464TIP3   OH240334   0.168   1.860   2.898
13464TIP3    H140335   0.179   1.955   2.888
13464TIP3    H240336   0.081   1.842   2.863
13465TIP3   OH240337   8.058   1.978   6.649
13465TIP3    H140338   7.992   2.048   6.646
13465TIP3    H240339   8.115   1.997   6.575
13466TIP3   OH240340   1.512   6.174   4.518
13466TIP3    H140341   1.454   6.152   4.591
13466TIP3    H240342   1.526   6.268   4.526
13467TIP3   OH240343   5.877   7.758   1.593
13467TIP3    H140344   5.940   7.803   1.537
13467TIP3    H240345   5.930   7.694   1.641
13468TIP3   OH240346   7.172   5.075   1.846
13468TIP3    H140347   7.080   5.084   1.872
13468TIP3    H240348   7.172   5.005   1.781
13469TIP3   OH240349   0.343   1.353   1.947
13469TIP3    H140350   0.313   1.443   1.958
13469TIP3    H240351   0.342   1.316   2.035
13470TIP3   OH240352   0.603   2.724   4.543
13470TIP3    H140353   0.651   2.740   4.462
13470TIP3    H240354   0.588   2.811   4.580
13471TIP3   OH240355   4.958   0.422   4.530
13471TIP3    H140356   5.013   0.499   4.549
13471TIP3    H240357   4.909   0.447   4.452
13472TIP3   OH240358   7.280   6.022   5.864
13472TIP3    H140359   7.252   6.060   5.781
13472TIP3    H240360   7.371   5.995   5.849
13473TIP3   OH240361   2.485   1.984   1.396
13473TIP3    H140362   2.563   2.006   1.346
13473TIP3    H240363   2.514   1.985   1.487
13474TIP3   OH240364   8.194   2.394   0.359
13474TIP3    H140365   8.250   2.445   0.300
13474TIP3    H240366   8.164   2.321   0.306
13475TIP3   OH240367   6.896   4.901   1.713
13475TIP3    H140368   6.805   4.877   1.695
13475TIP3    H240369   6.905   4.891   1.808
13476TIP3   OH240370   1.627   3.105   4.472
13476TIP3    H140371   1.698   3.069   4.524
13476TIP3    H240372   1.668   3.128   4.388
13477TIP3   OH240373   5.291   5.807   5.849
13477TIP3    H140374   5.329   5.726   5.813
13477TIP3    H240375   5.255   5.853   5.773
13478TIP3   OH240376   4.243   2.021   5.683
13478TIP3    H140377   4.286   1.955   5.628
13478TIP3    H240378   4.156   2.030   5.645
13479TIP3   OH240379   2.208   7.491   6.497
13479TIP3    H140380   2.281   7.480   6.558
13479TIP3    H240381   2.135   7.521   6.551
13480TIP3   OH240382   7.743   2.590   3.765
13480TIP3    H140383   7.824   2.603   3.814
13480TIP3    H240384   7.716   2.679   3.741
13481TIP3   OH240385   5.103   7.048   1.917
13481TIP3    H140386   5.065   7.097   1.843
13481TIP3    H240387   5.028   7.005   1.958
13482TIP3   OH240388   1.618   0.885   5.786
13482TIP3    H140389   1.643   0.974   5.809
13482TIP3    H240390   1.687   0.855   5.727
13483TIP3   OH240391   0.776   4.224   0.950
13483TIP3    H140392   0.785   4.272   1.033
13483TIP3    H240393   0.807   4.136   0.971
13484TIP3   OH240394   2.434   3.644   5.840
13484TIP3    H140395   2.458   3.577   5.776
13484TIP3    H240396   2.390   3.712   5.789
13485TIP3   OH240397   8.278   3.455   0.588
13485TIP3    H140398   8.202   3.423   0.638
13485TIP3    H240399   8.352   3.407   0.623
13486TIP3   OH240400   0.342   2.992   6.189
13486TIP3    H140401   0.283   2.989   6.113
13486TIP3    H240402   0.429   2.975   6.153
13487TIP3   OH240403   6.164   6.363   3.515
13487TIP3    H140404   6.124   6.432   3.462
13487TIP3    H240405   6.238   6.406   3.558
13488TIP3   OH240406   4.340   2.667   5.482
13488TIP3    H140407   4.340   2.618   5.564
13488TIP3    H240408   4.389   2.612   5.421
13489TIP3   OH240409   7.824   1.297   6.144
13489TIP3    H140410   7.819   1.237   6.219
13489TIP3    H240411   7.775   1.253   6.075
13490TIP3   OH240412   2.601   1.008   2.242
13490TIP3    H140413   2.673   1.068   2.263
13490TIP3    H240414   2.544   1.012   2.319
13491TIP3   OH240415   4.592   2.712   0.041
13491TIP3    H140416   4.616   2.710   0.134
13491TIP3    H240417   4.571   2.804   0.024
13492TIP3   OH240418   7.158   2.897   6.546
13492TIP3    H140419   7.108   2.926   6.622
13492TIP3    H240420   7.182   2.978   6.501
13493TIP3   OH240421   6.667   7.618   4.463
13493TIP3    H140422   6.618   7.577   4.534
13493TIP3    H240423   6.607   7.619   4.389
13494TIP3   OH240424   4.402   4.920   5.721
13494TIP3    H140425   4.451   4.854   5.672
13494TIP3    H240426   4.347   4.869   5.781
13495TIP3   OH240427   0.223   0.082   6.107
13495TIP3    H140428   0.181   0.040   6.032
13495TIP3    H240429   0.155   0.136   6.146
13496TIP3   OH240430   5.522   2.690   0.471
13496TIP3    H140431   5.549   2.649   0.553
13496TIP3    H240432   5.437   2.651   0.451
13497TIP3   OH240433   3.906   5.260   1.795
13497TIP3    H140434   3.887   5.354   1.790
13497TIP3    H240435   3.862   5.222   1.719
13498TIP3   OH240436   1.332   0.454   3.218
13498TIP3    H140437   1.351   0.375   3.169
13498TIP3    H240438   1.338   0.525   3.153
13499TIP3   OH240439   7.704   5.025   4.332
13499TIP3    H140440   7.686   4.997   4.242
13499TIP3    H240441   7.646   4.971   4.386
13500TIP3   OH240442   2.574   7.096   1.562
13500TIP3    H140443   2.485   7.060   1.559
13500TIP3    H240444   2.566   7.183   1.523
13501TIP3   OH240445   4.561   2.142   4.830
13501TIP3    H140446   4.639   2.140   4.885
13501TIP3    H240447   4.590   2.181   4.748
13502TIP3   OH240448   6.680   1.215   1.752
13502TIP3    H140449   6.644   1.154   1.687
13502TIP3    H240450   6.670   1.170   1.836
13503TIP3   OH240451   1.701   1.271   2.548
13503TIP3    H140452   1.689   1.351   2.600
13503TIP3    H240453   1.613   1.233   2.543
13504TIP3   OH240454   0.858   4.870   1.306
13504TIP3    H140455   0.892   4.785   1.335
13504TIP3    H240456   0.784   4.888   1.364
13505TIP3   OH240457   4.929   4.930   5.895
13505TIP3    H140458   4.840   4.921   5.930
13505TIP3    H240459   4.943   4.851   5.844
13506TIP3   OH240460   3.666   4.333   2.924
13506TIP3    H140461   3.612   4.280   2.865
13506TIP3    H240462   3.687   4.274   2.997
13507TIP3   OH240463   0.700   1.029   1.602
13507TIP3    H140464   0.790   1.054   1.584
13507TIP3    H240465   0.653   1.112   1.613
13508TIP3   OH240466   1.421   0.762   4.503
13508TIP3    H140467   1.448   0.793   4.416
13508TIP3    H240468   1.503   0.742   4.548
13509TIP3   OH240469   0.120   6.899   5.241
13509TIP3    H140470   0.042   6.951   5.262
13509TIP3    H240471   0.175   6.906   5.319
13510TIP3   OH240472   7.586   6.263   4.458
13510TIP3    H140473   7.608   6.170   4.452
13510TIP3    H240474   7.529   6.269   4.535
13511TIP3   OH240475   6.855   0.511   2.615
13511TIP3    H140476   6.852   0.603   2.589
13511TIP3    H240477   6.885   0.465   2.537
13512TIP3   OH240478   1.827   7.711   5.628
13512TIP3    H140479   1.732   7.712   5.640
13512TIP3    H240480   1.856   7.630   5.670
13513TIP3   OH240481   4.006   4.339   1.233
13513TIP3    H140482   4.011   4.263   1.292
13513TIP3    H240483   3.963   4.407   1.285
13514TIP3   OH240484   3.297   7.138   0.852
13514TIP3    H140485   3.352   7.061   0.868
13514TIP3    H240486   3.281   7.136   0.758
13515TIP3   OH240487   7.136   5.226   5.129
13515TIP3    H140488   7.221   5.182   5.124
13515TIP3    H240489   7.146   5.289   5.200
13516TIP3   OH240490   6.880   6.876   6.034
13516TIP3    H140491   6.842   6.794   6.066
13516TIP3    H240492   6.808   6.939   6.040
13517TIP3   OH240493   3.670   1.351   4.757
13517TIP3    H140494   3.613   1.276   4.773
13517TIP3    H240495   3.643   1.383   4.671
13518TIP3   OH240496   3.219   7.639   2.986
13518TIP3    H140497   3.254   7.552   3.001
13518TIP3    H240498   3.291   7.699   3.007
13519TIP3   OH240499   5.885   3.666   2.365
13519TIP3    H140500   5.921   3.747   2.400
13519TIP3    H240501   5.957   3.603   2.370
13520TIP3   OH240502   0.905   6.887   0.092
13520TIP3    H140503   0.864   6.940   0.160
13520TIP3    H240504   0.971   6.835   0.138
13521TIP3   OH240505   2.442   7.490   5.461
13521TIP3    H140506   2.510   7.438   5.504
13521TIP3    H240507   2.471   7.497   5.370
13522TIP3   OH240508   0.736   4.593   3.814
13522TIP3    H140509   0.674   4.666   3.819
13522TIP3    H240510   0.680   4.516   3.808
13523TIP3   OH240511   6.937   3.896   1.463
13523TIP3    H140512   7.019   3.868   1.502
13523TIP3    H240513   6.963   3.956   1.392
13524TIP3   OH240514   7.366   2.299   6.577
13524TIP3    H140515   7.279   2.298   6.616
13524TIP3    H240516   7.374   2.214   6.533
13525TIP3   OH240517   2.146   3.656   3.107
13525TIP3    H140518   2.177   3.718   3.173
13525TIP3    H240519   2.062   3.693   3.078
13526TIP3   OH240520   7.488   4.290   0.515
13526TIP3    H140521   7.503   4.319   0.425
13526TIP3    H240522   7.528   4.203   0.519
13527TIP3   OH240523   3.587   4.687   3.683
13527TIP3    H140524   3.635   4.718   3.760
13527TIP3    H240525   3.506   4.650   3.720
13528TIP3   OH240526   2.213   7.448   0.056
13528TIP3    H140527   2.220   7.528   0.004
13528TIP3    H240528   2.166   7.475   0.135
13529TIP3   OH240529   4.050   2.242   5.767
13529TIP3    H140530   4.136   2.201   5.777
13529TIP3    H240531   4.067   2.328   5.729
13530TIP3   OH240532   1.149   3.949   3.125
13530TIP3    H140533   1.065   3.914   3.153
13530TIP3    H240534   1.193   3.876   3.081
13531TIP3   OH240535   7.479   4.057   2.209
13531TIP3    H140536   7.529   4.115   2.152
13531TIP3    H240537   7.396   4.101   2.223
13532TIP3   OH240538   6.224   6.430   4.678
13532TIP3    H140539   6.223   6.334   4.682
13532TIP3    H240540   6.226   6.458   4.769
13533TIP3   OH240541   0.911   0.801   4.145
13533TIP3    H140542   0.874   0.889   4.154
13533TIP3    H240543   0.837   0.743   4.162
13534TIP3   OH240544   3.856   2.416   2.934
13534TIP3    H140545   3.836   2.343   2.993
13534TIP3    H240546   3.838   2.381   2.846
13535TIP3   OH240547   0.376   4.085   6.005
13535TIP3    H140548   0.392   4.132   5.923
13535TIP3    H240549   0.342   4.151   6.065
13536TIP3   OH240550   6.031   3.989   3.254
13536TIP3    H140551   5.985   4.018   3.175
13536TIP3    H240552   6.091   3.921   3.224
13537TIP3   OH240553   5.813   5.224   3.391
13537TIP3    H140554   5.783   5.234   3.301
13537TIP3    H240555   5.743   5.260   3.445
13538TIP3   OH240556   5.073   0.060   6.579
13538TIP3    H140557   5.072   0.014   6.495
13538TIP3    H240558   4.987   0.101   6.585
13539TIP3   OH240559   7.763   7.423   0.358
13539TIP3    H140560   7.708   7.378   0.294
13539TIP3    H240561   7.740   7.383   0.441
13540TIP3   OH240562   3.632   3.519   6.447
13540TIP3    H140563   3.688   3.594   6.429
13540TIP3    H240564   3.575   3.513   6.370
13541TIP3   OH240565   4.993   4.700   0.592
13541TIP3    H140566   5.045   4.735   0.665
13541TIP3    H240567   4.905   4.736   0.606
13542TIP3   OH240568   2.526   2.194   2.999
13542TIP3    H140569   2.549   2.104   3.023
13542TIP3    H240570   2.591   2.248   3.043
13543TIP3   OH240571   0.656   1.718   5.784
13543TIP3    H140572   0.694   1.661   5.717
13543TIP3    H240573   0.597   1.661   5.834
13544TIP3   OH240574   0.493   3.045   2.071
13544TIP3    H140575   0.492   3.117   2.134
13544TIP3    H240576   0.579   3.004   2.082
13545TIP3   OH240577   4.533   0.726   3.969
13545TIP3    H140578   4.481   0.686   3.899
13545TIP3    H240579   4.615   0.677   3.970
13546TIP3   OH240580   8.212   6.411   4.543
13546TIP3    H140581   8.204   6.387   4.451
13546TIP3    H240582   8.127   6.449   4.566
13547TIP3   OH240583   1.568   6.861   3.499
13547TIP3    H140584   1.659   6.845   3.472
13547TIP3    H240585   1.516   6.838   3.422
13548TIP3   OH240586   2.953   6.807   2.267
13548TIP3    H140587   2.869   6.808   2.222
13548TIP3    H240588   2.999   6.884   2.235
13549TIP3   OH240589   0.427   0.530   5.714
13549TIP3    H140590   0.507   0.482   5.690
13549TIP3    H240591   0.391   0.480   5.787
13550TIP3   OH240592   0.773   6.946   3.845
13550TIP3    H140593   0.733   7.023   3.806
13550TIP3    H240594   0.835   6.981   3.909
13551TIP3   OH240595   6.299   5.983   1.016
13551TIP3    H140596   6.282   5.999   0.924
13551TIP3    H240597   6.381   6.031   1.034
13552TIP3   OH240598   6.876   5.925   6.803
13552TIP3    H140599   6.816   6.000   6.803
13552TIP3    H240600   6.869   5.889   6.715
13553TIP3   OH240601   6.600   4.688   0.285
13553TIP3    H140602   6.683   4.642   0.272
13553TIP3    H240603   6.577   4.722   0.198
13554TIP3   OH240604   4.717   1.861   2.268
13554TIP3    H140605   4.738   1.917   2.193
13554TIP3    H240606   4.626   1.883   2.289
13555TIP3   OH240607   7.105   7.426   1.604
13555TIP3    H140608   7.030   7.381   1.643
13555TIP3    H240609   7.180   7.373   1.628
13556TIP3   OH240610   5.365   5.648   0.915
13556TIP3    H140611   5.272   5.664   0.897
13556TIP3    H240612   5.384   5.703   0.991
13557TIP3   OH240613   2.596   1.925   6.573
13557TIP3    H140614   2.671   1.882   6.532
13557TIP3    H240615   2.590   1.886   6.660
13558TIP3   OH240616   0.193   6.095   4.360
13558TIP3    H140617   0.106   6.108   4.322
13558TIP3    H240618   0.249   6.159   4.316
13559TIP3   OH240619   6.755   4.024   2.558
13559TIP3    H140620   6.795   4.091   2.614
13559TIP3    H240621   6.818   4.011   2.487
13560TIP3   OH240622   8.241   2.040   2.532
13560TIP3    H140623   8.201   2.097   2.598
13560TIP3    H240624   8.272   1.964   2.582
13561TIP3   OH240625   3.237   1.233   2.361
13561TIP3    H140626   3.235   1.169   2.289
13561TIP3    H240627   3.214   1.316   2.320
13562TIP3   OH240628   1.458   6.606   1.778
13562TIP3    H140629   1.502   6.673   1.831
13562TIP3    H240630   1.481   6.629   1.688
13563TIP3   OH240631   7.436   0.801   4.633
13563TIP3    H140632   7.443   0.724   4.690
13563TIP3    H240633   7.479   0.871   4.682
13564TIP3   OH240634   4.536   6.035   2.320
13564TIP3    H140635   4.452   6.055   2.360
13564TIP3    H240636   4.601   6.077   2.377
13565TIP3   OH240637   5.031   6.134   2.750
13565TIP3    H140638   5.012   6.175   2.834
13565TIP3    H240639   5.072   6.203   2.698
13566TIP3   OH240640   4.875   0.583   0.272
13566TIP3    H140641   4.930   0.632   0.212
13566TIP3    H240642   4.823   0.525   0.216
13567TIP3   OH240643   0.039   0.761   3.526
13567TIP3    H140644   0.075   0.836   3.572
13567TIP3    H240645   0.111   0.699   3.520
13568TIP3   OH240646   5.899   4.624   2.294
13568TIP3    H140647   5.835   4.691   2.316
13568TIP3    H240648   5.969   4.636   2.359
13569TIP3   OH240649   5.235   7.365   5.078
13569TIP3    H140650   5.201   7.344   4.991
13569TIP3    H240651   5.187   7.307   5.138
13570TIP3   OH240652   0.696   1.874   2.103
13570TIP3    H140653   0.667   1.963   2.124
13570TIP3    H240654   0.674   1.823   2.181
13571TIP3   OH240655   1.058   5.151   5.065
13571TIP3    H140656   1.094   5.101   5.138
13571TIP3    H240657   1.131   5.206   5.035
13572TIP3   OH240658   1.640   6.452   1.386
13572TIP3    H140659   1.589   6.488   1.459
13572TIP3    H240660   1.631   6.357   1.395
13573TIP3   OH240661   0.315   5.577   1.030
13573TIP3    H140662   0.342   5.650   0.974
13573TIP3    H240663   0.275   5.514   0.969
13574TIP3   OH240664   3.452   2.297   2.781
13574TIP3    H140665   3.424   2.344   2.859
13574TIP3    H240666   3.410   2.344   2.709
13575TIP3   OH240667   2.718   1.520   1.940
13575TIP3    H140668   2.630   1.537   1.907
13575TIP3    H240669   2.706   1.449   2.003
13576TIP3   OH240670   6.263   0.463   2.265
13576TIP3    H140671   6.245   0.369   2.256
13576TIP3    H240672   6.196   0.494   2.326
13577TIP3   OH240673   1.633   3.300   3.845
13577TIP3    H140674   1.561   3.240   3.821
13577TIP3    H240675   1.599   3.350   3.919
13578TIP3   OH240676   5.623   0.343   1.718
13578TIP3    H140677   5.654   0.264   1.674
13578TIP3    H240678   5.571   0.311   1.791
13579TIP3   OH240679   4.685   1.355   1.744
13579TIP3    H140680   4.716   1.354   1.835
13579TIP3    H240681   4.726   1.433   1.706
13580TIP3   OH240682   1.243   1.920   6.353
13580TIP3    H140683   1.263   1.925   6.446
13580TIP3    H240684   1.244   1.826   6.333
13581TIP3   OH240685   7.552   3.563   0.170
13581TIP3    H140686   7.607   3.622   0.221
13581TIP3    H240687   7.496   3.520   0.235
13582TIP3   OH240688   3.901   4.789   0.423
13582TIP3    H140689   3.893   4.694   0.428
13582TIP3    H240690   3.995   4.805   0.429
13583TIP3   OH240691   6.837   5.778   2.024
13583TIP3    H140692   6.880   5.766   1.940
13583TIP3    H240693   6.879   5.714   2.082
13584TIP3   OH240694   2.854   4.674   0.709
13584TIP3    H140695   2.799   4.618   0.654
13584TIP3    H240696   2.818   4.762   0.698
13585TIP3   OH240697   4.017   5.641   3.963
13585TIP3    H140698   4.104   5.674   3.984
13585TIP3    H240699   4.004   5.567   4.023
13586TIP3   OH240700   6.024   5.208   6.317
13586TIP3    H140701   6.022   5.304   6.314
13586TIP3    H240702   6.071   5.188   6.398
13587TIP3   OH240703   6.319   6.307   1.653
13587TIP3    H140704   6.232   6.349   1.651
13587TIP3    H240705   6.300   6.214   1.644
13588TIP3   OH240706   4.228   1.870   6.067
13588TIP3    H140707   4.295   1.930   6.034
13588TIP3    H240708   4.198   1.823   5.990
13589TIP3   OH240709   5.933   5.688   0.604
13589TIP3    H140710   5.893   5.699   0.691
13589TIP3    H240711   5.984   5.608   0.611
13590TIP3   OH240712   0.188   7.833   4.374
13590TIP3    H140713   0.181   7.879   4.291
13590TIP3    H240714   0.146   7.749   4.359
13591TIP3   OH240715   2.041   6.321   5.486
13591TIP3    H140716   1.985   6.246   5.505
13591TIP3    H240717   2.056   6.362   5.571
13592TIP3   OH240718   3.236   4.108   6.241
13592TIP3    H140719   3.153   4.071   6.273
13592TIP3    H240720   3.265   4.164   6.313
13593TIP3   OH240721   3.976   0.531   1.429
13593TIP3    H140722   3.982   0.626   1.414
13593TIP3    H240723   3.987   0.492   1.343
13594TIP3   OH240724   7.476   4.165   4.715
13594TIP3    H140725   7.404   4.214   4.677
13594TIP3    H240726   7.513   4.224   4.781
13595TIP3   OH240727   0.894   7.256   6.448
13595TIP3    H140728   0.892   7.319   6.520
13595TIP3    H240729   0.984   7.258   6.416
13596TIP3   OH240730   2.621   4.060   1.059
13596TIP3    H140731   2.560   4.115   1.109
13596TIP3    H240732   2.705   4.104   1.066
13597TIP3   OH240733   3.027   6.112   6.495
13597TIP3    H140734   3.095   6.076   6.553
13597TIP3    H240735   3.051   6.203   6.483
13598TIP3   OH240736   4.105   7.300   4.899
13598TIP3    H140737   4.184   7.264   4.857
13598TIP3    H240738   4.103   7.259   4.985
13599TIP3   OH240739   5.323   3.030   5.545
13599TIP3    H140740   5.411   3.064   5.532
13599TIP3    H240741   5.293   3.070   5.626
13600TIP3   OH240742   4.384   3.160   0.088
13600TIP3    H140743   4.301   3.177   0.132
13600TIP3    H240744   4.451   3.169   0.156
13601TIP3   OH240745   4.387   5.202   2.285
13601TIP3    H140746   4.473   5.168   2.311
13601TIP3    H240747   4.406   5.283   2.238
13602TIP3   OH240748   2.762   0.135   4.903
13602TIP3    H140749   2.850   0.099   4.894
13602TIP3    H240750   2.775   0.221   4.943
13603TIP3   OH240751   8.059   7.033   0.774
13603TIP3    H140752   7.979   7.016   0.723
13603TIP3    H240753   8.126   7.051   0.708
13604TIP3   OH240754   1.563   1.780   6.135
13604TIP3    H140755   1.518   1.696   6.143
13604TIP3    H240756   1.602   1.777   6.047
13605TIP3   OH240757   1.989   1.641   2.140
13605TIP3    H140758   1.977   1.588   2.061
13605TIP3    H240759   2.083   1.652   2.147
13606TIP3   OH240760   4.281   6.737   3.511
13606TIP3    H140761   4.253   6.828   3.517
13606TIP3    H240762   4.376   6.742   3.496
13607TIP3   OH240763   4.376   1.346   5.810
13607TIP3    H140764   4.455   1.335   5.863
13607TIP3    H240765   4.310   1.294   5.855
13608TIP3   OH240766   2.381   2.378   6.526
13608TIP3    H140767   2.420   2.323   6.594
13608TIP3    H240768   2.406   2.336   6.444
13609TIP3   OH240769   5.288  -0.003   5.937
13609TIP3    H140770   5.340   0.070   5.904
13609TIP3    H240771   5.229  -0.025   5.865
13610TIP3   OH240772   6.919   4.359   3.117
13610TIP3    H140773   6.884   4.278   3.081
13610TIP3    H240774   6.844   4.418   3.122
13611TIP3   OH240775   7.591   2.342   2.300
13611TIP3    H140776   7.619   2.356   2.209
13611TIP3    H240777   7.608   2.250   2.316
13612TIP3   OH240778   4.020   7.009   5.584
13612TIP3    H140779   4.034   7.042   5.495
13612TIP3    H240780   4.099   7.034   5.632
13613TIP3   OH240781   4.229   5.030   3.742
13613TIP3    H140782   4.309   4.998   3.784
13613TIP3    H240783   4.164   4.962   3.759
13614TIP3   OH240784   6.917   7.263   6.445
13614TIP3    H140785   6.927   7.339   6.503
13614TIP3    H240786   7.006   7.230   6.433
13615TIP3   OH240787   4.439   2.154   1.703
13615TIP3    H140788   4.520   2.197   1.674
13615TIP3    H240789   4.390   2.139   1.622
13616TIP3   OH240790   3.763   6.706   2.956
13616TIP3    H140791   3.728   6.728   2.869
13616TIP3    H240792   3.767   6.790   3.002
13617TIP3   OH240793   7.981   1.975   2.025
13617TIP3    H140794   7.929   2.018   2.093
13617TIP3    H240795   8.008   2.046   1.967
13618TIP3   OH240796   2.903   0.182   6.486
13618TIP3    H140797   2.887   0.092   6.513
13618TIP3    H240798   2.953   0.174   6.405
13619TIP3   OH240799   8.240   6.922   1.406
13619TIP3    H140800   8.308   6.941   1.470
13619TIP3    H240801   8.180   6.862   1.452
13620TIP3   OH240802   5.530   0.836   6.337
13620TIP3    H140803   5.546   0.775   6.409
13620TIP3    H240804   5.613   0.841   6.290
13621TIP3   OH240805   2.575   4.784   0.736
13621TIP3    H140806   2.503   4.720   0.738
13621TIP3    H240807   2.571   4.822   0.648
13622TIP3   OH240808   7.416   4.088   3.292
13622TIP3    H140809   7.447   4.029   3.361
13622TIP3    H240810   7.493   4.142   3.271
13623TIP3   OH240811   6.265   6.971   4.962
13623TIP3    H140812   6.280   6.922   4.882
13623TIP3    H240813   6.351   6.977   5.003
13624TIP3   OH240814   7.909   4.205   1.059
13624TIP3    H140815   7.833   4.151   1.082
13624TIP3    H240816   7.881   4.295   1.075
13625TIP3   OH240817   4.212   1.208   3.556
13625TIP3    H140818   4.263   1.191   3.635
13625TIP3    H240819   4.234   1.136   3.498
13626TIP3   OH240820   2.278   6.186   5.382
13626TIP3    H140821   2.203   6.230   5.423
13626TIP3    H240822   2.351   6.246   5.394
13627TIP3   OH240823   6.604   0.818   6.469
13627TIP3    H140824   6.651   0.755   6.524
13627TIP3    H240825   6.575   0.886   6.529
13628TIP3   OH240826   8.013   5.893   1.510
13628TIP3    H140827   7.985   5.890   1.601
13628TIP3    H240828   8.041   5.804   1.490
13629TIP3   OH240829   8.041   0.244   0.405
13629TIP3    H140830   8.044   0.333   0.371
13629TIP3    H240831   8.123   0.233   0.453
13630TIP3   OH240832   5.678   2.688   2.337
13630TIP3    H140833   5.607   2.745   2.308
13630TIP3    H240834   5.674   2.613   2.277
13631TIP3   OH240835   0.209   3.051   6.429
13631TIP3    H140836   0.167   3.136   6.421
13631TIP3    H240837   0.248   3.036   6.343
13632TIP3   OH240838   6.899   1.964   4.568
13632TIP3    H140839   6.976   2.019   4.577
13632TIP3    H240840   6.833   2.005   4.624
13633TIP3   OH240841   6.130   5.219   3.129
13633TIP3    H140842   6.186   5.145   3.104
13633TIP3    H240843   6.042   5.191   3.107
13634TIP3   OH240844   6.123   4.238   2.415
13634TIP3    H140845   6.167   4.206   2.336
13634TIP3    H240846   6.030   4.236   2.393
13635TIP3   OH240847   1.226   1.102   3.363
13635TIP3    H140848   1.288   1.090   3.290
13635TIP3    H240849   1.255   1.182   3.406
13636TIP3   OH240850   7.264   4.488   6.127
13636TIP3    H140851   7.359   4.483   6.116
13636TIP3    H240852   7.228   4.446   6.049
13637TIP3   OH240853   0.760   1.725   1.411
13637TIP3    H140854   0.783   1.811   1.376
13637TIP3    H240855   0.803   1.721   1.496
13638TIP3   OH240856   5.813   4.682   0.111
13638TIP3    H140857   5.879   4.643   0.170
13638TIP3    H240858   5.865   4.728   0.045
13639TIP3   OH240859   3.981   6.433   1.671
13639TIP3    H140860   4.042   6.395   1.607
13639TIP3    H240861   4.024   6.420   1.756
13640TIP3   OH240862   1.014   5.139   3.751
13640TIP3    H140863   0.965   5.083   3.691
13640TIP3    H240864   0.978   5.227   3.738
13641TIP3   OH240865   0.570   1.424   2.329
13641TIP3    H140866   0.643   1.468   2.372
13641TIP3    H240867   0.605   1.396   2.244
13642TIP3   OH240868   2.691   0.532   2.658
13642TIP3    H140869   2.643   0.449   2.648
13642TIP3    H240870   2.733   0.546   2.574
13643TIP3   OH240871   7.495   3.404   0.512
13643TIP3    H140872   7.434   3.365   0.575
13643TIP3    H240873   7.444   3.413   0.431
13644TIP3   OH240874   5.894   1.920   4.749
13644TIP3    H140875   5.976   1.870   4.749
13644TIP3    H240876   5.886   1.953   4.838
13645TIP3   OH240877   0.948   3.909   0.964
13645TIP3    H140878   1.015   3.976   0.955
13645TIP3    H240879   0.912   3.922   1.051
13646TIP3   OH240880   3.278   1.922   0.512
13646TIP3    H140881   3.342   1.852   0.504
13646TIP3    H240882   3.195   1.881   0.489
13647TIP3   OH240883   6.569   3.511   1.106
13647TIP3    H140884   6.539   3.542   1.191
13647TIP3    H240885   6.505   3.444   1.080
13648TIP3   OH240886   4.809   2.935   5.480
13648TIP3    H140887   4.896   2.929   5.519
13648TIP3    H240888   4.752   2.963   5.552
13649TIP3   OH240889   0.276   6.336   2.083
13649TIP3    H140890   0.293   6.427   2.109
13649TIP3    H240891   0.267   6.289   2.165
13650TIP3   OH240892   2.708   1.363   3.055
13650TIP3    H140893   2.676   1.279   3.089
13650TIP3    H240894   2.742   1.342   2.968
13651TIP3   OH240895   1.165   6.122   6.326
13651TIP3    H140896   1.199   6.083   6.406
13651TIP3    H240897   1.222   6.089   6.257
13652TIP3   OH240898   0.770   0.985   4.778
13652TIP3    H140899   0.862   0.990   4.805
13652TIP3    H240900   0.773   0.996   4.683
13653TIP3   OH240901   6.144   6.713   2.899
13653TIP3    H140902   6.105   6.780   2.842
13653TIP3    H240903   6.089   6.712   2.977
13654TIP3   OH240904   2.424   2.567   2.764
13654TIP3    H140905   2.501   2.510   2.766
13654TIP3    H240906   2.353   2.510   2.735
13655TIP3   OH240907   7.668   7.712   5.597
13655TIP3    H140908   7.658   7.630   5.549
13655TIP3    H240909   7.606   7.771   5.555
13656TIP3   OH240910   8.011   6.014   4.590
13656TIP3    H140911   8.087   6.056   4.631
13656TIP3    H240912   8.006   5.927   4.631
13657TIP3   OH240913   5.696   3.951   5.751
13657TIP3    H140914   5.743   3.894   5.690
13657TIP3    H240915   5.729   4.039   5.731
13658TIP3   OH240916   5.667   2.645   5.269
13658TIP3    H140917   5.689   2.603   5.185
13658TIP3    H240918   5.747   2.636   5.321
13659TIP3   OH240919   4.487   6.076   0.613
13659TIP3    H140920   4.473   5.982   0.610
13659TIP3    H240921   4.429   6.111   0.545
13660TIP3   OH240922   7.649   6.688   6.515
13660TIP3    H140923   7.650   6.751   6.586
13660TIP3    H240924   7.591   6.726   6.449
13661TIP3   OH240925   6.674   6.607   5.751
13661TIP3    H140926   6.765   6.635   5.751
13661TIP3    H240927   6.632   6.662   5.685
13662TIP3   OH240928   3.890   3.781   4.744
13662TIP3    H140929   3.972   3.760   4.700
13662TIP3    H240930   3.825   3.724   4.703
13663TIP3   OH240931   4.008   7.226   4.502
13663TIP3    H140932   3.969   7.162   4.442
13663TIP3    H240933   4.098   7.196   4.514
13664TIP3   OH240934   6.064   1.277   1.388
13664TIP3    H140935   6.023   1.194   1.366
13664TIP3    H240936   6.075   1.321   1.304
13665TIP3   OH240937   0.901   2.836   2.541
13665TIP3    H140938   0.994   2.822   2.560
13665TIP3    H240939   0.898   2.921   2.497
13666TIP3   OH240940   0.851   1.289   6.411
13666TIP3    H140941   0.828   1.233   6.337
13666TIP3    H240942   0.927   1.247   6.450
13667TIP3   OH240943   8.054   7.024   5.634
13667TIP3    H140944   8.103   6.959   5.586
13667TIP3    H240945   7.963   7.013   5.604
13668TIP3   OH240946   5.702   5.361   5.936
13668TIP3    H140947   5.708   5.429   6.004
13668TIP3    H240948   5.647   5.293   5.974
13669TIP3   OH240949   0.308   3.893   3.061
13669TIP3    H140950   0.332   3.975   3.104
13669TIP3    H240951   0.218   3.876   3.091
13670TIP3   OH240952   6.953   7.755   4.658
13670TIP3    H140953   6.993   7.779   4.742
13670TIP3    H240954   6.888   7.689   4.682
13671TIP3   OH240955   2.017   7.402   5.315
13671TIP3    H140956   1.944   7.462   5.304
13671TIP3    H240957   2.094   7.458   5.317
13672TIP3   OH240958   2.062   3.839   1.000
13672TIP3    H140959   2.098   3.755   1.027
13672TIP3    H240960   2.131   3.902   1.018
13673TIP3   OH240961   6.097   1.396   1.937
13673TIP3    H140962   6.136   1.479   1.965
13673TIP3    H240963   6.126   1.386   1.846
13674TIP3   OH240964   1.899   3.883   4.307
13674TIP3    H140965   1.923   3.973   4.286
13674TIP3    H240966   1.803   3.884   4.310
13675TIP3   OH240967   1.102   0.305   0.071
13675TIP3    H140968   1.140   0.216   0.069
13675TIP3    H240969   1.167   0.359   0.027
13676TIP3   OH240970   8.263   4.827   3.925
13676TIP3    H140971   8.201   4.898   3.943
13676TIP3    H240972   8.239   4.758   3.987
13677TIP3   OH240973   5.387   2.109   5.378
13677TIP3    H140974   5.393   2.195   5.337
13677TIP3    H240975   5.445   2.053   5.325
13678TIP3   OH240976   2.144   0.601   5.698
13678TIP3    H140977   2.099   0.628   5.618
13678TIP3    H240978   2.076   0.601   5.766
13679TIP3   OH240979   3.796   2.254   0.695
13679TIP3    H140980   3.814   2.238   0.602
13679TIP3    H240981   3.869   2.215   0.742
13680TIP3   OH240982   4.039   2.071   6.679
13680TIP3    H140983   4.021   2.109   6.765
13680TIP3    H240984   4.120   2.021   6.691
13681TIP3   OH240985   7.028   4.441   5.532
13681TIP3    H140986   7.065   4.529   5.531
13681TIP3    H240987   6.941   4.451   5.492
13682TIP3   OH240988   4.033   4.405   6.715
13682TIP3    H140989   4.015   4.499   6.715
13682TIP3    H240990   4.113   4.396   6.766
13683TIP3   OH240991   6.513   1.990   5.539
13683TIP3    H140992   6.487   2.082   5.541
13683TIP3    H240993   6.597   1.989   5.585
13684TIP3   OH240994   0.343   6.488   6.252
13684TIP3    H140995   0.431   6.478   6.288
13684TIP3    H240996   0.303   6.557   6.305
13685TIP3   OH240997   1.124   6.360   1.400
13685TIP3    H140998   1.067   6.434   1.420
13685TIP3    H240999   1.154   6.377   1.311
13686TIP3   OH241000   4.606   5.287   6.617
13686TIP3    H141001   4.517   5.290   6.583
13686TIP3    H241002   4.623   5.376   6.648
13687TIP3   OH241003   1.379   3.497   2.062
13687TIP3    H141004   1.334   3.555   2.123
13687TIP3    H241005   1.448   3.552   2.023
13688TIP3   OH241006   1.653   4.226   3.704
13688TIP3    H141007   1.646   4.308   3.753
13688TIP3    H241008   1.567   4.214   3.663
13689TIP3   OH241009   0.477   6.514   3.896
13689TIP3    H141010   0.564   6.554   3.898
13689TIP3    H241011   0.437   6.540   3.979
13690TIP3   OH241012   7.399   4.807   2.568
13690TIP3    H141013   7.401   4.819   2.473
13690TIP3    H241014   7.336   4.872   2.599
13691TIP3   OH241015   5.011   7.494   1.970
13691TIP3    H141016   4.963   7.575   1.985
13691TIP3    H241017   4.956   7.426   2.008
13692TIP3   OH241018   6.286   1.767   1.717
13692TIP3    H141019   6.340   1.833   1.760
13692TIP3    H241020   6.232   1.731   1.788
13693TIP3   OH241021   6.716   4.889   4.738
13693TIP3    H141022   6.679   4.941   4.809
13693TIP3    H241023   6.677   4.802   4.750
13694TIP3   OH241024   0.819   0.816   5.889
13694TIP3    H141025   0.835   0.909   5.906
13694TIP3    H241026   0.856   0.771   5.965
13695TIP3   OH241027   5.308   1.436   2.047
13695TIP3    H141028   5.357   1.495   1.990
13695TIP3    H241029   5.225   1.421   2.000
13696TIP3   OH241030   0.267   5.862   3.018
13696TIP3    H141031   0.279   5.886   3.110
13696TIP3    H241032   0.355   5.845   2.986
13697TIP3   OH241033   3.610   3.652   1.522
13697TIP3    H141034   3.675   3.602   1.573
13697TIP3    H241035   3.658   3.730   1.494
13698TIP3   OH241036   7.867   1.971   5.120
13698TIP3    H141037   7.857   2.044   5.059
13698TIP3    H241038   7.927   1.910   5.076
13699TIP3   OH241039   5.113   6.854   4.541
13699TIP3    H141040   5.082   6.944   4.531
13699TIP3    H241041   5.048   6.801   4.495
13700TIP3   OH241042   6.406   3.273   4.489
13700TIP3    H141043   6.421   3.178   4.481
13700TIP3    H241044   6.382   3.285   4.581
13701TIP3   OH241045   8.119   0.133   2.605
13701TIP3    H141046   8.191   0.070   2.604
13701TIP3    H241047   8.161   0.219   2.612
13702TIP3   OH241048   3.357   4.677   0.879
13702TIP3    H141049   3.275   4.725   0.895
13702TIP3    H241050   3.350   4.599   0.934
13703TIP3   OH241051   4.311   0.095   4.121
13703TIP3    H141052   4.341   0.122   4.208
13703TIP3    H241053   4.390   0.091   4.068
13704TIP3   OH241054   1.686   3.709   3.321
13704TIP3    H141055   1.719   3.701   3.411
13704TIP3    H241056   1.763   3.727   3.268
13705TIP3   OH241057   0.081   2.679   5.305
13705TIP3    H141058   0.068   2.766   5.268
13705TIP3    H241059   0.126   2.630   5.237
13706TIP3   OH241060   6.137   5.736   3.042
13706TIP3    H141061   6.188   5.781   2.974
13706TIP3    H241062   6.057   5.708   2.997
13707TIP3   OH241063   7.394   6.035   5.168
13707TIP3    H141064   7.385   6.076   5.254
13707TIP3    H241065   7.415   6.107   5.109
13708TIP3   OH241066   2.462   6.383   5.448
13708TIP3    H141067   2.509   6.453   5.402
13708TIP3    H241068   2.498   6.383   5.536
13709TIP3   OH241069   3.652   7.100   0.477
13709TIP3    H141070   3.575   7.146   0.510
13709TIP3    H241071   3.726   7.145   0.517
13710TIP3   OH241072   7.184   6.837   5.466
13710TIP3    H141073   7.218   6.907   5.411
13710TIP3    H241074   7.090   6.854   5.470
13711TIP3   OH241075   6.963   5.217   0.952
13711TIP3    H141076   7.014   5.152   1.000
13711TIP3    H241077   7.011   5.232   0.871
13712TIP3   OH241078   6.904   4.868   3.733
13712TIP3    H141079   6.931   4.958   3.751
13712TIP3    H241080   6.828   4.854   3.791
13713TIP3   OH241081   7.675   3.976   0.764
13713TIP3    H141082   7.735   4.050   0.769
13713TIP3    H241083   7.634   3.984   0.678
13714TIP3   OH241084   1.631   5.665   1.327
13714TIP3    H141085   1.547   5.619   1.328
13714TIP3    H241086   1.640   5.702   1.415
13715TIP3   OH241087   4.306   3.288   0.652
13715TIP3    H141088   4.303   3.384   0.649
13715TIP3    H241089   4.393   3.266   0.618
13716TIP3   OH241090   6.247   4.070   4.079
13716TIP3    H141091   6.332   4.056   4.120
13716TIP3    H241092   6.215   4.152   4.117
13717TIP3   OH241093   3.800   3.170   6.072
13717TIP3    H141094   3.808   3.083   6.111
13717TIP3    H241095   3.755   3.156   5.989
13718TIP3   OH241096   3.003   2.102   3.578
13718TIP3    H141097   2.965   2.030   3.528
13718TIP3    H241098   3.084   2.067   3.614
13719TIP3   OH241099   0.192   3.320   1.892
13719TIP3    H141100   0.229   3.363   1.814
13719TIP3    H241101   0.259   3.257   1.918
13720TIP3   OH241102   8.066   0.984   1.512
13720TIP3    H141103   7.982   0.983   1.467
13720TIP3    H241104   8.086   1.077   1.524
13721TIP3   OH241105   7.806   5.732   2.506
13721TIP3    H141106   7.860   5.653   2.518
13721TIP3    H241107   7.763   5.744   2.591
13722TIP3   OH241108   7.166   0.396   3.811
13722TIP3    H141109   7.232   0.441   3.759
13722TIP3    H241110   7.094   0.380   3.750
13723TIP3   OH241111   8.032   2.446   5.766
13723TIP3    H141112   8.020   2.439   5.860
13723TIP3    H241113   7.989   2.528   5.742
13724TIP3   OH241114   0.889   4.183   5.512
13724TIP3    H141115   0.979   4.197   5.543
13724TIP3    H241116   0.892   4.097   5.470
13725TIP3   OH241117   1.454   6.741   5.233
13725TIP3    H141118   1.412   6.666   5.192
13725TIP3    H241119   1.419   6.743   5.322
13726TIP3   OH241120   0.952   7.787   4.291
13726TIP3    H141121   0.917   7.781   4.202
13726TIP3    H241122   1.046   7.800   4.279
13727TIP3   OH241123   1.955   6.567   2.962
13727TIP3    H141124   1.917   6.504   2.900
13727TIP3    H241125   2.005   6.514   3.023
13728TIP3   OH241126   6.342   2.971   4.764
13728TIP3    H141127   6.312   2.909   4.830
13728TIP3    H241128   6.397   3.033   4.812
13729TIP3   OH241129   4.856   6.710   4.481
13729TIP3    H141130   4.795   6.644   4.449
13729TIP3    H241131   4.803   6.789   4.490
13730TIP3   OH241132   3.533   3.225   4.239
13730TIP3    H141133   3.529   3.131   4.259
13730TIP3    H241134   3.450   3.243   4.194
13731TIP3   OH241135   3.591   1.324   0.024
13731TIP3    H141136   3.544   1.389   0.076
13731TIP3    H241137   3.656   1.287   0.085
13732TIP3   OH241138   2.922   4.992   3.525
13732TIP3    H141139   3.008   4.975   3.563
13732TIP3    H241140   2.928   5.081   3.491
13733TIP3   OH241141   1.517   6.871   1.268
13733TIP3    H141142   1.436   6.825   1.247
13733TIP3    H241143   1.522   6.942   1.204
13734TIP3   OH241144   5.637   2.744   5.544
13734TIP3    H141145   5.608   2.727   5.633
13734TIP3    H241146   5.630   2.660   5.500
13735TIP3   OH241147   1.152   2.049   0.658
13735TIP3    H141148   1.092   1.980   0.685
13735TIP3    H241149   1.153   2.111   0.731
13736TIP3   OH241150   0.284   3.900   1.430
13736TIP3    H141151   0.208   3.848   1.455
13736TIP3    H241152   0.258   3.991   1.449
13737TIP3   OH241153   4.594   2.256   4.537
13737TIP3    H141154   4.598   2.261   4.442
13737TIP3    H241155   4.653   2.325   4.568
13738TIP3   OH241156   0.190   2.104   3.913
13738TIP3    H141157   0.233   2.068   3.836
13738TIP3    H241158   0.259   2.151   3.961
13739TIP3   OH241159   1.472   4.068   4.014
13739TIP3    H141160   1.536   4.110   4.072
13739TIP3    H241161   1.519   4.052   3.933
13740TIP3   OH241162   6.433   6.651   6.256
13740TIP3    H141163   6.440   6.735   6.300
13740TIP3    H241164   6.449   6.670   6.163
13741TIP3   OH241165   1.763   0.515   0.275
13741TIP3    H141166   1.818   0.518   0.197
13741TIP3    H241167   1.815   0.555   0.344
13742TIP3   OH241168   3.471   5.674   0.123
13742TIP3    H141169   3.435   5.598   0.076
13742TIP3    H241170   3.488   5.641   0.212
13743TIP3   OH241171   1.063   3.062   0.820
13743TIP3    H141172   1.051   2.996   0.751
13743TIP3    H241173   0.994   3.126   0.805
13744TIP3   OH241174   8.082   3.439   5.722
13744TIP3    H141175   8.132   3.452   5.641
13744TIP3    H241176   7.990   3.441   5.694
13745TIP3   OH241177   6.413   6.932   6.214
13745TIP3    H141178   6.413   6.983   6.295
13745TIP3    H241179   6.469   6.981   6.154
13746TIP3   OH241180   2.184   3.939   1.945
13746TIP3    H141181   2.258   3.968   1.892
13746TIP3    H241182   2.153   4.018   1.989
13747TIP3   OH241183   3.973   5.654   5.463
13747TIP3    H141184   3.916   5.654   5.386
13747TIP3    H241185   3.952   5.735   5.509
13748TIP3   OH241186   2.389   6.144   4.190
13748TIP3    H141187   2.353   6.095   4.264
13748TIP3    H241188   2.448   6.208   4.230
13749TIP3   OH241189   2.311   2.213   1.334
13749TIP3    H141190   2.381   2.159   1.371
13749TIP3    H241191   2.235   2.194   1.388
13750TIP3   OH241192   3.668   4.631   5.463
13750TIP3    H141193   3.696   4.631   5.555
13750TIP3    H241194   3.732   4.577   5.418
13751TIP3   OH241195   5.954   7.751   5.748
13751TIP3    H141196   5.954   7.728   5.841
13751TIP3    H241197   5.868   7.724   5.717
13752TIP3   OH241198   2.387   6.168   6.521
13752TIP3    H141199   2.383   6.202   6.432
13752TIP3    H241200   2.420   6.078   6.510
13753TIP3   OH241201   1.106   1.843   5.463
13753TIP3    H141202   1.119   1.792   5.543
13753TIP3    H241203   1.031   1.899   5.482
13754TIP3   OH241204   7.949   1.725   4.958
13754TIP3    H141205   8.033   1.679   4.947
13754TIP3    H241206   7.888   1.657   4.987
13755TIP3   OH241207   2.513   5.243   3.646
13755TIP3    H141208   2.481   5.277   3.562
13755TIP3    H241209   2.472   5.299   3.712
13756TIP3   OH241210   5.406   3.909   5.359
13756TIP3    H141211   5.342   3.979   5.372
13756TIP3    H241212   5.375   3.864   5.280
13757TIP3   OH241213   3.890   6.329   0.410
13757TIP3    H141214   3.899   6.353   0.502
13757TIP3    H241215   3.979   6.309   0.381
13758TIP3   OH241216   4.484   1.267   4.833
13758TIP3    H141217   4.550   1.261   4.901
13758TIP3    H241218   4.425   1.194   4.849
13759TIP3   OH241219   4.143   5.471   4.847
13759TIP3    H141220   4.189   5.438   4.924
13759TIP3    H241221   4.075   5.529   4.883
13760TIP3   OH241222   5.301   4.546   5.130
13760TIP3    H141223   5.305   4.451   5.138
13760TIP3    H241224   5.393   4.574   5.123
13761TIP3   OH241225   4.074   4.542   0.181
13761TIP3    H141226   4.066   4.516   0.089
13761TIP3    H241227   4.101   4.463   0.226
13762TIP3   OH241228   4.540   1.290   2.100
13762TIP3    H141229   4.490   1.277   2.181
13762TIP3    H241230   4.552   1.202   2.065
13763TIP3   OH241231   1.181   2.117   5.504
13763TIP3    H141232   1.173   2.022   5.517
13763TIP3    H241233   1.238   2.125   5.428
13764TIP3   OH241234   7.222   7.690   5.840
13764TIP3    H141235   7.307   7.729   5.818
13764TIP3    H241236   7.177   7.757   5.891
13765TIP3   OH241237   7.715   3.789   2.526
13765TIP3    H141238   7.676   3.783   2.613
13765TIP3    H241239   7.756   3.876   2.524
13766TIP3   OH241240   1.508   4.454   0.010
13766TIP3    H141241   1.445   4.477   0.078
13766TIP3    H241242   1.523   4.535  -0.038
13767TIP3   OH241243   2.179   3.167   5.196
13767TIP3    H141244   2.158   3.204   5.282
13767TIP3    H241245   2.187   3.073   5.212
13768TIP3   OH241246   3.828   4.697   1.711
13768TIP3    H141247   3.776   4.736   1.780
13768TIP3    H241248   3.919   4.719   1.734
13769TIP3   OH241249   7.234   4.885   5.342
13769TIP3    H141250   7.268   4.810   5.391
13769TIP3    H241251   7.139   4.875   5.345
13770TIP3   OH241252   2.897   3.335   5.918
13770TIP3    H141253   2.910   3.247   5.881
13770TIP3    H241254   2.804   3.353   5.905
13771TIP3   OH241255   0.171   3.509   2.236
13771TIP3    H141256   0.265   3.524   2.233
13771TIP3    H241257   0.136   3.585   2.282
13772TIP3   OH241258   4.568   6.812   0.358
13772TIP3    H141259   4.554   6.724   0.323
13772TIP3    H241260   4.480   6.847   0.370
13773TIP3   OH241261   5.727   5.038   4.751
13773TIP3    H141262   5.780   4.966   4.783
13773TIP3    H241263   5.682   5.072   4.829
13774TIP3   OH241264   1.476   4.014   0.199
13774TIP3    H141265   1.423   4.058   0.133
13774TIP3    H241266   1.438   3.926   0.206
13775TIP3   OH241267   3.041   0.748   1.001
13775TIP3    H141268   3.065   0.838   1.024
13775TIP3    H241269   2.950   0.753   0.975
13776TIP3   OH241270   5.440   1.332   5.960
13776TIP3    H141271   5.396   1.279   5.894
13776TIP3    H241272   5.400   1.418   5.953
13777TIP3   OH241273   6.052   0.482   0.488
13777TIP3    H141274   6.056   0.416   0.419
13777TIP3    H241275   5.962   0.513   0.486
13778TIP3   OH241276   1.105   0.034   4.839
13778TIP3    H141277   1.029   0.050   4.783
13778TIP3    H241278   1.120  -0.060   4.833
13779TIP3   OH241279   6.882   2.448   2.717
13779TIP3    H141280   6.855   2.386   2.785
13779TIP3    H241281   6.902   2.529   2.765
13780TIP3   OH241282   7.911   7.359   4.438
13780TIP3    H141283   7.982   7.393   4.385
13780TIP3    H241284   7.872   7.289   4.385
13781TIP3   OH241285   1.803   0.220   1.728
13781TIP3    H141286   1.835   0.149   1.673
13781TIP3    H241287   1.869   0.229   1.797
13782TIP3   OH241288   5.803   5.385   4.829
13782TIP3    H141289   5.737   5.327   4.867
13782TIP3    H241290   5.882   5.369   4.881
13783TIP3   OH241291   1.278   0.114   3.568
13783TIP3    H141292   1.291   0.093   3.660
13783TIP3    H241293   1.189   0.084   3.549
13784TIP3   OH241294   7.194   4.355   2.399
13784TIP3    H141295   7.126   4.384   2.460
13784TIP3    H241296   7.179   4.261   2.389
13785TIP3   OH241297   7.071   6.583   1.949
13785TIP3    H141298   7.118   6.629   2.018
13785TIP3    H241299   7.028   6.652   1.899
13786TIP3   OH241300   5.598   1.971   6.057
13786TIP3    H141301   5.606   1.963   5.962
13786TIP3    H241302   5.684   1.998   6.086
13787TIP3   OH241303   6.390   1.414   3.784
13787TIP3    H141304   6.361   1.327   3.812
13787TIP3    H241305   6.372   1.471   3.859
13788TIP3   OH241306   7.169   1.700   1.584
13788TIP3    H141307   7.144   1.745   1.664
13788TIP3    H241308   7.220   1.764   1.535
13789TIP3   OH241309   4.725   2.927   2.298
13789TIP3    H141310   4.712   2.837   2.329
13789TIP3    H241311   4.764   2.916   2.211
13790TIP3   OH241312   2.763   2.318   6.712
13790TIP3    H141313   2.775   2.413   6.719
13790TIP3    H241314   2.791   2.297   6.622
13791TIP3   OH241315   6.367   3.140   6.670
13791TIP3    H141316   6.390   3.063   6.721
13791TIP3    H241317   6.272   3.134   6.659
13792TIP3   OH241318   5.371   6.269   1.360
13792TIP3    H141319   5.374   6.327   1.285
13792TIP3    H241320   5.376   6.327   1.436
13793TIP3   OH241321   3.554   2.354   3.776
13793TIP3    H141322   3.504   2.310   3.708
13793TIP3    H241323   3.645   2.333   3.757
13794TIP3   OH241324   3.012   7.590   0.599
13794TIP3    H141325   3.093   7.640   0.590
13794TIP3    H241326   3.032   7.524   0.666
13795TIP3   OH241327   3.373   6.230   6.289
13795TIP3    H141328   3.466   6.241   6.270
13795TIP3    H241329   3.347   6.313   6.329
13796TIP3   OH241330   3.488   4.168   0.519
13796TIP3    H141331   3.529   4.185   0.434
13796TIP3    H241332   3.461   4.076   0.515
13797TIP3   OH241333   2.506   6.785   4.613
13797TIP3    H141334   2.586   6.833   4.591
13797TIP3    H241335   2.437   6.830   4.564
13798TIP3   OH241336   1.673   6.874   5.367
13798TIP3    H141337   1.598   6.831   5.325
13798TIP3    H241338   1.673   6.963   5.330
13799TIP3   OH241339   3.268   3.843   0.834
13799TIP3    H141340   3.332   3.884   0.891
13799TIP3    H241341   3.236   3.768   0.884
13800TIP3   OH241342   7.836   7.490   3.505
13800TIP3    H141343   7.795   7.539   3.576
13800TIP3    H241344   7.922   7.465   3.539
13801TIP3   OH241345   5.399   6.642   3.702
13801TIP3    H141346   5.422   6.551   3.718
13801TIP3    H241347   5.479   6.691   3.722
13802TIP3   OH241348   7.797   2.765   5.153
13802TIP3    H141349   7.783   2.703   5.081
13802TIP3    H241350   7.719   2.755   5.208
13803TIP3   OH241351   0.553   3.407   1.831
13803TIP3    H141352   0.499   3.329   1.844
13803TIP3    H241353   0.597   3.393   1.747
13804TIP3   OH241354   3.290   5.880   4.666
13804TIP3    H141355   3.223   5.905   4.603
13804TIP3    H241356   3.241   5.857   4.745
13805TIP3   OH241357   8.163   2.651   4.185
13805TIP3    H141358   8.116   2.635   4.104
13805TIP3    H241359   8.166   2.747   4.193
13806TIP3   OH241360   1.365   3.424   1.231
13806TIP3    H141361   1.357   3.341   1.185
13806TIP3    H241362   1.429   3.474   1.178
13807TIP3   OH241363   1.099   2.044   4.247
13807TIP3    H141364   1.113   2.059   4.340
13807TIP3    H241365   1.105   2.131   4.207
13808TIP3   OH241366   7.997   3.690   6.608
13808TIP3    H141367   8.011   3.601   6.642
13808TIP3    H241368   7.998   3.746   6.685
13809TIP3   OH241369   8.192   1.591   6.233
13809TIP3    H141370   8.144   1.518   6.271
13809TIP3    H241371   8.276   1.590   6.279
13810TIP3   OH241372   1.886   7.293   4.462
13810TIP3    H141373   1.794   7.316   4.471
13810TIP3    H241374   1.887   7.198   4.454
13811TIP3   OH241375   5.787   3.354   2.075
13811TIP3    H141376   5.865   3.347   2.130
13811TIP3    H241377   5.777   3.267   2.037
13812TIP3   OH241378   1.699   7.169   2.432
13812TIP3    H141379   1.700   7.206   2.520
13812TIP3    H241380   1.717   7.244   2.375
13813TIP3   OH241381   3.255   6.245   2.033
13813TIP3    H141382   3.311   6.322   2.033
13813TIP3    H241383   3.207   6.249   2.116
13814TIP3   OH241384   6.649   1.778   4.011
13814TIP3    H141385   6.721   1.822   3.966
13814TIP3    H241386   6.642   1.693   3.968
13815TIP3   OH241387   3.083   4.332   3.639
13815TIP3    H141388   3.077   4.249   3.687
13815TIP3    H241389   3.176   4.352   3.638
13816TIP3   OH241390   7.841   1.138   6.414
13816TIP3    H141391   7.874   1.095   6.493
13816TIP3    H241392   7.803   1.068   6.362
13817TIP3   OH241393   1.072   4.398   3.342
13817TIP3    H141394   1.159   4.363   3.322
13817TIP3    H241395   1.034   4.334   3.403
13818TIP3   OH241396   1.241   1.576   4.236
13818TIP3    H141397   1.278   1.524   4.307
13818TIP3    H241398   1.148   1.554   4.235
13819TIP3   OH241399   3.942   1.605   2.865
13819TIP3    H141400   3.911   1.523   2.904
13819TIP3    H241401   3.862   1.649   2.837
13820TIP3   OH241402   2.535   6.294   4.346
13820TIP3    H141403   2.622   6.255   4.351
13820TIP3    H241404   2.547   6.384   4.376
13821TIP3   OH241405   5.583   7.241   0.849
13821TIP3    H141406   5.535   7.203   0.923
13821TIP3    H241407   5.606   7.166   0.794
13822TIP3   OH241408   1.755   6.520   3.308
13822TIP3    H141409   1.715   6.467   3.376
13822TIP3    H241410   1.770   6.605   3.350
13823TIP3   OH241411   5.391   0.800   4.142
13823TIP3    H141412   5.307   0.777   4.101
13823TIP3    H241413   5.453   0.735   4.107
13824TIP3   OH241414   4.114   1.993   0.614
13824TIP3    H141415   4.060   1.951   0.547
13824TIP3    H241416   4.200   2.002   0.573
13825TIP3   OH241417   1.587   1.642   3.697
13825TIP3    H141418   1.655   1.578   3.718
13825TIP3    H241419   1.566   1.626   3.604
13826TIP3   OH241420   5.271   6.363   5.394
13826TIP3    H141421   5.253   6.325   5.308
13826TIP3    H241422   5.189   6.351   5.443
13827TIP3   OH241423   6.159   0.854   4.000
13827TIP3    H141424   6.229   0.909   4.035
13827TIP3    H241425   6.092   0.915   3.971
13828TIP3   OH241426   2.461   4.491   5.412
13828TIP3    H141427   2.410   4.428   5.464
13828TIP3    H241428   2.473   4.566   5.470
13829TIP3   OH241429   3.461   4.502   2.829
13829TIP3    H141430   3.396   4.432   2.831
13829TIP3    H241431   3.542   4.461   2.857
13830TIP3   OH241432   0.954   5.849   1.387
13830TIP3    H141433   0.967   5.940   1.414
13830TIP3    H241434   0.936   5.854   1.293
13831TIP3   OH241435   5.421   0.294   5.059
13831TIP3    H141436   5.397   0.203   5.044
13831TIP3    H241437   5.469   0.319   4.980
13832TIP3   OH241438   0.213   3.218   3.246
13832TIP3    H141439   0.222   3.131   3.208
13832TIP3    H241440   0.280   3.271   3.202
13833TIP3   OH241441   1.176   5.967   5.413
13833TIP3    H141442   1.188   6.059   5.388
13833TIP3    H241443   1.260   5.926   5.395
13834TIP3   OH241444   6.564   3.009   3.062
13834TIP3    H141445   6.595   2.989   3.150
13834TIP3    H241446   6.624   3.077   3.030
13835TIP3   OH241447   6.952   2.788   1.991
13835TIP3    H141448   7.029   2.744   1.955
13835TIP3    H241449   6.927   2.735   2.067
13836TIP3   OH241450   5.750   2.181   0.285
13836TIP3    H141451   5.765   2.245   0.215
13836TIP3    H241452   5.656   2.168   0.286
13837TIP3   OH241453   7.253   3.098   6.389
13837TIP3    H141454   7.243   3.098   6.294
13837TIP3    H241455   7.225   3.185   6.417
13838TIP3   OH241456   6.937   3.482   1.362
13838TIP3    H141457   7.010   3.500   1.422
13838TIP3    H241458   6.910   3.393   1.384
13839TIP3   OH241459   5.003   0.333   6.082
13839TIP3    H141460   4.935   0.395   6.110
13839TIP3    H241461   5.082   0.362   6.127
13840TIP3   OH241462   7.228   6.793   6.512
13840TIP3    H141463   7.316   6.764   6.489
13840TIP3    H241464   7.171   6.726   6.473
13841TIP3   OH241465   1.649   7.774   4.704
13841TIP3    H141466   1.619   7.684   4.691
13841TIP3    H241467   1.576   7.829   4.677
13842TIP3   OH241468   6.630   3.303   4.741
13842TIP3    H141469   6.639   3.375   4.804
13842TIP3    H241470   6.704   3.314   4.682
13843TIP3   OH241471   6.199   2.308   5.838
13843TIP3    H141472   6.288   2.341   5.827
13843TIP3    H241473   6.210   2.223   5.880
13844TIP3   OH241474   3.605   3.918   3.794
13844TIP3    H141475   3.576   3.998   3.839
13844TIP3    H241476   3.699   3.911   3.815
13845TIP3   OH241477   1.886   3.709   3.564
13845TIP3    H141478   1.851   3.708   3.653
13845TIP3    H241479   1.890   3.802   3.540
13846TIP3   OH241480   4.958   1.600   6.066
13846TIP3    H141481   4.953   1.663   5.993
13846TIP3    H241482   5.009   1.527   6.030
13847TIP3   OH241483   6.240   3.297   2.788
13847TIP3    H141484   6.293   3.300   2.867
13847TIP3    H241485   6.241   3.386   2.754
13848TIP3   OH241486   6.048   0.353   1.518
13848TIP3    H141487   6.063   0.291   1.447
13848TIP3    H241488   6.097   0.316   1.592
13849TIP3   OH241489   4.421   3.492   0.011
13849TIP3    H141490   4.459   3.412  -0.023
13849TIP3    H241491   4.331   3.469   0.034
13850TIP3   OH241492   7.593   5.379   5.370
13850TIP3    H141493   7.641   5.387   5.287
13850TIP3    H241494   7.527   5.448   5.366
13851TIP3   OH241495   7.998   7.282   5.697
13851TIP3    H141496   7.905   7.289   5.676
13851TIP3    H241497   8.010   7.190   5.722
13852TIP3   OH241498   5.585   5.272   1.157
13852TIP3    H141499   5.622   5.191   1.121
13852TIP3    H241500   5.535   5.309   1.084
13853TIP3   OH241501   5.742   0.579   3.686
13853TIP3    H141502   5.800   0.589   3.610
13853TIP3    H241503   5.799   0.546   3.755
13854TIP3   OH241504   0.355   1.107   5.578
13854TIP3    H141505   0.438   1.074   5.545
13854TIP3    H241506   0.346   1.068   5.665
13855TIP3   OH241507   5.639   0.962   3.144
13855TIP3    H141508   5.586   1.026   3.097
13855TIP3    H241509   5.693   0.921   3.076
13856TIP3   OH241510   5.592   6.153   3.746
13856TIP3    H141511   5.521   6.136   3.684
13856TIP3    H241512   5.618   6.066   3.778
13857TIP3   OH241513   6.169   2.162   0.547
13857TIP3    H141514   6.198   2.250   0.572
13857TIP3    H241515   6.108   2.177   0.474
13858TIP3   OH241516   1.903   2.624   3.321
13858TIP3    H141517   1.849   2.586   3.390
13858TIP3    H241518   1.993   2.611   3.351
13859TIP3   OH241519   4.941   5.710   2.991
13859TIP3    H141520   4.852   5.677   2.984
13859TIP3    H241521   4.956   5.720   3.085
13860TIP3   OH241522   8.335   5.289   3.871
13860TIP3    H141523   8.262   5.273   3.931
13860TIP3    H241524   8.299   5.349   3.805
13861TIP3   OH241525   6.907   4.729   1.963
13861TIP3    H141526   6.857   4.656   1.926
13861TIP3    H241527   6.933   4.699   2.050
13862TIP3   OH241528   1.799   1.448   4.595
13862TIP3    H141529   1.736   1.518   4.611
13862TIP3    H241530   1.839   1.431   4.681
13863TIP3   OH241531   4.693   1.304   4.390
13863TIP3    H141532   4.770   1.255   4.420
13863TIP3    H241533   4.625   1.281   4.453
13864TIP3   OH241534   7.408   1.750   4.356
13864TIP3    H141535   7.370   1.755   4.444
13864TIP3    H241536   7.499   1.723   4.370
13865TIP3   OH241537   6.531   7.654   6.143
13865TIP3    H141538   6.522   7.611   6.228
13865TIP3    H241539   6.448   7.635   6.098
13866TIP3   OH241540   3.623   7.815   5.645
13866TIP3    H141541   3.646   7.763   5.567
13866TIP3    H241542   3.689   7.883   5.649
13867TIP3   OH241543   5.764   6.062   6.413
13867TIP3    H141544   5.707   6.033   6.342
13867TIP3    H241545   5.705   6.097   6.479
13868TIP3   OH241546   1.550   1.824   2.560
13868TIP3    H141547   1.642   1.827   2.537
13868TIP3    H241548   1.505   1.798   2.479
13869TIP3   OH241549   6.422   1.506   3.455
13869TIP3    H141550   6.345   1.469   3.497
13869TIP3    H241551   6.388   1.555   3.380
13870TIP3   OH241552   3.296   4.865   2.164
13870TIP3    H141553   3.344   4.782   2.165
13870TIP3    H241554   3.299   4.894   2.072
13871TIP3   OH241555   1.982   1.060   4.051
13871TIP3    H141556   1.994   1.059   4.146
13871TIP3    H241557   1.905   1.004   4.037
13872TIP3   OH241558   3.635   3.162   1.247
13872TIP3    H141559   3.580   3.201   1.316
13872TIP3    H241560   3.659   3.236   1.191
13873TIP3   OH241561   1.479   3.737   4.541
13873TIP3    H141562   1.447   3.814   4.494
13873TIP3    H241563   1.573   3.750   4.548
13874TIP3   OH241564   6.185   4.056   5.892
13874TIP3    H141565   6.223   4.133   5.850
13874TIP3    H241566   6.175   3.992   5.821
13875TIP3   OH241567   0.630   7.143   4.839
13875TIP3    H141568   0.553   7.097   4.805
13875TIP3    H241569   0.596   7.194   4.913
13876TIP3   OH241570   7.241   6.762   4.833
13876TIP3    H141571   7.165   6.820   4.837
13876TIP3    H241572   7.259   6.752   4.739
13877TIP3   OH241573   0.208   3.230   5.855
13877TIP3    H141574   0.187   3.317   5.889
13877TIP3    H241575   0.241   3.247   5.767
13878TIP3   OH241576   3.867   6.227   0.055
13878TIP3    H141577   3.909   6.185  -0.020
13878TIP3    H241578   3.818   6.156   0.098
13879TIP3   OH241579   4.187   4.343   4.246
13879TIP3    H141580   4.100   4.384   4.244
13879TIP3    H241581   4.248   4.417   4.250
13880TIP3   OH241582   6.931   2.810   3.726
13880TIP3    H141583   6.857   2.762   3.762
13880TIP3    H241584   6.997   2.743   3.708
13881TIP3   OH241585   6.491   4.755   3.932
13881TIP3    H141586   6.464   4.773   4.022
13881TIP3    H241587   6.564   4.694   3.940
13882TIP3   OH241588   1.365   6.932   0.911
13882TIP3    H141589   1.325   6.846   0.923
13882TIP3    H241590   1.439   6.917   0.853
13883TIP3   OH241591   4.815   2.261   5.784
13883TIP3    H141592   4.754   2.207   5.733
13883TIP3    H241593   4.812   2.224   5.872
13884TIP3   OH241594   3.790   3.168   3.071
13884TIP3    H141595   3.736   3.119   3.009
13884TIP3    H241596   3.757   3.257   3.066
13885TIP3   OH241597   5.378   6.903   6.367
13885TIP3    H141598   5.315   6.838   6.398
13885TIP3    H241599   5.380   6.969   6.437
13886TIP3   OH241600   0.714   1.581   3.329
13886TIP3    H141601   0.717   1.620   3.416
13886TIP3    H241602   0.631   1.534   3.327
13887TIP3   OH241603   6.372   6.544   2.172
13887TIP3    H141604   6.361   6.585   2.086
13887TIP3    H241605   6.330   6.604   2.233
13888TIP3   OH241606   0.363   1.935   3.344
13888TIP3    H141607   0.287   1.994   3.340
13888TIP3    H241608   0.357   1.895   3.431
13889TIP3   OH241609   5.367   0.623   4.910
13889TIP3    H141610   5.285   0.611   4.957
13889TIP3    H241611   5.405   0.535   4.906
13890TIP3   OH241612   1.395   6.549   0.225
13890TIP3    H141613   1.354   6.574   0.142
13890TIP3    H241614   1.398   6.630   0.276
13891TIP3   OH241615   2.176   4.163   1.242
13891TIP3    H141616   2.147   4.251   1.218
13891TIP3    H241617   2.157   4.155   1.335
13892TIP3   OH241618   4.699   3.846   1.824
13892TIP3    H141619   4.727   3.888   1.905
13892TIP3    H241620   4.622   3.795   1.848
13893TIP3   OH241621   2.744   6.916   0.854
13893TIP3    H141622   2.734   6.955   0.941
13893TIP3    H241623   2.672   6.953   0.803
13894TIP3   OH241624   5.029   1.363   5.910
13894TIP3    H141625   5.090   1.434   5.891
13894TIP3    H241626   5.057   1.290   5.854
13895TIP3   OH241627   2.799   7.600   6.321
13895TIP3    H141628   2.742   7.650   6.262
13895TIP3    H241629   2.872   7.573   6.266
13896TIP3   OH241630   1.202   0.690   4.624
13896TIP3    H141631   1.210   0.599   4.595
13896TIP3    H241632   1.284   0.731   4.597
13897TIP3   OH241633   0.547   3.526   2.254
13897TIP3    H141634   0.553   3.617   2.284
13897TIP3    H241635   0.595   3.525   2.171
13898TIP3   OH241636   0.284   5.974   3.719
13898TIP3    H141637   0.310   6.066   3.712
13898TIP3    H241638   0.366   5.925   3.712
13899TIP3   OH241639   3.361   4.096   5.193
13899TIP3    H141640   3.360   4.006   5.224
13899TIP3    H241641   3.385   4.148   5.270
13900TIP3   OH241642   5.276   4.516   3.384
13900TIP3    H141643   5.205   4.452   3.387
13900TIP3    H241644   5.258   4.568   3.306
13901TIP3   OH241645   6.618   4.175   0.471
13901TIP3    H141646   6.709   4.194   0.497
13901TIP3    H241647   6.589   4.255   0.426
13902TIP3   OH241648   1.632   3.912   2.482
13902TIP3    H141649   1.719   3.891   2.448
13902TIP3    H241650   1.631   3.873   2.569
13903TIP3   OH241651   7.868   4.608   2.754
13903TIP3    H141652   7.831   4.598   2.666
13903TIP3    H241653   7.928   4.682   2.747
13904TIP3   OH241654   1.119   6.296   1.040
13904TIP3    H141655   1.091   6.226   0.981
13904TIP3    H241656   1.059   6.368   1.022
13905TIP3   OH241657   5.347   6.826   5.165
13905TIP3    H141658   5.342   6.730   5.166
13905TIP3    H241659   5.311   6.852   5.250
13906TIP3   OH241660   4.654   3.718   1.190
13906TIP3    H141661   4.706   3.659   1.134
13906TIP3    H241662   4.563   3.697   1.169
13907TIP3   OH241663   2.652   0.221   3.416
13907TIP3    H141664   2.699   0.303   3.434
13907TIP3    H241665   2.566   0.233   3.456
13908TIP3   OH241666   7.202   0.377   0.431
13908TIP3    H141667   7.265   0.350   0.365
13908TIP3    H241668   7.241   0.352   0.514
13909TIP3   OH241669   0.009   7.486   4.973
13909TIP3    H141670   0.021   7.574   5.009
13909TIP3    H241671  -0.027   7.435   5.045
13910TIP3   OH241672   1.150   5.550   4.211
13910TIP3    H141673   1.141   5.566   4.305
13910TIP3    H241674   1.060   5.551   4.177
13911TIP3   OH241675   6.586   7.302   2.913
13911TIP3    H141676   6.574   7.393   2.885
13911TIP3    H241677   6.508   7.283   2.966
13912TIP3   OH241678   2.149   2.484   3.395
13912TIP3    H141679   2.232   2.443   3.371
13912TIP3    H241680   2.084   2.439   3.342
13913TIP3   OH241681   5.791   5.087   6.257
13913TIP3    H141682   5.756   5.054   6.340
13913TIP3    H241683   5.882   5.108   6.277
13914TIP3   OH241684   5.490   4.472   2.470
13914TIP3    H141685   5.571   4.455   2.423
13914TIP3    H241686   5.478   4.394   2.525
13915TIP3   OH241687   1.099   1.399   2.177
13915TIP3    H141688   1.142   1.355   2.104
13915TIP3    H241689   1.044   1.331   2.217
13916TIP3   OH241690   5.222   6.131   5.683
13916TIP3    H141691   5.317   6.124   5.687
13916TIP3    H241692   5.194   6.048   5.643
13917TIP3   OH241693   5.506   4.201   6.595
13917TIP3    H141694   5.475   4.273   6.540
13917TIP3    H241695   5.590   4.232   6.630
13918TIP3   OH241696   3.388   7.292   1.377
13918TIP3    H141697   3.346   7.271   1.293
13918TIP3    H241698   3.452   7.360   1.355
13919TIP3   OH241699   6.662   2.011   0.495
13919TIP3    H141700   6.632   1.932   0.450
13919TIP3    H241701   6.631   2.083   0.440
13920TIP3   OH241702   3.449   6.725   4.581
13920TIP3    H141703   3.441   6.755   4.491
13920TIP3    H241704   3.446   6.805   4.634
13921TIP3   OH241705   5.988   4.460   1.675
13921TIP3    H141706   6.072   4.491   1.708
13921TIP3    H241707   6.011   4.391   1.612
13922TIP3   OH241708   1.788   1.698   0.385
13922TIP3    H141709   1.766   1.778   0.337
13922TIP3    H241710   1.790   1.630   0.318
13923TIP3   OH241711   2.257   6.601   5.665
13923TIP3    H141712   2.235   6.511   5.687
13923TIP3    H241713   2.173   6.644   5.652
13924TIP3   OH241714   0.579   0.042   6.428
13924TIP3    H141715   0.503   0.011   6.379
13924TIP3    H241716   0.543   0.087   6.504
13925TIP3   OH241717   1.335   6.920   1.744
13925TIP3    H141718   1.296   6.873   1.671
13925TIP3    H241719   1.261   6.945   1.799
13926TIP3   OH241720   6.967   2.768   6.388
13926TIP3    H141721   7.033   2.815   6.438
13926TIP3    H241722   6.986   2.790   6.296
13927TIP3   OH241723   5.369   4.856   3.131
13927TIP3    H141724   5.360   4.918   3.058
13927TIP3    H241725   5.458   4.870   3.164
13928TIP3   OH241726   6.975   4.202   5.701
13928TIP3    H141727   7.054   4.148   5.691
13928TIP3    H241728   7.000   4.286   5.661
13929TIP3   OH241729   4.386   5.112   2.567
13929TIP3    H141730   4.430   5.036   2.528
13929TIP3    H241731   4.371   5.171   2.493
13930TIP3   OH241732   7.795   4.659   5.988
13930TIP3    H141733   7.725   4.600   5.960
13930TIP3    H241734   7.848   4.607   6.048
13931TIP3   OH241735   3.084   0.887   2.960
13931TIP3    H141736   3.142   0.954   2.924
13931TIP3    H241737   3.120   0.867   3.046
13932TIP3   OH241738   4.803   0.379   3.690
13932TIP3    H141739   4.718   0.345   3.718
13932TIP3    H241740   4.854   0.386   3.771
13933TIP3   OH241741   2.286   3.018   0.185
13933TIP3    H141742   2.307   2.974   0.102
13933TIP3    H241743   2.213   3.076   0.163
13934TIP3   OH241744   7.320   5.301   3.817
13934TIP3    H141745   7.298   5.352   3.895
13934TIP3    H241746   7.405   5.263   3.837
13935TIP3   OH241747   2.153   0.011   4.730
13935TIP3    H141748   2.129   0.102   4.715
13935TIP3    H241749   2.199  -0.015   4.650
13936TIP3   OH241750   3.158   5.932   3.527
13936TIP3    H141751   3.205   5.950   3.609
13936TIP3    H241752   3.217   5.962   3.458
13937TIP3   OH241753   4.554   5.155   6.057
13937TIP3    H141754   4.501   5.233   6.074
13937TIP3    H241755   4.629   5.188   6.006
13938TIP3   OH241756   2.701   0.018   1.213
13938TIP3    H141757   2.666   0.038   1.300
13938TIP3    H241758   2.788  -0.018   1.230
13939TIP3   OH241759   7.651   3.329   0.730
13939TIP3    H141760   7.713   3.287   0.671
13939TIP3    H241761   7.596   3.383   0.673
13940TIP3   OH241762   1.643   5.218   2.809
13940TIP3    H141763   1.720   5.274   2.802
13940TIP3    H241764   1.677   5.134   2.840
13941TIP3   OH241765   3.044   0.355   3.159
13941TIP3    H141766   3.117   0.294   3.171
13941TIP3    H241767   2.972   0.300   3.127
13942TIP3   OH241768   6.345   5.077   4.431
13942TIP3    H141769   6.275   5.072   4.367
13942TIP3    H241770   6.421   5.106   4.381
13943TIP3   OH241771   5.257   4.022   2.279
13943TIP3    H141772   5.245   3.938   2.236
13943TIP3    H241773   5.267   4.085   2.208
13944TIP3   OH241774   1.580   5.578   2.595
13944TIP3    H141775   1.589   5.672   2.616
13944TIP3    H241776   1.488   5.558   2.616
13945TIP3   OH241777   2.631   3.460   0.409
13945TIP3    H141778   2.547   3.503   0.389
13945TIP3    H241779   2.696   3.512   0.360
13946TIP3   OH241780   0.474   5.704   5.007
13946TIP3    H141781   0.505   5.688   5.096
13946TIP3    H241782   0.496   5.796   4.990
13947TIP3   OH241783   4.357   5.767   0.832
13947TIP3    H141784   4.298   5.812   0.773
13947TIP3    H241785   4.345   5.809   0.916
13948TIP3   OH241786   6.199   7.580   0.814
13948TIP3    H141787   6.223   7.488   0.799
13948TIP3    H241788   6.200   7.590   0.909
13949TIP3   OH241789   8.217   4.543   4.746
13949TIP3    H141790   8.143   4.583   4.792
13949TIP3    H241791   8.260   4.489   4.812
13950TIP3   OH241792   1.227   5.523   3.137
13950TIP3    H141793   1.167   5.495   3.067
13950TIP3    H241794   1.186   5.489   3.217
13951TIP3   OH241795   0.883   5.552   2.697
13951TIP3    H141796   0.814   5.520   2.756
13951TIP3    H241797   0.914   5.632   2.739
13952TIP3   OH241798   2.160   2.524   0.832
13952TIP3    H141799   2.181   2.431   0.845
13952TIP3    H241800   2.135   2.530   0.740
13953TIP3   OH241801   2.769   1.937   4.494
13953TIP3    H141802   2.848   1.885   4.480
13953TIP3    H241803   2.752   1.979   4.410
13954TIP3   OH241804   7.103   0.340   6.185
13954TIP3    H141805   7.032   0.381   6.135
13954TIP3    H241806   7.067   0.330   6.274
13955TIP3   OH241807   3.376   3.160   2.993
13955TIP3    H141808   3.429   3.202   3.060
13955TIP3    H241809   3.439   3.131   2.926
13956TIP3   OH241810   5.443   5.824   2.189
13956TIP3    H141811   5.473   5.914   2.183
13956TIP3    H241812   5.518   5.776   2.224
13957TIP3   OH241813   5.911   5.263   6.718
13957TIP3    H141814   5.940   5.320   6.789
13957TIP3    H241815   5.825   5.297   6.692
13958TIP3   OH241816   7.610   3.910   4.381
13958TIP3    H141817   7.654   3.960   4.312
13958TIP3    H241818   7.636   3.954   4.462
13959TIP3   OH241819   3.820   5.503   2.066
13959TIP3    H141820   3.903   5.537   2.101
13959TIP3    H241821   3.809   5.548   1.983
13960TIP3   OH241822   0.241   4.974   4.608
13960TIP3    H141823   0.149   4.970   4.635
13960TIP3    H241824   0.290   4.967   4.690
13961TIP3   OH241825   0.657   6.697   0.207
13961TIP3    H141826   0.618   6.782   0.227
13961TIP3    H241827   0.743   6.699   0.249
13962TIP3   OH241828   2.910   6.266   0.653
13962TIP3    H141829   2.982   6.211   0.684
13962TIP3    H241830   2.847   6.204   0.615
13963TIP3   OH241831   8.006   6.614   5.436
13963TIP3    H141832   7.998   6.628   5.531
13963TIP3    H241833   7.986   6.700   5.398
13964TIP3   OH241834   6.262   2.009   6.191
13964TIP3    H141835   6.262   2.030   6.098
13964TIP3    H241836   6.354   1.999   6.214
13965TIP3   OH241837   6.773   3.475   3.949
13965TIP3    H141838   6.752   3.385   3.976
13965TIP3    H241839   6.769   3.526   4.030
13966TIP3   OH241840   5.170   2.810   6.737
13966TIP3    H141841   5.243   2.852   6.782
13966TIP3    H241842   5.108   2.881   6.719
13967TIP3   OH241843   2.424   1.954   3.760
13967TIP3    H141844   2.416   1.920   3.849
13967TIP3    H241845   2.499   1.907   3.723
13968TIP3   OH241846   1.232   3.518   4.214
13968TIP3    H141847   1.198   3.446   4.267
13968TIP3    H241848   1.174   3.592   4.233
13969TIP3   OH241849   2.045   6.416   1.718
13969TIP3    H141850   2.063   6.495   1.667
13969TIP3    H241851   2.004   6.448   1.799
13970TIP3   OH241852   8.049   0.978   3.069
13970TIP3    H141853   8.029   0.886   3.084
13970TIP3    H241854   7.983   1.007   3.005
13971TIP3   OH241855   4.389   7.827   2.089
13971TIP3    H141856   4.426   7.896   2.033
13971TIP3    H241857   4.425   7.746   2.053
13972TIP3   OH241858   2.402   6.846   2.718
13972TIP3    H141859   2.364   6.791   2.649
13972TIP3    H241860   2.494   6.821   2.721
13973TIP3   OH241861   6.467   1.349   6.178
13973TIP3    H141862   6.428   1.338   6.265
13973TIP3    H241863   6.392   1.344   6.119
13974TIP3   OH241864   8.229   4.506   1.685
13974TIP3    H141865   8.140   4.541   1.687
13974TIP3    H241866   8.260   4.515   1.775
13975TIP3   OH241867   4.582   3.487   4.804
13975TIP3    H141868   4.649   3.452   4.863
13975TIP3    H241869   4.616   3.470   4.716
13976TIP3   OH241870   1.782   6.785   4.584
13976TIP3    H141871   1.788   6.872   4.546
13976TIP3    H241872   1.721   6.738   4.529
13977TIP3   OH241873   1.996   5.843   6.521
13977TIP3    H141874   2.091   5.830   6.522
13977TIP3    H241875   1.964   5.793   6.596
13978TIP3   OH241876   7.845   2.567   0.308
13978TIP3    H141877   7.816   2.635   0.246
13978TIP3    H241878   7.831   2.485   0.260
13979TIP3   OH241879   5.284   1.619   1.048
13979TIP3    H141880   5.271   1.644   1.140
13979TIP3    H241881   5.374   1.646   1.029
13980TIP3   OH241882   2.733   7.556   4.008
13980TIP3    H141883   2.638   7.556   3.999
13980TIP3    H241884   2.762   7.476   3.964
13981TIP3   OH241885   3.470   3.835   4.530
13981TIP3    H141886   3.546   3.876   4.489
13981TIP3    H241887   3.400   3.900   4.519
13982TIP3   OH241888   7.309   3.330   4.115
13982TIP3    H141889   7.308   3.333   4.210
13982TIP3    H241890   7.365   3.254   4.095
13983TIP3   OH241891   6.020   6.402   0.153
13983TIP3    H141892   5.996   6.426   0.063
13983TIP3    H241893   5.947   6.349   0.184
13984TIP3   OH241894   3.812   6.897   0.722
13984TIP3    H141895   3.834   6.946   0.643
13984TIP3    H241896   3.727   6.858   0.703
13985TIP3   OH241897   0.211   3.252   4.533
13985TIP3    H141898   0.225   3.240   4.440
13985TIP3    H241899   0.224   3.346   4.548
13986TIP3   OH241900   1.015   1.419   4.132
13986TIP3    H141901   0.930   1.446   4.096
13986TIP3    H241902   1.048   1.355   4.069
13987TIP3   OH241903   1.111   2.722   6.050
13987TIP3    H141904   1.054   2.733   5.974
13987TIP3    H241905   1.080   2.642   6.091
13988TIP3   OH241906   6.858   0.258   0.188
13988TIP3    H141907   6.816   0.249   0.103
13988TIP3    H241908   6.941   0.302   0.170
13989TIP3   OH241909   0.053   5.378   1.368
13989TIP3    H141910   0.039   5.367   1.462
13989TIP3    H241911   0.121   5.315   1.345
13990TIP3   OH241912   5.982   3.806   1.363
13990TIP3    H141913   5.905   3.858   1.344
13990TIP3    H241914   5.998   3.818   1.457
13991TIP3   OH241915   0.539   3.653   0.169
13991TIP3    H141916   0.599   3.583   0.194
13991TIP3    H241917   0.453   3.611   0.169
13992TIP3   OH241918   5.599   2.086   0.899
13992TIP3    H141919   5.606   2.131   0.816
13992TIP3    H241920   5.649   2.005   0.887
13993TIP3   OH241921   1.262   7.169   5.898
13993TIP3    H141922   1.188   7.114   5.873
13993TIP3    H241923   1.335   7.135   5.846
13994TIP3   OH241924   8.169   1.638   4.789
13994TIP3    H141925   8.155   1.730   4.767
13994TIP3    H241926   8.244   1.640   4.850
13995TIP3   OH241927   3.726   0.168   0.031
13995TIP3    H141928   3.704   0.261   0.039
13995TIP3    H241929   3.720   0.151  -0.063
13996TIP3   OH241930   6.370   1.467   2.164
13996TIP3    H141931   6.367   1.555   2.201
13996TIP3    H241932   6.446   1.468   2.106
13997TIP3   OH241933   3.598   1.457   2.687
13997TIP3    H141934   3.512   1.432   2.721
13997TIP3    H241935   3.650   1.376   2.693
13998TIP3   OH241936   5.335   7.772   6.142
13998TIP3    H141937   5.328   7.858   6.184
13998TIP3    H241938   5.350   7.712   6.214
13999TIP3   OH241939   7.058   5.980   5.017
13999TIP3    H141940   7.147   6.015   5.013
13999TIP3    H241941   7.015   6.031   5.086
14000TIP3   OH241942   2.629   0.525   1.109
14000TIP3    H141943   2.536   0.543   1.093
14000TIP3    H241944   2.644   0.440   1.069
14001TIP3   OH241945   0.983   6.231   5.545
14001TIP3    H141946   0.911   6.179   5.508
14001TIP3    H241947   1.005   6.187   5.627
14002TIP3   OH241948   1.832   1.511   0.863
14002TIP3    H141949   1.772   1.550   0.927
14002TIP3    H241950   1.783   1.513   0.781
14003TIP3   OH241951   3.045   4.369   1.688
14003TIP3    H141952   3.120   4.343   1.741
14003TIP3    H241953   3.064   4.334   1.601
14004TIP3   OH241954   5.635   6.793   3.367
14004TIP3    H141955   5.694   6.866   3.383
14004TIP3    H241956   5.658   6.761   3.280
14005TIP3   OH241957   5.297   0.432   4.134
14005TIP3    H141958   5.306   0.479   4.217
14005TIP3    H241959   5.386   0.419   4.103
14006TIP3   OH241960   1.128   2.148   3.959
14006TIP3    H141961   1.101   2.099   3.881
14006TIP3    H241962   1.212   2.110   3.983
14007TIP3   OH241963   3.906   7.110   3.737
14007TIP3    H141964   3.827   7.088   3.786
14007TIP3    H241965   3.883   7.094   3.645
14008TIP3   OH241966   2.257   6.478   3.047
14008TIP3    H141967   2.182   6.463   3.104
14008TIP3    H241968   2.263   6.574   3.041
14009TIP3   OH241969   6.849   2.829   5.581
14009TIP3    H141970   6.812   2.851   5.667
14009TIP3    H241971   6.891   2.910   5.551
14010TIP3   OH241972   4.662   7.317   3.493
14010TIP3    H141973   4.685   7.409   3.479
14010TIP3    H241974   4.716   7.269   3.430
14011TIP3   OH241975   6.917   5.425   2.522
14011TIP3    H141976   7.011   5.414   2.537
14011TIP3    H241977   6.893   5.501   2.575
14012TIP3   OH241978   6.483   2.153   2.252
14012TIP3    H141979   6.533   2.234   2.246
14012TIP3    H241980   6.439   2.146   2.167
14013TIP3   OH241981   1.053   1.560   1.542
14013TIP3    H141982   0.969   1.552   1.588
14013TIP3    H241983   1.036   1.525   1.455
14014TIP3   OH241984   4.249   1.628   4.150
14014TIP3    H141985   4.276   1.542   4.181
14014TIP3    H241986   4.313   1.688   4.188
14015TIP3   OH241987   2.405   2.392   2.289
14015TIP3    H141988   2.316   2.356   2.284
14015TIP3    H241989   2.410   2.453   2.216
14016TIP3   OH241990   0.599   5.624   2.418
14016TIP3    H141991   0.533   5.574   2.371
14016TIP3    H241992   0.572   5.618   2.510
14017TIP3   OH241993   2.999   2.742   4.937
14017TIP3    H141994   2.968   2.652   4.946
14017TIP3    H241995   3.093   2.733   4.924
14018TIP3   OH241996   0.899   7.317   1.967
14018TIP3    H141997   0.978   7.309   2.019
14018TIP3    H241998   0.828   7.296   2.027
14019TIP3   OH241999   2.361   4.372   6.538
14019TIP3    H142000   2.370   4.284   6.502
14019TIP3    H242001   2.325   4.359   6.626
14020TIP3   OH242002   5.491   6.122   5.712
14020TIP3    H142003   5.530   6.164   5.788
14020TIP3    H242004   5.499   6.187   5.642
14021TIP3   OH242005   2.929   5.772   1.758
14021TIP3    H142006   2.861   5.706   1.743
14021TIP3    H242007   3.002   5.722   1.796
14022TIP3   OH242008   0.551   0.487   6.200
14022TIP3    H142009   0.638   0.448   6.214
14022TIP3    H242010   0.493   0.412   6.192
14023TIP3   OH242011   3.497   4.539   4.177
14023TIP3    H142012   3.550   4.461   4.194
14023TIP3    H242013   3.463   4.526   4.089
14024TIP3   OH242014   5.427   3.398   0.957
14024TIP3    H142015   5.505   3.431   1.002
14024TIP3    H242016   5.392   3.331   1.016
14025TIP3   OH242017   6.322   5.345   6.148
14025TIP3    H142018   6.352   5.342   6.239
14025TIP3    H242019   6.358   5.267   6.107
14026TIP3   OH242020   0.876   0.117   4.698
14026TIP3    H142021   0.803   0.077   4.651
14026TIP3    H242022   0.928   0.159   4.630
14027TIP3   OH242023   3.733   7.475   0.998
14027TIP3    H142024   3.772   7.497   0.913
14027TIP3    H242025   3.670   7.405   0.978
14028TIP3   OH242026   6.509   4.527   5.697
14028TIP3    H142027   6.448   4.494   5.763
14028TIP3    H242028   6.496   4.469   5.622
14029TIP3   OH242029   7.479   5.212   3.498
14029TIP3    H142030   7.541   5.277   3.531
14029TIP3    H242031   7.525   5.169   3.426
14030TIP3   OH242032   6.921   1.637   2.304
14030TIP3    H142033   6.909   1.702   2.235
14030TIP3    H242034   6.953   1.688   2.379
14031TIP3   OH242035   1.572   0.752   3.078
14031TIP3    H142036   1.629   0.771   3.004
14031TIP3    H242037   1.493   0.715   3.038
14032TIP3   OH242038   7.886   5.324   4.858
14032TIP3    H142039   7.937   5.242   4.859
14032TIP3    H242040   7.937   5.385   4.911
14033TIP3   OH242041   7.193   2.559   1.333
14033TIP3    H142042   7.107   2.599   1.323
14033TIP3    H242043   7.174   2.466   1.350
14034TIP3   OH242044   5.754   6.895   5.411
14034TIP3    H142045   5.798   6.811   5.424
14034TIP3    H242046   5.775   6.945   5.489
14035TIP3   OH242047   5.281   7.352   5.429
14035TIP3    H142048   5.266   7.269   5.474
14035TIP3    H242049   5.240   7.418   5.485
14036TIP3   OH242050   8.203   0.489   0.834
14036TIP3    H142051   8.289   0.447   0.835
14036TIP3    H242052   8.189   0.515   0.743
14037TIP3   OH242053   4.069   5.938   2.977
14037TIP3    H142054   4.156   5.979   2.973
14037TIP3    H242055   4.048   5.918   2.886
14038TIP3   OH242056   1.348   4.087   4.891
14038TIP3    H142057   1.310   4.012   4.936
14038TIP3    H242058   1.436   4.096   4.929
14039TIP3   OH242059   2.505   5.362   0.280
14039TIP3    H142060   2.521   5.454   0.299
14039TIP3    H242061   2.417   5.361   0.243
14040TIP3   OH242062   0.412   0.402   5.056
14040TIP3    H142063   0.324   0.383   5.089
14040TIP3    H242064   0.421   0.496   5.065
14041TIP3   OH242065   8.075   2.450   6.049
14041TIP3    H142066   8.160   2.472   6.087
14041TIP3    H242067   8.012   2.485   6.111
14042TIP3   OH242068   1.264   2.211   1.551
14042TIP3    H142069   1.296   2.121   1.560
14042TIP3    H242070   1.318   2.249   1.481
14043TIP3   OH242071   5.922   5.662   2.907
14043TIP3    H142072   5.924   5.567   2.904
14043TIP3    H242073   5.842   5.686   2.860
14044TIP3   OH242074   0.579   3.013   0.907
14044TIP3    H142075   0.674   3.004   0.900
14044TIP3    H242076   0.552   2.942   0.966
14045TIP3   OH242077   0.130   1.664   5.464
14045TIP3    H142078   0.161   1.576   5.441
14045TIP3    H242079   0.208   1.718   5.466
14046TIP3   OH242080   7.043   3.493   4.249
14046TIP3    H142081   7.029   3.540   4.331
14046TIP3    H242082   7.138   3.496   4.236
14047TIP3   OH242083   2.286   7.551   1.562
14047TIP3    H142084   2.327   7.585   1.482
14047TIP3    H242085   2.274   7.628   1.617
14048TIP3   OH242086   6.530   5.878   1.373
14048TIP3    H142087   6.468   5.829   1.319
14048TIP3    H242088   6.536   5.828   1.454
14049TIP3   OH242089   0.451   6.053   5.276
14049TIP3    H142090   0.421   6.051   5.367
14049TIP3    H242091   0.381   6.099   5.229
14050TIP3   OH242092   0.245   4.231   0.066
14050TIP3    H142093   0.206   4.257  -0.017
14050TIP3    H242094   0.327   4.281   0.070
14051TIP3   OH242095   4.590   2.148   5.707
14051TIP3    H142096   4.539   2.167   5.628
14051TIP3    H242097   4.562   2.060   5.732
14052TIP3   OH242098   6.598   4.983   5.053
14052TIP3    H142099   6.619   5.074   5.035
14052TIP3    H242100   6.544   4.986   5.132
14053TIP3   OH242101   2.552   1.651   2.634
14053TIP3    H142102   2.580   1.716   2.699
14053TIP3    H242103   2.602   1.572   2.656
14054TIP3   OH242104   2.017   2.087   5.031
14054TIP3    H142105   2.107   2.120   5.031
14054TIP3    H242106   2.027   1.992   5.032
14055TIP3   OH242107   5.707   3.873   3.579
14055TIP3    H142108   5.791   3.831   3.594
14055TIP3    H242109   5.676   3.837   3.496
14056TIP3   OH242110   4.655   3.681   5.043
14056TIP3    H142111   4.570   3.642   5.027
14056TIP3    H242112   4.641   3.742   5.115
14057TIP3   OH242113   6.198   6.914   4.042
14057TIP3    H142114   6.107   6.888   4.056
14057TIP3    H242115   6.249   6.856   4.098
14058TIP3   OH242116   1.703   2.051   5.016
14058TIP3    H142117   1.791   2.042   5.053
14058TIP3    H242118   1.670   2.133   5.052
14059TIP3   OH242119   0.520   7.435   5.819
14059TIP3    H142120   0.426   7.445   5.839
14059TIP3    H242121   0.528   7.465   5.729
14060TIP3   OH242122   4.157   2.504   5.198
14060TIP3    H142123   4.143   2.583   5.250
14060TIP3    H242124   4.251   2.504   5.180
14061TIP3   OH242125   7.043   1.506   0.800
14061TIP3    H142126   7.137   1.498   0.814
14061TIP3    H242127   7.034   1.527   0.707
14062TIP3   OH242128   1.460   2.812   5.465
14062TIP3    H142129   1.466   2.723   5.431
14062TIP3    H242130   1.366   2.830   5.467
14063TIP3   OH242131   4.455   3.234   4.273
14063TIP3    H142132   4.368   3.238   4.233
14063TIP3    H242133   4.440   3.247   4.366
14064TIP3   OH242134   5.686   5.728   2.309
14064TIP3    H142135   5.684   5.643   2.353
14064TIP3    H242136   5.779   5.749   2.300
14065TIP3   OH242137   3.906   2.751   4.565
14065TIP3    H142138   3.846   2.757   4.491
14065TIP3    H242139   3.989   2.787   4.532
14066TIP3   OH242140   2.724   0.748   5.113
14066TIP3    H142141   2.816   0.731   5.091
14066TIP3    H242142   2.704   0.831   5.069
14067TIP3   OH242143   4.180   6.338   5.945
14067TIP3    H142144   4.198   6.256   5.898
14067TIP3    H242145   4.089   6.359   5.923
14068TIP3   OH242146   2.185   7.559   4.787
14068TIP3    H142147   2.253   7.498   4.815
14068TIP3    H242148   2.231   7.624   4.734
14069TIP3   OH242149   1.933   3.536   2.774
14069TIP3    H142150   1.931   3.615   2.829
14069TIP3    H242151   2.026   3.516   2.764
14070TIP3   OH242152   3.985   0.213   6.673
14070TIP3    H142153   3.944   0.145   6.726
14070TIP3    H242154   4.020   0.167   6.597
14071TIP3   OH242155   1.959   7.516   4.570
14071TIP3    H142156   2.051   7.534   4.551
14071TIP3    H242157   1.940   7.437   4.519
14072TIP3   OH242158   5.177   6.572   3.292
14072TIP3    H142159   5.133   6.656   3.281
14072TIP3    H242160   5.152   6.522   3.215
14073TIP3   OH242161   4.388   2.918   1.554
14073TIP3    H142162   4.306   2.967   1.556
14073TIP3    H242163   4.454   2.979   1.587
14074TIP3   OH242164   4.812   7.206   2.686
14074TIP3    H142165   4.737   7.188   2.629
14074TIP3    H242166   4.878   7.245   2.629
14075TIP3   OH242167   4.693   7.184   5.589
14075TIP3    H142168   4.637   7.251   5.549
14075TIP3    H242169   4.711   7.217   5.678
14076TIP3   OH242170   6.405   4.907   1.012
14076TIP3    H142171   6.410   4.992   0.969
14076TIP3    H242172   6.352   4.853   0.954
14077TIP3   OH242173   0.035   0.246   4.821
14077TIP3    H142174  -0.049   0.245   4.777
14077TIP3    H242175   0.015   0.221   4.911
14078TIP3   OH242176   7.414   5.815   6.725
14078TIP3    H142177   7.443   5.725   6.713
14078TIP3    H242178   7.399   5.848   6.636
14079TIP3   OH242179   5.070   0.700   4.210
14079TIP3    H142180   5.039   0.741   4.291
14079TIP3    H242181   5.032   0.754   4.141
14080TIP3   OH242182   4.326   1.712   0.471
14080TIP3    H142183   4.260   1.748   0.411
14080TIP3    H242184   4.389   1.669   0.413
14081TIP3   OH242185   2.823   2.792   3.524
14081TIP3    H142186   2.899   2.802   3.582
14081TIP3    H242187   2.857   2.742   3.450
14082TIP3   OH242188   4.034   0.820   4.223
14082TIP3    H142189   3.989   0.886   4.171
14082TIP3    H242190   4.094   0.778   4.162
14083TIP3   OH242191   3.828   3.365   5.603
14083TIP3    H142192   3.780   3.445   5.626
14083TIP3    H242193   3.802   3.346   5.513
14084TIP3   OH242194   0.844   0.676   1.363
14084TIP3    H142195   0.787   0.602   1.380
14084TIP3    H242196   0.895   0.687   1.444
14085TIP3   OH242197   0.139   2.526   0.144
14085TIP3    H142198   0.205   2.460   0.164
14085TIP3    H242199   0.178   2.609   0.171
14086TIP3   OH242200   3.264   1.177   3.146
14086TIP3    H142201   3.200   1.244   3.169
14086TIP3    H242202   3.346   1.225   3.133
14087TIP3   OH242203   2.681   2.780   2.662
14087TIP3    H142204   2.677   2.873   2.683
14087TIP3    H242205   2.592   2.748   2.679
14088TIP3   OH242206   8.186   6.527   4.925
14088TIP3    H142207   8.097   6.519   4.892
14088TIP3    H242208   8.177   6.525   5.020
14089TIP3   OH242209   4.402   3.689   0.236
14089TIP3    H142210   4.352   3.766   0.209
14089TIP3    H242211   4.437   3.653   0.155
14090TIP3   OH242212   2.107   2.726   3.885
14090TIP3    H142213   2.036   2.721   3.821
14090TIP3    H242214   2.126   2.819   3.893
14091TIP3   OH242215   1.819   1.754   1.092
14091TIP3    H142216   1.892   1.693   1.107
14091TIP3    H242217   1.812   1.804   1.173
14092TIP3   OH242218   6.606   1.788   1.088
14092TIP3    H142219   6.696   1.757   1.091
14092TIP3    H242220   6.570   1.766   1.174
14093TIP3   OH242221   6.864   6.701   0.798
14093TIP3    H142222   6.896   6.790   0.783
14093TIP3    H242223   6.774   6.702   0.765
14094TIP3   OH242224   7.763   2.903   6.327
14094TIP3    H142225   7.841   2.898   6.272
14094TIP3    H242226   7.701   2.843   6.286
14095TIP3   OH242227   1.657   1.945   3.308
14095TIP3    H142228   1.670   1.969   3.400
14095TIP3    H242229   1.728   1.988   3.261
14096TIP3   OH242230   2.203   7.712   0.639
14096TIP3    H142231   2.255   7.632   0.631
14096TIP3    H242232   2.113   7.685   0.620
14097TIP3   OH242233   5.057   6.611   2.575
14097TIP3    H142234   4.978   6.649   2.613
14097TIP3    H242235   5.129   6.661   2.614
14098TIP3   OH242236   1.191   2.875   2.565
14098TIP3    H142237   1.260   2.817   2.533
14098TIP3    H242238   1.147   2.905   2.485
14099TIP3   OH242239   0.727   1.541   1.181
14099TIP3    H142240   0.728   1.615   1.243
14099TIP3    H242241   0.674   1.475   1.224
14100TIP3   OH242242   0.016   3.010   1.252
14100TIP3    H142243   0.091   3.038   1.304
14100TIP3    H242244   0.053   2.963   1.178
14101TIP3   OH242245   7.591   1.664   0.634
14101TIP3    H142246   7.506   1.640   0.597
14101TIP3    H242247   7.605   1.754   0.605
14102TIP3   OH242248   3.653   0.443   0.317
14102TIP3    H142249   3.741   0.415   0.292
14102TIP3    H242250   3.632   0.514   0.256
14103TIP3   OH242251   4.993   4.981   6.359
14103TIP3    H142252   5.049   4.918   6.403
14103TIP3    H242253   4.951   5.030   6.431
14104TIP3   OH242254   2.504   4.885   4.494
14104TIP3    H142255   2.473   4.975   4.486
14104TIP3    H242256   2.446   4.834   4.437
14105TIP3   OH242257   0.737   6.624   0.857
14105TIP3    H142258   0.710   6.701   0.808
14105TIP3    H242259   0.655   6.577   0.875
14106TIP3   OH242260   3.427   3.441   2.645
14106TIP3    H142261   3.345   3.481   2.616
14106TIP3    H242262   3.429   3.455   2.740
14107TIP3   OH242263   0.431   7.015   4.323
14107TIP3    H142264   0.346   7.045   4.291
14107TIP3    H242265   0.458   7.081   4.387
14108TIP3   OH242266   6.891   3.448   6.519
14108TIP3    H142267   6.948   3.424   6.592
14108TIP3    H242268   6.899   3.375   6.457
14109TIP3   OH242269   0.944   7.227   4.477
14109TIP3    H142270   0.913   7.303   4.429
14109TIP3    H242271   0.931   7.250   4.569
14110TIP3   OH242272   4.426   2.124   6.325
14110TIP3    H142273   4.506   2.175   6.317
14110TIP3    H242274   4.438   2.071   6.404
14111TIP3   OH242275   0.810   5.997   5.547
14111TIP3    H142276   0.845   6.025   5.632
14111TIP3    H242277   0.862   5.920   5.524
14112TIP3   OH242278   4.457   1.274   5.536
14112TIP3    H142279   4.406   1.193   5.529
14112TIP3    H242280   4.421   1.318   5.613
14113TIP3   OH242281   6.031   3.629   0.675
14113TIP3    H142282   6.106   3.685   0.697
14113TIP3    H242283   6.051   3.596   0.588
14114TIP3   OH242284   1.596   4.136   0.654
14114TIP3    H142285   1.544   4.105   0.729
14114TIP3    H242286   1.531   4.147   0.584
14115TIP3   OH242287   7.202   1.285   1.336
14115TIP3    H142288   7.163   1.320   1.256
14115TIP3    H242289   7.148   1.322   1.406
14116TIP3   OH242290   5.416   6.068   0.714
14116TIP3    H142291   5.478   6.044   0.782
14116TIP3    H242292   5.332   6.078   0.759
14117TIP3   OH242293   6.447   1.342   4.425
14117TIP3    H142294   6.416   1.422   4.468
14117TIP3    H242295   6.384   1.274   4.452
14118TIP3   OH242296   4.718   5.362   4.737
14118TIP3    H142297   4.690   5.352   4.646
14118TIP3    H242298   4.664   5.434   4.770
14119TIP3   OH242299   7.497   6.308   0.636
14119TIP3    H142300   7.430   6.279   0.574
14119TIP3    H242301   7.449   6.329   0.716
14120TIP3   OH242302   0.988   4.541   3.690
14120TIP3    H142303   0.992   4.627   3.732
14120TIP3    H242304   0.895   4.521   3.683
14121TIP3   OH242305   7.401   6.842   1.928
14121TIP3    H142306   7.388   6.751   1.905
14121TIP3    H242307   7.477   6.869   1.877
14122TIP3   OH242308   7.532   5.789   1.946
14122TIP3    H142309   7.454   5.821   1.992
14122TIP3    H242310   7.586   5.867   1.934
14123TIP3   OH242311   8.187   2.146   3.846
14123TIP3    H142312   8.265   2.168   3.897
14123TIP3    H242313   8.116   2.147   3.909
14124TIP3   OH242314   0.056   4.157   0.902
14124TIP3    H142315  -0.018   4.216   0.921
14124TIP3    H242316   0.098   4.145   0.987
14125TIP3   OH242317   2.819   0.492   2.899
14125TIP3    H142318   2.767   0.504   2.819
14125TIP3    H242319   2.787   0.560   2.959
14126TIP3   OH242320   3.736   0.197   6.367
14126TIP3    H142321   3.741   0.289   6.342
14126TIP3    H242322   3.674   0.196   6.440
14127TIP3   OH242323   4.054   2.824   6.310
14127TIP3    H142324   4.069   2.808   6.403
14127TIP3    H242325   4.112   2.763   6.266
14128TIP3   OH242326   1.107   3.757   0.628
14128TIP3    H142327   1.103   3.808   0.547
14128TIP3    H242328   1.176   3.799   0.679
14129TIP3   OH242329   2.369   4.451   1.282
14129TIP3    H142330   2.281   4.442   1.247
14129TIP3    H242331   2.359   4.438   1.377
14130TIP3   OH242332   4.040   0.744   1.975
14130TIP3    H142333   4.070   0.670   2.027
14130TIP3    H242334   4.016   0.811   2.040
14131TIP3   OH242335   7.645   7.837   6.276
14131TIP3    H142336   7.696   7.828   6.356
14131TIP3    H242337   7.555   7.814   6.302
14132TIP3   OH242338   6.845   1.083   1.332
14132TIP3    H142339   6.896   1.027   1.391
14132TIP3    H242340   6.809   1.151   1.389
14133TIP3   OH242341   8.272   1.171   2.878
14133TIP3    H142342   8.276   1.176   2.973
14133TIP3    H242343   8.186   1.135   2.859
14134TIP3   OH242344   5.558   6.371   2.970
14134TIP3    H142345   5.497   6.364   3.044
14134TIP3    H242346   5.589   6.281   2.957
14135TIP3   OH242347   5.201   3.182   2.774
14135TIP3    H142348   5.127   3.148   2.724
14135TIP3    H242349   5.258   3.221   2.707
14136TIP3   OH242350   2.090   6.911   4.565
14136TIP3    H142351   2.131   6.944   4.485
14136TIP3    H242352   2.020   6.854   4.535
14137TIP3   OH242353   7.253   2.946   3.438
14137TIP3    H142354   7.244   2.960   3.532
14137TIP3    H242355   7.337   2.901   3.429
14138TIP3   OH242356   5.752   4.737   1.144
14138TIP3    H142357   5.725   4.731   1.236
14138TIP3    H242358   5.842   4.769   1.147
14139TIP3   OH242359   3.228   3.480   1.336
14139TIP3    H142360   3.233   3.567   1.296
14139TIP3    H242361   3.137   3.453   1.325
14140TIP3   OH242362   0.772   7.099   6.216
14140TIP3    H142363   0.818   7.149   6.284
14140TIP3    H242364   0.842   7.068   6.158
14141TIP3   OH242365   6.575   5.048   4.278
14141TIP3    H142366   6.625   5.042   4.359
14141TIP3    H242367   6.630   5.100   4.219
14142TIP3   OH242368   1.367   5.844   0.664
14142TIP3    H142369   1.428   5.898   0.715
14142TIP3    H242370   1.310   5.805   0.730
14143TIP3   OH242371   4.236   6.990   0.016
14143TIP3    H142372   4.172   7.061   0.030
14143TIP3    H242373   4.182   6.911   0.011
14144TIP3   OH242374   2.126   5.155   0.308
14144TIP3    H142375   2.122   5.218   0.236
14144TIP3    H242376   2.062   5.188   0.372
14145TIP3   OH242377   1.790   0.824   0.094
14145TIP3    H142378   1.696   0.806   0.091
14145TIP3    H242379   1.796   0.920   0.094
14146TIP3   OH242380   7.468   7.095   4.827
14146TIP3    H142381   7.412   7.173   4.830
14146TIP3    H242382   7.454   7.059   4.739
14147TIP3   OH242383   5.737   7.057   3.012
14147TIP3    H142384   5.656   7.007   3.000
14147TIP3    H242385   5.777   7.057   2.925
14148TIP3   OH242386   3.772   0.505   5.552
14148TIP3    H142387   3.702   0.549   5.502
14148TIP3    H242388   3.839   0.486   5.487
14149TIP3   OH242389   2.348   1.474   0.502
14149TIP3    H142390   2.264   1.429   0.510
14149TIP3    H242391   2.371   1.500   0.591
14150TIP3   OH242392   7.210   4.747   3.827
14150TIP3    H142393   7.172   4.731   3.740
14150TIP3    H242394   7.135   4.766   3.882
14151TIP3   OH242395   3.191   2.519   6.621
14151TIP3    H142396   3.217   2.429   6.642
14151TIP3    H242397   3.120   2.509   6.557
14152TIP3   OH242398   5.943   3.836   4.916
14152TIP3    H142399   5.906   3.755   4.951
14152TIP3    H242400   6.038   3.825   4.923
14153TIP3   OH242401   1.553   5.015   1.609
14153TIP3    H142402   1.553   4.934   1.558
14153TIP3    H242403   1.557   4.986   1.700
14154TIP3   OH242404   7.358   3.292   3.110
14154TIP3    H142405   7.321   3.210   3.143
14154TIP3    H242406   7.290   3.329   3.053
14155TIP3   OH242407   3.736   2.744   3.749
14155TIP3    H142408   3.646   2.775   3.742
14155TIP3    H242409   3.743   2.676   3.682
14156TIP3   OH242410   5.514   7.493   0.764
14156TIP3    H142411   5.547   7.406   0.785
14156TIP3    H242412   5.493   7.489   0.671
14157TIP3   OH242413   3.294   4.659   6.702
14157TIP3    H142414   3.353   4.728   6.673
14157TIP3    H242415   3.303   4.658   6.797
14158TIP3   OH242416   0.614   4.132   3.709
14158TIP3    H142417   0.598   4.205   3.769
14158TIP3    H242418   0.530   4.086   3.704
14159TIP3   OH242419   2.776   0.423   2.357
14159TIP3    H142420   2.853   0.373   2.330
14159TIP3    H242421   2.723   0.431   2.278
14160TIP3   OH242422   7.800   3.090   2.679
14160TIP3    H142423   7.784   3.148   2.604
14160TIP3    H242424   7.870   3.134   2.728
14161TIP3   OH242425   3.390   4.165   4.272
14161TIP3    H142426   3.473   4.139   4.233
14161TIP3    H242427   3.411   4.188   4.362
14162TIP3   OH242428   6.417   0.932   3.635
14162TIP3    H142429   6.380   0.923   3.547
14162TIP3    H242430   6.389   0.852   3.681
14163TIP3   OH242431   0.977   4.737   3.901
14163TIP3    H142432   1.000   4.784   3.982
14163TIP3    H242433   0.885   4.715   3.912
14164TIP3   OH242434   2.075   4.727   4.490
14164TIP3    H142435   2.158   4.711   4.447
14164TIP3    H242436   2.095   4.724   4.584
14165TIP3   OH242437   3.255   4.488   4.795
14165TIP3    H142438   3.272   4.418   4.858
14165TIP3    H242439   3.289   4.567   4.836
14166TIP3   OH242440   1.824   1.423   1.556
14166TIP3    H142441   1.792   1.379   1.634
14166TIP3    H242442   1.745   1.448   1.508
14167TIP3   OH242443   0.384   6.530   2.249
14167TIP3    H142444   0.366   6.447   2.292
14167TIP3    H242445   0.406   6.590   2.320
14168TIP3   OH242446   4.363   1.109   1.630
14168TIP3    H142447   4.363   1.191   1.680
14168TIP3    H242448   4.309   1.050   1.682
14169TIP3   OH242449   1.580   6.925   0.715
14169TIP3    H142450   1.577   6.831   0.697
14169TIP3    H242451   1.627   6.932   0.798
14170TIP3   OH242452   5.397   1.475   2.764
14170TIP3    H142453   5.361   1.563   2.775
14170TIP3    H242454   5.442   1.479   2.679
14171TIP3   OH242455   1.817   2.917   0.665
14171TIP3    H142456   1.836   3.010   0.670
14171TIP3    H242457   1.890   2.880   0.616
14172TIP3   OH242458   1.479   4.514   1.622
14172TIP3    H142459   1.534   4.436   1.618
14172TIP3    H242460   1.433   4.516   1.538
14173TIP3   OH242461   3.062   7.158   4.322
14173TIP3    H142462   3.050   7.157   4.227
14173TIP3    H242463   3.154   7.181   4.335
14174TIP3   OH242464   3.486   4.980   5.129
14174TIP3    H142465   3.533   5.054   5.167
14174TIP3    H242466   3.554   4.916   5.107
14175TIP3   OH242467   3.566   0.348   5.713
14175TIP3    H142468   3.575   0.437   5.679
14175TIP3    H242469   3.498   0.307   5.658
14176TIP3   OH242470   3.804   1.716   1.144
14176TIP3    H142471   3.890   1.675   1.152
14176TIP3    H242472   3.817   1.789   1.084
14177TIP3   OH242473   2.757   4.683   3.861
14177TIP3    H142474   2.676   4.667   3.909
14177TIP3    H242475   2.816   4.720   3.926
14178TIP3   OH242476   1.286   6.076   3.993
14178TIP3    H142477   1.296   6.134   4.069
14178TIP3    H242478   1.279   5.988   4.030
14179TIP3   OH242479   4.072   3.453   2.594
14179TIP3    H142480   4.039   3.408   2.517
14179TIP3    H242481   4.037   3.403   2.668
14180TIP3   OH242482   5.120   4.678   6.468
14180TIP3    H142483   5.142   4.631   6.548
14180TIP3    H242484   5.155   4.766   6.481
14181TIP3   OH242485   6.057   0.071   0.937
14181TIP3    H142486   6.140   0.028   0.957
14181TIP3    H242487   6.042   0.052   0.844
14182TIP3   OH242488   6.971   5.002   2.127
14182TIP3    H142489   6.927   5.039   2.050
14182TIP3    H242490   6.954   4.908   2.121
14183TIP3   OH242491   3.795   4.174   0.371
14183TIP3    H142492   3.790   4.080   0.358
14183TIP3    H242493   3.774   4.187   0.463
14184TIP3   OH242494   3.187   1.524   1.838
14184TIP3    H142495   3.149   1.610   1.859
14184TIP3    H242496   3.279   1.532   1.863
14185TIP3   OH242497   6.036   7.588   1.733
14185TIP3    H142498   5.977   7.589   1.808
14185TIP3    H242499   6.010   7.511   1.682
14186TIP3   OH242500   7.194   2.893   5.877
14186TIP3    H142501   7.134   2.819   5.866
14186TIP3    H242502   7.149   2.966   5.835
14187TIP3   OH242503   2.511   2.202   6.746
14187TIP3    H142504   2.531   2.109   6.754
14187TIP3    H242505   2.597   2.244   6.733
14188TIP3   OH242506   2.971   7.493   5.893
14188TIP3    H142507   2.934   7.428   5.953
14188TIP3    H242508   3.065   7.491   5.911
14189TIP3   OH242509   4.126   7.758   4.738
14189TIP3    H142510   4.173   7.714   4.810
14189TIP3    H242511   4.195   7.798   4.685
14190TIP3   OH242512   4.207   4.545   2.646
14190TIP3    H142513   4.144   4.609   2.678
14190TIP3    H242514   4.252   4.514   2.725
14191TIP3   OH242515   7.584   0.769   0.130
14191TIP3    H142516   7.609   0.860   0.111
14191TIP3    H242517   7.510   0.777   0.191
14192TIP3   OH242518   6.041   1.836   0.312
14192TIP3    H142519   6.010   1.745   0.309
14192TIP3    H242520   6.055   1.854   0.405
14193TIP3   OH242521   4.348   0.670   2.453
14193TIP3    H142522   4.409   0.608   2.493
14193TIP3    H242523   4.283   0.615   2.410
14194TIP3   OH242524   4.575   3.114   0.639
14194TIP3    H142525   4.581   3.119   0.735
14194TIP3    H242526   4.664   3.134   0.609
14195TIP3   OH242527   7.051   3.842   4.726
14195TIP3    H142528   7.088   3.870   4.642
14195TIP3    H242529   6.975   3.899   4.739
14196TIP3   OH242530   2.151   2.802   3.220
14196TIP3    H142531   2.116   2.888   3.243
14196TIP3    H242532   2.201   2.775   3.297
14197TIP3   OH242533   3.352   7.824   5.134
14197TIP3    H142534   3.290   7.784   5.194
14197TIP3    H242535   3.437   7.819   5.178
14198TIP3   OH242536   5.050   5.639   2.732
14198TIP3    H142537   5.123   5.584   2.762
14198TIP3    H242538   5.007   5.668   2.812
14199TIP3   OH242539   1.086   2.915   4.052
14199TIP3    H142540   1.015   2.950   4.106
14199TIP3    H242541   1.094   2.976   3.979
14200TIP3   OH242542   6.499   4.744   3.264
14200TIP3    H142543   6.502   4.838   3.278
14200TIP3    H242544   6.479   4.708   3.351
14201TIP3   OH242545   0.335   6.919   3.701
14201TIP3    H142546   0.365   6.913   3.791
14201TIP3    H242547   0.415   6.930   3.650
14202TIP3   OH242548   2.474   6.190   4.612
14202TIP3    H142549   2.486   6.096   4.605
14202TIP3    H242550   2.471   6.221   4.521
14203TIP3   OH242551   5.171   6.220   1.799
14203TIP3    H142552   5.226   6.220   1.878
14203TIP3    H242553   5.217   6.277   1.738
14204TIP3   OH242554   6.279   5.319   3.344
14204TIP3    H142555   6.242   5.264   3.412
14204TIP3    H242556   6.231   5.295   3.265
14205TIP3   OH242557   3.021   5.857   5.763
14205TIP3    H142558   3.050   5.809   5.685
14205TIP3    H242559   2.933   5.887   5.741
14206TIP3   OH242560   2.471   5.990   3.583
14206TIP3    H142561   2.514   6.025   3.660
14206TIP3    H242562   2.488   5.896   3.587
14207TIP3   OH242563   3.529   3.660   1.266
14207TIP3    H142564   3.557   3.637   1.355
14207TIP3    H242565   3.600   3.715   1.232
14208TIP3   OH242566   4.822   4.468   3.544
14208TIP3    H142567   4.790   4.461   3.454
14208TIP3    H242568   4.796   4.386   3.586
14209TIP3   OH242569   2.092   4.541   6.641
14209TIP3    H142570   2.125   4.451   6.652
14209TIP3    H242571   2.104   4.581   6.728
14210TIP3   OH242572   1.666   1.766   4.936
14210TIP3    H142573   1.633   1.721   5.014
14210TIP3    H242574   1.638   1.857   4.948
14211TIP3   OH242575   0.981   2.151   6.006
14211TIP3    H142576   1.052   2.205   5.971
14211TIP3    H242577   1.005   2.136   6.097
14212TIP3   OH242578   8.052   7.609   4.842
14212TIP3    H142579   8.110   7.627   4.916
14212TIP3    H242580   8.082   7.670   4.773
14213TIP3   OH242581   1.130   1.464   1.290
14213TIP3    H142582   1.096   1.389   1.242
14213TIP3    H242583   1.218   1.478   1.254
14214TIP3   OH242584   5.570   7.442   3.614
14214TIP3    H142585   5.528   7.369   3.568
14214TIP3    H242586   5.576   7.412   3.705
14215TIP3   OH242587   7.723   7.538   4.417
14215TIP3    H142588   7.796   7.479   4.437
14215TIP3    H242589   7.674   7.493   4.348
14216TIP3   OH242590   1.582   6.686   4.406
14216TIP3    H142591   1.604   6.682   4.313
14216TIP3    H242592   1.493   6.721   4.409
14217TIP3   OH242593   3.802   4.368   0.018
14217TIP3    H142594   3.753   4.369   0.100
14217TIP3    H242595   3.807   4.276  -0.006
14218TIP3   OH242596   2.667   1.307   3.881
14218TIP3    H142597   2.655   1.235   3.943
14218TIP3    H242598   2.661   1.266   3.795
14219TIP3   OH242599   3.896   6.056   4.326
14219TIP3    H142600   3.982   6.093   4.306
14219TIP3    H242601   3.890   5.977   4.271
14220TIP3   OH242602   4.716   5.525   6.674
14220TIP3    H142603   4.720   5.575   6.756
14220TIP3    H242604   4.806   5.520   6.644
14221TIP3   OH242605   0.113   2.761   4.041
14221TIP3    H142606   0.063   2.834   4.004
14221TIP3    H242607   0.046   2.698   4.068
14222TIP3   OH242608   6.413   0.249   5.304
14222TIP3    H142609   6.429   0.258   5.210
14222TIP3    H242610   6.364   0.168   5.313
14223TIP3   OH242611   6.507   1.519   0.717
14223TIP3    H142612   6.579   1.582   0.723
14223TIP3    H242613   6.513   1.468   0.797
14224TIP3   OH242614   2.540   2.233   2.034
14224TIP3    H142615   2.544   2.317   2.080
14224TIP3    H242616   2.447   2.211   2.031
14225TIP3   OH242617   8.164   0.906   0.587
14225TIP3    H142618   8.243   0.940   0.629
14225TIP3    H242619   8.168   0.812   0.600
14226TIP3   OH242620   3.170   6.213   0.853
14226TIP3    H142621   3.231   6.140   0.853
14226TIP3    H242622   3.087   6.175   0.880
14227TIP3   OH242623   0.133   3.388   4.288
14227TIP3    H142624   0.073   3.330   4.241
14227TIP3    H242625   0.077   3.435   4.350
14228TIP3   OH242626   7.156   5.428   4.957
14228TIP3    H142627   7.250   5.438   4.937
14228TIP3    H242628   7.153   5.354   5.018
14229TIP3   OH242629   0.357   5.316   1.590
14229TIP3    H142630   0.370   5.271   1.674
14229TIP3    H242631   0.442   5.357   1.572
14230TIP3   OH242632   2.106   1.921   3.168
14230TIP3    H142633   2.176   1.978   3.199
14230TIP3    H242634   2.125   1.836   3.208
14231TIP3   OH242635   2.610   7.297   5.544
14231TIP3    H142636   2.681   7.360   5.556
14231TIP3    H242637   2.639   7.218   5.589
14232TIP3   OH242638   3.794   0.525   4.194
14232TIP3    H142639   3.844   0.555   4.270
14232TIP3    H242640   3.788   0.430   4.206
14233TIP3   OH242641   2.751   7.795   3.617
14233TIP3    H142642   2.838   7.789   3.576
14233TIP3    H242643   2.769   7.805   3.710
14234TIP3   OH242644   8.181   1.986   0.307
14234TIP3    H142645   8.125   2.021   0.238
14234TIP3    H242646   8.214   2.064   0.352
14235TIP3   OH242647   5.866   4.351   4.632
14235TIP3    H142648   5.875   4.304   4.715
14235TIP3    H242649   5.940   4.412   4.631
14236TIP3   OH242650   0.790   1.989   4.629
14236TIP3    H142651   0.704   1.950   4.610
14236TIP3    H242652   0.783   2.079   4.595
14237TIP3   OH242653   4.987   1.008   5.871
14237TIP3    H142654   5.012   0.917   5.881
14237TIP3    H242655   4.991   1.045   5.959
14238TIP3   OH242656   7.159   3.805   0.363
14238TIP3    H142657   7.066   3.822   0.347
14238TIP3    H242658   7.185   3.870   0.428
14239TIP3   OH242659   0.210   2.967   5.943
14239TIP3    H142660   0.223   3.059   5.919
14239TIP3    H242661   0.118   2.949   5.922
14240TIP3   OH242662   5.659   4.712   6.527
14240TIP3    H142663   5.585   4.667   6.568
14240TIP3    H242664   5.705   4.753   6.600
14241TIP3   OH242665   8.046   7.641   5.279
14241TIP3    H142666   8.048   7.601   5.193
14241TIP3    H242667   7.974   7.705   5.274
14242TIP3   OH242668   0.381   2.392   5.570
14242TIP3    H142669   0.444   2.399   5.499
14242TIP3    H242670   0.434   2.381   5.649
14243TIP3   OH242671   3.523   5.480   3.260
14243TIP3    H142672   3.464   5.421   3.308
14243TIP3    H242673   3.591   5.502   3.324
14244TIP3   OH242674   6.096   2.557   5.902
14244TIP3    H142675   6.062   2.596   5.822
14244TIP3    H242676   6.136   2.475   5.873
14245TIP3   OH242677   0.629   4.107   0.041
14245TIP3    H142678   0.587   4.159   0.109
14245TIP3    H242679   0.557   4.061  -0.002
14246TIP3   OH242680   3.386   5.267   0.548
14246TIP3    H142681   3.374   5.305   0.461
14246TIP3    H242682   3.468   5.218   0.542
14247TIP3   OH242683   5.510   3.027   2.674
14247TIP3    H142684   5.438   3.000   2.615
14247TIP3    H242685   5.586   3.035   2.616
14248TIP3   OH242686   6.030   7.797   4.143
14248TIP3    H142687   6.108   7.840   4.108
14248TIP3    H242688   5.979   7.773   4.066
14249TIP3   OH242689   5.905   5.889   1.035
14249TIP3    H142690   5.879   5.869   1.125
14249TIP3    H242691   5.976   5.952   1.044
14250TIP3   OH242692   3.945   4.289   6.227
14250TIP3    H142693   3.858   4.286   6.186
14250TIP3    H242694   3.953   4.379   6.259
14251TIP3   OH242695   0.273   3.837   3.529
14251TIP3    H142696   0.238   3.860   3.615
14251TIP3    H242697   0.247   3.746   3.516
14252TIP3   OH242698   4.356   7.569   3.622
14252TIP3    H142699   4.274   7.567   3.672
14252TIP3    H242700   4.351   7.490   3.567
14253TIP3   OH242701   4.761   1.030   4.181
14253TIP3    H142702   4.674   0.997   4.159
14253TIP3    H242703   4.755   1.124   4.164
14254TIP3   OH242704   5.565   0.754   3.358
14254TIP3    H142705   5.566   0.806   3.278
14254TIP3    H242706   5.633   0.687   3.345
14255TIP3   OH242707   2.241   1.287   3.893
14255TIP3    H142708   2.244   1.215   3.830
14255TIP3    H242709   2.180   1.349   3.854
14256TIP3   OH242710   0.306   3.446   1.072
14256TIP3    H142711   0.328   3.398   1.151
14256TIP3    H242712   0.242   3.511   1.100
14257TIP3   OH242713   2.051   7.615   1.278
14257TIP3    H142714   1.963   7.652   1.278
14257TIP3    H242715   2.052   7.554   1.205
14258TIP3   OH242716   5.789   0.412   0.524
14258TIP3    H142717   5.771   0.318   0.513
14258TIP3    H242718   5.792   0.425   0.618
14259TIP3   OH242719   0.796   2.644   1.792
14259TIP3    H142720   0.776   2.736   1.813
14259TIP3    H242721   0.891   2.639   1.795
14260TIP3   OH242722   0.025   2.564   5.991
14260TIP3    H142723   0.027   2.600   5.903
14260TIP3    H242724   0.051   2.636   6.048
14261TIP3   OH242725   3.208   5.899   3.250
14261TIP3    H142726   3.273   5.885   3.181
14261TIP3    H242727   3.199   5.995   3.255
14262TIP3   OH242728   2.753   7.006   1.741
14262TIP3    H142729   2.687   6.968   1.800
14262TIP3    H242730   2.704   7.028   1.662
14263TIP3   OH242731   2.538   1.324   5.433
14263TIP3    H142732   2.454   1.370   5.434
14263TIP3    H242733   2.596   1.381   5.383
14264TIP3   OH242734   0.729   5.409   2.853
14264TIP3    H142735   0.703   5.381   2.941
14264TIP3    H242736   0.695   5.341   2.795
14265TIP3   OH242737   7.767   6.595   3.337
14265TIP3    H142738   7.754   6.676   3.288
14265TIP3    H242739   7.695   6.594   3.401
14266TIP3   OH242740   0.335   6.717   5.229
14266TIP3    H142741   0.378   6.780   5.287
14266TIP3    H242742   0.269   6.768   5.182
14267TIP3   OH242743   6.349   1.616   0.467
14267TIP3    H142744   6.286   1.670   0.419
14267TIP3    H242745   6.375   1.549   0.404
14268TIP3   OH242746   0.153   3.645   1.166
14268TIP3    H142747   0.212   3.720   1.165
14268TIP3    H242748   0.108   3.650   1.250
14269TIP3   OH242749   3.024   7.311   0.514
14269TIP3    H142750   2.930   7.296   0.522
14269TIP3    H242751   3.054   7.324   0.604
14270TIP3   OH242752   4.419   3.753   0.912
14270TIP3    H142753   4.353   3.811   0.875
14270TIP3    H242754   4.503   3.790   0.884
14271TIP3   OH242755   1.192   7.542   1.089
14271TIP3    H142756   1.135   7.591   1.149
14271TIP3    H242757   1.280   7.576   1.107
14272TIP3   OH242758   8.170   3.742   3.933
14272TIP3    H142759   8.240   3.678   3.925
14272TIP3    H242760   8.103   3.699   3.986
14273TIP3   OH242761   1.710   7.722   6.033
14273TIP3    H142762   1.615   7.734   6.033
14273TIP3    H242763   1.723   7.635   6.072
14274TIP3   OH242764   0.707   2.721   4.836
14274TIP3    H142765   0.800   2.721   4.816
14274TIP3    H242766   0.668   2.668   4.766
14275TIP3   OH242767   5.180   7.780   6.389
14275TIP3    H142768   5.185   7.872   6.364
14275TIP3    H242769   5.240   7.772   6.463
14276TIP3   OH242770   2.111   5.625   5.405
14276TIP3    H142771   2.183   5.588   5.457
14276TIP3    H242772   2.033   5.603   5.455
14277TIP3   OH242773   0.216   0.119   0.831
14277TIP3    H142774   0.129   0.081   0.840
14277TIP3    H242775   0.272   0.045   0.807
14278TIP3   OH242776   6.868   2.564   3.001
14278TIP3    H142777   6.798   2.520   3.050
14278TIP3    H242778   6.827   2.644   2.968
14279TIP3   OH242779   5.252   2.808   1.361
14279TIP3    H142780   5.161   2.805   1.331
14279TIP3    H242781   5.296   2.864   1.298
14280TIP3   OH242782   6.256   6.044   5.255
14280TIP3    H142783   6.241   6.119   5.313
14280TIP3    H242784   6.339   6.007   5.284
14281TIP3   OH242785   3.812   7.523   2.404
14281TIP3    H142786   3.841   7.582   2.473
14281TIP3    H242787   3.717   7.538   2.398
14282TIP3   OH242788   3.623   2.849   1.814
14282TIP3    H142789   3.664   2.904   1.880
14282TIP3    H242790   3.693   2.792   1.783
14283TIP3   OH242791   5.986   1.498   2.231
14283TIP3    H142792   6.032   1.581   2.250
14283TIP3    H242793   6.024   1.468   2.149
14284TIP3   OH242794   3.471   6.096   1.517
14284TIP3    H142795   3.441   6.084   1.607
14284TIP3    H242796   3.403   6.148   1.476
14285TIP3   OH242797   8.116   6.356   2.895
14285TIP3    H142798   8.199   6.396   2.921
14285TIP3    H242799   8.086   6.309   2.973
14286TIP3   OH242800   6.771   7.574   4.751
14286TIP3    H142801   6.702   7.536   4.698
14286TIP3    H242802   6.767   7.526   4.834
14287TIP3   OH242803   3.902   6.593   0.694
14287TIP3    H142804   3.993   6.565   0.705
14287TIP3    H242805   3.895   6.619   0.602
14288TIP3   OH242806   5.256   3.106   4.565
14288TIP3    H142807   5.191   3.038   4.580
14288TIP3    H242808   5.338   3.059   4.550
14289TIP3   OH242809   0.762   1.387   5.016
14289TIP3    H142810   0.845   1.363   5.058
14289TIP3    H242811   0.722   1.304   4.992
14290TIP3   OH242812   6.871   0.479   4.201
14290TIP3    H142813   6.868   0.520   4.288
14290TIP3    H242814   6.910   0.545   4.144
14291TIP3   OH242815   2.442   0.570   0.427
14291TIP3    H142816   2.347   0.567   0.420
14291TIP3    H242817   2.460   0.581   0.520
14292TIP3   OH242818   6.385   6.511   5.143
14292TIP3    H142819   6.424   6.449   5.204
14292TIP3    H242820   6.345   6.578   5.198
14293TIP3   OH242821   5.807   1.856   5.706
14293TIP3    H142822   5.759   1.775   5.691
14293TIP3    H242823   5.873   1.858   5.637
14294TIP3   OH242824   4.445   3.610   3.682
14294TIP3    H142825   4.371   3.612   3.622
14294TIP3    H242826   4.422   3.543   3.747
14295TIP3   OH242827   2.981   4.436   6.462
14295TIP3    H142828   3.054   4.428   6.524
14295TIP3    H242829   2.971   4.530   6.449
14296TIP3   OH242830   4.008   5.873   2.051
14296TIP3    H142831   4.016   5.793   2.104
14296TIP3    H242832   3.914   5.892   2.051
14297TIP3   OH242833   7.290   4.879   2.842
14297TIP3    H142834   7.363   4.861   2.900
14297TIP3    H242835   7.261   4.794   2.810
14298TIP3   OH242836   7.863   5.518   3.878
14298TIP3    H142837   7.770   5.538   3.867
14298TIP3    H242838   7.905   5.556   3.801
14299TIP3   OH242839   7.545   6.672   5.831
14299TIP3    H142840   7.584   6.647   5.747
14299TIP3    H242841   7.467   6.617   5.839
14300TIP3   OH242842   3.324   0.125   2.557
14300TIP3    H142843   3.372   0.118   2.640
14300TIP3    H242844   3.383   0.171   2.498
14301TIP3   OH242845   0.362   1.857   0.635
14301TIP3    H142846   0.424   1.850   0.707
14301TIP3    H242847   0.404   1.813   0.562
14302TIP3   OH242848   5.182   3.387   5.199
14302TIP3    H142849   5.150   3.351   5.116
14302TIP3    H242850   5.128   3.465   5.214
14303TIP3   OH242851   3.758   0.337   1.447
14303TIP3    H142852   3.822   0.408   1.448
14303TIP3    H242853   3.758   0.305   1.357
14304TIP3   OH242854   6.868   0.408   2.090
14304TIP3    H142855   6.879   0.335   2.029
14304TIP3    H242856   6.784   0.448   2.066
14305TIP3   OH242857   4.428   2.969   6.810
14305TIP3    H142858   4.391   3.052   6.779
14305TIP3    H242859   4.477   2.936   6.735
14306TIP3   OH242860   1.122   6.099   3.360
14306TIP3    H142861   1.193   6.162   3.354
14306TIP3    H242862   1.072   6.126   3.437
14307TIP3   OH242863   3.682   7.206   4.537
14307TIP3    H142864   3.598   7.236   4.569
14307TIP3    H242865   3.713   7.276   4.479
14308TIP3   OH242866   1.010   6.459   4.705
14308TIP3    H142867   0.983   6.455   4.613
14308TIP3    H242868   1.010   6.367   4.733
14309TIP3   OH242869   6.404   6.718   1.179
14309TIP3    H142870   6.325   6.727   1.125
14309TIP3    H242871   6.464   6.784   1.145
14310TIP3   OH242872   7.042   0.858   5.549
14310TIP3    H142873   6.960   0.838   5.593
14310TIP3    H242874   7.104   0.874   5.620
14311TIP3   OH242875   3.175   0.576   5.859
14311TIP3    H142876   3.180   0.530   5.943
14311TIP3    H242877   3.225   0.657   5.872
14312TIP3   OH242878   4.498   2.531   0.979
14312TIP3    H142879   4.473   2.508   1.068
14312TIP3    H242880   4.565   2.467   0.956
14313TIP3   OH242881   4.330   7.836   2.945
14313TIP3    H142882   4.340   7.790   2.861
14313TIP3    H242883   4.416   7.829   2.987
14314TIP3   OH242884   5.056   1.122   2.998
14314TIP3    H142885   5.011   1.109   2.914
14314TIP3    H242886   5.052   1.216   3.013
14315TIP3   OH242887   4.193   7.205   5.155
14315TIP3    H142888   4.165   7.136   5.215
14315TIP3    H242889   4.269   7.168   5.110
14316TIP3   OH242890   0.970   3.697   4.242
14316TIP3    H142891   0.900   3.753   4.275
14316TIP3    H242892   0.933   3.608   4.247
14317TIP3   OH242893   7.247   3.346   1.314
14317TIP3    H142894   7.261   3.260   1.354
14317TIP3    H242895   7.178   3.331   1.249
14318TIP3   OH242896   1.885   0.618   1.812
14318TIP3    H142897   1.825   0.651   1.879
14318TIP3    H242898   1.833   0.554   1.763
14319TIP3   OH242899   7.396   4.812   0.999
14319TIP3    H142900   7.409   4.817   0.904
14319TIP3    H242901   7.316   4.760   1.009
14320TIP3   OH242902   7.389   5.585   3.583
14320TIP3    H142903   7.304   5.547   3.563
14320TIP3    H242904   7.450   5.511   3.579
14321TIP3   OH242905   2.485   7.746   4.189
14321TIP3    H142906   2.489   7.812   4.120
14321TIP3    H242907   2.486   7.662   4.143
14322TIP3   OH242908   5.803   7.026   3.288
14322TIP3    H142909   5.811   7.024   3.192
14322TIP3    H242910   5.893   7.022   3.320
14323TIP3   OH242911   3.754   0.200   6.015
14323TIP3    H142912   3.682   0.149   6.051
14323TIP3    H242913   3.768   0.270   6.079
14324TIP3   OH242914   3.847   5.323   6.546
14324TIP3    H142915   3.825   5.412   6.574
14324TIP3    H242916   3.892   5.335   6.462
14325TIP3   OH242917   8.088   3.029   3.338
14325TIP3    H142918   8.045   2.971   3.275
14325TIP3    H242919   8.178   2.998   3.342
14326TIP3   OH242920   7.484   5.832   5.631
14326TIP3    H142921   7.509   5.751   5.677
14326TIP3    H242922   7.535   5.900   5.675
14327TIP3   OH242923   8.048   1.827   6.269
14327TIP3    H142924   8.081   1.738   6.254
14327TIP3    H242925   8.127   1.881   6.270
14328TIP3   OH242926   5.008   7.047   5.823
14328TIP3    H142927   4.999   7.131   5.870
14328TIP3    H242928   5.036   6.985   5.890
14329TIP3   OH242929   1.263   4.165   4.640
14329TIP3    H142930   1.171   4.140   4.643
14329TIP3    H242931   1.300   4.127   4.719
14330TIP3   OH242932   1.437   0.426   6.056
14330TIP3    H142933   1.355   0.389   6.022
14330TIP3    H242934   1.452   0.380   6.139
14331TIP3   OH242935   0.081   0.821   1.364
14331TIP3    H142936   0.121   0.872   1.294
14331TIP3    H242937   0.096   0.872   1.443
14332TIP3   OH242938   2.317   3.302   5.995
14332TIP3    H142939   2.372   3.258   6.060
14332TIP3    H242940   2.238   3.325   6.044
14333TIP3   OH242941   3.256   3.486   3.374
14333TIP3    H142942   3.215   3.572   3.371
14333TIP3    H242943   3.183   3.424   3.372
14334TIP3   OH242944   4.566   6.378   1.663
14334TIP3    H142945   4.634   6.323   1.701
14334TIP3    H242946   4.594   6.468   1.682
14335TIP3   OH242947   6.485   5.506   1.204
14335TIP3    H142948   6.447   5.419   1.208
14335TIP3    H242949   6.556   5.504   1.268
14336TIP3   OH242950   2.158   2.585   1.443
14336TIP3    H142951   2.078   2.556   1.398
14336TIP3    H242952   2.225   2.588   1.374
14337TIP3   OH242953   7.215   6.452   5.759
14337TIP3    H142954   7.239   6.536   5.719
14337TIP3    H242955   7.207   6.472   5.853
14338TIP3   OH242956   5.128   2.013   4.236
14338TIP3    H142957   5.101   2.092   4.189
14338TIP3    H242958   5.047   1.979   4.275
14339TIP3   OH242959   7.249   7.422   3.463
14339TIP3    H142960   7.166   7.435   3.417
14339TIP3    H242961   7.312   7.402   3.394
14340TIP3   OH242962   6.490   0.817   6.225
14340TIP3    H142963   6.501   0.911   6.208
14340TIP3    H242964   6.546   0.800   6.301
14341TIP3   OH242965   3.431   5.367   1.440
14341TIP3    H142966   3.451   5.373   1.533
14341TIP3    H242967   3.472   5.286   1.411
14342TIP3   OH242968   6.730   1.625   4.599
14342TIP3    H142969   6.641   1.648   4.625
14342TIP3    H242970   6.780   1.626   4.680
14343TIP3   OH242971   2.693   2.227   0.935
14343TIP3    H142972   2.681   2.238   0.841
14343TIP3    H242973   2.755   2.295   0.960
14344TIP3   OH242974   6.532   7.626   5.343
14344TIP3    H142975   6.571   7.609   5.429
14344TIP3    H242976   6.485   7.545   5.322
14345TIP3   OH242977   3.667   5.996   5.763
14345TIP3    H142978   3.616   6.068   5.799
14345TIP3    H242979   3.607   5.922   5.763
14346TIP3   OH242980   6.009   6.110   2.235
14346TIP3    H142981   5.973   6.068   2.157
14346TIP3    H242982   5.940   6.102   2.300
14347TIP3   OH242983   5.587   5.896   4.162
14347TIP3    H142984   5.603   5.810   4.124
14347TIP3    H242985   5.505   5.887   4.209
14348TIP3   OH242986   4.321   1.338   1.275
14348TIP3    H142987   4.283   1.317   1.190
14348TIP3    H242988   4.278   1.279   1.337
14349TIP3   OH242989   0.417   0.223   1.087
14349TIP3    H142990   0.466   0.188   1.013
14349TIP3    H242991   0.374   0.147   1.126
14350TIP3   OH242992   4.143   2.126   3.691
14350TIP3    H142993   4.135   2.220   3.680
14350TIP3    H242994   4.228   2.114   3.733
14351TIP3   OH242995   6.844   1.529   5.622
14351TIP3    H142996   6.791   1.544   5.544
14351TIP3    H242997   6.796   1.463   5.672
14352TIP3   OH242998   3.446   2.820   5.171
14352TIP3    H142999   3.471   2.812   5.263
14352TIP3    H243000   3.405   2.906   5.165
14353TIP3   OH243001   2.852   1.063   3.172
14353TIP3    H143002   2.809   1.070   3.087
14353TIP3    H243003   2.911   0.988   3.163
14354TIP3   OH243004   3.917   3.793   4.348
14354TIP3    H143005   3.990   3.854   4.350
14354TIP3    H243006   3.958   3.707   4.344
14355TIP3   OH243007   5.872   5.915   3.397
14355TIP3    H143008   5.931   5.848   3.364
14355TIP3    H243009   5.925   5.994   3.402
14356TIP3   OH243010   0.870   0.933   2.024
14356TIP3    H143011   0.939   0.905   1.964
14356TIP3    H243012   0.914   0.990   2.087
14357TIP3   OH243013   7.331   0.599   1.578
14357TIP3    H143014   7.367   0.542   1.645
14357TIP3    H243015   7.239   0.574   1.572
14358TIP3   OH243016   1.176   1.269   1.923
14358TIP3    H143017   1.245   1.203   1.929
14358TIP3    H243018   1.200   1.321   1.847
14359TIP3   OH243019   1.781   2.816   5.516
14359TIP3    H143020   1.846   2.809   5.586
14359TIP3    H243021   1.826   2.784   5.438
14360TIP3   OH243022   6.410   1.227   6.449
14360TIP3    H143023   6.333   1.188   6.488
14360TIP3    H243024   6.423   1.309   6.497
14361TIP3   OH243025   1.037   5.409   2.924
14361TIP3    H143026   1.090   5.391   2.846
14361TIP3    H243027   0.948   5.418   2.891
14362TIP3   OH243028   0.154   2.150   3.553
14362TIP3    H143029   0.135   2.240   3.580
14362TIP3    H243030   0.204   2.113   3.625
14363TIP3   OH243031   7.350   5.672   5.078
14363TIP3    H143032   7.397   5.594   5.047
14363TIP3    H243033   7.262   5.662   5.041
14364TIP3   OH243034   8.094   5.654   6.229
14364TIP3    H143035   8.054   5.592   6.289
14364TIP3    H243036   8.150   5.708   6.284
14365TIP3   OH243037   0.393   2.816   1.612
14365TIP3    H143038   0.351   2.777   1.535
14365TIP3    H243039   0.469   2.862   1.577
14366TIP3   OH243040  -0.014   3.249   2.855
14366TIP3    H143041   0.015   3.163   2.884
14366TIP3    H243042   0.061   3.284   2.807
14367TIP3   OH243043   8.117   6.098   3.558
14367TIP3    H143044   8.049   6.074   3.621
14367TIP3    H243045   8.185   6.031   3.568
14368TIP3   OH243046   5.142   3.902   2.500
14368TIP3    H143047   5.179   3.942   2.421
14368TIP3    H243048   5.147   3.808   2.485
14369TIP3   OH243049   1.648   5.788   4.053
14369TIP3    H143050   1.701   5.812   4.129
14369TIP3    H243051   1.578   5.735   4.088
14370TIP3   OH243052   6.243   0.246   4.045
14370TIP3    H143053   6.328   0.249   4.089
14370TIP3    H243054   6.179   0.239   4.117
14371TIP3   OH243055   5.559   2.993   3.753
14371TIP3    H143056   5.562   2.928   3.684
14371TIP3    H243057   5.505   2.954   3.822
14372TIP3   OH243058   1.185   0.979   3.638
14372TIP3    H143059   1.279   0.967   3.650
14372TIP3    H243060   1.177   1.031   3.558
14373TIP3   OH243061   4.976   3.510   4.384
14373TIP3    H143062   4.915   3.445   4.349
14373TIP3    H243063   5.054   3.460   4.406
14374TIP3   OH243064   6.995   7.720   3.306
14374TIP3    H143065   7.068   7.759   3.354
14374TIP3    H243066   6.929   7.789   3.304
14375TIP3   OH243067   6.070   4.685   1.196
14375TIP3    H143068   6.051   4.723   1.282
14375TIP3    H243069   6.091   4.593   1.216
14376TIP3   OH243070   4.995   0.419   0.468
14376TIP3    H143071   4.973   0.502   0.425
14376TIP3    H243072   5.028   0.444   0.554
14377TIP3   OH243073   6.967   7.813   5.705
14377TIP3    H143074   7.035   7.866   5.663
14377TIP3    H243075   6.973   7.728   5.662
14378TIP3   OH243076   7.511   2.624   2.943
14378TIP3    H143077   7.558   2.575   3.011
14378TIP3    H243078   7.488   2.557   2.878
14379TIP3   OH243079   1.716   1.568   6.351
14379TIP3    H143080   1.752   1.620   6.422
14379TIP3    H243081   1.788   1.513   6.322
14380TIP3   OH243082   4.971   6.050   1.029
14380TIP3    H143083   4.906   6.072   1.095
14380TIP3    H243084   4.947   5.962   0.999
14381TIP3   OH243085   2.831   4.537   2.315
14381TIP3    H143086   2.868   4.551   2.228
14381TIP3    H243087   2.748   4.492   2.299
14382TIP3   OH243088   3.929   7.383   4.721
14382TIP3    H143089   3.953   7.340   4.639
14382TIP3    H243090   3.991   7.349   4.785
14383TIP3   OH243091   2.135   7.088   5.674
14383TIP3    H143092   2.167   7.163   5.625
14383TIP3    H243093   2.184   7.014   5.640
14384TIP3   OH243094   0.161   3.367   5.365
14384TIP3    H143095   0.158   3.312   5.286
14384TIP3    H243096   0.206   3.446   5.337
14385TIP3   OH243097   0.026   2.064   4.993
14385TIP3    H143098   0.033   2.010   5.072
14385TIP3    H243099   0.084   2.139   5.010
14386TIP3   OH243100   0.365   0.307   0.130
14386TIP3    H143101   0.390   0.258   0.209
14386TIP3    H243102   0.329   0.389   0.163
14387TIP3   OH243103   5.550   0.389   5.958
14387TIP3    H143104   5.629   0.420   6.003
14387TIP3    H243105   5.550   0.438   5.875
14388TIP3   OH243106   2.324   6.141   5.660
14388TIP3    H143107   2.295   6.110   5.574
14388TIP3    H243108   2.420   6.143   5.653
14389TIP3   OH243109   4.249   0.723   4.055
14389TIP3    H143110   4.206   0.758   3.978
14389TIP3    H243111   4.339   0.708   4.028
14390TIP3   OH243112   7.904   0.718   4.632
14390TIP3    H143113   7.842   0.787   4.613
14390TIP3    H243114   7.864   0.667   4.702
14391TIP3   OH243115   2.705   6.523   6.221
14391TIP3    H143116   2.696   6.597   6.161
14391TIP3    H243117   2.658   6.550   6.300
14392TIP3   OH243118   3.430   4.191   6.058
14392TIP3    H143119   3.349   4.170   6.104
14392TIP3    H243120   3.426   4.285   6.043
14393TIP3   OH243121   6.981   4.713   2.998
14393TIP3    H143122   7.059   4.705   3.054
14393TIP3    H243123   6.983   4.635   2.943
14394TIP3   OH243124   7.000   4.047   0.943
14394TIP3    H143125   7.015   4.134   0.908
14394TIP3    H243126   6.907   4.031   0.928
14395TIP3   OH243127   4.855   4.262   6.559
14395TIP3    H143128   4.769   4.298   6.537
14395TIP3    H243129   4.915   4.336   6.545
14396TIP3   OH243130   6.968  -0.001   6.592
14396TIP3    H143131   6.873   0.003   6.579
14396TIP3    H243132   6.987   0.073   6.649
14397TIP3   OH243133   4.829   7.005   0.694
14397TIP3    H143134   4.766   6.988   0.765
14397TIP3    H243135   4.841   7.100   0.695
14398TIP3   OH243136   7.183   2.614   6.207
14398TIP3    H143137   7.179   2.534   6.261
14398TIP3    H243138   7.108   2.607   6.148
14399TIP3   OH243139   1.185   7.807   0.651
14399TIP3    H143140   1.207   7.760   0.570
14399TIP3    H243141   1.109   7.860   0.627
14400TIP3   OH243142   7.228   5.664   1.990
14400TIP3    H143143   7.282   5.658   2.069
14400TIP3    H243144   7.190   5.576   1.980
14401TIP3   OH243145   5.222   6.572   6.375
14401TIP3    H143146   5.163   6.644   6.354
14401TIP3    H243147   5.245   6.534   6.289
14402TIP3   OH243148   6.152   3.878   0.145
14402TIP3    H143149   6.082   3.842   0.090
14402TIP3    H243150   6.123   3.859   0.234
14403TIP3   OH243151   7.786   4.158   5.413
14403TIP3    H143152   7.693   4.153   5.390
14403TIP3    H243153   7.829   4.097   5.353
14404TIP3   OH243154   1.895   6.560   0.934
14404TIP3    H143155   1.814   6.599   0.966
14404TIP3    H243156   1.870   6.509   0.857
14405TIP3   OH243157   4.544   1.175   3.614
14405TIP3    H143158   4.610   1.109   3.637
14405TIP3    H243159   4.543   1.235   3.689
14406TIP3   OH243160   1.311   0.030   5.409
14406TIP3    H143161   1.231   0.070   5.443
14406TIP3    H243162   1.302  -0.063   5.432
14407TIP3   OH243163   2.079   5.560   5.124
14407TIP3    H143164   2.113   5.634   5.075
14407TIP3    H243165   2.090   5.584   5.216
14408TIP3   OH243166   5.894   6.643   1.884
14408TIP3    H143167   5.870   6.736   1.880
14408TIP3    H243168   5.975   6.638   1.833
14409TIP3   OH243169   6.754   6.025   1.382
14409TIP3    H143170   6.767   6.043   1.475
14409TIP3    H243171   6.677   5.969   1.379
14410TIP3   OH243172   1.549   1.440   5.968
14410TIP3    H143173   1.491   1.404   5.901
14410TIP3    H243174   1.621   1.479   5.919
14411TIP3   OH243175   7.769   0.148   3.383
14411TIP3    H143176   7.835   0.191   3.328
14411TIP3    H243177   7.818   0.083   3.433
14412TIP3   OH243178   7.994   5.678   3.360
14412TIP3    H143179   8.078   5.719   3.341
14412TIP3    H243180   7.958   5.654   3.274
14413TIP3   OH243181   1.157   1.470   6.537
14413TIP3    H143182   1.133   1.384   6.501
14413TIP3    H243183   1.245   1.457   6.573
14414TIP3   OH243184   7.575   1.966   2.404
14414TIP3    H143185   7.510   1.909   2.363
14414TIP3    H243186   7.546   1.975   2.495
14415TIP3   OH243187   0.986   3.904   5.647
14415TIP3    H143188   0.965   3.890   5.740
14415TIP3    H243189   1.046   3.979   5.647
14416TIP3   OH243190   7.861   5.251   2.956
14416TIP3    H143191   7.822   5.186   2.899
14416TIP3    H243192   7.897   5.317   2.896
14417TIP3   OH243193   2.775   2.631   5.134
14417TIP3    H143194   2.716   2.594   5.199
14417TIP3    H243195   2.753   2.586   5.053
14418TIP3   OH243196   5.279   2.237   4.409
14418TIP3    H143197   5.357   2.183   4.399
14418TIP3    H243198   5.212   2.175   4.440
14419TIP3   OH243199   2.432   2.428   4.196
14419TIP3    H143200   2.519   2.429   4.157
14419TIP3    H243201   2.374   2.407   4.123
14420TIP3   OH243202   0.654   4.269   3.476
14420TIP3    H143203   0.631   4.225   3.558
14420TIP3    H243204   0.632   4.205   3.408
14421TIP3   OH243205   2.838   5.506   0.533
14421TIP3    H143206   2.928   5.523   0.560
14421TIP3    H243207   2.831   5.410   0.532
14422TIP3   OH243208   6.733   6.713   2.055
14422TIP3    H143209   6.812   6.759   2.083
14422TIP3    H243210   6.733   6.632   2.106
14423TIP3   OH243211   7.735   6.854   3.261
14423TIP3    H143212   7.795   6.915   3.218
14423TIP3    H243213   7.649   6.874   3.224
14424TIP3   OH243214   6.618   4.004   3.352
14424TIP3    H143215   6.561   3.956   3.293
14424TIP3    H243216   6.694   3.947   3.366
14425TIP3   OH243217   6.154   5.818   3.504
14425TIP3    H143218   6.160   5.890   3.442
14425TIP3    H243219   6.101   5.752   3.460
14426TIP3   OH243220   5.609   2.425   5.497
14426TIP3    H143221   5.678   2.364   5.526
14426TIP3    H243222   5.569   2.381   5.422
14427TIP3   OH243223   7.814   6.147   5.035
14427TIP3    H143224   7.896   6.189   5.010
14427TIP3    H243225   7.841   6.062   5.072
14428TIP3   OH243226   4.316   1.019   5.498
14428TIP3    H143227   4.237   1.045   5.545
14428TIP3    H243228   4.377   0.991   5.566
14429TIP3   OH243229   3.454   2.281   0.071
14429TIP3    H143230   3.361   2.257   0.069
14429TIP3    H243231   3.483   2.273  -0.020
14430TIP3   OH243232   6.224   6.240   6.155
14430TIP3    H143233   6.232   6.318   6.210
14430TIP3    H243234   6.130   6.232   6.139
14431TIP3   OH243235   7.566   0.077   4.764
14431TIP3    H143236   7.547   0.024   4.687
14431TIP3    H243237   7.638   0.031   4.807
14432TIP3   OH243238   1.712   2.603   3.518
14432TIP3    H143239   1.690   2.530   3.460
14432TIP3    H243240   1.632   2.655   3.522
14433TIP3   OH243241   7.120   3.435   0.889
14433TIP3    H143242   7.170   3.509   0.854
14433TIP3    H243243   7.069   3.403   0.814
14434TIP3   OH243244   3.459   1.172   1.176
14434TIP3    H143245   3.465   1.251   1.122
14434TIP3    H243246   3.545   1.167   1.219
14435TIP3   OH243247   6.498   3.024   1.055
14435TIP3    H143248   6.447   2.948   1.080
14435TIP3    H243249   6.458   3.097   1.102
14436TIP3   OH243250   0.937   1.827   3.503
14436TIP3    H143251   0.952   1.810   3.410
14436TIP3    H243252   1.025   1.832   3.540
14437TIP3   OH243253   6.607   1.100   2.224
14437TIP3    H143254   6.633   1.192   2.227
14437TIP3    H243255   6.599   1.080   2.131
14438TIP3   OH243256   5.554   1.359   5.434
14438TIP3    H143257   5.624   1.376   5.371
14438TIP3    H243258   5.473   1.376   5.386
14439TIP3   OH243259   2.312   1.232   4.399
14439TIP3    H143260   2.375   1.162   4.415
14439TIP3    H243261   2.359   1.295   4.345
14440TIP3   OH243262   4.771   0.261   5.781
14440TIP3    H143263   4.693   0.238   5.833
14440TIP3    H243264   4.823   0.181   5.780
14441TIP3   OH243265   4.374   5.699   4.390
14441TIP3    H143266   4.296   5.688   4.444
14441TIP3    H243267   4.355   5.651   4.310
14442TIP3   OH243268   7.325   2.019   5.232
14442TIP3    H143269   7.273   1.939   5.227
14442TIP3    H243270   7.409   1.995   5.194
14443TIP3   OH243271   5.346   3.971   5.967
14443TIP3    H143272   5.301   4.007   6.044
14443TIP3    H243273   5.420   4.029   5.953
14444TIP3   OH243274   8.193   5.779   6.445
14444TIP3    H143275   8.224   5.722   6.515
14444TIP3    H243276   8.105   5.804   6.471
14445TIP3   OH243277   1.227   1.183   0.751
14445TIP3    H143278   1.228   1.087   0.751
14445TIP3    H243279   1.138   1.205   0.777
14446TIP3   OH243280   2.344   2.577   5.036
14446TIP3    H143281   2.410   2.623   4.984
14446TIP3    H243282   2.367   2.596   5.127
14447TIP3   OH243283   1.985   7.741   6.041
14447TIP3    H143284   1.894   7.765   6.054
14447TIP3    H243285   1.998   7.745   5.946
14448TIP3   OH243286   5.120   2.384   4.716
14448TIP3    H143287   5.139   2.477   4.702
14448TIP3    H243288   5.201   2.349   4.752
14449TIP3   OH243289   4.733   7.465   1.059
14449TIP3    H143290   4.811   7.505   1.021
14449TIP3    H243291   4.766   7.397   1.117
14450TIP3   OH243292   7.644   2.353   1.225
14450TIP3    H143293   7.649   2.445   1.251
14450TIP3    H243294   7.729   2.317   1.250
14451TIP3   OH243295   0.875   5.751   2.344
14451TIP3    H143296   0.827   5.699   2.408
14451TIP3    H243297   0.808   5.807   2.304
14452TIP3   OH243298   5.014   0.161   4.527
14452TIP3    H143299   4.973   0.246   4.545
14452TIP3    H243300   5.006   0.112   4.609
14453TIP3   OH243301   7.386   1.557   1.132
14453TIP3    H143302   7.454   1.621   1.109
14453TIP3    H243303   7.369   1.573   1.225
14454TIP3   OH243304   2.637   3.509   5.318
14454TIP3    H143305   2.639   3.422   5.359
14454TIP3    H243306   2.725   3.521   5.283
14455TIP3   OH243307   6.530   7.519   6.411
14455TIP3    H143308   6.601   7.536   6.472
14455TIP3    H243309   6.450   7.539   6.460
14456TIP3   OH243310   0.379   0.350   1.364
14456TIP3    H143311   0.387   0.337   1.270
14456TIP3    H243312   0.313   0.420   1.373
14457TIP3   OH243313   5.966   4.884   6.609
14457TIP3    H143314   5.913   4.961   6.587
14457TIP3    H243315   6.045   4.894   6.556
14458TIP3   OH243316   0.566   6.961   0.216
14458TIP3    H143317   0.586   7.045   0.257
14458TIP3    H243318   0.471   6.953   0.223
14459TIP3   OH243319   5.327   1.161   3.833
14459TIP3    H143320   5.249   1.128   3.876
14459TIP3    H243321   5.380   1.084   3.815
14460TIP3   OH243322   1.666   5.219   5.692
14460TIP3    H143323   1.637   5.176   5.612
14460TIP3    H243324   1.716   5.153   5.740
14461TIP3   OH243325   2.566   5.314   2.097
14461TIP3    H143326   2.489   5.368   2.117
14461TIP3    H243327   2.539   5.225   2.119
14462TIP3   OH243328   7.448   5.078   2.060
14462TIP3    H143329   7.395   5.027   1.999
14462TIP3    H243330   7.415   5.167   2.050
14463TIP3   OH243331   3.146   5.307   0.690
14463TIP3    H143332   3.190   5.350   0.763
14463TIP3    H243333   3.216   5.277   0.633
14464TIP3   OH243334   3.400   6.090   1.769
14464TIP3    H143335   3.313   6.120   1.793
14464TIP3    H243336   3.445   6.076   1.852
14465TIP3   OH243337   5.314   3.719   3.816
14465TIP3    H143338   5.408   3.736   3.823
14465TIP3    H243339   5.273   3.796   3.855
14466TIP3   OH243340   4.911   6.350   3.306
14466TIP3    H143341   4.980   6.364   3.241
14466TIP3    H243342   4.897   6.437   3.345
14467TIP3   OH243343   1.277   3.857   5.844
14467TIP3    H143344   1.363   3.844   5.884
14467TIP3    H243345   1.258   3.950   5.855
14468TIP3   OH243346   2.408   4.125   3.337
14468TIP3    H143347   2.501   4.120   3.358
14468TIP3    H243348   2.403   4.181   3.260
14469TIP3   OH243349   5.354   6.961   1.850
14469TIP3    H143350   5.400   7.039   1.820
14469TIP3    H243351   5.265   6.992   1.869
14470TIP3   OH243352   4.085   6.516   2.046
14470TIP3    H143353   4.065   6.599   2.089
14470TIP3    H243354   4.054   6.449   2.108
14471TIP3   OH243355   5.031   1.355   3.864
14471TIP3    H143356   5.056   1.402   3.944
14471TIP3    H243357   5.056   1.264   3.881
14472TIP3   OH243358   5.197   6.077   2.450
14472TIP3    H143359   5.199   6.004   2.389
14472TIP3    H243360   5.270   6.132   2.425
14473TIP3   OH243361   1.959   1.974   2.176
14473TIP3    H143362   2.046   2.013   2.163
14473TIP3    H243363   1.915   2.034   2.235
14474TIP3   OH243364   2.461   5.131   6.545
14474TIP3    H143365   2.511   5.189   6.603
14474TIP3    H243366   2.448   5.182   6.465
14475TIP3   OH243367   4.909   3.483   3.240
14475TIP3    H143368   4.845   3.445   3.179
14475TIP3    H243369   4.958   3.408   3.273
14476TIP3   OH243370   0.698   0.731   0.321
14476TIP3    H143371   0.719   0.823   0.336
14476TIP3    H243372   0.780   0.692   0.290
14477TIP3   OH243373   6.895   4.475   5.258
14477TIP3    H143374   6.821   4.457   5.201
14477TIP3    H243375   6.860   4.533   5.325
14478TIP3   OH243376   5.647   0.283   6.580
14478TIP3    H143377   5.681   0.340   6.511
14478TIP3    H243378   5.610   0.208   6.533
14479TIP3   OH243379   3.441   0.753   2.990
14479TIP3    H143380   3.502   0.821   3.018
14479TIP3    H243381   3.415   0.780   2.902
14480TIP3   OH243382   8.208   4.971   2.387
14480TIP3    H143383   8.137   4.936   2.334
14480TIP3    H243384   8.244   5.043   2.335
14481TIP3   OH243385   4.128   6.193   4.278
14481TIP3    H143386   4.114   6.284   4.306
14481TIP3    H243387   4.170   6.151   4.353
14482TIP3   OH243388   6.217   5.338   5.316
14482TIP3    H143389   6.226   5.361   5.409
14482TIP3    H243390   6.150   5.270   5.315
14483TIP3   OH243391   1.914   2.307   1.690
14483TIP3    H143392   1.820   2.322   1.702
14483TIP3    H243393   1.953   2.394   1.698
14484TIP3   OH243394   1.396   6.125   2.356
14484TIP3    H143395   1.361   6.214   2.360
14484TIP3    H243396   1.439   6.119   2.271
14485TIP3   OH243397   0.348   2.701   4.711
14485TIP3    H143398   0.411   2.766   4.681
14485TIP3    H243399   0.369   2.622   4.661
14486TIP3   OH243400   6.195   5.083   5.463
14486TIP3    H143401   6.194   5.167   5.510
14486TIP3    H243402   6.288   5.060   5.458
14487TIP3   OH243403   6.668   1.743   0.773
14487TIP3    H143404   6.725   1.722   0.847
14487TIP3    H243405   6.611   1.813   0.806
14488TIP3   OH243406   2.138   3.769   6.349
14488TIP3    H143407   2.081   3.777   6.426
14488TIP3    H243408   2.214   3.720   6.381
14489TIP3   OH243409   7.511   4.920   6.243
14489TIP3    H143410   7.523   4.855   6.174
14489TIP3    H243411   7.474   4.997   6.198
14490TIP3   OH243412   2.314   0.060   3.353
14490TIP3    H143413   2.220   0.046   3.359
14490TIP3    H243414   2.334   0.122   3.423
14491TIP3   OH243415   1.649   7.794   5.383
14491TIP3    H143416   1.593   7.762   5.454
14491TIP3    H243417   1.686   7.876   5.416
14492TIP3   OH243418   3.132   0.298   2.439
14492TIP3    H143419   3.069   0.331   2.503
14492TIP3    H243420   3.203   0.261   2.493
14493TIP3   OH243421   8.269   1.452   2.807
14493TIP3    H143422   8.358   1.459   2.773
14493TIP3    H243423   8.257   1.358   2.824
14494TIP3   OH243424   5.665   2.907   5.037
14494TIP3    H143425   5.601   2.972   5.011
14494TIP3    H243426   5.691   2.864   4.955
14495TIP3   OH243427   1.095   0.558   1.754
14495TIP3    H143428   1.020   0.544   1.696
14495TIP3    H243429   1.109   0.473   1.796
14496TIP3   OH243430   4.260   0.949   4.549
14496TIP3    H143431   4.300   0.988   4.470
14496TIP3    H243432   4.318   0.976   4.620
14497TIP3   OH243433   7.411   4.456   4.692
14497TIP3    H143434   7.373   4.483   4.775
14497TIP3    H243435   7.339   4.460   4.630
14498TIP3   OH243436   3.910   6.728   6.417
14498TIP3    H143437   3.823   6.763   6.435
14498TIP3    H243438   3.912   6.716   6.322
14499TIP3   OH243439   0.490   1.488   4.084
14499TIP3    H143440   0.446   1.489   4.169
14499TIP3    H243441   0.450   1.416   4.036
14500TIP3   OH243442   5.691   1.204   6.388
14500TIP3    H143443   5.681   1.259   6.311
14500TIP3    H243444   5.611   1.152   6.391
14501TIP3   OH243445   3.728   3.027   3.672
14501TIP3    H143446   3.727   2.963   3.600
14501TIP3    H243447   3.699   2.978   3.748
14502TIP3   OH243448   2.410   5.568   5.944
14502TIP3    H143449   2.404   5.527   6.030
14502TIP3    H243450   2.320   5.570   5.912
14503TIP3   OH243451   5.250   7.747   1.448
14503TIP3    H143452   5.236   7.823   1.391
14503TIP3    H243453   5.312   7.778   1.514
14504TIP3   OH243454   5.364   2.678   2.321
14504TIP3    H143455   5.275   2.697   2.290
14504TIP3    H243456   5.393   2.605   2.267
14505TIP3   OH243457   5.480   0.715   5.385
14505TIP3    H143458   5.486   0.737   5.292
14505TIP3    H243459   5.565   0.675   5.405
14506TIP3   OH243460   3.658   5.209   5.161
14506TIP3    H143461   3.665   5.171   5.074
14506TIP3    H243462   3.737   5.262   5.171
14507TIP3   OH243463   4.119   4.326   6.455
14507TIP3    H143464   4.103   4.349   6.546
14507TIP3    H243465   4.073   4.243   6.443
14508TIP3   OH243466   4.813   1.094   2.478
14508TIP3    H143467   4.775   1.007   2.467
14508TIP3    H243468   4.738   1.151   2.496
14509TIP3   OH243469   6.428   4.601   2.789
14509TIP3    H143470   6.451   4.677   2.844
14509TIP3    H243471   6.454   4.525   2.842
14510TIP3   OH243472   6.383   2.585   3.000
14510TIP3    H143473   6.291   2.607   3.013
14510TIP3    H243474   6.431   2.646   3.057
14511TIP3   OH243475   7.517   1.150   4.527
14511TIP3    H143476   7.609   1.173   4.527
14511TIP3    H243477   7.502   1.108   4.442
14512TIP3   OH243478   1.850   5.506   4.065
14512TIP3    H143479   1.858   5.601   4.072
14512TIP3    H243480   1.804   5.492   3.982
14513TIP3   OH243481   0.640   7.537   3.241
14513TIP3    H143482   0.646   7.445   3.217
14513TIP3    H243483   0.691   7.545   3.321
14514TIP3   OH243484   1.459   1.641   1.729
14514TIP3    H143485   1.441   1.668   1.639
14514TIP3    H243486   1.546   1.676   1.748
14515TIP3   OH243487   3.588   4.413   5.735
14515TIP3    H143488   3.497   4.414   5.704
14515TIP3    H243489   3.584   4.368   5.819
14516TIP3   OH243490   2.278   6.603   4.774
14516TIP3    H143491   2.280   6.508   4.764
14516TIP3    H243492   2.330   6.636   4.701
14517TIP3   OH243493   2.040   4.408   1.666
14517TIP3    H143494   2.119   4.448   1.703
14517TIP3    H243495   1.995   4.370   1.741
14518TIP3   OH243496   2.617   6.405   2.862
14518TIP3    H143497   2.652   6.473   2.804
14518TIP3    H243498   2.571   6.345   2.804
14519TIP3   OH243499   8.008   7.447   0.465
14519TIP3    H143500   7.923   7.447   0.421
14519TIP3    H243501   7.996   7.392   0.542
14520TIP3   OH243502   4.376   2.218   3.246
14520TIP3    H143503   4.387   2.139   3.194
14520TIP3    H243504   4.310   2.196   3.311
14521TIP3   OH243505   5.157   2.004   1.844
14521TIP3    H143506   5.124   2.092   1.825
14521TIP3    H243507   5.078   1.950   1.851
14522TIP3   OH243508   7.503   2.464   1.011
14522TIP3    H143509   7.485   2.542   1.063
14522TIP3    H243510   7.545   2.404   1.071
14523TIP3   OH243511   7.150   2.950   0.613
14523TIP3    H143512   7.242   2.967   0.632
14523TIP3    H243513   7.150   2.864   0.570
14524TIP3   OH243514   6.912   2.683   1.332
14524TIP3    H143515   6.929   2.758   1.274
14524TIP3    H243516   6.822   2.657   1.311
14525TIP3   OH243517   7.316   6.882   6.750
14525TIP3    H143518   7.260   6.849   6.680
14525TIP3    H243519   7.270   6.958   6.785
14526TIP3   OH243520   1.688   7.337   4.077
14526TIP3    H143521   1.779   7.325   4.103
14526TIP3    H243522   1.637   7.303   4.151
14527TIP3   OH243523   0.192   0.191   3.094
14527TIP3    H143524   0.199   0.257   3.162
14527TIP3    H243525   0.251   0.221   3.025
14528TIP3   OH243526   2.760   4.586   4.974
14528TIP3    H143527   2.700   4.598   5.048
14528TIP3    H243528   2.775   4.492   4.970
14529TIP3   OH243529   8.014   6.294   0.170
14529TIP3    H143530   8.073   6.349   0.222
14529TIP3    H243531   7.926   6.317   0.201
14530TIP3   OH243532   1.872   0.777   4.204
14530TIP3    H143533   1.963   0.745   4.206
14530TIP3    H243534   1.822   0.702   4.171
14531TIP3   OH243535   0.398   0.318   0.757
14531TIP3    H143536   0.348   0.238   0.774
14531TIP3    H243537   0.395   0.327   0.661
14532TIP3   OH243538   4.480   6.038   3.914
14532TIP3    H143539   4.452   5.948   3.895
14532TIP3    H243540   4.535   6.030   3.991
14533TIP3   OH243541   5.791   5.166   4.521
14533TIP3    H143542   5.758   5.151   4.609
14533TIP3    H243543   5.836   5.085   4.498
14534TIP3   OH243544   7.528   7.466   4.983
14534TIP3    H143545   7.565   7.499   4.902
14534TIP3    H243546   7.434   7.480   4.974
14535TIP3   OH243547   7.240   6.523   4.472
14535TIP3    H143548   7.312   6.472   4.437
14535TIP3    H243549   7.182   6.537   4.397
14536TIP3   OH243550   4.495   7.581   4.127
14536TIP3    H143551   4.520   7.561   4.036
14536TIP3    H243552   4.481   7.495   4.167
14537TIP3   OH243553   7.606   6.426   1.947
14537TIP3    H143554   7.620   6.460   2.036
14537TIP3    H243555   7.628   6.333   1.954
14538TIP3   OH243556   0.375   4.507   5.079
14538TIP3    H143557   0.468   4.501   5.099
14538TIP3    H243558   0.348   4.592   5.112
14539TIP3   OH243559   1.906   3.819   3.211
14539TIP3    H143560   1.965   3.841   3.283
14539TIP3    H243561   1.919   3.889   3.147
14540TIP3   OH243562   4.684   7.435   6.379
14540TIP3    H143563   4.693   7.476   6.465
14540TIP3    H243564   4.594   7.404   6.375
14541TIP3   OH243565   8.071   1.345   3.089
14541TIP3    H143566   8.113   1.272   3.134
14541TIP3    H243567   8.118   1.422   3.122
14542TIP3   OH243568   0.656   1.365   0.373
14542TIP3    H143569   0.581   1.385   0.429
14542TIP3    H243570   0.723   1.332   0.432
14543TIP3   OH243571   8.159   0.417   5.115
14543TIP3    H143572   8.189   0.395   5.203
14543TIP3    H243573   8.165   0.335   5.066
14544TIP3   OH243574   4.662   7.479   1.401
14544TIP3    H143575   4.618   7.457   1.319
14544TIP3    H243576   4.615   7.428   1.467
14545TIP3   OH243577   7.104   7.499   1.918
14545TIP3    H143578   7.190   7.501   1.877
14545TIP3    H243579   7.103   7.575   1.975
14546TIP3   OH243580   5.214   7.742   4.228
14546TIP3    H143581   5.277   7.814   4.226
14546TIP3    H243582   5.264   7.666   4.197
14547TIP3   OH243583   7.001   0.803   4.242
14547TIP3    H143584   7.075   0.862   4.229
14547TIP3    H243585   7.034   0.736   4.302
14548TIP3   OH243586   6.783   7.395   3.717
14548TIP3    H143587   6.850   7.384   3.785
14548TIP3    H243588   6.701   7.405   3.765
14549TIP3   OH243589   6.743   5.275   1.328
14549TIP3    H143590   6.690   5.250   1.404
14549TIP3    H243591   6.729   5.369   1.318
14550TIP3   OH243592   0.514   2.153   3.475
14550TIP3    H143593   0.608   2.150   3.455
14550TIP3    H243594   0.471   2.126   3.394
14551TIP3   OH243595   6.155   2.001   0.076
14551TIP3    H143596   6.154   2.092   0.107
14551TIP3    H243597   6.106   1.953   0.143
14552TIP3   OH243598  -0.032   2.810   6.203
14552TIP3    H143599   0.055   2.770   6.211
14552TIP3    H243600  -0.018   2.883   6.142
14553TIP3   OH243601   3.563   2.293   5.417
14553TIP3    H143602   3.615   2.274   5.495
14553TIP3    H243603   3.562   2.210   5.369
14554TIP3   OH243604   5.235   3.106   6.418
14554TIP3    H143605   5.143   3.083   6.435
14554TIP3    H243606   5.231   3.193   6.379
14555TIP3   OH243607   6.022   0.134   3.545
14555TIP3    H143608   6.006   0.228   3.544
14555TIP3    H243609   6.068   0.116   3.463
14556TIP3   OH243610   1.057   0.994   0.402
14556TIP3    H143611   1.119   0.925   0.377
14556TIP3    H243612   1.070   1.005   0.496
14557TIP3   OH243613   5.730   5.886   3.645
14557TIP3    H143614   5.809   5.901   3.592
14557TIP3    H243615   5.737   5.796   3.674
14558TIP3   OH243616   1.664   5.054   2.580
14558TIP3    H143617   1.757   5.076   2.589
14558TIP3    H243618   1.631   5.117   2.515
14559TIP3   OH243619   5.802   5.707   0.839
14559TIP3    H143620   5.707   5.711   0.847
14559TIP3    H243621   5.833   5.782   0.890
14560TIP3   OH243622   4.446   4.193   2.697
14560TIP3    H143623   4.491   4.275   2.673
14560TIP3    H243624   4.487   4.167   2.779
14561TIP3   OH243625   7.667   1.474   4.797
14561TIP3    H143626   7.679   1.552   4.743
14561TIP3    H243627   7.753   1.433   4.800
14562TIP3   OH243628   7.470   3.482   1.846
14562TIP3    H143629   7.545   3.537   1.822
14562TIP3    H243630   7.419   3.537   1.905
14563TIP3   OH243631   3.388   3.122   0.828
14563TIP3    H143632   3.434   3.080   0.756
14563TIP3    H243633   3.422   3.079   0.907
14564TIP3   OH243634   6.327   5.550   4.202
14564TIP3    H143635   6.406   5.527   4.252
14564TIP3    H243636   6.305   5.638   4.232
14565TIP3   OH243637   4.796   1.636   1.742
14565TIP3    H143638   4.862   1.596   1.798
14565TIP3    H243639   4.838   1.717   1.711
14566TIP3   OH243640   7.887   6.131   4.362
14566TIP3    H143641   7.815   6.068   4.367
14566TIP3    H243642   7.944   6.108   4.435
14567TIP3   OH243643   5.380   7.804   0.597
14567TIP3    H143644   5.419   7.762   0.673
14567TIP3    H243645   5.286   7.789   0.606
14568TIP3   OH243646   4.358   3.510   2.158
14568TIP3    H143647   4.269   3.481   2.140
14568TIP3    H243648   4.348   3.579   2.224
14569TIP3   OH243649   0.920   4.641   2.845
14569TIP3    H143650   0.841   4.589   2.834
14569TIP3    H243651   0.907   4.687   2.928
14570TIP3   OH243652   3.755   0.093   3.669
14570TIP3    H143653   3.782   0.153   3.600
14570TIP3    H243654   3.825   0.027   3.672
14571TIP3   OH243655   5.229   1.496   2.410
14571TIP3    H143656   5.278   1.445   2.346
14571TIP3    H243657   5.243   1.587   2.384
14572TIP3   OH243658   4.474   7.125   2.746
14572TIP3    H143659   4.380   7.122   2.767
14572TIP3    H243660   4.505   7.036   2.762
14573TIP3   OH243661   6.364   4.065   2.216
14573TIP3    H143662   6.297   4.026   2.160
14573TIP3    H243663   6.444   4.060   2.164
14574TIP3   OH243664   0.569   7.040   3.551
14574TIP3    H143665   0.563   7.092   3.631
14574TIP3    H243666   0.601   7.101   3.485
14575TIP3   OH243667   0.281   7.802   5.888
14575TIP3    H143668   0.203   7.773   5.935
14575TIP3    H243669   0.282   7.749   5.809
14576TIP3   OH243670   3.233   6.037   4.946
14576TIP3    H143671   3.245   5.985   5.025
14576TIP3    H243672   3.175   5.984   4.891
14577TIP3   OH243673   6.972   3.639   4.898
14577TIP3    H143674   6.973   3.702   4.826
14577TIP3    H243675   7.022   3.564   4.865
14578TIP3   OH243676   2.939   3.488   3.319
14578TIP3    H143677   2.847   3.511   3.306
14578TIP3    H243678   2.956   3.506   3.411
14579TIP3   OH243679   7.128   4.888   0.476
14579TIP3    H143680   7.217   4.889   0.442
14579TIP3    H243681   7.076   4.846   0.407
14580TIP3   OH243682   5.469   7.579   2.627
14580TIP3    H143683   5.444   7.579   2.535
14580TIP3    H243684   5.386   7.571   2.674
14581TIP3   OH243685   6.841   4.766   3.480
14581TIP3    H143686   6.869   4.803   3.564
14581TIP3    H243687   6.755   4.728   3.498
14582TIP3   OH243688   2.803   6.988   1.403
14582TIP3    H143689   2.785   6.956   1.315
14582TIP3    H243690   2.717   7.012   1.438
14583TIP3   OH243691   1.903   3.175   0.655
14583TIP3    H143692   1.888   3.254   0.707
14583TIP3    H243693   1.896   3.203   0.564
14584TIP3   OH243694   3.083   1.888   5.392
14584TIP3    H143695   3.054   1.899   5.302
14584TIP3    H243696   3.035   1.954   5.442
14585TIP3   OH243697   3.977   3.957   6.749
14585TIP3    H143698   4.011   3.995   6.668
14585TIP3    H243699   3.908   3.897   6.721
14586TIP3   OH243700   4.897   6.515   1.658
14586TIP3    H143701   4.873   6.422   1.652
14586TIP3    H243702   4.963   6.527   1.589
14587TIP3   OH243703   6.173   3.552   3.653
14587TIP3    H143704   6.250   3.525   3.702
14587TIP3    H243705   6.155   3.480   3.593
14588TIP3   OH243706   6.403   4.964   4.700
14588TIP3    H143707   6.449   5.043   4.730
14588TIP3    H243708   6.362   4.990   4.618
14589TIP3   OH243709   6.334   1.862   5.711
14589TIP3    H143710   6.255   1.830   5.668
14589TIP3    H243711   6.391   1.889   5.639
14590TIP3   OH243712   7.043   5.654   6.663
14590TIP3    H143713   7.124   5.638   6.712
14590TIP3    H243714   7.047   5.747   6.639
14591TIP3   OH243715   8.260   2.512   2.663
14591TIP3    H143716   8.346   2.470   2.661
14591TIP3    H243717   8.280   2.605   2.679
14592TIP3   OH243718   6.156   0.193   2.865
14592TIP3    H143719   6.251   0.190   2.859
14592TIP3    H243720   6.131   0.275   2.822
14593TIP3   OH243721   1.162   1.740   0.583
14593TIP3    H143722   1.153   1.727   0.677
14593TIP3    H243723   1.091   1.801   0.561
14594TIP3   OH243724   5.695   7.241   1.529
14594TIP3    H143725   5.648   7.251   1.446
14594TIP3    H243726   5.708   7.146   1.538
14595TIP3   OH243727   2.885   1.720   2.030
14595TIP3    H143728   2.803   1.672   2.021
14595TIP3    H243729   2.909   1.744   1.941
14596TIP3   OH243730   5.992   4.660   4.191
14596TIP3    H143731   5.956   4.579   4.227
14596TIP3    H243732   6.086   4.645   4.186
14597TIP3   OH243733   6.316   7.019   3.231
14597TIP3    H143734   6.311   6.968   3.150
14597TIP3    H243735   6.410   7.028   3.248
14598TIP3   OH243736   6.432   2.015   1.694
14598TIP3    H143737   6.418   2.005   1.600
14598TIP3    H243738   6.463   2.105   1.705
14599TIP3   OH243739   4.675   7.601   6.654
14599TIP3    H143740   4.764   7.591   6.686
14599TIP3    H243741   4.621   7.551   6.715
14600TIP3   OH243742   0.626   0.060   5.633
14600TIP3    H143743   0.545   0.026   5.669
14600TIP3    H243744   0.684  -0.016   5.628
14601TIP3   OH243745   1.353   5.633   3.849
14601TIP3    H143746   1.365   5.692   3.924
14601TIP3    H243747   1.381   5.685   3.774
14602TIP3   OH243748   5.745   3.075   4.083
14602TIP3    H143749   5.738   3.128   4.163
14602TIP3    H243750   5.715   2.988   4.109
14603TIP3   OH243751   1.855   3.991   0.948
14603TIP3    H143752   1.798   3.950   0.884
14603TIP3    H243753   1.910   3.920   0.980
14604TIP3   OH243754   1.884   3.290   2.891
14604TIP3    H143755   1.906   3.376   2.855
14604TIP3    H243756   1.875   3.305   2.985
14605TIP3   OH243757   0.037   7.139   0.897
14605TIP3    H143758  -0.001   7.126   0.810
14605TIP3    H243759   0.125   7.100   0.891
14606TIP3   OH243760   7.909   6.016   0.472
14606TIP3    H143761   7.847   5.956   0.430
14606TIP3    H243762   7.854   6.073   0.526
14607TIP3   OH243763   1.055   0.104   0.950
14607TIP3    H143764   1.022   0.155   1.024
14607TIP3    H243765   1.054   0.165   0.876
14608TIP3   OH243766   0.500   2.777   2.641
14608TIP3    H143767   0.531   2.697   2.684
14608TIP3    H243768   0.562   2.844   2.667
14609TIP3   OH243769   6.880   7.751   1.420
14609TIP3    H143770   6.799   7.699   1.420
14609TIP3    H243771   6.898   7.767   1.512
14610TIP3   OH243772   7.649   3.649   1.292
14610TIP3    H143773   7.587   3.585   1.256
14610TIP3    H243774   7.650   3.720   1.228
14611TIP3   OH243775   3.586   7.574   0.260
14611TIP3    H143776   3.545   7.659   0.277
14611TIP3    H243777   3.551   7.547   0.175
14612TIP3   OH243778   0.498   6.361   1.608
14612TIP3    H143779   0.479   6.273   1.576
14612TIP3    H243780   0.470   6.360   1.700
14613TIP3   OH243781   1.718   6.333   0.229
14613TIP3    H143782   1.639   6.281   0.243
14613TIP3    H243783   1.780   6.271   0.191
14614TIP3   OH243784   0.110   2.913   0.759
14614TIP3    H143785   0.028   2.922   0.806
14614TIP3    H243786   0.086   2.870   0.677
14615TIP3   OH243787   8.163   3.985   1.958
14615TIP3    H143788   8.107   3.957   2.031
14615TIP3    H243789   8.142   4.078   1.946
14616TIP3   OH243790   7.460   3.040   3.945
14616TIP3    H143791   7.499   3.076   3.865
14616TIP3    H243792   7.508   3.082   4.016
14617TIP3   OH243793   0.364   1.237   2.790
14617TIP3    H143794   0.287   1.290   2.772
14617TIP3    H243795   0.435   1.281   2.744
14618TIP3   OH243796   4.642   5.802   5.558
14618TIP3    H143797   4.585   5.725   5.554
14618TIP3    H243798   4.655   5.818   5.651
14619TIP3   OH243799   7.692   1.707   4.314
14619TIP3    H143800   7.722   1.696   4.224
14619TIP3    H243801   7.731   1.634   4.362
14620TIP3   OH243802   0.424   5.167   1.835
14620TIP3    H143803   0.500   5.204   1.880
14620TIP3    H243804   0.461   5.112   1.766
14621TIP3   OH243805   2.114   1.541   0.829
14621TIP3    H143806   2.148   1.452   0.832
14621TIP3    H243807   2.019   1.531   0.818
14622TIP3   OH243808   7.432   0.455   0.622
14622TIP3    H143809   7.419   0.549   0.638
14622TIP3    H243810   7.500   0.451   0.555
14623TIP3   OH243811   6.270   1.531   2.482
14623TIP3    H143812   6.263   1.435   2.489
14623TIP3    H243813   6.273   1.561   2.573
14624TIP3   OH243814   8.223   3.206   4.544
14624TIP3    H143815   8.184   3.291   4.561
14624TIP3    H243816   8.317   3.221   4.550
14625TIP3   OH243817   5.431   1.657   6.418
14625TIP3    H143818   5.478   1.740   6.426
14625TIP3    H243819   5.409   1.651   6.325
14626TIP3   OH243820   7.032   0.651   3.839
14626TIP3    H143821   7.071   0.595   3.906
14626TIP3    H243822   7.085   0.636   3.761
14627TIP3   OH243823   1.260   2.295   6.041
14627TIP3    H143824   1.304   2.370   6.000
14627TIP3    H243825   1.318   2.221   6.025
14628TIP3   OH243826   5.829   0.186   2.944
14628TIP3    H143827   5.921   0.183   2.970
14628TIP3    H243828   5.802   0.095   2.938
14629TIP3   OH243829   3.488   2.086   1.287
14629TIP3    H143830   3.429   2.155   1.257
14629TIP3    H243831   3.438   2.039   1.353
14630TIP3   OH243832   3.680   4.512   4.838
14630TIP3    H143833   3.737   4.495   4.913
14630TIP3    H243834   3.594   4.529   4.877
14631TIP3   OH243835   4.682   5.582   2.956
14631TIP3    H143836   4.664   5.570   2.862
14631TIP3    H243837   4.614   5.533   3.000
14632TIP3   OH243838   2.908   5.876   4.581
14632TIP3    H143839   2.866   5.819   4.644
14632TIP3    H243840   2.979   5.823   4.543
14633TIP3   OH243841   2.699   2.638   0.115
14633TIP3    H143842   2.716   2.710   0.055
14633TIP3    H243843   2.644   2.676   0.184
14634TIP3   OH243844   7.434   6.744   4.238
14634TIP3    H143845   7.513   6.690   4.227
14634TIP3    H243846   7.438   6.806   4.166
14635TIP3   OH243847   2.665   1.938   3.960
14635TIP3    H143848   2.575   1.962   3.983
14635TIP3    H243849   2.660   1.844   3.943
14636TIP3   OH243850   7.893   0.385   3.176
14636TIP3    H143851   7.976   0.431   3.182
14636TIP3    H243852   7.827   0.454   3.183
14637TIP3   OH243853   7.981   4.020   6.330
14637TIP3    H143854   8.065   4.010   6.285
14637TIP3    H243855   7.942   4.098   6.291
14638TIP3   OH243856   4.343   4.942   4.521
14638TIP3    H143857   4.326   4.859   4.476
14638TIP3    H243858   4.439   4.947   4.526
14639TIP3   OH243859   5.382   6.548   0.157
14639TIP3    H143860   5.385   6.489   0.233
14639TIP3    H243861   5.461   6.527   0.107
14640TIP3   OH243862   3.651   0.757   1.828
14640TIP3    H143863   3.561   0.784   1.813
14640TIP3    H243864   3.692   0.833   1.869
14641TIP3   OH243865   0.256   0.348   2.010
14641TIP3    H143866   0.188   0.303   1.959
14641TIP3    H243867   0.212   0.423   2.048
14642TIP3   OH243868   0.589   7.270   0.303
14642TIP3    H143869   0.511   7.302   0.257
14642TIP3    H243870   0.646   7.347   0.309
14643TIP3   OH243871   7.684   3.786   5.117
14643TIP3    H143872   7.705   3.699   5.151
14643TIP3    H243873   7.594   3.777   5.084
14644TIP3   OH243874   6.002   6.305   2.946
14644TIP3    H143875   6.093   6.332   2.941
14644TIP3    H243876   5.981   6.274   2.858
14645TIP3   OH243877   2.527   5.917   1.534
14645TIP3    H143878   2.537   5.884   1.623
14645TIP3    H243879   2.615   5.914   1.496
14646TIP3   OH243880   6.991   1.835   6.653
14646TIP3    H143881   6.999   1.755   6.603
14646TIP3    H243882   6.944   1.809   6.733
14647TIP3   OH243883   3.955   4.112   2.077
14647TIP3    H143884   4.044   4.133   2.105
14647TIP3    H243885   3.961   4.024   2.040
14648TIP3   OH243886   2.104   1.819   0.621
14648TIP3    H143887   2.192   1.845   0.650
14648TIP3    H243888   2.048   1.838   0.697
14649TIP3   OH243889   7.316   1.857   5.600
14649TIP3    H143890   7.317   1.818   5.687
14649TIP3    H243891   7.317   1.952   5.616
14650TIP3   OH243892   1.467   7.633   1.171
14650TIP3    H143893   1.536   7.653   1.234
14650TIP3    H243894   1.450   7.716   1.126
14651TIP3   OH243895   5.595   5.541   2.125
14651TIP3    H143896   5.548   5.494   2.056
14651TIP3    H243897   5.530   5.552   2.194
14652TIP3   OH243898   4.293   4.450   6.295
14652TIP3    H143899   4.219   4.435   6.354
14652TIP3    H243900   4.312   4.544   6.304
14653TIP3   OH243901   3.884   3.902   1.630
14653TIP3    H143902   3.848   3.945   1.707
14653TIP3    H243903   3.808   3.879   1.577
14654TIP3   OH243904   7.423   6.935   2.729
14654TIP3    H143905   7.513   6.956   2.707
14654TIP3    H243906   7.392   6.880   2.657
14655TIP3   OH243907   2.546   1.794   3.231
14655TIP3    H143908   2.488   1.777   3.305
14655TIP3    H243909   2.559   1.709   3.190
14656TIP3   OH243910   4.887   0.642   5.171
14656TIP3    H143911   4.913   0.650   5.079
14656TIP3    H243912   4.951   0.581   5.208
14657TIP3   OH243913   7.936   5.614   5.536
14657TIP3    H143914   7.990   5.643   5.610
14657TIP3    H243915   7.889   5.693   5.508
14658TIP3   OH243916   7.079   7.668   0.704
14658TIP3    H143917   7.112   7.662   0.614
14658TIP3    H243918   6.987   7.691   0.694
14659TIP3   OH243919   1.006   0.337   6.466
14659TIP3    H143920   1.055   0.303   6.541
14659TIP3    H243921   1.064   0.323   6.392
14660TIP3   OH243922   7.931   1.020   2.486
14660TIP3    H143923   8.006   1.075   2.463
14660TIP3    H243924   7.860   1.082   2.505
14661TIP3   OH243925   1.680   0.790   1.922
14661TIP3    H143926   1.642   0.706   1.895
14661TIP3    H243927   1.645   0.853   1.859
14662TIP3   OH243928   2.084   7.734   3.855
14662TIP3    H143929   2.034   7.790   3.796
14662TIP3    H243930   2.120   7.666   3.798
14663TIP3   OH243931   7.914   6.940   1.787
14663TIP3    H143932   7.910   7.036   1.779
14663TIP3    H243933   8.008   6.921   1.796
14664TIP3   OH243934   6.796   3.384   1.048
14664TIP3    H143935   6.775   3.326   0.975
14664TIP3    H243936   6.712   3.425   1.070
14665TIP3   OH243937   6.594   6.666   1.382
14665TIP3    H143938   6.653   6.661   1.306
14665TIP3    H243939   6.506   6.664   1.344
14666TIP3   OH243940   1.713   6.093   5.353
14666TIP3    H143941   1.740   6.156   5.286
14666TIP3    H243942   1.723   6.140   5.436
14667TIP3   OH243943   1.797   4.586   0.408
14667TIP3    H143944   1.880   4.626   0.384
14667TIP3    H243945   1.764   4.640   0.480
14668TIP3   OH243946   3.252   6.415   4.757
14668TIP3    H143947   3.231   6.323   4.774
14668TIP3    H243948   3.196   6.439   4.682
14669TIP3   OH243949   8.165   0.146   5.058
14669TIP3    H143950   8.085   0.127   5.008
14669TIP3    H243951   8.165   0.081   5.128
14670TIP3   OH243952   0.490   6.027   6.611
14670TIP3    H143953   0.507   6.013   6.704
14670TIP3    H243954   0.567   5.991   6.567
14671TIP3   OH243955   5.629   0.943   3.569
14671TIP3    H143956   5.574   0.879   3.524
14671TIP3    H243957   5.674   0.990   3.499
14672TIP3   OH243958   7.771   3.565   3.908
14672TIP3    H143959   7.825   3.617   3.968
14672TIP3    H243960   7.711   3.518   3.966
14673TIP3   OH243961   3.643   1.610   1.624
14673TIP3    H143962   3.725   1.585   1.667
14673TIP3    H243963   3.638   1.705   1.635
14674TIP3   OH243964   7.827   4.654   4.430
14674TIP3    H143965   7.863   4.565   4.431
14674TIP3    H243966   7.897   4.708   4.393
14675TIP3   OH243967   2.548   4.569   6.429
14675TIP3    H143968   2.544   4.634   6.498
14675TIP3    H243969   2.495   4.496   6.460
14676TIP3   OH243970   8.058   7.219  -0.004
14676TIP3    H143971   8.034   7.179   0.079
14676TIP3    H243972   7.991   7.287  -0.018
14677TIP3   OH243973   7.344   0.554   5.037
14677TIP3    H143974   7.270   0.586   4.986
14677TIP3    H243975   7.308   0.483   5.091
14678TIP3   OH243976   6.606   3.328   5.342
14678TIP3    H143977   6.692   3.369   5.350
14678TIP3    H243978   6.545   3.393   5.375
14679TIP3   OH243979   3.472   2.529   2.070
14679TIP3    H143980   3.530   2.455   2.054
14679TIP3    H243981   3.461   2.531   2.165
14680TIP3   OH243982   5.293   4.162   1.754
14680TIP3    H143983   5.300   4.128   1.665
14680TIP3    H243984   5.255   4.249   1.743
14681TIP3   OH243985   5.214   1.044   2.241
14681TIP3    H143986   5.243   0.967   2.290
14681TIP3    H243987   5.248   1.118   2.291
14682TIP3   OH243988   2.771   1.711   3.541
14682TIP3    H143989   2.801   1.729   3.451
14682TIP3    H243990   2.734   1.623   3.537
14683TIP3   OH243991   3.239   3.664   2.574
14683TIP3    H143992   3.167   3.641   2.633
14683TIP3    H243993   3.267   3.750   2.603
14684TIP3   OH243994   4.506   6.594   5.700
14684TIP3    H143995   4.599   6.617   5.697
14684TIP3    H243996   4.465   6.665   5.749
14685TIP3   OH243997   8.250   7.365   2.160
14685TIP3    H143998   8.240   7.289   2.103
14685TIP3    H243999   8.335   7.353   2.201
14686TIP3   OH244000   2.411   2.121   3.520
14686TIP3    H144001   2.418   2.078   3.605
14686TIP3    H244002   2.497   2.108   3.480
14687TIP3   OH244003   2.139   6.605   5.948
14687TIP3    H144004   2.152   6.510   5.953
14687TIP3    H244005   2.205   6.635   5.885
14688TIP3   OH244006   2.248   0.678   6.598
14688TIP3    H144007   2.229   0.757   6.547
14688TIP3    H244008   2.312   0.630   6.546
14689TIP3   OH244009   1.205   2.008   1.039
14689TIP3    H144010   1.254   1.943   0.989
14689TIP3    H244011   1.209   1.977   1.130
14690TIP3   OH244012   4.675   4.256   3.635
14690TIP3    H144013   4.638   4.239   3.721
14690TIP3    H244014   4.692   4.169   3.598
14691TIP3   OH244015   1.737   5.906   5.681
14691TIP3    H144016   1.709   5.819   5.708
14691TIP3    H244017   1.690   5.965   5.740
14692TIP3   OH244018   5.103   2.002   1.538
14692TIP3    H144019   5.196   1.998   1.561
14692TIP3    H244020   5.098   1.955   1.455
14693TIP3   OH244021   2.475   0.202   4.988
14693TIP3    H144022   2.563   0.169   4.968
14693TIP3    H244023   2.420   0.123   4.992
14694TIP3   OH244024   4.794   1.324   5.232
14694TIP3    H144025   4.888   1.316   5.248
14694TIP3    H244026   4.754   1.296   5.314
14695TIP3   OH244027   4.524   3.498   0.895
14695TIP3    H144028   4.493   3.588   0.905
14695TIP3    H244029   4.610   3.507   0.854
14696TIP3   OH244030   7.832   5.380   0.055
14696TIP3    H144031   7.823   5.454  -0.005
14696TIP3    H244032   7.913   5.337   0.028
14697TIP3   OH244033   4.424   3.178   3.631
14697TIP3    H144034   4.513   3.149   3.610
14697TIP3    H244035   4.434   3.232   3.709
14698TIP3   OH244036   7.507   5.135   6.027
14698TIP3    H144037   7.429   5.189   6.041
14698TIP3    H244038   7.580   5.192   6.052
14699TIP3   OH244039   4.142   1.785   1.094
14699TIP3    H144040   4.152   1.781   0.999
14699TIP3    H244041   4.059   1.831   1.107
14700TIP3   OH244042   4.788   4.942   4.895
14700TIP3    H144043   4.829   4.927   4.810
14700TIP3    H244044   4.841   5.010   4.936
14701TIP3   OH244045   2.603   5.423   2.374
14701TIP3    H144046   2.594   5.350   2.436
14701TIP3    H244047   2.517   5.431   2.334
14702TIP3   OH244048   6.545   2.271   4.844
14702TIP3    H144049   6.625   2.321   4.860
14702TIP3    H244050   6.510   2.253   4.931
14703TIP3   OH244051   6.299   1.880   1.453
14703TIP3    H144052   6.208   1.887   1.422
14703TIP3    H244053   6.291   1.836   1.538
14704TIP3   OH244054   5.628   7.562   5.117
14704TIP3    H144055   5.547   7.547   5.068
14704TIP3    H244056   5.683   7.486   5.096
14705TIP3   OH244057   7.623   5.311   1.737
14705TIP3    H144058   7.618   5.324   1.643
14705TIP3    H244059   7.546   5.356   1.772
14706TIP3   OH244060   7.728   1.732   3.856
14706TIP3    H144061   7.719   1.654   3.801
14706TIP3    H244062   7.793   1.706   3.922
14707TIP3   OH244063   4.039   4.345   3.707
14707TIP3    H144064   4.130   4.326   3.684
14707TIP3    H244065   4.022   4.291   3.785
14708TIP3   OH244066   6.279   2.572   6.233
14708TIP3    H144067   6.278   2.478   6.250
14708TIP3    H244068   6.191   2.602   6.255
14709TIP3   OH244069   3.187   7.192   0.334
14709TIP3    H144070   3.159   7.277   0.369
14709TIP3    H244071   3.210   7.141   0.412
14710TIP3   OH244072   3.312   6.499   5.331
14710TIP3    H144073   3.259   6.451   5.267
14710TIP3    H244074   3.300   6.591   5.309
14711TIP3   OH244075   3.464   0.527   0.609
14711TIP3    H144076   3.446   0.469   0.683
14711TIP3    H244077   3.384   0.579   0.599
14712TIP3   OH244078   0.828   4.041   2.932
14712TIP3    H144079   0.850   4.107   2.997
14712TIP3    H244080   0.742   4.009   2.958
14713TIP3   OH244081   6.794   2.042   1.355
14713TIP3    H144082   6.748   2.042   1.271
14713TIP3    H244083   6.822   1.952   1.367
14714TIP3   OH244084   6.247   1.055   1.122
14714TIP3    H144085   6.338   1.079   1.133
14714TIP3    H244086   6.216   1.034   1.210
14715TIP3   OH244087   2.894   5.091   5.746
14715TIP3    H144088   2.982   5.066   5.721
14715TIP3    H244089   2.888   5.185   5.725
14716TIP3   OH244090   4.614   4.771   4.706
14716TIP3    H144091   4.636   4.727   4.788
14716TIP3    H244092   4.663   4.853   4.709
14717TIP3   OH244093   7.593   5.969   2.695
14717TIP3    H144094   7.560   5.985   2.784
14717TIP3    H244095   7.519   5.926   2.651
14718TIP3   OH244096   4.854   5.853   1.690
14718TIP3    H144097   4.949   5.861   1.684
14718TIP3    H244098   4.827   5.824   1.602
14719TIP3   OH244099   2.119   6.956   3.016
14719TIP3    H144100   2.073   6.969   2.933
14719TIP3    H244101   2.051   6.968   3.083
14720TIP3   OH244102   1.109   5.360   3.355
14720TIP3    H144103   1.188   5.368   3.407
14720TIP3    H244104   1.081   5.270   3.367
14721TIP3   OH244105   2.451   4.723   1.555
14721TIP3    H144106   2.451   4.703   1.648
14721TIP3    H244107   2.466   4.639   1.512
14722TIP3   OH244108   8.052   4.117   5.664
14722TIP3    H144109   8.140   4.094   5.691
14722TIP3    H244110   8.013   4.159   5.740
14723TIP3   OH244111   6.332   1.534   4.051
14723TIP3    H144112   6.418   1.507   4.084
14723TIP3    H244113   6.316   1.619   4.091
14724TIP3   OH244114   0.406   5.436   0.551
14724TIP3    H144115   0.442   5.379   0.620
14724TIP3    H244116   0.319   5.460   0.582
14725TIP3   OH244117   1.319   2.511   5.117
14725TIP3    H144118   1.255   2.548   5.056
14725TIP3    H244119   1.308   2.416   5.108
14726TIP3   OH244120   5.916   0.411   2.225
14726TIP3    H144121   5.919   0.333   2.169
14726TIP3    H244122   5.852   0.389   2.292
14727TIP3   OH244123   6.595   6.917   4.821
14727TIP3    H144124   6.630   6.830   4.800
14727TIP3    H244125   6.561   6.908   4.910
14728TIP3   OH244126   4.455   5.386   3.918
14728TIP3    H144127   4.370   5.343   3.913
14728TIP3    H244128   4.518   5.316   3.900
14729TIP3   OH244129   6.031   0.258   5.129
14729TIP3    H144130   6.066   0.294   5.048
14729TIP3    H244131   6.068   0.170   5.135
14730TIP3   OH244132   8.097   2.132   3.588
14730TIP3    H144133   8.023   2.193   3.582
14730TIP3    H244134   8.124   2.137   3.679
14731TIP3   OH244135   3.570   3.815   0.635
14731TIP3    H144136   3.488   3.861   0.619
14731TIP3    H244137   3.550   3.754   0.706
14732TIP3   OH244138   5.416   4.667   6.649
14732TIP3    H144139   5.442   4.592   6.703
14732TIP3    H244140   5.332   4.694   6.686
14733TIP3   OH244141   4.330   0.110   0.854
14733TIP3    H144142   4.237   0.120   0.834
14733TIP3    H244143   4.337   0.131   0.947
14734TIP3   OH244144   6.886   0.228   4.065
14734TIP3    H144145   6.861   0.319   4.080
14734TIP3    H244146   6.886   0.188   4.151
14735TIP3   OH244147   4.599   3.765   4.783
14735TIP3    H144148   4.623   3.752   4.875
14735TIP3    H244149   4.551   3.686   4.760
14736TIP3   OH244150   1.637   6.670   0.675
14736TIP3    H144151   1.628   6.580   0.645
14736TIP3    H244152   1.718   6.701   0.634
14737TIP3   OH244153   0.401   5.256   4.173
14737TIP3    H144154   0.492   5.228   4.159
14737TIP3    H244155   0.360   5.182   4.218
14738TIP3   OH244156   5.687   6.861   5.856
14738TIP3    H144157   5.645   6.937   5.897
14738TIP3    H244158   5.740   6.822   5.926
14739TIP3   OH244159   7.618   0.540   5.078
14739TIP3    H144160   7.646   0.599   5.148
14739TIP3    H244161   7.523   0.553   5.072
14740TIP3   OH244162   6.231   1.258   2.267
14740TIP3    H144163   6.163   1.297   2.321
14740TIP3    H244164   6.286   1.331   2.240
14741TIP3   OH244165   1.402   1.098   0.978
14741TIP3    H144166   1.327   1.075   0.922
14741TIP3    H244167   1.364   1.123   1.061
14742TIP3   OH244168   1.166   5.912   0.497
14742TIP3    H144169   1.132   5.998   0.524
14742TIP3    H244170   1.246   5.900   0.548
14743TIP3   OH244171   1.250   7.346   1.892
14743TIP3    H144172   1.204   7.395   1.824
14743TIP3    H244173   1.324   7.306   1.847
14744TIP3   OH244174   5.787   5.427   5.364
14744TIP3    H144175   5.759   5.509   5.405
14744TIP3    H244176   5.869   5.448   5.321
14745TIP3   OH244177   2.052   0.785   3.322
14745TIP3    H144178   2.001   0.844   3.267
14745TIP3    H244179   2.139   0.826   3.327
14746TIP3   OH244180   3.912   4.971   2.698
14746TIP3    H144181   3.951   5.053   2.669
14746TIP3    H244182   3.821   4.993   2.718
14747TIP3   OH244183   6.917   5.460   5.608
14747TIP3    H144184   6.937   5.419   5.693
14747TIP3    H244185   6.942   5.395   5.543
14748TIP3   OH244186   0.541   6.829   4.986
14748TIP3    H144187   0.469   6.880   5.024
14748TIP3    H244188   0.539   6.850   4.893
14749TIP3   OH244189   5.769   7.574   4.380
14749TIP3    H144190   5.760   7.535   4.467
14749TIP3    H244191   5.760   7.668   4.395
14750TIP3   OH244192   0.717   6.361   6.729
14750TIP3    H144193   0.625   6.371   6.703
14750TIP3    H244194   0.760   6.439   6.695
14751TIP3   OH244195   8.065   4.409   4.075
14751TIP3    H144196   8.003   4.369   4.014
14751TIP3    H244197   8.054   4.359   4.156
14752TIP3   OH244198   8.219   6.580   2.209
14752TIP3    H144199   8.241   6.673   2.200
14752TIP3    H244200   8.202   6.568   2.302
14753TIP3   OH244201   2.798   1.453   4.388
14753TIP3    H144202   2.831   1.449   4.298
14753TIP3    H244203   2.704   1.443   4.379
14754TIP3   OH244204   5.254   1.859   3.594
14754TIP3    H144205   5.226   1.865   3.503
14754TIP3    H244206   5.337   1.906   3.597
14755TIP3   OH244207   2.676   5.824   3.003
14755TIP3    H144208   2.723   5.896   3.044
14755TIP3    H244209   2.722   5.746   3.031
14756TIP3   OH244210   5.194   0.534   0.722
14756TIP3    H144211   5.171   0.625   0.740
14756TIP3    H244212   5.284   0.538   0.688
14757TIP3   OH244213   1.248   6.754   4.890
14757TIP3    H144214   1.190   6.781   4.961
14757TIP3    H244215   1.197   6.768   4.811
14758TIP3   OH244216   3.209   1.718   0.920
14758TIP3    H144217   3.301   1.741   0.926
14758TIP3    H244218   3.163   1.797   0.950
14759TIP3   OH244219   6.576   0.530   6.122
14759TIP3    H144220   6.575   0.492   6.210
14759TIP3    H244221   6.526   0.611   6.130
14760TIP3   OH244222   0.527   0.201   2.331
14760TIP3    H144223   0.445   0.231   2.370
14760TIP3    H244224   0.505   0.181   2.241
14761TIP3   OH244225   7.826   1.376   0.944
14761TIP3    H144226   7.794   1.304   0.889
14761TIP3    H244227   7.752   1.397   1.001
14762TIP3   OH244228   0.259   2.582   1.749
14762TIP3    H144229   0.342   2.627   1.765
14762TIP3    H244230   0.199   2.651   1.722
14763TIP3   OH244231   7.239   5.617   0.690
14763TIP3    H144232   7.317   5.583   0.734
14763TIP3    H244233   7.196   5.540   0.653
14764TIP3   OH244234   6.137   2.605   2.420
14764TIP3    H144235   6.198   2.596   2.493
14764TIP3    H244236   6.093   2.689   2.436
14765TIP3   OH244237   6.542   3.801   2.061
14765TIP3    H144238   6.547   3.838   1.973
14765TIP3    H244239   6.594   3.721   2.056
14766TIP3   OH244240   0.866   2.711   3.219
14766TIP3    H144241   0.792   2.771   3.213
14766TIP3    H244242   0.918   2.728   3.141
14767TIP3   OH244243   1.055   5.082   3.351
14767TIP3    H144244   1.021   5.002   3.391
14767TIP3    H244245   1.117   5.051   3.285
14768TIP3   OH244246   3.429   4.254   0.084
14768TIP3    H144247   3.470   4.255  -0.003
14768TIP3    H244248   3.486   4.308   0.138
14769TIP3   OH244249   5.626   1.321   0.317
14769TIP3    H144250   5.669   1.261   0.257
14769TIP3    H244251   5.691   1.338   0.385
14770TIP3   OH244252   6.877   2.280   6.102
14770TIP3    H144253   6.855   2.308   6.190
14770TIP3    H244254   6.902   2.360   6.056
14771TIP3   OH244255   6.666   3.167   0.452
14771TIP3    H144256   6.666   3.259   0.478
14771TIP3    H244257   6.748   3.132   0.486
14772TIP3   OH244258   6.001   4.739   5.010
14772TIP3    H144259   6.061   4.724   4.936
14772TIP3    H244260   6.053   4.719   5.087
14773TIP3   OH244261   0.756   0.110   4.116
14773TIP3    H144262   0.730   0.071   4.032
14773TIP3    H244263   0.846   0.137   4.103
14774TIP3   OH244264   1.613   0.799   6.048
14774TIP3    H144265   1.599   0.854   5.971
14774TIP3    H244266   1.640   0.860   6.116
14775TIP3   OH244267   2.737   6.251   6.235
14775TIP3    H144268   2.664   6.229   6.177
14775TIP3    H244269   2.738   6.347   6.237
14776TIP3   OH244270   0.471   4.075   5.223
14776TIP3    H144271   0.448   3.989   5.188
14776TIP3    H244272   0.388   4.114   5.248
14777TIP3   OH244273   6.881   5.434   1.540
14777TIP3    H144274   6.973   5.414   1.528
14777TIP3    H244275   6.836   5.350   1.531
14778TIP3   OH244276   2.884   0.975   1.624
14778TIP3    H144277   2.884   1.070   1.629
14778TIP3    H244278   2.796   0.950   1.653
14779TIP3   OH244279   8.002   1.599   1.427
14779TIP3    H144280   8.007   1.554   1.512
14779TIP3    H244281   8.004   1.692   1.450
14780TIP3   OH244282   7.589   6.612   3.034
14780TIP3    H144283   7.534   6.554   3.087
14780TIP3    H244284   7.527   6.664   2.983
14781TIP3   OH244285   0.166   2.850   1.033
14781TIP3    H144286   0.179   2.758   1.055
14781TIP3    H244287   0.146   2.850   0.939
14782TIP3   OH244288   2.652   3.142   3.351
14782TIP3    H144289   2.576   3.179   3.307
14782TIP3    H244290   2.722   3.206   3.335
14783TIP3   OH244291   0.123   0.043   6.510
14783TIP3    H144292   0.112   0.011   6.600
14783TIP3    H244293   0.135   0.137   6.519
14784TIP3   OH244294   4.856   5.363   0.945
14784TIP3    H144295   4.833   5.270   0.945
14784TIP3    H244296   4.830   5.394   1.031
14785TIP3   OH244297   4.985   2.343   3.908
14785TIP3    H144298   5.049   2.314   3.973
14785TIP3    H244299   4.901   2.340   3.953
14786TIP3   OH244300   6.663   1.842   1.631
14786TIP3    H144301   6.725   1.834   1.703
14786TIP3    H244302   6.645   1.935   1.625
14787TIP3   OH244303   1.646   4.668   2.295
14787TIP3    H144304   1.577   4.638   2.236
14787TIP3    H244305   1.602   4.684   2.378
14788TIP3   OH244306   2.431   2.369   5.625
14788TIP3    H144307   2.395   2.287   5.592
14788TIP3    H244308   2.474   2.409   5.549
14789TIP3   OH244309   0.982   1.137   2.687
14789TIP3    H144310   0.894   1.173   2.695
14789TIP3    H244311   0.969   1.046   2.663
14790TIP3   OH244312   0.617   1.116   2.218
14790TIP3    H144313   0.614   1.111   2.123
14790TIP3    H244314   0.707   1.092   2.241
14791TIP3   OH244315   0.934   0.513   3.175
14791TIP3    H144316   0.913   0.497   3.266
14791TIP3    H244317   0.872   0.459   3.125
14792TIP3   OH244318   0.222   3.225   0.356
14792TIP3    H144319   0.287   3.206   0.287
14792TIP3    H244320   0.271   3.274   0.421
14793TIP3   OH244321   1.621   2.034   4.750
14793TIP3    H144322   1.685   2.090   4.707
14793TIP3    H244323   1.646   2.036   4.843
14794TIP3   OH244324   3.585   5.638   0.623
14794TIP3    H144325   3.664   5.680   0.657
14794TIP3    H244326   3.544   5.598   0.699
14795TIP3   OH244327   0.135   4.054   3.371
14795TIP3    H144328   0.184   3.985   3.415
14795TIP3    H244329   0.148   4.132   3.425
14796TIP3   OH244330   0.598   7.636   2.362
14796TIP3    H144331   0.668   7.679   2.411
14796TIP3    H244332   0.626   7.545   2.355
14797TIP3   OH244333   4.579   3.383   6.742
14797TIP3    H144334   4.505   3.333   6.778
14797TIP3    H244335   4.541   3.468   6.718
14798TIP3   OH244336   4.491   7.307   3.151
14798TIP3    H144337   4.512   7.278   3.240
14798TIP3    H244338   4.427   7.243   3.120
14799TIP3   OH244339   5.830   3.328   3.949
14799TIP3    H144340   5.824   3.253   4.008
14799TIP3    H244341   5.822   3.289   3.861
14800TIP3   OH244342   3.704   5.571   3.793
14800TIP3    H144343   3.665   5.588   3.878
14800TIP3    H244344   3.682   5.481   3.773
14801TIP3   OH244345   2.839   1.446   1.467
14801TIP3    H144346   2.905   1.465   1.401
14801TIP3    H244347   2.781   1.523   1.467
14802TIP3   OH244348   4.092   2.409   2.213
14802TIP3    H144349   4.107   2.412   2.307
14802TIP3    H244350   4.022   2.473   2.198
14803TIP3   OH244351   0.718   6.627   2.555
14803TIP3    H144352   0.721   6.541   2.515
14803TIP3    H244353   0.809   6.658   2.552
14804TIP3   OH244354   5.281   2.568   0.437
14804TIP3    H144355   5.238   2.539   0.518
14804TIP3    H244356   5.244   2.512   0.369
14805TIP3   OH244357   6.275   0.126   6.255
14805TIP3    H144358   6.297   0.047   6.206
14805TIP3    H244359   6.224   0.179   6.194
14806TIP3   OH244360   0.078   6.337   1.070
14806TIP3    H144361   0.003   6.301   1.023
14806TIP3    H244362   0.085   6.284   1.149
14807TIP3   OH244363   7.292   6.984   2.967
14807TIP3    H144364   7.203   6.948   2.967
14807TIP3    H244365   7.333   6.948   2.889
14808TIP3   OH244366   5.207   5.867   5.583
14808TIP3    H144367   5.199   5.880   5.489
14808TIP3    H244368   5.140   5.802   5.604
14809TIP3   OH244369   6.697   5.461   4.585
14809TIP3    H144370   6.621   5.409   4.609
14809TIP3    H244371   6.677   5.494   4.497
14810TIP3   OH244372   0.203   5.318   1.113
14810TIP3    H144373   0.250   5.329   1.196
14810TIP3    H244374   0.244   5.241   1.073
14811TIP3   OH244375   1.080   7.100   4.804
14811TIP3    H144376   1.154   7.115   4.862
14811TIP3    H244377   1.003   7.123   4.857
14812TIP3   OH244378   4.134   2.226   4.874
14812TIP3    H144379   4.056   2.206   4.927
14812TIP3    H244380   4.172   2.140   4.856
14813TIP3   OH244381   6.785   2.250   0.704
14813TIP3    H144382   6.699   2.290   0.690
14813TIP3    H244383   6.800   2.257   0.798
14814TIP3   OH244384   4.838   0.255   2.327
14814TIP3    H144385   4.783   0.228   2.253
14814TIP3    H244386   4.874   0.173   2.361
14815TIP3   OH244387   0.645   6.346   1.342
14815TIP3    H144388   0.596   6.295   1.277
14815TIP3    H244389   0.592   6.425   1.355
14816TIP3   OH244390   5.948   2.083   2.652
14816TIP3    H144391   5.864   2.066   2.695
14816TIP3    H244392   5.978   2.166   2.689
14817TIP3   OH244393   0.799   7.155   5.622
14817TIP3    H144394   0.740   7.186   5.553
14817TIP3    H244395   0.756   7.077   5.657
14818TIP3   OH244396   3.638   2.792   3.480
14818TIP3    H144397   3.598   2.772   3.395
14818TIP3    H244398   3.660   2.707   3.516
14819TIP3   OH244399   2.492   6.692   3.790
14819TIP3    H144400   2.573   6.741   3.805
14819TIP3    H244401   2.483   6.690   3.695
14820TIP3   OH244402   0.842   2.983   0.285
14820TIP3    H144403   0.779   2.911   0.285
14820TIP3    H244404   0.798   3.053   0.335
14821TIP3   OH244405   4.331   6.885   4.345
14821TIP3    H144406   4.377   6.813   4.390
14821TIP3    H244407   4.318   6.951   4.413
14822TIP3   OH244408   2.779   4.450   4.357
14822TIP3    H144409   2.813   4.361   4.353
14822TIP3    H244410   2.731   4.461   4.275
14823TIP3   OH244411   6.776   6.257   2.831
14823TIP3    H144412   6.707   6.316   2.862
14823TIP3    H244413   6.836   6.314   2.782
14824TIP3   OH244414   8.096   1.969   4.468
14824TIP3    H144415   8.138   2.011   4.393
14824TIP3    H244416   8.007   2.004   4.469
14825TIP3   OH244417   8.257   7.152   5.238
14825TIP3    H144418   8.273   7.246   5.229
14825TIP3    H244419   8.303   7.127   5.318
14826TIP3   OH244420   5.007   1.444   2.989
14826TIP3    H144421   5.022   1.411   3.078
14826TIP3    H244422   4.997   1.539   3.000
14827TIP3   OH244423   6.658   5.044   0.846
14827TIP3    H144424   6.693   4.963   0.885
14827TIP3    H244425   6.656   5.106   0.919
14828TIP3   OH244426   3.064   0.905   3.861
14828TIP3    H144427   2.985   0.939   3.819
14828TIP3    H244428   3.130   0.973   3.845
14829TIP3   OH244429   2.707   2.251   1.787
14829TIP3    H144430   2.792   2.219   1.815
14829TIP3    H244431   2.646   2.221   1.854
14830TIP3   OH244432   1.669   0.359   3.647
14830TIP3    H144433   1.618   0.281   3.627
14830TIP3    H244434   1.612   0.432   3.621
   8.30192   7.82713   6.77849   0.00000   0.00000  -2.76730   0.00000  -2.76730  -3.91356
