Title
29212
    1ASP      N    1   0.806   2.016   4.512 -0.0079  0.3611  1.0473
    1ASP    HT1    2   0.902   2.028   4.473 -0.9769  2.6530 -0.8698
    1ASP    HT2    3   0.744   1.968   4.444 -0.9892  0.6097  1.7519
    1ASP    HT3    4   0.801   1.963   4.602 -2.0760  0.3829  0.9779
    1ASP     CA    5   0.746   2.143   4.555 -0.2215  0.4531  0.1708
    1ASP     HA    6   0.755   2.215   4.475  0.4310 -0.5715 -0.7105
    1ASP     CB    7   0.599   2.111   4.598  0.8667  0.0485 -0.2075
    1ASP    HB1    8   0.566   2.187   4.671 -0.3823 -0.0731 -0.6344
    1ASP    HB2    9   0.588   2.018   4.657 -1.7275  0.6407  0.3501
    1ASP     CG   10   0.500   2.131   4.485  0.0626 -0.5627 -0.3170
    1ASP    OD1   11   0.547   2.139   4.368 -0.4609 -0.3180 -0.2518
    1ASP    OD2   12   0.375   2.139   4.503  0.0451  0.3899 -0.1745
    1ASP      C   13   0.828   2.201   4.669  0.2089  0.1035 -0.3763
    1ASP      O   14   0.922   2.273   4.644 -0.4844  0.2607 -0.2795
    2GLY      N   15   0.800   2.170   4.796 -1.0783  0.3444  0.2946
    2GLY     HN   16   0.722   2.110   4.815 -2.1700  0.7100 -2.5466
    2GLY     CA   17   0.870   2.216   4.911 -0.3310  0.1065 -0.6152
    2GLY    HA1   18   0.970   2.187   4.885  0.0225  0.4104  0.3743
    2GLY    HA2   19   0.840   2.159   4.998 -0.5639 -0.1831 -0.8839
    2GLY      C   20   0.861   2.365   4.947 -0.2511 -0.2835 -0.1241
    2GLY      O   21   0.805   2.448   4.877 -0.3364  0.1257  0.5450
    3ASP      N   22   0.923   2.393   5.063 -0.4139 -0.8988  0.1111
    3ASP     HN   23   0.972   2.326   5.119  3.3314  1.6280  0.1795
    3ASP     CA   24   0.934   2.531   5.107  0.5648  0.6025 -0.0461
    3ASP     HA   25   0.837   2.574   5.085 -0.7550 -1.4189  1.3836
    3ASP     CB   26   0.960   2.533   5.259  0.8113 -0.3739  0.3356
    3ASP    HB1   27   1.008   2.630   5.284  1.3825 -0.5722  0.0238
    3ASP    HB2   28   1.032   2.454   5.289  0.8416 -0.7956 -0.7759
    3ASP     CG   29   0.831   2.512   5.344  0.3032 -0.1880  0.5255
    3ASP    OD1   30   0.852   2.460   5.454  0.0788  0.2973  0.3401
    3ASP    OD2   31   0.716   2.554   5.312 -0.2315 -0.2984 -0.0305
    3ASP      C   32   1.034   2.618   5.030 -0.0419  0.6789  0.8018
    3ASP      O   33   1.136   2.576   4.976  0.0184 -0.2050  0.1723
    4GLY      N   34   0.996   2.742   5.014  0.2529 -0.1627  0.0975
    4GLY     HN   35   0.905   2.763   5.050 -0.3557  1.3738 -2.1272
    4GLY     CA   36   1.080   2.849   4.951  0.2370  0.1266  0.6073
    4GLY    HA1   37   1.016   2.935   4.947 -1.6083 -1.2000  0.5555
    4GLY    HA2   38   1.124   2.819   4.856  1.0944 -0.4041  1.1510
    4GLY      C   39   1.192   2.902   5.039 -0.6245 -0.0022 -0.8727
    4GLY      O   40   1.216   2.852   5.149  0.1439  0.5148 -0.3076
    5PRO      N   41   1.270   3.001   4.985  0.6971  0.6222  0.2527
    5PRO     CD   42   1.262   3.034   4.842  0.4484  0.0135 -0.3619
    5PRO    HD1   43   1.168   3.087   4.817 -0.2718 -0.7347  0.7005
    5PRO    HD2   44   1.273   2.942   4.781  0.0445  1.1047 -2.1607
    5PRO     CA   45   1.373   3.085   5.051 -0.3370  0.3165 -0.5405
    5PRO     HA   46   1.471   3.039   5.054 -0.6894 -0.4912  2.6109
    5PRO     CB   47   1.387   3.196   4.950 -0.0779  0.8893  0.2203
    5PRO    HB1   48   1.480   3.254   4.964 -1.4251  2.6394  2.8714
    5PRO    HB2   49   1.300   3.263   4.966  0.0968  1.1885 -0.0818
    5PRO     CG   50   1.382   3.126   4.815 -0.0875  0.3325  0.5730
    5PRO    HG1   51   1.358   3.189   4.727  2.1913  1.0125  0.3749
    5PRO    HG2   52   1.473   3.064   4.800 -0.2802 -0.0777  1.0672
    5PRO      C   53   1.342   3.114   5.194 -0.6066 -0.1226 -0.1362
    5PRO      O   54   1.243   3.185   5.222 -0.0544 -0.3292  0.1073
    6GLY      N   55   1.413   3.052   5.290 -0.2282  0.0176 -0.4899
    6GLY     HN   56   1.487   2.987   5.273 -0.8860 -0.8036 -0.2284
    6GLY     CA   57   1.403   3.076   5.433  0.1504 -0.6151 -0.1449
    6GLY    HA1   58   1.471   3.008   5.482  1.1264 -0.3799 -1.1206
    6GLY    HA2   59   1.299   3.067   5.462  0.0163  2.3193  0.6154
    6GLY      C   60   1.459   3.216   5.463 -0.2148 -0.4100  0.3045
    6GLY      O   61   1.481   3.304   5.381 -0.1698 -0.1381 -0.0555
    7ASP      N   62   1.493   3.243   5.591 -0.0426 -0.2197 -0.4169
    7ASP     HN   63   1.492   3.173   5.663  0.6737  2.1336  2.0616
    7ASP     CA   64   1.545   3.374   5.636 -0.3197 -0.2875  0.4626
    7ASP     HA   65   1.515   3.451   5.566  1.9413  1.3470  1.1410
    7ASP     CB   66   1.486   3.415   5.779  0.2600 -0.5571  0.0644
    7ASP    HB1   67   1.539   3.506   5.814  1.4736 -0.9020 -0.8166
    7ASP    HB2   68   1.496   3.329   5.849 -1.6652 -1.8222 -1.1192
    7ASP     CG   69   1.334   3.437   5.771 -0.5619 -0.6465 -0.2108
    7ASP    OD1   70   1.270   3.408   5.874 -0.0666  0.0228  0.0879
    7ASP    OD2   71   1.274   3.483   5.671 -0.4386  0.2271 -0.6016
    7ASP      C   72   1.696   3.366   5.659 -0.5426  0.6258  0.2109
    7ASP      O   73   1.736   3.299   5.760  0.1616 -0.0825  0.3715
    8PRO      N   74   1.798   3.422   5.588 -0.1797  0.2039  0.4240
    8PRO     CD   75   1.772   3.495   5.458  0.4348 -0.0203  0.0263
    8PRO    HD1   76   1.713   3.588   5.474 -0.6177 -0.5574 -0.6124
    8PRO    HD2   77   1.716   3.444   5.377  1.5978 -0.4724 -0.5218
    8PRO     CA   78   1.929   3.453   5.635  0.2013 -0.1171  0.0159
    8PRO     HA   79   2.002   3.376   5.613 -1.2683 -1.3371 -0.7188
    8PRO     CB   80   1.975   3.558   5.536  0.6247 -0.4872 -0.5346
    8PRO    HB1   81   2.085   3.548   5.520  0.9163 -1.6257  1.7080
    8PRO    HB2   82   1.950   3.661   5.570 -1.2172 -1.3212  0.8302
    8PRO     CG   83   1.907   3.535   5.408 -0.4502 -0.1470 -0.2405
    8PRO    HG1   84   1.908   3.629   5.349  2.3547  0.6088  0.8600
    8PRO    HG2   85   1.962   3.465   5.342  1.5524 -0.2694  1.4432
    8PRO      C   86   1.941   3.499   5.775  0.5851  0.1749  0.2795
    8PRO      O   87   1.892   3.602   5.808 -0.1364 -0.0451  0.1882
    9GLY      N   88   2.020   3.421   5.856  0.7481 -0.1256  0.5620
    9GLY     HN   89   2.072   3.346   5.816 -1.2924 -0.8707 -0.8903
    9GLY     CA   90   2.037   3.444   5.996  0.5604  0.0147  0.4155
    9GLY    HA1   91   2.056   3.346   6.038 -0.1556 -0.8159 -1.0973
    9GLY    HA2   92   1.952   3.493   6.041  1.6438  1.2769  1.1598
    9GLY      C   93   2.149   3.532   6.042 -0.8720  1.0642 -0.1133
    9GLY      O   94   2.223   3.588   5.957 -0.4606  1.0351  0.4436
   10ASP      N   95   2.170   3.543   6.170  0.3656 -0.9556 -0.3090
   10ASP     HN   96   2.112   3.488   6.229 -2.1322  1.5302 -0.2426
   10ASP     CA   97   2.242   3.648   6.242 -0.8467 -0.4261  0.2698
   10ASP     HA   98   2.212   3.738   6.191 -0.7359  0.1619  1.2160
   10ASP     CB   99   2.207   3.653   6.398  0.2244  0.2046  0.5245
   10ASP    HB1  100   2.283   3.713   6.453  0.4077 -0.1336  0.6418
   10ASP    HB2  101   2.212   3.552   6.445  0.9132  1.2759  2.8820
   10ASP     CG  102   2.075   3.731   6.418  0.2805 -0.3540  0.4525
   10ASP    OD1  103   2.030   3.810   6.330  0.9860  0.5440 -0.7299
   10ASP    OD2  104   2.008   3.714   6.522 -0.6703  0.3674  0.5388
   10ASP      C  105   2.400   3.639   6.226  0.0926  0.0859 -0.3971
   10ASP      O  106   2.448   3.539   6.181  0.0441  0.1904  0.1061
   11GLY      N  107   2.471   3.745   6.265 -0.1237  0.8477 -0.0629
   11GLY     HN  108   2.432   3.823   6.313 -1.0001  1.3555 -1.5391
   11GLY     CA  109   2.620   3.756   6.247  0.0094  0.5976  0.6419
   11GLY    HA1  110   2.658   3.686   6.320 -1.4339 -0.6344  0.2610
   11GLY    HA2  111   2.651   3.858   6.268  0.5782  0.4182  0.6998
   11GLY      C  112   2.679   3.711   6.107  0.9583  0.1761 -0.1649
   11GLY    OT1  113   2.643   3.764   6.003  0.5831  0.1541  0.2367
   11GLY    OT2  114   2.771   3.626   6.108 -0.1550 -1.1157  0.0253
   12LIT    LIT  115   3.970   2.142   3.039 -0.8123 -0.0156 -0.7243
   13LIT    LIT  116   2.192   3.507   5.086 -0.1695  0.3242 -0.0215
   14LIT    LIT  117   6.457   3.042   5.294  1.2929 -0.3067  0.2145
   15LIT    LIT  118   7.121   4.599   3.601  0.2119 -0.9693 -0.0756
   16LIT    LIT  119   0.454   0.338   0.096  0.2963 -0.7929  0.1243
   17LIT    LIT  120   1.127   3.447   5.577  1.0249 -0.4878  0.1496
   18LIT    LIT  121   6.034   4.574   3.836  0.3594 -0.8088 -0.7142
   19LIT    LIT  122   4.287   4.442   0.223 -0.7185 -0.0927  0.8343
   20LIT    LIT  123   0.549   5.048   0.854 -0.2063  0.0367 -1.1791
   21LIT    LIT  124   2.212   5.121   5.364 -0.7392 -0.6192 -1.1656
   22LIT    LIT  125   0.452   4.628   2.587  0.1844 -0.8253  0.0097
   23LIT    LIT  126   1.850   4.189   3.279 -0.1323 -0.5196  0.3610
   24LIT    LIT  127   5.488   0.904   4.387  0.7039  0.4287 -0.5816
   25LIT    LIT  128   5.927   0.723   0.248 -0.7562 -0.2963 -0.3012
   26LIT    LIT  129   6.741   0.453   0.296 -0.2580  0.5221 -0.5665
   27LIT    LIT  130   3.269   3.723   4.841  0.2161  0.3907 -0.3745
   28LIT    LIT  131   1.619   2.225   1.457  0.0881  0.6096 -0.0831
   29LIT    LIT  132   0.197   3.725   5.256 -0.0067 -0.6864  0.1707
   30LIT    LIT  133   6.365   3.639   2.382 -0.4961 -0.1760 -0.2196
   31LIT    LIT  134   5.300   2.282   4.802 -0.4381  0.9515  0.5777
   32LIT    LIT  135   4.423   1.368   4.907 -0.9331  0.0844  0.2202
   33LIT    LIT  136   0.082   6.110   1.332 -1.0233 -0.5513 -0.8399
   34LIT    LIT  137   5.210   2.026   1.434  0.9376 -1.1602 -0.4920
   35LIT    LIT  138   5.906   5.403   3.502 -0.2377 -0.0416 -1.1016
   36LIT    LIT  139   5.212   2.574   4.378  0.1926 -0.1894 -0.5059
   37LIT    LIT  140   1.571   1.029   2.587  0.4472 -0.1613 -1.3268
   38LIT    LIT  141   6.540   5.439   2.127  0.8529  0.3304  0.8252
   39LIT    LIT  142   0.255   2.024   4.611 -0.4319 -1.1549  0.2953
   40LIT    LIT  143   5.911   3.325   3.525 -0.9025 -0.3902 -0.2087
   41LIT    LIT  144   1.952   1.675   3.325  0.1028  0.1575  0.1237
   42LIT    LIT  145   0.650   2.463   5.469  0.3407  0.6042 -0.7468
   43CLA    CLA  146   5.219   0.683   4.629  0.2332  0.2417 -0.1768
   44CLA    CLA  147   7.190   3.915   4.896  0.1525  0.1175 -0.3790
   45CLA    CLA  148   3.910   1.517   5.286  0.1110 -0.4437  0.4832
   46CLA    CLA  149   0.691   6.589   1.421  0.0249 -0.2934  0.2593
   47CLA    CLA  150   1.150   6.739   3.957 -0.2938  0.1205  0.1887
   48CLA    CLA  151   1.127   1.047   2.790 -0.3496  0.1719  0.0120
   49CLA    CLA  152   2.644   1.286   3.131  0.0069 -0.2176  0.0262
   50CLA    CLA  153   5.655   2.493   2.557  0.0088 -0.1647 -0.2122
   51CLA    CLA  154   1.430   2.628   0.745 -0.1808  0.4929  0.1917
   52CLA    CLA  155   1.595   1.888   2.832 -0.1716 -0.1043 -0.0279
   53CLA    CLA  156   1.918   5.510   1.547  0.4173  0.1702  0.0755
   54CLA    CLA  157   0.414   5.531   1.211  0.0083 -0.1144  0.0446
   55CLA    CLA  158   5.604   5.999   2.729  0.2553 -0.3316 -0.0440
   56CLA    CLA  159   4.472   2.120   0.783 -0.1380 -0.2685 -0.2012
   57CLA    CLA  160   4.374   0.955   0.881 -0.1166  0.0886 -0.4587
   58CLA    CLA  161   5.566   2.734   4.655  0.0300 -0.0286 -0.2444
   59CLA    CLA  162   3.421   5.131   0.759 -0.5235  0.0125  0.3035
   60CLA    CLA  163   2.482   2.979   5.475  0.1769 -0.1117  0.1109
   61CLA    CLA  164   6.668   2.247   5.171  0.1515 -0.1497 -0.2065
   62CLA    CLA  165   5.495   6.091   4.672  0.4497 -0.1076 -0.5780
   63CLA    CLA  166   2.413   0.376   1.312  0.4329 -0.0084 -0.4769
   64CLA    CLA  167   5.485   0.096   4.831  0.0146  0.3105  0.0050
   65CLA    CLA  168   6.421   3.773   2.188  0.1737 -0.1670  0.4703
   66CLA    CLA  169   3.879   5.275   3.129 -0.2637 -0.3939  0.0106
   67CLA    CLA  170   0.444   2.151   3.184 -0.4691 -0.2722 -0.0344
   68CLA    CLA  171   0.763   6.464   5.347 -0.0573 -0.2534  0.1577
   69CLA    CLA  172   2.461   5.120   3.487  0.0182  0.0509  0.4247
   70TIP3   OH2  173   3.473   4.100   2.719 -0.0702  0.4051  0.3012
   70TIP3    H1  174   3.556   4.147   2.710  0.4228 -0.5775 -0.5563
   70TIP3    H2  175   3.434   4.135   2.799  1.2114  0.8173  0.7729
   71TIP3   OH2  176   5.376   5.575   5.546 -0.0286 -0.5181  0.3500
   71TIP3    H1  177   5.375   5.485   5.577  2.0491 -1.7976 -2.8331
   71TIP3    H2  178   5.425   5.623   5.613 -0.6298 -1.8370  1.7923
   72TIP3   OH2  179   0.321   5.345   3.739 -0.0338  0.0036  0.2480
   72TIP3    H1  180   0.279   5.423   3.774  1.6106  1.4288 -0.7765
   72TIP3    H2  181   0.415   5.367   3.739  0.6109 -2.3975  0.9448
   73TIP3   OH2  182   0.141   2.890   2.609 -0.2254 -0.2258  0.3202
   73TIP3    H1  183   0.216   2.944   2.632 -1.0057  0.9535  0.1520
   73TIP3    H2  184   0.082   2.949   2.563 -1.4840 -1.0126  0.8766
   74TIP3   OH2  185   5.120   3.650   1.046 -0.4454  0.1358  0.9649
   74TIP3    H1  186   5.093   3.693   1.127 -0.7950  1.4046  0.2073
   74TIP3    H2  187   5.081   3.703   0.976  0.5659 -0.4101 -0.0607
   75TIP3   OH2  188   6.197   3.170   2.655  0.4244 -0.3800 -0.3005
   75TIP3    H1  189   6.255   3.099   2.628  0.5106 -0.6035  0.4419
   75TIP3    H2  190   6.159   3.139   2.738  0.4050  0.4069 -0.0052
   76TIP3   OH2  191   4.036   5.835   0.075  0.2713  0.4004  0.4377
   76TIP3    H1  192   4.090   5.914   0.080 -0.8767  1.1608  1.0794
   76TIP3    H2  193   4.100   5.763   0.072  1.3554  1.1802  2.6949
   77TIP3   OH2  194   6.894   4.699   2.437  0.5910 -0.2271  0.1537
   77TIP3    H1  195   6.942   4.676   2.517 -0.4743  1.1155  1.2228
   77TIP3    H2  196   6.954   4.755   2.388  1.2767 -1.1086 -0.0471
   78TIP3   OH2  197   4.609   2.937   1.661  0.0603  0.1587  0.2620
   78TIP3    H1  198   4.646   2.943   1.749  0.0791 -0.7084  0.3147
   78TIP3    H2  199   4.596   2.844   1.646 -0.7408  0.3519 -0.3241
   79TIP3   OH2  200   0.918   4.375   5.713 -0.4031  0.1117 -0.7164
   79TIP3    H1  201   0.876   4.448   5.757  0.6695  0.3929 -0.1360
   79TIP3    H2  202   0.907   4.301   5.772 -0.3274  0.1153 -0.6979
   80TIP3   OH2  203   2.538   1.620   5.434 -0.4821  0.5462  0.3852
   80TIP3    H1  204   2.506   1.694   5.486  0.4546  1.3849 -0.1728
   80TIP3    H2  205   2.597   1.661   5.370  0.4577 -0.7488  0.3936
   81TIP3   OH2  206   5.124   2.698   4.741 -0.1604  0.8259 -0.5510
   81TIP3    H1  207   5.185   2.727   4.674 -1.4423  1.1998 -1.5917
   81TIP3    H2  208   5.075   2.777   4.765 -0.6047  0.4324 -0.1247
   82TIP3   OH2  209   3.252   1.831   1.582  0.0135  0.1269 -0.0903
   82TIP3    H1  210   3.182   1.790   1.633 -1.0025  2.5159  0.5682
   82TIP3    H2  211   3.207   1.892   1.524  1.4653  0.5726 -0.7973
   83TIP3   OH2  212   2.612   3.100   2.493 -0.0670  0.1028 -0.2813
   83TIP3    H1  213   2.698   3.140   2.478  0.9819 -0.9115  2.3591
   83TIP3    H2  214   2.609   3.025   2.434  0.6245  0.4873 -0.8094
   84TIP3   OH2  215   6.534   2.358   2.749  0.1296 -0.2312 -0.7088
   84TIP3    H1  216   6.588   2.432   2.776 -1.5154  1.7680 -2.5422
   84TIP3    H2  217   6.481   2.338   2.827  0.7545  0.3420 -0.1184
   85TIP3   OH2  218   0.366   2.642   1.262  0.0227  0.0345  0.0587
   85TIP3    H1  219   0.276   2.663   1.287 -1.2125 -1.3707 -2.7201
   85TIP3    H2  220   0.382   2.556   1.300  0.2705  0.3242  0.6312
   86TIP3   OH2  221   2.373   6.652   1.087  0.0175  0.2947 -0.6177
   86TIP3    H1  222   2.453   6.615   1.049 -0.3020 -3.4125  1.8289
   86TIP3    H2  223   2.400   6.739   1.118  2.9055 -0.4707 -0.6370
   87TIP3   OH2  224   6.241   1.263   0.893 -0.0489  0.0978 -0.4205
   87TIP3    H1  225   6.290   1.345   0.902  0.5476 -0.3670  0.7490
   87TIP3    H2  226   6.202   1.269   0.806 -0.1226  1.6799 -0.3202
   88TIP3   OH2  227   3.926   5.101   1.606 -0.7375 -0.0320  0.8045
   88TIP3    H1  228   3.836   5.111   1.574 -0.8651 -0.6061  0.9861
   88TIP3    H2  229   3.917   5.057   1.690 -0.2646 -0.3533  0.6886
   89TIP3   OH2  230   5.380   3.625   5.473 -0.2389 -0.0208  0.2968
   89TIP3    H1  231   5.377   3.530   5.485  0.6668 -0.0667  0.2294
   89TIP3    H2  232   5.460   3.640   5.422 -0.0468  0.8243  0.8293
   90TIP3   OH2  233   4.284   5.908   5.166 -0.2685 -0.1212 -0.5218
   90TIP3    H1  234   4.315   5.908   5.256  2.9874 -1.0166 -1.4912
   90TIP3    H2  235   4.223   5.835   5.161 -0.3600 -0.1574  0.9041
   91TIP3   OH2  236   3.698   6.224   3.686 -0.2068 -0.0993  0.2058
   91TIP3    H1  237   3.608   6.208   3.714 -0.0806  0.3408  0.8943
   91TIP3    H2  238   3.731   6.290   3.748  0.1758  0.7143 -0.8256
   92TIP3   OH2  239   7.054   4.423   3.649  0.5945  0.3189  0.1805
   92TIP3    H1  240   7.007   4.367   3.588  0.1127  0.9200 -0.0181
   92TIP3    H2  241   6.991   4.441   3.720  0.5515  1.0288 -0.0251
   93TIP3   OH2  242   6.068   6.270   2.952 -0.3235  0.2581 -0.3038
   93TIP3    H1  243   6.009   6.203   2.985  0.4240 -0.0711  0.4060
   93TIP3    H2  244   6.046   6.279   2.859  0.4145 -1.9077 -0.7472
   94TIP3   OH2  245   2.210   1.974   2.159 -0.4237 -0.8322 -0.3549
   94TIP3    H1  246   2.286   1.919   2.142  0.3822  0.2361 -0.3325
   94TIP3    H2  247   2.244   2.048   2.209 -1.4403 -0.2489 -0.4892
   95TIP3   OH2  248   2.322   1.171   2.958 -0.2660  0.0703  0.0448
   95TIP3    H1  249   2.343   1.079   2.971 -0.9877 -0.7659 -3.7369
   95TIP3    H2  250   2.252   1.188   3.022  0.2483 -1.7932  1.2003
   96TIP3   OH2  251   0.472   3.867   2.497 -0.1624  0.2682 -0.0673
   96TIP3    H1  252   0.448   3.825   2.580 -0.9250  0.7304 -0.0367
   96TIP3    H2  253   0.563   3.893   2.509  0.9499 -2.9168 -0.7580
   97TIP3   OH2  254   4.507   4.342   4.399  0.3000 -0.5876  0.1088
   97TIP3    H1  255   4.471   4.396   4.470  0.5700 -0.0187 -0.1831
   97TIP3    H2  256   4.462   4.258   4.409  0.9029 -0.7772  1.4395
   98TIP3   OH2  257   6.195   1.668   1.062  0.0221 -0.2275  0.1234
   98TIP3    H1  258   6.170   1.640   0.974 -0.1565  0.5036 -0.0644
   98TIP3    H2  259   6.210   1.762   1.054 -4.1528  0.8314  1.6885
   99TIP3   OH2  260   2.168   4.623   0.064  0.2882  0.5310  0.1089
   99TIP3    H1  261   2.113   4.547   0.078  0.1580  1.0247  2.7177
   99TIP3    H2  262   2.256   4.588   0.053 -0.2071 -0.1421 -2.2565
  100TIP3   OH2  263   2.150   2.486   3.293 -0.2829  0.3326 -0.1524
  100TIP3    H1  264   2.202   2.567   3.297 -1.7508  1.3165 -0.3473
  100TIP3    H2  265   2.104   2.490   3.210  0.9809 -1.6187 -1.0186
  101TIP3   OH2  266   7.054   0.670   4.634  0.1286 -0.3052  0.0285
  101TIP3    H1  267   6.959   0.673   4.644 -0.0153  2.2206 -1.3039
  101TIP3    H2  268   7.072   0.582   4.602 -1.6978 -0.9957  0.7869
  102TIP3   OH2  269   2.047   6.605   2.158 -0.5175  0.1345  0.3026
  102TIP3    H1  270   2.013   6.521   2.126 -0.6107 -0.1692  1.1765
  102TIP3    H2  271   2.019   6.668   2.092  1.4740 -0.8138 -1.5739
  103TIP3   OH2  272   2.941   0.233   0.892  0.1853 -0.0929  0.2842
  103TIP3    H1  273   2.914   0.297   0.827 -0.8946 -1.7810 -1.0301
  103TIP3    H2  274   3.036   0.228   0.885  0.1557  0.4120 -0.5144
  104TIP3   OH2  275   6.833   0.565   5.644  0.1753  0.5434  0.0988
  104TIP3    H1  276   6.785   0.619   5.581  0.0401  0.4501  0.1217
  104TIP3    H2  277   6.880   0.501   5.590 -1.7570 -1.0315  0.1839
  105TIP3   OH2  278   4.489   6.406   4.412 -0.0753 -0.4644 -1.0086
  105TIP3    H1  279   4.522   6.353   4.340 -1.0679 -1.7312 -0.5606
  105TIP3    H2  280   4.507   6.354   4.491  1.1062  0.9470 -0.2903
  106TIP3   OH2  281   4.483   4.523   5.789 -0.3782 -0.4948  0.0063
  106TIP3    H1  282   4.528   4.439   5.795 -1.2786 -0.9653  0.4292
  106TIP3    H2  283   4.526   4.578   5.854  0.3051 -0.5845 -0.3662
  107TIP3   OH2  284   3.663   1.024   4.290  0.2074  0.3016  0.3871
  107TIP3    H1  285   3.673   0.943   4.241  1.5083  0.4598  0.3540
  107TIP3    H2  286   3.586   1.066   4.252 -0.4663 -0.8892  0.3892
  108TIP3   OH2  287   3.137   6.725   2.504  0.5121 -0.1031 -0.4908
  108TIP3    H1  288   3.068   6.659   2.502  0.9282 -0.5327 -1.4626
  108TIP3    H2  289   3.124   6.777   2.424  0.5298  0.6388 -0.0223
  109TIP3   OH2  290   0.536   5.929   5.831  0.5725  0.3775 -0.3051
  109TIP3    H1  291   0.544   5.951   5.738  0.1572 -0.6863 -0.6150
  109TIP3    H2  292   0.507   5.838   5.831  2.2310 -0.1912  0.9028
  110TIP3   OH2  293   1.872   0.793   4.504  0.4228  0.1996 -0.1448
  110TIP3    H1  294   1.889   0.722   4.441 -0.3373 -0.1749  0.0623
  110TIP3    H2  295   1.957   0.810   4.545  1.0056  0.6959 -1.5165
  111TIP3   OH2  296   4.805   1.910   5.870 -0.0805 -0.2311  0.2110
  111TIP3    H1  297   4.886   1.867   5.897  0.0676 -1.2456 -1.6959
  111TIP3    H2  298   4.736   1.855   5.907  0.1085 -0.7234 -0.1539
  112TIP3   OH2  299   1.717   4.410   4.380 -0.0115 -0.2105 -0.0395
  112TIP3    H1  300   1.696   4.378   4.292 -1.8692  0.5664  0.0842
  112TIP3    H2  301   1.644   4.381   4.435 -0.4242  1.8904  0.6003
  113TIP3   OH2  302  -0.007   6.401   3.000  0.3272  0.1873 -0.6278
  113TIP3    H1  303   0.067   6.429   3.055 -0.4224  0.3823  0.2966
  113TIP3    H2  304   0.033   6.382   2.915  1.3239  1.0752 -0.3803
  114TIP3   OH2  305   5.956   3.833   5.814  0.5310  0.5077  0.0619
  114TIP3    H1  306   5.987   3.870   5.897 -0.3332  1.8876 -0.2101
  114TIP3    H2  307   5.868   3.868   5.804 -0.1572 -1.3017 -0.4491
  115TIP3   OH2  308   0.590   6.575   3.440 -0.1216  0.0357 -0.5982
  115TIP3    H1  309   0.672   6.595   3.396  0.1716 -0.0781 -0.1134
  115TIP3    H2  310   0.615   6.523   3.516 -0.7188 -0.6675 -0.8721
  116TIP3   OH2  311   7.066   4.375   3.050  0.2321 -0.1783 -0.7417
  116TIP3    H1  312   7.020   4.422   2.980 -1.5695 -2.8796 -1.5264
  116TIP3    H2  313   7.016   4.393   3.129  0.9099  1.0114 -0.5639
  117TIP3   OH2  314   4.491   3.607   3.272 -0.0803  0.5776 -0.5238
  117TIP3    H1  315   4.405   3.571   3.251 -0.0427 -1.1931  1.9955
  117TIP3    H2  316   4.505   3.585   3.364  0.7020  5.6855  0.8821
  118TIP3   OH2  317   4.164   5.540   0.224 -0.7072  0.0661 -0.2869
  118TIP3    H1  318   4.219   5.607   0.264 -0.6487  0.7773 -1.4804
  118TIP3    H2  319   4.205   5.522   0.139 -0.8182 -1.3764 -0.0594
  119TIP3   OH2  320   4.741   3.074   3.014  0.0857  0.1409 -0.0109
  119TIP3    H1  321   4.804   3.022   2.964  1.3115  1.4373  0.1436
  119TIP3    H2  322   4.728   3.023   3.095 -1.6624 -1.7942 -1.3899
  120TIP3   OH2  323   2.291   2.484   2.719 -0.2142  0.6246 -0.1065
  120TIP3    H1  324   2.213   2.449   2.676 -1.2382  2.2342  0.3474
  120TIP3    H2  325   2.316   2.558   2.665  0.2495  0.8772  0.4533
  121TIP3   OH2  326   5.983   6.798   4.331 -0.6251 -0.0479 -0.0962
  121TIP3    H1  327   5.965   6.709   4.298  1.6534 -0.9322  0.8484
  121TIP3    H2  328   6.062   6.825   4.285 -1.0718  1.3840 -0.0794
  122TIP3   OH2  329   4.424   5.569   3.777 -0.1160  0.4485 -0.2343
  122TIP3    H1  330   4.359   5.592   3.710  0.5355 -0.0303 -1.0439
  122TIP3    H2  331   4.373   5.523   3.844 -1.0034  2.0828  0.2564
  123TIP3   OH2  332   1.737   5.239   4.685  0.2263 -0.0416 -0.4311
  123TIP3    H1  333   1.762   5.306   4.748 -0.2932  0.2837 -0.5656
  123TIP3    H2  334   1.654   5.270   4.649  0.8927  0.1723 -1.8446
  124TIP3   OH2  335   1.838   3.074   2.950  0.6270  0.0827 -0.5123
  124TIP3    H1  336   1.899   3.010   2.987 -1.0373 -0.3804  1.6386
  124TIP3    H2  337   1.837   3.055   2.856  2.9754 -0.5429 -0.4659
  125TIP3   OH2  338   0.165   5.982   4.842 -0.3313 -0.1762  0.5761
  125TIP3    H1  339   0.213   6.053   4.884  2.0280 -1.4854  0.2627
  125TIP3    H2  340   0.185   5.904   4.894 -1.0090 -1.0170 -0.3594
  126TIP3   OH2  341   6.254   4.006   3.639 -0.2334  0.5125 -0.1640
  126TIP3    H1  342   6.215   3.962   3.563  0.5084 -0.2407 -0.1243
  126TIP3    H2  343   6.281   4.092   3.605  2.8950 -0.8889 -1.6653
  127TIP3   OH2  344   2.115   5.563   3.943 -0.0616 -0.0656  0.7672
  127TIP3    H1  345   2.032   5.515   3.949 -1.1287  1.6181  0.2412
  127TIP3    H2  346   2.096   5.636   3.884  1.7838  0.4317  0.7311
  128TIP3   OH2  347   3.145   2.257   0.932 -0.3171 -0.4321  0.4561
  128TIP3    H1  348   3.221   2.286   0.882 -0.8668 -1.6356 -1.1888
  128TIP3    H2  349   3.077   2.322   0.913  0.0392  0.1622  1.2105
  129TIP3   OH2  350   3.307   1.076   2.143  0.4542  0.5521 -0.2473
  129TIP3    H1  351   3.317   1.164   2.108  0.5090  0.9057  0.6435
  129TIP3    H2  352   3.363   1.074   2.220 -2.6702  1.1092  2.2428
  130TIP3   OH2  353   3.965   5.982   5.190  0.1527  0.7426 -0.3933
  130TIP3    H1  354   4.001   5.975   5.101  0.9560  0.6886 -0.0719
  130TIP3    H2  355   3.887   6.037   5.179  0.7421  1.4966 -1.0040
  131TIP3   OH2  356   3.219   6.518   2.282 -0.4301  0.1807  0.1956
  131TIP3    H1  357   3.166   6.479   2.351 -0.0335  1.2418  1.1376
  131TIP3    H2  358   3.309   6.514   2.315 -0.3014  1.2509  0.0435
  132TIP3   OH2  359   2.605   4.536   3.310 -0.2459  0.3845 -0.2241
  132TIP3    H1  360   2.608   4.509   3.402 -0.9224 -2.4081 -0.9327
  132TIP3    H2  361   2.690   4.510   3.275 -0.3094  0.6779 -0.6087
  133TIP3   OH2  362   0.175   3.852   3.427 -0.2552  0.0862 -0.6364
  133TIP3    H1  363   0.089   3.834   3.389 -1.0932 -1.5657  1.8041
  133TIP3    H2  364   0.233   3.788   3.386 -0.9441 -1.0733  0.1531
  134TIP3   OH2  365   1.336   5.166   2.611 -0.0549  0.3006  0.2958
  134TIP3    H1  366   1.407   5.156   2.674 -0.4349  0.9187  0.8367
  134TIP3    H2  367   1.284   5.239   2.645 -0.4858  0.3883 -0.5283
  135TIP3   OH2  368   6.101   1.009   2.183 -0.0979  0.2287  0.5817
  135TIP3    H1  369   6.128   0.918   2.186 -0.8059 -0.0289 -0.4139
  135TIP3    H2  370   6.023   1.013   2.238 -1.0800 -0.1509 -0.7417
  136TIP3   OH2  371   0.141   4.913   5.315  0.3941  0.0341 -0.6793
  136TIP3    H1  372   0.183   4.972   5.253  0.2995  2.5801  1.4750
  136TIP3    H2  373   0.207   4.900   5.383  0.0499 -1.6063 -0.6266
  137TIP3   OH2  374   6.039   3.049   4.227 -0.1370  0.1034  0.3533
  137TIP3    H1  375   5.947   3.022   4.232 -0.4332  1.2478  1.3816
  137TIP3    H2  376   6.057   3.052   4.133 -0.9447 -0.7745  0.1433
  138TIP3   OH2  377   0.099   3.861   2.174  0.3309  0.4212  0.8370
  138TIP3    H1  378   0.038   3.801   2.216 -0.7074  0.9837  0.1593
  138TIP3    H2  379   0.045   3.935   2.145  0.9770  0.0771 -1.4687
  139TIP3   OH2  380   1.522   6.239   2.191  0.2157 -0.2484 -0.2600
  139TIP3    H1  381   1.430   6.266   2.186  0.3884  0.3453 -0.4121
  139TIP3    H2  382   1.540   6.197   2.107 -0.8693 -3.6405  1.0469
  140TIP3   OH2  383   5.470   3.372   0.030  0.4581  0.2035 -0.2675
  140TIP3    H1  384   5.493   3.305  -0.034 -1.1538 -0.4935 -0.1667
  140TIP3    H2  385   5.374   3.378   0.025  0.4198  1.1414  1.0767
  141TIP3   OH2  386   2.383   3.778   5.291  0.5424 -0.2478  0.1969
  141TIP3    H1  387   2.433   3.855   5.318  1.3952 -0.0175 -1.8627
  141TIP3    H2  388   2.296   3.791   5.329  0.4301  2.1343 -0.7264
  142TIP3   OH2  389   4.161   1.367   1.659 -0.0126 -0.0830  0.1116
  142TIP3    H1  390   4.240   1.316   1.678  0.7714  0.9122 -0.3295
  142TIP3    H2  391   4.155   1.367   1.564 -0.5730 -0.1862  0.1463
  143TIP3   OH2  392   3.802   3.826   1.471  0.3521 -0.2088  0.6499
  143TIP3    H1  393   3.833   3.744   1.434 -0.4491 -0.0284 -0.4643
  143TIP3    H2  394   3.762   3.802   1.554  2.4617 -0.5798  1.6313
  144TIP3   OH2  395   6.633   6.398   5.585 -0.1663 -0.0310 -0.0453
  144TIP3    H1  396   6.660   6.355   5.504 -0.1638 -0.1649  0.0248
  144TIP3    H2  397   6.664   6.339   5.654 -2.0106 -1.0393  0.0160
  145TIP3   OH2  398   2.615   2.654   3.238  0.2211 -0.5115  0.1637
  145TIP3    H1  399   2.644   2.643   3.328 -0.9149 -1.2365  0.4576
  145TIP3    H2  400   2.608   2.565   3.204  0.3200 -0.2581 -0.5401
  146TIP3   OH2  401   4.689   1.498   3.249  0.4294  0.5565 -0.0430
  146TIP3    H1  402   4.619   1.542   3.200  2.8907  2.5050 -2.1134
  146TIP3    H2  403   4.692   1.410   3.212  1.2209  1.5167 -2.4780
  147TIP3   OH2  404   7.152   4.192   4.483  0.3495 -0.1587  0.0344
  147TIP3    H1  405   7.164   4.287   4.485  0.6255 -0.1975  1.5946
  147TIP3    H2  406   7.112   4.171   4.568 -2.2528 -1.1343 -1.3312
  148TIP3   OH2  407   5.837   1.931   5.540  0.2217 -0.1005  0.0469
  148TIP3    H1  408   5.910   1.968   5.490 -0.0086 -1.2769 -1.2390
  148TIP3    H2  409   5.759   1.971   5.501  0.0548 -0.7957 -0.3406
  149TIP3   OH2  410   6.746   2.831   3.068  0.3783 -0.2132  0.8081
  149TIP3    H1  411   6.814   2.764   3.077 -0.3821 -1.0909  0.2497
  149TIP3    H2  412   6.789   2.904   3.023  0.9175 -0.8190  0.3220
  150TIP3   OH2  413   3.156   4.222   4.933  0.6277  0.0495  0.7199
  150TIP3    H1  414   3.092   4.177   4.987  0.8251 -2.0619 -0.6752
  150TIP3    H2  415   3.238   4.175   4.949  0.7990 -0.2931 -0.9326
  151TIP3   OH2  416   6.034   2.718   0.500  0.3797 -0.1747 -0.6403
  151TIP3    H1  417   5.981   2.785   0.543 -0.1739  0.0681 -1.6760
  151TIP3    H2  418   6.101   2.768   0.453  2.0503 -0.4959  1.2581
  152TIP3   OH2  419   6.245   0.366   3.480  0.5354  0.2547 -0.0476
  152TIP3    H1  420   6.233   0.271   3.484  0.6785  0.2388 -0.0113
  152TIP3    H2  421   6.310   0.380   3.412 -1.3248  0.4904 -1.8865
  153TIP3   OH2  422   6.678   0.707   4.914 -0.1450 -0.0008 -0.6415
  153TIP3    H1  423   6.678   0.799   4.886  0.5816 -0.4544 -2.2276
  153TIP3    H2  424   6.708   0.710   5.005 -3.2988  1.6033  0.5384
  154TIP3   OH2  425   2.481   5.252   3.949 -0.5542  0.6016  0.0046
  154TIP3    H1  426   2.467   5.311   3.874  1.0012  2.2388  0.9253
  154TIP3    H2  427   2.396   5.250   3.993 -0.6556  2.2112 -0.0433
  155TIP3   OH2  428   7.220   3.478   2.049 -0.1572  0.0204  0.3130
  155TIP3    H1  429   7.133   3.439   2.036 -0.5828  1.2274 -0.6310
  155TIP3    H2  430   7.209   3.535   2.126 -0.4069  0.7330 -0.2451
  156TIP3   OH2  431   5.379   6.419   5.100  0.1975  0.2084 -0.7972
  156TIP3    H1  432   5.321   6.345   5.078  0.6252  0.0586 -1.4741
  156TIP3    H2  433   5.329   6.471   5.162  0.3232 -1.2387  0.5656
  157TIP3   OH2  434   4.194   0.300   5.757  0.5094  0.4220 -0.2842
  157TIP3    H1  435   4.225   0.238   5.691  0.0794  1.0090 -1.0408
  157TIP3    H2  436   4.215   0.386   5.722  0.6893  0.7323  0.5572
  158TIP3   OH2  437   5.710   5.301   3.915 -0.5656  0.1147  0.2615
  158TIP3    H1  438   5.744   5.389   3.933 -1.3993  0.6113 -0.5206
  158TIP3    H2  439   5.756   5.245   3.977 -0.9588  1.2852  1.6804
  159TIP3   OH2  440   3.701   0.812   4.104 -0.5732  0.5881 -0.0935
  159TIP3    H1  441   3.751   0.754   4.161  0.6475  1.6997  0.0191
  159TIP3    H2  442   3.641   0.755   4.057  2.4462 -1.1769 -2.0415
  160TIP3   OH2  443   3.321   4.920   2.517 -0.5877 -0.0821 -0.1135
  160TIP3    H1  444   3.395   4.907   2.577 -1.5114 -1.0777  0.8655
  160TIP3    H2  445   3.295   5.011   2.530 -2.0243 -0.7723  2.5747
  161TIP3   OH2  446   4.475   1.029   0.371 -0.0349 -0.2293 -0.1366
  161TIP3    H1  447   4.531   1.061   0.300 -0.0977 -0.3252 -0.2317
  161TIP3    H2  448   4.409   1.098   0.382  0.0924 -0.1248 -0.0366
  162TIP3   OH2  449   1.223   5.421   5.746 -0.2612  0.0007  0.3278
  162TIP3    H1  450   1.149   5.401   5.690 -0.7672 -0.4549  1.1350
  162TIP3    H2  451   1.298   5.425   5.687 -0.8764  0.1702 -0.4563
  163TIP3   OH2  452   3.474   4.078   0.005 -0.2049 -0.6189  0.2564
  163TIP3    H1  453   3.499   4.058   0.095  0.8870 -0.8908 -0.0923
  163TIP3    H2  454   3.418   4.004  -0.020  1.5507 -1.9011 -0.0993
  164TIP3   OH2  455   0.366   0.184   3.431 -0.4962  0.5661 -0.2159
  164TIP3    H1  456   0.353   0.220   3.343 -1.1445  1.1256  0.0992
  164TIP3    H2  457   0.394   0.258   3.484 -1.6402  0.5880  0.3935
  165TIP3   OH2  458   1.289   3.219   2.079 -0.6219 -0.1419  0.6823
  165TIP3    H1  459   1.318   3.257   1.996 -1.3185 -0.4494  0.2920
  165TIP3    H2  460   1.312   3.127   2.072  1.9773  0.3135  2.0287
  166TIP3   OH2  461   2.767   5.622   4.889 -0.8358  0.1048 -0.5267
  166TIP3    H1  462   2.845   5.620   4.834 -0.6327  0.0894 -0.2367
  166TIP3    H2  463   2.694   5.624   4.826 -0.6562 -1.1778 -0.8145
  167TIP3   OH2  464   2.388   1.237   0.301 -0.4956  0.4727 -0.1641
  167TIP3    H1  465   2.415   1.262   0.389 -1.2792 -0.0268  0.2214
  167TIP3    H2  466   2.424   1.307   0.245 -0.5503  1.1460  0.6184
  168TIP3   OH2  467   6.899   5.286   1.002 -0.0144 -0.3201  0.2025
  168TIP3    H1  468   6.972   5.320   1.053  0.3691  0.0632 -0.5728
  168TIP3    H2  469   6.911   5.191   1.001  1.3838 -0.1691 -1.2111
  169TIP3   OH2  470   5.305   6.630   5.371  0.1907  0.2565  0.3475
  169TIP3    H1  471   5.287   6.585   5.454  0.6512 -1.0893 -0.2431
  169TIP3    H2  472   5.223   6.626   5.323  0.6093 -1.3916 -0.3179
  170TIP3   OH2  473   2.892   0.640   0.945  0.1487 -0.2101 -0.0618
  170TIP3    H1  474   2.972   0.690   0.932  0.2120 -0.0781  0.8147
  170TIP3    H2  475   2.867   0.657   1.036 -1.0831  0.0581 -0.4319
  171TIP3   OH2  476   5.213   4.349   0.937 -0.2213  0.2019 -0.2399
  171TIP3    H1  477   5.190   4.258   0.958  1.2856 -0.7427 -2.2884
  171TIP3    H2  478   5.309   4.349   0.935 -0.1497  2.1624  0.8611
  172TIP3   OH2  479   3.931   1.530   1.482  0.5124 -0.9266  0.0392
  172TIP3    H1  480   3.887   1.574   1.554 -1.0361  0.0926 -1.4580
  172TIP3    H2  481   3.923   1.436   1.502 -0.2377 -0.6687  0.9860
  173TIP3   OH2  482   1.848   6.444   1.956 -0.7806 -0.3825  0.2254
  173TIP3    H1  483   1.754   6.456   1.943 -1.0262 -0.2444  1.9050
  173TIP3    H2  484   1.857   6.353   1.984 -0.5888 -0.0680  1.2541
  174TIP3   OH2  485   1.282   2.669   3.571 -0.2782 -0.0162 -0.3292
  174TIP3    H1  486   1.366   2.667   3.616 -0.8664 -1.0825  0.7793
  174TIP3    H2  487   1.221   2.706   3.635 -0.9945 -0.8793 -0.4961
  175TIP3   OH2  488   2.436   1.740   0.241 -0.2568  0.2169  0.0159
  175TIP3    H1  489   2.386   1.765   0.319 -0.3190 -0.2528  0.1272
  175TIP3    H2  490   2.388   1.780   0.169 -0.3873  0.3754  0.1876
  176TIP3   OH2  491   2.621   1.033   3.782  0.5366 -0.7183 -0.0903
  176TIP3    H1  492   2.707   1.065   3.753  0.4720  2.0737  2.3799
  176TIP3    H2  493   2.558   1.089   3.737  0.1977 -0.2754  0.9127
  177TIP3   OH2  494   4.175   2.364   5.675  0.3232  0.4019  0.1230
  177TIP3    H1  495   4.232   2.287   5.676 -0.9975 -0.6045  0.8479
  177TIP3    H2  496   4.141   2.370   5.764 -2.9736 -0.8422 -0.9002
  178TIP3   OH2  497   3.910   1.576   3.333 -0.1100 -0.3147  0.4024
  178TIP3    H1  498   4.000   1.599   3.310 -0.0779 -0.3121  0.5280
  178TIP3    H2  499   3.915   1.483   3.356 -0.5258 -0.8841 -1.6323
  179TIP3   OH2  500   5.272   6.416   3.362  0.5179  0.1817  0.6546
  179TIP3    H1  501   5.323   6.362   3.423 -1.8763 -1.8975  0.9999
  179TIP3    H2  502   5.266   6.501   3.404  2.1150 -0.0603  1.4518
  180TIP3   OH2  503   5.257   1.090   4.059 -0.0723  0.3022 -0.0498
  180TIP3    H1  504   5.162   1.105   4.054 -0.2996  0.1114  2.2800
  180TIP3    H2  505   5.267   0.998   4.036 -0.6366  0.0063  0.8095
  181TIP3   OH2  506   4.062   1.833   5.002  0.0916  0.3064 -0.5944
  181TIP3    H1  507   4.029   1.753   4.960 -0.3959 -0.2639  0.8086
  181TIP3    H2  508   4.054   1.815   5.096  2.0086  1.1728 -0.2216
  182TIP3   OH2  509   0.510   0.337   1.750  0.3930 -0.1391  0.0034
  182TIP3    H1  510   0.554   0.422   1.755 -2.8222  1.6120  2.6691
  182TIP3    H2  511   0.550   0.286   1.821  0.5349  0.0981  0.0953
  183TIP3   OH2  512   4.324   3.629   3.946  0.1934  0.4332  0.0634
  183TIP3    H1  513   4.326   3.636   4.041 -0.7474  1.4437  0.0285
  183TIP3    H2  514   4.264   3.557   3.928 -0.8301  1.2210  0.2282
  184TIP3   OH2  515   1.549   2.461   2.079  0.8702 -0.1943 -0.3142
  184TIP3    H1  516   1.459   2.453   2.048  1.0290 -0.7309 -0.6525
  184TIP3    H2  517   1.601   2.411   2.015  1.1574 -1.6897  1.0176
  185TIP3   OH2  518   0.793   1.636   3.073  0.2670 -0.0677  0.0468
  185TIP3    H1  519   0.856   1.565   3.089  0.2330  0.2697  1.8895
  185TIP3    H2  520   0.827   1.680   2.994  2.2109 -0.0631  0.8266
  186TIP3   OH2  521   6.122   6.503   4.726  0.3976  0.0425 -0.2785
  186TIP3    H1  522   6.076   6.421   4.743  0.1553  0.6167  2.2204
  186TIP3    H2  523   6.052   6.569   4.723  0.8171  0.6227  1.4560
  187TIP3   OH2  524   1.309   6.428   2.050 -0.0664  0.3593  0.6441
  187TIP3    H1  525   1.263   6.389   2.124 -0.1191  1.2006  1.0768
  187TIP3    H2  526   1.259   6.401   1.973  0.8572 -1.7739  0.7419
  188TIP3   OH2  527   3.824   4.874   3.065  0.6068  0.0622  0.5950
  188TIP3    H1  528   3.784   4.826   3.137 -1.0820 -1.8229 -1.4456
  188TIP3    H2  529   3.754   4.931   3.033  0.7474 -0.4145 -0.6079
  189TIP3   OH2  530   1.646   1.432   1.011 -0.2054  0.0885 -0.1584
  189TIP3    H1  531   1.697   1.356   1.037  0.8059  0.6120 -0.5478
  189TIP3    H2  532   1.628   1.419   0.918  0.5200  0.6063 -0.3846
  190TIP3   OH2  533   0.728   5.808   5.443  0.6672  0.2038 -0.1873
  190TIP3    H1  534   0.795   5.761   5.492  0.5583  0.3739  0.1306
  190TIP3    H2  535   0.738   5.778   5.353  0.9167 -0.0596 -0.0730
  191TIP3   OH2  536   5.099   5.358   2.196 -0.1192  0.2359 -0.3474
  191TIP3    H1  537   5.061   5.437   2.158 -0.6254  0.5362  0.7369
  191TIP3    H2  538   5.189   5.382   2.217 -0.0753  0.3127 -0.6228
  192TIP3   OH2  539   5.452   5.269   1.851  0.0577  0.1471  0.3152
  192TIP3    H1  540   5.501   5.202   1.803 -1.0192 -0.5718  0.1909
  192TIP3    H2  541   5.392   5.306   1.787  0.7576  1.3848  0.3357
  193TIP3   OH2  542   6.423   4.956   5.769  0.1270 -0.1037  0.8122
  193TIP3    H1  543   6.407   4.902   5.692  1.4513  0.0065  0.4448
  193TIP3    H2  544   6.399   4.900   5.843 -0.9836 -0.2670  0.3555
  194TIP3   OH2  545   3.729   1.219   1.125 -0.3498  0.2543 -0.3834
  194TIP3    H1  546   3.815   1.258   1.134  0.3294 -1.2295 -0.0715
  194TIP3    H2  547   3.679   1.251   1.199 -0.7039  2.5810 -1.5350
  195TIP3   OH2  548   1.797   0.648   5.223 -0.7662  0.6562 -0.0997
  195TIP3    H1  549   1.875   0.597   5.242  0.4370  2.1205 -0.8422
  195TIP3    H2  550   1.747   0.595   5.161 -0.2773 -0.2266  0.2492
  196TIP3   OH2  551   2.883   4.909   4.075 -0.3143 -0.4584 -0.5579
  196TIP3    H1  552   2.880   4.814   4.084 -1.0789 -0.7003 -2.7019
  196TIP3    H2  553   2.956   4.936   4.130  0.3593 -2.3585 -0.4359
  197TIP3   OH2  554   5.335   4.722   5.490 -0.2003  0.9166  0.4040
  197TIP3    H1  555   5.254   4.697   5.535  0.8498  0.6802  2.2725
  197TIP3    H2  556   5.366   4.798   5.539  1.5110  0.0418  0.7575
  198TIP3   OH2  557   6.093   6.077   5.824  0.1386 -0.4438  0.2271
  198TIP3    H1  558   6.175   6.104   5.784  0.9439  1.2849  2.7609
  198TIP3    H2  559   6.025   6.127   5.779  0.6987 -0.4595 -0.6398
  199TIP3   OH2  560   3.608   4.117   5.358 -0.1020 -0.0890  0.3621
  199TIP3    H1  561   3.648   4.124   5.271 -0.7469  2.2417  0.1805
  199TIP3    H2  562   3.651   4.041   5.397  2.0267  0.2526 -1.0830
  200TIP3   OH2  563   3.620   3.142   3.645  0.4795 -0.3918 -0.0773
  200TIP3    H1  564   3.619   3.047   3.636 -0.3712 -0.5996  1.7874
  200TIP3    H2  565   3.530   3.169   3.627  0.6436  0.0252 -0.2892
  201TIP3   OH2  566   3.867   5.621   3.221 -0.7978 -0.6067 -0.2951
  201TIP3    H1  567   3.886   5.546   3.165 -1.3551  0.5722 -2.1479
  201TIP3    H2  568   3.780   5.651   3.193 -0.5155  0.8341  0.2846
  202TIP3   OH2  569   4.843   4.641   2.722 -0.8210  0.2279 -0.1357
  202TIP3    H1  570   4.860   4.550   2.746 -2.0406  0.6302  2.6854
  202TIP3    H2  571   4.752   4.643   2.695 -1.3218  0.8079  1.4539
  203TIP3   OH2  572   3.084   1.684   4.704  0.8455 -0.4333 -0.3094
  203TIP3    H1  573   3.106   1.658   4.615  0.2188 -1.9621 -0.0378
  203TIP3    H2  574   3.167   1.712   4.742  1.2686 -0.5954 -1.0922
  204TIP3   OH2  575   6.719   0.296   2.487 -0.7053  0.3282  0.2438
  204TIP3    H1  576   6.629   0.325   2.498 -0.8382  0.2520 -0.6108
  204TIP3    H2  577   6.769   0.377   2.476 -0.6916  0.3613  0.5422
  205TIP3   OH2  578   4.618   5.368   1.875  0.1278  0.0524 -0.2273
  205TIP3    H1  579   4.620   5.278   1.842 -0.8260  0.1530 -0.5916
  205TIP3    H2  580   4.534   5.376   1.919  0.1386  0.8195 -0.3280
  206TIP3   OH2  581   6.452   1.974   5.566 -0.4245  0.5470 -0.4362
  206TIP3    H1  582   6.526   1.914   5.561 -0.5202  0.3035  0.8591
  206TIP3    H2  583   6.475   2.046   5.508  0.3660 -0.0116 -0.8271
  207TIP3   OH2  584   3.096   3.402   4.540  0.2234 -0.3659  0.1759
  207TIP3    H1  585   3.052   3.319   4.521  0.1307 -0.7167  1.7411
  207TIP3    H2  586   3.043   3.467   4.495 -0.7086 -0.9956  0.3193
  208TIP3   OH2  587   4.984   1.888   2.463 -0.7609  0.1755  0.0858
  208TIP3    H1  588   4.953   1.869   2.552 -0.6613 -0.1924  0.0448
  208TIP3    H2  589   5.080   1.890   2.471 -0.7585  0.3116  0.0202
  209TIP3   OH2  590   0.631   5.403   0.624 -0.0340 -0.4391  0.5926
  209TIP3    H1  591   0.664   5.348   0.553 -2.4072  0.8558 -1.6849
  209TIP3    H2  592   0.633   5.492   0.589 -1.1959  0.2674  2.1708
  210TIP3   OH2  593   5.869   6.734   5.082 -0.2733  0.2075  0.2452
  210TIP3    H1  594   5.949   6.703   5.124 -0.2762  0.0278  0.1192
  210TIP3    H2  595   5.813   6.656   5.078  0.1828 -0.0792 -1.1826
  211TIP3   OH2  596   5.275   4.863   2.236 -0.6496 -0.3492  0.0312
  211TIP3    H1  597   5.275   4.830   2.146  1.3021  0.8563 -0.4880
  211TIP3    H2  598   5.240   4.951   2.229 -1.8748 -0.7704  0.7140
  212TIP3   OH2  599   6.365   5.952   4.134 -0.2385  0.4006 -0.6509
  212TIP3    H1  600   6.401   5.942   4.222  0.9796 -0.3741 -1.1985
  212TIP3    H2  601   6.403   6.034   4.102 -0.1848  0.3717 -0.6628
  213TIP3   OH2  602   0.230   1.065   0.532 -0.2631 -0.6337 -0.0872
  213TIP3    H1  603   0.213   1.006   0.459 -0.5206  0.5256 -1.0045
  213TIP3    H2  604   0.154   1.056   0.589 -0.9294 -0.2473 -0.8818
  214TIP3   OH2  605   4.541  -0.016   1.704 -0.8234  0.2855  0.0810
  214TIP3    H1  606   4.544   0.077   1.726  0.6871  0.3760 -0.3595
  214TIP3    H2  607   4.469  -0.024   1.642 -0.3486  1.3642 -0.6408
  215TIP3   OH2  608   3.387   2.779   2.302  0.3134  0.4840 -0.1903
  215TIP3    H1  609   3.450   2.846   2.327  0.2898  0.1300  0.8812
  215TIP3    H2  610   3.440   2.702   2.282  0.2768  0.4862 -0.2984
  216TIP3   OH2  611   0.799   0.408   1.535 -0.2166  0.7142 -0.4688
  216TIP3    H1  612   0.774   0.420   1.443 -0.5616  1.9082 -0.2334
  216TIP3    H2  613   0.793   0.314   1.550 -1.0426  0.6066 -1.4182
  217TIP3   OH2  614   6.380   0.333   2.093  0.5490  0.3324 -0.1707
  217TIP3    H1  615   6.330   0.339   2.174  1.2886  0.8028  0.2583
  217TIP3    H2  616   6.450   0.270   2.113 -1.6716 -2.9234 -1.7417
  218TIP3   OH2  617   1.523   6.367   0.940  0.4449 -0.5583  0.1420
  218TIP3    H1  618   1.575   6.392   0.864  1.2061 -2.0561  0.1424
  218TIP3    H2  619   1.584   6.374   1.014  0.0684 -0.3725  0.4404
  219TIP3   OH2  620   5.193   5.107   1.780 -0.1569  0.3812 -0.3657
  219TIP3    H1  621   5.104   5.132   1.756  0.4360  1.6975 -1.2997
  219TIP3    H2  622   5.239   5.191   1.790  1.5423 -0.2630 -2.1560
  220TIP3   OH2  623   0.069   4.813   2.377  0.4628 -0.5418 -0.0586
  220TIP3    H1  624  -0.015   4.826   2.334  0.3956 -0.4621  0.0971
  220TIP3    H2  625   0.079   4.889   2.433 -0.0027 -1.2178  0.9686
  221TIP3   OH2  626   5.792   1.112   4.578  0.2176  0.0036  0.1992
  221TIP3    H1  627   5.742   1.187   4.545  2.4448  1.2762 -0.4858
  221TIP3    H2  628   5.821   1.139   4.665  0.4710 -0.3290  0.2192
  222TIP3   OH2  629   4.597   1.065   0.632 -0.1936 -0.1572 -0.0213
  222TIP3    H1  630   4.515   1.046   0.677 -2.5008  0.7761 -3.3852
  222TIP3    H2  631   4.585   1.028   0.544  2.5782  0.9158 -0.9651
  223TIP3   OH2  632   7.128   4.276   3.906  0.0056 -0.0926 -0.0993
  223TIP3    H1  633   7.087   4.260   3.820  0.1820  2.2880 -0.6811
  223TIP3    H2  634   7.056   4.271   3.968 -0.7788  1.5146 -0.8211
  224TIP3   OH2  635   5.080   6.089   4.444  0.0316 -0.3406 -0.6344
  224TIP3    H1  636   5.088   6.160   4.380  1.4398 -0.9840 -1.2016
  224TIP3    H2  637   4.999   6.044   4.419  0.1044 -0.0550 -1.4093
  225TIP3   OH2  638   2.309   6.345   2.605  0.1519  0.1066  0.0504
  225TIP3    H1  639   2.255   6.269   2.584 -0.3877  0.8726 -1.5072
  225TIP3    H2  640   2.247   6.419   2.605  1.0136  0.8443 -0.6507
  226TIP3   OH2  641   3.989   3.893   3.763  0.2092 -0.0190  0.4872
  226TIP3    H1  642   4.059   3.904   3.828  0.2842 -0.4001  0.4720
  226TIP3    H2  643   3.912   3.930   3.805  0.2892 -0.1347  0.7401
  227TIP3   OH2  644   4.271   6.249   5.850 -0.2105  0.2816 -0.0376
  227TIP3    H1  645   4.240   6.196   5.923  0.8163 -0.4926 -0.1367
  227TIP3    H2  646   4.209   6.231   5.779 -0.4976  0.0650  0.2688
  228TIP3   OH2  647   3.274   0.264   2.853 -0.0315  0.2672  0.3351
  228TIP3    H1  648   3.246   0.173   2.857  0.3140  0.2025  1.7813
  228TIP3    H2  649   3.192   0.314   2.844 -0.4479 -0.0755  1.8359
  229TIP3   OH2  650   1.155   4.940   3.529  0.1839  0.0579  0.1393
  229TIP3    H1  651   1.160   4.857   3.481  1.1841 -0.0698  0.4326
  229TIP3    H2  652   1.246   4.970   3.533 -0.1622  1.1378  0.0942
  230TIP3   OH2  653   5.951   1.998   3.629  0.1647  0.0397 -0.5379
  230TIP3    H1  654   5.963   2.089   3.603  0.5019  0.2883  0.4366
  230TIP3    H2  655   6.006   1.948   3.569  0.5421  0.5426 -0.6113
  231TIP3   OH2  656   3.071   0.550   3.246 -0.2498 -0.3071  0.0800
  231TIP3    H1  657   2.978   0.573   3.257 -0.5531 -1.5231  0.2263
  231TIP3    H2  658   3.103   0.538   3.336 -0.4340 -1.6499 -0.0153
  232TIP3   OH2  659   7.039   4.105   5.084 -0.1795  0.3889 -0.6540
  232TIP3    H1  660   7.119   4.087   5.036  1.2605  0.6565  1.5005
  232TIP3    H2  661   6.997   4.019   5.093 -0.4346  0.3216 -2.2118
  233TIP3   OH2  662   3.955   4.543   4.584  0.0923  0.0565 -0.1073
  233TIP3    H1  663   3.974   4.631   4.550 -0.1369  0.8801  1.7595
  233TIP3    H2  664   3.922   4.558   4.672 -1.5744 -1.8326 -0.3477
  234TIP3   OH2  665   4.367   4.330   1.319 -0.0274  0.0875  1.3039
  234TIP3    H1  666   4.343   4.262   1.255 -1.0333  1.0761  0.5794
  234TIP3    H2  667   4.449   4.367   1.286  0.0570 -0.1748  1.2186
  235TIP3   OH2  668   3.505   3.229   3.951 -0.1263  0.1032 -0.1302
  235TIP3    H1  669   3.482   3.264   4.037  0.2496  1.1375 -0.4358
  235TIP3    H2  670   3.459   3.145   3.946 -1.0696  0.5573  0.6260
  236TIP3   OH2  671   3.823   1.603   3.974  0.0774  0.4402  0.0927
  236TIP3    H1  672   3.808   1.688   3.933  0.5918  0.6143  0.2517
  236TIP3    H2  673   3.879   1.557   3.912 -1.3224 -0.3145 -0.6413
  237TIP3   OH2  674   2.305   3.700   3.087 -0.4017 -0.6128  0.2741
  237TIP3    H1  675   2.315   3.613   3.127  2.5690  1.1743  4.0913
  237TIP3    H2  676   2.385   3.746   3.109 -1.9744  3.3003 -1.2267
  238TIP3   OH2  677   4.627   6.796   5.710 -0.0022  0.6486  0.3549
  238TIP3    H1  678   4.686   6.788   5.636  0.6191  0.4821  0.8560
  238TIP3    H2  679   4.576   6.715   5.709  1.3877 -0.2814  1.2617
  239TIP3   OH2  680   1.232   2.748   5.406 -0.3763 -0.5479 -0.3687
  239TIP3    H1  681   1.324   2.727   5.395 -0.2142  1.1883 -4.1826
  239TIP3    H2  682   1.207   2.789   5.323 -4.2334  0.3801  1.0215
  240TIP3   OH2  683   3.045   6.249   3.036 -0.2251  0.1254  0.0810
  240TIP3    H1  684   2.983   6.177   3.050 -0.8494  0.9409  1.9073
  240TIP3    H2  685   3.085   6.231   2.951  0.5765 -3.0657  0.9993
  241TIP3   OH2  686   2.984   3.947   2.550 -0.3604 -0.0218 -0.0804
  241TIP3    H1  687   2.964   4.018   2.611 -0.6747 -0.5610  0.4649
  241TIP3    H2  688   3.074   3.962   2.522 -0.2700  0.3284  0.3962
  242TIP3   OH2  689   5.765   3.615   3.319 -0.4429  0.0044  0.8296
  242TIP3    H1  690   5.690   3.565   3.354 -1.0834  1.0660  1.0177
  242TIP3    H2  691   5.725   3.683   3.265  0.4965 -1.1502 -1.4503
  243TIP3   OH2  692   0.767   2.396   2.251 -0.1926  0.1075  0.2774
  243TIP3    H1  693   0.820   2.371   2.175 -0.5462  1.2100 -0.3521
  243TIP3    H2  694   0.820   2.372   2.326  0.8177  0.3548 -0.3358
  244TIP3   OH2  695   7.059   2.912   4.543 -0.7697 -0.4640 -0.0984
  244TIP3    H1  696   7.079   2.907   4.450 -0.1284 -0.5473  0.0418
  244TIP3    H2  697   7.020   2.827   4.564  0.1744 -0.8923 -0.0408
  245TIP3   OH2  698   4.113   6.760   0.902  0.3027  0.3952 -0.0109
  245TIP3    H1  699   4.048   6.739   0.836 -0.0953 -0.2187  0.5710
  245TIP3    H2  700   4.132   6.853   0.888  2.6732 -0.3673 -3.1326
  246TIP3   OH2  701   4.507   0.116   5.663 -0.2536  0.5742 -0.0231
  246TIP3    H1  702   4.556   0.142   5.741 -2.3669  0.6635  1.3618
  246TIP3    H2  703   4.514   0.020   5.662  0.5328  0.6290 -0.2634
  247TIP3   OH2  704   6.914   6.415   0.307  0.2652 -0.2260  0.8457
  247TIP3    H1  705   6.915   6.321   0.287 -1.3313 -0.0372 -0.3615
  247TIP3    H2  706   6.933   6.457   0.223 -1.5815  0.5411  0.7672
  248TIP3   OH2  707   2.550   2.519   0.327  0.0473 -0.5303  0.0958
  248TIP3    H1  708   2.540   2.432   0.289  1.1972 -1.2400  1.3648
  248TIP3    H2  709   2.471   2.531   0.381 -1.3161  0.2562 -1.9372
  249TIP3   OH2  710   2.318   0.075   1.023  0.2852 -0.3788  0.6454
  249TIP3    H1  711   2.302   0.084   0.930 -0.0096  0.3561  0.7632
  249TIP3    H2  712   2.367   0.154   1.047 -1.1706  0.3347  1.4446
  250TIP3   OH2  713   1.370   3.321   3.765  0.0783  0.0053  0.1299
  250TIP3    H1  714   1.312   3.273   3.824 -0.0587 -1.7567 -1.3463
  250TIP3    H2  715   1.447   3.265   3.755  0.3092  0.4787 -0.9501
  251TIP3   OH2  716   0.438   4.980   4.425  0.1978 -0.4920 -0.0174
  251TIP3    H1  717   0.516   5.003   4.475 -1.1245  2.3795  0.9769
  251TIP3    H2  718   0.387   4.925   4.485  0.6966 -1.0117 -0.0572
  252TIP3   OH2  719   2.155   6.378   3.689  0.3122  0.0572 -0.2604
  252TIP3    H1  720   2.236   6.427   3.701  1.0912 -1.4275  0.9179
  252TIP3    H2  721   2.164   6.339   3.602  1.2382 -0.6994  0.1505
  253TIP3   OH2  722   4.914   6.776   5.237  0.0582 -0.1664  0.5893
  253TIP3    H1  723   4.891   6.755   5.328 -0.3312 -0.7676  0.3540
  253TIP3    H2  724   4.849   6.841   5.210 -0.4300 -0.7040  0.4354
  254TIP3   OH2  725   6.836   4.725   4.132  0.0482  0.3623 -0.5208
  254TIP3    H1  726   6.814   4.715   4.039  1.7690 -0.8872 -0.8527
  254TIP3    H2  727   6.862   4.817   4.140 -1.3949  0.8363 -0.9481
  255TIP3   OH2  728   3.572   1.440   5.706  0.6622 -0.0624 -0.2148
  255TIP3    H1  729   3.591   1.413   5.617  2.4839 -3.0712  0.9193
  255TIP3    H2  730   3.657   1.470   5.741  0.0544  0.7637  0.6191
  256TIP3   OH2  731   3.104   4.191   3.519 -0.4856  0.5672 -0.0802
  256TIP3    H1  732   3.155   4.273   3.521 -0.9986  0.9275 -1.0639
  256TIP3    H2  733   3.101   4.167   3.426  1.3429 -1.6690  0.3561
  257TIP3   OH2  734   6.932   4.147   3.744 -0.1627  0.2155 -0.0737
  257TIP3    H1  735   6.955   4.055   3.758 -1.2123  0.3382  3.3661
  257TIP3    H2  736   6.841   4.145   3.716 -0.4380  0.2021  0.7962
  258TIP3   OH2  737   3.236   1.259   5.871  0.2331  0.5490  1.2520
  258TIP3    H1  738   3.257   1.271   5.963 -0.3519  1.6623  1.2542
  258TIP3    H2  739   3.215   1.347   5.839  1.6675  0.3994 -0.2533
  259TIP3   OH2  740   1.221   2.071   2.605 -0.9860 -0.2843  0.1676
  259TIP3    H1  741   1.243   2.157   2.640  0.7431 -0.9559  0.8403
  259TIP3    H2  742   1.168   2.029   2.674  1.6715 -1.2713  1.7592
  260TIP3   OH2  743   6.244   1.927   0.748 -0.6844  0.0523  0.1382
  260TIP3    H1  744   6.208   2.009   0.713 -0.2135  0.4947  0.6620
  260TIP3    H2  745   6.173   1.893   0.803 -1.0659 -0.1512 -0.4724
  261TIP3   OH2  746   4.056   1.029   3.331  0.1076  0.8118  0.1784
  261TIP3    H1  747   4.017   1.113   3.355 -0.8433  0.5755 -0.4547
  261TIP3    H2  748   3.999   0.963   3.370  0.0719  0.4563 -0.4518
  262TIP3   OH2  749   0.141   6.309   2.435  0.0796 -0.4145 -0.0490
  262TIP3    H1  750   0.234   6.318   2.412  0.1801 -1.4352 -0.0747
  262TIP3    H2  751   0.118   6.394   2.474  1.2297 -0.3926  0.6412
  263TIP3   OH2  752   5.054   2.733   5.587  0.0554 -0.1320 -0.5114
  263TIP3    H1  753   5.039   2.641   5.609  1.2583 -0.0827  0.6254
  263TIP3    H2  754   5.126   2.731   5.524  1.9495  0.1165  1.5268
  264TIP3   OH2  755   6.135   5.621   5.299 -0.3404  0.2263 -0.6771
  264TIP3    H1  756   6.148   5.550   5.361 -0.8975  0.0684 -0.7352
  264TIP3    H2  757   6.101   5.694   5.351  1.3211  0.8673 -0.4044
  265TIP3   OH2  758   5.889   1.175   4.836  0.3875 -0.0110  0.2753
  265TIP3    H1  759   5.939   1.105   4.878  0.3641 -0.2649 -0.1170
  265TIP3    H2  760   5.814   1.189   4.893 -0.7920 -1.8254 -0.7461
  266TIP3   OH2  761   4.311   1.845   4.091  0.1755  0.4560  0.1813
  266TIP3    H1  762   4.345   1.764   4.129  1.0334  0.9772  0.5325
  266TIP3    H2  763   4.279   1.819   4.005  1.2905 -0.0861 -0.0833
  267TIP3   OH2  764   0.107   2.879   1.223 -0.5385 -0.7831 -0.2349
  267TIP3    H1  765   0.071   2.790   1.221 -0.1730 -0.9403  0.0969
  267TIP3    H2  766   0.061   2.922   1.295 -1.6820 -0.2799 -1.2325
  268TIP3   OH2  767   6.450   6.332   5.085  0.6293 -0.2290 -0.0504
  268TIP3    H1  768   6.423   6.369   5.001 -0.0327 -1.8285 -0.5793
  268TIP3    H2  769   6.428   6.239   5.078 -0.0865 -0.2679  2.1754
  269TIP3   OH2  770   0.980   6.534   0.085 -0.1413  0.4254 -0.1961
  269TIP3    H1  771   0.893   6.540   0.126 -0.0051  1.6046 -0.0345
  269TIP3    H2  772   1.027   6.470   0.138 -0.1168  1.5755  1.2526
  270TIP3   OH2  773   5.205   2.929   1.184  0.1426 -0.2051 -0.0801
  270TIP3    H1  774   5.245   2.897   1.103  0.9946 -0.2417  0.3417
  270TIP3    H2  775   5.179   3.019   1.164  0.4537 -0.1746 -0.3610
  271TIP3   OH2  776   5.699   3.508   4.863 -0.1531  0.3157  0.1321
  271TIP3    H1  777   5.695   3.412   4.866 -0.6101  0.3510  1.6340
  271TIP3    H2  778   5.734   3.533   4.949 -2.2916  1.5664  0.7081
  272TIP3   OH2  779   5.941   1.898   2.490  0.4360  0.6864 -0.2109
  272TIP3    H1  780   5.946   1.953   2.569  2.7676 -0.1520  0.3212
  272TIP3    H2  781   5.854   1.858   2.494 -0.3169  2.3105  0.7567
  273TIP3   OH2  782   6.457   1.963   2.818 -0.7706  0.3601  0.3277
  273TIP3    H1  783   6.409   1.951   2.736 -2.1048  0.1592  1.1055
  273TIP3    H2  784   6.426   1.892   2.874 -0.2495  0.7910  1.1724
  274TIP3   OH2  785   4.695   1.656   0.868 -0.3338 -0.2491 -0.1120
  274TIP3    H1  786   4.712   1.669   0.775 -2.6068  0.9097 -0.4303
  274TIP3    H2  787   4.680   1.745   0.902  0.8821 -0.6000  1.4991
  275TIP3   OH2  788   3.500   4.995   1.274 -0.1708  0.6069 -0.4942
  275TIP3    H1  789   3.490   4.900   1.277 -3.4002  0.8498  1.7951
  275TIP3    H2  790   3.586   5.009   1.235  1.1928 -3.2763  0.7003
  276TIP3   OH2  791   6.259   5.481   5.732  0.0816 -0.2017  0.4788
  276TIP3    H1  792   6.207   5.427   5.791  0.0052 -0.0990  0.5069
  276TIP3    H2  793   6.282   5.558   5.784  0.7863 -0.5299  0.6613
  277TIP3   OH2  794   3.325   3.273   4.550 -0.0440  0.5416 -0.1704
  277TIP3    H1  795   3.381   3.328   4.495 -0.3705  0.4564 -0.5980
  277TIP3    H2  796   3.240   3.316   4.548 -0.1227  0.3958  0.0621
  278TIP3   OH2  797   1.868   2.211   3.001  0.0963  0.2544 -0.1606
  278TIP3    H1  798   1.941   2.257   2.959 -1.3056  1.6074 -1.2285
  278TIP3    H2  799   1.837   2.150   2.935 -0.7523  0.8569 -0.3371
  279TIP3   OH2  800   0.518   2.429   4.865  0.3550  0.0397 -0.1455
  279TIP3    H1  801   0.610   2.419   4.842  0.3782 -1.1436  0.3843
  279TIP3    H2  802   0.518   2.493   4.936  0.9033 -0.7304  0.5773
  280TIP3   OH2  803   3.250   2.430   5.068  0.3367 -0.5149 -0.5803
  280TIP3    H1  804   3.264   2.411   5.160  1.7391 -0.8205 -0.8404
  280TIP3    H2  805   3.162   2.397   5.050  1.2389 -3.4674 -0.1066
  281TIP3   OH2  806   5.813   3.356   2.731  0.0687  0.1294  0.1348
  281TIP3    H1  807   5.794   3.383   2.821 -0.1773 -0.1532  0.1717
  281TIP3    H2  808   5.766   3.273   2.721  0.9489 -0.3746  0.0810
  282TIP3   OH2  809   1.717   2.290   0.427  0.0724 -0.2479 -0.3177
  282TIP3    H1  810   1.760   2.210   0.395 -0.8517 -0.1867 -1.7969
  282TIP3    H2  811   1.626   2.264   0.441 -0.2738  0.5717 -0.9679
  283TIP3   OH2  812   0.468   2.931   5.057  0.1310  0.2174  0.0864
  283TIP3    H1  813   0.499   2.992   4.990  0.4445 -0.4142 -0.3596
  283TIP3    H2  814   0.419   2.865   5.009  0.1610 -0.1188  0.5080
  284TIP3   OH2  815   5.801   0.037   0.988  0.7240  0.0627 -0.6387
  284TIP3    H1  816   5.837   0.011   0.904  1.3995  0.5176 -0.4992
  284TIP3    H2  817   5.727   0.094   0.965  2.3733  2.2175 -0.9819
  285TIP3   OH2  818   0.871  -0.003   2.880  0.3640 -0.3336  0.2864
  285TIP3    H1  819   0.956   0.037   2.901  0.5657 -0.2915 -0.5631
  285TIP3    H2  820   0.811   0.034   2.944  0.8896  0.0393  0.5740
  286TIP3   OH2  821   5.479   0.689   2.923  0.3078 -0.4254 -0.3502
  286TIP3    H1  822   5.451   0.608   2.964 -1.5894  0.9720  1.3147
  286TIP3    H2  823   5.571   0.675   2.901  0.0515 -2.9640 -0.0657
  287TIP3   OH2  824   5.077   4.865   4.568  0.3116 -1.0760  0.3053
  287TIP3    H1  825   5.136   4.932   4.534  0.7074 -2.5474 -2.1396
  287TIP3    H2  826   4.990   4.891   4.536  0.5454 -1.9430 -1.1420
  288TIP3   OH2  827   2.956   3.508   3.659 -0.4219  0.1211  0.4154
  288TIP3    H1  828   2.905   3.494   3.739  0.0969  1.1100  0.9364
  288TIP3    H2  829   3.004   3.426   3.647 -0.7638 -0.1602  0.9236
  289TIP3   OH2  830   7.040   2.643   1.427 -0.5140  0.3462  0.4985
  289TIP3    H1  831   6.993   2.570   1.388  0.3787  0.9362 -1.8698
  289TIP3    H2  832   6.989   2.720   1.403 -0.3284  0.6894  1.1736
  290TIP3   OH2  833   4.984   0.020   2.717 -0.0182  0.1803  0.5108
  290TIP3    H1  834   4.974  -0.068   2.752  0.0421  0.2412  0.6826
  290TIP3    H2  835   4.897   0.060   2.727  0.0192  0.2241  0.6657
  291TIP3   OH2  836   4.007   6.095   3.863  0.6166 -0.4434 -0.3372
  291TIP3    H1  837   4.026   6.043   3.785  2.0458  1.1424 -1.1094
  291TIP3    H2  838   4.072   6.067   3.928  0.2150 -0.8795 -0.1104
  292TIP3   OH2  839   7.029   3.778   2.477  0.7616 -0.2903  0.0350
  292TIP3    H1  840   7.065   3.756   2.564  3.7984 -1.5228 -1.3665
  292TIP3    H2  841   7.070   3.861   2.455 -1.0801  0.7290  0.2604
  293TIP3   OH2  842   1.006   1.105   3.810 -0.2795 -0.4419  0.5803
  293TIP3    H1  843   1.073   1.086   3.875 -0.3233  0.2223  0.8271
  293TIP3    H2  844   0.943   1.033   3.818  0.0931 -0.7528  0.7558
  294TIP3   OH2  845   4.203   3.533   1.575  0.0936  0.3306 -0.1317
  294TIP3    H1  846   4.201   3.438   1.573 -0.8072  0.2808  1.4296
  294TIP3    H2  847   4.220   3.559   1.484  0.9840 -1.3060 -0.4702
  295TIP3   OH2  848   3.916   2.638   5.329 -0.2956 -0.3948  0.3594
  295TIP3    H1  849   3.973   2.598   5.263 -1.7838 -0.8287 -0.6981
  295TIP3    H2  850   3.836   2.586   5.327 -1.0693  0.7124  1.2314
  296TIP3   OH2  851   6.564   1.953   2.263  0.3111  0.3414 -0.4853
  296TIP3    H1  852   6.541   1.864   2.290  1.6187  0.3654  0.8606
  296TIP3    H2  853   6.481   2.000   2.264 -0.2099 -0.5470  0.1174
  297TIP3   OH2  854   2.556   0.723   2.369 -0.1517 -0.1793 -0.1170
  297TIP3    H1  855   2.517   0.806   2.341  1.0597  0.5443  0.2824
  297TIP3    H2  856   2.650   0.740   2.373  0.0215 -1.2461  1.0839
  298TIP3   OH2  857   1.446   2.243   0.182  0.0141  0.3896 -0.2672
  298TIP3    H1  858   1.434   2.338   0.188 -1.4317  0.2895 -1.0429
  298TIP3    H2  859   1.452   2.213   0.273 -2.0368  0.9727  0.1067
  299TIP3   OH2  860   0.889   0.477   0.403 -0.4035  0.1886 -0.0921
  299TIP3    H1  861   0.921   0.439   0.485 -0.0644  1.5784  0.4494
  299TIP3    H2  862   0.797   0.496   0.420  0.2304  2.7163  0.8732
  300TIP3   OH2  863   6.855   5.585   4.700  0.5374  0.3834  0.2326
  300TIP3    H1  864   6.802   5.660   4.673  0.5011  0.8016  1.3995
  300TIP3    H2  865   6.940   5.622   4.723  0.6958 -0.0096  0.2976
  301TIP3   OH2  866   2.227   4.725   0.872 -0.2124  0.3563 -0.3947
  301TIP3    H1  867   2.146   4.776   0.868 -0.7914 -0.4319  0.7225
  301TIP3    H2  868   2.229   4.690   0.961  1.0486 -0.1503 -0.6002
  302TIP3   OH2  869   0.624   3.378   2.041 -0.0980  0.3671  0.0038
  302TIP3    H1  870   0.673   3.351   1.964  0.4685  0.4208  0.3438
  302TIP3    H2  871   0.545   3.420   2.006 -0.3217 -0.4947 -0.5327
  303TIP3   OH2  872   0.417   3.392   0.151 -0.1721  0.3899  0.5480
  303TIP3    H1  873   0.402   3.435   0.067  2.8653  0.5472 -0.0124
  303TIP3    H2  874   0.439   3.302   0.129  0.1960  0.3086  1.2032
  304TIP3   OH2  875   2.436   0.782   1.443  0.3920 -0.3149 -0.1589
  304TIP3    H1  876   2.388   0.713   1.490 -0.1300 -0.2439 -0.5747
  304TIP3    H2  877   2.371   0.851   1.430  0.8872  0.2223  0.1695
  305TIP3   OH2  878   5.966   0.019   3.537 -0.2888 -0.4084  0.2881
  305TIP3    H1  879   5.937  -0.072   3.547 -1.2281  0.0935  3.4862
  305TIP3    H2  880   5.890   0.071   3.564 -0.0758  1.4308 -2.3074
  306TIP3   OH2  881   5.507   0.749   5.695 -0.0076  0.0575  0.1201
  306TIP3    H1  882   5.561   0.670   5.700 -0.7775 -0.8466 -3.4942
  306TIP3    H2  883   5.568   0.817   5.667  0.0198 -0.0189 -0.0064
  307TIP3   OH2  884   5.448   6.256   2.097  0.3287 -0.1774 -0.4236
  307TIP3    H1  885   5.419   6.323   2.159  0.7659 -0.6199  0.2670
  307TIP3    H2  886   5.524   6.216   2.138  0.8196 -0.2761 -1.3885
  308TIP3   OH2  887   6.611   3.899   0.624  0.4549 -0.3524 -0.0267
  308TIP3    H1  888   6.624   3.987   0.659 -0.2846 -0.3361  0.2236
  308TIP3    H2  889   6.516   3.893   0.609  0.5669 -0.9088 -0.5639
  309TIP3   OH2  890   6.145   1.706   2.379 -0.7017 -0.0016  0.2965
  309TIP3    H1  891   6.132   1.795   2.412 -0.9705 -0.1223  0.5198
  309TIP3    H2  892   6.056   1.673   2.364 -0.7846 -1.3002  3.0749
  310TIP3   OH2  893   0.770   2.569   0.142  0.6833  0.3204 -0.1632
  310TIP3    H1  894   0.862   2.579   0.166  1.3163  1.6438 -2.7439
  310TIP3    H2  895   0.723   2.578   0.224  2.8422 -0.3691  1.2397
  311TIP3   OH2  896   3.430   4.424   5.496 -0.0897  0.1389 -0.1684
  311TIP3    H1  897   3.433   4.343   5.547  0.4032 -0.0284 -0.4592
  311TIP3    H2  898   3.484   4.486   5.545 -1.1373  0.5544  0.4902
  312TIP3   OH2  899   0.861   5.045   3.958 -0.1910 -0.1062 -0.2116
  312TIP3    H1  900   0.829   5.132   3.935 -0.5924 -0.0738  0.4324
  312TIP3    H2  901   0.949   5.040   3.921 -0.3074  0.4359 -0.5639
  313TIP3   OH2  902   0.270   1.100   4.713  0.0578 -0.5146 -0.3112
  313TIP3    H1  903   0.332   1.082   4.783 -1.1881 -0.4660  0.8521
  313TIP3    H2  904   0.303   1.178   4.670  1.6067 -1.3568 -0.7153
  314TIP3   OH2  905   1.912   5.346   5.581 -0.1427 -0.0571  0.2854
  314TIP3    H1  906   1.842   5.411   5.588  0.0997  0.2634 -0.2217
  314TIP3    H2  907   1.900   5.290   5.657  0.4890  1.4045  1.5184
  315TIP3   OH2  908   5.599   5.949   1.653  0.2638  0.1583 -0.2742
  315TIP3    H1  909   5.641   6.031   1.630 -1.7833  1.0425 -1.1344
  315TIP3    H2  910   5.618   5.891   1.579  0.1857  0.4802 -0.5526
  316TIP3   OH2  911   6.108   4.091   1.572 -0.1510  0.0950  0.1885
  316TIP3    H1  912   6.129   4.167   1.627  1.0452 -0.7841  0.9645
  316TIP3    H2  913   6.016   4.104   1.549  0.4162  2.6000 -1.0160
  317TIP3   OH2  914   4.529   5.193   3.239  0.3416  0.1585  0.3299
  317TIP3    H1  915   4.484   5.118   3.199  1.2890 -0.4723  0.4137
  317TIP3    H2  916   4.493   5.269   3.194 -0.5609 -0.3474  0.1617
  318TIP3   OH2  917   2.364   3.453   0.905  0.2086 -0.4326  0.5733
  318TIP3    H1  918   2.270   3.444   0.922 -0.1945 -0.0033 -1.1966
  318TIP3    H2  919   2.402   3.472   0.990 -1.6266  1.8619  0.9809
  319TIP3   OH2  920   5.262   1.805   2.430 -0.0708  0.3184  0.2436
  319TIP3    H1  921   5.263   1.835   2.339  1.5091 -1.4628 -0.4056
  319TIP3    H2  922   5.333   1.853   2.472 -0.5232  0.8272  0.4332
  320TIP3   OH2  923   0.173   0.638   2.531  0.2946  0.5121 -0.3164
  320TIP3    H1  924   0.238   0.607   2.594  1.4400 -0.2135 -1.7742
  320TIP3    H2  925   0.225   0.683   2.464 -0.7664  0.3933 -1.2516
  321TIP3   OH2  926   0.688   2.895   3.903  0.3797  0.5687 -0.6954
  321TIP3    H1  927   0.703   2.809   3.942 -0.3652  0.2898 -1.0065
  321TIP3    H2  928   0.738   2.955   3.958  1.4325 -0.1346 -0.8551
  322TIP3   OH2  929   6.859   0.220   5.749  0.1135 -0.0490 -0.4456
  322TIP3    H1  930   6.905   0.282   5.806 -0.3874 -0.2547  0.1858
  322TIP3    H2  931   6.912   0.140   5.752 -1.1468 -0.8908  1.6807
  323TIP3   OH2  932   4.147   4.733   3.739  0.0167 -0.4180 -0.1631
  323TIP3    H1  933   4.240   4.730   3.718  0.0642  0.1953 -0.0531
  323TIP3    H2  934   4.142   4.781   3.822 -0.3715 -0.7024 -0.0156
  324TIP3   OH2  935   0.424   5.247   1.577 -0.1928  1.0724  0.1780
  324TIP3    H1  936   0.456   5.219   1.663 -0.2008 -3.4396 -1.0515
  324TIP3    H2  937   0.338   5.284   1.595 -0.9373 -1.3033  2.0245
  325TIP3   OH2  938   0.301   1.361   1.475 -0.0196 -0.6480 -0.3429
  325TIP3    H1  939   0.244   1.412   1.532  0.4087 -0.7308  0.1627
  325TIP3    H2  940   0.372   1.332   1.531  0.1823 -1.0976 -0.8194
  326TIP3   OH2  941   0.451   4.397   4.742  0.2538  0.4355  0.0640
  326TIP3    H1  942   0.454   4.302   4.735  0.9835  0.5805 -2.6160
  326TIP3    H2  943   0.542   4.423   4.757  0.6604  0.8102 -2.5709
  327TIP3   OH2  944   1.599   1.506   3.816  0.8939  0.3672  0.0781
  327TIP3    H1  945   1.556   1.470   3.738  0.1146  1.4260 -0.0079
  327TIP3    H2  946   1.554   1.463   3.890  2.4221 -1.5330 -0.0053
  328TIP3   OH2  947   3.100   1.496   5.853 -0.1467 -0.4151  0.0281
  328TIP3    H1  948   3.124   1.487   5.761  1.8747  0.5404  0.4031
  328TIP3    H2  949   3.047   1.576   5.856  0.7409  0.1858 -0.1537
  329TIP3   OH2  950   0.433   4.088   2.213 -0.3101  0.5521 -0.0449
  329TIP3    H1  951   0.378   4.094   2.292 -0.8176  1.1869 -0.4328
  329TIP3    H2  952   0.522   4.099   2.245 -0.4928  0.5725  0.4679
  330TIP3   OH2  953   2.692   3.315   1.149 -0.6521 -0.2783 -0.7103
  330TIP3    H1  954   2.758   3.265   1.102  0.9817  1.2579 -0.1536
  330TIP3    H2  955   2.638   3.249   1.193  1.2304 -1.5730 -0.2335
  331TIP3   OH2  956   6.544   6.764   2.370  0.1941 -0.2011  0.4856
  331TIP3    H1  957   6.523   6.793   2.458 -1.2943  0.2041  0.0388
  331TIP3    H2  958   6.633   6.794   2.354 -0.0097  0.9115  1.3660
  332TIP3   OH2  959   4.771   5.841   2.272 -0.3434 -0.6182 -0.1614
  332TIP3    H1  960   4.821   5.876   2.198  0.9271  0.0217  0.9563
  332TIP3    H2  961   4.695   5.899   2.281 -0.9890 -1.2216 -1.4791
  333TIP3   OH2  962   1.557   4.317   5.278  0.3309 -0.0076  0.3394
  333TIP3    H1  963   1.595   4.292   5.194  0.2338  1.9459 -0.3401
  333TIP3    H2  964   1.590   4.252   5.340  0.0095 -1.7931 -1.2562
  334TIP3   OH2  965   6.323   4.300   2.057 -0.0415 -0.2065 -0.6290
  334TIP3    H1  966   6.388   4.267   1.996 -1.6560 -1.5190 -1.7283
  334TIP3    H2  967   6.342   4.256   2.140 -0.7996 -2.2835 -1.5044
  335TIP3   OH2  968   5.931   5.148   5.127  0.0876 -0.3401 -0.1045
  335TIP3    H1  969   5.944   5.240   5.106 -0.3128 -0.3790 -0.5199
  335TIP3    H2  970   6.019   5.116   5.151  0.2073  0.1699  0.1421
  336TIP3   OH2  971   4.438   1.635   5.882  0.1443  0.0959  0.7165
  336TIP3    H1  972   4.380   1.711   5.885  0.2779  0.2600 -0.3985
  336TIP3    H2  973   4.473   1.635   5.793  2.1914  0.2494  1.4834
  337TIP3   OH2  974   0.850   5.169   5.134 -0.8708 -0.0070 -0.4149
  337TIP3    H1  975   0.792   5.237   5.171  0.8266  1.7524 -0.8313
  337TIP3    H2  976   0.884   5.208   5.054  1.5669 -0.6137  0.2551
  338TIP3   OH2  977   4.346   6.224   1.219  0.0614  0.0306  0.8926
  338TIP3    H1  978   4.418   6.242   1.279  0.4867 -2.2824  1.1769
  338TIP3    H2  979   4.352   6.130   1.202 -3.1175 -0.3686  1.2441
  339TIP3   OH2  980   5.150   4.136   5.686 -0.1367  0.0302  0.3327
  339TIP3    H1  981   5.126   4.213   5.737 -1.6196  1.4814 -2.3683
  339TIP3    H2  982   5.070   4.083   5.683 -0.5816  0.7301 -1.6634
  340TIP3   OH2  983   3.261   1.127   0.473  0.2452 -0.0154 -0.1249
  340TIP3    H1  984   3.322   1.153   0.403  1.0621  0.8446  0.8700
  340TIP3    H2  985   3.193   1.194   0.471  0.8107  0.5859  0.5576
  341TIP3   OH2  986   2.074   3.913   2.817  0.6301  0.8116  0.2432
  341TIP3    H1  987   1.983   3.888   2.836  1.4090 -1.8251  0.9866
  341TIP3    H2  988   2.103   3.956   2.897  0.1637  1.2635  0.1728
  342TIP3   OH2  989   0.299   4.781   1.917  0.3479 -0.0264  0.2232
  342TIP3    H1  990   0.239   4.850   1.946  0.1346 -0.0017 -0.2596
  342TIP3    H2  991   0.385   4.811   1.946  0.3615  0.8266 -0.6317
  343TIP3   OH2  992   1.134   3.160   0.370  0.0625 -0.0479 -0.3529
  343TIP3    H1  993   1.188   3.162   0.449 -0.0164 -0.7275 -0.2780
  343TIP3    H2  994   1.069   3.229   0.384  2.3527  2.5594 -1.5135
  344TIP3   OH2  995   5.226   0.444   4.270  0.1802 -0.4787  0.0548
  344TIP3    H1  996   5.310   0.442   4.225  0.2674 -0.2678  0.2089
  344TIP3    H2  997   5.229   0.523   4.324  0.0999 -0.7593  0.4781
  345TIP3   OH2  998   2.005   1.912   5.172 -0.2723  0.1631 -0.0470
  345TIP3    H1  999   2.084   1.899   5.225 -1.3220 -0.1785  1.4925
  345TIP3    H2 1000   1.993   1.829   5.125 -0.4565 -0.2651  0.7527
  346TIP3   OH2 1001   7.127   3.707   2.760  0.0051 -1.2863 -0.0903
  346TIP3    H1 1002   7.190   3.641   2.789  0.1001 -2.7922 -3.3394
  346TIP3    H2 1003   7.169   3.791   2.779  1.4666 -2.2100  0.8855
  347TIP3   OH2 1004   6.656   3.479   2.377 -0.6442 -0.9252  0.9810
  347TIP3    H1 1005   6.648   3.502   2.284 -2.5264 -1.6707  0.9137
  347TIP3    H2 1006   6.722   3.539   2.411 -0.2154 -0.3599 -0.7496
  348TIP3   OH2 1007   5.722   0.514   2.120 -0.4217  0.4064 -0.6017
  348TIP3    H1 1008   5.672   0.510   2.201  0.2097 -0.5136 -0.2440
  348TIP3    H2 1009   5.762   0.601   2.121  1.7780 -0.5167  1.4622
  349TIP3   OH2 1010   3.680   6.387   3.388 -0.5082 -0.0878  0.1935
  349TIP3    H1 1011   3.725   6.456   3.338 -1.7872 -0.4244 -1.4939
  349TIP3    H2 1012   3.751   6.334   3.425  0.5254 -0.3825 -2.0701
  350TIP3   OH2 1013   6.262   0.127   3.192 -0.3584  0.3541  0.2007
  350TIP3    H1 1014   6.289   0.056   3.133 -1.7372  0.1168 -0.1835
  350TIP3    H2 1015   6.169   0.140   3.173 -0.2609  1.9105  0.6482
  351TIP3   OH2 1016   0.305   1.639   0.099 -0.0311  0.1906  0.0536
  351TIP3    H1 1017   0.393   1.670   0.079  0.1608  1.1043  2.0356
  351TIP3    H2 1018   0.255   1.719   0.117 -0.9060 -0.3933  0.2831
  352TIP3   OH2 1019   5.796   6.141   4.932  0.0530  0.1048 -0.7494
  352TIP3    H1 1020   5.716   6.183   4.965 -0.5169 -0.4665 -1.3734
  352TIP3    H2 1021   5.783   6.137   4.838  1.0137  0.3789 -0.9020
  353TIP3   OH2 1022   0.843   4.439   1.490  0.1055 -0.2944  0.2110
  353TIP3    H1 1023   0.857   4.387   1.569  2.0183  1.0806  0.8479
  353TIP3    H2 1024   0.811   4.376   1.425  0.1152 -1.7813  1.5974
  354TIP3   OH2 1025   3.655   0.459   2.469 -0.6220  0.1401 -0.0131
  354TIP3    H1 1026   3.567   0.485   2.442 -1.8228 -1.6568  1.8390
  354TIP3    H2 1027   3.668   0.502   2.554  0.6112  0.9510 -0.5840
  355TIP3   OH2 1028   0.805   4.873   1.212  0.4347  0.3119 -0.4927
  355TIP3    H1 1029   0.795   4.961   1.246  0.4994  0.2667 -0.3547
  355TIP3    H2 1030   0.771   4.816   1.281 -0.1492  0.2578 -0.8245
  356TIP3   OH2 1031   3.755   2.714   1.667 -0.6010 -0.2404 -0.3296
  356TIP3    H1 1032   3.702   2.793   1.678  0.6527  0.3506  1.9404
  356TIP3    H2 1033   3.832   2.743   1.618 -2.0815 -1.0410 -3.3682
  357TIP3   OH2 1034   6.880   5.980   3.140  0.3442  0.3361 -0.6399
  357TIP3    H1 1035   6.891   5.898   3.093 -0.1806 -0.6500  0.9051
  357TIP3    H2 1036   6.842   6.040   3.075  1.1901 -0.4656 -1.9198
  358TIP3   OH2 1037   4.162   6.595   5.149  0.0759 -0.0936 -0.1152
  358TIP3    H1 1038   4.127   6.653   5.081 -0.1014 -0.1819 -0.0999
  358TIP3    H2 1039   4.116   6.512   5.135  0.4703 -0.2874 -0.2587
  359TIP3   OH2 1040   1.485   3.388   1.523 -0.1710 -0.2393  0.2320
  359TIP3    H1 1041   1.500   3.419   1.433 -0.4224 -2.1879 -0.5298
  359TIP3    H2 1042   1.412   3.441   1.555  0.7550  1.3897 -0.1898
  360TIP3   OH2 1043   6.916   1.516   4.999 -0.1126  0.2177 -0.4753
  360TIP3    H1 1044   6.990   1.490   4.944  0.9682  1.0674  0.5324
  360TIP3    H2 1045   6.842   1.466   4.965  0.9411 -0.7361 -1.4342
  361TIP3   OH2 1046   5.140   4.122   1.239  0.2134 -0.5790  0.0858
  361TIP3    H1 1047   5.062   4.177   1.240 -0.2594 -1.1648 -1.5663
  361TIP3    H2 1048   5.151   4.095   1.330 -1.9672 -1.0932  0.2493
  362TIP3   OH2 1049   1.686   5.590   5.595  0.1357  1.0647 -0.2269
  362TIP3    H1 1050   1.716   5.632   5.676 -4.1379  3.6134  0.3614
  362TIP3    H2 1051   1.695   5.658   5.528  0.3567  0.1764 -1.1253
  363TIP3   OH2 1052   5.327   5.595   3.200  0.3192 -0.0331  0.7781
  363TIP3    H1 1053   5.290   5.666   3.252  0.7303 -0.2848  1.4207
  363TIP3    H2 1054   5.408   5.572   3.245 -0.5315 -1.9326  1.4597
  364TIP3   OH2 1055   3.608   2.526   1.311 -0.3378  1.0952  0.5568
  364TIP3    H1 1056   3.516   2.525   1.285  0.2311  0.2888 -1.6688
  364TIP3    H2 1057   3.632   2.619   1.313 -1.2953  1.3325  1.6149
  365TIP3   OH2 1058   6.146   2.493   3.178  0.2353 -0.2095  0.2311
  365TIP3    H1 1059   6.193   2.411   3.196 -1.3450 -1.3120 -0.3286
  365TIP3    H2 1060   6.213   2.561   3.180  1.7563 -1.6299 -0.1083
  366TIP3   OH2 1061   0.661   0.137   3.358  0.2454  0.2258 -0.2049
  366TIP3    H1 1062   0.576   0.097   3.378 -1.2278  2.6666 -1.1314
  366TIP3    H2 1063   0.663   0.216   3.412  1.4482  0.7690 -1.0204
  367TIP3   OH2 1064   1.623   1.467   0.120  0.1521 -0.9279 -0.0387
  367TIP3    H1 1065   1.692   1.470   0.187 -0.8970  0.1731  1.0644
  367TIP3    H2 1066   1.542   1.481   0.170 -0.8727 -2.0837 -1.3088
  368TIP3   OH2 1067   6.538   5.448   2.887  0.4675 -0.2152  0.3093
  368TIP3    H1 1068   6.454   5.494   2.877  1.3590  2.3640  3.1098
  368TIP3    H2 1069   6.600   5.502   2.838  0.7074 -1.6094 -0.9883
  369TIP3   OH2 1070   1.724   5.608   4.459 -0.0589 -0.3003 -0.9430
  369TIP3    H1 1071   1.680   5.531   4.422  0.8821 -0.7273 -1.2214
  369TIP3    H2 1072   1.727   5.671   4.387 -1.1883  0.1679 -0.5980
  370TIP3   OH2 1073   2.694   4.237   3.823 -0.2940 -0.2892  0.5703
  370TIP3    H1 1074   2.754   4.180   3.775 -0.2556 -0.6028  0.9784
  370TIP3    H2 1075   2.631   4.266   3.758 -0.3613 -0.8718  0.3654
  371TIP3   OH2 1076   0.539   0.809   0.117  0.6742  0.0135 -0.3024
  371TIP3    H1 1077   0.457   0.853   0.141  1.7461  1.9749  0.0217
  371TIP3    H2 1078   0.602   0.839   0.183  1.4713 -2.1604 -0.0159
  372TIP3   OH2 1079   5.098   0.658   4.150  0.5183 -0.6990  0.2345
  372TIP3    H1 1080   5.081   0.659   4.244 -0.8653 -1.4906  0.0169
  372TIP3    H2 1081   5.124   0.567   4.132  2.5612 -0.1442  0.1140
  373TIP3   OH2 1082   2.957   5.902   4.223  0.1847  0.1409 -0.0576
  373TIP3    H1 1083   3.048   5.872   4.214  0.5033  0.3666  1.8506
  373TIP3    H2 1084   2.907   5.847   4.162  1.5222 -0.3851 -0.7166
  374TIP3   OH2 1085   6.362   6.131   2.716 -0.9157 -0.1395 -0.0758
  374TIP3    H1 1086   6.300   6.156   2.648 -0.9520 -0.3456 -0.1197
  374TIP3    H2 1087   6.364   6.035   2.713 -1.9100 -0.2283  1.0838
  375TIP3   OH2 1088   1.207   5.044   2.869  0.2576  0.3076 -0.8012
  375TIP3    H1 1089   1.183   5.099   2.943  0.6825 -0.8575  0.2483
  375TIP3    H2 1090   1.285   5.086   2.831  2.0778 -0.7892  1.4853
  376TIP3   OH2 1091   6.615   4.050   5.764  0.4300 -0.2723 -0.2370
  376TIP3    H1 1092   6.551   3.984   5.789 -1.0876  1.2883  0.1170
  376TIP3    H2 1093   6.670   4.060   5.842  0.4557 -0.8511 -0.1736
  377TIP3   OH2 1094   1.369   6.371   0.561  0.3940  0.1663 -0.3975
  377TIP3    H1 1095   1.343   6.305   0.496 -0.0520  1.1375 -1.2239
  377TIP3    H2 1096   1.372   6.322   0.643 -0.7444 -0.7238 -0.8439
  378TIP3   OH2 1097   3.889   3.079   5.105 -0.0130  0.1524 -0.5339
  378TIP3    H1 1098   3.970   3.114   5.068 -1.4281  2.1277 -1.9685
  378TIP3    H2 1099   3.879   3.123   5.189 -0.4864  1.3424 -1.1900
  379TIP3   OH2 1100   4.884   5.215   0.652  0.0663 -0.4950 -0.5454
  379TIP3    H1 1101   4.956   5.227   0.713 -0.1400 -1.0344 -0.1825
  379TIP3    H2 1102   4.925   5.181   0.572  0.2632 -0.4036 -0.4827
  380TIP3   OH2 1103   3.228   2.807   4.167  0.1904  0.1572 -0.0112
  380TIP3    H1 1104   3.245   2.713   4.173  0.1702 -0.0365 -2.2384
  380TIP3    H2 1105   3.144   2.813   4.120  0.9935  1.2747 -1.3736
  381TIP3   OH2 1106   4.577   5.411   4.818  0.3577 -0.3684  0.0272
  381TIP3    H1 1107   4.647   5.357   4.855  1.2842 -0.2038 -1.4193
  381TIP3    H2 1108   4.577   5.490   4.872  2.3620  0.3031 -0.8230
  382TIP3   OH2 1109   5.254   3.763   1.990  0.1003 -0.0052 -0.4729
  382TIP3    H1 1110   5.202   3.834   1.953 -0.1172 -0.6292 -1.3794
  382TIP3    H2 1111   5.190   3.711   2.040  0.0434 -0.2033 -0.7516
  383TIP3   OH2 1112   4.754   4.385   1.074 -0.0152 -0.0743 -0.0986
  383TIP3    H1 1113   4.746   4.294   1.044 -1.7560 -0.1746  0.5296
  383TIP3    H2 1114   4.725   4.438   1.000  0.5154 -0.0513 -0.2923
  384TIP3   OH2 1115   2.443   2.578   3.607 -0.2185 -0.2559 -0.2473
  384TIP3    H1 1116   2.529   2.547   3.581 -0.0584 -0.2501  0.2812
  384TIP3    H2 1117   2.383   2.539   3.543  0.3543  1.1699 -1.7352
  385TIP3   OH2 1118   2.636   3.453   0.292  0.2661 -0.0648 -0.1143
  385TIP3    H1 1119   2.557   3.403   0.272  0.8524 -1.3133  0.5337
  385TIP3    H2 1120   2.687   3.451   0.211  0.4676 -0.9069  0.0196
  386TIP3   OH2 1121   3.964   4.000   2.124  0.4985 -0.0178 -0.2563
  386TIP3    H1 1122   3.913   4.035   2.051  0.4484 -0.3862 -0.4024
  386TIP3    H2 1123   3.932   3.910   2.135  0.7652 -0.0869 -0.0241
  387TIP3   OH2 1124   6.340   6.172   3.963  0.4269 -0.4077 -0.4390
  387TIP3    H1 1125   6.310   6.262   3.953 -0.9505 -1.0022 -2.0737
  387TIP3    H2 1126   6.398   6.157   3.888  0.9300 -0.8036  0.0117
  388TIP3   OH2 1127   1.568   3.809   0.849 -0.1912  0.5041  0.1265
  388TIP3    H1 1128   1.642   3.817   0.789  0.4850 -0.6977  0.7485
  388TIP3    H2 1129   1.585   3.726   0.896 -3.3925 -1.3910 -1.7273
  389TIP3   OH2 1130   1.603   6.223   3.580  0.6316  0.0799  0.0819
  389TIP3    H1 1131   1.646   6.226   3.665  0.7218  1.4296  0.0252
  389TIP3    H2 1132   1.657   6.281   3.524 -0.5698  0.8736 -0.3015
  390TIP3   OH2 1133   2.639   6.236   3.166 -1.0435 -0.6755  0.3304
  390TIP3    H1 1134   2.592   6.256   3.247  0.1067  1.7610  0.4732
  390TIP3    H2 1135   2.674   6.320   3.136 -0.0651 -1.7603 -1.8481
  391TIP3   OH2 1136   5.837   3.774   5.356  0.2093  0.2842 -0.3381
  391TIP3    H1 1137   5.917   3.774   5.303  0.9838 -0.0051  0.7987
  391TIP3    H2 1138   5.849   3.845   5.418  0.4621 -0.9682  1.0922
  392TIP3   OH2 1139   1.704   6.809   3.442  0.2193 -0.5002 -0.5747
  392TIP3    H1 1140   1.649   6.794   3.519 -1.2938 -0.0118 -1.5009
  392TIP3    H2 1141   1.722   6.722   3.407  0.5880 -0.7020  0.1073
  393TIP3   OH2 1142   6.579   6.413   0.651 -0.2698 -0.1501  0.2710
  393TIP3    H1 1143   6.664   6.368   0.647  0.0204  0.4744 -1.0305
  393TIP3    H2 1144   6.515   6.343   0.666  0.1789 -0.9955 -1.5551
  394TIP3   OH2 1145   3.545   5.868   1.805 -0.3338  0.3892 -0.5620
  394TIP3    H1 1146   3.516   5.939   1.862 -2.0732  0.1107 -1.0651
  394TIP3    H2 1147   3.602   5.911   1.741  0.1093  1.0072  0.2154
  395TIP3   OH2 1148   4.374   3.860   5.608  0.9215  0.0120  0.6271
  395TIP3    H1 1149   4.399   3.802   5.536 -0.8947 -0.2189  0.1120
  395TIP3    H2 1150   4.431   3.936   5.599  0.7115  0.0087 -1.0968
  396TIP3   OH2 1151   1.468   3.804   3.842  0.1284 -0.3903 -0.1755
  396TIP3    H1 1152   1.543   3.760   3.802  0.7117  0.3841  0.0303
  396TIP3    H2 1153   1.474   3.894   3.810  0.0907  0.0246  0.9347
  397TIP3   OH2 1154   7.199   2.561   0.837  0.6336 -0.0053  0.1552
  397TIP3    H1 1155   7.169   2.470   0.850  0.5596 -0.0751 -0.4964
  397TIP3    H2 1156   7.231   2.563   0.747 -0.3220  0.8725 -0.1873
  398TIP3   OH2 1157   6.083   4.149   0.539 -0.1972  0.1389 -0.1006
  398TIP3    H1 1158   6.166   4.194   0.552 -0.4126  0.7104 -0.6547
  398TIP3    H2 1159   6.044   4.146   0.626 -0.5995  1.8895 -0.1719
  399TIP3   OH2 1160   5.787   6.704   3.174 -0.3796  0.4460  0.3380
  399TIP3    H1 1161   5.839   6.648   3.115 -0.4237 -0.6246  1.2801
  399TIP3    H2 1162   5.757   6.644   3.243 -3.3252  0.8715 -0.4254
  400TIP3   OH2 1163   0.459   5.050   3.159  0.1926 -0.1448 -0.3121
  400TIP3    H1 1164   0.468   5.120   3.224  0.8543  0.4255 -1.0103
  400TIP3    H2 1165   0.529   4.989   3.180  1.4697  0.8608 -1.4790
  401TIP3   OH2 1166   1.608   4.518   5.583  0.0458 -0.0885 -0.2787
  401TIP3    H1 1167   1.645   4.551   5.665  3.6990  0.5566 -1.9466
  401TIP3    H2 1168   1.541   4.582   5.559 -1.0138 -0.2347  2.0789
  402TIP3   OH2 1169   6.571   5.335   4.768 -0.0891 -0.2286 -0.1865
  402TIP3    H1 1170   6.656   5.336   4.723 -0.3923  1.0169 -0.7807
  402TIP3    H2 1171   6.585   5.389   4.846 -0.1385 -0.6576  0.1256
  403TIP3   OH2 1172   1.448   0.067   0.643  0.2317  0.1305 -0.0596
  403TIP3    H1 1173   1.478   0.143   0.692 -2.5794  0.8114  0.8177
  403TIP3    H2 1174   1.458  -0.006   0.704 -0.6935  0.5090  0.5727
  404TIP3   OH2 1175   1.723   5.718   0.244  0.8768  0.1349 -0.6606
  404TIP3    H1 1176   1.808   5.690   0.279  0.1325 -1.7335 -0.2152
  404TIP3    H2 1177   1.720   5.682   0.156 -0.3169 -1.7886  0.1062
  405TIP3   OH2 1178   0.064   6.448   0.012 -0.3777 -0.0821  0.7050
  405TIP3    H1 1179   0.146   6.399   0.011 -0.5873 -0.4821  1.9228
  405TIP3    H2 1180   0.078   6.518   0.075 -0.2205  1.2258 -0.7399
  406TIP3   OH2 1181   2.693   0.390   2.903 -0.4385  0.0671  0.7210
  406TIP3    H1 1182   2.725   0.328   2.969  0.9548 -2.2322 -1.8572
  406TIP3    H2 1183   2.600   0.397   2.920 -0.0745 -0.1330  3.1110
  407TIP3   OH2 1184   2.630   2.303   5.057  0.1530 -0.3218  0.0972
  407TIP3    H1 1185   2.590   2.374   5.107 -0.7690 -0.4972 -0.3761
  407TIP3    H2 1186   2.602   2.318   4.967  0.3556 -1.0077 -0.0895
  408TIP3   OH2 1187   1.764   1.026   0.675 -0.0137  0.2364  0.1981
  408TIP3    H1 1188   1.711   1.009   0.597 -0.6969  1.1058  0.4568
  408TIP3    H2 1189   1.701   1.027   0.747  0.9781 -4.0250  1.3589
  409TIP3   OH2 1190   5.533   1.146  -0.021  0.2762  0.4042  0.0909
  409TIP3    H1 1191   5.539   1.191   0.064 -1.8339  1.3399 -0.1860
  409TIP3    H2 1192   5.468   1.077  -0.007 -1.6765  1.8646 -1.2031
  410TIP3   OH2 1193   6.408   5.141   4.172  0.0984 -0.0843 -0.1407
  410TIP3    H1 1194   6.397   5.228   4.211 -0.8683 -0.4850  0.5325
  410TIP3    H2 1195   6.478   5.100   4.224 -0.2157 -0.1028  0.2762
  411TIP3   OH2 1196   1.719   5.217   3.846 -0.0199 -0.1345 -0.2397
  411TIP3    H1 1197   1.658   5.148   3.822 -0.3548  1.0038 -3.0666
  411TIP3    H2 1198   1.666   5.297   3.848  0.7185  0.3643  0.9911
  412TIP3   OH2 1199   3.696   4.544   0.898  0.0556  0.3556 -0.1204
  412TIP3    H1 1200   3.707   4.574   0.989  0.3029  0.5065 -0.2001
  412TIP3    H2 1201   3.783   4.550   0.860  0.3094 -1.3412  0.1233
  413TIP3   OH2 1202   5.232   5.603   0.877 -0.3439 -0.1251  0.7726
  413TIP3    H1 1203   5.250   5.515   0.909 -3.1648 -0.5616  1.3898
  413TIP3    H2 1204   5.257   5.660   0.950  1.8147 -0.3100  0.2455
  414TIP3   OH2 1205   5.543   5.330   0.512 -0.1442 -0.2859  0.0369
  414TIP3    H1 1206   5.550   5.368   0.424  2.5610  1.2870  0.8129
  414TIP3    H2 1207   5.544   5.236   0.498 -0.7484 -0.0810 -1.6441
  415TIP3   OH2 1208   4.589   0.583   4.676  0.2518 -0.1730 -0.3484
  415TIP3    H1 1209   4.656   0.649   4.694 -0.7447  0.6518  0.4826
  415TIP3    H2 1210   4.632   0.500   4.693  0.6494  0.3961  1.7083
  416TIP3   OH2 1211   5.879   2.588   0.210 -0.3101  0.1538 -0.5761
  416TIP3    H1 1212   5.879   2.505   0.162 -1.9245 -1.0047  1.2417
  416TIP3    H2 1213   5.966   2.592   0.251 -0.3338 -0.8328 -0.4109
  417TIP3   OH2 1214   2.037   6.674   3.382  0.5953 -0.0582  0.0092
  417TIP3    H1 1215   1.952   6.689   3.343  1.4343  0.0653 -1.8719
  417TIP3    H2 1216   2.054   6.581   3.369  1.3438  0.1947 -0.9296
  418TIP3   OH2 1217   6.911   1.446   3.507 -0.3074 -0.5417  0.9362
  418TIP3    H1 1218   6.958   1.478   3.584  0.2986 -1.3101  0.8985
  418TIP3    H2 1219   6.831   1.498   3.505  0.6785  1.0309  0.8030
  419TIP3   OH2 1220   4.691   0.424   3.713  0.1141  0.0424  0.5678
  419TIP3    H1 1221   4.763   0.476   3.677 -2.1679  2.2098 -1.2761
  419TIP3    H2 1222   4.654   0.480   3.782 -2.0570  0.8142 -1.0911
  420TIP3   OH2 1223   3.234   4.947   1.215 -0.4814  0.1442 -0.3565
  420TIP3    H1 1224   3.315   4.974   1.258 -0.7049  0.8949 -0.3860
  420TIP3    H2 1225   3.255   4.863   1.174  0.6388  0.8959 -1.3866
  421TIP3   OH2 1226   0.464   1.341   3.466  0.5435 -0.2357 -0.6548
  421TIP3    H1 1227   0.418   1.314   3.546  1.6706  3.6108  1.5187
  421TIP3    H2 1228   0.556   1.341   3.490  1.1561 -1.1201 -2.7681
  422TIP3   OH2 1229   4.896   4.606   5.495  0.1146  0.3601 -0.0598
  422TIP3    H1 1230   4.884   4.616   5.589  0.8384  3.2603 -0.1858
  422TIP3    H2 1231   4.825   4.547   5.468  0.1332 -0.8524  2.3047
  423TIP3   OH2 1232   3.560   2.554   2.223 -0.0740 -0.0013 -0.0200
  423TIP3    H1 1233   3.623   2.490   2.255  1.5872  0.6721 -1.7456
  423TIP3    H2 1234   3.557   2.540   2.128 -1.0642  1.2696 -0.2100
  424TIP3   OH2 1235   2.935   3.563   5.091 -0.4759 -0.5290  0.4178
  424TIP3    H1 1236   2.859   3.563   5.032  0.1704 -1.6259 -0.4711
  424TIP3    H2 1237   2.950   3.470   5.109 -0.2061 -0.2380  1.7367
  425TIP3   OH2 1238   6.630   1.014   1.426 -0.1833 -0.0842  0.3362
  425TIP3    H1 1239   6.540   1.037   1.449 -1.4813 -4.0821  0.0193
  425TIP3    H2 1240   6.659   0.956   1.496  1.6922 -0.0057 -0.2980
  426TIP3   OH2 1241   4.647   1.071   2.803  0.1400  0.4563  0.2239
  426TIP3    H1 1242   4.661   1.008   2.874  1.5958 -0.7113 -1.0401
  426TIP3    H2 1243   4.559   1.051   2.771  0.2610 -0.3740  0.3911
  427TIP3   OH2 1244   6.270   6.016   3.040 -0.2493 -0.0889 -0.4695
  427TIP3    H1 1245   6.359   6.032   3.009 -0.0343 -2.3537 -1.1395
  427TIP3    H2 1246   6.216   6.077   2.989  0.5663 -0.9610 -2.4577
  428TIP3   OH2 1247   2.342   1.379   5.373  0.0946 -0.4436  0.0013
  428TIP3    H1 1248   2.368   1.471   5.378 -2.1538  0.5234 -3.0525
  428TIP3    H2 1249   2.385   1.346   5.294  0.0150 -1.7224  0.4690
  429TIP3   OH2 1250   0.539   1.389   1.609 -0.4633  0.4783  0.6080
  429TIP3    H1 1251   0.533   1.293   1.600  2.4480  0.1911  0.6509
  429TIP3    H2 1252   0.476   1.411   1.677 -1.9305 -1.2608 -0.1173
  430TIP3   OH2 1253   1.192   5.585   4.905  0.0634  0.2199 -0.4669
  430TIP3    H1 1254   1.275   5.630   4.921  0.0031 -0.1391  0.9420
  430TIP3    H2 1255   1.217   5.495   4.884 -0.0120 -0.5882  2.5346
  431TIP3   OH2 1256   6.813   4.666   0.418  0.0109 -0.3510  0.1017
  431TIP3    H1 1257   6.885   4.714   0.377 -0.1261  0.5022  0.8200
  431TIP3    H2 1258   6.846   4.577   0.427  1.0338  0.0474  0.5240
  432TIP3   OH2 1259   6.920   0.805   1.197 -0.1004 -0.1314 -0.1837
  432TIP3    H1 1260   6.924   0.723   1.247 -0.6635 -0.4806 -0.7087
  432TIP3    H2 1261   6.981   0.793   1.125 -2.8059 -1.5571 -2.3951
  433TIP3   OH2 1262   6.656   4.311   4.504 -0.1579 -0.0384 -0.9326
  433TIP3    H1 1263   6.714   4.351   4.439 -0.2233  1.7826  0.0669
  433TIP3    H2 1264   6.687   4.221   4.511  1.6595  0.4958 -1.4361
  434TIP3   OH2 1265   0.227   2.176   5.819 -0.0565 -0.3425 -0.3409
  434TIP3    H1 1266   0.156   2.162   5.881  1.4901  0.4701  1.7432
  434TIP3    H2 1267   0.275   2.093   5.818  1.0809  0.2319  1.2273
  435TIP3   OH2 1268   4.041   1.841   2.695 -0.0181  0.2077 -0.0028
  435TIP3    H1 1269   4.130   1.811   2.715 -0.3349 -2.0528 -1.5931
  435TIP3    H2 1270   3.985   1.775   2.736 -0.8324 -0.2865 -1.8342
  436TIP3   OH2 1271   1.634   5.162   1.582 -0.7577 -0.3514  0.5290
  436TIP3    H1 1272   1.628   5.175   1.487  0.6044  1.4024  0.6412
  436TIP3    H2 1273   1.719   5.121   1.595 -0.8514 -0.3997  1.0097
  437TIP3   OH2 1274   4.437   1.001   4.098  0.0097  0.4506  0.0589
  437TIP3    H1 1275   4.466   0.911   4.115 -0.2302  0.3482 -0.0784
  437TIP3    H2 1276   4.439   1.010   4.003 -0.8872  0.2839  0.0154
  438TIP3   OH2 1277   2.878   2.616   0.747  0.0448 -0.1026 -0.0203
  438TIP3    H1 1278   2.852   2.556   0.676  0.7493 -0.6073  0.1317
  438TIP3    H2 1279   2.949   2.667   0.709  1.2898 -1.2331  0.6864
  439TIP3   OH2 1280   3.536   1.506   2.985 -0.2030 -0.3939 -0.5175
  439TIP3    H1 1281   3.556   1.447   3.057  1.6371  0.6150 -0.1411
  439TIP3    H2 1282   3.512   1.449   2.912  0.4151 -1.5349  0.1526
  440TIP3   OH2 1283   2.250   5.313   1.259 -0.0333 -0.4267  0.1173
  440TIP3    H1 1284   2.171   5.325   1.207 -0.8411 -3.7898  0.3211
  440TIP3    H2 1285   2.222   5.328   1.349 -0.0099 -0.0466  0.0645
  441TIP3   OH2 1286   6.808   6.118   0.971  0.0136 -0.8149  0.0126
  441TIP3    H1 1287   6.821   6.191   1.032  0.7192 -0.6133 -0.3623
  441TIP3    H2 1288   6.722   6.134   0.933 -0.0882 -0.5005  0.3673
  442TIP3   OH2 1289   3.412   6.663   3.232  0.3158  0.4342 -0.5597
  442TIP3    H1 1290   3.363   6.725   3.285 -0.3342  0.2218 -0.8892
  442TIP3    H2 1291   3.344   6.614   3.185  0.6258 -2.2518  1.5629
  443TIP3   OH2 1292   3.883   2.850   3.885 -0.8438  0.0584  0.5341
  443TIP3    H1 1293   3.854   2.833   3.795  0.4094 -0.9513  0.2926
  443TIP3    H2 1294   3.934   2.931   3.880 -1.2579  0.3141  0.4464
  444TIP3   OH2 1295   6.784   0.961   2.996 -0.2455  0.4408 -0.2085
  444TIP3    H1 1296   6.775   1.011   2.915  1.4169  1.7123  0.3282
  444TIP3    H2 1297   6.851   0.895   2.976  0.2322  0.8146  0.1379
  445TIP3   OH2 1298   6.958   2.940   5.373 -0.2706  0.8190  0.0808
  445TIP3    H1 1299   6.930   2.985   5.294 -0.2551 -0.0969 -0.4567
  445TIP3    H2 1300   7.050   2.917   5.356 -0.2691  0.6139  0.3570
  446TIP3   OH2 1301   0.467   1.029   0.673 -0.3106 -0.1489 -0.0770
  446TIP3    H1 1302   0.385   1.063   0.635 -0.4706  1.6226  1.7013
  446TIP3    H2 1303   0.438   0.965   0.738 -0.1730 -0.8720 -0.7135
  447TIP3   OH2 1304   4.382   3.301   5.236 -0.1451  0.5228 -0.1823
  447TIP3    H1 1305   4.319   3.250   5.288  0.9013 -1.4357 -0.7050
  447TIP3    H2 1306   4.330   3.370   5.195 -1.7947 -0.5038  0.0951
  448TIP3   OH2 1307   3.271   2.017   0.418  0.7565  0.3635 -0.1099
  448TIP3    H1 1308   3.248   1.924   0.418  0.1768  0.5017 -0.4143
  448TIP3    H2 1309   3.350   2.022   0.471 -0.6506  0.0428  2.1751
  449TIP3   OH2 1310   1.564   0.195   4.233  0.2486  0.2247 -0.2945
  449TIP3    H1 1311   1.652   0.159   4.217  1.0325  1.9968 -0.1875
  449TIP3    H2 1312   1.556   0.197   4.328 -1.1501 -2.6505 -0.2286
  450TIP3   OH2 1313   0.163   3.160   0.188  0.4646  0.3938  0.2636
  450TIP3    H1 1314   0.076   3.200   0.193  0.6495  1.0235 -1.1553
  450TIP3    H2 1315   0.185   3.139   0.279 -1.3782 -0.2674  0.6003
  451TIP3   OH2 1316   5.122   4.411   5.807  0.3661  0.1755 -0.0452
  451TIP3    H1 1317   5.087   4.424   5.895  1.6567  1.4715  0.3348
  451TIP3    H2 1318   5.124   4.499   5.769 -0.6349 -0.4239 -1.5725
  452TIP3   OH2 1319   2.962   1.749   5.446 -0.0630  0.4996 -0.4038
  452TIP3    H1 1320   2.971   1.708   5.360  1.0491 -0.4955  0.1562
  452TIP3    H2 1321   3.023   1.823   5.445 -0.5724  0.9241 -0.7025
  453TIP3   OH2 1322   2.310   5.553   3.533 -0.2977  0.3553  0.5126
  453TIP3    H1 1323   2.214   5.555   3.531 -0.2927  0.3113  0.2040
  453TIP3    H2 1324   2.335   5.508   3.453 -0.0312 -0.1987  0.9039
  454TIP3   OH2 1325   3.356   5.438   1.916 -0.2443  0.1723  0.3177
  454TIP3    H1 1326   3.308   5.420   1.996 -0.6733  0.2011  0.0704
  454TIP3    H2 1327   3.288   5.457   1.851  0.1248  0.9905  0.1507
  455TIP3   OH2 1328   4.068   4.239   1.397 -0.6252 -0.4518 -0.4957
  455TIP3    H1 1329   4.080   4.165   1.457  0.6904  0.0556 -0.0995
  455TIP3    H2 1330   4.140   4.231   1.335 -0.9401  0.0547 -0.9265
  456TIP3   OH2 1331   6.700   0.697   0.834  0.2051 -0.0856 -0.0291
  456TIP3    H1 1332   6.742   0.612   0.819 -1.9428 -1.3869  0.8929
  456TIP3    H2 1333   6.725   0.721   0.923  2.0729  1.0951 -0.7989
  457TIP3   OH2 1334   2.158   6.650   2.979  0.3342 -0.9372 -0.2351
  457TIP3    H1 1335   2.147   6.742   2.954 -3.0921 -0.0877  3.3084
  457TIP3    H2 1336   2.088   6.604   2.933 -0.7927 -0.8437  1.2992
  458TIP3   OH2 1337   1.384   3.984   4.158  0.1947 -0.4646 -0.8132
  458TIP3    H1 1338   1.460   4.027   4.196 -0.2050  0.7058 -1.2933
  458TIP3    H2 1339   1.386   3.895   4.194  0.1616  0.4028  1.4506
  459TIP3   OH2 1340   3.144   6.061   4.546 -0.7327 -0.5914  0.1255
  459TIP3    H1 1341   3.089   6.139   4.532  1.2078  0.6480 -0.9095
  459TIP3    H2 1342   3.224   6.095   4.585  0.0977 -2.1062 -0.1910
  460TIP3   OH2 1343   1.704   1.521   5.592 -0.2277  0.2186 -0.1786
  460TIP3    H1 1344   1.632   1.502   5.533 -0.2994 -0.6313  0.1608
  460TIP3    H2 1345   1.774   1.554   5.535 -0.4442 -0.1720 -0.6790
  461TIP3   OH2 1346   6.520   2.631   2.399 -0.2546 -0.6355 -0.3579
  461TIP3    H1 1347   6.573   2.627   2.319  0.3618  2.1375 -0.1895
  461TIP3    H2 1348   6.573   2.683   2.460 -1.8314 -0.5051  0.9718
  462TIP3   OH2 1349   4.438   4.670   3.699 -0.6095 -0.5860 -0.4923
  462TIP3    H1 1350   4.409   4.657   3.609 -0.4025  0.0035 -0.6498
  462TIP3    H2 1351   4.503   4.741   3.693 -0.3931 -0.7306  0.0808
  463TIP3   OH2 1352   4.446   3.008   3.791  0.1369  0.2339  0.1311
  463TIP3    H1 1353   4.483   2.980   3.707  0.3920 -0.5902  0.5055
  463TIP3    H2 1354   4.488   2.951   3.856 -0.8934  0.0924  0.6950
  464TIP3   OH2 1355   2.363   5.350   3.713 -0.5070 -0.1144  0.2048
  464TIP3    H1 1356   2.342   5.432   3.669  1.9863 -0.3824 -1.7392
  464TIP3    H2 1357   2.316   5.283   3.662  0.0354 -0.1590 -0.2464
  465TIP3   OH2 1358   2.909   3.076   5.574  0.4045  0.0336 -0.3495
  465TIP3    H1 1359   2.901   3.059   5.668  0.1475  1.2303 -0.1442
  465TIP3    H2 1360   2.897   3.171   5.566  2.5425  0.2632 -1.3580
  466TIP3   OH2 1361   5.380   2.493   5.124 -0.4896  0.1094  0.0345
  466TIP3    H1 1362   5.446   2.497   5.055  0.6965  0.1777  1.1411
  466TIP3    H2 1363   5.352   2.583   5.137  0.0341  0.2273  0.3460
  467TIP3   OH2 1364   0.275   1.891   5.811 -0.3159 -0.3278  0.1494
  467TIP3    H1 1365   0.192   1.846   5.820  0.1197 -0.8802  1.7447
  467TIP3    H2 1366   0.328   1.834   5.756 -0.4042 -0.8555  0.6074
  468TIP3   OH2 1367   3.198   2.883   5.362 -0.4524  0.3394 -0.3237
  468TIP3    H1 1368   3.267   2.857   5.301  0.7174 -0.7372  1.3523
  468TIP3    H2 1369   3.218   2.973   5.385 -0.0048  0.2567 -0.3820
  469TIP3   OH2 1370   4.692   5.595   0.753  0.0032 -0.3148  0.0720
  469TIP3    H1 1371   4.655   5.677   0.784 -0.4298  0.0651 -1.3812
  469TIP3    H2 1372   4.779   5.591   0.794  0.0154  0.8467  0.1851
  470TIP3   OH2 1373   4.776   5.897   5.145  0.5278 -0.0766  0.4699
  470TIP3    H1 1374   4.739   5.890   5.057 -0.4725  1.2525  0.7480
  470TIP3    H2 1375   4.779   5.807   5.178 -2.2749 -0.3119  0.3246
  471TIP3   OH2 1376   5.389  -0.006   3.098  0.2606 -0.7516 -0.5635
  471TIP3    H1 1377   5.424   0.083   3.092  1.4073 -1.2749 -2.5564
  471TIP3    H2 1378   5.295   0.004   3.082 -0.1148  0.3317  1.7981
  472TIP3   OH2 1379   2.965   2.375   1.989  0.7947  0.0387 -0.0638
  472TIP3    H1 1380   2.953   2.458   2.035 -0.5546  0.9889 -2.0007
  472TIP3    H2 1381   3.042   2.335   2.030 -0.3443  0.7611  3.0011
  473TIP3   OH2 1382   7.187   2.238   2.954  0.1036  0.4277  0.4723
  473TIP3    H1 1383   7.161   2.202   2.869  1.1829  2.5061 -0.8204
  473TIP3    H2 1384   7.181   2.164   3.014 -2.3674 -0.7226 -1.0277
  474TIP3   OH2 1385   6.452   2.892   1.662  0.0390 -0.1975  0.0958
  474TIP3    H1 1386   6.358   2.909   1.659  0.1059  0.1340 -0.1614
  474TIP3    H2 1387   6.487   2.956   1.724  0.3008  0.6940 -0.9284
  475TIP3   OH2 1388   5.872   2.508   1.502 -0.2094  0.4859  0.1940
  475TIP3    H1 1389   5.942   2.526   1.564  0.2439  1.1676 -0.4907
  475TIP3    H2 1390   5.916   2.509   1.416 -0.2096 -3.3864 -0.0247
  476TIP3   OH2 1391   2.625   2.490   4.411  0.3370  0.4248  0.1353
  476TIP3    H1 1392   2.597   2.577   4.438 -1.1723 -0.5884  2.0883
  476TIP3    H2 1393   2.545   2.438   4.410  1.3454 -1.1998  0.0868
  477TIP3   OH2 1394   4.389   0.064   1.305 -0.0715  0.0498  0.1691
  477TIP3    H1 1395   4.466   0.013   1.281 -1.0072 -0.9066 -0.9047
  477TIP3    H2 1396   4.425   0.143   1.346  1.5248  0.1971 -1.3830
  478TIP3   OH2 1397   1.737   2.957   5.579  0.4178 -0.1851 -0.0965
  478TIP3    H1 1398   1.807   3.005   5.623  0.3289  0.4591 -0.6544
  478TIP3    H2 1399   1.726   3.001   5.495  0.0402 -0.9179 -0.4407
  479TIP3   OH2 1400   4.795   0.125   5.765  0.1875 -0.0738 -0.1882
  479TIP3    H1 1401   4.737   0.068   5.816  1.6589  0.3270  2.0803
  479TIP3    H2 1402   4.808   0.202   5.820  1.9225  0.3608 -1.1160
  480TIP3   OH2 1403   6.633   2.770   3.468 -0.0418 -0.6606 -0.6912
  480TIP3    H1 1404   6.718   2.808   3.443  0.7554 -2.3202 -0.6527
  480TIP3    H2 1405   6.585   2.763   3.386  0.7525 -1.7791 -1.0845
  481TIP3   OH2 1406   0.907   0.237   4.755 -0.4019 -0.0691 -0.8956
  481TIP3    H1 1407   0.889   0.162   4.812  0.2616 -0.7816 -1.6011
  481TIP3    H2 1408   0.940   0.198   4.674 -0.0854  0.9867 -1.2887
  482TIP3   OH2 1409   4.632   5.706   3.706  1.2576 -0.1236  0.1435
  482TIP3    H1 1410   4.566   5.640   3.728  2.4252 -1.7733 -1.0388
  482TIP3    H2 1411   4.643   5.756   3.787 -1.4167  0.2329  0.3655
  483TIP3   OH2 1412   0.288   1.674   3.147  0.5856  0.1471 -0.5230
  483TIP3    H1 1413   0.285   1.583   3.176 -0.3023  0.4758  0.4724
  483TIP3    H2 1414   0.380   1.699   3.156  1.3352 -1.3396 -3.1466
  484TIP3   OH2 1415   1.567   3.808   0.268 -0.7767 -0.2016 -0.5205
  484TIP3    H1 1416   1.631   3.858   0.320 -1.3247  1.7584 -1.6078
  484TIP3    H2 1417   1.592   3.826   0.177 -1.1383 -1.7999 -0.9553
  485TIP3   OH2 1418   5.331   5.743   2.942  0.2224  0.3395  0.1576
  485TIP3    H1 1419   5.397   5.699   2.888 -0.2016 -0.4424  0.2648
  485TIP3    H2 1420   5.321   5.686   3.018 -1.3854 -0.1395 -0.3857
  486TIP3   OH2 1421   3.746   5.884   1.127 -0.0780 -0.6814 -0.7439
  486TIP3    H1 1422   3.697   5.948   1.176  1.4205  0.5114 -0.7228
  486TIP3    H2 1423   3.716   5.893   1.037  0.4647  0.4316 -0.8275
  487TIP3   OH2 1424   5.009   1.107   4.213 -0.2112 -0.8160 -0.3090
  487TIP3    H1 1425   4.978   1.117   4.123 -1.3957 -2.0666 -0.0795
  487TIP3    H2 1426   4.947   1.157   4.266 -0.4974 -1.4005 -0.0686
  488TIP3   OH2 1427   0.892   5.464   1.685 -0.2190 -0.5976 -0.2808
  488TIP3    H1 1428   0.955   5.407   1.641 -0.4064  0.1171 -1.5123
  488TIP3    H2 1429   0.863   5.525   1.617 -2.3975 -1.0291  0.2013
  489TIP3   OH2 1430   4.118   1.881   4.453 -0.0082 -0.4430 -0.1414
  489TIP3    H1 1431   4.101   1.837   4.536 -0.3534  0.0679  0.0629
  489TIP3    H2 1432   4.091   1.817   4.386 -1.3539 -0.2233  0.1562
  490TIP3   OH2 1433   2.696   5.415   4.550  0.8903  0.4809 -0.4304
  490TIP3    H1 1434   2.767   5.361   4.583  1.3138  0.0415 -1.9761
  490TIP3    H2 1435   2.618   5.361   4.562  0.9586  0.5092  0.2122
  491TIP3   OH2 1436   4.147   0.614   4.214 -0.7779  0.0195  0.0954
  491TIP3    H1 1437   4.191   0.529   4.207  0.6923  0.5657  1.8556
  491TIP3    H2 1438   4.203   0.675   4.167 -0.7680  0.3595  0.5411
  492TIP3   OH2 1439   5.047   5.187   2.961 -0.0183  0.0622  0.6356
  492TIP3    H1 1440   5.139   5.163   2.957 -0.4403 -1.6264 -0.3370
  492TIP3    H2 1441   5.024   5.209   2.870 -0.6924 -0.0699  0.7688
  493TIP3   OH2 1442   5.807   5.953   2.492 -0.1546  0.1297  0.2868
  493TIP3    H1 1443   5.741   5.969   2.559 -0.5385  0.0932 -0.0736
  493TIP3    H2 1444   5.803   5.858   2.476  0.5377  0.0046  0.8196
  494TIP3   OH2 1445   6.564   0.401   0.681  0.3682  0.3225 -0.2374
  494TIP3    H1 1446   6.529   0.487   0.657  1.3821  0.8406  0.0718
  494TIP3    H2 1447   6.656   0.404   0.656  0.8645 -0.0003  1.4229
  495TIP3   OH2 1448   6.195   6.330   4.265 -0.6079  0.0824  0.3089
  495TIP3    H1 1449   6.204   6.422   4.240 -1.8197 -0.1104 -0.9533
  495TIP3    H2 1450   6.110   6.325   4.308 -0.1331 -0.2910  1.2262
  496TIP3   OH2 1451   1.665   0.676   4.292 -0.6077 -0.1535  0.0136
  496TIP3    H1 1452   1.708   0.755   4.325 -0.8337 -0.3235  0.7246
  496TIP3    H2 1453   1.629   0.703   4.208 -1.4197  0.7519  0.6288
  497TIP3   OH2 1454   3.562   2.188   4.591 -0.0530 -0.0980  0.1510
  497TIP3    H1 1455   3.534   2.217   4.678 -0.2228 -0.1315  0.1090
  497TIP3    H2 1456   3.507   2.112   4.572 -0.3996  0.2341 -0.2120
  498TIP3   OH2 1457   7.193   4.114   3.000 -0.4284 -0.1154 -0.3492
  498TIP3    H1 1458   7.255   4.132   3.071 -0.4095 -0.7586 -0.2013
  498TIP3    H2 1459   7.145   4.196   2.990  0.6377  0.4971 -0.6604
  499TIP3   OH2 1460   4.383   4.887   1.358  0.3299 -0.1065 -0.0712
  499TIP3    H1 1461   4.388   4.795   1.383  0.5640 -0.5351 -1.5799
  499TIP3    H2 1462   4.455   4.930   1.404  0.8084 -0.8701 -0.1001
  500TIP3   OH2 1463   3.088   6.239   2.764  0.4813 -0.0502 -0.4252
  500TIP3    H1 1464   3.087   6.335   2.770  0.1850 -0.0761  0.0323
  500TIP3    H2 1465   3.028   6.218   2.693 -1.7832  0.0014  1.3804
  501TIP3   OH2 1466   1.898   4.158   3.678 -0.4604  0.1437  0.1899
  501TIP3    H1 1467   1.954   4.132   3.751  0.8715 -0.7444 -1.0877
  501TIP3    H2 1468   1.939   4.237   3.643 -0.5379  0.0112 -0.2013
  502TIP3   OH2 1469   1.056   3.237   1.798  0.8638  0.2849 -0.5897
  502TIP3    H1 1470   1.037   3.145   1.816  0.3361 -0.1859 -3.1725
  502TIP3    H2 1471   1.040   3.247   1.704 -0.4427  3.3392 -0.1589
  503TIP3   OH2 1472   3.992   1.626   5.546  0.0827  0.5599  0.4512
  503TIP3    H1 1473   3.942   1.607   5.467 -1.8639 -0.6141  1.8802
  503TIP3    H2 1474   4.007   1.540   5.586 -0.0920  1.2007  1.9871
  504TIP3   OH2 1475   6.889   2.060   0.130  0.2663 -0.0598 -0.2682
  504TIP3    H1 1476   6.893   2.154   0.112 -0.6834  0.0224 -0.1222
  504TIP3    H2 1477   6.807   2.049   0.178  1.0010 -0.7784  0.8669
  505TIP3   OH2 1478   3.233   4.512   3.311  0.0452 -0.0548 -0.3224
  505TIP3    H1 1479   3.313   4.549   3.275 -0.7784  2.7669  0.5298
  505TIP3    H2 1480   3.258   4.481   3.398  0.3377  0.3499 -0.2591
  506TIP3   OH2 1481   1.805   4.681   4.002  0.0841  0.3108  0.2337
  506TIP3    H1 1482   1.866   4.669   4.075  0.8648 -0.5619 -0.5408
  506TIP3    H2 1483   1.832   4.764   3.963  2.3521 -1.1312 -1.5028
  507TIP3   OH2 1484   6.779   5.843   4.562 -0.5568 -0.2040  0.4506
  507TIP3    H1 1485   6.685   5.844   4.546 -0.2201 -0.6033 -1.8787
  507TIP3    H2 1486   6.804   5.936   4.564 -0.6283 -0.0678 -1.8656
  508TIP3   OH2 1487   4.013   0.157   4.894  0.2110  0.2658  0.0412
  508TIP3    H1 1488   3.979   0.128   4.978  0.8562 -0.3435  0.1053
  508TIP3    H2 1489   4.037   0.248   4.908 -0.4054  0.3887  0.2958
  509TIP3   OH2 1490   4.716   3.050   0.204 -0.0626 -0.5746  0.1986
  509TIP3    H1 1491   4.751   3.019   0.120  0.6501 -0.5229  0.4702
  509TIP3    H2 1492   4.671   3.132   0.182 -1.3717 -1.4244 -0.4086
  510TIP3   OH2 1493   3.846   0.191   0.684 -0.2127  0.1101 -0.5025
  510TIP3    H1 1494   3.901   0.116   0.661  0.5231  0.4111  0.2200
  510TIP3    H2 1495   3.870   0.212   0.774 -1.3310  0.4193 -0.2559
  511TIP3   OH2 1496   1.235   5.842   5.646  0.3653 -0.1627 -0.2349
  511TIP3    H1 1497   1.160   5.886   5.605  0.3855  0.6104  0.5240
  511TIP3    H2 1498   1.308   5.903   5.635  1.2672 -1.4867 -2.1814
  512TIP3   OH2 1499   6.279   0.602   0.807  0.1934  0.4916  0.4058
  512TIP3    H1 1500   6.196   0.645   0.831  0.1807  0.1232  1.0396
  512TIP3    H2 1501   6.267   0.512   0.835  0.2247  0.0549 -0.9010
  513TIP3   OH2 1502   3.404   6.070   2.369 -0.3323  0.3288  0.0654
  513TIP3    H1 1503   3.409   6.008   2.296 -0.0340  3.3440 -2.6576
  513TIP3    H2 1504   3.328   6.040   2.420 -0.1167 -2.3079 -0.9975
  514TIP3   OH2 1505   1.038   4.712   1.781 -0.3821 -0.0940 -0.4582
  514TIP3    H1 1506   0.962   4.766   1.759  1.0362  2.5290  0.5410
  514TIP3    H2 1507   1.037   4.708   1.876 -0.2307 -1.5651 -0.5082
  515TIP3   OH2 1508   4.564   1.847   2.843 -0.4901  0.0520  0.0426
  515TIP3    H1 1509   4.596   1.756   2.849  0.7482  0.3131 -1.8109
  515TIP3    H2 1510   4.493   1.843   2.780  1.1840  0.6845 -2.0010
  516TIP3   OH2 1511   4.213   0.683   3.013 -0.1296 -0.3015  0.3087
  516TIP3    H1 1512   4.140   0.690   2.951  0.3761  1.9074 -0.1098
  516TIP3    H2 1513   4.280   0.633   2.966 -1.4276 -2.6758  0.8277
  517TIP3   OH2 1514   0.014   0.339   4.894 -0.0470  0.1530  0.0315
  517TIP3    H1 1515   0.013   0.399   4.968 -1.0984 -0.6350  0.6766
  517TIP3    H2 1516   0.107   0.327   4.873  0.2048  1.3917  0.3708
  518TIP3   OH2 1517   6.156   5.357   2.937 -0.0837 -0.0942 -0.0101
  518TIP3    H1 1518   6.108   5.369   3.019 -0.9300 -1.2011 -0.3185
  518TIP3    H2 1519   6.101   5.298   2.885  0.1316  1.0497 -1.6374
  519TIP3   OH2 1520   0.756   3.173   0.342  0.2053  0.1875  0.2311
  519TIP3    H1 1521   0.698   3.124   0.283  0.8561  1.0849 -1.2209
  519TIP3    H2 1522   0.805   3.106   0.388  0.8414 -0.5789 -1.4658
  520TIP3   OH2 1523   6.236   5.645   1.130 -0.5003  0.2748  0.7892
  520TIP3    H1 1524   6.221   5.736   1.102 -0.1686  0.8596  2.3828
  520TIP3    H2 1525   6.156   5.622   1.177 -0.5566 -0.2420  0.4408
  521TIP3   OH2 1526   1.991   6.451   4.306  0.6652  0.6619 -0.2347
  521TIP3    H1 1527   1.917   6.508   4.328 -0.3035 -0.9252  0.8942
  521TIP3    H2 1528   2.062   6.480   4.362  0.1937  0.8143  0.2935
  522TIP3   OH2 1529   6.561   3.257   4.848  0.4369 -0.1726  0.0296
  522TIP3    H1 1530   6.562   3.269   4.753 -0.1297  0.4588  0.0981
  522TIP3    H2 1531   6.569   3.345   4.884  3.4964 -0.5695  0.6142
  523TIP3   OH2 1532   0.705   3.191   0.778 -0.1505 -0.8120 -0.0956
  523TIP3    H1 1533   0.795   3.217   0.797 -0.8539  0.1361  2.2473
  523TIP3    H2 1534   0.701   3.098   0.801  0.0144 -0.6229  0.7356
  524TIP3   OH2 1535   0.294   3.858   5.879  0.1480 -0.1838  0.3414
  524TIP3    H1 1536   0.279   3.799   5.805  0.4388 -1.1222  1.0081
  524TIP3    H2 1537   0.299   3.800   5.955 -0.7103  0.7962  1.1910
  525TIP3   OH2 1538   2.052   3.989   1.331 -0.5680  0.1091  0.3015
  525TIP3    H1 1539   2.130   4.002   1.277 -0.3618 -1.0410  0.3092
  525TIP3    H2 1540   1.990   4.055   1.300 -0.2875 -0.2241 -1.0131
  526TIP3   OH2 1541   6.965   1.008   2.203 -0.4647 -0.1521 -0.4496
  526TIP3    H1 1542   7.026   1.075   2.233 -2.5464  0.9074  1.8524
  526TIP3    H2 1543   6.967   0.941   2.272 -0.5050 -1.0401 -1.2993
  527TIP3   OH2 1544   2.494   0.351   1.913  0.9383  0.2833  0.1631
  527TIP3    H1 1545   2.558   0.422   1.922  1.0615  0.1855  0.0616
  527TIP3    H2 1546   2.492   0.333   1.819  0.9175  0.1433  0.1900
  528TIP3   OH2 1547   2.790   4.877   2.280  0.3550 -0.0102  0.0302
  528TIP3    H1 1548   2.881   4.854   2.299  0.5083 -0.6429 -1.3894
  528TIP3    H2 1549   2.795   4.948   2.216 -0.1606  0.9658  1.0390
  529TIP3   OH2 1550   2.370   4.650   3.280  0.4938  0.2920 -0.1577
  529TIP3    H1 1551   2.454   4.605   3.280  0.5909  0.4766  0.0718
  529TIP3    H2 1552   2.355   4.672   3.188 -0.7295 -2.4086 -0.6977
  530TIP3   OH2 1553   4.453   0.961   2.202  0.2525  0.3519  0.1905
  530TIP3    H1 1554   4.445   0.874   2.241  1.8844 -0.3027 -0.8051
  530TIP3    H2 1555   4.433   1.021   2.273 -1.7102 -0.8083  0.7093
  531TIP3   OH2 1556   5.962   5.408   5.231 -0.2047  1.2164  0.4518
  531TIP3    H1 1557   5.905   5.390   5.306  1.9364 -0.7167  1.7708
  531TIP3    H2 1558   6.010   5.487   5.256  0.2833  0.7531  1.0028
  532TIP3   OH2 1559   3.317   0.319   4.448 -0.0627 -0.3320  0.1242
  532TIP3    H1 1560   3.334   0.357   4.534  1.5886  2.4249 -1.2469
  532TIP3    H2 1561   3.385   0.253   4.437  2.6543  2.3527 -0.6302
  533TIP3   OH2 1562   3.031   6.586   4.788  0.0972  0.0607 -0.0430
  533TIP3    H1 1563   3.047   6.680   4.791 -1.1012  0.3133 -0.6966
  533TIP3    H2 1564   3.046   6.563   4.696  1.4879 -0.6202  0.3294
  534TIP3   OH2 1565   4.058   3.857   0.999  0.2391 -0.0493 -0.2081
  534TIP3    H1 1566   3.964   3.850   0.983 -0.1006 -2.2798  2.1571
  534TIP3    H2 1567   4.065   3.887   1.090  1.7474 -1.7420  0.2917
  535TIP3   OH2 1568   3.284   1.659   3.015  0.0713 -0.0429  0.1739
  535TIP3    H1 1569   3.259   1.616   2.933  1.6324  2.3829 -1.7173
  535TIP3    H2 1570   3.358   1.608   3.048 -0.1125 -0.6317 -0.3117
  536TIP3   OH2 1571   3.470   2.587   4.113 -0.2279 -0.0111 -0.0806
  536TIP3    H1 1572   3.382   2.575   4.149 -0.4833  3.9091  1.1009
  536TIP3    H2 1573   3.524   2.608   4.189  1.3406 -0.4822 -1.0205
  537TIP3   OH2 1574   6.311   2.637   2.591 -0.6945  0.1792  0.0587
  537TIP3    H1 1575   6.376   2.619   2.523 -0.5782 -0.1644  0.2579
  537TIP3    H2 1576   6.332   2.576   2.662 -1.9204 -0.7360 -0.3209
  538TIP3   OH2 1577   2.513   2.121   2.596 -1.3946  0.8497  0.3310
  538TIP3    H1 1578   2.463   2.061   2.540  1.1014  0.4987 -1.7037
  538TIP3    H2 1579   2.550   2.065   2.664 -0.9144  0.4417 -0.2485
  539TIP3   OH2 1580   0.973   0.560   2.998  0.2091  0.1941 -0.7246
  539TIP3    H1 1581   1.005   0.637   2.950  0.2490  0.0559 -0.9218
  539TIP3    H2 1582   0.953   0.496   2.929  0.5940 -0.1290 -0.5363
  540TIP3   OH2 1583   3.559   1.949   0.280  0.0177 -0.3728  0.0382
  540TIP3    H1 1584   3.541   1.995   0.197  1.6242  0.6455  0.2067
  540TIP3    H2 1585   3.654   1.955   0.290 -0.2725  1.4941  3.0148
  541TIP3   OH2 1586   1.799   4.748   5.533 -0.1938  0.2809  0.0684
  541TIP3    H1 1587   1.705   4.739   5.516  0.2404 -1.9874 -1.7263
  541TIP3    H2 1588   1.805   4.819   5.597 -3.0812  0.7460 -0.0114
  542TIP3   OH2 1589   0.358   1.338   0.417  0.2704  0.4147  0.5538
  542TIP3    H1 1590   0.341   1.245   0.431 -0.9911  0.8650  2.4352
  542TIP3    H2 1591   0.288   1.366   0.358  0.0349  0.3709  0.8102
  543TIP3   OH2 1592   2.983   0.628   2.979  0.0609  0.6170 -0.0145
  543TIP3    H1 1593   3.034   0.594   3.053 -0.7601 -2.2130 -0.6058
  543TIP3    H2 1594   2.916   0.684   3.019  0.6402  0.4591  1.2237
  544TIP3   OH2 1595   2.423   2.700   1.089  0.7000 -0.5112  0.2847
  544TIP3    H1 1596   2.399   2.777   1.038  1.9588  1.2770  2.2269
  544TIP3    H2 1597   2.344   2.646   1.089 -0.7965  1.5566  0.2189
  545TIP3   OH2 1598   1.660   2.767   4.445 -0.3019  0.1907 -0.4009
  545TIP3    H1 1599   1.604   2.722   4.508 -0.6599 -0.4049 -1.1226
  545TIP3    H2 1600   1.625   2.855   4.439 -0.4084  0.1784  0.0590
  546TIP3   OH2 1601   2.842   0.476   0.026 -0.3613 -0.3185 -0.4377
  546TIP3    H1 1602   2.816   0.567   0.035  2.6291  0.7313 -1.1960
  546TIP3    H2 1603   2.900   0.460   0.100 -1.8271 -2.0652  0.4089
  547TIP3   OH2 1604   5.431   2.971   4.529 -0.0597  0.0907  0.1309
  547TIP3    H1 1605   5.386   2.969   4.614  0.7625  0.8165  0.6092
  547TIP3    H2 1606   5.500   2.905   4.536 -0.1350 -0.0088 -0.0577
  548TIP3   OH2 1607   0.845   2.449   3.761 -0.0468  0.1621  0.0751
  548TIP3    H1 1608   0.913   2.413   3.818 -0.5751 -0.2233  0.4750
  548TIP3    H2 1609   0.778   2.480   3.822 -0.9806 -0.9673 -0.3644
  549TIP3   OH2 1610   3.469   5.218   3.873 -0.2241 -0.0940 -0.6745
  549TIP3    H1 1611   3.559   5.234   3.902  0.2138  0.3991 -2.1874
  549TIP3    H2 1612   3.433   5.305   3.856 -1.1232 -0.2672  0.2434
  550TIP3   OH2 1613   0.114   5.491   3.873  0.2212 -0.2918 -0.1048
  550TIP3    H1 1614   0.019   5.496   3.872  0.1157 -1.6918  0.5181
  550TIP3    H2 1615   0.134   5.410   3.920  1.7382  0.2803  0.3307
  551TIP3   OH2 1616   2.571   3.392   5.183  0.1300  0.0961 -0.1855
  551TIP3    H1 1617   2.552   3.319   5.241  0.8555 -0.2557 -0.3763
  551TIP3    H2 1618   2.602   3.462   5.242  0.2675 -0.0494 -0.0837
  552TIP3   OH2 1619   0.045   3.059   5.422  0.4366  0.0487 -0.4903
  552TIP3    H1 1620   0.019   2.994   5.357  0.8075 -2.0317  1.2965
  552TIP3    H2 1621   0.133   3.086   5.396  0.3811 -0.3660 -1.1226
  553TIP3   OH2 1622   0.619   6.746   4.520  0.3731  0.4467 -0.0052
  553TIP3    H1 1623   0.636   6.840   4.516 -0.2961  0.5917  0.3711
  553TIP3    H2 1624   0.700   6.705   4.489  0.7929  1.1370  0.1603
  554TIP3   OH2 1625   5.384   3.807   0.868 -0.2537 -0.2493 -0.0618
  554TIP3    H1 1626   5.361   3.718   0.893 -0.5014 -0.0067  0.6123
  554TIP3    H2 1627   5.322   3.862   0.916 -0.1693  0.2810 -0.5439
  555TIP3   OH2 1628   2.663   1.571   4.257  0.0532 -0.2791 -0.2154
  555TIP3    H1 1629   2.751   1.597   4.230 -0.4370  1.0457 -0.6121
  555TIP3    H2 1630   2.677   1.507   4.327  1.3280  0.6357  0.4057
  556TIP3   OH2 1631   2.432   4.020   3.214 -0.1733 -0.2451 -0.4443
  556TIP3    H1 1632   2.489   3.991   3.143 -1.0207 -2.4706 -0.2967
  556TIP3    H2 1633   2.463   3.972   3.290 -0.4305  0.7338  0.3008
  557TIP3   OH2 1634   1.751   5.440   3.501 -0.0348  0.4393 -0.1028
  557TIP3    H1 1635   1.708   5.511   3.547 -0.1577  0.5308 -0.3617
  557TIP3    H2 1636   1.840   5.472   3.484  0.1860  0.1918  0.5666
  558TIP3   OH2 1637   6.219   5.536   1.866  0.7479  0.0828  0.1680
  558TIP3    H1 1638   6.163   5.602   1.906 -0.6204 -2.2253  2.3396
  558TIP3    H2 1639   6.177   5.515   1.783  0.3903  0.8592  0.1430
  559TIP3   OH2 1640   1.089   2.823   0.489  0.1414  0.1295  0.4848
  559TIP3    H1 1641   1.065   2.765   0.561 -0.0857 -0.0991  0.2292
  559TIP3    H2 1642   1.159   2.878   0.524  1.0532 -0.9570  0.4434
  560TIP3   OH2 1643   0.960   1.162   0.564  0.2548 -0.1326  0.3711
  560TIP3    H1 1644   1.042   1.113   0.564  0.6938  0.4847 -1.6944
  560TIP3    H2 1645   0.986   1.254   0.572 -0.2575  0.0370  0.1964
  561TIP3   OH2 1646   1.524   2.384   4.280 -0.3842 -0.1433 -0.3164
  561TIP3    H1 1647   1.541   2.295   4.247 -0.8134 -0.9323  1.4675
  561TIP3    H2 1648   1.432   2.383   4.306 -0.4036  0.8479 -0.3159
  562TIP3   OH2 1649   5.014   4.659   4.774  0.4588  0.3058 -0.2289
  562TIP3    H1 1650   5.064   4.649   4.855  1.0812  0.6055 -0.5646
  562TIP3    H2 1651   5.051   4.738   4.733 -0.1414  0.4021 -0.5938
  563TIP3   OH2 1652   3.942   1.202   0.246 -0.2733  0.6706 -0.1739
  563TIP3    H1 1653   4.023   1.156   0.270  0.8738  1.2613 -2.5577
  563TIP3    H2 1654   3.900   1.145   0.182 -0.5037  1.4448 -0.7219
  564TIP3   OH2 1655   2.901   5.193   0.882 -0.2463 -0.3421  0.0189
  564TIP3    H1 1656   2.994   5.179   0.897 -0.1291 -0.4668 -0.7668
  564TIP3    H2 1657   2.858   5.121   0.928  0.0268 -0.1390  0.5981
  565TIP3   OH2 1658   1.052   0.308   1.794  0.2952  0.1670  0.4468
  565TIP3    H1 1659   1.092   0.366   1.860 -0.9495 -0.6199  1.9648
  565TIP3    H2 1660   1.095   0.332   1.712  2.0640  1.0506  1.5683
  566TIP3   OH2 1661   4.497   1.612   1.887  0.1347  0.3307 -0.4168
  566TIP3    H1 1662   4.456   1.527   1.902 -2.4364  1.6240  0.5056
  566TIP3    H2 1663   4.480   1.631   1.795 -0.7910  0.5663 -0.2027
  567TIP3   OH2 1664   4.962   2.196   1.755  0.1390  0.2223 -0.3018
  567TIP3    H1 1665   4.995   2.106   1.764  0.1852  0.4384  2.1765
  567TIP3    H2 1666   5.040   2.250   1.756  0.0374  0.3713 -0.4264
  568TIP3   OH2 1667   3.593   2.853   3.551  0.4175  0.1121  0.0191
  568TIP3    H1 1668   3.607   2.759   3.538  0.1754  0.1182 -0.3069
  568TIP3    H2 1669   3.584   2.888   3.463  1.2098  0.5584  0.1017
  569TIP3   OH2 1670   1.710   5.704   2.835 -0.4017  0.1167 -0.5531
  569TIP3    H1 1671   1.735   5.791   2.863 -0.4497 -0.0893  0.1481
  569TIP3    H2 1672   1.616   5.698   2.856 -0.0764 -0.6300  0.8342
  570TIP3   OH2 1673   2.536   3.966   4.372 -0.1363  0.0170  0.1121
  570TIP3    H1 1674   2.478   3.927   4.307 -0.2582  0.8726 -0.3040
  570TIP3    H2 1675   2.532   4.060   4.355  0.4397  0.1886  0.8536
  571TIP3   OH2 1676   0.223   2.490   5.536  0.2875  0.1012  0.0371
  571TIP3    H1 1677   0.176   2.409   5.552  2.9066 -1.5122  0.0755
  571TIP3    H2 1678   0.155   2.557   5.532 -1.8906 -1.9464  0.8219
  572TIP3   OH2 1679   0.415   6.626   1.995 -0.0177 -0.6119  0.7901
  572TIP3    H1 1680   0.378   6.695   1.941  0.7813 -0.5422  0.3069
  572TIP3    H2 1681   0.439   6.669   2.077 -1.0356 -0.6716  1.1267
  573TIP3   OH2 1682   5.463   0.172   1.139 -0.4210 -0.0440  0.0905
  573TIP3    H1 1683   5.474   0.267   1.131  0.8564 -0.3184 -2.1812
  573TIP3    H2 1684   5.371   0.158   1.116 -0.3907  0.5710 -0.4482
  574TIP3   OH2 1685   3.788   6.125   4.070  0.4323 -0.2280  0.4985
  574TIP3    H1 1686   3.851   6.114   3.999 -1.3090 -1.1294 -0.9974
  574TIP3    H2 1687   3.763   6.217   4.065 -0.8049 -0.6070 -1.1300
  575TIP3   OH2 1688   3.469   5.380   5.005  0.2681  0.1379  0.5161
  575TIP3    H1 1689   3.402   5.449   5.015  0.6382  0.3877  1.3082
  575TIP3    H2 1690   3.544   5.426   4.967  0.2814  0.0265  0.4074
  576TIP3   OH2 1691   0.012   0.222   4.113 -0.2187 -0.7268 -0.5074
  576TIP3    H1 1692   0.060   0.237   4.194  0.5257  0.4253 -1.1260
  576TIP3    H2 1693   0.078   0.229   4.044 -0.9824 -0.8060 -1.2625
  577TIP3   OH2 1694   6.374   4.820   3.403 -0.1041 -0.2115  0.1582
  577TIP3    H1 1695   6.285   4.785   3.399 -0.8466  1.6449 -0.5360
  577TIP3    H2 1696   6.378   4.867   3.486  0.2917 -0.4252  0.2631
  578TIP3   OH2 1697   4.581   5.008   3.034  0.1931 -0.3378  0.2767
  578TIP3    H1 1698   4.658   5.010   2.977  0.6236  1.2434  0.8659
  578TIP3    H2 1699   4.514   5.057   2.986  0.0875 -0.2687  0.4938
  579TIP3   OH2 1700   0.626   4.718   3.098 -0.2350  0.4053  0.7898
  579TIP3    H1 1701   0.710   4.680   3.122 -0.4691 -0.1893  0.6947
  579TIP3    H2 1702   0.564   4.682   3.162 -0.9265 -1.4404 -0.7975
  580TIP3   OH2 1703   5.635   4.420   0.374 -0.0965 -0.0744 -0.5661
  580TIP3    H1 1704   5.576   4.400   0.447  0.0077 -1.2173 -0.7789
  580TIP3    H2 1705   5.610   4.509   0.346 -1.8229 -0.5889 -0.7606
  581TIP3   OH2 1706   0.592   2.015   1.444  0.1174  0.0419 -0.0020
  581TIP3    H1 1707   0.685   2.003   1.462  0.3658  0.2724 -1.0695
  581TIP3    H2 1708   0.572   1.948   1.379  0.4327  2.2646 -2.5568
  582TIP3   OH2 1709   5.719   3.179   1.294  0.1431 -0.0343 -0.3359
  582TIP3    H1 1710   5.753   3.093   1.319 -1.3360 -0.8026 -0.8315
  582TIP3    H2 1711   5.631   3.182   1.332 -0.3379  0.7099 -1.4690
  583TIP3   OH2 1712   4.816   1.218   4.358 -0.5789 -0.7428 -0.1996
  583TIP3    H1 1713   4.723   1.208   4.337 -0.7429  0.8894 -0.3975
  583TIP3    H2 1714   4.816   1.264   4.442  0.0495 -0.7313 -0.2018
  584TIP3   OH2 1715   3.689   6.001   1.632 -0.2147  0.6569 -0.2447
  584TIP3    H1 1716   3.781   6.022   1.614 -0.5308  1.3552 -1.1449
  584TIP3    H2 1717   3.641   6.039   1.558 -1.1055 -0.7990 -0.4485
  585TIP3   OH2 1718   0.738   6.241   3.527 -0.5686 -0.5628  0.2801
  585TIP3    H1 1719   0.800   6.244   3.454  1.2330  1.3878  1.7710
  585TIP3    H2 1720   0.758   6.319   3.579 -5.7613  1.4887 -0.2025
  586TIP3   OH2 1721   1.822   5.562   5.865 -0.1067 -0.3888 -0.1149
  586TIP3    H1 1722   1.880   5.638   5.871 -0.7531  0.2925 -1.8417
  586TIP3    H2 1723   1.878   5.488   5.885  0.7744  0.4466  0.6338
  587TIP3   OH2 1724   1.690   2.716   5.126  0.0338  0.2671  0.2097
  587TIP3    H1 1725   1.695   2.632   5.081  1.5237 -0.0542  0.9322
  587TIP3    H2 1726   1.780   2.737   5.149 -0.2381  2.3137 -0.3777
  588TIP3   OH2 1727   6.181   4.669   4.233  0.1565 -0.5514  0.1526
  588TIP3    H1 1728   6.231   4.749   4.245  1.3672 -1.1729 -0.5113
  588TIP3    H2 1729   6.125   4.664   4.309 -0.2823  1.1574 -0.0197
  589TIP3   OH2 1730   6.351   1.559   5.244 -0.2017  0.7079 -0.5282
  589TIP3    H1 1731   6.319   1.483   5.294  0.3679  1.0998  0.4612
  589TIP3    H2 1732   6.308   1.634   5.285  0.7636  1.0931 -0.2035
  590TIP3   OH2 1733   6.549   0.802  -0.028  0.2677 -0.6061 -0.0336
  590TIP3    H1 1734   6.548   0.886   0.018  1.9713 -1.1665  1.1113
  590TIP3    H2 1735   6.477   0.753   0.012  0.6866 -0.4878  0.8862
  591TIP3   OH2 1736   2.655   5.044   0.333 -0.5068  0.0438 -0.3361
  591TIP3    H1 1737   2.673   5.136   0.313 -0.3699 -0.1148 -0.9877
  591TIP3    H2 1738   2.723   5.020   0.396 -0.2234  0.2533 -0.5539
  592TIP3   OH2 1739   4.729   3.106   0.464  0.2836 -0.1189 -0.2074
  592TIP3    H1 1740   4.721   3.077   0.374  1.1896  0.4675 -0.4926
  592TIP3    H2 1741   4.792   3.178   0.461 -1.2656  1.3349  0.5841
  593TIP3   OH2 1742   2.813   2.358   3.020  0.1024 -0.0551  0.4801
  593TIP3    H1 1743   2.896   2.322   3.049  0.2082 -0.1079  0.1152
  593TIP3    H2 1744   2.762   2.368   3.100 -0.0703 -1.3660  0.5424
  594TIP3   OH2 1745   5.338   5.341   3.515  0.1745 -0.2816 -0.2616
  594TIP3    H1 1746   5.261   5.300   3.475 -0.2548 -0.5205  0.7724
  594TIP3    H2 1747   5.315   5.433   3.522 -0.6296 -0.5837  1.3820
  595TIP3   OH2 1748   2.741   2.942   3.305 -0.0144 -0.2718  0.0003
  595TIP3    H1 1749   2.674   2.941   3.237  1.4157 -0.5063 -1.4865
  595TIP3    H2 1750   2.813   2.891   3.268  1.4056  0.8576  1.0746
  596TIP3   OH2 1751   2.748   3.746   0.091  0.4012  0.3286 -0.1441
  596TIP3    H1 1752   2.754   3.651   0.078  0.2458  0.4130 -0.8608
  596TIP3    H2 1753   2.756   3.758   0.186  0.4977 -0.3939 -0.0576
  597TIP3   OH2 1754   2.682   4.671   1.502  0.1819 -0.2733 -0.1553
  597TIP3    H1 1755   2.671   4.591   1.553  2.3014 -0.4571  0.0859
  597TIP3    H2 1756   2.711   4.641   1.416  0.3946  0.2232 -0.2563
  598TIP3   OH2 1757   4.679   4.625   3.058  0.2013 -0.0853 -0.1304
  598TIP3    H1 1758   4.613   4.668   3.004 -0.7703 -0.3928  0.7802
  598TIP3    H2 1759   4.679   4.674   3.140  0.1332 -0.9105  0.3774
  599TIP3   OH2 1760   0.254   4.812   0.168  0.4507  0.2507  0.1475
  599TIP3    H1 1761   0.218   4.724   0.181  1.0056  0.2543  1.9633
  599TIP3    H2 1762   0.209   4.844   0.090 -2.1276 -0.4612  1.2075
  600TIP3   OH2 1763   5.384   0.036   1.768 -0.0203  0.1185  0.6088
  600TIP3    H1 1764   5.460   0.035   1.826 -1.2620  2.3177  2.4283
  600TIP3    H2 1765   5.342  -0.049   1.782  0.5917 -0.0146  1.7364
  601TIP3   OH2 1766   1.773   0.315   1.906  0.3739 -0.2255 -0.3333
  601TIP3    H1 1767   1.772   0.290   1.814 -2.4017 -0.9184 -0.2011
  601TIP3    H2 1768   1.722   0.247   1.950 -0.1846  1.2106  1.3762
  602TIP3   OH2 1769   5.489   2.483   0.714 -0.4896 -0.0415 -0.1858
  602TIP3    H1 1770   5.488   2.388   0.719  0.4464 -0.0681  4.5441
  602TIP3    H2 1771   5.582   2.507   0.717 -0.7330  0.9983 -0.4092
  603TIP3   OH2 1772   2.405   3.976   0.706 -0.0743 -0.0343 -0.6383
  603TIP3    H1 1773   2.391   3.881   0.703  0.0753 -0.1290  1.0367
  603TIP3    H2 1774   2.321   4.011   0.734  0.3395  0.1701  0.3875
  604TIP3   OH2 1775   6.233   0.289   2.354 -0.4491  0.9815  0.2460
  604TIP3    H1 1776   6.212   0.303   2.446  1.0841 -0.4122  0.8576
  604TIP3    H2 1777   6.176   0.217   2.327 -0.4849  0.9975  0.2793
  605TIP3   OH2 1778   4.418   6.283   5.142  0.7746 -0.0216 -0.4323
  605TIP3    H1 1779   4.477   6.229   5.195 -0.3451 -0.7795  0.0735
  605TIP3    H2 1780   4.396   6.356   5.200 -1.3804 -1.4464  0.6783
  606TIP3   OH2 1781   5.807   3.445   1.819  1.0051 -0.0779 -0.0427
  606TIP3    H1 1782   5.738   3.500   1.855  1.7892  1.7324 -1.1824
  606TIP3    H2 1783   5.863   3.424   1.894  1.3342  1.6818  0.2416
  607TIP3   OH2 1784   1.226   1.735   5.195  0.1696 -0.3710 -0.0927
  607TIP3    H1 1785   1.187   1.699   5.275 -0.1633 -1.1675 -0.6057
  607TIP3    H2 1786   1.152   1.766   5.144  0.4278  0.7647  0.1871
  608TIP3   OH2 1787   5.650   2.898   2.784  0.1877  0.1331 -0.0593
  608TIP3    H1 1788   5.725   2.845   2.758 -0.1133 -0.8586  1.0039
  608TIP3    H2 1789   5.680   2.945   2.862  0.0622  0.5969 -0.2886
  609TIP3   OH2 1790   5.925   3.870   2.161  0.4895  0.1707  0.2434
  609TIP3    H1 1791   5.957   3.943   2.213 -1.2321  0.7033  0.6323
  609TIP3    H2 1792   6.001   3.813   2.150  1.1097  0.4019  2.7090
  610TIP3   OH2 1793   0.621   1.361   1.075 -0.6302 -0.1325 -0.0262
  610TIP3    H1 1794   0.582   1.277   1.049  0.0645 -0.7817  0.9245
  610TIP3    H2 1795   0.599   1.369   1.168  2.2681 -1.0437  0.8461
  611TIP3   OH2 1796   6.996   1.962   1.618  0.3696  0.0525  0.7460
  611TIP3    H1 1797   7.010   2.049   1.579 -0.3728 -0.3816 -0.5692
  611TIP3    H2 1798   6.959   1.980   1.704  0.9537  1.0467  0.8099
  612TIP3   OH2 1799   2.286   1.686   0.981 -0.0973  0.5056 -0.1670
  612TIP3    H1 1800   2.256   1.777   0.984 -0.0163  0.5289 -0.0688
  612TIP3    H2 1801   2.292   1.666   0.887 -1.5285  0.1422 -0.2056
  613TIP3   OH2 1802   5.080   5.874   3.017 -0.2051 -0.5165 -0.0466
  613TIP3    H1 1803   5.023   5.882   2.941 -0.5919 -2.1636  0.0221
  613TIP3    H2 1804   5.167   5.858   2.981 -0.3991 -1.3574 -0.1569
  614TIP3   OH2 1805   2.417   6.407   2.313  0.8196 -0.4840 -0.1587
  614TIP3    H1 1806   2.344   6.378   2.368  0.0657 -0.4392 -1.1053
  614TIP3    H2 1807   2.492   6.356   2.344 -0.0151 -1.8935 -0.3658
  615TIP3   OH2 1808   5.761   5.166   3.036  0.8521 -0.0478 -0.1424
  615TIP3    H1 1809   5.670   5.171   3.008  0.7064  1.4986  0.5142
  615TIP3    H2 1810   5.809   5.218   2.971  1.1559 -0.2272 -0.0656
  616TIP3   OH2 1811   5.329   5.012   4.565 -0.0043  0.3710 -0.1957
  616TIP3    H1 1812   5.414   5.021   4.607  0.1162 -0.0565 -0.3488
  616TIP3    H2 1813   5.344   5.038   4.474 -0.1430  0.7486 -0.1147
  617TIP3   OH2 1814   4.412   1.366   1.957  0.2315  0.2401  0.1877
  617TIP3    H1 1815   4.423   1.271   1.967  1.2561  0.3440  0.1541
  617TIP3    H2 1816   4.331   1.386   2.005 -0.1212 -0.6789  0.0035
  618TIP3   OH2 1817   0.994   3.945   1.223 -0.3185 -0.0330 -0.3233
  618TIP3    H1 1818   0.972   3.926   1.132 -0.6256 -1.4462  0.0130
  618TIP3    H2 1819   0.924   3.903   1.274 -0.9941  2.0076  0.5447
  619TIP3   OH2 1820   2.320   3.331   2.753  0.5176  0.3845 -0.2220
  619TIP3    H1 1821   2.302   3.243   2.786 -0.5831  0.6987  0.0592
  619TIP3    H2 1822   2.307   3.325   2.659 -3.0023  0.9860  0.1109
  620TIP3   OH2 1823   2.545   0.784   3.841  0.0615 -0.4858 -0.5345
  620TIP3    H1 1824   2.576   0.869   3.810  1.3030 -1.2803 -1.5574
  620TIP3    H2 1825   2.583   0.775   3.929  1.1149 -0.5686 -0.9789
  621TIP3   OH2 1826   4.548   1.538   3.516  0.1596  0.5875  0.2176
  621TIP3    H1 1827   4.496   1.458   3.513 -0.1439  0.8079 -1.4997
  621TIP3    H2 1828   4.615   1.526   3.449 -0.1027  1.8815 -0.3213
  622TIP3   OH2 1829   4.331   2.115   1.459  0.2456  0.5605  0.0357
  622TIP3    H1 1830   4.280   2.036   1.439 -0.0449  0.9118 -0.6278
  622TIP3    H2 1831   4.356   2.150   1.374  2.9079 -0.4165  0.3160
  623TIP3   OH2 1832   0.477   1.123   2.364 -0.1149  0.5091 -0.0168
  623TIP3    H1 1833   0.502   1.138   2.455 -1.7163  1.1778  0.3464
  623TIP3    H2 1834   0.421   1.198   2.342 -0.6296 -0.2026 -1.2105
  624TIP3   OH2 1835   2.713   3.320   0.514 -0.3587  0.0470  0.2993
  624TIP3    H1 1836   2.696   3.233   0.477  1.2708  0.8801 -2.7158
  624TIP3    H2 1837   2.671   3.381   0.454  0.4998  1.4244  1.0403
  625TIP3   OH2 1838   3.159   0.550   4.386  0.2299  0.2908  0.0960
  625TIP3    H1 1839   3.208   0.621   4.428  0.9901  1.2512 -2.2517
  625TIP3    H2 1840   3.202   0.470   4.415  2.0789  1.0236 -0.4615
  626TIP3   OH2 1841   5.619   2.066   1.122 -0.2854 -0.3607  0.0667
  626TIP3    H1 1842   5.670   2.135   1.080 -1.2171  1.1247  1.2936
  626TIP3    H2 1843   5.629   1.990   1.064  0.9967  0.7069 -1.1634
  627TIP3   OH2 1844   4.592   5.021   2.631  0.6584  0.1984  0.2179
  627TIP3    H1 1845   4.611   5.098   2.578 -0.8232  0.3585 -0.1145
  627TIP3    H2 1846   4.534   5.053   2.700  1.0745 -0.3795  0.8569
  628TIP3   OH2 1847   0.272   0.398   2.693  0.1668  0.1239 -0.3892
  628TIP3    H1 1848   0.279   0.321   2.636 -0.4354  0.1647 -0.5206
  628TIP3    H2 1849   0.352   0.447   2.676  0.4101 -0.3162 -0.5386
  629TIP3   OH2 1850   0.610   5.833   2.072  0.3576 -0.0357 -0.3985
  629TIP3    H1 1851   0.691   5.804   2.030  0.8108 -0.6972  0.9030
  629TIP3    H2 1852   0.552   5.758   2.067 -0.4869  0.6686 -1.9951
  630TIP3   OH2 1853   1.360   4.341   4.743  0.0550 -0.0322  0.3563
  630TIP3    H1 1854   1.371   4.316   4.834 -1.8845 -0.6779  0.4527
  630TIP3    H2 1855   1.302   4.417   4.745 -0.4797 -0.4107 -0.3668
  631TIP3   OH2 1856   3.439   3.804   3.635 -0.4917 -0.3862  0.4698
  631TIP3    H1 1857   3.344   3.803   3.646 -0.6085 -2.3637 -0.3688
  631TIP3    H2 1858   3.465   3.891   3.666 -2.5135  0.0772  1.0555
  632TIP3   OH2 1859   5.296   4.408   2.592  0.8619 -0.0687  0.3612
  632TIP3    H1 1860   5.384   4.435   2.619  1.1835  0.3815 -1.0490
  632TIP3    H2 1861   5.249   4.491   2.579  1.0040 -0.2099 -1.2924
  633TIP3   OH2 1862   5.866   0.546   0.220  0.5021 -0.3084 -0.7234
  633TIP3    H1 1863   5.828   0.482   0.280  0.1417 -0.6221 -1.2777
  633TIP3    H2 1864   5.896   0.494   0.146  1.4423  0.0101 -0.5777
  634TIP3   OH2 1865   6.368   6.165   4.404  0.4283  0.3907  0.7796
  634TIP3    H1 1866   6.440   6.172   4.341  0.4399  0.9714  0.8523
  634TIP3    H2 1867   6.305   6.231   4.376  0.0567  0.0857  0.8938
  635TIP3   OH2 1868   2.709   0.554   3.930  0.1099  0.1206  0.3195
  635TIP3    H1 1869   2.651   0.553   3.853  0.2750 -1.1088  0.1896
  635TIP3    H2 1870   2.673   0.487   3.987  0.7930  0.0847  0.7099
  636TIP3   OH2 1871   3.833   0.336   3.970 -0.2315 -0.2481  0.1280
  636TIP3    H1 1872   3.822   0.430   3.986 -0.6463 -0.2432 -0.1519
  636TIP3    H2 1873   3.787   0.294   4.043 -0.5308 -0.2281 -0.0446
  637TIP3   OH2 1874   5.803   4.064   1.029 -0.4401 -0.5596  0.3560
  637TIP3    H1 1875   5.745   4.005   0.981 -1.5732 -0.0321  1.0268
  637TIP3    H2 1876   5.744   4.128   1.069  0.5649 -0.3496  1.5564
  638TIP3   OH2 1877   5.587   5.372   1.344 -0.0681  0.0079  0.2489
  638TIP3    H1 1878   5.595   5.282   1.310 -0.8092  0.3735 -0.9713
  638TIP3    H2 1879   5.494   5.381   1.365 -0.1098  0.6535 -0.1715
  639TIP3   OH2 1880   7.090   5.291   4.567 -0.7385 -0.0838 -1.2438
  639TIP3    H1 1881   7.143   5.369   4.581  0.1513 -1.1924  3.0759
  639TIP3    H2 1882   7.000   5.323   4.568 -0.3358  1.1414 -2.2418
  640TIP3   OH2 1883   1.974   1.456   2.998  0.3882 -0.1503  0.5893
  640TIP3    H1 1884   1.908   1.523   2.980  0.4047 -0.2551  0.1420
  640TIP3    H2 1885   1.924   1.375   3.006  0.5964 -0.4717 -1.1503
  641TIP3   OH2 1886   1.445   5.682   2.254  0.1382 -0.5203 -0.2331
  641TIP3    H1 1887   1.445   5.590   2.228  2.6933 -1.0954  1.4606
  641TIP3    H2 1888   1.497   5.685   2.334  0.3342  2.4503 -0.3441
  642TIP3   OH2 1889   7.135   5.697   4.716 -0.2019  0.2214 -0.3698
  642TIP3    H1 1890   7.169   5.651   4.639  1.1865  1.7097 -0.6896
  642TIP3    H2 1891   7.121   5.787   4.686 -2.4990  0.1769  0.3391
  643TIP3   OH2 1892   1.764   6.735   1.411 -0.2227 -0.2829 -0.0855
  643TIP3    H1 1893   1.832   6.772   1.355  0.7793 -1.3852  0.3624
  643TIP3    H2 1894   1.693   6.799   1.408  0.5732  0.5930 -1.0668
  644TIP3   OH2 1895   2.275   3.764   1.647  0.1660  0.0707 -0.4801
  644TIP3    H1 1896   2.253   3.831   1.713 -1.1044  0.6712 -1.4561
  644TIP3    H2 1897   2.342   3.805   1.593 -0.6631  0.6206 -1.1208
  645TIP3   OH2 1898   1.500   4.661   4.182 -0.4280  0.2366  0.0311
  645TIP3    H1 1899   1.589   4.627   4.174 -1.3609 -2.4772 -0.1202
  645TIP3    H2 1900   1.506   4.752   4.155  1.7990 -0.6363 -2.9511
  646TIP3   OH2 1901   6.983   3.971   0.813 -0.3544 -0.3791 -0.7167
  646TIP3    H1 1902   7.041   4.004   0.744 -0.1564  0.7491 -0.0565
  646TIP3    H2 1903   6.995   3.877   0.812 -0.3603 -0.3882 -2.2153
  647TIP3   OH2 1904   7.007   6.491   2.063  0.8955  1.0007  0.1996
  647TIP3    H1 1905   7.067   6.422   2.034  0.5456 -0.3278  2.3733
  647TIP3    H2 1906   7.054   6.573   2.046  2.9271  0.0512  0.8931
  648TIP3   OH2 1907   1.483   1.278   5.491  0.3589  0.3307  0.0760
  648TIP3    H1 1908   1.397   1.296   5.530  1.1125  2.8069  0.8071
  648TIP3    H2 1909   1.500   1.186   5.511 -0.2013  0.9058  3.9890
  649TIP3   OH2 1910   3.343   3.221   1.590 -0.2393  0.2647 -0.4048
  649TIP3    H1 1911   3.286   3.213   1.667  0.1415 -0.9029 -0.2231
  649TIP3    H2 1912   3.358   3.315   1.582 -1.3229  0.5114  0.1791
  650TIP3   OH2 1913   5.727   1.194   2.095  0.2513 -0.4129 -0.2154
  650TIP3    H1 1914   5.790   1.228   2.158 -1.6889  0.6530  1.2636
  650TIP3    H2 1915   5.720   1.263   2.029  0.1703 -0.2391 -0.0288
  651TIP3   OH2 1916   2.990   2.922   1.908 -0.2072  0.1491  0.1167
  651TIP3    H1 1917   3.040   2.889   1.982  0.1180  1.9758  0.7646
  651TIP3    H2 1918   2.964   2.844   1.860  0.6413 -1.0105  1.4603
  652TIP3   OH2 1919   6.493   0.406   4.137 -0.8580  0.5139  0.4329
  652TIP3    H1 1920   6.570   0.359   4.170 -0.3822  0.2013 -1.0659
  652TIP3    H2 1921   6.463   0.456   4.213  1.4838  1.5408  0.7852
  653TIP3   OH2 1922   6.779   5.566   0.598 -0.0625 -0.6388 -0.1852
  653TIP3    H1 1923   6.834   5.634   0.637 -0.1573  0.0861 -1.3034
  653TIP3    H2 1924   6.798   5.488   0.651 -0.1239  0.2816  1.2492
  654TIP3   OH2 1925   0.536   0.667   2.312  0.0592 -0.1707  0.6171
  654TIP3    H1 1926   0.503   0.646   2.225 -0.9166 -0.7314  1.1035
  654TIP3    H2 1927   0.628   0.691   2.298  0.1603 -1.1086 -0.4496
  655TIP3   OH2 1928   5.276   1.543   2.472  0.0863 -0.9140  0.7025
  655TIP3    H1 1929   5.268   1.635   2.448  0.6447 -1.0557 -0.0598
  655TIP3    H2 1930   5.276   1.497   2.388  2.3034 -1.4178  0.9331
  656TIP3   OH2 1931   3.783   3.907   4.390  0.0683  0.3666  0.3478
  656TIP3    H1 1932   3.778   3.971   4.319  0.7510  0.9375  0.7920
  656TIP3    H2 1933   3.829   3.954   4.460  3.1816 -1.4177 -0.2791
  657TIP3   OH2 1934   6.509   3.446   1.694 -0.8993 -0.1281  0.4262
  657TIP3    H1 1935   6.431   3.499   1.707 -1.3978 -1.0852  1.4947
  657TIP3    H2 1936   6.513   3.388   1.771 -0.6844 -2.0233 -0.9235
  658TIP3   OH2 1937   1.438   5.331   0.413 -0.4560 -0.1380 -0.5468
  658TIP3    H1 1938   1.350   5.333   0.451  0.3387 -0.7514  1.4392
  658TIP3    H2 1939   1.474   5.418   0.432  0.5038 -0.9356  1.6767
  659TIP3   OH2 1940   4.532   5.861   0.870 -0.1610 -0.3302 -0.5236
  659TIP3    H1 1941   4.601   5.916   0.908  0.2209 -1.0561 -0.1384
  659TIP3    H2 1942   4.491   5.916   0.803 -0.0073  0.5268  0.0778
  660TIP3   OH2 1943   1.608   6.368   2.430 -0.3576 -0.5390 -0.3833
  660TIP3    H1 1944   1.578   6.336   2.345  0.6143 -1.8275 -0.2663
  660TIP3    H2 1945   1.612   6.289   2.485 -0.9553  0.2675  0.8626
  661TIP3   OH2 1946   0.313   2.676   5.126 -0.0888  0.1447  0.1896
  661TIP3    H1 1947   0.283   2.762   5.158  0.5603  0.6938 -0.6636
  661TIP3    H2 1948   0.232   2.629   5.107 -0.5146  1.6544 -2.1824
  662TIP3   OH2 1949   4.319   2.359   4.089 -0.2387  0.0946 -0.1543
  662TIP3    H1 1950   4.228   2.330   4.083 -0.0003 -0.8192  0.5549
  662TIP3    H2 1951   4.365   2.310   4.020  0.4014 -2.2722  1.8001
  663TIP3   OH2 1952   5.562   6.683   1.396  0.4176 -0.2997  0.6452
  663TIP3    H1 1953   5.592   6.711   1.483  0.8059  0.3386  0.3130
  663TIP3    H2 1954   5.563   6.587   1.400  2.3793 -0.3170  0.7041
  664TIP3   OH2 1955   3.354   4.697   5.115 -0.1521  0.4907  0.9713
  664TIP3    H1 1956   3.322   4.609   5.094  1.0675  0.2545 -0.0351
  664TIP3    H2 1957   3.280   4.755   5.095 -0.8528 -0.2681  1.3255
  665TIP3   OH2 1958   6.420   0.326   3.261  0.2363  0.2925  0.4951
  665TIP3    H1 1959   6.378   0.246   3.230  0.1911  0.4692  0.0826
  665TIP3    H2 1960   6.509   0.321   3.227  0.2042  0.4591  0.3822
  666TIP3   OH2 1961   3.882   0.416   5.619 -0.1967 -0.3451 -0.9384
  666TIP3    H1 1962   3.949   0.484   5.616  2.3025 -2.6215 -0.6457
  666TIP3    H2 1963   3.799   0.464   5.624  1.4489  2.6320  0.3560
  667TIP3   OH2 1964   2.977   3.473   5.748 -0.0112 -0.2021  0.2520
  667TIP3    H1 1965   2.903   3.477   5.688  0.0143 -1.0892  0.1451
  667TIP3    H2 1966   3.040   3.536   5.713  1.0914 -2.4854 -2.1724
  668TIP3   OH2 1967   2.919   5.765   1.431  0.1116  0.3452  0.1072
  668TIP3    H1 1968   2.994   5.773   1.373 -0.5106 -1.1228 -0.9716
  668TIP3    H2 1969   2.874   5.686   1.400 -1.2197  0.5349  1.4720
  669TIP3   OH2 1970   4.272   2.496   3.403  0.3612 -0.4492  0.4183
  669TIP3    H1 1971   4.234   2.511   3.316  0.5033 -0.2469  0.3890
  669TIP3    H2 1972   4.253   2.576   3.452  1.0446 -0.1971  0.2929
  670TIP3   OH2 1973   1.121   5.673   1.008  0.1194  0.7635 -0.0312
  670TIP3    H1 1974   1.189   5.605   1.009 -0.1539  0.4127 -1.6303
  670TIP3    H2 1975   1.143   5.730   1.081  0.6267 -0.7867  1.0709
  671TIP3   OH2 1976   0.715   5.196   1.623 -0.3036 -0.0677  0.2638
  671TIP3    H1 1977   0.742   5.177   1.533  2.9325 -0.3234  1.1480
  671TIP3    H2 1978   0.750   5.283   1.641 -1.4079  0.2206  1.1152
  672TIP3   OH2 1979   1.484   6.419   5.213  0.7637  0.1935 -0.3371
  672TIP3    H1 1980   1.460   6.373   5.293  1.4937 -3.4367 -2.0162
  672TIP3    H2 1981   1.580   6.425   5.217  0.9182 -1.1233 -1.4113
  673TIP3   OH2 1982   4.439   5.027   3.464  0.2253  0.5158 -0.2588
  673TIP3    H1 1983   4.453   5.096   3.399  1.4755  0.9292  0.4169
  673TIP3    H2 1984   4.356   4.986   3.439  0.8303  0.4424 -2.3010
  674TIP3   OH2 1985   0.832   3.758   2.335 -0.2231  0.2668  0.1971
  674TIP3    H1 1986   0.928   3.758   2.325 -0.3776 -0.8707 -1.7493
  674TIP3    H2 1987   0.818   3.740   2.428  1.5053 -2.7941  0.0074
  675TIP3   OH2 1988   4.039   6.345   5.264 -0.0215  0.2372  0.0950
  675TIP3    H1 1989   3.963   6.383   5.309 -0.2194 -0.3791  0.2998
  675TIP3    H2 1990   4.111   6.354   5.326 -0.0213  0.4736  0.0578
  676TIP3   OH2 1991   2.407   1.688   3.086  0.0670 -0.0299 -0.3538
  676TIP3    H1 1992   2.486   1.742   3.078  0.3223 -0.2074  0.8393
  676TIP3    H2 1993   2.436   1.600   3.059  0.3487 -0.1453  0.2986
  677TIP3   OH2 1994   3.627   5.234   1.976  0.1643  0.0285 -0.1115
  677TIP3    H1 1995   3.625   5.141   1.998  1.8456 -0.3974 -1.5150
  677TIP3    H2 1996   3.717   5.250   1.948 -0.5235  1.6732 -1.5657
  678TIP3   OH2 1997   6.246   4.382   5.098  0.2993  0.0917 -0.4128
  678TIP3    H1 1998   6.254   4.299   5.053  1.6775 -0.3477  0.5688
  678TIP3    H2 1999   6.165   4.375   5.149 -1.1284  0.4943 -2.4992
  679TIP3   OH2 2000   4.308   0.550   1.346 -0.1941  0.0979 -0.0583
  679TIP3    H1 2001   4.223   0.572   1.383 -0.6138 -0.9485 -0.3602
  679TIP3    H2 2002   4.293   0.547   1.252  0.1514 -0.2233 -0.1045
  680TIP3   OH2 2003   6.429   1.026   2.340 -0.0889  0.5671  0.0109
  680TIP3    H1 2004   6.454   1.080   2.415 -1.1010  1.7091 -0.4429
  680TIP3    H2 2005   6.338   1.051   2.321 -0.3436 -0.7604 -0.6912
  681TIP3   OH2 2006   5.660   2.465   4.543  0.1450  0.0565 -0.4192
  681TIP3    H1 2007   5.675   2.411   4.620 -0.0490 -1.7901 -1.5942
  681TIP3    H2 2008   5.658   2.555   4.576 -1.4782 -0.7491  1.9561
  682TIP3   OH2 2009   0.923   3.922   2.714  0.0150 -0.7024  0.1333
  682TIP3    H1 2010   0.999   3.869   2.738  1.0537 -0.7075 -2.7033
  682TIP3    H2 2011   0.957   4.011   2.708 -0.7929 -0.3123  1.0581
  683TIP3   OH2 2012   1.643   3.578   0.382  1.0113  0.3611  0.2142
  683TIP3    H1 2013   1.736   3.586   0.361  0.6287  0.4103 -1.6046
  683TIP3    H2 2014   1.604   3.657   0.346  0.6045  1.8233  3.4936
  684TIP3   OH2 2015   5.430   3.947   5.028  0.2945 -0.1600 -0.7539
  684TIP3    H1 2016   5.418   3.924   5.120 -0.4072 -0.5334 -0.9272
  684TIP3    H2 2017   5.523   3.964   5.019  0.5123 -0.9947 -0.1625
  685TIP3   OH2 2018   4.461   5.289   5.740 -0.8664 -0.0152  0.2438
  685TIP3    H1 2019   4.496   5.201   5.756  0.4890  0.2272 -1.1813
  685TIP3    H2 2020   4.381   5.274   5.690 -0.3070 -0.4471 -0.5509
  686TIP3   OH2 2021   2.134   2.248   2.353  0.6419  0.3216 -0.2915
  686TIP3    H1 2022   2.108   2.170   2.401  0.3047  1.1892  0.9923
  686TIP3    H2 2023   2.100   2.235   2.264 -0.4543 -0.4644  0.2216
  687TIP3   OH2 2024   4.467   2.035   4.773 -0.0101 -0.5355  0.1742
  687TIP3    H1 2025   4.411   2.055   4.698  1.0181 -1.5875 -0.9236
  687TIP3    H2 2026   4.406   2.022   4.846 -1.1076 -0.4933 -0.7054
  688TIP3   OH2 2027   2.064   2.197   5.497  0.0133 -0.3375  0.0250
  688TIP3    H1 2028   2.123   2.249   5.552  0.2475 -0.7499  0.1704
  688TIP3    H2 2029   2.092   2.106   5.512 -0.5612 -0.5220 -0.0248
  689TIP3   OH2 2030   3.625   2.856   5.526 -0.2789  0.2440  0.4448
  689TIP3    H1 2031   3.680   2.791   5.571 -0.2328  0.6512  0.9864
  689TIP3    H2 2032   3.687   2.923   5.497 -0.2686 -0.1639 -0.5038
  690TIP3   OH2 2033   7.166   4.223   5.653 -0.0983 -0.2052 -0.4365
  690TIP3    H1 2034   7.130   4.312   5.658 -0.2178 -0.2593 -0.3323
  690TIP3    H2 2035   7.117   4.181   5.582  1.4551  0.4951 -1.9960
  691TIP3   OH2 2036   0.192   5.735   1.899  0.7600 -0.6525 -0.2801
  691TIP3    H1 2037   0.142   5.671   1.950  1.1716 -0.0259  0.9652
  691TIP3    H2 2038   0.222   5.798   1.964  0.6255  0.6463 -1.4331
  692TIP3   OH2 2039   3.049   2.414   4.363 -0.0154  0.4518 -0.1035
  692TIP3    H1 2040   2.992   2.488   4.384 -0.8219 -0.2230  0.1412
  692TIP3    H2 2041   3.131   2.434   4.408 -0.3172  1.0571  0.1973
  693TIP3   OH2 2042   1.309   2.277   2.762  0.5833  0.1662  0.5416
  693TIP3    H1 2043   1.256   2.304   2.837  1.0949 -0.2919  1.0831
  693TIP3    H2 2044   1.396   2.261   2.799  1.0220  0.5958 -0.2749
  694TIP3   OH2 2045   1.239   5.026   5.446  0.0703 -0.3767  0.6938
  694TIP3    H1 2046   1.333   5.017   5.430  0.0528  0.7277 -0.1295
  694TIP3    H2 2047   1.222   4.969   5.521  1.3420 -0.8041  0.6798
  695TIP3   OH2 2048   2.625   1.726   3.721 -0.2711 -0.2421 -0.4250
  695TIP3    H1 2049   2.713   1.689   3.713 -0.8618 -1.7618 -0.4247
  695TIP3    H2 2050   2.584   1.707   3.637 -0.2119  1.6020 -0.8928
  696TIP3   OH2 2051   5.648   1.955   1.693  0.4948 -0.7461 -0.0423
  696TIP3    H1 2052   5.630   2.025   1.631 -0.1038 -0.4810  0.4181
  696TIP3    H2 2053   5.611   1.876   1.652 -0.4031 -0.4731  0.2149
  697TIP3   OH2 2054   2.199   4.178   5.170 -0.5522 -0.0844 -0.1879
  697TIP3    H1 2055   2.109   4.163   5.142 -0.3790  3.2213 -3.0556
  697TIP3    H2 2056   2.201   4.268   5.201  1.7024 -0.2440  0.3528
  698TIP3   OH2 2057   1.505   0.624   1.523 -0.0408 -0.4054  0.6322
  698TIP3    H1 2058   1.434   0.613   1.460 -0.8057 -1.0857  1.5973
  698TIP3    H2 2059   1.465   0.609   1.608  1.3115 -1.0477  1.1822
  699TIP3   OH2 2060   0.813   6.281   1.341  0.4856 -0.0703  0.0817
  699TIP3    H1 2061   0.885   6.276   1.403  2.1668  0.2319 -1.7308
  699TIP3    H2 2062   0.764   6.359   1.367  0.5947 -0.4694  1.5523
  700TIP3   OH2 2063   4.942   3.674   3.413 -0.2983  0.2450 -0.1976
  700TIP3    H1 2064   4.885   3.615   3.463 -0.3287 -0.0719 -0.6049
  700TIP3    H2 2065   4.991   3.722   3.480 -0.6376  0.1164  0.1458
  701TIP3   OH2 2066   5.845   2.034   4.518  0.0335  0.3135  0.2237
  701TIP3    H1 2067   5.791   2.076   4.451  0.1659  1.1302  0.6097
  701TIP3    H2 2068   5.796   1.956   4.544  0.1310 -0.1826 -1.0425
  702TIP3   OH2 2069   0.843   5.590   2.960  0.6101  0.2123 -0.1245
  702TIP3    H1 2070   0.804   5.576   3.046  0.4593  0.3185 -0.1769
  702TIP3    H2 2071   0.833   5.684   2.943  0.4184  0.1480 -0.3683
  703TIP3   OH2 2072   2.239   4.222   0.375 -0.5955 -0.4059 -0.7429
  703TIP3    H1 2073   2.317   4.169   0.387 -0.2006  0.3047 -0.0989
  703TIP3    H2 2074   2.257   4.274   0.297 -0.5275 -0.4242 -0.7389
  704TIP3   OH2 2075   4.122   3.656   2.748 -0.3005  0.3487 -0.6600
  704TIP3    H1 2076   4.029   3.634   2.757 -0.0395  0.0292  2.2634
  704TIP3    H2 2077   4.125   3.752   2.752 -0.4793  0.3415 -0.3523
  705TIP3   OH2 2078   4.868   4.638   0.018  0.0250 -0.3693 -0.3142
  705TIP3    H1 2079   4.907   4.582   0.086 -1.8097  1.5068  2.4965
  705TIP3    H2 2080   4.798   4.584  -0.019 -0.4428 -0.6688  0.9515
  706TIP3   OH2 2081   2.157   3.367   3.328  0.4125 -0.2123  0.6208
  706TIP3    H1 2082   2.240   3.415   3.335 -0.0822  0.6255  0.8307
  706TIP3    H2 2083   2.132   3.377   3.236  0.3260 -0.0934  0.6570
  707TIP3   OH2 2084   3.770   3.937   5.486  0.2130  0.2769  0.4378
  707TIP3    H1 2085   3.770   3.891   5.570 -0.9433  0.7951  0.7337
  707TIP3    H2 2086   3.856   3.980   5.483  0.2171  0.3530  1.4067
  708TIP3   OH2 2087   2.397   2.043   0.862 -0.3835  0.0192  0.1827
  708TIP3    H1 2088   2.405   2.116   0.800  0.3946  0.3120  0.6173
  708TIP3    H2 2089   2.302   2.034   0.875 -0.4600  2.0668  1.3954
  709TIP3   OH2 2090   6.601   5.197   0.037 -0.6896  0.2274 -0.3327
  709TIP3    H1 2091   6.605   5.191  -0.059  1.4437  0.9128 -0.3322
  709TIP3    H2 2092   6.588   5.290   0.055 -1.3262  0.0666  0.0439
  710TIP3   OH2 2093   7.005   1.512   1.696  0.0734  0.2758  0.8017
  710TIP3    H1 2094   6.944   1.438   1.704 -0.5389  0.8732  1.8618
  710TIP3    H2 2095   7.038   1.526   1.784  2.1519 -0.3342  0.1700
  711TIP3   OH2 2096   5.151   3.181   2.981 -0.5694  0.2082 -0.0603
  711TIP3    H1 2097   5.064   3.188   3.022 -1.1933  0.8260 -1.4299
  711TIP3    H2 2098   5.170   3.087   2.983 -1.7293 -0.0596 -0.6493
  712TIP3   OH2 2099   0.982   4.739   4.712  0.1518 -0.1739 -0.2907
  712TIP3    H1 2100   0.905   4.794   4.695 -1.4238 -1.3399  2.5367
  712TIP3    H2 2101   1.003   4.755   4.804  2.1114 -1.3814 -0.4805
  713TIP3   OH2 2102   1.229   2.199   3.280  0.2982  0.5440  0.5717
  713TIP3    H1 2103   1.231   2.161   3.368  0.0663  0.5330  0.5742
  713TIP3    H2 2104   1.169   2.273   3.287 -0.4947 -0.0442  0.1992
  714TIP3   OH2 2105   6.784   0.627   0.216 -0.0070  0.3653  0.0263
  714TIP3    H1 2106   6.772   0.720   0.233  0.0393  0.4602 -0.4286
  714TIP3    H2 2107   6.864   0.623   0.162  1.0389 -0.0947  1.5517
  715TIP3   OH2 2108   4.343   6.480   2.539 -0.6037  0.1058 -0.1584
  715TIP3    H1 2109   4.389   6.508   2.459  2.4075 -0.2174  1.3105
  715TIP3    H2 2110   4.307   6.561   2.575 -0.1535  0.5984 -0.7897
  716TIP3   OH2 2111   5.825   6.247   1.942 -0.3748  0.2212  0.0415
  716TIP3    H1 2112   5.834   6.179   2.009  1.2761  2.1496  1.9215
  716TIP3    H2 2113   5.881   6.217   1.871 -0.4509 -0.8424  0.4057
  717TIP3   OH2 2114   3.195   3.534   3.273 -0.7172  0.1882  0.0057
  717TIP3    H1 2115   3.234   3.538   3.360 -2.1580  1.2429  0.6479
  717TIP3    H2 2116   3.112   3.489   3.286 -2.8707  3.7888  0.0547
  718TIP3   OH2 2117   5.697   6.229   1.626  0.1562 -0.4982 -0.1835
  718TIP3    H1 2118   5.636   6.266   1.690  0.8492  0.2613  0.0669
  718TIP3    H2 2119   5.687   6.286   1.549  1.8074  0.7714  0.4822
  719TIP3   OH2 2120   5.413   5.164   2.190 -0.1860 -0.1782  0.0071
  719TIP3    H1 2121   5.321   5.138   2.197 -0.2641 -0.0011 -0.3195
  719TIP3    H2 2122   5.409   5.256   2.162  0.0895 -0.1374  0.1028
  720TIP3   OH2 2123   1.697   3.523   4.136 -0.0322  0.1013 -0.9996
  720TIP3    H1 2124   1.612   3.494   4.104  0.6830 -1.7613 -1.3483
  720TIP3    H2 2125   1.726   3.452   4.194  1.1480  0.8530 -0.6274
  721TIP3   OH2 2126   1.238   1.496   1.670 -0.1233 -0.1803 -0.0772
  721TIP3    H1 2127   1.211   1.432   1.604 -3.0261 -1.2958  1.9723
  721TIP3    H2 2128   1.333   1.500   1.662 -0.2394 -1.2745 -3.3313
  722TIP3   OH2 2129   2.416   6.008   2.441  0.2328  0.0338 -0.3089
  722TIP3    H1 2130   2.375   5.976   2.522  1.4840 -0.4036  0.1887
  722TIP3    H2 2131   2.344   6.047   2.392 -0.3939  1.3485  1.5184
  723TIP3   OH2 2132   3.298   6.359   3.654  0.2219 -0.5776  0.1883
  723TIP3    H1 2133   3.360   6.426   3.625 -0.5110  1.0325  2.0802
  723TIP3    H2 2134   3.352   6.281   3.667  1.1524 -0.3074 -1.7822
  724TIP3   OH2 2135   6.934   1.645   2.419 -0.3016  0.2691  0.5217
  724TIP3    H1 2136   7.001   1.713   2.423 -0.4049  0.3327  1.4986
  724TIP3    H2 2137   6.982   1.563   2.421 -0.2103  0.3113  0.1215
  725TIP3   OH2 2138   6.700   6.773   4.823  0.1239  0.8442 -0.4417
  725TIP3    H1 2139   6.659   6.720   4.756  2.5970 -0.8411 -0.7385
  725TIP3    H2 2140   6.745   6.843   4.775  1.3267  0.0336 -0.5288
  726TIP3   OH2 2141   3.410   0.849   4.842 -0.2715 -0.3661 -0.1928
  726TIP3    H1 2142   3.429   0.896   4.761 -0.8748 -1.8431 -1.2463
  726TIP3    H2 2143   3.333   0.893   4.878 -0.6499 -0.3480 -1.0038
  727TIP3   OH2 2144   1.669   0.085   2.999 -0.7080  0.2395  0.0053
  727TIP3    H1 2145   1.669   0.087   3.094 -2.5651  0.6132  0.0302
  727TIP3    H2 2146   1.579   0.065   2.975 -0.0028 -1.3235 -1.6760
  728TIP3   OH2 2147   4.891   6.654   3.073  0.4029  0.3624 -0.4481
  728TIP3    H1 2148   4.982   6.638   3.100 -0.2718  0.0788  1.9049
  728TIP3    H2 2149   4.895   6.658   2.977  3.1426  1.9986 -0.3768
  729TIP3   OH2 2150   6.886   5.673   0.971 -0.4046 -0.4081 -0.1103
  729TIP3    H1 2151   6.934   5.613   1.027  1.3424  0.2107 -0.8776
  729TIP3    H2 2152   6.840   5.731   1.033  2.6782  1.2436  0.8395
  730TIP3   OH2 2153   0.549   2.343   3.400 -0.7253 -0.4889 -0.3016
  730TIP3    H1 2154   0.551   2.278   3.330 -0.5809  0.3058 -1.0567
  730TIP3    H2 2155   0.464   2.331   3.441 -0.9126 -0.8102 -0.7675
  731TIP3   OH2 2156   0.076   2.765   3.513 -0.2163 -0.1711  0.1802
  731TIP3    H1 2157   0.069   2.733   3.603  0.3330 -2.0239 -0.3980
  731TIP3    H2 2158   0.038   2.696   3.459  0.2371  0.5218 -1.0778
  732TIP3   OH2 2159   2.472   5.190   3.105  0.4267 -0.1330 -0.1241
  732TIP3    H1 2160   2.510   5.102   3.106  0.4912 -0.1043 -0.0257
  732TIP3    H2 2161   2.495   5.227   3.190  2.2120  0.7500 -0.9186
  733TIP3   OH2 2162   7.032   4.511   1.420  0.1155  0.2966 -0.1022
  733TIP3    H1 2163   7.032   4.455   1.343 -0.5985 -0.9473  0.7616
  733TIP3    H2 2164   7.125   4.525   1.440  0.2996  0.1141 -0.8023
  734TIP3   OH2 2165   0.087   1.779   3.302  0.7220  0.1951  0.4123
  734TIP3    H1 2166   0.092   1.867   3.266 -2.7444  0.0919 -0.6323
  734TIP3    H2 2167   0.134   1.725   3.239  0.0880  0.8771 -0.6703
  735TIP3   OH2 2168   6.967   2.482   4.045  0.3668  0.3164  0.0039
  735TIP3    H1 2169   6.917   2.501   4.125  0.3717 -0.0132  0.0852
  735TIP3    H2 2170   7.058   2.494   4.071  0.4761 -1.2977  0.4811
  736TIP3   OH2 2171   3.928   6.489   0.757 -0.2668 -0.3450 -0.0371
  736TIP3    H1 2172   4.016   6.469   0.723 -0.1338 -2.1916  1.2588
  736TIP3    H2 2173   3.881   6.525   0.682  1.4996  0.4176 -0.8347
  737TIP3   OH2 2174   6.441   1.773   4.627  0.6326  0.0767  0.4538
  737TIP3    H1 2175   6.391   1.692   4.641  0.0820  0.5562  1.3195
  737TIP3    H2 2176   6.466   1.802   4.714  1.4479  0.4613  0.0990
  738TIP3   OH2 2177   6.075   5.836   3.042  0.3989  0.2954 -0.5711
  738TIP3    H1 2178   6.146   5.900   3.046  1.2212 -0.6578  1.1386
  738TIP3    H2 2179   6.034   5.840   3.128 -0.8689 -0.0319 -1.1330
  739TIP3   OH2 2180   0.334   5.903   2.057  0.1285 -0.0499 -0.4790
  739TIP3    H1 2181   0.310   5.918   2.148  0.2937  1.3520 -0.6332
  739TIP3    H2 2182   0.429   5.910   2.056  0.2219 -1.1610 -0.5948
  740TIP3   OH2 2183   3.789   4.482   2.762 -0.0340 -0.0044 -0.9227
  740TIP3    H1 2184   3.715   4.498   2.704  0.7216  2.8462 -1.2555
  740TIP3    H2 2185   3.850   4.429   2.710 -0.4563  0.3463 -1.7914
  741TIP3   OH2 2186   1.914   3.740   3.578  0.4931  0.1305  0.2112
  741TIP3    H1 2187   1.974   3.666   3.569  1.0203  0.6405 -0.4997
  741TIP3    H2 2188   1.838   3.716   3.524  1.5346  0.9796 -1.7521
  742TIP3   OH2 2189   3.793   1.652   1.691  0.5374  0.0282 -0.2590
  742TIP3    H1 2190   3.856   1.673   1.761  0.4303  0.6587 -0.3455
  742TIP3    H2 2191   3.770   1.736   1.653  1.4309 -0.3897 -1.8082
  743TIP3   OH2 2192   6.045   3.375   0.332  0.2289  0.4146  0.4674
  743TIP3    H1 2193   6.020   3.289   0.365  2.0167 -0.6273 -0.7704
  743TIP3    H2 2194   6.126   3.396   0.377  1.6505 -0.1451 -1.6978
  744TIP3   OH2 2195   2.138   1.318   0.156 -0.2365 -0.3488 -0.2677
  744TIP3    H1 2196   2.213   1.286   0.206 -0.1536 -0.2539 -0.3304
  744TIP3    H2 2197   2.064   1.310   0.216  0.1527  1.4299  0.5236
  745TIP3   OH2 2198   4.301   0.482   3.925  0.5113  0.3014  0.3172
  745TIP3    H1 2199   4.252   0.444   3.998 -0.4403 -0.1581 -0.5250
  745TIP3    H2 2200   4.301   0.413   3.859  0.4782  1.0694 -0.4984
  746TIP3   OH2 2201   0.368   3.041   1.773 -0.3837 -0.0831  0.6075
  746TIP3    H1 2202   0.401   3.126   1.799 -0.4370  0.5278 -1.2014
  746TIP3    H2 2203   0.315   3.012   1.847  0.0525  1.2105  1.4492
  747TIP3   OH2 2204   0.222   5.961   1.313 -0.8046  0.3151 -0.4661
  747TIP3    H1 2205   0.218   5.912   1.231 -0.5456  0.4376 -0.5534
  747TIP3    H2 2206   0.311   5.947   1.345 -0.9622  0.1143 -0.1111
  748TIP3   OH2 2207   6.616   1.122   3.460  0.6889 -0.0407 -0.3520
  748TIP3    H1 2208   6.664   1.139   3.379  0.0918 -1.2035 -0.9792
  748TIP3    H2 2209   6.653   1.040   3.493  1.1187  0.5569  0.7305
  749TIP3   OH2 2210   0.259   5.688   4.290 -0.3306  0.1644  0.1505
  749TIP3    H1 2211   0.346   5.666   4.258  0.7314 -0.1109  2.9816
  749TIP3    H2 2212   0.219   5.739   4.219  2.5571  1.3421 -0.7512
  750TIP3   OH2 2213   0.830   5.567   0.311 -0.2967 -0.2678 -0.0238
  750TIP3    H1 2214   0.862   5.655   0.328 -0.3181 -0.1342 -0.6415
  750TIP3    H2 2215   0.846   5.519   0.392 -0.5346  0.3730  0.4126
  751TIP3   OH2 2216   4.206   5.906   0.301 -0.0567 -0.0676 -0.6848
  751TIP3    H1 2217   4.255   5.988   0.315 -0.2664  0.1490 -1.1772
  751TIP3    H2 2218   4.119   5.924   0.336  0.0451 -0.2519 -0.3388
  752TIP3   OH2 2219   5.004   6.708   0.893  0.4351  0.3529  0.2953
  752TIP3    H1 2220   5.078   6.722   0.953 -0.1006  0.3732  0.9593
  752TIP3    H2 2221   5.029   6.756   0.814  0.2353  2.1044  1.2419
  753TIP3   OH2 2222   2.587   3.292   2.967  0.2011  0.0099  0.0729
  753TIP3    H1 2223   2.683   3.292   2.968  0.3091 -1.7995 -2.1707
  753TIP3    H2 2224   2.563   3.229   2.898 -2.6193 -0.2042  1.0902
  754TIP3   OH2 2225   4.040   4.856   2.890 -0.2673 -0.2307 -0.2214
  754TIP3    H1 2226   3.977   4.866   2.961  0.5301  0.1293  0.4574
  754TIP3    H2 2227   4.050   4.945   2.854 -2.5166 -0.7769 -2.4617
  755TIP3   OH2 2228   0.474   4.071   5.878  0.4054  0.2384  0.2993
  755TIP3    H1 2229   0.539   4.084   5.808 -0.7560 -0.8419 -1.0477
  755TIP3    H2 2230   0.457   3.977   5.877  0.9257  0.0504  2.6354
  756TIP3   OH2 2231   5.457   2.058   0.033  0.4984  0.3303  0.1669
  756TIP3    H1 2232   5.457   2.118  -0.041 -0.1236 -0.5136 -0.5479
  756TIP3    H2 2233   5.364   2.038   0.047  0.5219  1.2971  1.8711
  757TIP3   OH2 2234   6.714   5.640   4.269 -0.6239 -0.0196  0.4020
  757TIP3    H1 2235   6.799   5.642   4.313 -0.0943 -1.5289 -0.4512
  757TIP3    H2 2236   6.655   5.600   4.333 -0.4756  0.1914  0.6714
  758TIP3   OH2 2237   0.170   0.988   2.663  0.0037  0.0293 -0.0192
  758TIP3    H1 2238   0.225   0.927   2.612 -2.3292 -1.4388 -0.9583
  758TIP3    H2 2239   0.212   0.991   2.749  0.6011 -2.4524 -0.1325
  759TIP3   OH2 2240   0.116   0.602   1.798 -0.2742 -0.1059  0.2010
  759TIP3    H1 2241   0.024   0.579   1.813 -0.2002 -0.9092 -0.4897
  759TIP3    H2 2242   0.130   0.582   1.706  0.8450 -0.8827  0.5235
  760TIP3   OH2 2243   5.052   6.512   3.628 -0.0071 -0.1199 -0.0575
  760TIP3    H1 2244   5.061   6.586   3.567 -1.1599  0.4919  0.4837
  760TIP3    H2 2245   4.973   6.466   3.599  1.3781 -1.9491 -1.1752
  761TIP3   OH2 2246   1.505   6.696   4.362  0.2386 -0.1999 -0.2891
  761TIP3    H1 2247   1.594   6.729   4.349  0.2624 -0.3658 -0.5446
  761TIP3    H2 2248   1.494   6.628   4.296 -0.3073  0.2646 -0.6849
  762TIP3   OH2 2249   6.959   1.440   5.773  0.2727  0.0731 -0.5062
  762TIP3    H1 2250   6.992   1.403   5.855 -0.7327  1.8951  0.8362
  762TIP3    H2 2251   6.908   1.370   5.733  2.9084 -1.7092 -0.9804
  763TIP3   OH2 2252   5.780   5.848   0.821 -0.4788  0.1358  0.1974
  763TIP3    H1 2253   5.740   5.781   0.765 -1.9302  0.2660  1.0057
  763TIP3    H2 2254   5.726   5.926   0.808  0.0826  0.6125  0.6434
  764TIP3   OH2 2255   3.076   0.281   2.622 -0.7460 -0.5162  0.5384
  764TIP3    H1 2256   3.141   0.336   2.579 -1.0295 -0.1173  0.6165
  764TIP3    H2 2257   3.034   0.339   2.685  0.2431 -1.3030  1.9685
  765TIP3   OH2 2258   2.295   6.374   1.124 -1.0714 -0.1613  0.3291
  765TIP3    H1 2259   2.384   6.348   1.147 -1.2308 -0.7449  0.2940
  765TIP3    H2 2260   2.301   6.468   1.109 -0.5118 -0.1560  0.5690
  766TIP3   OH2 2261   0.432   1.987   2.447  0.5464 -0.3720  0.1132
  766TIP3    H1 2262   0.393   2.066   2.483 -1.5958 -0.8741 -0.8760
  766TIP3    H2 2263   0.526   2.000   2.453  0.2383  1.9339  0.6042
  767TIP3   OH2 2264   3.146   1.472   2.029 -0.1746 -0.0922  0.0255
  767TIP3    H1 2265   3.052   1.484   2.012  0.1311  0.9555 -1.1661
  767TIP3    H2 2266   3.188   1.502   1.948  1.1521 -1.5732  0.1263
  768TIP3   OH2 2267   3.207   6.608   3.771  0.2062  0.2818  0.5908
  768TIP3    H1 2268   3.175   6.535   3.718 -0.3961  0.8195  0.2054
  768TIP3    H2 2269   3.303   6.605   3.761  0.1086  0.3517 -0.5098
  769TIP3   OH2 2270   2.560   1.960   3.829 -0.0550  0.3978  0.1141
  769TIP3    H1 2271   2.625   1.956   3.899 -0.2787 -0.0226  0.2993
  769TIP3    H2 2272   2.589   1.893   3.766  0.0952  0.7116 -0.1548
  770TIP3   OH2 2273   3.709   0.535   4.862 -0.2777  0.3880  0.1426
  770TIP3    H1 2274   3.792   0.575   4.839 -0.1212 -0.4017 -0.7660
  770TIP3    H2 2275   3.726   0.490   4.945 -0.1495  1.2397  0.5844
  771TIP3   OH2 2276   5.989   6.594   2.993 -0.5668 -0.2211 -0.5741
  771TIP3    H1 2277   5.943   6.516   2.962 -3.0073  1.5046 -1.6531
  771TIP3    H2 2278   6.067   6.599   2.938 -1.5721 -0.6785 -2.1137
  772TIP3   OH2 2279   6.665   1.863   3.875 -0.0642  0.0742  0.3750
  772TIP3    H1 2280   6.662   1.889   3.967  1.6431  0.3945  0.3692
  772TIP3    H2 2281   6.753   1.827   3.863 -0.5067 -0.6327 -0.9631
  773TIP3   OH2 2282   6.376   4.168   4.924 -0.6521 -0.0351 -0.5431
  773TIP3    H1 2283   6.382   4.146   4.831  0.9033 -0.3444 -0.3980
  773TIP3    H2 2284   6.444   4.233   4.938  0.1775 -1.1140  0.6643
  774TIP3   OH2 2285   5.477   4.510   3.083 -0.5569  0.5485 -0.0967
  774TIP3    H1 2286   5.496   4.468   3.167  1.6693  3.3509  0.9654
  774TIP3    H2 2287   5.382   4.524   3.083 -1.3454 -3.5268 -0.2374
  775TIP3   OH2 2288   2.276   6.106   1.063 -0.7758 -0.3258 -0.0922
  775TIP3    H1 2289   2.298   6.071   1.149 -2.5590 -0.6179  0.2905
  775TIP3    H2 2290   2.270   6.200   1.076 -0.1377 -0.2736 -0.1318
  776TIP3   OH2 2291   3.255   0.262   0.515 -0.3956 -0.5620 -0.1174
  776TIP3    H1 2292   3.293   0.278   0.428  0.1064  2.0124  0.4910
  776TIP3    H2 2293   3.162   0.281   0.504  0.0665  2.4236  0.4062
  777TIP3   OH2 2294   2.516   6.593   2.535  0.1837  0.1568  0.4848
  777TIP3    H1 2295   2.441   6.535   2.520  0.6172 -0.4736  0.7195
  777TIP3    H2 2296   2.484   6.658   2.598 -0.8758  1.3052 -1.1730
  778TIP3   OH2 2297   1.049   0.755   0.562 -0.2018  0.7583  0.4463
  778TIP3    H1 2298   1.056   0.818   0.490 -0.9318  0.9620  0.5527
  778TIP3    H2 2299   1.105   0.792   0.630 -0.1489  0.9849  0.2833
  779TIP3   OH2 2300   3.799   5.460   2.410 -0.0959 -0.5583  0.2433
  779TIP3    H1 2301   3.742   5.527   2.374  1.0441  0.5928  0.5151
  779TIP3    H2 2302   3.766   5.378   2.373 -0.7514  0.2751 -1.0767
  780TIP3   OH2 2303   5.801   4.465   5.182  0.1182  0.4511 -0.1026
  780TIP3    H1 2304   5.863   4.406   5.225 -1.5238 -0.6965  0.8185
  780TIP3    H2 2305   5.748   4.407   5.127 -1.2025  1.1214  0.4204
  781TIP3   OH2 2306   2.635   1.822   1.240 -0.8815  0.1732 -0.1956
  781TIP3    H1 2307   2.549   1.826   1.282 -1.0591  1.0619 -0.6253
  781TIP3    H2 2308   2.644   1.906   1.195 -0.9833 -0.9913 -2.5213
  782TIP3   OH2 2309   3.492   3.216   0.239  0.1058 -0.1001  0.3470
  782TIP3    H1 2310   3.587   3.227   0.235 -0.1677  2.7175 -0.1732
  782TIP3    H2 2311   3.473   3.150   0.172  1.6534 -0.5814  0.3349
  783TIP3   OH2 2312   6.536   0.998   4.970  0.2658 -0.5400 -0.4694
  783TIP3    H1 2313   6.488   1.081   4.964 -1.0438 -1.3009 -0.8338
  783TIP3    H2 2314   6.569   0.983   4.881  3.2151  1.0906  0.2111
  784TIP3   OH2 2315   3.482   0.170   3.019 -0.2214 -0.0373 -0.4230
  784TIP3    H1 2316   3.498   0.188   3.111 -1.4307 -1.3872  0.0939
  784TIP3    H2 2317   3.413   0.231   2.994 -2.2552 -1.8155  0.5265
  785TIP3   OH2 2318   6.744   2.592   0.118  0.0889 -0.4173 -0.1392
  785TIP3    H1 2319   6.740   2.626   0.207  0.4741 -0.4490 -0.1100
  785TIP3    H2 2320   6.754   2.669   0.063 -1.8507 -0.2418 -0.2964
  786TIP3   OH2 2321   5.215   2.423   3.494 -0.0559 -0.8333  0.0414
  786TIP3    H1 2322   5.186   2.433   3.403  0.6668 -1.4908 -0.2739
  786TIP3    H2 2323   5.308   2.401   3.487  0.1389 -0.3517  0.9672
  787TIP3   OH2 2324   6.609   0.539   4.489  0.4384  0.1892  0.4966
  787TIP3    H1 2325   6.623   0.454   4.530  1.0757 -0.6383 -1.3508
  787TIP3    H2 2326   6.516   0.556   4.500  0.8640  0.9426  3.9235
  788TIP3   OH2 2327   6.994   6.626   0.610 -0.2717  0.4647 -0.3419
  788TIP3    H1 2328   6.988   6.578   0.692  0.3160  1.6791  0.4518
  788TIP3    H2 2329   6.916   6.600   0.561 -0.1339 -1.0102  0.1817
  789TIP3   OH2 2330   2.603   6.765   4.063 -0.2457  0.2977 -0.2788
  789TIP3    H1 2331   2.578   6.764   4.156 -0.5154  1.4227 -0.3271
  789TIP3    H2 2332   2.648   6.681   4.050  1.0538  0.6920  1.2179
  790TIP3   OH2 2333   6.755   3.026   2.492 -0.1354  0.1004  0.9683
  790TIP3    H1 2334   6.802   3.041   2.410 -2.9291 -0.2647 -0.8375
  790TIP3    H2 2335   6.812   3.064   2.559  2.2758  0.4157 -1.0972
  791TIP3   OH2 2336   4.854   6.512   4.788 -0.1172 -0.1240 -0.2141
  791TIP3    H1 2337   4.795   6.573   4.744 -1.2209 -0.9945  0.0225
  791TIP3    H2 2338   4.907   6.475   4.718  1.5897  2.1314 -0.2158
  792TIP3   OH2 2339   4.438   0.674   0.994  0.0374 -0.2639 -0.3776
  792TIP3    H1 2340   4.421   0.766   0.975 -1.1893 -0.0604  1.4032
  792TIP3    H2 2341   4.354   0.640   1.023  0.7346 -1.6397  0.1170
  793TIP3   OH2 2342   6.900   5.147   5.271 -0.0466 -0.1375 -0.3644
  793TIP3    H1 2343   6.913   5.104   5.356 -0.2010  0.7113  0.0980
  793TIP3    H2 2344   6.849   5.226   5.291 -1.3021 -0.6346 -1.4322
  794TIP3   OH2 2345   5.344   0.572   4.908  0.4513  0.0154  0.0836
  794TIP3    H1 2346   5.320   0.482   4.886  0.0580  0.2350 -0.4011
  794TIP3    H2 2347   5.314   0.624   4.833 -0.2994  0.6835  0.8236
  795TIP3   OH2 2348   3.765   0.242   1.856 -0.3585  0.0321  0.1017
  795TIP3    H1 2349   3.723   0.231   1.941  0.0699  0.2667  0.3448
  795TIP3    H2 2350   3.808   0.327   1.860 -0.5161  0.1411 -0.4275
  796TIP3   OH2 2351   6.484   6.161   1.740 -0.2657  0.3311  0.6966
  796TIP3    H1 2352   6.533   6.079   1.739 -2.0746 -0.8199 -0.6962
  796TIP3    H2 2353   6.547   6.227   1.711  0.5724 -1.0242 -0.7186
  797TIP3   OH2 2354   7.068   0.172   5.263  0.4573 -0.4867 -0.2786
  797TIP3    H1 2355   7.141   0.226   5.233 -0.1920 -0.4097 -1.8107
  797TIP3    H2 2356   7.001   0.183   5.195 -1.0500 -0.4163  1.1710
  798TIP3   OH2 2357   5.935   3.338   1.578  0.8786 -0.5814  0.3407
  798TIP3    H1 2358   5.946   3.428   1.547 -0.1403 -1.1646 -1.8477
  798TIP3    H2 2359   5.876   3.345   1.653 -0.4585  0.4378 -0.7749
  799TIP3   OH2 2360   2.410   0.902   5.339 -0.4246  0.6389  0.3971
  799TIP3    H1 2361   2.363   0.881   5.258  0.1806 -1.5205  0.5443
  799TIP3    H2 2362   2.496   0.863   5.327 -0.9020 -1.3820  2.7585
  800TIP3   OH2 2363   7.152   0.177   3.663 -0.3788  0.8846 -0.2057
  800TIP3    H1 2364   7.138   0.116   3.591 -1.7520  0.2871  0.5389
  800TIP3    H2 2365   7.220   0.237   3.631  0.8797 -0.8946 -1.0233
  801TIP3   OH2 2366   3.419   4.004   4.531  0.6097  0.3168 -0.1919
  801TIP3    H1 2367   3.340   4.007   4.477  0.8849 -1.1027 -0.7081
  801TIP3    H2 2368   3.435   4.095   4.555 -1.6427  0.5856  0.6102
  802TIP3   OH2 2369   6.602   6.407   3.463  0.4419 -0.0300 -0.0745
  802TIP3    H1 2370   6.578   6.500   3.465  0.6669  0.0242  1.3119
  802TIP3    H2 2371   6.698   6.407   3.472  0.2774 -0.4270  2.0294
  803TIP3   OH2 2372   2.881   3.615   2.881  0.1558 -0.0550 -0.0697
  803TIP3    H1 2373   2.822   3.662   2.821  0.2057 -0.6094 -0.5645
  803TIP3    H2 2374   2.857   3.646   2.968 -2.1122 -1.5747 -0.0752
  804TIP3   OH2 2375   3.950   1.887   3.395  0.2435  0.1531  0.4807
  804TIP3    H1 2376   4.013   1.871   3.465  0.1188 -1.5366  0.2495
  804TIP3    H2 2377   3.977   1.830   3.324 -0.3206  0.9786 -0.4245
  805TIP3   OH2 2378   0.884   5.819   3.617 -0.2148 -0.2309 -0.1446
  805TIP3    H1 2379   0.843   5.890   3.666  0.2118 -1.0756  1.5106
  805TIP3    H2 2380   0.914   5.860   3.536 -2.4293  0.8546 -0.4757
  806TIP3   OH2 2381   0.478   0.833   0.439 -0.1315  0.1854 -0.0161
  806TIP3    H1 2382   0.441   0.870   0.359 -0.2433  0.4676  0.1647
  806TIP3    H2 2383   0.504   0.909   0.491  2.2730  0.0248 -0.8323
  807TIP3   OH2 2384   0.821   2.831   2.695 -0.4140 -0.1448 -0.4958
  807TIP3    H1 2385   0.895   2.869   2.647  0.0016 -0.5502 -0.1783
  807TIP3    H2 2386   0.751   2.826   2.630  0.4107 -1.5036 -1.3127
  808TIP3   OH2 2387   0.635   1.999   3.840  0.0289 -0.3684  0.1038
  808TIP3    H1 2388   0.660   1.933   3.776 -0.6101  0.5953 -1.1850
  808TIP3    H2 2389   0.606   2.074   3.788 -0.3717  0.5103  1.5209
  809TIP3   OH2 2390   6.662   3.394   4.328 -0.2721 -0.0746 -0.2721
  809TIP3    H1 2391   6.625   3.462   4.273 -0.8046  0.7045  1.0105
  809TIP3    H2 2392   6.727   3.350   4.272  0.7746  2.0800 -0.8402
  810TIP3   OH2 2393   2.468   4.942   2.712  0.1437 -0.4379 -0.2073
  810TIP3    H1 2394   2.488   5.024   2.757  0.4296 -0.3377 -0.5138
  810TIP3    H2 2395   2.399   4.902   2.765  1.0286 -0.6982  0.7858
  811TIP3   OH2 2396   4.763   0.121   1.998  0.3531 -0.1912 -0.1680
  811TIP3    H1 2397   4.830   0.161   1.943 -0.6306 -0.7965 -1.8645
  811TIP3    H2 2398   4.714   0.194   2.035  0.7494  0.2173 -0.4489
  812TIP3   OH2 2399   3.573   1.317   1.358 -0.5794 -0.3900 -0.4878
  812TIP3    H1 2400   3.529   1.250   1.411 -0.3030 -0.9511 -0.9577
  812TIP3    H2 2401   3.508   1.387   1.350 -1.7478 -1.5730 -1.9078
  813TIP3   OH2 2402   4.145   2.561   2.727 -0.5621 -0.0759 -0.0810
  813TIP3    H1 2403   4.064   2.544   2.775 -0.5267  1.2010  0.5005
  813TIP3    H2 2404   4.206   2.494   2.757 -0.9396 -0.0829  0.6962
  814TIP3   OH2 2405   4.805   0.106   2.388  0.5763  0.7611 -0.0477
  814TIP3    H1 2406   4.767   0.026   2.351  0.5600  0.3501  0.8526
  814TIP3    H2 2407   4.897   0.102   2.362  0.3426  1.0361 -0.9857
  815TIP3   OH2 2408   4.289   0.445   5.209 -0.2177  0.0127 -0.6531
  815TIP3    H1 2409   4.346   0.439   5.132 -0.1043  0.7793 -0.6417
  815TIP3    H2 2410   4.329   0.388   5.274  0.2898  0.2038 -0.7959
  816TIP3   OH2 2411   3.446   3.272   4.245  0.0765  0.3535 -0.5021
  816TIP3    H1 2412   3.522   3.239   4.293  0.1277  0.8947 -0.2038
  816TIP3    H2 2413   3.375   3.213   4.269 -0.4466  1.8617  2.0048
  817TIP3   OH2 2414   5.704   0.866   3.549  0.0586 -0.0606 -0.5305
  817TIP3    H1 2415   5.666   0.953   3.538  0.1704  0.4030  2.0386
  817TIP3    H2 2416   5.796   0.882   3.571  0.6364 -0.9617 -2.1574
  818TIP3   OH2 2417   1.752   1.347   5.792  0.1024  0.2251  0.7303
  818TIP3    H1 2418   1.795   1.393   5.865 -0.5789 -0.2686  1.4602
  818TIP3    H2 2419   1.733   1.416   5.728 -0.3229  0.8652  1.5238
  819TIP3   OH2 2420   0.340   6.304   1.445  0.4844 -0.5341  0.0949
  819TIP3    H1 2421   0.341   6.244   1.520  2.9517 -0.8767 -0.1450
  819TIP3    H2 2422   0.303   6.385   1.480  0.5637 -1.0369  1.4042
  820TIP3   OH2 2423   5.659   1.816   0.935 -0.5175  0.3235  0.2096
  820TIP3    H1 2424   5.715   1.744   0.963  0.0028 -0.0165 -1.5987
  820TIP3    H2 2425   5.708   1.859   0.865 -0.7243  2.6051  1.3716
  821TIP3   OH2 2426   6.940   2.567   2.161  0.0027  0.0087 -0.4121
  821TIP3    H1 2427   7.024   2.595   2.125 -0.6057  0.8206 -1.2508
  821TIP3    H2 2428   6.963   2.506   2.231  1.2713 -0.1359 -0.9283
  822TIP3   OH2 2429   4.189   3.549   1.915 -0.0765  0.0531  0.2548
  822TIP3    H1 2430   4.240   3.484   1.866 -0.3153  0.8696 -1.1575
  822TIP3    H2 2431   4.189   3.517   2.005  1.9179 -0.5923  0.0813
  823TIP3   OH2 2432   5.643   3.919   3.266 -0.1397 -0.3690  0.2973
  823TIP3    H1 2433   5.556   3.884   3.243  0.5057 -1.9380  0.1006
  823TIP3    H2 2434   5.685   3.933   3.181  0.0725 -0.3446  0.4080
  824TIP3   OH2 2435   6.337   6.332   0.969  0.1150  0.0214 -0.2855
  824TIP3    H1 2436   6.316   6.243   0.940 -0.2612  0.6227 -1.9874
  824TIP3    H2 2437   6.270   6.387   0.930  1.1193  1.2169 -0.4023
  825TIP3   OH2 2438   2.401   1.376   2.512 -0.2822 -0.4642  0.1851
  825TIP3    H1 2439   2.453   1.456   2.507  0.3704 -0.8575  0.5965
  825TIP3    H2 2440   2.443   1.323   2.579 -0.0260 -1.6302 -0.8404
  826TIP3   OH2 2441   1.169   3.088   3.042 -0.1127 -0.2002  0.1884
  826TIP3    H1 2442   1.136   3.082   2.952 -1.0484  2.6279  0.2285
  826TIP3    H2 2443   1.090   3.091   3.095  0.4278 -1.0974  1.0642
  827TIP3   OH2 2444   6.871   1.547   4.126 -0.5537  0.1130  0.2590
  827TIP3    H1 2445   6.851   1.455   4.105  0.1029  0.1216 -0.4354
  827TIP3    H2 2446   6.953   1.565   4.079 -0.8170  1.1358  0.1779
  828TIP3   OH2 2447   2.671   6.015   5.293 -0.1456 -0.6855 -0.5603
  828TIP3    H1 2448   2.679   6.111   5.294  0.8550 -0.7658 -0.3833
  828TIP3    H2 2449   2.729   5.986   5.223  1.5017 -1.2974  0.9663
  829TIP3   OH2 2450   2.574   3.664   4.068 -0.2184  0.1853  0.1684
  829TIP3    H1 2451   2.591   3.750   4.029 -1.1482 -0.0072 -0.6990
  829TIP3    H2 2452   2.660   3.620   4.066 -0.1672  0.2790 -1.4602
  830TIP3   OH2 2453   4.917   2.418   1.510 -0.1333  0.1352  0.1784
  830TIP3    H1 2454   4.901   2.430   1.603 -1.1862  1.2346 -0.1220
  830TIP3    H2 2455   4.935   2.506   1.477  0.0312 -0.2119 -0.6932
  831TIP3   OH2 2456   4.217   6.357   0.099  0.7210  0.0517  0.2844
  831TIP3    H1 2457   4.251   6.408   0.025 -0.5052 -0.1183 -0.4268
  831TIP3    H2 2458   4.176   6.280   0.059 -0.6619  0.3486  1.0437
  832TIP3   OH2 2459   3.633   3.878   0.452  0.0809 -0.2602  0.7552
  832TIP3    H1 2460   3.718   3.898   0.492 -0.6814  1.3687  1.6816
  832TIP3    H2 2461   3.569   3.919   0.510 -1.2313  0.0551 -0.8417
  833TIP3   OH2 2462   5.471   6.530   3.922  0.4010  0.0768 -0.3344
  833TIP3    H1 2463   5.459   6.436   3.909 -0.0338 -0.0291  0.8080
  833TIP3    H2 2464   5.542   6.537   3.985 -0.2570  0.4869  0.3729
  834TIP3   OH2 2465   2.302   2.942   0.615  0.1902  0.2312  0.1426
  834TIP3    H1 2466   2.272   3.027   0.583 -0.4055  0.3102  0.8749
  834TIP3    H2 2467   2.383   2.961   0.661  0.5757  0.2491 -0.5291
  835TIP3   OH2 2468   1.985   2.594   3.086  0.3115 -0.1071  0.2588
  835TIP3    H1 2469   2.043   2.631   3.020  0.8800 -0.7971  0.3506
  835TIP3    H2 2470   1.897   2.623   3.061  0.5137 -0.3955 -0.8290
  836TIP3   OH2 2471   0.829   1.420   4.804 -0.1942 -0.0615  0.1521
  836TIP3    H1 2472   0.744   1.397   4.842 -0.6382 -1.3803 -1.5243
  836TIP3    H2 2473   0.811   1.433   4.711  1.5776 -1.2712 -0.4057
  837TIP3   OH2 2474   0.774   5.783   3.884 -0.0924  0.2081  0.0563
  837TIP3    H1 2475   0.844   5.807   3.823  0.5626  0.4930  0.9100
  837TIP3    H2 2476   0.819   5.768   3.967 -1.0798  0.6213  0.6696
  838TIP3   OH2 2477   3.321   3.079   5.542  0.2121  0.2104  0.4831
  838TIP3    H1 2478   3.296   3.168   5.568 -0.6773  0.2338 -0.3987
  838TIP3    H2 2479   3.413   3.087   5.517  0.5211  0.5971  1.6665
  839TIP3   OH2 2480   0.736   3.039   3.554  0.3602 -0.4656 -0.0200
  839TIP3    H1 2481   0.659   3.070   3.603  0.4328 -1.0191  0.4525
  839TIP3    H2 2482   0.779   3.119   3.525  0.3381 -0.1168  0.8705
  840TIP3   OH2 2483   3.968   3.852   5.229  0.6650 -0.0537  0.2917
  840TIP3    H1 2484   4.058   3.860   5.197  0.9700 -1.1256  0.8469
  840TIP3    H2 2485   3.956   3.928   5.286  2.2345 -1.3749  2.5489
  841TIP3   OH2 2486   7.034   3.669   0.842 -0.2496 -0.0324 -0.8428
  841TIP3    H1 2487   7.060   3.584   0.805 -0.8019  0.5405 -2.6786
  841TIP3    H2 2488   7.072   3.669   0.930 -1.4052 -2.7347 -0.2361
  842TIP3   OH2 2489   2.772   0.375   3.287 -0.1987 -0.0093  0.1300
  842TIP3    H1 2490   2.799   0.466   3.272 -0.3426 -0.1572 -1.1423
  842TIP3    H2 2491   2.834   0.323   3.237 -2.5950 -0.3626 -2.8227
  843TIP3   OH2 2492   2.871   3.437   2.471  0.6188  0.3703  0.2142
  843TIP3    H1 2493   2.936   3.422   2.541 -0.2463  0.5886  1.0818
  843TIP3    H2 2494   2.923   3.469   2.397  1.6782 -0.7372  0.4353
  844TIP3   OH2 2495   1.691   1.696   0.407  0.7003  0.3473 -0.0905
  844TIP3    H1 2496   1.684   1.788   0.382  1.4699 -0.0369 -1.8425
  844TIP3    H2 2497   1.603   1.660   0.390 -0.2875  1.1989  2.7620
  845TIP3   OH2 2498   6.627   3.561   2.111 -0.0362  0.7926  0.4648
  845TIP3    H1 2499   6.546   3.608   2.131 -0.2154  0.6012  0.2005
  845TIP3    H2 2500   6.600   3.495   2.047  0.5533  1.5355 -0.5732
  846TIP3   OH2 2501   2.572   6.662   5.210  0.2333  0.4240  0.4351
  846TIP3    H1 2502   2.512   6.618   5.271 -0.6933  1.7198  0.5122
  846TIP3    H2 2503   2.637   6.596   5.187  0.8873  0.0007  3.1749
  847TIP3   OH2 2504   5.037   5.370   3.244  0.2481  0.0915 -0.6670
  847TIP3    H1 2505   4.946   5.356   3.215 -0.3980  0.6919  0.9152
  847TIP3    H2 2506   5.089   5.369   3.164 -1.0715 -0.9535 -1.5510
  848TIP3   OH2 2507   2.049   1.048   3.265  0.5803  0.2959 -0.5576
  848TIP3    H1 2508   2.050   1.047   3.360 -0.3481 -0.2706 -0.5419
  848TIP3    H2 2509   1.961   1.017   3.241  0.8825  0.1932 -1.5950
  849TIP3   OH2 2510   7.170   4.608   2.029 -0.5003 -0.9350 -0.4144
  849TIP3    H1 2511   7.121   4.550   2.088 -0.1962 -0.5373  0.2396
  849TIP3    H2 2512   7.246   4.636   2.081  0.8265 -2.1048 -1.6266
  850TIP3   OH2 2513   1.458   4.614   2.284 -0.6789  0.0612  0.0644
  850TIP3    H1 2514   1.486   4.555   2.214 -1.9540  0.6349 -0.9777
  850TIP3    H2 2515   1.508   4.694   2.269 -0.8816  0.1504 -0.1503
  851TIP3   OH2 2516   4.498   5.482   2.639 -0.0681  0.7115 -0.4075
  851TIP3    H1 2517   4.519   5.542   2.710  1.8606 -0.5543  0.1598
  851TIP3    H2 2518   4.553   5.509   2.567 -0.8828  1.0208 -0.9288
  852TIP3   OH2 2519   2.740   3.751   1.183 -0.3105 -0.2402 -0.2599
  852TIP3    H1 2520   2.711   3.817   1.121  0.0473 -0.4722 -0.6748
  852TIP3    H2 2521   2.783   3.801   1.253 -0.1526 -0.0254 -0.5093
  853TIP3   OH2 2522   6.516   3.598   4.206  0.1076 -0.5343 -0.0972
  853TIP3    H1 2523   6.498   3.647   4.126 -1.7630  0.7872  1.0385
  853TIP3    H2 2524   6.429   3.578   4.241  0.8641 -0.2493  2.0634
  854TIP3   OH2 2525   0.567   3.100   2.798 -0.7203  0.1202  0.2878
  854TIP3    H1 2526   0.650   3.076   2.841 -1.3005 -1.2927  0.6597
  854TIP3    H2 2527   0.586   3.184   2.755  1.5169 -1.1034 -1.3293
  855TIP3   OH2 2528   0.025   0.529   5.084 -0.4722 -0.1978  0.1715
  855TIP3    H1 2529  -0.039   0.599   5.088 -0.2840 -0.0128 -0.0596
  855TIP3    H2 2530   0.074   0.536   5.166 -1.4743 -1.0400  0.8680
  856TIP3   OH2 2531   2.098   5.342   1.950  0.0082 -0.1486 -0.4774
  856TIP3    H1 2532   2.178   5.349   2.003  1.4738 -1.2629 -2.3883
  856TIP3    H2 2533   2.076   5.433   1.928  0.6355  0.1836  0.2007
  857TIP3   OH2 2534   4.878   0.888   4.334  0.2347  0.4723  0.2164
  857TIP3    H1 2535   4.906   0.973   4.300  2.2100 -0.7202 -1.3451
  857TIP3    H2 2536   4.819   0.854   4.267 -0.0479  0.3264  0.5366
  858TIP3   OH2 2537   0.721   2.742   0.564  0.2888  0.2240  0.3649
  858TIP3    H1 2538   0.800   2.714   0.610  0.2557  0.2491  0.4385
  858TIP3    H2 2539   0.737   2.833   0.542  0.7930 -0.1185 -0.7363
  859TIP3   OH2 2540   5.332   3.439   1.379  0.3205 -0.2830 -0.3994
  859TIP3    H1 2541   5.425   3.417   1.388  0.5026  1.0029  1.2572
  859TIP3    H2 2542   5.329   3.534   1.379 -1.0409 -0.3032  0.0055
  860TIP3   OH2 2543   5.413   6.776   4.830  0.2904  0.1584  0.1325
  860TIP3    H1 2544   5.406   6.681   4.843 -0.2235  0.1586 -0.1240
  860TIP3    H2 2545   5.507   6.794   4.837  0.5409 -0.5564 -1.1846
  861TIP3   OH2 2546   1.964   0.694   1.149  0.3399  0.1869 -0.2877
  861TIP3    H1 2547   1.958   0.770   1.206 -2.7203 -0.3621  0.2710
  861TIP3    H2 2548   1.946   0.728   1.061 -0.1001  0.2391 -0.1758
  862TIP3   OH2 2549   6.220   5.894   1.041  0.0003 -0.2086 -0.2506
  862TIP3    H1 2550   6.293   5.952   1.019  1.6918 -2.2754 -0.4186
  862TIP3    H2 2551   6.162   5.898   0.965  1.1950 -0.3913 -1.1930
  863TIP3   OH2 2552   5.200   5.058   0.603  0.3181 -0.3714  0.2300
  863TIP3    H1 2553   5.229   5.062   0.512 -0.4238 -0.5364 -0.0164
  863TIP3    H2 2554   5.212   5.148   0.636 -0.2734 -0.0952 -0.2985
  864TIP3   OH2 2555   0.786   5.747   0.032 -0.0347 -0.5324  0.4837
  864TIP3    H1 2556   0.778   5.663   0.078  0.0053 -0.5213  0.5107
  864TIP3    H2 2557   0.788   5.812   0.101  1.5523 -0.6131  0.5465
  865TIP3   OH2 2558   2.841   0.696   4.131 -0.1625 -0.2332  0.2365
  865TIP3    H1 2559   2.793   0.661   4.056  2.3046  0.0791 -1.6559
  865TIP3    H2 2560   2.882   0.620   4.171  0.8920 -0.1480 -0.6131
  866TIP3   OH2 2561   3.445   3.287   5.815  0.8448 -0.2523 -0.2163
  866TIP3    H1 2562   3.513   3.282   5.882  1.9173 -0.1003 -1.2586
  866TIP3    H2 2563   3.492   3.312   5.735 -0.2551 -1.3025 -1.2320
  867TIP3   OH2 2564   1.894   1.862   1.461  0.3216  0.1399  0.2185
  867TIP3    H1 2565   1.903   1.856   1.366  1.2776  1.3305  0.1975
  867TIP3    H2 2566   1.984   1.874   1.492 -0.1215  1.2957  1.1230
  868TIP3   OH2 2567   4.523   6.637   2.807 -0.2612  0.0308 -0.1413
  868TIP3    H1 2568   4.598   6.695   2.795  1.0417 -1.5337  0.0730
  868TIP3    H2 2569   4.531   6.606   2.897 -2.0838  1.0235  0.4131
  869TIP3   OH2 2570   0.929   3.373   0.409 -0.2999 -0.1735 -0.4363
  869TIP3    H1 2571   0.864   3.307   0.385 -0.9798  0.7332 -1.1478
  869TIP3    H2 2572   0.907   3.449   0.355  2.0702 -0.2257 -1.5967
  870TIP3   OH2 2573   0.814   0.158   1.825  0.0302  0.0114  0.4605
  870TIP3    H1 2574   0.905   0.187   1.837  0.8210 -2.1128  0.1150
  870TIP3    H2 2575   0.769   0.187   1.904  0.2056  3.7190 -0.6071
  871TIP3   OH2 2576   4.323   1.672   3.449  0.7129 -0.2028 -0.5554
  871TIP3    H1 2577   4.418   1.662   3.453  0.6044 -0.9867  0.6297
  871TIP3    H2 2578   4.291   1.633   3.531 -0.4314  2.6393  0.4778
  872TIP3   OH2 2579   6.214   3.347   5.212  0.1545  0.1370  0.1622
  872TIP3    H1 2580   6.162   3.286   5.264  0.0314  0.4443  0.4039
  872TIP3    H2 2581   6.222   3.425   5.267  0.6532  0.1885  0.0205
  873TIP3   OH2 2582   0.971   6.175   4.406 -0.4745  0.0432  0.2036
  873TIP3    H1 2583   0.944   6.147   4.494  0.3571  0.0948  0.4821
  873TIP3    H2 2584   1.066   6.188   4.413 -0.3295 -0.3529 -0.8101
  874TIP3   OH2 2585   5.251   1.904   5.456 -0.2500 -0.3256 -0.1931
  874TIP3    H1 2586   5.333   1.896   5.506 -0.3067 -0.5064 -0.1278
  874TIP3    H2 2587   5.207   1.820   5.471  0.5250 -1.0867 -1.9386
  875TIP3   OH2 2588   5.694   5.717   0.365 -0.3123  0.0377  0.2849
  875TIP3    H1 2589   5.754   5.784   0.397 -0.3114 -0.3411  1.0894
  875TIP3    H2 2590   5.639   5.696   0.440 -0.5755 -0.5823 -0.0739
  876TIP3   OH2 2591   4.890   4.632   1.875 -0.1705  0.0427  0.2725
  876TIP3    H1 2592   4.842   4.565   1.922 -0.0217 -0.6083 -0.4885
  876TIP3    H2 2593   4.932   4.685   1.944  0.6930 -1.3633  0.8684
  877TIP3   OH2 2594   0.957   2.459   5.824 -0.6080 -0.6899  0.0240
  877TIP3    H1 2595   0.989   2.409   5.749 -0.0045 -0.7115  0.2904
  877TIP3    H2 2596   0.917   2.537   5.786  1.5709  0.3685 -0.2565
  878TIP3   OH2 2597   5.397   1.551   3.607  0.5642 -0.2199  0.6495
  878TIP3    H1 2598   5.332   1.480   3.610 -1.3424  1.4410  0.7646
  878TIP3    H2 2599   5.436   1.551   3.694  0.0847 -0.7125  0.8715
  879TIP3   OH2 2600   0.581   4.646   1.806  0.4990  0.9492  0.0536
  879TIP3    H1 2601   0.614   4.734   1.786  0.6190  1.7860  3.2754
  879TIP3    H2 2602   0.590   4.639   1.901 -0.6900 -2.1092  0.0416
  880TIP3   OH2 2603   5.436   6.421   5.685 -0.1127 -0.1081 -0.2162
  880TIP3    H1 2604   5.518   6.373   5.674 -0.6050 -0.3833 -3.7520
  880TIP3    H2 2605   5.456   6.488   5.751  1.5781 -2.8814  2.3686
  881TIP3   OH2 2606   0.788   1.871   3.204  0.2644 -0.8722  0.0498
  881TIP3    H1 2607   0.776   1.846   3.296  1.0475 -0.5641  0.2437
  881TIP3    H2 2608   0.801   1.789   3.158  1.3141 -0.9463  0.4483
  882TIP3   OH2 2609   5.732   5.654   4.117  0.7494  0.3395 -0.6568
  882TIP3    H1 2610   5.649   5.676   4.074  0.7653  1.4774 -0.1498
  882TIP3    H2 2611   5.761   5.736   4.156  1.3682 -0.3746  0.4518
  883TIP3   OH2 2612   0.170   3.622   3.168 -0.2318  0.9578 -0.0521
  883TIP3    H1 2613   0.217   3.548   3.207  0.2193  2.0027  1.4813
  883TIP3    H2 2614   0.239   3.677   3.132 -0.2876  2.0813  1.4628
  884TIP3   OH2 2615   5.205   0.697   2.101  0.0978  0.1353 -0.1451
  884TIP3    H1 2616   5.178   0.640   2.173  0.5757 -1.2339 -1.0210
  884TIP3    H2 2617   5.136   0.764   2.097  0.4139  0.6496  1.9988
  885TIP3   OH2 2618   6.892   1.268   5.117 -0.0454  0.2481  0.3595
  885TIP3    H1 2619   6.923   1.357   5.099 -3.3230  1.7410  1.4165
  885TIP3    H2 2620   6.825   1.253   5.051 -1.1602 -0.4868  1.6240
  886TIP3   OH2 2621   5.626   1.591   5.854 -0.2692 -0.0334  0.2780
  886TIP3    H1 2622   5.541   1.557   5.828 -0.1851 -0.1406  0.1405
  886TIP3    H2 2623   5.670   1.611   5.771 -0.6566  1.2511  0.3482
  887TIP3   OH2 2624   3.341   5.374   3.211 -0.0913  0.5965 -0.0859
  887TIP3    H1 2625   3.431   5.405   3.217  0.1959 -0.1095 -0.5748
  887TIP3    H2 2626   3.326   5.328   3.294  0.1758  0.2839 -0.2051
  888TIP3   OH2 2627   4.916   2.889   5.306 -0.1383  0.3691 -0.1211
  888TIP3    H1 2628   4.955   2.945   5.239  1.3934  1.1377  1.3271
  888TIP3    H2 2629   4.991   2.854   5.355 -1.1905  0.1431  1.4278
  889TIP3   OH2 2630   4.843   1.882   5.599  0.8420 -0.1171  0.2304
  889TIP3    H1 2631   4.763   1.930   5.581 -0.2269 -2.2030 -1.0633
  889TIP3    H2 2632   4.858   1.892   5.693 -0.0306  1.5972  0.2136
  890TIP3   OH2 2633   1.757   3.337   4.785 -0.2151 -0.1378  0.4680
  890TIP3    H1 2634   1.749   3.385   4.868 -0.9112 -0.7433  0.7638
  890TIP3    H2 2635   1.741   3.403   4.718  0.4217  0.3735  0.8086
  891TIP3   OH2 2636  -0.001   2.985   3.004  0.0037 -0.4103  0.3555
  891TIP3    H1 2637  -0.012   2.938   3.087  3.0226 -1.9695 -0.0050
  891TIP3    H2 2638   0.045   2.924   2.947  1.2139  1.8555 -1.2685
  892TIP3   OH2 2639   3.103   5.053   0.282  0.1120  0.1598  0.0394
  892TIP3    H1 2640   3.198   5.051   0.271  0.2676 -0.2639  1.2762
  892TIP3    H2 2641   3.085   5.139   0.319  0.1804 -0.2376  1.0268
  893TIP3   OH2 2642   6.293   5.323   5.486 -0.2161 -0.2020  0.0166
  893TIP3    H1 2643   6.267   5.386   5.553 -0.9221  0.8236 -1.1651
  893TIP3    H2 2644   6.333   5.377   5.417 -1.4958 -0.9285 -1.3463
  894TIP3   OH2 2645   7.008   5.930   0.929 -0.1979  0.0185 -0.4915
  894TIP3    H1 2646   6.977   5.848   0.967  0.8368 -0.2993 -0.2987
  894TIP3    H2 2647   6.935   5.991   0.939 -0.8064 -0.7495 -0.2131
  895TIP3   OH2 2648   3.346   6.180   5.188 -0.3238  0.2850  0.6112
  895TIP3    H1 2649   3.257   6.211   5.168 -0.0621  0.5412 -0.2170
  895TIP3    H2 2650   3.353   6.096   5.142 -0.1004  0.3242  0.5714
  896TIP3   OH2 2651   6.406   1.486   2.832 -0.1464  0.4904  0.0081
  896TIP3    H1 2652   6.330   1.505   2.887 -0.0450  1.6536 -0.2212
  896TIP3    H2 2653   6.383   1.406   2.785 -2.1246  1.9044 -1.6066
  897TIP3   OH2 2654   5.171   2.024   0.098  0.1077 -0.0446  0.2472
  897TIP3    H1 2655   5.118   2.040   0.175 -0.0176 -1.3496  0.4507
  897TIP3    H2 2656   5.116   1.971   0.041  0.7868 -0.4903 -0.0152
  898TIP3   OH2 2657   5.331   2.988   4.791 -0.2434  0.4669 -0.4604
  898TIP3    H1 2658   5.415   2.961   4.826 -0.1827  0.1660 -0.8396
  898TIP3    H2 2659   5.329   3.083   4.804 -0.4130  0.3107  0.7667
  899TIP3   OH2 2660   2.304   3.629   2.581  0.4662  0.2490  0.3996
  899TIP3    H1 2661   2.392   3.595   2.566 -0.3360 -2.0577  0.3797
  899TIP3    H2 2662   2.284   3.605   2.672  0.4129  2.1734  0.9315
  900TIP3   OH2 2663   4.535   1.613   5.630 -0.3599 -0.2690 -0.2275
  900TIP3    H1 2664   4.490   1.680   5.579 -0.3131  0.4457  0.6438
  900TIP3    H2 2665   4.626   1.619   5.603 -0.0036  1.3207  1.1677
  901TIP3   OH2 2666   0.837   3.845   4.835 -0.4074  0.3491 -0.3612
  901TIP3    H1 2667   0.930   3.866   4.843 -0.1416 -0.8063 -0.2167
  901TIP3    H2 2668   0.802   3.852   4.924  0.0205 -1.2580 -0.0381
  902TIP3   OH2 2669   4.585   2.729   2.261  0.1115 -0.1695 -0.7478
  902TIP3    H1 2670   4.494   2.705   2.276 -0.4060  1.8924 -0.2861
  902TIP3    H2 2671   4.608   2.785   2.335  1.9135 -0.9575 -0.6384
  903TIP3   OH2 2672   1.817   0.429   2.901  0.2853  0.0025 -0.5339
  903TIP3    H1 2673   1.813   0.386   2.815 -0.4017  0.5615 -0.7962
  903TIP3    H2 2674   1.832   0.522   2.880  0.4362  0.0930 -0.0308
  904TIP3   OH2 2675   6.651   5.112   5.728 -0.1608  0.3842 -0.4309
  904TIP3    H1 2676   6.647   5.193   5.677 -1.3941  0.2243 -0.6081
  904TIP3    H2 2677   6.561   5.081   5.731 -0.1158  0.3044  1.6920
  905TIP3   OH2 2678   2.833   4.954   0.536 -0.3109  0.1345 -0.2119
  905TIP3    H1 2679   2.924   4.973   0.554 -0.6574  1.3639  0.3051
  905TIP3    H2 2680   2.794   4.935   0.621 -0.3903 -1.1450 -0.5091
  906TIP3   OH2 2681   5.847   4.846   2.933 -0.1110  0.2670  0.0203
  906TIP3    H1 2682   5.874   4.908   2.866  0.0432  1.0233  0.7665
  906TIP3    H2 2683   5.842   4.898   3.013  0.1297 -0.6990  0.6812
  907TIP3   OH2 2684   6.550   0.280   5.428 -0.5034 -0.4971  0.3308
  907TIP3    H1 2685   6.580   0.355   5.478 -0.3512  0.0439 -0.5516
  907TIP3    H2 2686   6.558   0.206   5.488 -0.2689  0.1205  1.0755
  908TIP3   OH2 2687   2.201   0.687   3.559  0.0019  0.0039 -0.5302
  908TIP3    H1 2688   2.181   0.759   3.499  0.7743  0.2122 -0.5538
  908TIP3    H2 2689   2.235   0.730   3.637 -1.8968 -0.2138  0.4579
  909TIP3   OH2 2690   4.183   0.941   0.062  0.5351 -0.6078 -0.3284
  909TIP3    H1 2691   4.226   0.858   0.044 -0.4256 -1.1227 -0.2996
  909TIP3    H2 2692   4.189   0.990  -0.020  1.5355 -0.4937 -0.1983
  910TIP3   OH2 2693   0.462   5.706   1.497 -0.1759  0.2682 -0.1035
  910TIP3    H1 2694   0.464   5.661   1.413 -1.7956  0.8036 -0.4695
  910TIP3    H2 2695   0.514   5.786   1.483 -2.3743  1.5915 -1.4227
  911TIP3   OH2 2696   3.878   6.402   5.046  0.4674 -0.2436 -0.1124
  911TIP3    H1 2697   3.915   6.376   5.131  0.3163  0.9526  0.3451
  911TIP3    H2 2698   3.878   6.498   5.049  0.9852 -0.1635 -1.6964
  912TIP3   OH2 2699   6.881   2.683   4.622 -0.0619  0.3375 -0.2748
  912TIP3    H1 2700   6.842   2.654   4.539 -0.1719 -1.1491  0.2578
  912TIP3    H2 2701   6.806   2.707   4.676 -0.3085 -1.9517  0.5387
  913TIP3   OH2 2702   2.689   1.242   5.221  0.7199  0.0249 -0.9405
  913TIP3    H1 2703   2.671   1.221   5.313  1.9318  1.4366 -0.3464
  913TIP3    H2 2704   2.732   1.327   5.224 -1.0109  1.0731 -2.9805
  914TIP3   OH2 2705   3.479   4.915   4.339 -0.1876  0.2573  0.4429
  914TIP3    H1 2706   3.517   4.998   4.309 -0.3638  0.2363  0.1533
  914TIP3    H2 2707   3.453   4.931   4.429 -0.0639  0.4648  0.4418
  915TIP3   OH2 2708   4.740   3.709   1.776  0.5591  0.2469  0.0657
  915TIP3    H1 2709   4.763   3.736   1.865  0.2585  0.0835  0.1948
  915TIP3    H2 2710   4.822   3.676   1.739  0.3897 -0.9846  0.7539
  916TIP3   OH2 2711   6.173   2.533   5.768 -0.0344  0.4893 -0.1689
  916TIP3    H1 2712   6.198   2.625   5.755  0.1859  0.7619  1.8195
  916TIP3    H2 2713   6.081   2.537   5.795  0.4365  0.3284  1.6094
  917TIP3   OH2 2714   1.336   0.183   3.183  0.0976 -0.0425  0.2317
  917TIP3    H1 2715   1.359   0.140   3.101 -1.7641 -1.6237  0.4721
  917TIP3    H2 2716   1.284   0.259   3.156 -0.1543 -0.3206 -0.0779
  918TIP3   OH2 2717   3.343   3.400   0.030 -0.1076 -0.6554  0.1932
  918TIP3    H1 2718   3.403   3.412  -0.044 -2.8667 -0.3559 -2.1985
  918TIP3    H2 2719   3.307   3.312   0.019 -1.1723 -0.3047  0.6524
  919TIP3   OH2 2720   2.900   0.176   0.238  0.3797  0.5851 -0.2673
  919TIP3    H1 2721   2.926   0.109   0.175  1.6290  2.0135 -1.3624
  919TIP3    H2 2722   2.821   0.215   0.201  0.7965  1.0453 -0.6953
  920TIP3   OH2 2723   2.417   0.974   1.189 -0.3728  0.3874 -0.4313
  920TIP3    H1 2724   2.424   1.053   1.242  0.1541 -1.0073  1.7213
  920TIP3    H2 2725   2.359   0.916   1.239  0.0079 -0.9419 -1.4572
  921TIP3   OH2 2726   5.116   4.217   2.664 -0.3649  0.1854 -0.1760
  921TIP3    H1 2727   5.138   4.237   2.755  0.2320  0.7832 -0.4390
  921TIP3    H2 2728   5.179   4.268   2.612 -0.9882  0.2240 -0.9294
  922TIP3   OH2 2729   0.605   0.654   4.201  0.6830 -0.7850  0.4934
  922TIP3    H1 2730   0.513   0.642   4.175  0.4597  1.0238  0.3614
  922TIP3    H2 2731   0.600   0.695   4.287  1.3594 -0.0705  0.1962
  923TIP3   OH2 2732   0.071   2.402   3.703 -0.7948 -0.4844 -0.1473
  923TIP3    H1 2733   0.161   2.415   3.732 -0.5961  0.7514 -1.2214
  923TIP3    H2 2734   0.031   2.489   3.711 -0.8662 -0.1597 -2.9736
  924TIP3   OH2 2735   0.881   5.523   4.419  0.5536 -0.0701 -0.3623
  924TIP3    H1 2736   0.936   5.506   4.495 -0.8945 -1.1492  0.4960
  924TIP3    H2 2737   0.853   5.614   4.430  0.4231 -0.1915  0.3638
  925TIP3   OH2 2738   4.401   3.678   2.464 -0.0415  0.0427 -0.3386
  925TIP3    H1 2739   4.407   3.593   2.422  0.1857  0.0213 -0.2648
  925TIP3    H2 2740   4.336   3.726   2.413 -0.3106 -0.2415 -0.2649
  926TIP3   OH2 2741   4.126   1.508   5.822 -0.2820  0.0292 -0.6127
  926TIP3    H1 2742   4.140   1.600   5.844 -0.5588 -0.3322  1.2845
  926TIP3    H2 2743   4.158   1.461   5.899  1.3694 -1.5687 -2.2135
  927TIP3   OH2 2744   6.551   2.142   3.544 -0.1066 -0.2953  0.1469
  927TIP3    H1 2745   6.504   2.110   3.467  0.0311  1.1795 -0.5881
  927TIP3    H2 2746   6.609   2.211   3.510  1.3559 -0.9134  1.2843
  928TIP3   OH2 2747   2.722   2.152   1.549 -0.2153  0.2099 -0.8483
  928TIP3    H1 2748   2.638   2.158   1.594 -0.4271 -1.7313 -0.8821
  928TIP3    H2 2749   2.787   2.139   1.618 -0.0230  1.0139 -0.8692
  929TIP3   OH2 2750   6.921   5.699   4.033 -0.2945 -0.0296  0.0299
  929TIP3    H1 2751   6.835   5.738   4.053 -0.9647 -1.9285  1.0590
  929TIP3    H2 2752   6.901   5.617   3.989  1.0713  0.2129 -1.1285
  930TIP3   OH2 2753   4.672   2.433   4.071 -0.0826 -0.1454  0.8238
  930TIP3    H1 2754   4.691   2.494   4.143  0.4810  1.6307 -0.7389
  930TIP3    H2 2755   4.729   2.358   4.087  3.0597  1.9100  0.1932
  931TIP3   OH2 2756   0.981   0.683   2.026 -0.6510 -0.5013  0.0439
  931TIP3    H1 2757   0.923   0.607   2.030  1.3274 -2.0686  0.7439
  931TIP3    H2 2758   1.052   0.662   2.087  1.7578  0.3196 -2.2780
  932TIP3   OH2 2759   0.152   5.249   1.602 -0.1770 -0.0512 -0.7999
  932TIP3    H1 2760   0.123   5.160   1.583 -1.2198 -0.3400  1.6542
  932TIP3    H2 2761   0.150   5.294   1.518  0.0940 -2.2574 -2.0520
  933TIP3   OH2 2762   2.838   3.231   2.322 -0.4825 -0.5717  0.2334
  933TIP3    H1 2763   2.833   3.304   2.383  1.5245  0.3648 -0.6254
  933TIP3    H2 2764   2.824   3.271   2.236  1.3962 -1.0324 -0.3183
  934TIP3   OH2 2765   2.369   4.790   3.039  0.2215  0.0442  0.2157
  934TIP3    H1 2766   2.435   4.843   3.084  1.7227 -0.0826 -1.6662
  934TIP3    H2 2767   2.298   4.851   3.019 -0.0615  0.2920  1.8954
  935TIP3   OH2 2768   6.653   1.450   3.864 -0.4491 -0.1056 -0.4651
  935TIP3    H1 2769   6.728   1.488   3.818 -1.0950 -1.1411 -2.5116
  935TIP3    H2 2770   6.593   1.524   3.876  0.3938  0.4949  0.1599
  936TIP3   OH2 2771   1.170   5.709   4.501 -0.7150  0.0560 -0.5377
  936TIP3    H1 2772   1.228   5.767   4.551  0.3344 -0.1756 -1.4393
  936TIP3    H2 2773   1.087   5.757   4.495 -0.2621  0.9036 -0.1828
  937TIP3   OH2 2774   2.510   4.809   5.203 -0.1998  0.2894  0.3767
  937TIP3    H1 2775   2.598   4.823   5.239 -0.4679  0.6144  0.9079
  937TIP3    H2 2776   2.451   4.824   5.277 -0.6387 -1.1565  0.3426
  938TIP3   OH2 2777   3.317   0.732   1.146 -0.5748 -0.0205  0.1852
  938TIP3    H1 2778   3.324   0.697   1.057  0.7993  0.7988 -0.0532
  938TIP3    H2 2779   3.231   0.703   1.176 -0.6706 -1.1146 -1.0570
  939TIP3   OH2 2780   3.430   0.179   3.839  0.0741 -0.1834  0.0496
  939TIP3    H1 2781   3.482   0.101   3.861 -0.1312 -0.3759 -0.1452
  939TIP3    H2 2782   3.357   0.178   3.900 -0.9980 -1.2194 -1.2000
  940TIP3   OH2 2783   1.157   5.110   0.600  0.3021  0.2235 -0.5743
  940TIP3    H1 2784   1.068   5.076   0.613  0.9574 -0.4805  3.0202
  940TIP3    H2 2785   1.146   5.204   0.594 -0.6326  0.3469  1.9425
  941TIP3   OH2 2786   2.745   4.387   4.507  0.0773 -0.6592  0.2875
  941TIP3    H1 2787   2.817   4.447   4.523  1.6968 -2.3753 -0.2397
  941TIP3    H2 2788   2.673   4.420   4.561  1.3127  0.9679  0.9967
  942TIP3   OH2 2789   3.711   0.451   5.127 -0.2367  0.1441 -0.6065
  942TIP3    H1 2790   3.733   0.485   5.214 -0.0121  1.4988 -1.1646
  942TIP3    H2 2791   3.639   0.390   5.143  0.2699 -0.1713  0.6088
  943TIP3   OH2 2792   0.784   1.691   3.886  0.2551  0.3475  0.0133
  943TIP3    H1 2793   0.723   1.700   3.813  1.6831 -0.4431 -1.3435
  943TIP3    H2 2794   0.868   1.672   3.844  1.3885  1.1255  1.8201
  944TIP3   OH2 2795   4.749   3.460   3.525 -0.0169 -0.0593 -0.1120
  944TIP3    H1 2796   4.656   3.455   3.550 -0.3541 -0.8433 -1.4296
  944TIP3    H2 2797   4.761   3.386   3.466  1.5111 -0.0629  0.1773
  945TIP3   OH2 2798   6.019   2.165   1.239  0.1199  0.1228  0.3886
  945TIP3    H1 2799   5.999   2.237   1.178 -0.5519  0.1623  0.6531
  945TIP3    H2 2800   6.008   2.203   1.326  2.6534  0.5361  0.6132
  946TIP3   OH2 2801   6.193   2.960   5.597  0.0588 -0.1192 -0.0103
  946TIP3    H1 2802   6.132   3.030   5.620  1.7512  1.2302  0.6743
  946TIP3    H2 2803   6.184   2.896   5.667 -2.1476 -1.0999 -1.0998
  947TIP3   OH2 2804   3.054   4.881   4.292 -0.3415  0.1814 -0.1666
  947TIP3    H1 2805   3.099   4.827   4.226 -0.0321 -0.7433  0.7770
  947TIP3    H2 2806   3.120   4.895   4.360 -0.6243  1.2185 -0.0964
  948TIP3   OH2 2807   2.275   1.540   2.779 -0.5883 -0.4583 -0.1134
  948TIP3    H1 2808   2.308   1.478   2.714 -0.5497 -1.6539  0.9919
  948TIP3    H2 2809   2.321   1.517   2.860 -0.5294  1.0806  0.3121
  949TIP3   OH2 2810   5.899   2.811   1.955  0.4137  0.4105 -0.0832
  949TIP3    H1 2811   5.856   2.751   1.894 -0.5169  0.4730  0.4903
  949TIP3    H2 2812   5.866   2.786   2.041 -1.0512  2.5773  0.0566
  950TIP3   OH2 2813   4.331   1.519   1.248  0.1753  0.5872 -0.2112
  950TIP3    H1 2814   4.251   1.569   1.262 -0.4752  0.4336 -2.8226
  950TIP3    H2 2815   4.388   1.577   1.199 -0.1044 -0.6720 -2.1807
  951TIP3   OH2 2816   4.286   6.567   4.356  0.3044  0.6588 -0.2090
  951TIP3    H1 2817   4.310   6.599   4.270  2.5187  1.6068  0.6977
  951TIP3    H2 2818   4.355   6.505   4.380 -0.2428  0.4372  0.9019
  952TIP3   OH2 2819   5.508   4.300   2.186  0.2725  0.3313 -0.2012
  952TIP3    H1 2820   5.426   4.350   2.194 -0.1752 -0.3006 -0.7371
  952TIP3    H2 2821   5.492   4.222   2.239  0.5825  0.2653 -0.2064
  953TIP3   OH2 2822   3.972   3.715   0.278 -0.2288  0.5076 -0.3909
  953TIP3    H1 2823   4.031   3.763   0.337  0.1365 -1.2673  0.7580
  953TIP3    H2 2824   3.910   3.672   0.337 -3.2297  2.8546 -1.5685
  954TIP3   OH2 2825   5.654   3.544   2.615  0.2484 -0.7062 -0.4967
  954TIP3    H1 2826   5.706   3.477   2.658 -0.1591  0.9652  3.0173
  954TIP3    H2 2827   5.692   3.553   2.528  1.0701 -4.5112 -0.6922
  955TIP3   OH2 2828   3.721   3.972   3.864  0.2949 -0.4701 -0.4882
  955TIP3    H1 2829   3.636   3.999   3.830  0.3547 -0.6006 -0.7475
  955TIP3    H2 2830   3.718   3.876   3.862  0.7424 -0.4748 -1.2593
  956TIP3   OH2 2831   3.945   4.550   3.163 -0.3426 -0.2374  0.0550
  956TIP3    H1 2832   3.958   4.498   3.083 -1.4137 -0.5306  0.0486
  956TIP3    H2 2833   3.850   4.550   3.176 -0.1573 -0.5540  1.5768
  957TIP3   OH2 2834   1.883   0.201   3.364 -0.0945 -0.1717  0.2785
  957TIP3    H1 2835   1.944   0.140   3.322 -1.4366  0.9374 -3.7432
  957TIP3    H2 2836   1.929   0.285   3.364 -0.4207  0.0110  0.2166
  958TIP3   OH2 2837   0.593   1.173   2.965 -0.1732  0.2046 -0.3480
  958TIP3    H1 2838   0.677   1.207   2.934 -0.2996  0.6798 -0.1843
  958TIP3    H2 2839   0.592   1.193   3.058  0.7178 -2.2772  0.2522
  959TIP3   OH2 2840   1.884   6.463   5.570 -0.2234 -0.0867  0.3346
  959TIP3    H1 2841   1.831   6.449   5.648  0.9447 -0.0807  1.1700
  959TIP3    H2 2842   1.841   6.534   5.522 -1.3808 -0.6218  0.5672
  960TIP3   OH2 2843   1.556   0.340   0.794  0.6626  0.1839  0.2118
  960TIP3    H1 2844   1.634   0.331   0.850  0.2791  0.4546  0.7934
  960TIP3    H2 2845   1.592   0.349   0.706  1.2233 -2.8411  0.0331
  961TIP3   OH2 2846   3.429   5.529   4.695 -0.6942 -0.7551 -0.3637
  961TIP3    H1 2847   3.375   5.594   4.651 -1.5638 -0.2221  1.4215
  961TIP3    H2 2848   3.518   5.563   4.688 -1.2863  1.5179  1.8793
  962TIP3   OH2 2849   4.507   3.743   0.734 -0.0974  0.5275 -0.3631
  962TIP3    H1 2850   4.415   3.745   0.759 -0.4021  1.0529 -1.4662
  962TIP3    H2 2851   4.509   3.778   0.644  1.1054  0.0246 -0.5580
  963TIP3   OH2 2852   0.318   6.727   5.238  0.0451  0.5434  0.0146
  963TIP3    H1 2853   0.403   6.687   5.254 -0.0764 -0.6168 -2.0200
  963TIP3    H2 2854   0.263   6.696   5.310  0.6495 -0.8384 -0.1007
  964TIP3   OH2 2855   4.869   1.157   0.544  0.0360  0.0798  0.7217
  964TIP3    H1 2856   4.893   1.074   0.504 -0.7566  0.8379 -1.5201
  964TIP3    H2 2857   4.779   1.144   0.576 -0.3052  0.2263 -0.1596
  965TIP3   OH2 2858   6.670   5.843   3.683  0.1946 -0.2214 -0.1045
  965TIP3    H1 2859   6.656   5.884   3.597  0.8374 -0.7081 -0.4500
  965TIP3    H2 2860   6.629   5.903   3.745 -0.5498 -0.0104 -0.7798
  966TIP3   OH2 2861   3.831   3.052   5.501  0.6916  0.3112 -0.6357
  966TIP3    H1 2862   3.875   2.981   5.454  0.0594 -0.9812  0.6416
  966TIP3    H2 2863   3.869   3.050   5.589  0.6354  1.5494 -0.5635
  967TIP3   OH2 2864   1.330   5.869   2.639  0.0940  0.5517 -0.1839
  967TIP3    H1 2865   1.260   5.895   2.579  0.4172 -1.4809 -1.5299
  967TIP3    H2 2866   1.369   5.791   2.599  2.7129  1.2138  0.8737
  968TIP3   OH2 2867   0.280   5.752   3.817  0.2799  0.4970  0.1674
  968TIP3    H1 2868   0.237   5.764   3.732  0.4599  1.4507  0.1994
  968TIP3    H2 2869   0.267   5.660   3.838  0.8856  0.0605 -1.2509
  969TIP3   OH2 2870   5.925   4.232   5.704 -0.4488 -0.0228 -0.0164
  969TIP3    H1 2871   5.923   4.172   5.779 -2.1986 -0.9051 -0.7201
  969TIP3    H2 2872   6.017   4.230   5.675  0.5574  1.2424  2.7317
  970TIP3   OH2 2873   2.284   2.475   5.820 -0.1807 -0.3163 -0.3901
  970TIP3    H1 2874   2.299   2.450   5.729 -1.5363  0.7175 -0.9347
  970TIP3    H2 2875   2.258   2.567   5.816 -0.2746 -0.2545  1.0375
  971TIP3   OH2 2876   0.157   4.962   1.054 -0.1661 -0.4337 -0.1456
  971TIP3    H1 2877   0.093   4.925   1.115 -2.3281  0.0310 -2.0378
  971TIP3    H2 2878   0.239   4.916   1.075 -1.7526 -3.1894  0.4183
  972TIP3   OH2 2879   1.713   4.842   1.904 -0.4367  0.1475  0.4130
  972TIP3    H1 2880   1.618   4.847   1.915 -0.4459 -2.2665  2.1868
  972TIP3    H2 2881   1.727   4.829   1.811 -1.8590  0.2595  0.1734
  973TIP3   OH2 2882   0.192   3.857   0.485  0.1037  0.3926  0.6109
  973TIP3    H1 2883   0.103   3.823   0.496 -0.1470  0.5057 -0.8733
  973TIP3    H2 2884   0.248   3.790   0.524 -0.5786 -0.1166  0.7328
  974TIP3   OH2 2885   3.101   5.758   1.653 -0.0810 -0.6938 -0.1368
  974TIP3    H1 2886   3.037   5.799   1.595  0.6780 -0.4853 -0.8417
  974TIP3    H2 2887   3.125   5.828   1.714  0.1598 -0.4984 -0.4516
  975TIP3   OH2 2888   1.659   4.126   2.404  0.5235  0.3243  0.2862
  975TIP3    H1 2889   1.596   4.197   2.419  0.6705  0.1868  1.6678
  975TIP3    H2 2890   1.743   4.163   2.430  0.5950 -0.3649  1.0524
  976TIP3   OH2 2891   4.965   2.687   1.425 -0.1487  0.1636 -0.1541
  976TIP3    H1 2892   4.928   2.766   1.464 -0.3059  0.9277 -1.8114
  976TIP3    H2 2893   4.948   2.695   1.332 -1.0793 -2.3338 -0.2643
  977TIP3   OH2 2894   2.776   6.553   3.981  0.0369 -0.0302  0.1735
  977TIP3    H1 2895   2.839   6.621   3.955  2.0270 -3.1057 -4.1782
  977TIP3    H2 2896   2.824   6.501   4.046  0.0622  0.3863  0.4968
  978TIP3   OH2 2897   1.742   3.245   1.557 -0.4826  1.0670 -0.3251
  978TIP3    H1 2898   1.680   3.312   1.586 -2.6068 -0.5988 -0.7382
  978TIP3    H2 2899   1.756   3.190   1.634 -2.1472 -0.4176 -1.0048
  979TIP3   OH2 2900   2.957   1.885   0.537 -0.2915  0.0631  0.6453
  979TIP3    H1 2901   2.867   1.899   0.568 -0.6360 -1.0977  0.2343
  979TIP3    H2 2902   3.001   1.843   0.611  0.3626  1.9488  1.3903
  980TIP3   OH2 2903   6.105   1.242   4.143  0.4121  0.8633 -0.0813
  980TIP3    H1 2904   6.151   1.251   4.227 -0.4775 -1.5240  0.7500
  980TIP3    H2 2905   6.016   1.272   4.162  0.3418  0.8011 -0.3158
  981TIP3   OH2 2906   2.997   0.028   4.098  0.4290  0.0726 -0.3344
  981TIP3    H1 2907   2.912   0.035   4.055 -0.5791  1.0068  1.6702
  981TIP3    H2 2908   2.995  -0.057   4.141  0.8331 -0.2297 -0.9038
  982TIP3   OH2 2909   1.507   1.430   1.971 -1.0873 -0.2363  0.3133
  982TIP3    H1 2910   1.479   1.506   1.919 -0.8700 -0.8036 -0.6647
  982TIP3    H2 2911   1.548   1.467   2.049 -2.5528  0.6341  0.6985
  983TIP3   OH2 2912   6.995   1.102   1.147  0.2591  0.3996  0.0083
  983TIP3    H1 2913   7.012   1.008   1.140  0.1151  0.4815 -2.4982
  983TIP3    H2 2914   6.903   1.112   1.120 -1.0249  0.9596  3.9210
  984TIP3   OH2 2915   5.449   6.118   1.426  0.4906 -0.4811 -0.0827
  984TIP3    H1 2916   5.478   6.149   1.341 -0.2004  1.4707  0.3387
  984TIP3    H2 2917   5.357   6.144   1.431  1.1419  1.7983  2.2162
  985TIP3   OH2 2918   3.416   5.696   1.328  0.1076  0.1177  0.2430
  985TIP3    H1 2919   3.478   5.630   1.297 -0.5644 -1.1242  1.3809
  985TIP3    H2 2920   3.443   5.713   1.419 -0.9597 -0.1537  0.6238
  986TIP3   OH2 2921   0.905   5.119   4.451  0.1181 -0.4166 -0.2239
  986TIP3    H1 2922   0.944   5.124   4.538  0.1309  1.4535 -0.3042
  986TIP3    H2 2923   0.838   5.187   4.450 -0.0535 -0.5787 -1.5866
  987TIP3   OH2 2924   5.012   5.721   5.457  0.4605  0.0643  0.0018
  987TIP3    H1 2925   4.935   5.725   5.512  0.3822 -0.0832 -0.0963
  987TIP3    H2 2926   5.034   5.813   5.438  0.1982  0.0996 -0.1282
  988TIP3   OH2 2927   2.207   2.541   4.006 -0.4923 -0.2775  0.0831
  988TIP3    H1 2928   2.251   2.571   4.086  0.0959  0.9348 -0.6616
  988TIP3    H2 2929   2.114   2.558   4.021 -0.6330 -1.8789  1.2560
  989TIP3   OH2 2930   4.695   3.549   0.722  0.0863 -0.1269 -0.7082
  989TIP3    H1 2931   4.614   3.598   0.718 -1.9686 -3.1604  0.1241
  989TIP3    H2 2932   4.691   3.489   0.647  1.0503 -0.9985 -0.0994
  990TIP3   OH2 2933   4.142   0.385   3.010  0.0401  0.4263  0.4029
  990TIP3    H1 2934   4.135   0.336   3.092 -1.9167  1.1729  0.7423
  990TIP3    H2 2935   4.051   0.407   2.988  0.6109  1.0579 -1.4699
  991TIP3   OH2 2936   6.844   1.228   5.642  1.0702  0.2230  0.0512
  991TIP3    H1 2937   6.775   1.183   5.593 -0.2968  1.3522  0.8418
  991TIP3    H2 2938   6.910   1.161   5.658 -0.1355 -1.0674 -0.1873
  992TIP3   OH2 2939   3.605   2.125   3.211  0.6901 -0.0382 -0.0980
  992TIP3    H1 2940   3.668   2.193   3.231  1.8818 -1.3537  0.8471
  992TIP3    H2 2941   3.588   2.082   3.295 -3.5071  1.8480  0.2727
  993TIP3   OH2 2942   1.992   2.885   0.286  0.1444  0.0769  1.0849
  993TIP3    H1 2943   1.904   2.902   0.318 -0.2034 -0.7347  0.5726
  993TIP3    H2 2944   2.036   2.970   0.291 -0.7147  0.5204  1.1953
  994TIP3   OH2 2945   4.964   2.466   0.071 -0.0727 -0.4412  0.2622
  994TIP3    H1 2946   5.030   2.415   0.118 -0.6924 -0.6020  0.9795
  994TIP3    H2 2947   4.986   2.455  -0.021  0.9821 -0.3768  0.4931
  995TIP3   OH2 2948   6.750   6.739   0.116  0.2663 -0.0863 -0.1930
  995TIP3    H1 2949   6.659   6.717   0.098  0.4214 -0.4248 -0.5688
  995TIP3    H2 2950   6.795   6.727   0.032  0.9587 -1.4483  0.3538
  996TIP3   OH2 2951   6.493   6.302   2.122 -0.1749  0.0823  0.0863
  996TIP3    H1 2952   6.543   6.342   2.052  2.1035 -1.2241  0.8631
  996TIP3    H2 2953   6.559   6.269   2.183 -1.9894 -1.5961  1.2652
  997TIP3   OH2 2954   0.166   6.050   2.536  0.0146  0.4367  0.5520
  997TIP3    H1 2955   0.226   6.085   2.603  2.4897  0.5085 -1.5479
  997TIP3    H2 2956   0.129   6.128   2.494  0.5977  0.4548  0.0587
  998TIP3   OH2 2957   0.238   2.842   4.834  0.4313  0.1316  0.2263
  998TIP3    H1 2958   0.230   2.905   4.762 -1.5248  0.0000  0.2905
  998TIP3    H2 2959   0.267   2.761   4.792 -0.6859  0.0574 -0.4282
  999TIP3   OH2 2960   5.502   2.478   5.556  0.0197 -0.1373 -0.5386
  999TIP3    H1 2961   5.462   2.450   5.638 -0.9169 -0.0964 -0.9645
  999TIP3    H2 2962   5.525   2.397   5.511 -1.6232 -0.2556 -1.2537
 1000TIP3   OH2 2963   5.562   2.912   3.387  0.0251 -0.7273  0.1667
 1000TIP3    H1 2964   5.543   2.819   3.400 -0.2181 -0.8260 -0.7980
 1000TIP3    H2 2965   5.510   2.957   3.454 -1.1450 -1.1904 -0.4086
 1001TIP3   OH2 2966   3.923   6.206   3.227  0.1437 -0.6145  0.9114
 1001TIP3    H1 2967   3.885   6.119   3.212  0.0272 -0.7909  2.1290
 1001TIP3    H2 2968   3.898   6.228   3.317 -1.5195  1.5334  0.0250
 1002TIP3   OH2 2969   5.723   3.253   5.727  0.3082  0.3809 -0.2696
 1002TIP3    H1 2970   5.783   3.328   5.732  0.7201  0.0622 -0.3376
 1002TIP3    H2 2971   5.729   3.212   5.813 -1.1303  1.3276  0.3223
 1003TIP3   OH2 2972   2.709   1.847   5.881 -0.1636 -0.2739  0.6343
 1003TIP3    H1 2973   2.769   1.861   5.808 -0.9532 -1.0291 -0.1846
 1003TIP3    H2 2974   2.705   1.931   5.926 -0.0169  0.3265 -0.4593
 1004TIP3   OH2 2975   3.719   5.272   5.813  0.5528  0.7025  0.1109
 1004TIP3    H1 2976   3.681   5.359   5.824  2.8195  1.7916 -0.2175
 1004TIP3    H2 2977   3.808   5.279   5.848  0.5763 -1.7000  0.7501
 1005TIP3   OH2 2978   6.252   6.505   1.612 -0.3205 -0.3572  0.2457
 1005TIP3    H1 2979   6.203   6.574   1.657  1.4972 -0.3470  2.3802
 1005TIP3    H2 2980   6.322   6.552   1.565  1.1977 -0.6840  2.0705
 1006TIP3   OH2 2981   5.865   0.416   3.697 -0.3769  0.4733  0.2134
 1006TIP3    H1 2982   5.895   0.430   3.607  0.5235  0.2442  0.4725
 1006TIP3    H2 2983   5.890   0.495   3.744 -0.4852  0.4226  0.3566
 1007TIP3   OH2 2984   3.088   5.965   5.386  0.3739 -0.0572  0.0230
 1007TIP3    H1 2985   3.000   5.927   5.395  1.3721 -2.3948  0.7682
 1007TIP3    H2 2986   3.078   6.034   5.320 -1.7368 -1.2247 -0.9815
 1008TIP3   OH2 2987   4.763   0.131   4.456 -0.3185  0.3761 -0.4589
 1008TIP3    H1 2988   4.825   0.202   4.439  0.1156  0.4945  1.3998
 1008TIP3    H2 2989   4.812   0.051   4.434  0.4920  0.4730  0.8919
 1009TIP3   OH2 2990   3.961   0.326   5.199  0.0480 -0.1840 -0.3354
 1009TIP3    H1 2991   3.944   0.388   5.270  0.2827 -1.2211  0.6551
 1009TIP3    H2 2992   3.890   0.342   5.136  0.0355  0.9870 -0.0495
 1010TIP3   OH2 2993   5.372   3.916   0.446 -0.2368  0.4831 -0.5629
 1010TIP3    H1 2994   5.464   3.925   0.423 -0.5797 -1.6144 -3.2990
 1010TIP3    H2 2995   5.367   3.835   0.497 -0.6962 -0.4073 -1.9485
 1011TIP3   OH2 2996   6.730   0.424   3.029 -0.7877  0.2014  0.5322
 1011TIP3    H1 2997   6.731   0.397   3.120  3.2605  0.8869  0.8625
 1011TIP3    H2 2998   6.743   0.343   2.979 -1.6194  0.0034  0.6256
 1012TIP3   OH2 2999   3.943   5.756   0.309 -0.3122  0.1937  0.1880
 1012TIP3    H1 3000   3.965   5.664   0.295 -0.1203 -0.1118  2.1498
 1012TIP3    H2 3001   3.955   5.797   0.223 -0.4508 -1.6012 -0.7434
 1013TIP3   OH2 3002   2.863   1.138   3.669  0.1938 -0.6468 -0.2404
 1013TIP3    H1 3003   2.846   1.232   3.675  1.8559 -0.3791  0.7870
 1013TIP3    H2 3004   2.953   1.128   3.698 -0.0764 -2.6184  0.0294
 1014TIP3   OH2 3005   4.395   0.530   3.397  0.1633  0.0627  0.1634
 1014TIP3    H1 3006   4.414   0.531   3.491  0.0653 -0.4634  0.1912
 1014TIP3    H2 3007   4.347   0.448   3.383  1.0910 -0.3799 -0.5263
 1015TIP3   OH2 3008   6.652   6.577   0.880 -0.9066  0.5683  0.0381
 1015TIP3    H1 3009   6.657   6.673   0.878  0.6834  0.4862 -0.8758
 1015TIP3    H2 3010   6.631   6.552   0.790  1.6287 -0.0353 -0.4684
 1016TIP3   OH2 3011   3.113   5.539   1.818  0.5092  0.2034 -0.0701
 1016TIP3    H1 3012   3.070   5.576   1.895  2.1432  0.1960  0.9058
 1016TIP3    H2 3013   3.095   5.602   1.748 -0.9523  0.2455  0.3072
 1017TIP3   OH2 3014   5.855   2.789   0.802  0.3710  0.2283  0.6874
 1017TIP3    H1 3015   5.919   2.851   0.768 -1.1230  0.6627 -1.5348
 1017TIP3    H2 3016   5.852   2.807   0.896  2.4049  1.1687  0.6304
 1018TIP3   OH2 3017   1.754   0.320   2.260 -0.1043  0.2395  0.1251
 1018TIP3    H1 3018   1.798   0.390   2.212 -1.2021  1.6348  1.0496
 1018TIP3    H2 3019   1.720   0.261   2.192 -2.0071  2.3770 -0.9223
 1019TIP3   OH2 3020   5.764   2.870   3.649 -0.4255 -0.2565 -0.1966
 1019TIP3    H1 3021   5.777   2.789   3.697  0.6429  0.1222  0.1849
 1019TIP3    H2 3022   5.727   2.843   3.565 -0.8544 -1.0567  0.2493
 1020TIP3   OH2 3023   5.691   0.623   1.843 -0.4192 -0.0389  0.3210
 1020TIP3    H1 3024   5.608   0.589   1.877  0.7242 -3.6418  0.0216
 1020TIP3    H2 3025   5.755   0.555   1.866  1.7481  0.7783 -2.6851
 1021TIP3   OH2 3026   6.224   0.941   3.464  0.0753  0.3904  0.0044
 1021TIP3    H1 3027   6.205   1.020   3.514  0.4011 -0.1453  0.9982
 1021TIP3    H2 3028   6.244   0.874   3.530  2.3265  0.1050 -0.8757
 1022TIP3   OH2 3029   3.270   0.285   2.386  0.0844  0.3589 -0.3203
 1022TIP3    H1 3030   3.326   0.243   2.451  0.9736  0.5951 -0.9149
 1022TIP3    H2 3031   3.298   0.247   2.302  0.4341  1.6223 -0.7979
 1023TIP3   OH2 3032   0.378   0.500   3.919 -0.7389 -0.0741  0.2804
 1023TIP3    H1 3033   0.363   0.406   3.910 -0.4428 -0.1779  0.8554
 1023TIP3    H2 3034   0.438   0.521   3.847 -0.9820 -0.2757  0.0124
 1024TIP3   OH2 3035   7.125   4.549   5.062  0.0558  0.5086 -0.0784
 1024TIP3    H1 3036   7.061   4.604   5.106  0.1246 -0.3231  1.0936
 1024TIP3    H2 3037   7.140   4.476   5.122 -1.5991 -1.9660 -2.4147
 1025TIP3   OH2 3038   3.424   3.263   1.301  0.4825  0.5562 -0.6998
 1025TIP3    H1 3039   3.486   3.220   1.243  1.5897  0.1969  0.7003
 1025TIP3    H2 3040   3.478   3.316   1.360 -0.6035  0.9865 -0.0587
 1026TIP3   OH2 3041   6.411   1.087   1.574 -0.3060 -0.1791  0.1111
 1026TIP3    H1 3042   6.335   1.103   1.630 -1.8245  0.8306 -2.1358
 1026TIP3    H2 3043   6.416   0.991   1.567 -2.6560 -0.2591 -1.2937
 1027TIP3   OH2 3044   3.461   5.894   2.180 -0.4102 -0.2835  0.1848
 1027TIP3    H1 3045   3.482   5.954   2.108  0.7392  0.6322  1.2414
 1027TIP3    H2 3046   3.403   5.828   2.140  0.3643  0.0655 -1.6176
 1028TIP3   OH2 3047   3.680   5.477   4.239 -0.2849  0.6722  0.6881
 1028TIP3    H1 3048   3.614   5.542   4.214  0.2210  1.0069  0.1847
 1028TIP3    H2 3049   3.691   5.423   4.160 -0.2594  0.3546  0.9070
 1029TIP3   OH2 3050   2.295   1.045   5.791  0.2555 -0.3346 -0.0367
 1029TIP3    H1 3051   2.208   1.005   5.797 -0.4957  1.1740 -0.6043
 1029TIP3    H2 3052   2.303   1.072   5.700  0.2549  1.8075  0.5442
 1030TIP3   OH2 3053   2.511   6.750   3.810 -0.0491 -0.0140  0.0467
 1030TIP3    H1 3054   2.565   6.759   3.889  1.1062  0.3444 -0.7604
 1030TIP3    H2 3055   2.566   6.703   3.748 -1.0487 -0.5364 -0.4643
 1031TIP3   OH2 3056   4.077   0.503   0.453  0.5718 -0.6100  0.2537
 1031TIP3    H1 3057   4.028   0.422   0.442  0.9919 -0.9467  0.8078
 1031TIP3    H2 3058   4.058   0.531   0.543 -0.2923  0.3976 -0.2160
 1032TIP3   OH2 3059   5.011   2.607   2.853  0.2505  0.5551  0.3321
 1032TIP3    H1 3060   4.942   2.551   2.889  2.1011 -1.1818  1.4707
 1032TIP3    H2 3061   5.002   2.599   2.759 -1.9311  1.5410  0.3916
 1033TIP3   OH2 3062   0.113   0.816   3.300 -0.0431 -0.3259 -0.4041
 1033TIP3    H1 3063   0.065   0.898   3.310  2.5406  1.1597  0.7228
 1033TIP3    H2 3064   0.196   0.841   3.261 -0.4992 -2.9756 -3.5603
 1034TIP3   OH2 3065   5.053   0.505   2.813 -0.5153  0.0379  0.0486
 1034TIP3    H1 3066   5.063   0.600   2.818 -0.9191  0.1168 -0.5705
 1034TIP3    H2 3067   4.958   0.491   2.812 -0.4562 -0.3318 -0.5551
 1035TIP3   OH2 3068   4.269   3.153   3.650 -0.1298  0.2312  0.2076
 1035TIP3    H1 3069   4.281   3.232   3.704 -0.9012 -1.3247  2.8591
 1035TIP3    H2 3070   4.336   3.093   3.681  0.7398 -0.0651 -2.1001
 1036TIP3   OH2 3071   6.539   0.930   0.583 -0.0806  0.3168  0.1471
 1036TIP3    H1 3072   6.634   0.925   0.570 -0.3063  0.1352 -1.8167
 1036TIP3    H2 3073   6.528   0.997   0.651  1.4801 -0.7136  1.4907
 1037TIP3   OH2 3074   5.688   0.147   1.278  0.1819  0.2733 -0.1606
 1037TIP3    H1 3075   5.722   0.058   1.271  0.7756  0.4458  0.3724
 1037TIP3    H2 3076   5.608   0.147   1.225 -1.9816 -1.6356  2.7854
 1038TIP3   OH2 3077   0.805   6.366   4.308  0.1749 -0.6410  0.1072
 1038TIP3    H1 3078   0.825   6.439   4.366 -0.5709 -0.8935  0.6954
 1038TIP3    H2 3079   0.869   6.299   4.331  0.2893 -0.5060  0.1875
 1039TIP3   OH2 3080   4.054   6.652   3.405  0.3253 -0.4886  0.6671
 1039TIP3    H1 3081   3.972   6.695   3.383  1.4066  1.5349  0.4310
 1039TIP3    H2 3082   4.076   6.601   3.326  0.1885  0.3673  0.0670
 1040TIP3   OH2 3083   1.820   6.352   4.000  0.1645  0.4962 -0.2119
 1040TIP3    H1 3084   1.909   6.321   3.982 -0.2620 -0.9352  0.0650
 1040TIP3    H2 3085   1.832   6.423   4.064  0.9775 -1.3962  1.8658
 1041TIP3   OH2 3086   1.247   0.574   5.002 -0.1945  0.6424 -0.1970
 1041TIP3    H1 3087   1.222   0.508   4.937  1.4478 -0.8466  0.5815
 1041TIP3    H2 3088   1.210   0.542   5.084 -2.0059  2.3576 -0.2772
 1042TIP3   OH2 3089   6.482   2.940   0.526  0.0576 -0.8900 -0.0310
 1042TIP3    H1 3090   6.459   2.848   0.534 -1.5425 -0.4569  0.8186
 1042TIP3    H2 3091   6.459   2.963   0.436 -0.1876 -1.1633 -0.0393
 1043TIP3   OH2 3092   3.833   6.502   2.198  0.2402 -0.4363 -0.1140
 1043TIP3    H1 3093   3.786   6.550   2.266 -1.4161  0.2399 -1.6686
 1043TIP3    H2 3094   3.789   6.417   2.193  2.0999 -1.5832  1.4669
 1044TIP3   OH2 3095   2.121   2.949   1.475  0.5382 -0.0808  0.1481
 1044TIP3    H1 3096   2.054   3.016   1.459  0.9362  0.4873  0.8098
 1044TIP3    H2 3097   2.202   2.998   1.486  0.7761 -0.6373  1.0214
 1045TIP3   OH2 3098   4.072   6.405   1.873  0.9019 -0.6460 -0.2301
 1045TIP3    H1 3099   4.116   6.338   1.927 -1.3031 -1.7152  0.3345
 1045TIP3    H2 3100   4.068   6.482   1.930  0.2325 -1.1886  0.4719
 1046TIP3   OH2 3101   4.576   6.302   4.878  0.6735 -0.1323  0.3892
 1046TIP3    H1 3102   4.537   6.245   4.943  1.1374 -1.4754 -0.4602
 1046TIP3    H2 3103   4.648   6.345   4.923 -0.5128  0.8658  1.4152
 1047TIP3   OH2 3104   6.157   4.204   4.148 -0.0747 -0.4815 -0.1202
 1047TIP3    H1 3105   6.112   4.285   4.170  2.5198  1.2524 -0.8068
 1047TIP3    H2 3106   6.112   4.171   4.070 -0.6031  0.7656 -0.3618
 1048TIP3   OH2 3107   6.918   6.420   1.418 -0.5882  0.2027  0.4840
 1048TIP3    H1 3108   6.860   6.491   1.392  0.4053  1.3276  1.2300
 1048TIP3    H2 3109   6.891   6.346   1.365 -1.9709  1.0040  0.0323
 1049TIP3   OH2 3110   3.006   6.626   5.526 -0.0927  0.2469 -0.1573
 1049TIP3    H1 3111   2.977   6.555   5.583 -0.5121 -1.0841 -1.9512
 1049TIP3    H2 3112   2.926   6.660   5.486  0.2379  0.8274 -0.3480
 1050TIP3   OH2 3113   5.077   2.680   3.940  0.1815 -0.5704 -0.0665
 1050TIP3    H1 3114   5.152   2.691   3.881 -0.2542  0.4296 -0.4562
 1050TIP3    H2 3115   5.043   2.769   3.952  0.5417 -0.6501  2.0684
 1051TIP3   OH2 3116   3.334   6.410   2.697  0.2979 -0.3633 -0.4741
 1051TIP3    H1 3117   3.352   6.432   2.605  2.9248  1.3813  0.3295
 1051TIP3    H2 3118   3.403   6.348   2.721  0.1049 -0.2245  0.4976
 1052TIP3   OH2 3119   1.058   4.609   2.606  0.1029 -0.0054 -0.6322
 1052TIP3    H1 3120   1.008   4.635   2.684  1.7583 -1.6944  1.0882
 1052TIP3    H2 3121   1.058   4.513   2.608  3.6210 -0.1152 -0.3380
 1053TIP3   OH2 3122   2.241   6.055   5.181 -0.1263  0.0732 -0.0105
 1053TIP3    H1 3123   2.297   6.093   5.114 -0.3109  0.0208 -0.1960
 1053TIP3    H2 3124   2.161   6.108   5.179  0.0257  0.3242  0.4466
 1054TIP3   OH2 3125   4.804   6.329   5.759  0.9696 -0.4190  0.4461
 1054TIP3    H1 3126   4.719   6.310   5.798  0.8291 -0.8585 -0.0672
 1054TIP3    H2 3127   4.866   6.324   5.832  0.7295 -1.3473  0.5944
 1055TIP3   OH2 3128   3.212   4.302   2.436  0.1481  0.2695  0.1565
 1055TIP3    H1 3129   3.147   4.272   2.373  1.1672  0.1842 -0.8929
 1055TIP3    H2 3130   3.296   4.294   2.390  1.1432 -1.3451  2.0621
 1056TIP3   OH2 3131   1.028   6.529   2.239  0.1744 -0.3045 -0.3427
 1056TIP3    H1 3132   0.948   6.487   2.272  0.9468 -1.9476 -0.4719
 1056TIP3    H2 3133   0.996   6.602   2.186 -1.1679  0.4855  1.4491
 1057TIP3   OH2 3134   6.032   5.035   4.663 -0.3144 -0.7007 -0.2899
 1057TIP3    H1 3135   6.038   4.962   4.725 -0.8101  1.2229  2.1829
 1057TIP3    H2 3136   6.097   5.098   4.693 -0.4021  0.2287 -1.9188
 1058TIP3   OH2 3137   2.756   0.457   0.782 -0.1863  0.7343  0.1435
 1058TIP3    H1 3138   2.667   0.488   0.766 -0.4258 -0.2103 -0.4155
 1058TIP3    H2 3139   2.800   0.530   0.825 -0.6872  1.8955 -1.2464
 1059TIP3   OH2 3140   6.759   0.564   2.785  0.4659 -0.2191  0.5756
 1059TIP3    H1 3141   6.789   0.544   2.874  0.4284 -0.8956  0.4438
 1059TIP3    H2 3142   6.664   0.555   2.789 -0.0151  3.5446  1.4055
 1060TIP3   OH2 3143   2.084   1.229   1.370  0.2449 -0.2752  0.0086
 1060TIP3    H1 3144   2.112   1.170   1.440 -0.5445  0.4025  0.9204
 1060TIP3    H2 3145   2.060   1.310   1.414 -0.0961  0.2362 -1.0700
 1061TIP3   OH2 3146   2.532   4.548   3.942 -0.7807  0.3291 -0.4885
 1061TIP3    H1 3147   2.476   4.610   3.895  0.0629  1.6878  0.2504
 1061TIP3    H2 3148   2.621   4.577   3.922 -0.2765 -1.8521 -1.7190
 1062TIP3   OH2 3149   4.594   6.601   3.684  0.2123  0.3827  0.3027
 1062TIP3    H1 3150   4.624   6.542   3.752  0.1438 -0.1273 -0.1017
 1062TIP3    H2 3151   4.611   6.554   3.602  1.1638  1.3701 -0.0869
 1063TIP3   OH2 3152   0.450   3.184   4.822  0.7931  0.0459 -0.1444
 1063TIP3    H1 3153   0.508   3.252   4.789  1.7208 -1.3304 -1.4362
 1063TIP3    H2 3154   0.470   3.107   4.770 -0.8502 -1.0063  0.6851
 1064TIP3   OH2 3155   4.049   5.041   4.649 -0.1780 -0.3061 -0.1776
 1064TIP3    H1 3156   4.000   4.972   4.604  1.4378 -0.9389 -1.0316
 1064TIP3    H2 3157   4.065   5.006   4.736 -0.2912 -0.5766 -0.2634
 1065TIP3   OH2 3158   0.348   0.870   0.924 -0.1982 -0.1051 -0.2148
 1065TIP3    H1 3159   0.309   0.786   0.950  1.1759 -1.3946 -2.0662
 1065TIP3    H2 3160   0.442   0.859   0.943 -0.0957  1.3254  0.2088
 1066TIP3   OH2 3161   4.526   1.923   1.599  0.7963 -0.3198 -0.2157
 1066TIP3    H1 3162   4.477   1.916   1.681 -0.1374  0.3801 -0.6931
 1066TIP3    H2 3163   4.488   1.999   1.555  1.0248 -0.9078 -1.4678
 1067TIP3   OH2 3164   3.089   6.722   1.475  0.1990  0.7027 -0.3060
 1067TIP3    H1 3165   3.182   6.701   1.464 -0.4923 -2.0425 -1.8384
 1067TIP3    H2 3166   3.062   6.671   1.552 -0.5533 -0.7471 -1.4680
 1068TIP3   OH2 3167   5.268   3.290   1.569 -0.1336 -0.2829 -0.0627
 1068TIP3    H1 3168   5.249   3.337   1.488 -0.2694 -2.0515 -1.1159
 1068TIP3    H2 3169   5.298   3.357   1.630  2.1418  0.8339 -2.2567
 1069TIP3   OH2 3170   1.349   0.123   1.589  0.6016  0.2178 -0.4605
 1069TIP3    H1 3171   1.327   0.064   1.517  0.7136  0.3039 -0.5679
 1069TIP3    H2 3172   1.297   0.093   1.662  1.9805 -1.1544  0.0103
 1070TIP3   OH2 3173   2.883   0.805   0.667  0.2880 -0.0896  0.4467
 1070TIP3    H1 3174   2.930   0.736   0.621  0.3080  0.1712  0.0700
 1070TIP3    H2 3175   2.945   0.838   0.731  1.1050  1.1557 -0.9367
 1071TIP3   OH2 3176   3.788   2.305   3.336 -0.0254  0.3181 -0.3649
 1071TIP3    H1 3177   3.788   2.393   3.297 -0.9254  0.5720  0.1867
 1071TIP3    H2 3178   3.810   2.320   3.428  1.2331 -0.1921 -0.5691
 1072TIP3   OH2 3179   4.013   2.193   0.212 -0.2903  0.0342  0.2163
 1072TIP3    H1 3180   4.105   2.214   0.229  0.0012  0.7005 -1.9122
 1072TIP3    H2 3181   4.011   2.097   0.206  0.2963  0.0257  0.0826
 1073TIP3   OH2 3182   3.922   0.290   0.443 -0.3958 -0.3036  0.8514
 1073TIP3    H1 3183   3.869   0.282   0.523 -0.2880 -0.3484  0.9190
 1073TIP3    H2 3184   3.874   0.241   0.377 -0.4470 -0.3310  0.9090
 1074TIP3   OH2 3185   5.216   1.158   1.051 -0.4715 -0.3701 -1.0633
 1074TIP3    H1 3186   5.209   1.243   1.095 -4.5392 -0.4065 -1.3344
 1074TIP3    H2 3187   5.254   1.100   1.118  0.7313  1.2289 -0.2931
 1075TIP3   OH2 3188   1.308   5.480   5.225 -0.0373  0.1452 -0.2646
 1075TIP3    H1 3189   1.315   5.532   5.305 -1.2747 -0.5732  0.3375
 1075TIP3    H2 3190   1.342   5.538   5.156 -2.7091  2.3855  0.1084
 1076TIP3   OH2 3191   0.868   1.540   0.505  0.2864 -0.3248  0.3780
 1076TIP3    H1 3192   0.799   1.587   0.459 -1.0886 -1.6587  0.9953
 1076TIP3    H2 3193   0.921   1.500   0.436  0.2415  0.4003 -0.0887
 1077TIP3   OH2 3194   3.560   3.201   1.761 -0.2463 -0.1992  0.2071
 1077TIP3    H1 3195   3.638   3.250   1.737  0.2822  0.2841  2.6732
 1077TIP3    H2 3196   3.489   3.244   1.713  0.7871  0.3169 -0.8868
 1078TIP3   OH2 3197   4.410   3.173   3.337  0.0432 -0.4924 -0.0619
 1078TIP3    H1 3198   4.432   3.204   3.249  1.6292 -0.9037  0.1506
 1078TIP3    H2 3199   4.335   3.115   3.325 -0.9996  0.9590 -0.8627
 1079TIP3   OH2 3200   4.086   1.135   4.996 -0.0791  0.1183 -0.2057
 1079TIP3    H1 3201   4.018   1.196   5.025  1.6420  1.9429  0.2600
 1079TIP3    H2 3202   4.082   1.063   5.059 -1.4124  0.2782 -0.0745
 1080TIP3   OH2 3203   2.490   5.632   2.200  0.1882  0.3715  0.1241
 1080TIP3    H1 3204   2.546   5.708   2.187 -2.1522  2.1223 -0.4761
 1080TIP3    H2 3205   2.404   5.660   2.169 -0.5884 -2.8791 -1.0945
 1081TIP3   OH2 3206   5.809   5.294   1.553  0.2607  0.2323  0.5505
 1081TIP3    H1 3207   5.753   5.369   1.571  0.6609  0.7564 -0.3108
 1081TIP3    H2 3208   5.892   5.333   1.524  0.4014 -0.5369 -0.1215
 1082TIP3   OH2 3209   2.328   2.959   4.363  0.0378  0.2935 -0.1501
 1082TIP3    H1 3210   2.283   2.949   4.279 -1.2816  0.5116  0.4963
 1082TIP3    H2 3211   2.258   2.953   4.428  0.9440  0.7826  0.9006
 1083TIP3   OH2 3212   1.547   3.177   3.397  0.0606 -0.2449  1.0650
 1083TIP3    H1 3213   1.588   3.131   3.324 -0.9686 -1.4713  1.2105
 1083TIP3    H2 3214   1.478   3.117   3.427 -0.6900  0.9894  1.9094
 1084TIP3   OH2 3215   0.472   0.582   2.568 -0.6411  0.5685  0.2035
 1084TIP3    H1 3216   0.502   0.642   2.636  1.2431  0.8314 -0.7777
 1084TIP3    H2 3217   0.491   0.628   2.486 -0.4118 -0.8000 -0.5403
 1085TIP3   OH2 3218   1.283   3.945   5.228  0.3492 -0.1557  0.3289
 1085TIP3    H1 3219   1.304   3.996   5.307 -0.5319  2.6025 -1.0879
 1085TIP3    H2 3220   1.341   3.981   5.160 -0.6273 -0.7258 -0.8418
 1086TIP3   OH2 3221   5.622   0.474   5.067 -0.4465  0.3821 -0.2073
 1086TIP3    H1 3222   5.545   0.489   5.013 -0.3331 -0.1275 -0.5240
 1086TIP3    H2 3223   5.691   0.449   5.004  0.4063  2.3061 -0.1009
 1087TIP3   OH2 3224   5.156   1.986   2.099 -0.0085 -0.0460 -0.6187
 1087TIP3    H1 3225   5.084   2.038   2.135 -1.2385 -1.7111 -0.6187
 1087TIP3    H2 3226   5.235   2.034   2.127 -1.0614  1.4087  0.0072
 1088TIP3   OH2 3227   3.954   3.634   1.338 -0.4158  0.1200 -0.0735
 1088TIP3    H1 3228   3.924   3.584   1.262  1.0745 -1.2856  0.2068
 1088TIP3    H2 3229   4.049   3.638   1.328 -0.4602  2.9751 -0.0800
 1089TIP3   OH2 3230   0.955   2.030   5.736  0.1840  0.0905  0.1765
 1089TIP3    H1 3231   0.961   2.121   5.704  0.5736  0.1333  0.3672
 1089TIP3    H2 3232   0.895   2.035   5.810  0.3688  0.2286  0.3173
 1090TIP3   OH2 3233   3.805   4.091   5.849  0.4779  0.2681 -0.6701
 1090TIP3    H1 3234   3.900   4.090   5.862  0.5333  2.3738 -0.5208
 1090TIP3    H2 3235   3.769   4.079   5.937  0.6436  0.6313 -0.5484
 1091TIP3   OH2 3236   4.373   6.673   3.825 -0.0967 -0.1383  0.1477
 1091TIP3    H1 3237   4.461   6.660   3.788 -0.6679 -0.4986 -1.1232
 1091TIP3    H2 3238   4.315   6.627   3.765 -1.3485  1.5330  0.0292
 1092TIP3   OH2 3239   2.972   6.565   1.706 -0.1788 -0.0885  0.2582
 1092TIP3    H1 3240   2.890   6.607   1.679 -0.5236 -0.2661  0.9883
 1092TIP3    H2 3241   2.948   6.472   1.716  0.2027 -0.2009  0.1212
 1093TIP3   OH2 3242   6.948   0.938   3.404  0.3209 -0.3028 -0.1990
 1093TIP3    H1 3243   6.890   0.974   3.338  0.1646 -0.8590 -0.3713
 1093TIP3    H2 3244   7.035   0.971   3.381  0.1359  0.1968 -0.1779
 1094TIP3   OH2 3245   2.887   5.710   5.735  0.1491 -0.8292  0.1771
 1094TIP3    H1 3246   2.855   5.620   5.728  1.5994 -1.4959  1.5010
 1094TIP3    H2 3247   2.967   5.703   5.787  0.4886  1.1954  0.0088
 1095TIP3   OH2 3248   1.214   2.121   3.883 -0.2619  0.0093  0.1822
 1095TIP3    H1 3249   1.269   2.044   3.900  0.6484  0.1686 -1.7752
 1095TIP3    H2 3250   1.140   2.087   3.832  1.0815  0.6064 -2.3305
 1096TIP3   OH2 3251   1.000   4.986   2.713  0.0250  0.4764  0.5038
 1096TIP3    H1 3252   0.997   5.067   2.662 -2.5080 -0.1446 -0.5450
 1096TIP3    H2 3253   1.079   4.992   2.765  1.4630  2.2968 -1.7090
 1097TIP3   OH2 3254   2.910   1.102   3.045 -0.3370 -0.6681 -0.2979
 1097TIP3    H1 3255   2.835   1.154   3.075 -0.1473 -0.5562 -0.0150
 1097TIP3    H2 3256   2.933   1.141   2.961 -0.1317 -0.2210 -0.0408
 1098TIP3   OH2 3257   6.906   1.456   0.276  0.0592  0.0271 -0.0838
 1098TIP3    H1 3258   6.976   1.455   0.210 -0.1483  1.8517 -0.3702
 1098TIP3    H2 3259   6.830   1.492   0.230 -0.9014 -1.2604  0.4246
 1099TIP3   OH2 3260   5.530   4.503   1.822  0.2898  0.5175 -0.1916
 1099TIP3    H1 3261   5.581   4.422   1.821 -0.5827 -0.0581 -1.4084
 1099TIP3    H2 3262   5.590   4.569   1.855  1.1919 -0.5201  0.3013
 1100TIP3   OH2 3263   1.168   4.085   3.531  1.0629 -0.3349  0.0519
 1100TIP3    H1 3264   1.192   4.177   3.517  0.7067  0.0270  1.6510
 1100TIP3    H2 3265   1.245   4.036   3.503  1.9420  0.5626  0.8046
 1101TIP3   OH2 3266   6.855   4.656   5.122 -0.0376  0.5449  0.3974
 1101TIP3    H1 3267   6.864   4.745   5.088 -2.1478  0.8252  0.4404
 1101TIP3    H2 3268   6.763   4.635   5.110  0.2366 -1.3126  1.2131
 1102TIP3   OH2 3269   4.874   0.588   5.633  0.3542  0.1662 -0.5295
 1102TIP3    H1 3270   4.930   0.512   5.615 -1.8104 -1.5449 -0.3603
 1102TIP3    H2 3271   4.882   0.642   5.555  2.1099 -0.0705 -0.5635
 1103TIP3   OH2 3272   4.297   2.249   5.070  0.5033  0.2104 -1.2288
 1103TIP3    H1 3273   4.245   2.204   5.136  0.5763  0.8210 -0.7429
 1103TIP3    H2 3274   4.349   2.180   5.029  0.8407 -0.1107 -0.2869
 1104TIP3   OH2 3275   0.711   1.262   0.039 -0.4160 -0.5555  0.8710
 1104TIP3    H1 3276   0.670   1.317   0.106 -0.0148 -1.4611  1.8888
 1104TIP3    H2 3277   0.803   1.286   0.040 -0.5850  0.2250 -0.1782
 1105TIP3   OH2 3278   1.316   4.900   0.456  0.3601  0.2295 -0.0940
 1105TIP3    H1 3279   1.353   4.853   0.530 -3.1890 -3.8400 -0.4986
 1105TIP3    H2 3280   1.245   4.953   0.494  0.6659  0.7818 -0.2755
 1106TIP3   OH2 3281   4.728   4.871   0.418 -0.0886  0.6247 -0.1015
 1106TIP3    H1 3282   4.697   4.902   0.333  0.4762  0.6828 -0.2904
 1106TIP3    H2 3283   4.731   4.776   0.409  2.8736  0.7011 -1.2275
 1107TIP3   OH2 3284   2.946   1.781   4.949 -0.1037  0.3205 -0.2897
 1107TIP3    H1 3285   2.960   1.773   4.854 -1.9806  0.7969 -0.6497
 1107TIP3    H2 3286   2.867   1.835   4.957 -0.1561  0.0362  1.5414
 1108TIP3   OH2 3287   0.266   6.568   2.819 -0.1750  0.6373  0.0433
 1108TIP3    H1 3288   0.242   6.659   2.805  0.5188  0.7923 -0.1513
 1108TIP3    H2 3289   0.249   6.552   2.912  1.5073  1.5069  0.5236
 1109TIP3   OH2 3290   0.063   2.431   5.800  0.1629  0.1037 -0.1671
 1109TIP3    H1 3291   0.054   2.509   5.855  0.5941  0.4479 -0.5774
 1109TIP3    H2 3292   0.140   2.386   5.834 -0.6920 -0.7250  0.7586
 1110TIP3   OH2 3293   3.917   3.762   1.856  0.4071 -0.6854 -0.3859
 1110TIP3    H1 3294   4.006   3.778   1.824 -0.9678  3.0244 -3.1058
 1110TIP3    H2 3295   3.885   3.849   1.880 -2.9123 -1.6905 -0.7436
 1111TIP3   OH2 3296   3.045   4.750   0.693  0.0080 -0.6087  0.2853
 1111TIP3    H1 3297   3.047   4.837   0.655 -3.2735 -0.5387 -0.0017
 1111TIP3    H2 3298   3.013   4.763   0.783 -2.3365 -1.5663 -0.3343
 1112TIP3   OH2 3299   1.625   3.659   2.423 -0.1662 -0.1855 -0.0805
 1112TIP3    H1 3300   1.668   3.662   2.509 -0.8204 -1.5064  0.3044
 1112TIP3    H2 3301   1.535   3.688   2.440 -0.0324  0.5227 -0.5172
 1113TIP3   OH2 3302   1.967   5.240   5.138 -0.1736 -0.3157  0.1353
 1113TIP3    H1 3303   1.941   5.173   5.076 -0.7208 -0.6917  0.7559
 1113TIP3    H2 3304   1.908   5.228   5.213  0.6467 -0.0671  0.8432
 1114TIP3   OH2 3305   4.623   5.754   0.529  0.2870  0.4767 -0.4126
 1114TIP3    H1 3306   4.715   5.730   0.528 -0.2071 -1.8665  1.7496
 1114TIP3    H2 3307   4.577   5.677   0.496 -1.0604  0.4722  1.3543
 1115TIP3   OH2 3308   1.187   2.319   1.644  0.5876  0.2181  0.3450
 1115TIP3    H1 3309   1.157   2.231   1.622  0.1631  0.3102  0.5556
 1115TIP3    H2 3310   1.282   2.311   1.653  0.3761 -0.6004  2.1417
 1116TIP3   OH2 3311   3.970   0.476   3.255 -0.4708  0.1798  0.4954
 1116TIP3    H1 3312   4.057   0.503   3.285  0.6229 -0.8744 -1.5529
 1116TIP3    H2 3313   3.949   0.399   3.308 -0.0210  0.2645  0.7973
 1117TIP3   OH2 3314   2.131   2.856   0.023  0.4265 -0.3748  0.6366
 1117TIP3    H1 3315   2.109   2.863   0.116  2.7608 -0.5823  1.2714
 1117TIP3    H2 3316   2.046   2.856  -0.022 -0.8464 -1.9963  2.8547
 1118TIP3   OH2 3317   3.791   2.727   2.429 -0.1129  0.0570 -0.1619
 1118TIP3    H1 3318   3.758   2.754   2.344 -1.3426 -0.7087  0.0428
 1118TIP3    H2 3319   3.886   2.725   2.419 -0.2516 -0.1229 -1.5405
 1119TIP3   OH2 3320   6.187   0.460   5.285 -0.9338  0.2531  0.0915
 1119TIP3    H1 3321   6.179   0.530   5.350 -2.7202 -0.5760  0.8267
 1119TIP3    H2 3322   6.193   0.506   5.201 -1.7377  1.3188  0.5846
 1120TIP3   OH2 3323   0.175   6.313   2.807 -0.5996  0.0316 -0.5234
 1120TIP3    H1 3324   0.216   6.396   2.784 -1.8342  0.7045 -0.3983
 1120TIP3    H2 3325   0.207   6.251   2.742 -0.4496  0.8452 -1.2454
 1121TIP3   OH2 3326   6.189   5.364   5.086  0.1070  0.1849 -0.2675
 1121TIP3    H1 3327   6.206   5.459   5.081  0.2319  0.1485 -0.6362
 1121TIP3    H2 3328   6.100   5.357   5.119 -0.9185  0.5174 -2.7305
 1122TIP3   OH2 3329   2.814   5.999   4.741 -0.1961  0.3627  0.5192
 1122TIP3    H1 3330   2.828   6.072   4.680 -0.5957  0.9008  1.0545
 1122TIP3    H2 3331   2.782   5.928   4.686 -0.6702  0.8779  0.1098
 1123TIP3   OH2 3332   2.614   4.623   0.165  0.1673  0.0554 -0.6262
 1123TIP3    H1 3333   2.655   4.687   0.106  1.6142 -0.1378  0.1250
 1123TIP3    H2 3334   2.658   4.636   0.249 -0.7819 -0.7274  0.0127
 1124TIP3   OH2 3335   2.129   0.353   1.720  0.0120 -0.4119 -0.2539
 1124TIP3    H1 3336   2.223   0.340   1.707 -0.2481 -2.8853 -0.1343
 1124TIP3    H2 3337   2.120   0.361   1.815  0.3631  2.9801 -0.4091
 1125TIP3   OH2 3338   4.894   5.960   2.065 -0.3917  0.7840  0.0462
 1125TIP3    H1 3339   4.946   5.976   2.144  0.2173  1.8310 -0.5393
 1125TIP3    H2 3340   4.959   5.952   1.995 -0.9061 -0.5030 -0.3105
 1126TIP3   OH2 3341   7.191   4.781   4.127  0.1971  0.7107  0.0093
 1126TIP3    H1 3342   7.243   4.709   4.091  0.7282 -0.1740  2.3369
 1126TIP3    H2 3343   7.155   4.825   4.050  0.3815 -1.6328 -1.5391
 1127TIP3   OH2 3344   1.199   1.043   5.443  0.1554 -0.1573 -0.6253
 1127TIP3    H1 3345   1.218   1.136   5.459  0.3293 -0.1885 -0.6479
 1127TIP3    H2 3346   1.282   0.998   5.462 -0.6327 -0.6359  2.2256
 1128TIP3   OH2 3347   5.051   6.663   4.479  0.1111  0.0408 -0.0830
 1128TIP3    H1 3348   4.986   6.716   4.525 -0.8475 -1.1327 -0.0386
 1128TIP3    H2 3349   5.135   6.692   4.515 -0.5696 -0.5179  2.0953
 1129TIP3   OH2 3350   5.649   2.485   0.017  0.6273  0.2536  0.8463
 1129TIP3    H1 3351   5.683   2.570  -0.012  0.4759  0.3961  1.0807
 1129TIP3    H2 3352   5.554   2.494   0.013  0.5141 -1.0661 -2.5148
 1130TIP3   OH2 3353   6.169   6.212   1.366 -0.2862 -0.0713  0.2325
 1130TIP3    H1 3354   6.103   6.281   1.375 -1.5770 -1.3091  0.6341
 1130TIP3    H2 3355   6.212   6.208   1.451 -0.1592  0.2733  0.1858
 1131TIP3   OH2 3356   4.584   4.415   3.423 -0.3150  0.1738 -0.0357
 1131TIP3    H1 3357   4.515   4.374   3.370 -0.8917  0.1775  0.7060
 1131TIP3    H2 3358   4.558   4.507   3.429  0.1104  0.3151 -0.3097
 1132TIP3   OH2 3359   4.217   1.475   2.096 -0.1498 -0.2194 -0.0012
 1132TIP3    H1 3360   4.125   1.461   2.119  0.1379  0.6378  1.8191
 1132TIP3    H2 3361   4.220   1.563   2.059  0.0779  0.1561  0.8895
 1133TIP3   OH2 3362   3.294   0.080   1.016 -0.5634  0.2783 -0.0046
 1133TIP3    H1 3363   3.307   0.106   1.107  0.4617  0.8903 -0.3178
 1133TIP3    H2 3364   3.231   0.008   1.021  0.8217 -0.9154  1.3608
 1134TIP3   OH2 3365   5.198   5.657   1.367  0.1438  0.1435  0.3917
 1134TIP3    H1 3366   5.194   5.688   1.276 -0.6518  0.5142  0.5483
 1134TIP3    H2 3367   5.160   5.728   1.418 -1.6677 -1.0503  0.7728
 1135TIP3   OH2 3368   0.749   1.790   1.971 -0.0727 -0.0380  0.5364
 1135TIP3    H1 3369   0.829   1.839   1.985  0.7098 -0.2252 -2.5230
 1135TIP3    H2 3370   0.778   1.708   1.930 -1.7582 -0.4842  0.1575
 1136TIP3   OH2 3371   3.136   5.082   2.309  0.3706 -0.2988 -0.6953
 1136TIP3    H1 3372   3.088   5.008   2.347 -0.5248 -0.2775 -1.7516
 1136TIP3    H2 3373   3.132   5.150   2.376 -1.7098 -0.0487 -1.0066
 1137TIP3   OH2 3374   5.653   0.039   4.085 -0.4044  0.1667  0.4003
 1137TIP3    H1 3375   5.723   0.071   4.028 -0.7757 -0.6815 -0.5654
 1137TIP3    H2 3376   5.584   0.105   4.078 -0.2228  0.3462  0.2995
 1138TIP3   OH2 3377   5.040   0.927   2.165 -0.0001 -0.2482  0.3126
 1138TIP3    H1 3378   5.047   0.960   2.075 -0.3923  0.5699  0.5771
 1138TIP3    H2 3379   5.058   1.003   2.220  2.6041 -1.2457  0.9557
 1139TIP3   OH2 3380   1.215   0.416   5.761 -0.1751 -0.3580 -0.7272
 1139TIP3    H1 3381   1.297   0.392   5.804  0.3424  1.5540 -0.5582
 1139TIP3    H2 3382   1.198   0.505   5.790 -2.2831 -0.6647 -0.8583
 1140TIP3   OH2 3383   3.327   0.919   0.168  0.2358 -0.5922  0.5600
 1140TIP3    H1 3384   3.298   0.828   0.165  0.8617 -0.8088  0.8404
 1140TIP3    H2 3385   3.392   0.925   0.098 -0.0891 -0.2551  0.2848
 1141TIP3   OH2 3386   2.937   0.179   1.984 -0.2155 -0.4091 -0.0317
 1141TIP3    H1 3387   2.938   0.145   1.894 -2.8136 -0.7164 -0.0408
 1141TIP3    H2 3388   2.909   0.105   2.037 -2.9391  0.7929  0.3817
 1142TIP3   OH2 3389   7.063   2.449   5.631  0.1399 -0.3528 -0.3402
 1142TIP3    H1 3390   7.133   2.423   5.691  0.7855 -1.3055 -1.4525
 1142TIP3    H2 3391   7.097   2.527   5.587 -0.4447  0.5053  0.6902
 1143TIP3   OH2 3392   6.971   2.203   4.048  0.4451  0.1285  0.6159
 1143TIP3    H1 3393   7.000   2.147   3.976  0.6325  0.0593  0.7452
 1143TIP3    H2 3394   7.009   2.289   4.029 -1.0222  0.5875 -0.3446
 1144TIP3   OH2 3395   5.817   0.806   4.162 -0.2990 -0.0226 -0.1782
 1144TIP3    H1 3396   5.885   0.744   4.139 -0.4451  0.5504 -2.4090
 1144TIP3    H2 3397   5.757   0.757   4.218  0.9955 -1.0503  0.3503
 1145TIP3   OH2 3398   2.747   3.952   1.399  0.2625 -0.1028  0.4051
 1145TIP3    H1 3399   2.739   4.048   1.393  2.3426  0.1014  0.0246
 1145TIP3    H2 3400   2.835   3.934   1.365  0.4721 -2.0152  1.8113
 1146TIP3   OH2 3401   4.084   3.966   3.084 -0.4100 -0.4146 -0.1788
 1146TIP3    H1 3402   3.999   3.957   3.042  0.1908  0.1161 -1.5418
 1146TIP3    H2 3403   4.085   4.055   3.119 -0.8738 -0.8254  0.9545
 1147TIP3   OH2 3404   2.964   2.257   0.177 -0.0874 -0.2992 -0.7004
 1147TIP3    H1 3405   3.042   2.276   0.125  0.8421  0.1620  0.8010
 1147TIP3    H2 3406   2.987   2.178   0.226 -0.3688  0.1316  0.1335
 1148TIP3   OH2 3407   1.139   4.988   3.192  0.2267 -0.3218 -0.1223
 1148TIP3    H1 3408   1.152   5.074   3.150 -0.0999 -0.5022 -0.6043
 1148TIP3    H2 3409   1.112   5.009   3.281 -0.7773  0.1038 -0.5089
 1149TIP3   OH2 3410   0.853   3.712   4.024 -0.0765 -0.6100  0.2363
 1149TIP3    H1 3411   0.757   3.711   4.018 -0.2250  0.6498  1.9675
 1149TIP3    H2 3412   0.877   3.804   4.014  0.9772 -0.9253 -0.2595
 1150TIP3   OH2 3413   4.715   4.136   2.299 -0.2008 -0.4169  0.8167
 1150TIP3    H1 3414   4.673   4.103   2.378 -0.6437  1.8610  1.5777
 1150TIP3    H2 3415   4.676   4.222   2.284  1.8768  0.4078 -0.2921
 1151TIP3   OH2 3416   6.797   6.322   2.074  0.1001 -0.1726 -1.1043
 1151TIP3    H1 3417   6.774   6.279   2.156 -2.6573 -0.0781 -1.7054
 1151TIP3    H2 3418   6.869   6.381   2.097  1.0880 -1.9315  0.6444
 1152TIP3   OH2 3419   1.433   5.120   5.064  0.3783  0.3562  0.5456
 1152TIP3    H1 3420   1.419   5.107   4.970  1.8904 -0.8725  0.4384
 1152TIP3    H2 3421   1.347   5.107   5.103 -0.2063  0.5311 -0.6391
 1153TIP3   OH2 3422   1.179   2.063   1.568  0.1226 -0.4241 -1.2018
 1153TIP3    H1 3423   1.164   2.026   1.655  1.3068  1.0556 -0.3051
 1153TIP3    H2 3424   1.152   1.995   1.507  0.8788 -2.1742  0.3453
 1154TIP3   OH2 3425   6.329   6.543   2.021 -0.1833 -0.0408 -0.5240
 1154TIP3    H1 3426   6.262   6.479   1.998 -0.3019  0.6071 -2.1233
 1154TIP3    H2 3427   6.374   6.560   1.939  0.5076  1.1659  0.0877
 1155TIP3   OH2 3428   1.154   1.138   3.216  0.2871  0.2453 -0.2114
 1155TIP3    H1 3429   1.219   1.086   3.264  0.1307  0.5993  0.4055
 1155TIP3    H2 3430   1.124   1.203   3.280 -1.8780 -0.9197  0.0815
 1156TIP3   OH2 3431   5.968   0.664   5.172  0.7991  0.1089 -0.0658
 1156TIP3    H1 3432   5.926   0.585   5.205  1.6553  0.1080  1.0896
 1156TIP3    H2 3433   5.896   0.719   5.141  0.1016 -0.6151  0.2593
 1157TIP3   OH2 3434   2.313   0.498   2.063 -0.3741 -0.4971  0.0713
 1157TIP3    H1 3435   2.310   0.573   2.004  0.6282 -0.5346 -0.0524
 1157TIP3    H2 3436   2.365   0.432   2.016 -0.0012 -0.7214  0.7739
 1158TIP3   OH2 3437   2.030   5.466   4.999  0.2316 -0.1784  0.4287
 1158TIP3    H1 3438   2.025   5.382   5.043 -0.2978 -0.0325  0.6502
 1158TIP3    H2 3439   2.115   5.502   5.026 -0.0893 -0.0844  1.3473
 1159TIP3   OH2 3440   2.866   4.540   0.726  0.5045 -0.3869  0.5261
 1159TIP3    H1 3441   2.777   4.569   0.747  0.2786 -0.8109  0.1759
 1159TIP3    H2 3442   2.915   4.621   0.710  0.0603 -0.1673  0.2556
 1160TIP3   OH2 3443   0.550   0.903   3.690  0.4099  0.5901  0.4718
 1160TIP3    H1 3444   0.473   0.898   3.634  0.2614  2.0221  0.5082
 1160TIP3    H2 3445   0.519   0.877   3.776  0.5839 -1.3835 -0.0165
 1161TIP3   OH2 3446   1.227   6.420   4.609  0.0402 -0.0174 -0.2188
 1161TIP3    H1 3447   1.320   6.414   4.634  0.4333  0.4017 -1.4885
 1161TIP3    H2 3448   1.225   6.486   4.540 -1.4423  1.0383  0.7776
 1162TIP3   OH2 3449   4.140   4.068   1.605  0.0475 -0.4330  0.0027
 1162TIP3    H1 3450   4.128   3.977   1.629 -0.3947 -0.1663  0.8210
 1162TIP3    H2 3451   4.130   4.117   1.687 -3.2641  0.6717 -0.9181
 1163TIP3   OH2 3452   1.175   3.489   2.753 -0.3068  0.1325 -0.0156
 1163TIP3    H1 3453   1.253   3.462   2.802 -0.2163  1.4116  0.5890
 1163TIP3    H2 3454   1.183   3.444   2.669 -0.8293 -2.6967  1.3365
 1164TIP3   OH2 3455   0.340   0.626   4.151  0.3209 -0.3097  0.1496
 1164TIP3    H1 3456   0.366   0.567   4.079 -0.3824 -2.3604  1.4937
 1164TIP3    H2 3457   0.245   0.622   4.153  0.0723  2.5272 -0.9629
 1165TIP3   OH2 3458   5.408   1.793   0.151  0.3612 -0.1478 -0.2896
 1165TIP3    H1 3459   5.320   1.795   0.115  0.8800 -2.6875 -1.9554
 1165TIP3    H2 3460   5.441   1.882   0.139 -2.2179  1.1275  1.2421
 1166TIP3   OH2 3461   0.494   5.387   0.059 -0.2037 -0.8431  0.2184
 1166TIP3    H1 3462   0.417   5.417   0.011 -0.2740  1.1347  1.4857
 1166TIP3    H2 3463   0.459   5.350   0.140  0.1333 -0.4815  0.5331
 1167TIP3   OH2 3464   1.972   5.315   0.341  0.3212 -0.4499 -0.4913
 1167TIP3    H1 3465   2.013   5.230   0.354  0.3854 -0.6374 -1.8256
 1167TIP3    H2 3466   1.878   5.297   0.342  0.2084 -0.1005  1.9987
 1168TIP3   OH2 3467   1.953   4.616   4.244  0.4551 -0.0244 -0.2272
 1168TIP3    H1 3468   2.029   4.581   4.291  0.7090  0.2482 -0.4340
 1168TIP3    H2 3469   1.885   4.550   4.257  0.4924  0.0845  0.5923
 1169TIP3   OH2 3470   4.655   2.550   1.302 -0.7215 -0.1758  0.8818
 1169TIP3    H1 3471   4.641   2.633   1.257 -2.0014 -1.4260 -1.2061
 1169TIP3    H2 3472   4.749   2.550   1.323 -0.5816  1.5247  0.4327
 1170TIP3   OH2 3473   2.671   4.690   4.941 -0.5247 -0.5614 -0.4381
 1170TIP3    H1 3474   2.638   4.729   5.022 -0.8459 -1.8947  0.0939
 1170TIP3    H2 3475   2.686   4.765   4.883  0.4631  0.4825  1.1078
 1171TIP3   OH2 3476   0.846   5.247   3.010 -0.3637 -0.6294 -0.0747
 1171TIP3    H1 3477   0.849   5.155   3.034  1.2848 -0.3471  0.9784
 1171TIP3    H2 3478   0.884   5.293   3.085 -0.5343  0.8497 -0.8486
 1172TIP3   OH2 3479   0.701   1.897   0.438  0.3327  0.2178  0.0805
 1172TIP3    H1 3480   0.639   1.901   0.510  0.0670  0.1495 -0.1440
 1172TIP3    H2 3481   0.692   1.809   0.402  2.3518 -0.7077  1.6185
 1173TIP3   OH2 3482   6.507   4.549   0.549  0.0904 -0.1499  0.0061
 1173TIP3    H1 3483   6.447   4.551   0.623  1.6669  1.1320  1.3259
 1173TIP3    H2 3484   6.498   4.636   0.510 -1.3993 -1.0915 -1.9708
 1174TIP3   OH2 3485   4.058   1.334   5.574  0.1489  0.0597  0.1191
 1174TIP3    H1 3486   3.998   1.272   5.616 -0.7699  0.8170 -0.0507
 1174TIP3    H2 3487   4.111   1.369   5.646 -1.3203  1.2500  0.6694
 1175TIP3   OH2 3488   0.872   3.577   5.222 -0.1804  0.1798 -0.0979
 1175TIP3    H1 3489   0.809   3.646   5.200  0.2680  0.5053 -0.3804
 1175TIP3    H2 3490   0.831   3.528   5.293 -0.6912  0.4738 -0.1886
 1176TIP3   OH2 3491   1.716   5.201   2.968 -0.2556  0.2699  0.1968
 1176TIP3    H1 3492   1.772   5.277   2.951  1.7348 -0.8319  1.4377
 1176TIP3    H2 3493   1.709   5.197   3.063 -2.4883  0.3257  0.0991
 1177TIP3   OH2 3494   2.696   2.176   0.549 -0.3843  0.0821  0.2368
 1177TIP3    H1 3495   2.726   2.127   0.625 -0.8274 -0.2842  0.1833
 1177TIP3    H2 3496   2.613   2.216   0.577  0.8617  2.3455  0.8927
 1178TIP3   OH2 3497   3.408   5.350   5.666 -0.0313  0.2604 -0.2646
 1178TIP3    H1 3498   3.482   5.410   5.656 -1.2019  1.8863  0.3738
 1178TIP3    H2 3499   3.433   5.273   5.614  0.9191  1.8787 -2.3890
 1179TIP3   OH2 3500   1.955   5.382   3.794 -0.1788 -0.2367 -1.1260
 1179TIP3    H1 3501   2.024   5.318   3.811 -0.4319 -0.3125 -0.3655
 1179TIP3    H2 3502   1.874   5.337   3.816 -0.3048  0.5837  0.1711
 1180TIP3   OH2 3503   3.194   5.583   2.353 -0.4548  0.0268  0.4404
 1180TIP3    H1 3504   3.194   5.599   2.448 -3.1057 -1.3424  0.7638
 1180TIP3    H2 3505   3.161   5.664   2.315 -1.2209 -0.0697  0.8823
 1181TIP3   OH2 3506   7.049   3.559   5.088  0.1361  0.2523  0.6743
 1181TIP3    H1 3507   7.127   3.507   5.104  0.0975 -0.0182  0.0005
 1181TIP3    H2 3508   6.978   3.510   5.128  0.1253 -0.1422  0.1863
 1182TIP3   OH2 3509   6.572   5.334   1.838 -0.4220 -0.7927 -0.5422
 1182TIP3    H1 3510   6.611   5.391   1.772  0.6357 -0.3260  0.4543
 1182TIP3    H2 3511   6.498   5.292   1.793  1.1571 -1.6642 -2.5032
 1183TIP3   OH2 3512   4.882   2.131   0.097 -0.5586  0.1269 -0.2384
 1183TIP3    H1 3513   4.927   2.163   0.175 -2.7440  0.5592  0.9179
 1183TIP3    H2 3514   4.849   2.044   0.122 -0.6651 -0.0405 -0.9354
 1184TIP3   OH2 3515   3.372   1.040   5.783 -0.2756 -0.0584  0.1582
 1184TIP3    H1 3516   3.359   1.101   5.856 -0.9037  1.3065 -1.0344
 1184TIP3    H2 3517   3.292   1.048   5.731  0.0688 -1.1678 -0.5693
 1185TIP3   OH2 3518   3.407   4.842   4.837 -0.1442  0.1816  0.2306
 1185TIP3    H1 3519   3.319   4.812   4.814  0.3720 -0.2228 -1.3049
 1185TIP3    H2 3520   3.393   4.927   4.879 -1.5918 -1.6735  3.9905
 1186TIP3   OH2 3521   1.297   2.902   0.188  0.1015 -0.1329 -0.2871
 1186TIP3    H1 3522   1.229   2.877   0.125  0.7336 -0.1282 -0.9929
 1186TIP3    H2 3523   1.251   2.915   0.270 -0.7342 -0.2376 -0.7319
 1187TIP3   OH2 3524   3.904   0.579   5.352 -0.9261 -0.0550 -0.5368
 1187TIP3    H1 3525   3.821   0.621   5.371 -0.5036 -0.1912  1.9952
 1187TIP3    H2 3526   3.948   0.574   5.437  0.9071 -1.5993 -1.4978
 1188TIP3   OH2 3527   6.105   3.241   5.651 -0.1282 -0.0677 -0.2504
 1188TIP3    H1 3528   6.070   3.308   5.710 -1.5931 -1.4628  0.5327
 1188TIP3    H2 3529   6.051   3.249   5.572  0.9478  0.8937 -0.9259
 1189TIP3   OH2 3530   1.546   1.611   4.235  0.4921 -0.0396 -0.6867
 1189TIP3    H1 3531   1.515   1.572   4.317  3.2745  1.7030  1.3759
 1189TIP3    H2 3532   1.605   1.546   4.198  0.3342 -0.2670 -0.5433
 1190TIP3   OH2 3533   0.202   5.190   0.109  0.3222  0.2669 -0.1378
 1190TIP3    H1 3534   0.152   5.127   0.161  0.4708  0.7431  0.5962
 1190TIP3    H2 3535   0.265   5.227   0.171 -0.0650  1.4753 -0.4511
 1191TIP3   OH2 3536   5.916   6.818   0.808 -0.4054  0.6934  0.2097
 1191TIP3    H1 3537   5.824   6.813   0.832 -0.8247  0.1828 -1.3856
 1191TIP3    H2 3538   5.960   6.758   0.870 -0.8762  2.0293  1.9275
 1192TIP3   OH2 3539   6.477   3.617   4.634  0.0966  0.3141  0.1549
 1192TIP3    H1 3540   6.454   3.542   4.579 -1.3448  0.0898  1.0070
 1192TIP3    H2 3541   6.573   3.612   4.643  0.0522 -1.3134  0.0314
 1193TIP3   OH2 3542   6.721   6.623   1.609 -0.1895  0.7055 -0.2847
 1193TIP3    H1 3543   6.725   6.713   1.575  2.8485  1.8009  2.4253
 1193TIP3    H2 3544   6.776   6.625   1.687 -2.4573 -2.8332  1.6834
 1194TIP3   OH2 3545   5.235   0.397   3.935 -0.2036 -0.4506 -0.0446
 1194TIP3    H1 3546   5.146   0.371   3.913 -0.5241  0.5895 -0.0134
 1194TIP3    H2 3547   5.282   0.397   3.852 -0.4962  0.0035 -0.2079
 1195TIP3   OH2 3548   6.685   2.778   0.745  0.3180 -0.6669 -0.0159
 1195TIP3    H1 3549   6.696   2.863   0.701  1.3203 -1.0095 -0.4690
 1195TIP3    H2 3550   6.725   2.790   0.831  1.2430 -0.9209 -0.4013
 1196TIP3   OH2 3551   2.010   5.199   0.748  0.6642 -0.5199  0.3856
 1196TIP3    H1 3552   1.990   5.244   0.666 -2.0308  2.3887  2.4069
 1196TIP3    H2 3553   1.955   5.120   0.746 -0.5461  0.3074  0.0184
 1197TIP3   OH2 3554   3.211   1.408   5.144  0.2351  0.0756  0.0969
 1197TIP3    H1 3555   3.270   1.382   5.074  0.7179  0.7150  0.2599
 1197TIP3    H2 3556   3.196   1.327   5.194  1.4692  0.0291  0.4131
 1198TIP3   OH2 3557   0.803   4.238   2.770  0.0781 -0.1342  0.0287
 1198TIP3    H1 3558   0.767   4.304   2.828 -3.8277  0.0272 -2.2168
 1198TIP3    H2 3559   0.748   4.242   2.692  2.5280 -2.9860 -2.1074
 1199TIP3   OH2 3560   3.144   1.317   4.685  0.3445  0.0178  0.0995
 1199TIP3    H1 3561   3.068   1.372   4.705  0.4882  0.6958 -1.1113
 1199TIP3    H2 3562   3.219   1.375   4.697  0.8064 -0.9239  2.3163
 1200TIP3   OH2 3563   3.871   1.777   4.640  0.0925  0.1286 -0.2569
 1200TIP3    H1 3564   3.884   1.698   4.588  0.4061  0.1007 -0.1393
 1200TIP3    H2 3565   3.956   1.792   4.682 -0.1440  0.1754  0.2094
 1201TIP3   OH2 3566   3.630   3.025   5.782  0.0855 -0.1583 -0.4347
 1201TIP3    H1 3567   3.619   3.106   5.732  0.8278  0.0279 -0.3106
 1201TIP3    H2 3568   3.570   2.963   5.742 -0.9878  0.6478 -0.1053
 1202TIP3   OH2 3569   5.204   6.031   3.704 -0.1902 -0.2040 -0.7380
 1202TIP3    H1 3570   5.194   6.039   3.799  0.3247  0.9113 -0.7605
 1202TIP3    H2 3571   5.231   6.118   3.675 -0.7729 -0.4105 -1.9763
 1203TIP3   OH2 3572   1.633   1.000   3.418 -0.0036  0.5303  0.1687
 1203TIP3    H1 3573   1.696   0.964   3.355 -2.3933 -1.4028 -1.2789
 1203TIP3    H2 3574   1.592   1.073   3.372 -0.6665  0.1010  0.0757
 1204TIP3   OH2 3575   0.477   6.698   1.713 -0.1370 -0.4916  0.2541
 1204TIP3    H1 3576   0.526   6.641   1.771  1.3397 -0.2629 -0.7089
 1204TIP3    H2 3577   0.542   6.760   1.679 -1.5941  1.5309  0.9518
 1205TIP3   OH2 3578   3.604   1.824   4.547  0.5547 -0.5226 -0.4636
 1205TIP3    H1 3579   3.695   1.851   4.564  0.2500 -0.1846  0.7573
 1205TIP3    H2 3580   3.576   1.881   4.475  0.2373  1.9197  1.4250
 1206TIP3   OH2 3581   3.627   2.596   5.729  0.0219  0.1888 -0.0235
 1206TIP3    H1 3582   3.558   2.658   5.752  0.6374  1.0123 -0.3705
 1206TIP3    H2 3583   3.705   2.650   5.716  0.7573 -0.7414  0.4489
 1207TIP3   OH2 3584   4.120   2.706   3.925 -0.4421 -0.0837  0.0553
 1207TIP3    H1 3585   4.071   2.695   3.843  0.4301 -2.6749 -0.2298
 1207TIP3    H2 3586   4.118   2.800   3.942 -3.0429  0.2355 -1.4319
 1208TIP3   OH2 3587   6.390   0.063   1.149  0.7251  0.4422  0.3463
 1208TIP3    H1 3588   6.445   0.021   1.083 -0.3381 -1.3205  0.5218
 1208TIP3    H2 3589   6.452   0.105   1.209  1.7744  0.3178 -0.6245
 1209TIP3   OH2 3590   1.859   4.012   4.404 -0.3968  0.2373 -0.3442
 1209TIP3    H1 3591   1.773   4.038   4.370 -1.5169 -1.0539  1.3159
 1209TIP3    H2 3592   1.865   4.056   4.489 -0.2769 -1.1837  0.4027
 1210TIP3   OH2 3593   5.490   3.274   5.552 -0.3070 -0.0887 -0.2686
 1210TIP3    H1 3594   5.425   3.270   5.622 -0.7678  1.1769 -0.6085
 1210TIP3    H2 3595   5.573   3.255   5.595 -0.3987  1.9304  0.9074
 1211TIP3   OH2 3596   5.477   1.299   0.617 -1.0059  0.7714  0.1737
 1211TIP3    H1 3597   5.423   1.318   0.693  1.9719  1.9512  2.1954
 1211TIP3    H2 3598   5.554   1.254   0.652 -0.2268 -0.1014 -2.3862
 1212TIP3   OH2 3599   0.604   4.173   0.894  0.2019  0.2297 -0.5146
 1212TIP3    H1 3600   0.641   4.184   0.807 -1.2269 -0.4031 -1.2428
 1212TIP3    H2 3601   0.653   4.101   0.932 -0.8456 -1.2686 -1.8423
 1213TIP3   OH2 3602   5.834   5.097   2.444  0.1540  0.0771  0.3026
 1213TIP3    H1 3603   5.766   5.160   2.418  0.1358  0.3041  0.8917
 1213TIP3    H2 3604   5.913   5.150   2.451  0.4749 -0.2491 -0.7275
 1214TIP3   OH2 3605   6.617   5.436   0.898  0.6741  0.2973 -0.1997
 1214TIP3    H1 3606   6.591   5.378   0.826  0.9371  0.0533 -0.1011
 1214TIP3    H2 3607   6.698   5.397   0.932  0.3303  0.1763  0.4989
 1215TIP3   OH2 3608   6.339   3.515   5.575  0.4392  0.2732 -0.1183
 1215TIP3    H1 3609   6.359   3.424   5.597  0.5948  0.3433  0.0312
 1215TIP3    H2 3610   6.294   3.510   5.490  1.7857  0.1735 -0.8568
 1216TIP3   OH2 3611   6.248   0.199   2.918 -0.5941  0.1117  0.2095
 1216TIP3    H1 3612   6.253   0.104   2.904  0.1247  0.4158 -1.9264
 1216TIP3    H2 3613   6.271   0.210   3.010  0.8276 -1.6914  0.1290
 1217TIP3   OH2 3614   1.995   0.846   2.988 -0.3835 -0.8213 -0.0955
 1217TIP3    H1 3615   2.007   0.773   2.927  0.9171  0.4271 -1.4139
 1217TIP3    H2 3616   2.016   0.924   2.936 -0.6561  0.4070  1.5705
 1218TIP3   OH2 3617   5.099   4.667   5.044 -0.3432 -0.2464  0.3102
 1218TIP3    H1 3618   5.137   4.605   5.107 -0.9957  0.7723  1.7400
 1218TIP3    H2 3619   5.030   4.712   5.092  0.6478  2.2008 -0.4246
 1219TIP3   OH2 3620   6.036   4.222   3.376 -0.3307 -0.5029  0.1207
 1219TIP3    H1 3621   5.972   4.238   3.306 -1.7121 -2.0647  0.9345
 1219TIP3    H2 3622   6.102   4.165   3.335 -1.1641 -1.4641  0.0626
 1220TIP3   OH2 3623   5.673   1.089   3.310  0.4576 -0.3304 -0.6381
 1220TIP3    H1 3624   5.650   1.179   3.332  0.2245 -0.5464  0.0200
 1220TIP3    H2 3625   5.634   1.074   3.224  0.0292  0.0214 -0.5051
 1221TIP3   OH2 3626   5.426   0.973   5.439  0.4050  0.1960 -0.3624
 1221TIP3    H1 3627   5.340   0.932   5.432  0.0726  0.1856  2.5863
 1221TIP3    H2 3628   5.479   0.928   5.373 -0.8658 -2.4870  0.2907
 1222TIP3   OH2 3629   1.684   0.106   3.864 -0.2412  0.7196  0.3745
 1222TIP3    H1 3630   1.661   0.167   3.794  1.5067 -0.0257 -0.8991
 1222TIP3    H2 3631   1.739   0.157   3.923  2.7123  0.0316 -1.6106
 1223TIP3   OH2 3632   6.015   3.255   1.148  0.5973 -0.1198  0.1661
 1223TIP3    H1 3633   6.049   3.226   1.232 -0.9093 -1.0810  0.4831
 1223TIP3    H2 3634   5.952   3.324   1.170  2.9992  2.4695 -0.4809
 1224TIP3   OH2 3635   1.384   5.564   4.613 -0.4584 -0.4039  0.1402
 1224TIP3    H1 3636   1.367   5.588   4.704 -0.9614 -1.2277  0.2828
 1224TIP3    H2 3637   1.321   5.615   4.562 -1.5845 -1.4333  0.4432
 1225TIP3   OH2 3638   3.368   0.860   3.976 -0.5521  0.2833  0.1903
 1225TIP3    H1 3639   3.424   0.782   3.974  0.5789  0.9833  2.0318
 1225TIP3    H2 3640   3.280   0.826   3.990 -0.2217 -0.7215 -0.0909
 1226TIP3   OH2 3641   1.475   6.544   1.565 -0.0920  0.0342 -0.0704
 1226TIP3    H1 3642   1.536   6.589   1.625  1.6703  1.6830 -2.8862
 1226TIP3    H2 3643   1.402   6.606   1.555 -0.6475 -0.4743  0.7189
 1227TIP3   OH2 3644   3.447   2.754   5.832  0.4343 -0.0038  0.9631
 1227TIP3    H1 3645   3.483   2.743   5.920  0.4353 -0.4618  0.9108
 1227TIP3    H2 3646   3.396   2.835   5.836 -0.1832 -0.4114  1.5988
 1228TIP3   OH2 3647   1.095   5.082   1.846  0.0352 -0.4186 -0.6789
 1228TIP3    H1 3648   1.093   5.008   1.907  1.7625  0.0073 -0.0425
 1228TIP3    H2 3649   1.083   5.159   1.901 -2.4207 -0.1779 -1.4131
 1229TIP3   OH2 3650   2.459   5.368   0.297 -0.1030  0.5550 -0.3681
 1229TIP3    H1 3651   2.443   5.330   0.383 -0.1864 -1.8641 -1.3779
 1229TIP3    H2 3652   2.510   5.447   0.314 -0.5983  0.4355  1.9079
 1230TIP3   OH2 3653   5.882   6.151   2.721  0.2055 -0.9455  0.0408
 1230TIP3    H1 3654   5.797   6.109   2.733  1.1583 -3.6661 -1.6586
 1230TIP3    H2 3655   5.945   6.079   2.730  2.3883  0.9634  1.2591
 1231TIP3   OH2 3656   3.006   1.763   1.373  0.7874  0.2949  0.1050
 1231TIP3    H1 3657   2.959   1.846   1.361 -1.5042 -1.1262 -1.8930
 1231TIP3    H2 3658   3.076   1.766   1.307  0.6907  0.6372  0.0144
 1232TIP3   OH2 3659   4.626   0.086   5.125 -0.1703 -0.1336  0.1465
 1232TIP3    H1 3660   4.721   0.101   5.121 -0.0432 -0.8478  0.2639
 1232TIP3    H2 3661   4.598   0.088   5.033 -0.1582  0.7373  0.1559
 1233TIP3   OH2 3662   2.392   2.433   4.736 -1.0493  0.7695 -0.3099
 1233TIP3    H1 3663   2.479   2.471   4.745 -0.8898  0.5167 -0.7197
 1233TIP3    H2 3664   2.408   2.340   4.717 -1.4397 -0.3982  4.0160
 1234TIP3   OH2 3665   1.838   3.829   3.859 -0.0734 -0.1625  0.8854
 1234TIP3    H1 3666   1.780   3.874   3.798  0.8199  0.8041  0.7130
 1234TIP3    H2 3667   1.903   3.787   3.802  0.8521  0.8687  1.1598
 1235TIP3   OH2 3668   1.673   2.805   2.764 -0.2157  0.4738 -0.5895
 1235TIP3    H1 3669   1.752   2.835   2.720  0.0995  1.8791  0.8378
 1235TIP3    H2 3670   1.695   2.717   2.795  1.2452  1.2425  0.7413
 1236TIP3   OH2 3671   1.483   0.670   2.474  0.4452  0.3544  0.0100
 1236TIP3    H1 3672   1.544   0.596   2.476  0.1939  0.1161 -0.8551
 1236TIP3    H2 3673   1.521   0.730   2.410  0.5738  0.9168  0.6052
 1237TIP3   OH2 3674   1.486   4.083   3.726 -0.4400  0.3414 -0.6008
 1237TIP3    H1 3675   1.531   4.043   3.651  1.3263 -2.2565  1.6055
 1237TIP3    H2 3676   1.550   4.143   3.763 -1.5832  2.1988 -1.5239
 1238TIP3   OH2 3677   1.548   0.758   1.123  0.0424  0.1646  0.1125
 1238TIP3    H1 3678   1.454   0.766   1.104  0.4412  1.7485 -1.5158
 1238TIP3    H2 3679   1.562   0.664   1.134 -1.4366 -0.3002 -1.4546
 1239TIP3   OH2 3680   1.454   5.176   2.864  0.0474  0.2820 -0.0319
 1239TIP3    H1 3681   1.535   5.184   2.914  0.1344 -0.8857  0.0413
 1239TIP3    H2 3682   1.416   5.264   2.866  0.0909  0.3096  1.9957
 1240TIP3   OH2 3683   4.764   0.511   2.799 -0.2433  0.2355  0.0418
 1240TIP3    H1 3684   4.752   0.475   2.711 -0.8311 -1.1104  0.6504
 1240TIP3    H2 3685   4.682   0.558   2.816  0.6185  2.2226 -0.8519
 1241TIP3   OH2 3686   3.505   1.289   4.494  0.1122 -0.1347  0.0740
 1241TIP3    H1 3687   3.543   1.225   4.554  0.4032 -0.5834 -0.5781
 1241TIP3    H2 3688   3.579   1.344   4.467  0.2576 -0.8048 -0.9429
 1242TIP3   OH2 3689   6.819   5.257   5.872 -0.0041  0.0762 -0.2914
 1242TIP3    H1 3690   6.784   5.174   5.841  1.7694 -0.3283 -1.3301
 1242TIP3    H2 3691   6.842   5.304   5.792 -1.5628  1.8793  0.2445
 1243TIP3   OH2 3692   1.778   6.696   5.449  0.3371 -0.1276 -0.5645
 1243TIP3    H1 3693   1.725   6.775   5.448  0.8094  0.1836 -1.2053
 1243TIP3    H2 3694   1.812   6.688   5.360  0.7142 -0.7602 -0.3693
 1244TIP3   OH2 3695   0.421   6.581   4.421  0.7912  0.4137  0.2904
 1244TIP3    H1 3696   0.400   6.499   4.465  1.0658  0.7823  1.1242
 1244TIP3    H2 3697   0.470   6.631   4.486  1.0024  1.0630 -0.3597
 1245TIP3   OH2 3698   3.047   3.295   0.783 -0.3131 -0.7963 -0.3034
 1245TIP3    H1 3699   3.043   3.351   0.706  2.7761 -0.8718 -0.6557
 1245TIP3    H2 3700   3.084   3.351   0.852 -0.1143 -1.5439  0.2149
 1246TIP3   OH2 3701   5.978   0.544   3.089 -0.7122 -0.2872 -0.3121
 1246TIP3    H1 3702   5.924   0.614   3.125 -0.3762 -0.2650  0.1605
 1246TIP3    H2 3703   6.068   0.571   3.108 -0.5638 -0.6571 -0.4776
 1247TIP3   OH2 3704   5.823   5.476   1.301 -0.1274  0.1408 -0.4902
 1247TIP3    H1 3705   5.762   5.402   1.308 -0.4776  0.5327  1.0792
 1247TIP3    H2 3706   5.773   5.552   1.330  1.4352  0.2460  2.3298
 1248TIP3   OH2 3707   4.240   6.066   3.244  0.6000 -0.1463 -0.2220
 1248TIP3    H1 3708   4.239   6.106   3.157  0.2740  0.0144 -0.1478
 1248TIP3    H2 3709   4.321   6.097   3.284  0.1555  0.8005 -0.0098
 1249TIP3   OH2 3710   2.294   1.600   3.646 -0.1074  0.0793 -0.0476
 1249TIP3    H1 3711   2.338   1.526   3.688 -0.6470 -0.0998  0.2048
 1249TIP3    H2 3712   2.324   1.597   3.555 -0.1257 -0.4497 -0.0386
 1250TIP3   OH2 3713   5.180   2.774   4.481 -0.0176  0.2051  0.0633
 1250TIP3    H1 3714   5.092   2.809   4.496  0.3561  0.1855  2.5842
 1250TIP3    H2 3715   5.235   2.852   4.470 -0.0674  0.2698  0.2636
 1251TIP3   OH2 3716   2.328   5.721   4.469 -0.1770  0.1316 -0.4072
 1251TIP3    H1 3717   2.398   5.781   4.497 -2.9160  2.8856  1.1062
 1251TIP3    H2 3718   2.374   5.652   4.423  3.7424  0.7599  2.0556
 1252TIP3   OH2 3719   5.314   2.972   0.718  0.0266  0.0598  0.4316
 1252TIP3    H1 3720   5.294   2.901   0.657 -2.3852  0.0941  1.1090
 1252TIP3    H2 3721   5.409   2.968   0.728  0.1315 -2.0132 -0.7952
 1253TIP3   OH2 3722   2.553   5.337   2.515 -0.6200 -0.0875  0.2583
 1253TIP3    H1 3723   2.573   5.296   2.598  0.5627 -0.9955 -0.4430
 1253TIP3    H2 3724   2.612   5.412   2.510  0.0947 -0.6677 -0.2227
 1254TIP3   OH2 3725   4.620   5.298   0.177 -0.4231 -0.5570  0.0972
 1254TIP3    H1 3726   4.703   5.345   0.169 -1.3258  0.9916 -0.7438
 1254TIP3    H2 3727   4.602   5.296   0.271  0.8332 -1.4555  0.3409
 1255TIP3   OH2 3728   2.537   3.434   2.243 -0.4911  1.0440  0.3074
 1255TIP3    H1 3729   2.617   3.395   2.209  0.4383  0.7401  2.6187
 1255TIP3    H2 3730   2.558   3.527   2.251 -0.3705  0.9756  0.8415
 1256TIP3   OH2 3731   5.989   2.522   3.425  0.3254 -0.0059 -0.2128
 1256TIP3    H1 3732   6.060   2.538   3.363  0.9173  0.5692  0.5978
 1256TIP3    H2 3733   5.928   2.594   3.411  0.9118  0.6439  0.4940
 1257TIP3   OH2 3734   3.514   1.561   1.150  0.1088  0.3065  0.2626
 1257TIP3    H1 3735   3.603   1.559   1.185  1.6736 -2.0073 -3.3435
 1257TIP3    H2 3736   3.490   1.654   1.153  2.0100  0.8331  2.5531
 1258TIP3   OH2 3737   6.919   4.516   1.815  0.4481  0.1247 -0.0669
 1258TIP3    H1 3738   6.894   4.425   1.804  1.3811 -0.3297  1.3404
 1258TIP3    H2 3739   7.006   4.522   1.774 -0.6325  1.0387 -2.4461
 1259TIP3   OH2 3740   1.608   3.160   1.283 -0.0035  0.2810 -0.0988
 1259TIP3    H1 3741   1.608   3.197   1.371 -1.8064 -0.8214  0.4139
 1259TIP3    H2 3742   1.529   3.107   1.279  0.9297 -1.0935 -1.8097
 1260TIP3   OH2 3743   5.766   4.746   1.741 -0.1919 -0.1453 -0.1466
 1260TIP3    H1 3744   5.769   4.716   1.831  2.3595 -0.5430 -0.2885
 1260TIP3    H2 3745   5.709   4.823   1.743  2.4103  1.9102  2.5127
 1261TIP3   OH2 3746   7.011   6.643   2.979 -0.3013 -0.1153 -0.1728
 1261TIP3    H1 3747   6.917   6.647   2.961 -0.3333 -2.1870 -0.7145
 1261TIP3    H2 3748   7.051   6.649   2.892 -0.1201 -2.4960 -0.3101
 1262TIP3   OH2 3749   2.931   6.179   2.565 -0.4729  0.5321  0.3947
 1262TIP3    H1 3750   2.938   6.220   2.479 -0.5832 -0.0874  0.0875
 1262TIP3    H2 3751   2.844   6.205   2.597 -1.3083 -0.9385 -0.5844
 1263TIP3   OH2 3752   4.655   2.745   2.958  0.1149  0.0867  0.0864
 1263TIP3    H1 3753   4.703   2.747   3.041  1.8147 -0.0266 -0.8500
 1263TIP3    H2 3754   4.630   2.654   2.946  0.4889 -0.0305  0.1626
 1264TIP3   OH2 3755   4.530   0.472   5.416  0.0097 -0.1031 -0.0572
 1264TIP3    H1 3756   4.529   0.507   5.506 -0.6821  0.1355 -0.1564
 1264TIP3    H2 3757   4.622   0.453   5.400  0.4867  1.9256 -0.0853
 1265TIP3   OH2 3758   1.447   2.909   2.690  0.3655  0.0301 -0.8037
 1265TIP3    H1 3759   1.404   2.834   2.731 -1.0055 -1.0967 -4.0402
 1265TIP3    H2 3760   1.535   2.910   2.729 -1.1860  0.0842  3.2061
 1266TIP3   OH2 3761   5.926   0.960   3.337 -0.1863 -0.5527  0.4874
 1266TIP3    H1 3762   5.847   1.014   3.348  0.3806  0.5101 -0.3902
 1266TIP3    H2 3763   5.997   1.016   3.367  0.2785 -1.3786  0.9436
 1267TIP3   OH2 3764   2.007   0.643   2.811 -0.2285  0.5545  0.7289
 1267TIP3    H1 3765   2.080   0.592   2.776  0.2052  2.3691 -1.2346
 1267TIP3    H2 3766   1.937   0.632   2.746 -1.9956 -1.5280  2.7970
 1268TIP3   OH2 3767   7.174   3.566   3.386 -0.0731 -0.4761 -0.2706
 1268TIP3    H1 3768   7.263   3.542   3.410 -0.0638 -0.3540 -0.1787
 1268TIP3    H2 3769   7.180   3.659   3.364 -0.2927 -0.3124  0.3369
 1269TIP3   OH2 3770   4.350   4.546   3.101  0.3333 -0.2452  0.4658
 1269TIP3    H1 3771   4.300   4.577   3.025  1.6406  0.7203 -0.0347
 1269TIP3    H2 3772   4.303   4.582   3.177 -0.7397 -0.8685  0.1259
 1270TIP3   OH2 3773   2.880   3.352   1.861  0.0712  0.3457  0.0421
 1270TIP3    H1 3774   2.885   3.434   1.812 -0.4018  1.1428  1.2994
 1270TIP3    H2 3775   2.963   3.307   1.841  0.8485  1.6422  0.2501
 1271TIP3   OH2 3776   5.732   6.328   0.642  0.1050 -0.1840 -0.1974
 1271TIP3    H1 3777   5.693   6.398   0.694 -2.2267 -1.5176 -0.0151
 1271TIP3    H2 3778   5.786   6.279   0.703 -0.0374  0.1479  0.1952
 1272TIP3   OH2 3779   3.857   0.530   1.115  0.2426 -0.6103 -0.4473
 1272TIP3    H1 3780   3.804   0.603   1.086  0.1889  0.3305  1.8605
 1272TIP3    H2 3781   3.833   0.458   1.056 -1.5379  0.5214 -1.1699
 1273TIP3   OH2 3782   3.121   0.347   1.278 -0.7283 -0.2103  0.2767
 1273TIP3    H1 3783   3.188   0.286   1.308  0.1863  0.4446 -0.3786
 1273TIP3    H2 3784   3.105   0.322   1.187  0.8172  1.4659 -0.5145
 1274TIP3   OH2 3785   2.821   6.044   3.120 -0.3767 -0.6615 -0.4430
 1274TIP3    H1 3786   2.807   6.021   3.028 -0.3494  0.2996 -0.6997
 1274TIP3    H2 3787   2.757   6.113   3.138  0.1112 -0.3181  0.0338
 1275TIP3   OH2 3788   4.804   0.788   0.609 -0.1071  0.1564 -0.1206
 1275TIP3    H1 3789   4.715   0.753   0.611  0.8713 -2.5880 -0.5376
 1275TIP3    H2 3790   4.821   0.812   0.700 -0.1280 -2.7003  0.7519
 1276TIP3   OH2 3791   5.381   1.617   4.963  0.2258 -0.4193 -0.1320
 1276TIP3    H1 3792   5.415   1.538   4.920  1.2070  0.1439 -0.4318
 1276TIP3    H2 3793   5.437   1.628   5.040 -0.3390 -0.3800  0.2812
 1277TIP3   OH2 3794   0.764   5.014   3.404 -0.2159 -0.2679  0.0776
 1277TIP3    H1 3795   0.795   5.096   3.443  0.2905 -1.1012  1.5151
 1277TIP3    H2 3796   0.802   4.946   3.460 -1.1949 -1.4552 -0.6728
 1278TIP3   OH2 3797   1.399   5.502   1.386 -0.0307 -0.1298 -0.0459
 1278TIP3    H1 3798   1.411   5.430   1.447  3.4546 -0.6126 -1.0987
 1278TIP3    H2 3799   1.453   5.479   1.311  0.2178  3.0038 -0.9618
 1279TIP3   OH2 3800   3.180   3.098   4.273  0.0484 -0.4917 -0.6908
 1279TIP3    H1 3801   3.114   3.149   4.226 -0.0675 -1.1299 -1.2375
 1279TIP3    H2 3802   3.133   3.024   4.309  0.6026 -1.4821 -1.9062
 1280TIP3   OH2 3803   2.674   2.424   1.798 -0.2894 -0.2120 -0.0040
 1280TIP3    H1 3804   2.580   2.411   1.811 -0.0772 -2.6899 -0.4875
 1280TIP3    H2 3805   2.715   2.371   1.867  0.7594  0.3484 -0.1784
 1281TIP3   OH2 3806   4.674   2.483   3.363  0.6071 -0.4405  0.2087
 1281TIP3    H1 3807   4.652   2.537   3.439  2.0367 -0.3156  0.5777
 1281TIP3    H2 3808   4.744   2.426   3.395  0.7919 -0.8212 -0.8442
 1282TIP3   OH2 3809   5.613   5.398   5.837 -0.9326 -0.3595  0.4334
 1282TIP3    H1 3810   5.539   5.413   5.778 -0.2713 -0.9086 -0.5569
 1282TIP3    H2 3811   5.576   5.407   5.925 -2.0718 -0.1772 -0.0546
 1283TIP3   OH2 3812   2.833   0.997   2.177  0.2660  0.1999  0.7246
 1283TIP3    H1 3813   2.788   1.009   2.260 -0.2722  0.4546  0.4015
 1283TIP3    H2 3814   2.878   1.080   2.161  0.3337  0.1662  0.7400
 1284TIP3   OH2 3815   5.779   6.417   3.628  0.0144 -0.1114 -0.2523
 1284TIP3    H1 3816   5.794   6.333   3.584  0.2777  0.1342 -0.6387
 1284TIP3    H2 3817   5.858   6.431   3.679 -0.9814 -1.2400  1.7276
 1285TIP3   OH2 3818   6.295   1.690   5.625  0.5147  0.2322 -0.4307
 1285TIP3    H1 3819   6.234   1.687   5.552  0.4163 -0.0684 -0.3387
 1285TIP3    H2 3820   6.257   1.754   5.686  0.3796  0.1684 -0.4487
 1286TIP3   OH2 3821   2.483   1.128   3.534 -0.0991 -0.0448 -0.2532
 1286TIP3    H1 3822   2.566   1.167   3.507 -0.0047 -1.3154 -2.0116
 1286TIP3    H2 3823   2.427   1.136   3.457 -0.2611 -2.7050 -0.5263
 1287TIP3   OH2 3824   2.126   6.733   5.327  0.3393  0.5189 -0.0365
 1287TIP3    H1 3825   2.157   6.801   5.387 -1.3990  0.3206  1.1440
 1287TIP3    H2 3826   2.175   6.749   5.246  1.2543  2.0610  0.7674
 1288TIP3   OH2 3827   3.017   5.591   2.084 -0.0266 -0.0582  0.2872
 1288TIP3    H1 3828   2.982   5.650   2.151 -0.9218 -0.2705  0.0237
 1288TIP3    H2 3829   3.106   5.572   2.113 -0.0886  0.5824  0.9279
 1289TIP3   OH2 3830   1.966   5.479   2.504 -0.4875  0.1262 -0.0046
 1289TIP3    H1 3831   2.043   5.485   2.448 -1.5166 -0.4101 -1.5504
 1289TIP3    H2 3832   1.892   5.483   2.443 -1.6736  0.0093  1.3709
 1290TIP3   OH2 3833   1.564   5.489   1.770  0.1979  0.0957  0.0630
 1290TIP3    H1 3834   1.628   5.447   1.826 -0.9119 -1.3028  0.3606
 1290TIP3    H2 3835   1.564   5.580   1.797  0.2506 -0.3819  1.8275
 1291TIP3   OH2 3836   0.081   2.535   0.577 -0.2913  0.5779  0.4576
 1291TIP3    H1 3837   0.157   2.489   0.543 -1.1566 -0.3670 -0.2652
 1291TIP3    H2 3838   0.059   2.598   0.508 -1.2748 -0.4567 -0.2120
 1292TIP3   OH2 3839   6.977   3.389   2.364 -0.5524  0.6172 -0.1238
 1292TIP3    H1 3840   6.980   3.446   2.287  0.0477  0.7733  0.0067
 1292TIP3    H2 3841   6.990   3.301   2.329 -1.5002  0.5459 -0.3286
 1293TIP3   OH2 3842   6.962   2.029   3.825 -0.6405  0.1951  0.0901
 1293TIP3    H1 3843   6.903   2.085   3.773 -0.6968 -0.2893 -0.3862
 1293TIP3    H2 3844   7.049   2.064   3.808 -0.6463 -0.0277 -0.4345
 1294TIP3   OH2 3845   4.671   4.614   2.310 -0.2201  0.1857 -0.3892
 1294TIP3    H1 3846   4.585   4.643   2.283  0.2526  0.1593 -1.9957
 1294TIP3    H2 3847   4.732   4.671   2.263  0.6490 -0.1194  0.3343
 1295TIP3   OH2 3848   0.831   3.678   0.733  0.1268 -0.3470  0.0377
 1295TIP3    H1 3849   0.916   3.638   0.752  1.4517  1.3271 -1.9742
 1295TIP3    H2 3850   0.842   3.771   0.753 -1.2301 -0.0763 -0.3358
 1296TIP3   OH2 3851   4.646   6.472   2.093  0.0122 -0.0065 -0.0085
 1296TIP3    H1 3852   4.627   6.387   2.053  2.7629 -0.0075 -1.5064
 1296TIP3    H2 3853   4.575   6.529   2.062  0.6198 -0.6595 -2.8522
 1297TIP3   OH2 3854   2.464   0.075   1.324  0.1935 -0.1047  0.8846
 1297TIP3    H1 3855   2.451   0.170   1.316  2.1372  0.1002 -1.0302
 1297TIP3    H2 3856   2.465   0.059   1.418 -1.7701  1.4832  1.2569
 1298TIP3   OH2 3857   6.844   4.752   4.787 -0.0148  0.3021  0.3265
 1298TIP3    H1 3858   6.835   4.780   4.878  1.5163 -0.8381  0.8582
 1298TIP3    H2 3859   6.867   4.832   4.739  1.4201  0.5289  1.3302
 1299TIP3   OH2 3860   1.343   4.120   2.768  0.0769  0.0082  0.1005
 1299TIP3    H1 3861   1.387   4.041   2.736 -1.6401 -0.4936 -1.1539
 1299TIP3    H2 3862   1.308   4.162   2.689 -1.9627  0.1922  1.0375
 1300TIP3   OH2 3863   0.078   5.012   0.790  0.3193  0.0158  0.2538
 1300TIP3    H1 3864  -0.004   5.060   0.778 -0.6697 -1.8046 -0.6688
 1300TIP3    H2 3865   0.094   5.015   0.884  0.4619  2.3363  0.2241
 1301TIP3   OH2 3866   2.479   4.325   1.103 -0.3963  0.0595  0.2552
 1301TIP3    H1 3867   2.486   4.261   1.032 -1.1227  0.8326 -0.5378
 1301TIP3    H2 3868   2.551   4.386   1.088  0.3556 -0.6058  1.0677
 1302TIP3   OH2 3869   0.194   5.076   3.735 -0.0205 -0.2877  0.1579
 1302TIP3    H1 3870   0.222   5.166   3.748 -1.2837 -0.0181  1.1504
 1302TIP3    H2 3871   0.251   5.024   3.792  0.1549 -0.0372  0.2105
 1303TIP3   OH2 3872   6.074   1.843   5.820  0.4219  0.3188 -0.2795
 1303TIP3    H1 3873   6.012   1.890   5.764 -0.8732  0.6277  1.3674
 1303TIP3    H2 3874   6.151   1.900   5.823 -0.8807  2.1162  1.1770
 1304TIP3   OH2 3875   4.633   6.212   2.547 -0.1162 -0.2315  0.4489
 1304TIP3    H1 3876   4.608   6.297   2.584 -0.6631 -1.0761  2.0965
 1304TIP3    H2 3877   4.549   6.169   2.527  0.1558 -0.3725 -0.4533
 1305TIP3   OH2 3878   2.051   0.315   1.983  0.3888 -0.5778  0.0478
 1305TIP3    H1 3879   1.959   0.291   1.980 -0.1705  1.3666  0.1935
 1305TIP3    H2 3880   2.054   0.390   2.044  1.6508  0.9711 -1.8058
 1306TIP3   OH2 3881   3.292   3.058   3.991 -0.2911  0.3502  0.0027
 1306TIP3    H1 3882   3.299   2.963   3.990  1.0212  0.4289  0.1328
 1306TIP3    H2 3883   3.263   3.079   4.080  2.8722  0.2201  1.1935
 1307TIP3   OH2 3884   0.455   3.088   2.119  0.2819 -0.4858  0.0984
 1307TIP3    H1 3885   0.452   3.111   2.212  1.2891  1.3300 -0.2734
 1307TIP3    H2 3886   0.545   3.059   2.105 -0.3636 -2.5840  0.0538
 1308TIP3   OH2 3887   5.213   3.440   3.159  0.9534 -0.2305 -0.1651
 1308TIP3    H1 3888   5.267   3.453   3.080  0.5146 -0.3160 -0.4846
 1308TIP3    H2 3889   5.180   3.351   3.151 -0.6103  0.3654 -0.8575
 1309TIP3   OH2 3890   4.793   4.026   4.730 -0.1059 -0.0014  0.1418
 1309TIP3    H1 3891   4.748   4.109   4.713 -0.1794 -0.1394 -0.3784
 1309TIP3    H2 3892   4.723   3.960   4.722  0.5034 -0.4385 -2.8023
 1310TIP3   OH2 3893   0.775   0.747   1.447  0.4402 -0.6600  0.8405
 1310TIP3    H1 3894   0.702   0.709   1.495 -0.1189 -0.5544  0.0894
 1310TIP3    H2 3895   0.753   0.840   1.439  0.2841 -0.7625 -0.0293
 1311TIP3   OH2 3896   3.014   5.076   1.312 -0.0626 -0.1214  0.1489
 1311TIP3    H1 3897   2.997   5.033   1.395  0.3610 -1.0211 -0.2104
 1311TIP3    H2 3898   3.087   5.027   1.274  0.6541  1.1255 -0.1430
 1312TIP3   OH2 3899   0.742   3.804   3.721  0.0231 -0.5700 -0.1273
 1312TIP3    H1 3900   0.813   3.739   3.717 -0.8544 -1.5591 -0.1126
 1312TIP3    H2 3901   0.725   3.816   3.814  0.2977 -0.1852 -0.1255
 1313TIP3   OH2 3902   1.233   6.140   2.470 -0.8267  0.4038  0.6771
 1313TIP3    H1 3903   1.207   6.220   2.423  1.1906  1.0663  0.6036
 1313TIP3    H2 3904   1.251   6.077   2.400  2.1105  1.3696  0.4469
 1314TIP3   OH2 3905   2.122   5.716   4.195 -0.2871  0.1056  0.2695
 1314TIP3    H1 3906   2.123   5.629   4.153  3.3219 -0.3510  0.9769
 1314TIP3    H2 3907   2.091   5.699   4.284 -4.3684  0.4924 -0.8724
 1315TIP3   OH2 3908   1.193   6.647   2.466 -0.2914  0.3380  0.3186
 1315TIP3    H1 3909   1.285   6.625   2.479 -0.1896  0.6538  0.1287
 1315TIP3    H2 3910   1.176   6.629   2.374 -0.3516  0.5314  0.2917
 1316TIP3   OH2 3911   5.220   5.764   2.371 -0.0698 -0.2657 -0.1494
 1316TIP3    H1 3912   5.279   5.692   2.348 -1.6570 -1.6610 -0.0670
 1316TIP3    H2 3913   5.264   5.809   2.442  0.8692 -1.3022 -0.0368
 1317TIP3   OH2 3914   6.901   5.255   2.959 -0.2015 -0.4662  0.1332
 1317TIP3    H1 3915   6.946   5.333   2.927 -2.8337  1.7521  1.4544
 1317TIP3    H2 3916   6.947   5.233   3.041  0.1148  0.1052  0.1135
 1318TIP3   OH2 3917   3.138   2.238   3.951 -0.3497 -0.2276  0.1130
 1318TIP3    H1 3918   3.135   2.332   3.934  0.2848 -0.5460 -2.0200
 1318TIP3    H2 3919   3.197   2.229   4.026 -0.2817  1.0424  0.2393
 1319TIP3   OH2 3920   0.840   0.579   3.811 -0.0194  0.4139 -0.0586
 1319TIP3    H1 3921   0.921   0.624   3.786 -0.3853  1.0348 -0.1443
 1319TIP3    H2 3922   0.857   0.487   3.791  0.8674  0.4490  0.4429
 1320TIP3   OH2 3923   0.468   4.623   3.286 -0.3256  0.4301  0.0886
 1320TIP3    H1 3924   0.494   4.633   3.378 -0.1428 -0.6811  0.1737
 1320TIP3    H2 3925   0.382   4.665   3.281 -1.0734 -0.8948  1.1657
 1321TIP3   OH2 3926   1.136   1.089   1.345  0.0267 -0.5912  0.5078
 1321TIP3    H1 3927   1.163   1.120   1.259  3.2293 -1.2248  1.1403
 1321TIP3    H2 3928   1.116   0.996   1.331 -2.3860 -0.0690 -0.0080
 1322TIP3   OH2 3929   4.658   0.015   4.067 -0.1611  0.3294 -0.3881
 1322TIP3    H1 3930   4.719  -0.058   4.079  0.1337  0.5378 -0.5888
 1322TIP3    H2 3931   4.713   0.087   4.037 -0.4572  0.6248 -0.2247
 1323TIP3   OH2 3932   1.860   6.387   1.561 -0.0909 -0.2227  0.3348
 1323TIP3    H1 3933   1.901   6.444   1.495  0.8689  0.0749  1.1681
 1323TIP3    H2 3934   1.923   6.385   1.633 -0.6164 -1.4664  0.7767
 1324TIP3   OH2 3935   5.069   0.770   2.883 -0.4469 -0.4153 -0.0170
 1324TIP3    H1 3936   4.991   0.789   2.831 -1.1718 -1.3844  0.6938
 1324TIP3    H2 3937   5.122   0.850   2.876 -1.2781  0.0783 -0.8889
 1325TIP3   OH2 3938   2.387   6.408   0.098 -0.3156 -0.0320 -0.5637
 1325TIP3    H1 3939   2.378   6.478   0.163  1.2221  0.7927 -1.1606
 1325TIP3    H2 3940   2.476   6.419   0.065 -1.2059 -0.0419 -3.2007
 1326TIP3   OH2 3941   0.271   5.767   2.836 -0.3349 -0.1051 -0.4677
 1326TIP3    H1 3942   0.192   5.789   2.885 -0.6607 -1.8666 -0.1145
 1326TIP3    H2 3943   0.241   5.749   2.747 -0.3835 -0.9148 -0.2996
 1327TIP3   OH2 3944   5.229   6.117   2.366 -0.9259 -0.1155  0.0407
 1327TIP3    H1 3945   5.220   6.188   2.430  2.2618 -0.0924  0.6217
 1327TIP3    H2 3946   5.292   6.150   2.303  1.2694 -2.6087  0.7531
 1328TIP3   OH2 3947   3.123   1.564   3.740 -0.9022 -0.1298 -0.4642
 1328TIP3    H1 3948   3.028   1.570   3.733 -1.0127 -1.0661  0.0969
 1328TIP3    H2 3949   3.142   1.470   3.737  0.0679  0.0598 -1.2618
 1329TIP3   OH2 3950   0.298   6.391   1.947  0.0146 -0.6216  0.1017
 1329TIP3    H1 3951   0.333   6.478   1.967  1.1023 -0.9363 -0.3693
 1329TIP3    H2 3952   0.375   6.335   1.944 -0.5900 -1.4300 -0.5291
 1330TIP3   OH2 3953   4.190   0.359   4.163  0.2816 -0.1238 -0.3822
 1330TIP3    H1 3954   4.144   0.297   4.107 -0.5240 -0.1941  0.3374
 1330TIP3    H2 3955   4.159   0.339   4.251  0.7386  0.6729 -0.0306
 1331TIP3   OH2 3956   0.243   1.233   4.066 -0.6302 -0.1994  0.1828
 1331TIP3    H1 3957   0.319   1.175   4.076  1.2560  2.1929  0.7570
 1331TIP3    H2 3958   0.175   1.194   4.121  0.1404 -2.4318 -0.3595
 1332TIP3   OH2 3959   7.078   6.210   2.394  0.7785 -0.1690 -0.3476
 1332TIP3    H1 3960   7.156   6.264   2.382  0.5476 -0.0234 -1.2956
 1332TIP3    H2 3961   7.054   6.182   2.306 -0.0854 -0.4331 -0.0435
 1333TIP3   OH2 3962   0.929   6.645   0.403  0.3126  0.1599 -0.0994
 1333TIP3    H1 3963   0.899   6.709   0.467 -1.3214 -0.7391  0.0998
 1333TIP3    H2 3964   0.937   6.564   0.452  0.2025 -0.2732 -0.7818
 1334TIP3   OH2 3965   4.891   5.770   0.581  0.4223  0.0691  0.3332
 1334TIP3    H1 3966   4.918   5.702   0.643  2.4745 -0.2553 -0.8422
 1334TIP3    H2 3967   4.912   5.852   0.625 -1.5152  0.0086  1.5101
 1335TIP3   OH2 3968   3.187   4.479   5.337  0.2912  0.2304  0.6600
 1335TIP3    H1 3969   3.185   4.384   5.334  0.3523  0.2549 -0.4040
 1335TIP3    H2 3970   3.279   4.500   5.356  0.2750  0.0859  0.9099
 1336TIP3   OH2 3971   4.734   2.562   3.646 -0.3312 -0.2482  0.1820
 1336TIP3    H1 3972   4.725   2.613   3.727 -0.5371  0.9077 -0.5574
 1336TIP3    H2 3973   4.770   2.478   3.675  1.5258  0.8545  1.2585
 1337TIP3   OH2 3974   5.466   4.070   2.320 -0.0884  0.2745  0.9124
 1337TIP3    H1 3975   5.399   4.077   2.388 -0.3444  0.9817  0.5983
 1337TIP3    H2 3976   5.423   4.023   2.248  0.0789 -0.1829  1.1095
 1338TIP3   OH2 3977   5.272   2.015   1.857  0.2637  0.0875  0.3277
 1338TIP3    H1 3978   5.257   1.929   1.818 -0.0709 -0.3910  1.4853
 1338TIP3    H2 3979   5.197   2.029   1.914 -0.2725  1.6596 -0.6835
 1339TIP3   OH2 3980   7.093   2.072   4.397 -0.0783  0.5640  0.3248
 1339TIP3    H1 3981   7.000   2.092   4.396 -0.0417  0.7549 -1.0691
 1339TIP3    H2 3982   7.136   2.156   4.411 -0.1034  0.5816  0.2982
 1340TIP3   OH2 3983   6.064   0.686   5.906  0.0900 -0.0037  0.2530
 1340TIP3    H1 3984   6.012   0.605   5.912  1.6436 -1.1757 -0.9564
 1340TIP3    H2 3985   6.030   0.730   5.828 -0.1097  0.0198  0.3523
 1341TIP3   OH2 3986   1.891   5.108   1.565  0.1032  0.0313 -0.0744
 1341TIP3    H1 3987   1.934   5.135   1.647 -1.6857  0.0121  0.9082
 1341TIP3    H2 3988   1.947   5.038   1.532  1.3948  0.6921  0.6029
 1342TIP3   OH2 3989   0.149   2.100   0.795  0.6472  0.1584 -0.3226
 1342TIP3    H1 3990   0.079   2.038   0.773  1.4771 -0.6048 -0.9052
 1342TIP3    H2 3991   0.106   2.168   0.847 -0.2500 -1.0270  0.5451
 1343TIP3   OH2 3992   7.236   6.749   3.152 -0.1047 -0.0345 -0.2148
 1343TIP3    H1 3993   7.220   6.841   3.132  0.1859 -0.0200 -0.3788
 1343TIP3    H2 3994   7.177   6.701   3.094  0.2378  0.0289 -0.6219
 1344TIP3   OH2 3995   4.786   6.739   2.743 -0.0706  0.0768  0.3010
 1344TIP3    H1 3996   4.869   6.691   2.752 -1.4224 -2.1788  1.4739
 1344TIP3    H2 3997   4.806   6.826   2.779  1.7674 -0.3961  0.5523
 1345TIP3   OH2 3998   1.234   0.421   2.019  0.0688 -0.2311 -0.6926
 1345TIP3    H1 3999   1.258   0.446   1.929  0.1737 -0.3112 -0.6868
 1345TIP3    H2 4000   1.282   0.340   2.035  2.4220  1.2859  0.4650
 1346TIP3   OH2 4001   2.814   5.655   4.508 -0.3444  0.0250 -0.0567
 1346TIP3    H1 4002   2.749   5.585   4.520 -1.0772  0.8700  1.2031
 1346TIP3    H2 4003   2.895   5.619   4.543 -0.6247 -0.3409  0.2255
 1347TIP3   OH2 4004   6.691   1.777   1.788 -0.4639 -0.2984  0.4088
 1347TIP3    H1 4005   6.766   1.827   1.757  0.2836 -2.0487 -0.7800
 1347TIP3    H2 4006   6.690   1.698   1.734 -1.9301 -1.3076  1.7881
 1348TIP3   OH2 4007   1.692   6.246   0.689 -0.2594  0.0052 -0.2643
 1348TIP3    H1 4008   1.725   6.160   0.712 -0.8212 -1.4005 -3.9763
 1348TIP3    H2 4009   1.764   6.306   0.708  0.8777 -1.5495  0.5169
 1349TIP3   OH2 4010   2.052   2.027   2.499 -0.1832 -0.0754  0.2277
 1349TIP3    H1 4011   2.072   2.003   2.589 -1.1589  2.0776  1.0975
 1349TIP3    H2 4012   1.987   1.964   2.470 -0.9242  0.0512  1.5549
 1350TIP3   OH2 4013   6.119   3.623   2.801  0.4324 -0.6712 -0.1667
 1350TIP3    H1 4014   6.112   3.533   2.769  1.5645 -0.6282 -0.5590
 1350TIP3    H2 4015   6.031   3.659   2.788  0.0580 -1.6031 -0.3313
 1351TIP3   OH2 4016   2.551   5.947   2.199  0.2150  0.2466  0.5240
 1351TIP3    H1 4017   2.559   5.959   2.294 -0.0409  1.7466  0.3744
 1351TIP3    H2 4018   2.610   6.012   2.162  1.5241 -1.3726 -0.3641
 1352TIP3   OH2 4019   3.473   4.056   5.744 -0.0066  0.4120 -0.2028
 1352TIP3    H1 4020   3.425   4.028   5.666  0.9306  0.4194 -0.8023
 1352TIP3    H2 4021   3.458   3.986   5.807 -2.3654  1.3031  0.3381
 1353TIP3   OH2 4022   3.815   6.027   0.202  0.1917 -0.5519 -0.4576
 1353TIP3    H1 4023   3.821   5.990   0.289 -1.3063  0.0654 -0.0689
 1353TIP3    H2 4024   3.726   6.008   0.173  0.3037  0.2367 -1.3809
 1354TIP3   OH2 4025   2.949   4.324   5.220  0.0871 -0.1143 -0.6596
 1354TIP3    H1 4026   2.889   4.367   5.282 -0.2206  0.3532 -1.2578
 1354TIP3    H2 4027   3.017   4.286   5.275 -1.5511 -2.0253  0.1991
 1355TIP3   OH2 4028   3.309   5.687   4.509  0.4633  0.1256 -0.1382
 1355TIP3    H1 4029   3.308   5.609   4.453 -0.5991  0.6370 -0.8628
 1355TIP3    H2 4030   3.322   5.760   4.449 -2.2252  0.8339  0.0065
 1356TIP3   OH2 4031   3.066   1.227   1.813  0.0700 -0.2509 -0.1805
 1356TIP3    H1 4032   3.017   1.308   1.808  0.3339 -0.1699 -1.7566
 1356TIP3    H2 4033   3.125   1.229   1.738 -1.4372 -2.8767 -1.5734
 1357TIP3   OH2 4034   1.293   1.306   3.450  0.6461  0.5646  0.1666
 1357TIP3    H1 4035   1.352   1.354   3.509  2.5042 -2.1259  0.7118
 1357TIP3    H2 4036   1.241   1.250   3.508  0.8411 -0.4089 -0.5584
 1358TIP3   OH2 4037   7.143   2.785   1.873  0.6264 -0.3234 -0.1178
 1358TIP3    H1 4038   7.198   2.730   1.929  0.5576 -1.3115 -0.9838
 1358TIP3    H2 4039   7.186   2.783   1.788 -1.3614 -2.2057 -1.1869
 1359TIP3   OH2 4040   6.249   2.733   3.585 -0.5357 -0.4970  0.0810
 1359TIP3    H1 4041   6.301   2.691   3.517  1.7866  0.3963  1.1903
 1359TIP3    H2 4042   6.281   2.823   3.587 -0.8054 -0.3969  2.0852
 1360TIP3   OH2 4043   0.620   3.591   0.938  0.0380  0.2545  0.3149
 1360TIP3    H1 4044   0.678   3.636   0.877 -1.5875  1.1457 -0.6599
 1360TIP3    H2 4045   0.576   3.524   0.885 -0.9576  0.6443  0.6182
 1361TIP3   OH2 4046   3.670   3.278   4.405  0.1233 -0.3115  0.6110
 1361TIP3    H1 4047   3.690   3.354   4.459 -0.0029 -0.3002  0.6404
 1361TIP3    H2 4048   3.694   3.203   4.460 -1.8771 -0.3749  1.4632
 1362TIP3   OH2 4049   1.842   6.812  -0.013  0.1849  0.0291  0.2667
 1362TIP3    H1 4050   1.810   6.721  -0.013 -1.4421  0.5635 -0.4564
 1362TIP3    H2 4051   1.886   6.821   0.072  0.9799 -1.6225  0.0724
 1363TIP3   OH2 4052   3.508   3.387   2.932 -0.1024  0.0807 -0.0913
 1363TIP3    H1 4053   3.487   3.479   2.917 -0.6978 -0.3924 -2.5649
 1363TIP3    H2 4054   3.528   3.352   2.845  0.3337 -2.0956  0.8093
 1364TIP3   OH2 4055   4.860   3.513   5.543 -0.0228  0.3046 -0.3250
 1364TIP3    H1 4056   4.899   3.568   5.475  0.8404 -0.6116 -0.5934
 1364TIP3    H2 4057   4.921   3.520   5.617 -0.0885 -0.0218 -0.2392
 1365TIP3   OH2 4058   3.515   3.422   1.976 -0.3845 -0.5813 -0.0380
 1365TIP3    H1 4059   3.577   3.376   2.033 -0.7509 -1.1077 -0.0525
 1365TIP3    H2 4060   3.528   3.382   1.890  0.4583  0.4967 -0.4345
 1366TIP3   OH2 4061   0.475   3.806   5.516 -0.3458 -0.4404 -0.1546
 1366TIP3    H1 4062   0.433   3.741   5.573 -0.4405 -1.2600 -1.1280
 1366TIP3    H2 4063   0.431   3.888   5.536  0.5004 -0.4210  1.8773
 1367TIP3   OH2 4064   2.709   5.882   3.610  0.3525  0.2972 -0.0472
 1367TIP3    H1 4065   2.720   5.853   3.519  1.0228 -0.9052  0.3921
 1367TIP3    H2 4066   2.639   5.827   3.644  2.0092 -1.3262  0.9625
 1368TIP3   OH2 4067   1.901   3.681   1.247 -0.2359  0.1073 -0.4398
 1368TIP3    H1 4068   1.878   3.598   1.289 -1.0702  0.0564 -0.9648
 1368TIP3    H2 4069   1.965   3.721   1.306  2.0124 -1.9458 -1.3518
 1369TIP3   OH2 4070   3.876   3.119   3.561  0.0671  0.3590  0.1287
 1369TIP3    H1 4071   3.909   3.205   3.537  1.2781  0.3001  1.4252
 1369TIP3    H2 4072   3.796   3.137   3.610  0.7179  0.8337  1.0621
 1370TIP3   OH2 4073   4.219   4.500   1.807 -0.4595 -0.0067  0.3753
 1370TIP3    H1 4074   4.186   4.410   1.819  1.0411 -0.7199 -0.5423
 1370TIP3    H2 4075   4.269   4.496   1.725 -1.1873  1.9331 -0.2129
 1371TIP3   OH2 4076   0.367   2.652   3.200  0.0401  0.2201 -0.2565
 1371TIP3    H1 4077   0.294   2.615   3.249  0.0780  0.6410  0.1178
 1371TIP3    H2 4078   0.326   2.709   3.135  0.0526  0.8620  0.2918
 1372TIP3   OH2 4079   0.468   2.040   1.698 -0.1890  0.4347 -0.8917
 1372TIP3    H1 4080   0.476   2.032   1.603  1.2701  1.1479 -0.8665
 1372TIP3    H2 4081   0.546   2.089   1.724  0.5647 -1.5616  0.9060
 1373TIP3   OH2 4082   3.213   2.271   1.665 -0.2950  0.6236 -0.1467
 1373TIP3    H1 4083   3.285   2.235   1.613 -2.4988  0.3761 -3.2845
 1373TIP3    H2 4084   3.216   2.365   1.649 -0.5754  0.6255 -0.2011
 1374TIP3   OH2 4085   2.933   1.516   2.586  0.1773  0.2665 -0.0954
 1374TIP3    H1 4086   3.011   1.481   2.543  0.1011  1.8546 -1.6393
 1374TIP3    H2 4087   2.885   1.560   2.516 -0.2151  2.5590  1.5247
 1375TIP3   OH2 4088   3.233   4.868   3.967 -0.2908 -0.4750 -0.6759
 1375TIP3    H1 4089   3.174   4.828   3.903 -2.0843 -0.3232  0.7830
 1375TIP3    H2 4090   3.205   4.832   4.051 -0.5848  2.1985  0.4654
 1376TIP3   OH2 4091   1.628   0.438   2.487  1.0314  0.1889  0.0301
 1376TIP3    H1 4092   1.550   0.387   2.470  1.7278 -1.2343  0.9364
 1376TIP3    H2 4093   1.698   0.393   2.439  1.7944 -0.1895  1.4409
 1377TIP3   OH2 4094   4.938   4.189   4.028  0.2462  0.3477  0.5537
 1377TIP3    H1 4095   4.964   4.246   3.956 -0.9110 -0.5202 -0.5875
 1377TIP3    H2 4096   4.852   4.222   4.054 -1.4157 -2.0389 -1.5005
 1378TIP3   OH2 4097   1.610   5.761   1.842  0.1864  0.0167  0.1557
 1378TIP3    H1 4098   1.628   5.761   1.936  0.1557  2.4722  0.2262
 1378TIP3    H2 4099   1.695   5.748   1.801  0.1647 -1.3115  0.4963
 1379TIP3   OH2 4100   3.699   0.963   3.629 -0.0900  0.0117 -0.0950
 1379TIP3    H1 4101   3.628   1.026   3.617 -1.2054 -1.1519  0.2718
 1379TIP3    H2 4102   3.715   0.963   3.724  0.3517  0.1959 -0.1642
 1380TIP3   OH2 4103   4.705   3.362   4.118 -0.6158  0.0570  0.5373
 1380TIP3    H1 4104   4.779   3.403   4.073 -0.8324 -0.6208 -0.4637
 1380TIP3    H2 4105   4.637   3.353   4.051 -0.5185 -2.0609  0.6316
 1381TIP3   OH2 4106   2.844   1.963   2.648 -0.2907 -0.2712  0.3903
 1381TIP3    H1 4107   2.750   1.957   2.665 -0.3860  0.6426  0.2088
 1381TIP3    H2 4108   2.870   2.048   2.683  0.0072  0.5407 -1.6448
 1382TIP3   OH2 4109   1.559   3.759   5.158  0.3328  0.2498 -0.4802
 1382TIP3    H1 4110   1.516   3.674   5.160  0.4288  0.2172  0.9776
 1382TIP3    H2 4111   1.492   3.821   5.186  1.0312  0.2581  1.3173
 1383TIP3   OH2 4112   6.657   0.758   5.522 -0.3437 -0.0109 -0.2479
 1383TIP3    H1 4113   6.669   0.727   5.432  0.9444 -0.7183  0.1439
 1383TIP3    H2 4114   6.562   0.763   5.533 -0.5938 -2.0804 -0.9620
 1384TIP3   OH2 4115   2.047   4.061   0.176 -0.4885  0.5210 -0.8787
 1384TIP3    H1 4116   2.051   3.970   0.146 -1.3487 -0.3346  1.3537
 1384TIP3    H2 4117   2.137   4.084   0.196 -0.1619  0.4614 -2.1599
 1385TIP3   OH2 4118   0.802   0.181   0.947 -0.1162 -0.5283 -0.1600
 1385TIP3    H1 4119   0.723   0.164   0.897 -0.4904  1.4592 -0.3415
 1385TIP3    H2 4120   0.789   0.135   1.030 -1.1339 -0.8393 -0.4866
 1386TIP3   OH2 4121   2.397   2.041   1.139 -0.3924 -0.1622 -0.1287
 1386TIP3    H1 4122   2.411   1.946   1.146  4.9838  0.3907  1.1367
 1386TIP3    H2 4123   2.414   2.061   1.047 -0.3050 -0.3092 -0.1448
 1387TIP3   OH2 4124   2.497   4.829   0.964 -0.3809 -0.3016 -0.2792
 1387TIP3    H1 4125   2.412   4.855   0.997 -0.7061 -1.4670 -0.1539
 1387TIP3    H2 4126   2.478   4.784   0.882  0.2030  0.2390 -0.7258
 1388TIP3   OH2 4127   4.971   1.857   4.283  0.3375  0.1444  0.4004
 1388TIP3    H1 4128   5.001   1.858   4.374  2.5202 -0.8199 -0.2567
 1388TIP3    H2 4129   4.975   1.765   4.258  2.8551  0.7111 -1.5893
 1389TIP3   OH2 4130   4.429   2.554   2.981 -0.2568  0.2752 -0.2487
 1389TIP3    H1 4131   4.390   2.500   2.913 -0.6762  0.6413 -0.3031
 1389TIP3    H2 4132   4.368   2.627   2.992 -0.2367  0.1680  0.5910
 1390TIP3   OH2 4133   1.693   2.034   1.476  0.4783  0.0080  0.0806
 1390TIP3    H1 4134   1.777   1.990   1.488  0.0763 -0.6500  0.5633
 1390TIP3    H2 4135   1.635   1.995   1.542 -0.4502 -0.2003 -0.8115
 1391TIP3   OH2 4136   5.335   6.508   0.629 -0.6589  0.0312 -0.0634
 1391TIP3    H1 4137   5.367   6.472   0.546  0.2914  2.5317 -0.8745
 1391TIP3    H2 4138   5.249   6.545   0.607 -0.7852 -0.0489  0.2856
 1392TIP3   OH2 4139   2.417   1.101   5.538  0.4058  0.0431 -0.2941
 1392TIP3    H1 4140   2.423   1.034   5.469 -1.6588 -0.7543  0.2072
 1392TIP3    H2 4141   2.463   1.177   5.502 -1.1153 -0.1238 -2.8624
 1393TIP3   OH2 4142   5.254   6.301   3.668 -0.0774  0.0157  0.3944
 1393TIP3    H1 4143   5.177   6.358   3.670  0.1487  0.3493 -0.1786
 1393TIP3    H2 4144   5.324   6.357   3.635  0.0920 -0.6452 -0.3996
 1394TIP3   OH2 4145   2.348   6.137   3.133 -0.8578 -0.6964  0.2605
 1394TIP3    H1 4146   2.427   6.180   3.102 -1.0537  0.1633  0.9121
 1394TIP3    H2 4147   2.322   6.079   3.061  0.3858 -1.0445  0.0746
 1395TIP3   OH2 4148   0.416   5.697   3.432 -0.1621  0.0672 -0.0410
 1395TIP3    H1 4149   0.389   5.679   3.342 -0.3362  0.2950 -0.0356
 1395TIP3    H2 4150   0.334   5.712   3.479 -0.0405  0.4755  0.0397
 1396TIP3   OH2 4151   6.207   2.027   2.120 -0.0139 -0.4552  0.0981
 1396TIP3    H1 4152   6.198   2.120   2.102 -0.9365 -0.5544  0.0165
 1396TIP3    H2 4153   6.240   1.990   2.038  1.0983 -0.1001  0.3678
 1397TIP3   OH2 4154   4.183   4.694   1.053 -0.0340 -0.2311 -0.6819
 1397TIP3    H1 4155   4.162   4.708   1.146 -0.3014 -2.0469 -0.4343
 1397TIP3    H2 4156   4.201   4.782   1.019 -0.6509  0.5523  0.9118
 1398TIP3   OH2 4157   2.207   4.470   5.661 -0.1772  0.0551 -0.4919
 1398TIP3    H1 4158   2.231   4.539   5.600  0.1760 -0.3679 -0.8375
 1398TIP3    H2 4159   2.165   4.515   5.734  0.5549  0.6804 -0.4520
 1399TIP3   OH2 4160   5.784   3.293   3.376 -0.1469  0.6839  0.0973
 1399TIP3    H1 4161   5.705   3.337   3.346 -0.3112  0.5004  0.2629
 1399TIP3    H2 4162   5.781   3.207   3.334 -0.6320  0.2349  1.0217
 1400TIP3   OH2 4163   0.817   2.844   1.680  0.3978 -0.5748  0.0403
 1400TIP3    H1 4164   0.782   2.869   1.595 -0.5954  1.8029  1.0617
 1400TIP3    H2 4165   0.884   2.909   1.698  0.4254 -0.8984  1.1584
 1401TIP3   OH2 4166   0.709   6.334   1.052  0.4000 -0.2447 -0.2572
 1401TIP3    H1 4167   0.758   6.313   1.132  1.9382  0.9908 -0.8121
 1401TIP3    H2 4168   0.628   6.374   1.082  1.2322  0.7797  0.7155
 1402TIP3   OH2 4169   3.112   3.264   3.151  0.0041 -0.3050  0.2395
 1402TIP3    H1 4170   3.101   3.170   3.168 -0.2671 -0.3535 -0.1849
 1402TIP3    H2 4171   3.203   3.273   3.123 -0.1275 -0.5339 -0.2821
 1403TIP3   OH2 4172   3.714   2.395   3.825  0.6930 -0.4225 -0.2690
 1403TIP3    H1 4173   3.781   2.460   3.848  0.8082 -0.2133 -1.1713
 1403TIP3    H2 4174   3.741   2.361   3.740  0.3416 -1.2771 -0.0539
 1404TIP3   OH2 4175   5.619   1.329   4.540  0.0752  0.1855 -0.5311
 1404TIP3    H1 4176   5.537   1.350   4.584 -0.2268  0.0197 -0.9999
 1404TIP3    H2 4177   5.624   1.392   4.468  0.5731  0.4703 -0.2551
 1405TIP3   OH2 4178   2.288   5.529   5.098 -0.8098 -0.0890  0.3608
 1405TIP3    H1 4179   2.318   5.614   5.066 -0.6586  0.4062  1.7578
 1405TIP3    H2 4180   2.312   5.527   5.191  0.9148 -2.4495 -0.0279
 1406TIP3   OH2 4181   6.650   3.388   5.250 -0.4371 -0.2991 -0.4123
 1406TIP3    H1 4182   6.592   3.464   5.255  1.3432  1.0718  0.4914
 1406TIP3    H2 4183   6.681   3.386   5.160 -0.4459  0.0971 -0.4243
 1407TIP3   OH2 4184   4.677   2.297   2.461 -0.2392 -0.1134 -0.3103
 1407TIP3    H1 4185   4.738   2.223   2.453  0.2576 -0.0104  1.7660
 1407TIP3    H2 4186   4.675   2.336   2.374  1.1832 -1.2678 -0.9123
 1408TIP3   OH2 4187   3.825   4.420   5.489  0.6342  0.1824 -0.3255
 1408TIP3    H1 4188   3.783   4.369   5.558 -1.6925  1.4589 -0.7157
 1408TIP3    H2 4189   3.912   4.380   5.479 -0.9468 -3.6165 -0.5450
 1409TIP3   OH2 4190   0.072   1.352   4.384 -0.0385  0.2070  0.4019
 1409TIP3    H1 4191   0.153   1.302   4.393  0.6416  1.2959  0.5556
 1409TIP3    H2 4192   0.051   1.380   4.473 -0.2700  0.4042  0.2876
 1410TIP3   OH2 4193   0.764   3.204   5.567 -0.1283 -0.1082 -0.5030
 1410TIP3    H1 4194   0.692   3.144   5.587 -0.1367  0.3843  1.0484
 1410TIP3    H2 4195   0.836   3.175   5.622  0.6418 -0.1085 -1.4689
 1411TIP3   OH2 4196   3.187   3.306   4.873 -0.0262  0.7304 -0.1585
 1411TIP3    H1 4197   3.225   3.218   4.875 -0.4947  0.4931 -0.8253
 1411TIP3    H2 4198   3.092   3.290   4.866 -0.1046  1.2808 -0.4315
 1412TIP3   OH2 4199   6.889   0.701   3.757 -0.8160 -0.1673  0.1816
 1412TIP3    H1 4200   6.855   0.704   3.846 -0.2110  0.2316  0.4039
 1412TIP3    H2 4201   6.849   0.775   3.712 -2.1352 -1.1088 -0.2637
 1413TIP3   OH2 4202   4.696   5.649   0.077  0.2713 -0.6975  0.1908
 1413TIP3    H1 4203   4.624   5.645   0.140  1.3582  1.1750  1.6427
 1413TIP3    H2 4204   4.682   5.731   0.030  1.2225 -0.5377  0.1823
 1414TIP3   OH2 4205   6.773   0.372   3.530  0.0409 -0.0117  0.1987
 1414TIP3    H1 4206   6.817   0.405   3.609 -0.4025 -1.0894  0.9253
 1414TIP3    H2 4207   6.738   0.287   3.556 -0.5573 -0.1635 -1.0239
 1415TIP3   OH2 4208   5.258   2.408   4.277  0.1509  0.1041  0.1013
 1415TIP3    H1 4209   5.342   2.363   4.269 -0.1447 -0.5106  0.3733
 1415TIP3    H2 4210   5.231   2.425   4.186  0.4801  0.1382  0.0088
 1416TIP3   OH2 4211   0.337   4.481   5.407 -0.0266 -0.4827  0.3684
 1416TIP3    H1 4212   0.330   4.565   5.452  0.6725 -0.2137 -0.0052
 1416TIP3    H2 4213   0.384   4.425   5.468  1.2445 -0.0110 -0.1420
 1417TIP3   OH2 4214   4.950   2.290   3.300  0.1434  0.2307  0.1846
 1417TIP3    H1 4215   4.979   2.378   3.326 -0.4091  0.0036  1.6814
 1417TIP3    H2 4216   5.026   2.252   3.256  1.6611  0.2319  2.5828
 1418TIP3   OH2 4217   0.366   0.468   4.390  0.0716 -0.5208 -0.6114
 1418TIP3    H1 4218   0.274   0.462   4.416  0.0940 -0.1697 -0.4376
 1418TIP3    H2 4219   0.364   0.501   4.300  0.0273 -0.4320 -0.5782
 1419TIP3   OH2 4220   6.401   0.036   5.079  0.3524 -0.0991 -0.2461
 1419TIP3    H1 4221   6.364   0.085   5.152  0.4902 -2.4695  1.5405
 1419TIP3    H2 4222   6.465   0.095   5.040 -0.1184  1.4300  1.1880
 1420TIP3   OH2 4223   2.694   1.745   2.888 -0.3400 -0.0450  0.1094
 1420TIP3    H1 4224   2.715   1.778   2.975  0.6973  1.3942 -0.6453
 1420TIP3    H2 4225   2.778   1.724   2.849 -0.7797 -0.4810 -0.6225
 1421TIP3   OH2 4226   4.073   0.937   4.030 -0.1462 -0.4069  0.0397
 1421TIP3    H1 4227   4.149   0.883   4.009 -0.4207 -1.1260  0.8332
 1421TIP3    H2 4228   4.083   0.957   4.123 -0.0626  0.9072 -0.2312
 1422TIP3   OH2 4229   2.066   1.354   3.653  0.0715  0.0207  0.5708
 1422TIP3    H1 4230   2.091   1.446   3.659  0.5941  0.0165 -1.0470
 1422TIP3    H2 4231   1.974   1.352   3.679  0.3222  0.8422  1.5585
 1423TIP3   OH2 4232   3.400   3.013   4.407  0.0466 -0.4086 -0.0961
 1423TIP3    H1 4233   3.413   3.075   4.478  0.6810 -0.2629 -0.3404
 1423TIP3    H2 4234   3.310   3.029   4.377 -0.3443 -0.6982  0.8804
 1424TIP3   OH2 4235   5.311   0.653   2.689 -0.0310  0.3683  0.0249
 1424TIP3    H1 4236   5.326   0.658   2.784 -1.4022  2.6581  0.1825
 1424TIP3    H2 4237   5.220   0.626   2.681  0.2401 -0.3767 -0.6781
 1425TIP3   OH2 4238   0.067   0.067   1.098  0.3773  0.0991  0.4092
 1425TIP3    H1 4239   0.107   0.019   1.026  0.4287 -0.5259  0.8448
 1425TIP3    H2 4240   0.100   0.157   1.088  2.8204 -0.6042  1.3591
 1426TIP3   OH2 4241   6.879   5.845   4.886 -0.2020  0.0496 -0.1501
 1426TIP3    H1 4242   6.957   5.888   4.853  0.0696 -0.7552 -0.6021
 1426TIP3    H2 4243   6.819   5.843   4.811 -0.7989  0.9608  0.2870
 1427TIP3   OH2 4244   6.301   3.244   4.177 -0.8173  0.3305 -0.3213
 1427TIP3    H1 4245   6.251   3.176   4.223 -0.0572  0.7227  1.1443
 1427TIP3    H2 4246   6.279   3.325   4.224  1.3208  0.4840  0.5005
 1428TIP3   OH2 4247   1.997   1.266   1.119 -0.5512  0.2866 -0.1519
 1428TIP3    H1 4248   2.017   1.261   1.212  2.2931 -0.7813 -0.7406
 1428TIP3    H2 4249   2.015   1.357   1.095  1.7225 -0.1271 -0.2012
 1429TIP3   OH2 4250   0.041   3.379   5.120 -0.2697  0.4735  0.2184
 1429TIP3    H1 4251   0.110   3.316   5.098  0.7555  1.4226  0.5948
 1429TIP3    H2 4252   0.047   3.389   5.215 -0.1554  1.4114  0.1261
 1430TIP3   OH2 4253   1.888   4.823   4.549 -0.2953  0.2704  0.1795
 1430TIP3    H1 4254   1.927   4.736   4.534  0.1254  0.2100  1.5221
 1430TIP3    H2 4255   1.826   4.834   4.476  1.7196  0.0967 -1.6753
 1431TIP3   OH2 4256   6.517   2.429   4.292  0.0125 -0.5251 -0.2718
 1431TIP3    H1 4257   6.505   2.372   4.216 -1.0355  0.6833 -1.0702
 1431TIP3    H2 4258   6.444   2.409   4.349 -0.0795 -0.3340 -0.3219
 1432TIP3   OH2 4259   7.041   6.244   1.171 -0.7482  0.4698  0.2395
 1432TIP3    H1 4260   7.093   6.262   1.093  0.1613  0.9490  0.9314
 1432TIP3    H2 4261   6.954   6.275   1.150 -0.1656  1.9779 -0.0588
 1433TIP3   OH2 4262   1.776   6.704   2.559 -0.4881 -0.0789 -0.0238
 1433TIP3    H1 4263   1.844   6.696   2.492  0.3004  1.3917  0.5566
 1433TIP3    H2 4264   1.705   6.752   2.516  0.1230  1.0941  0.2365
 1434TIP3   OH2 4265   6.931   2.432   4.367 -0.0874  0.7364  0.3010
 1434TIP3    H1 4266   6.867   2.497   4.396 -0.6247  0.0262  0.7388
 1434TIP3    H2 4267   6.923   2.360   4.430  0.1466  0.0273 -0.4588
 1435TIP3   OH2 4268   0.884   6.634   4.531 -0.9791  0.4540  0.5796
 1435TIP3    H1 4269   0.967   6.670   4.499 -0.4008 -1.4228 -0.1515
 1435TIP3    H2 4270   0.909   6.562   4.589 -2.0946  1.4966  2.4908
 1436TIP3   OH2 4271   7.100   1.534   3.140  0.8569  0.0656  0.1530
 1436TIP3    H1 4272   7.024   1.561   3.089  0.2637 -0.9046  0.4893
 1436TIP3    H2 4273   7.139   1.463   3.089  1.7781  0.8033 -0.2067
 1437TIP3   OH2 4274   3.917   1.090   4.781 -0.7460 -0.0347 -0.2966
 1437TIP3    H1 4275   3.972   1.077   4.858  0.8665  1.7719 -1.0432
 1437TIP3    H2 4276   3.934   1.014   4.726  0.0294 -0.1374  0.0692
 1438TIP3   OH2 4277   0.719   3.711   0.045 -0.3610  0.1036 -0.8948
 1438TIP3    H1 4278   0.685   3.652   0.112 -1.0365 -1.3520 -2.4299
 1438TIP3    H2 4279   0.802   3.671   0.017  0.2209  1.0247 -0.5132
 1439TIP3   OH2 4280   4.576   2.057   1.220  0.0348 -0.0072  0.0256
 1439TIP3    H1 4281   4.504   2.099   1.173 -0.0237  0.9112  0.9006
 1439TIP3    H2 4282   4.636   2.129   1.239  0.2371 -0.4311  1.0041
 1440TIP3   OH2 4283   4.132   3.986   1.263  0.0267  0.0056  0.1834
 1440TIP3    H1 4284   4.177   4.046   1.204  1.1960 -0.4931  0.5219
 1440TIP3    H2 4285   4.203   3.937   1.305 -0.8146 -0.2709  1.3342
 1441TIP3   OH2 4286   4.741   3.665   1.309  0.2437  0.7528 -0.4070
 1441TIP3    H1 4287   4.770   3.753   1.285 -0.9275  0.7509 -2.0356
 1441TIP3    H2 4288   4.654   3.657   1.270 -1.5081  0.3227  3.1961
 1442TIP3   OH2 4289   0.653   3.448   5.843 -0.1631 -0.2984  0.0447
 1442TIP3    H1 4290   0.707   3.374   5.871 -1.0920 -1.9061 -2.0981
 1442TIP3    H2 4291   0.567   3.409   5.824 -0.7932  1.3955 -0.8068
 1443TIP3   OH2 4292   2.941   5.143   3.365  0.3453 -0.2442  0.1793
 1443TIP3    H1 4293   2.863   5.091   3.382  1.2744 -1.4393  0.9025
 1443TIP3    H2 4294   2.990   5.140   3.447  1.6599 -0.4289 -0.5957
 1444TIP3   OH2 4295   6.884   4.982   1.052  0.3322  0.0221  0.7598
 1444TIP3    H1 4296   6.944   4.911   1.076  1.4427 -0.1161 -2.0298
 1444TIP3    H2 4297   6.799   4.939   1.044  0.5155 -0.4886  1.4062
 1445TIP3   OH2 4298   2.552   6.009   1.274 -0.4902  0.1953 -0.3251
 1445TIP3    H1 4299   2.576   6.018   1.366  0.1375  0.8232 -0.5440
 1445TIP3    H2 4300   2.460   5.982   1.276 -0.3226 -0.3717  0.4908
 1446TIP3   OH2 4301   3.588   4.366   1.768 -0.0322 -0.7812  0.7717
 1446TIP3    H1 4302   3.500   4.337   1.743  0.6355 -1.4828 -0.9190
 1446TIP3    H2 4303   3.583   4.461   1.768 -1.0930 -0.8156  1.8902
 1447TIP3   OH2 4304   6.167   5.191   4.406  0.1965  0.6345  0.1364
 1447TIP3    H1 4305   6.252   5.212   4.444  0.8070 -0.8301 -0.3377
 1447TIP3    H2 4306   6.116   5.272   4.414  0.0794  0.3567  4.4855
 1448TIP3   OH2 4307   6.744   4.353   0.109 -0.0609  0.2534  0.0201
 1448TIP3    H1 4308   6.722   4.275   0.057 -0.8018  0.3197  0.2236
 1448TIP3    H2 4309   6.727   4.328   0.199  0.3587  0.4361  0.1539
 1449TIP3   OH2 4310   3.682   1.326   0.050  0.6992  0.1678 -0.3037
 1449TIP3    H1 4311   3.638   1.411   0.037  0.2123  0.0672  0.6026
 1449TIP3    H2 4312   3.694   1.320   0.144  0.8011 -0.7460 -0.3692
 1450TIP3   OH2 4313   6.500   4.645   1.707 -0.3582  0.0814  0.5529
 1450TIP3    H1 4314   6.497   4.685   1.621 -1.1943  0.5758  0.8003
 1450TIP3    H2 4315   6.592   4.653   1.735 -0.3524  1.1184  0.2684
 1451TIP3   OH2 4316   1.443   1.199   0.468  0.6589 -0.6044  0.0536
 1451TIP3    H1 4317   1.451   1.119   0.520  0.5329  1.0026  2.7422
 1451TIP3    H2 4318   1.507   1.259   0.506 -0.5335  1.2066 -0.6383
 1452TIP3   OH2 4319   2.511   4.176   0.870  0.3218 -0.2103  0.7418
 1452TIP3    H1 4320   2.508   4.098   0.815  0.1235  0.4344 -0.1814
 1452TIP3    H2 4321   2.539   4.246   0.811 -1.7382  0.8931  0.9668
 1453TIP3   OH2 4322   3.793   3.587   2.895  0.1475  0.0963 -0.1497
 1453TIP3    H1 4323   3.810   3.622   2.807  0.2455  2.0780  0.5941
 1453TIP3    H2 4324   3.701   3.608   2.911  0.3816  0.5932  0.5622
 1454TIP3   OH2 4325   4.351   5.818   1.984  0.4909  0.2191  0.0457
 1454TIP3    H1 4326   4.411   5.891   1.970  2.5742 -1.0815  1.5153
 1454TIP3    H2 4327   4.271   5.858   2.017  1.7335  1.8238  1.2692
 1455TIP3   OH2 4328   2.520   3.115   2.085  0.4414  0.1362 -0.5499
 1455TIP3    H1 4329   2.602   3.148   2.046  0.6031  0.5323  0.0974
 1455TIP3    H2 4330   2.548   3.076   2.168 -0.0312  0.3304 -0.2980
 1456TIP3   OH2 4331   6.039   0.104   5.259 -0.2348  0.2455  0.2037
 1456TIP3    H1 4332   5.982   0.083   5.333  0.5344 -2.7065  0.0766
 1456TIP3    H2 4333   6.117   0.143   5.300 -1.2732  2.0155  0.5777
 1457TIP3   OH2 4334   4.871   6.129   4.732  0.6859 -0.0821  0.2917
 1457TIP3    H1 4335   4.831   6.146   4.818  1.2058 -1.4666  0.8333
 1457TIP3    H2 4336   4.922   6.208   4.714  0.3559  0.3397  1.1270
 1458TIP3   OH2 4337   0.692   2.327   0.010 -0.4141 -0.7961 -0.0660
 1458TIP3    H1 4338   0.701   2.423   0.012 -2.1065 -0.6037 -0.6340
 1458TIP3    H2 4339   0.667   2.304   0.099 -0.9608 -0.5968 -0.1648
 1459TIP3   OH2 4340   6.870   1.714   0.729  0.7841 -0.0278  0.5701
 1459TIP3    H1 4341   6.867   1.808   0.749 -0.5735 -0.1358  0.9711
 1459TIP3    H2 4342   6.916   1.709   0.646 -1.2805  1.2411 -0.7440
 1460TIP3   OH2 4343   5.380   5.288   4.162  0.0668 -0.7737 -0.3801
 1460TIP3    H1 4344   5.466   5.328   4.179  0.2087 -0.4902 -1.6504
 1460TIP3    H2 4345   5.349   5.331   4.082 -1.0079 -1.2851 -0.2553
 1461TIP3   OH2 4346   0.361   4.347   2.358 -0.3010 -0.3844 -0.2101
 1461TIP3    H1 4347   0.380   4.351   2.264  0.1274 -2.0274 -0.2274
 1461TIP3    H2 4348   0.301   4.273   2.367 -0.6949  0.0322  0.7704
 1462TIP3   OH2 4349   4.827   4.958   4.479  0.2961  0.0154  0.0437
 1462TIP3    H1 4350   4.735   4.983   4.468  0.0428 -0.9052 -0.0580
 1462TIP3    H2 4351   4.873   5.002   4.409  0.0396  1.0032  0.4740
 1463TIP3   OH2 4352   5.776   2.375   0.619  0.4084 -0.0237  0.0301
 1463TIP3    H1 4353   5.738   2.291   0.646  0.2872 -0.2474 -0.7965
 1463TIP3    H2 4354   5.870   2.357   0.613  0.3803 -0.1160 -0.1659
 1464TIP3   OH2 4355   6.017   2.491   3.770 -0.0965 -0.1862  0.8137
 1464TIP3    H1 4356   6.022   2.423   3.703  1.2113 -0.7777  1.4615
 1464TIP3    H2 4357   6.080   2.557   3.741  0.1641 -0.2462  1.2337
 1465TIP3   OH2 4358   3.047   1.199   0.282 -0.6087  0.4886  0.3292
 1465TIP3    H1 4359   3.033   1.105   0.279 -1.0596  0.5621 -1.9253
 1465TIP3    H2 4360   3.095   1.218   0.201  1.1828  1.9653  1.6547
 1466TIP3   OH2 4361   1.669   3.469   5.041  0.2659  0.6900 -0.2931
 1466TIP3    H1 4362   1.575   3.473   5.058  0.4235 -0.1314  0.8809
 1466TIP3    H2 4363   1.693   3.558   5.018 -0.7626  0.9592 -0.3638
 1467TIP3   OH2 4364   2.530   2.723   4.112  0.4603  0.2282  0.2950
 1467TIP3    H1 4365   2.481   2.642   4.126  0.6045  0.4177  2.1755
 1467TIP3    H2 4366   2.463   2.792   4.111  0.4887  0.2597  0.5193
 1468TIP3   OH2 4367   3.988   1.158   5.793 -0.0020 -0.0007  0.0524
 1468TIP3    H1 4368   3.971   1.193   5.880 -0.8088 -0.1633 -0.0372
 1468TIP3    H2 4369   3.907   1.115   5.767 -0.4144  1.5695 -1.5095
 1469TIP3   OH2 4370   0.404   4.346   3.242  0.2851 -0.0169  0.4617
 1469TIP3    H1 4371   0.363   4.320   3.325  0.5663  1.6540  1.1667
 1469TIP3    H2 4372   0.428   4.438   3.255 -1.3524  0.8885 -2.1200
 1470TIP3   OH2 4373   3.258   6.053   3.306 -0.0952 -0.3886 -0.0416
 1470TIP3    H1 4374   3.306   6.136   3.310 -0.2312 -0.3066 -0.0937
 1470TIP3    H2 4375   3.316   5.989   3.346  0.6421 -0.5572 -1.3163
 1471TIP3   OH2 4376   4.429   2.790   4.018  0.1980  0.6594  0.2539
 1471TIP3    H1 4377   4.334   2.781   4.025  0.1777  1.7254  1.8365
 1471TIP3    H2 4378   4.461   2.775   4.107  1.7289 -1.6150 -0.5918
 1472TIP3   OH2 4379   0.053   1.577   2.800  0.0834 -0.0686  0.2972
 1472TIP3    H1 4380   0.057   1.524   2.880  2.2089  0.4424  0.5982
 1472TIP3    H2 4381   0.138   1.562   2.758 -0.4172  0.8526 -1.0966
 1473TIP3   OH2 4382   3.266   1.979   5.265 -0.2686  0.8123 -0.2905
 1473TIP3    H1 4383   3.177   2.009   5.248 -1.1885 -1.7612 -0.4100
 1473TIP3    H2 4384   3.265   1.948   5.355  0.5225  0.7543 -0.2899
 1474TIP3   OH2 4385   5.287   4.340   4.056  0.4735  0.0642 -0.0203
 1474TIP3    H1 4386   5.303   4.419   4.006  0.4690  0.4672  0.6076
 1474TIP3    H2 4387   5.252   4.278   3.992  1.9758  0.0367 -0.8407
 1475TIP3   OH2 4388   4.820   1.636   0.638 -0.1587  0.1477 -0.0412
 1475TIP3    H1 4389   4.915   1.621   0.643 -0.2996 -0.7717  0.0476
 1475TIP3    H2 4390   4.782   1.548   0.638 -1.0806  0.5064  1.3890
 1476TIP3   OH2 4391   3.640   1.220   3.741  0.5213  0.5091  0.3736
 1476TIP3    H1 4392   3.551   1.216   3.777 -0.3099 -0.6932 -1.6335
 1476TIP3    H2 4393   3.693   1.170   3.803  0.4194  3.2831  2.9500
 1477TIP3   OH2 4394   4.287   4.840   0.785  0.2285 -0.6335 -0.0136
 1477TIP3    H1 4395   4.199   4.850   0.749 -0.7536 -2.9550  1.4995
 1477TIP3    H2 4396   4.325   4.927   0.781 -2.2566  0.5070 -0.4101
 1478TIP3   OH2 4397   5.747   2.356   4.769 -0.1156 -0.1783 -0.1720
 1478TIP3    H1 4398   5.773   2.417   4.838  1.0834 -0.5577 -0.2669
 1478TIP3    H2 4399   5.822   2.297   4.759 -0.5040 -0.5052 -1.3792
 1479TIP3   OH2 4400   4.846   4.633   5.792 -0.4595  0.0635 -0.0332
 1479TIP3    H1 4401   4.796   4.691   5.849  0.0177 -0.2294  0.7060
 1479TIP3    H2 4402   4.844   4.548   5.838  1.4702  0.2626  0.4905
 1480TIP3   OH2 4403   1.362   1.553   2.556  0.0779 -0.5893 -0.2176
 1480TIP3    H1 4404   1.281   1.604   2.565 -0.7484 -1.7481 -0.8510
 1480TIP3    H2 4405   1.396   1.546   2.645 -0.6294 -0.2708  0.0832
 1481TIP3   OH2 4406   1.236   1.219   4.595  0.0829 -0.2078  0.5662
 1481TIP3    H1 4407   1.172   1.239   4.663  1.1656  0.9432  1.2827
 1481TIP3    H2 4408   1.311   1.184   4.642 -0.0050 -1.5843 -0.2694
 1482TIP3   OH2 4409   5.493   2.278   4.424 -0.5321  0.9000  0.1510
 1482TIP3    H1 4410   5.537   2.209   4.374 -2.5685  1.6966 -2.9795
 1482TIP3    H2 4411   5.563   2.340   4.445  0.7553 -0.4984  0.1836
 1483TIP3   OH2 4412   7.209   1.309   0.653 -0.0169  0.8645 -0.5410
 1483TIP3    H1 4413   7.254   1.226   0.636  1.5794  1.7023 -0.6358
 1483TIP3    H2 4414   7.122   1.283   0.685  1.7178 -0.9883  3.4628
 1484TIP3   OH2 4415   0.968   4.431   1.923  0.2772 -0.3823  0.4088
 1484TIP3    H1 4416   0.970   4.416   2.017 -0.8336 -0.8242  0.3705
 1484TIP3    H2 4417   1.043   4.383   1.890 -0.3643 -1.7462  0.8709
 1485TIP3   OH2 4418   7.177   4.319   5.225  0.6471  0.2095 -0.1684
 1485TIP3    H1 4419   7.139   4.256   5.164 -1.0781  1.1446 -0.1211
 1485TIP3    H2 4420   7.165   4.280   5.312 -2.9382  1.6358  0.1565
 1486TIP3   OH2 4421   0.469   2.454   5.377 -0.7118 -0.4809 -0.0350
 1486TIP3    H1 4422   0.459   2.396   5.302 -0.5456 -0.3637 -0.1498
 1486TIP3    H2 4423   0.384   2.455   5.419 -1.2120  0.5543 -1.0209
 1487TIP3   OH2 4424   3.787   4.285   4.584 -0.5755 -0.4206 -0.0246
 1487TIP3    H1 4425   3.726   4.292   4.511 -1.3731 -0.4823  0.6236
 1487TIP3    H2 4426   3.822   4.374   4.595  1.9291 -0.9466 -2.4281
 1488TIP3   OH2 4427   3.172   4.088   1.672 -0.3113  0.1098 -0.1182
 1488TIP3    H1 4428   3.100   4.149   1.685 -0.5372  0.0702 -1.0695
 1488TIP3    H2 4429   3.131   4.011   1.632  0.1109 -0.3074  0.2330
 1489TIP3   OH2 4430   1.052   6.247   3.454 -0.2858  0.4999 -0.4783
 1489TIP3    H1 4431   1.101   6.244   3.536  1.0319  0.3959 -1.2338
 1489TIP3    H2 4432   1.079   6.329   3.413 -1.1344  0.6802 -0.7054
 1490TIP3   OH2 4433   2.774   5.288   1.146  0.3444 -0.0073 -0.4803
 1490TIP3    H1 4434   2.815   5.201   1.143 -0.1843 -0.2549 -0.6365
 1490TIP3    H2 4435   2.726   5.295   1.064  1.4424  0.9700 -1.0650
 1491TIP3   OH2 4436   0.631   6.021   4.461 -0.3766 -0.4515  0.7022
 1491TIP3    H1 4437   0.564   6.031   4.529 -1.6216 -0.8448 -0.4330
 1491TIP3    H2 4438   0.610   5.938   4.418 -0.2482  0.2830 -0.8379
 1492TIP3   OH2 4439   5.517   1.359   3.025 -0.1751  0.1862  0.0358
 1492TIP3    H1 4440   5.447   1.357   2.961  0.1517 -1.9734 -0.3299
 1492TIP3    H2 4441   5.474   1.336   3.108  0.3117 -3.0705 -0.5137
 1493TIP3   OH2 4442   3.407   2.917   1.102 -0.3154  0.2668 -0.0695
 1493TIP3    H1 4443   3.340   2.945   1.164  0.0223  1.2491 -0.1307
 1493TIP3    H2 4444   3.367   2.845   1.053 -1.0362  0.3274  0.4253
 1494TIP3   OH2 4445   1.315   1.059   1.567  0.1183  0.6196  1.4082
 1494TIP3    H1 4446   1.260   1.089   1.494 -0.8855  0.0078  1.9045
 1494TIP3    H2 4447   1.254   1.045   1.639  0.7888 -0.9628  1.6955
 1495TIP3   OH2 4448   0.832   5.809   4.166 -0.0200 -0.0753  0.3905
 1495TIP3    H1 4449   0.925   5.821   4.184 -0.0286  0.8596 -0.1706
 1495TIP3    H2 4450   0.791   5.805   4.253  0.3807  0.8299  0.6200
 1496TIP3   OH2 4451   0.754   1.153   0.390  0.2295  0.0040  0.1174
 1496TIP3    H1 4452   0.693   1.224   0.410  2.0190  1.1960  1.7110
 1496TIP3    H2 4453   0.826   1.165   0.452  1.6939 -1.8341 -1.1125
 1497TIP3   OH2 4454   0.031   1.747   1.323  0.1682  0.8950  0.5284
 1497TIP3    H1 4455  -0.012   1.741   1.408  0.5096 -0.9435  0.5959
 1497TIP3    H2 4456  -0.018   1.688   1.266  1.1934  0.5390 -0.0074
 1498TIP3   OH2 4457   0.811   6.349   2.279 -0.1138 -0.5059  0.1087
 1498TIP3    H1 4458   0.832   6.256   2.288 -0.1423 -0.5396 -0.1674
 1498TIP3    H2 4459   0.789   6.377   2.368 -1.3877 -1.0625 -0.0129
 1499TIP3   OH2 4460   3.877   2.359   0.860 -0.4115  0.5120 -0.2145
 1499TIP3    H1 4461   3.784   2.369   0.881 -0.0361  1.9181  0.9564
 1499TIP3    H2 4462   3.880   2.291   0.793 -2.1558 -0.5788  0.7494
 1500TIP3   OH2 4463   1.592   0.264   5.189 -0.0526 -0.3374  0.6104
 1500TIP3    H1 4464   1.599   0.208   5.266 -1.3864 -0.4530  0.6664
 1500TIP3    H2 4465   1.611   0.206   5.115  0.3433 -0.4390  0.7933
 1501TIP3   OH2 4466   3.278   2.619   5.631  0.1887  0.5731 -0.4336
 1501TIP3    H1 4467   3.330   2.620   5.711 -1.8633 -0.9697  1.0428
 1501TIP3    H2 4468   3.237   2.705   5.628  0.0101  0.5204  0.3748
 1502TIP3   OH2 4469   6.011   1.658   3.401  0.5025 -0.7170 -0.0978
 1502TIP3    H1 4470   5.956   1.729   3.368  1.8004  0.9855  1.2324
 1502TIP3    H2 4471   5.950   1.597   3.442 -0.4731  0.8337  0.8569
 1503TIP3   OH2 4472   1.008   4.304   2.453 -0.2311 -0.4034 -0.4974
 1503TIP3    H1 4473   0.919   4.327   2.427 -0.4230 -1.6311 -0.9575
 1503TIP3    H2 4474   1.060   4.319   2.374 -0.0078  0.3411 -0.2210
 1504TIP3   OH2 4475   4.504   3.438   5.450  0.4166  0.5807  0.4955
 1504TIP3    H1 4476   4.485   3.382   5.375  1.2289 -0.1450  0.8111
 1504TIP3    H2 4477   4.485   3.526   5.420  2.7101  0.5441 -1.2902
 1505TIP3   OH2 4478   2.858   3.026   0.229 -0.3313 -0.4781 -0.1269
 1505TIP3    H1 4479   2.925   3.094   0.223 -0.8116  0.0253  0.1642
 1505TIP3    H2 4480   2.880   2.964   0.160  0.0604  0.0181 -0.4467
 1506TIP3   OH2 4481   4.513   1.813   2.081 -0.1719  0.6545  0.1944
 1506TIP3    H1 4482   4.585   1.773   2.032 -0.6950 -0.6427  0.4519
 1506TIP3    H2 4483   4.535   1.799   2.173 -1.4202 -1.0481  0.2762
 1507TIP3   OH2 4484   5.886   3.175   0.468  0.3173 -0.3006 -0.4049
 1507TIP3    H1 4485   5.840   3.145   0.390 -0.1239 -0.0411 -0.2517
 1507TIP3    H2 4486   5.816   3.205   0.527  0.6643 -0.1793 -0.0483
 1508TIP3   OH2 4487   2.942   6.420   4.135 -0.0548 -0.0827 -0.3144
 1508TIP3    H1 4488   2.929   6.326   4.120 -0.2757  0.0803 -1.1666
 1508TIP3    H2 4489   3.037   6.432   4.134  0.1174 -0.6666  2.1860
 1509TIP3   OH2 4490   6.546   0.911   3.115 -0.3438  0.4670 -0.0753
 1509TIP3    H1 4491   6.511   0.821   3.116  0.5537  0.0777  2.3980
 1509TIP3    H2 4492   6.634   0.902   3.079  0.6021 -0.0850  2.2083
 1510TIP3   OH2 4493   1.091   0.053   5.706 -0.0170 -0.5277 -0.6345
 1510TIP3    H1 4494   1.178   0.034   5.670  1.0521  1.0579  0.9526
 1510TIP3    H2 4495   1.056   0.121   5.649  0.0782 -0.6477 -0.8401
 1511TIP3   OH2 4496   4.922   0.326   4.734  0.3211 -0.1523  0.7265
 1511TIP3    H1 4497   4.989   0.328   4.666  1.4162  0.6044  1.7896
 1511TIP3    H2 4498   4.951   0.257   4.794 -0.2332 -0.2998  0.8301
 1512TIP3   OH2 4499   0.604   4.826   0.368  0.1003  0.4158  0.1245
 1512TIP3    H1 4500   0.619   4.832   0.463  2.2082 -0.1779 -0.1202
 1512TIP3    H2 4501   0.682   4.864   0.329 -0.7474  0.6679 -1.4062
 1513TIP3   OH2 4502   6.456   2.899   4.595  0.0491  0.0284 -0.3084
 1513TIP3    H1 4503   6.518   2.914   4.523 -0.1135  1.7167 -0.1493
 1513TIP3    H2 4504   6.371   2.896   4.552  0.1266 -1.0646 -0.3969
 1514TIP3   OH2 4505   0.235   1.282   4.932  0.3471 -0.1482 -0.3773
 1514TIP3    H1 4506   0.196   1.344   4.994  0.6252 -1.0210  0.7041
 1514TIP3    H2 4507   0.282   1.219   4.987  2.2104  0.1179 -1.5653
 1515TIP3   OH2 4508   3.546   6.346   3.979 -0.0453  0.3627 -0.2724
 1515TIP3    H1 4509   3.460   6.339   3.939 -1.9489 -0.5571  3.5343
 1515TIP3    H2 4510   3.544   6.429   4.028  2.5241  1.9433 -2.5212
 1516TIP3   OH2 4511   1.779   5.316   1.328 -0.1274 -0.0000 -0.1762
 1516TIP3    H1 4512   1.816   5.318   1.416 -0.7757 -0.2664  0.1122
 1516TIP3    H2 4513   1.798   5.402   1.291 -0.3838  0.3304  0.4513
 1517TIP3   OH2 4514   2.946   4.670   3.530 -0.0426  0.1075  0.5856
 1517TIP3    H1 4515   2.858   4.705   3.540 -0.1574 -0.3425  1.2235
 1517TIP3    H2 4516   2.970   4.690   3.439 -0.0573  1.9140  0.9446
 1518TIP3   OH2 4517   5.813   1.541   3.559  0.1065  0.2244  0.5126
 1518TIP3    H1 4518   5.801   1.628   3.595 -0.7894 -0.7741  2.8580
 1518TIP3    H2 4519   5.813   1.483   3.635  0.5220 -1.8514 -0.9642
 1519TIP3   OH2 4520   6.689   3.646   1.449 -0.6563  0.3916 -0.2015
 1519TIP3    H1 4521   6.617   3.590   1.419 -1.5438  0.7744  1.1175
 1519TIP3    H2 4522   6.682   3.645   1.544  0.8447  0.7841 -0.0664
 1520TIP3   OH2 4523   4.555   4.905   3.881  0.0191  0.5203  0.0148
 1520TIP3    H1 4524   4.519   4.976   3.828  0.0250  1.4543  1.2253
 1520TIP3    H2 4525   4.604   4.950   3.951  2.0063 -0.6793 -0.5318
 1521TIP3   OH2 4526   2.382   1.171   3.279 -0.2364  0.3637 -0.5863
 1521TIP3    H1 4527   2.463   1.212   3.249  0.3887 -0.0926  0.4401
 1521TIP3    H2 4528   2.321   1.184   3.207  1.0526 -0.2100 -1.8326
 1522TIP3   OH2 4529   5.387   2.737   5.843  0.4740 -0.0665 -0.0346
 1522TIP3    H1 4530   5.337   2.711   5.920  0.8672 -0.6557  0.0319
 1522TIP3    H2 4531   5.334   2.709   5.769  1.4331 -2.2389  0.0273
 1523TIP3   OH2 4532   0.698   3.344   4.016 -0.2425 -0.3626  0.4746
 1523TIP3    H1 4533   0.612   3.378   3.991  0.0557  0.3242  0.3435
 1523TIP3    H2 4534   0.742   3.419   4.055 -0.1391 -1.0270  1.6719
 1524TIP3   OH2 4535   3.644   0.473   3.479  0.0430  0.1570 -0.8248
 1524TIP3    H1 4536   3.663   0.403   3.542  0.5890 -1.3267 -2.5395
 1524TIP3    H2 4537   3.658   0.554   3.528 -0.8571 -0.8971  1.3164
 1525TIP3   OH2 4538   4.166   5.487   4.281  0.1712  0.0339  0.7385
 1525TIP3    H1 4539   4.243   5.432   4.293  0.4065  0.3937  0.8762
 1525TIP3    H2 4540   4.179   5.562   4.339  0.2725  0.6762 -0.0877
 1526TIP3   OH2 4541   0.556   0.671   2.817  0.1428  0.1626 -0.4471
 1526TIP3    H1 4542   0.573   0.654   2.909  0.6263 -0.2992 -0.6156
 1526TIP3    H2 4543   0.625   0.731   2.790  1.2967 -1.3493 -1.0151
 1527TIP3   OH2 4544   5.901   2.032   1.710  0.3065  0.3314 -0.1290
 1527TIP3    H1 4545   5.923   2.005   1.799  1.0926  0.4263 -0.2878
 1527TIP3    H2 4546   5.811   2.001   1.697  0.5257 -0.5465  0.3507
 1528TIP3   OH2 4547   4.063   4.390   3.380  0.3155 -0.4276  0.3604
 1528TIP3    H1 4548   4.029   4.428   3.299 -1.6064 -1.5145  0.5947
 1528TIP3    H2 4549   4.037   4.451   3.449  2.1202  0.5969  0.2001
 1529TIP3   OH2 4550   5.389   2.544   3.022 -0.6804  0.0272 -0.6961
 1529TIP3    H1 4551   5.338   2.470   2.990 -1.7300 -0.1169  1.1556
 1529TIP3    H2 4552   5.412   2.594   2.943  0.2622 -2.3448 -2.0168
 1530TIP3   OH2 4553   6.635   5.188   1.141  0.0666 -0.5497 -0.5499
 1530TIP3    H1 4554   6.697   5.250   1.104 -0.4001 -0.0879 -0.5563
 1530TIP3    H2 4555   6.617   5.127   1.070  1.1074 -1.1578 -0.3202
 1531TIP3   OH2 4556   1.103   0.742   2.838  0.2864  0.4224  0.0534
 1531TIP3    H1 4557   1.110   0.836   2.821  0.5544  0.1995 -1.2155
 1531TIP3    H2 4558   1.132   0.701   2.756 -1.0755 -0.7459  0.1069
 1532TIP3   OH2 4559   3.998   6.756   4.548 -0.2912 -0.2577  0.4482
 1532TIP3    H1 4560   3.985   6.744   4.454 -0.4145  3.9906 -0.2686
 1532TIP3    H2 4561   4.092   6.767   4.558 -0.5137  2.6520  0.1474
 1533TIP3   OH2 4562   3.868   5.365   3.581 -0.1356 -0.3648 -0.0987
 1533TIP3    H1 4563   3.926   5.341   3.508  0.3904 -1.4882  0.6562
 1533TIP3    H2 4564   3.893   5.306   3.652 -2.0029 -0.6941  0.3482
 1534TIP3   OH2 4565   1.214   6.691   5.810  0.1346 -0.0063  0.2270
 1534TIP3    H1 4566   1.282   6.650   5.755 -0.2436 -3.2456  1.9324
 1534TIP3    H2 4567   1.254   6.772   5.841  2.1641 -0.4496 -1.0188
 1535TIP3   OH2 4568   3.932   4.005   2.398  0.0393 -0.2833 -0.1065
 1535TIP3    H1 4569   3.924   4.053   2.316 -1.3360  3.2750  1.8377
 1535TIP3    H2 4570   4.025   4.013   2.422  0.5247 -1.6627 -1.3927
 1536TIP3   OH2 4571   3.519   6.710   0.782 -0.2323 -0.1082 -0.2368
 1536TIP3    H1 4572   3.518   6.736   0.690  0.8136 -1.1841 -0.5756
 1536TIP3    H2 4573   3.592   6.649   0.789  0.5464  0.9718  1.6084
 1537TIP3   OH2 4574   3.688   2.475   3.080  0.5302 -0.3890 -0.1121
 1537TIP3    H1 4575   3.626   2.481   3.152 -0.6983 -0.0156 -1.1775
 1537TIP3    H2 4576   3.694   2.564   3.045  2.2587 -0.2444  0.4187
 1538TIP3   OH2 4577   4.633   3.623   5.649  0.2859 -0.6677  0.3666
 1538TIP3    H1 4578   4.717   3.600   5.608 -0.5114  0.6499 -2.2328
 1538TIP3    H2 4579   4.571   3.559   5.616 -0.2611  0.0590 -0.0522
 1539TIP3   OH2 4580   6.692   5.389   0.266 -0.0531  0.5390  0.1579
 1539TIP3    H1 4581   6.607   5.400   0.223 -0.8985 -0.5311  1.4758
 1539TIP3    H2 4582   6.671   5.371   0.357  1.4781 -1.9171  0.1308
 1540TIP3   OH2 4583   1.073   4.244   1.180  0.2135 -0.3899 -0.2051
 1540TIP3    H1 4584   1.115   4.246   1.267 -1.1566  1.1107  0.4666
 1540TIP3    H2 4585   1.141   4.277   1.121  0.7112 -0.1281  0.4937
 1541TIP3   OH2 4586   1.686   0.244   5.683  0.0543  0.2542  0.2742
 1541TIP3    H1 4587   1.691   0.328   5.729  1.7179  0.6893 -0.6180
 1541TIP3    H2 4588   1.776   0.213   5.679  0.2614  0.8129 -3.5841
 1542TIP3   OH2 4589   3.395   6.500   4.522 -0.4797  0.3080 -0.1475
 1542TIP3    H1 4590   3.369   6.570   4.582 -2.2494  0.0904 -0.6291
 1542TIP3    H2 4591   3.388   6.538   4.435  0.0705 -0.0096 -0.3402
 1543TIP3   OH2 4592   2.888   6.154   4.095 -0.3626  0.0785 -0.0563
 1543TIP3    H1 4593   2.919   6.078   4.144  1.1091  0.8562  0.2892
 1543TIP3    H2 4594   2.919   6.140   4.006 -1.3285 -0.3876 -0.3327
 1544TIP3   OH2 4595   0.955   5.323   3.245  0.1349  1.0964  0.1033
 1544TIP3    H1 4596   0.953   5.269   3.325  0.1241  0.4482 -0.3251
 1544TIP3    H2 4597   0.936   5.412   3.276 -1.5865  0.5951  0.6074
 1545TIP3   OH2 4598   3.904   6.122   2.542 -0.0503 -0.0573  0.5372
 1545TIP3    H1 4599   3.998   6.107   2.551 -0.2429 -1.5262  0.3225
 1545TIP3    H2 4600   3.895   6.217   2.544  1.5368  0.1496 -0.3921
 1546TIP3   OH2 4601   0.255   4.089   2.408  0.2288 -0.2601 -0.1348
 1546TIP3    H1 4602   0.163   4.066   2.402  0.4034 -0.6798 -2.6848
 1546TIP3    H2 4603   0.296   4.012   2.448 -0.5278  0.0398  1.2617
 1547TIP3   OH2 4604   1.990   2.563   4.605  0.0872 -0.7910  0.1210
 1547TIP3    H1 4605   1.926   2.523   4.663 -0.8864  0.2347 -0.2045
 1547TIP3    H2 4606   2.006   2.650   4.643  0.4624 -0.6293 -0.3951
 1548TIP3   OH2 4607   2.183   6.755   0.880  0.4525  0.1218  0.2538
 1548TIP3    H1 4608   2.230   6.684   0.924  0.2192 -0.8863 -1.0765
 1548TIP3    H2 4609   2.252   6.813   0.848  0.6675  0.1450  0.7501
 1549TIP3   OH2 4610   4.778   3.920   0.496 -0.3869 -0.2858 -0.2436
 1549TIP3    H1 4611   4.787   4.007   0.535  1.0569 -1.0922  1.3373
 1549TIP3    H2 4612   4.818   3.928   0.410  0.3301  0.4600  0.1527
 1550TIP3   OH2 4613   4.653   1.012   0.157  0.4697  0.4608 -0.2460
 1550TIP3    H1 4614   4.589   0.943   0.141  0.0708  0.4489  1.2098
 1550TIP3    H2 4615   4.719   0.971   0.213 -0.5871  1.5899  1.9800
 1551TIP3   OH2 4616   1.271   5.976   1.852 -0.8541  0.4585 -0.3157
 1551TIP3    H1 4617   1.354   6.000   1.811 -1.1614 -0.5553 -1.6029
 1551TIP3    H2 4618   1.294   5.950   1.941  0.2073  0.1504 -0.6714
 1552TIP3   OH2 4619   6.264   3.653   5.079  0.1201  0.2706  0.0117
 1552TIP3    H1 4620   6.254   3.559   5.071  0.3347 -0.0588  2.7034
 1552TIP3    H2 4621   6.301   3.681   4.995  0.4592 -2.0822 -0.6794
 1553TIP3   OH2 4622   1.259   3.138   5.773  0.2964  0.2456  0.0727
 1553TIP3    H1 4623   1.337   3.091   5.802  0.7993 -0.3631 -2.1054
 1553TIP3    H2 4624   1.268   3.225   5.811  2.4594  0.4341 -0.7290
 1554TIP3   OH2 4625   5.659   5.922   0.190 -0.6537 -0.1456  0.3207
 1554TIP3    H1 4626   5.657   5.851   0.254 -1.2660 -0.4634 -0.0420
 1554TIP3    H2 4627   5.751   5.950   0.188 -0.4001 -0.9460  0.4456
 1555TIP3   OH2 4628   1.412   5.933   0.342 -0.1487  0.4730 -0.3198
 1555TIP3    H1 4629   1.379   5.899   0.426  0.6516 -1.0554 -0.6036
 1555TIP3    H2 4630   1.348   5.904   0.277  0.1141  0.2034 -0.4589
 1556TIP3   OH2 4631   6.651   0.184   2.747 -0.3212 -0.4864  0.2726
 1556TIP3    H1 4632   6.586   0.250   2.724  2.0287  1.4226 -1.3697
 1556TIP3    H2 4633   6.723   0.197   2.685  1.4991 -2.7203  1.7189
 1557TIP3   OH2 4634   1.284   0.515   1.779 -0.4556 -0.1792  0.0504
 1557TIP3    H1 4635   1.264   0.471   1.696 -0.8505 -1.0540  0.5988
 1557TIP3    H2 4636   1.379   0.512   1.785 -0.1752  2.1651 -1.5753
 1558TIP3   OH2 4637   3.209   5.524   5.353 -0.3014  0.3067  0.8975
 1558TIP3    H1 4638   3.228   5.438   5.317 -1.4387 -0.0465  1.0993
 1558TIP3    H2 4639   3.295   5.559   5.380  0.2828 -0.3273 -0.1034
 1559TIP3   OH2 4640   6.883   4.401   0.388  0.7170  0.1837  0.0524
 1559TIP3    H1 4641   6.918   4.323   0.345  1.0545  0.9918 -1.1800
 1559TIP3    H2 4642   6.851   4.370   0.473  0.9874 -1.2572 -0.3602
 1560TIP3   OH2 4643   3.162   4.420   1.828  0.0160 -0.3851 -0.1737
 1560TIP3    H1 4644   3.230   4.354   1.840  0.7254  0.1822 -0.9611
 1560TIP3    H2 4645   3.205   4.491   1.779 -1.7374 -1.0658 -2.9239
 1561TIP3   OH2 4646   5.534   6.715   1.834 -0.3540 -0.2148  0.4279
 1561TIP3    H1 4647   5.588   6.707   1.913  0.0643 -0.6165  0.1060
 1561TIP3    H2 4648   5.540   6.807   1.810  0.2510 -0.2679  0.3550
 1562TIP3   OH2 4649   2.375   2.046   5.365  0.1683  0.3165 -0.2760
 1562TIP3    H1 4650   2.284   2.024   5.380  0.4543 -1.0862 -0.4335
 1562TIP3    H2 4651   2.417   2.036   5.450  0.1520  1.1379 -0.1643
 1563TIP3   OH2 4652   1.978   5.382   3.256 -0.4056 -0.3037 -0.5993
 1563TIP3    H1 4653   1.939   5.419   3.177  1.3896 -0.7390 -1.7602
 1563TIP3    H2 4654   2.063   5.425   3.263 -0.2637 -0.7455  0.7537
 1564TIP3   OH2 4655   6.836   4.010   3.146 -0.2860 -0.7334 -0.2313
 1564TIP3    H1 4656   6.821   3.918   3.168  0.5360 -0.8314 -0.0364
 1564TIP3    H2 4657   6.898   4.007   3.074  0.8135 -0.3203  0.6625
 1565TIP3   OH2 4658   5.061   5.167   1.150 -0.4963 -0.3181  0.2602
 1565TIP3    H1 4659   5.133   5.223   1.179  0.1631 -0.6849 -0.6277
 1565TIP3    H2 4660   4.986   5.197   1.200 -0.2932  1.7564 -0.5689
 1566TIP3   OH2 4661   5.596   4.945   2.110  0.3108 -0.4888  0.1738
 1566TIP3    H1 4662   5.543   5.016   2.145 -0.1623 -0.7990  0.0944
 1566TIP3    H2 4663   5.605   4.883   2.183 -1.1579 -1.4120 -0.3891
 1567TIP3   OH2 4664   5.257   3.441   0.388 -0.5974  0.2047  0.1509
 1567TIP3    H1 4665   5.237   3.419   0.297 -0.7589 -0.5737  0.3633
 1567TIP3    H2 4666   5.341   3.399   0.405  0.2695  1.7526 -0.1231
 1568TIP3   OH2 4667   2.663   0.159   1.644 -0.3904  0.0956 -0.1049
 1568TIP3    H1 4668   2.637   0.069   1.623 -1.9977  1.0761 -2.8569
 1568TIP3    H2 4669   2.752   0.167   1.609  0.3008 -0.7499  1.3676
 1569TIP3   OH2 4670   6.584   5.191   0.750 -0.1767  0.1023  0.0721
 1569TIP3    H1 4671   6.647   5.119   0.757 -0.2978  0.0473  0.6876
 1569TIP3    H2 4672   6.504   5.156   0.789  0.2587  1.1233  2.0054
 1570TIP3   OH2 4673   1.622   0.429   3.432  0.3249 -0.1456  0.1232
 1570TIP3    H1 4674   1.528   0.438   3.416  0.1993 -0.7792  0.4911
 1570TIP3    H2 4675   1.660   0.425   3.344 -0.3339 -3.3053 -0.1234
 1571TIP3   OH2 4676   6.589   6.659   3.823  0.2696  0.1302 -0.2092
 1571TIP3    H1 4677   6.675   6.683   3.788  0.5873 -0.6845  0.0003
 1571TIP3    H2 4678   6.544   6.743   3.834  0.7580  0.5197 -1.0218
 1572TIP3   OH2 4679   3.157   1.664   0.613  0.1549  0.0865 -0.1143
 1572TIP3    H1 4680   3.214   1.644   0.687 -1.5908 -1.5827  0.8652
 1572TIP3    H2 4681   3.126   1.579   0.583  0.4815  0.7488 -2.5460
 1573TIP3   OH2 4682   1.047   2.428   1.872 -0.2842 -0.0579  0.1032
 1573TIP3    H1 4683   0.974   2.481   1.840 -1.8125 -2.4739 -0.6960
 1573TIP3    H2 4684   1.089   2.395   1.793  1.0183  0.4315  0.5751
 1574TIP3   OH2 4685   6.331   2.235   2.437  0.2749  0.1518  0.1424
 1574TIP3    H1 4686   6.409   2.217   2.490  0.6102  0.9093 -0.0834
 1574TIP3    H2 4687   6.285   2.151   2.433  2.1017 -0.8397 -1.4264
 1575TIP3   OH2 4688   3.497   1.743   3.763 -0.5269 -0.2834  0.4544
 1575TIP3    H1 4689   3.420   1.719   3.713 -0.3372 -1.0505  0.5262
 1575TIP3    H2 4690   3.507   1.674   3.828  0.4703 -0.4330  0.1646
 1576TIP3   OH2 4691   5.930   1.231   2.287 -0.0289  0.0782  0.3021
 1576TIP3    H1 4692   6.003   1.211   2.228 -0.4618 -0.1120 -0.1860
 1576TIP3    H2 4693   5.971   1.263   2.367  0.6082 -0.5951  0.2554
 1577TIP3   OH2 4694   0.587   3.227   3.268 -0.1158 -0.2266 -0.0977
 1577TIP3    H1 4695   0.673   3.256   3.236  0.2378  0.5503  1.4508
 1577TIP3    H2 4696   0.598   3.133   3.284 -0.0121 -0.4291 -1.2487
 1578TIP3   OH2 4697   2.297   3.728   0.730  0.0978 -0.0512 -0.4370
 1578TIP3    H1 4698   2.213   3.715   0.774 -0.1148  0.2601 -0.7509
 1578TIP3    H2 4699   2.361   3.723   0.800  0.0561 -2.8304 -0.5029
 1579TIP3   OH2 4700   2.187   5.505   2.310  0.5093  0.1177 -0.6609
 1579TIP3    H1 4701   2.113   5.481   2.253 -0.6807  1.6829  0.1411
 1579TIP3    H2 4702   2.204   5.597   2.288  0.8456  0.3728  0.6286
 1580TIP3   OH2 4703   5.087   3.869   2.571 -0.2216  0.7965 -0.4340
 1580TIP3    H1 4704   5.009   3.822   2.540 -1.2512  2.2524 -0.1607
 1580TIP3    H2 4705   5.067   3.892   2.662 -0.0008  2.2112 -0.7116
 1581TIP3   OH2 4706   0.339   6.347   3.630  0.1262  0.2283 -0.0003
 1581TIP3    H1 4707   0.387   6.301   3.561 -0.7333  0.0000 -0.4718
 1581TIP3    H2 4708   0.335   6.438   3.601  2.3225  0.7861  1.2077
 1582TIP3   OH2 4709   0.238   4.787   0.792 -0.0290  0.1690  0.6349
 1582TIP3    H1 4710   0.176   4.759   0.861 -1.1055  0.1448 -0.3123
 1582TIP3    H2 4711   0.224   4.881   0.786 -1.1825 -0.0558 -0.6916
 1583TIP3   OH2 4712   5.232   2.899   2.473  0.6700 -0.3088 -0.2161
 1583TIP3    H1 4713   5.244   2.808   2.444 -0.0232 -0.6996  0.6597
 1583TIP3    H2 4714   5.150   2.927   2.431 -0.1219 -0.7424  0.9746
 1584TIP3   OH2 4715   0.431   2.724   2.738 -0.0065 -0.6182 -0.9487
 1584TIP3    H1 4716   0.497   2.724   2.807 -2.9972  0.9570  2.2623
 1584TIP3    H2 4717   0.431   2.814   2.705 -0.8851 -0.4068 -0.4309
 1585TIP3   OH2 4718   4.325   4.788   5.624  0.5285 -0.2320  0.0894
 1585TIP3    H1 4719   4.394   4.849   5.652  1.0702 -0.4807 -0.6731
 1585TIP3    H2 4720   4.248   4.814   5.675  1.4534 -0.6164  1.7177
 1586TIP3   OH2 4721   6.619   0.995   4.720  0.4974  0.1178 -0.8322
 1586TIP3    H1 4722   6.663   1.075   4.692 -3.7324  2.9901 -0.2877
 1586TIP3    H2 4723   6.584   0.957   4.639 -0.5715  0.9827 -0.8041
 1587TIP3   OH2 4724   2.383   6.048   0.098  0.8226 -0.1085  0.7195
 1587TIP3    H1 4725   2.351   6.076   0.012 -2.1305  0.5223  1.9116
 1587TIP3    H2 4726   2.454   6.109   0.118  0.3299  0.8991 -0.4797
 1588TIP3   OH2 4727   0.388   6.427   3.289  0.3336 -0.7211 -0.0684
 1588TIP3    H1 4728   0.440   6.494   3.334  0.9417 -0.6136 -0.8992
 1588TIP3    H2 4729   0.415   6.345   3.328  0.6050 -0.5985  0.0028
 1589TIP3   OH2 4730   6.834   0.798   2.666 -0.4027 -0.0989  0.0515
 1589TIP3    H1 4731   6.929   0.804   2.679 -0.5085 -0.0250  0.8080
 1589TIP3    H2 4732   6.808   0.723   2.719 -0.8368  0.1640  0.2091
 1590TIP3   OH2 4733   4.974   5.421   1.354 -0.1649  0.0719  0.1378
 1590TIP3    H1 4734   5.034   5.495   1.343 -0.5511  0.4749  0.7090
 1590TIP3    H2 4735   5.029   5.351   1.390  0.5751 -0.4831 -1.9026
 1591TIP3   OH2 4736   7.005   4.202   5.435 -0.0108  0.3742 -0.0596
 1591TIP3    H1 4737   6.935   4.266   5.447  0.8052  1.5235 -1.2030
 1591TIP3    H2 4738   6.968   4.136   5.378 -0.0416  1.2199 -1.0405
 1592TIP3   OH2 4739   3.541   2.572   4.684  0.0490 -0.4683  0.2411
 1592TIP3    H1 4740   3.485   2.644   4.713  1.4675  0.4344  0.8068
 1592TIP3    H2 4741   3.585   2.543   4.763  0.5815 -1.0131 -0.2454
 1593TIP3   OH2 4742   2.923   0.596   4.536 -0.0522  0.0881 -0.3248
 1593TIP3    H1 4743   2.946   0.689   4.537 -0.7117  0.2486  0.5180
 1593TIP3    H2 4744   3.003   0.552   4.506 -0.0142  0.9867 -1.6518
 1594TIP3   OH2 4745   1.145   0.115   3.911 -0.2253 -0.4355  0.3751
 1594TIP3    H1 4746   1.124   0.107   3.818  2.5494 -2.0922 -0.2436
 1594TIP3    H2 4747   1.240   0.104   3.914 -0.1473  0.3358  3.3606
 1595TIP3   OH2 4748   5.299   1.307   3.233  0.0296  0.0187  0.3525
 1595TIP3    H1 4749   5.321   1.380   3.292 -0.6612  0.5029  0.0298
 1595TIP3    H2 4750   5.211   1.328   3.202 -0.7340 -1.6429  1.2888
 1596TIP3   OH2 4751   5.779   0.300   3.298 -0.5482  0.2836 -0.0843
 1596TIP3    H1 4752   5.837   0.362   3.342 -0.7264  0.6676 -0.3796
 1596TIP3    H2 4753   5.762   0.232   3.364 -1.2194  1.1063  0.6267
 1597TIP3   OH2 4754   6.145   2.191   0.720 -0.3152  0.1037  0.1782
 1597TIP3    H1 4755   6.189   2.269   0.753 -0.4098 -0.3108  1.3403
 1597TIP3    H2 4756   6.076   2.173   0.785 -0.2548 -0.9785 -0.0319
 1598TIP3   OH2 4757   2.808   0.895   3.512 -0.0695  0.1218  0.2532
 1598TIP3    H1 4758   2.724   0.852   3.527 -0.2348 -0.6542 -2.4717
 1598TIP3    H2 4759   2.800   0.980   3.557 -1.7920 -0.4510  1.1102
 1599TIP3   OH2 4760   6.867   5.453   3.299 -0.4402 -0.1535 -0.2071
 1599TIP3    H1 4761   6.842   5.406   3.379 -1.3978  1.4365  0.4657
 1599TIP3    H2 4762   6.784   5.469   3.254 -0.1504  0.9175 -0.3906
 1600TIP3   OH2 4763   0.406   6.799   0.599  0.7195  0.1868 -0.2246
 1600TIP3    H1 4764   0.337   6.841   0.649  1.2293  0.9299 -0.1297
 1600TIP3    H2 4765   0.449   6.740   0.661 -0.4748 -1.1027 -0.5479
 1601TIP3   OH2 4766   0.614   6.233   0.540 -0.4413 -0.1412 -0.1714
 1601TIP3    H1 4767   0.621   6.288   0.618  1.1868  1.2715 -1.2299
 1601TIP3    H2 4768   0.561   6.284   0.480  0.1502 -0.2056 -0.7626
 1602TIP3   OH2 4769   5.581   4.635   4.051  0.5739  0.4121  0.5784
 1602TIP3    H1 4770   5.571   4.597   4.138  1.1447 -0.5187  0.2470
 1602TIP3    H2 4771   5.502   4.609   4.004  2.2038 -3.0078 -0.5851
 1603TIP3   OH2 4772   4.902   4.019   4.986 -0.1621 -0.0928 -0.1681
 1603TIP3    H1 4773   4.991   3.984   4.973 -0.4618 -0.2591 -1.9428
 1603TIP3    H2 4774   4.862   4.017   4.900 -1.8895  0.0737  0.5903
 1604TIP3   OH2 4775   3.217   6.073   1.388 -0.4694 -0.1267  0.4619
 1604TIP3    H1 4776   3.178   6.120   1.462 -0.7237  0.2675  0.0842
 1604TIP3    H2 4777   3.190   6.124   1.311  0.5333 -0.0223  0.1679
 1605TIP3   OH2 4778   6.378   1.678   3.583 -0.2979  0.5400 -0.0426
 1605TIP3    H1 4779   6.422   1.675   3.498 -0.2410 -2.6844 -0.0310
 1605TIP3    H2 4780   6.428   1.741   3.634  1.4466  0.4366 -1.5121
 1606TIP3   OH2 4781   1.300   2.359   1.969  0.3609  0.1140 -0.3070
 1606TIP3    H1 4782   1.269   2.282   2.017 -2.6491  0.6203 -1.2235
 1606TIP3    H2 4783   1.220   2.408   1.948  2.0561  2.8685 -0.8556
 1607TIP3   OH2 4784   6.041   1.026   2.999 -0.1271 -0.1572 -0.2433
 1607TIP3    H1 4785   5.974   0.997   3.061 -0.7334 -0.9920 -1.2355
 1607TIP3    H2 4786   6.122   0.989   3.031 -0.5768 -1.3350 -0.3964
 1608TIP3   OH2 4787   4.431   5.572   1.999  0.6068  0.3155 -0.2749
 1608TIP3    H1 4788   4.423   5.657   1.957 -1.4385 -0.3842 -1.4878
 1608TIP3    H2 4789   4.367   5.575   2.070  1.8048  0.3782  0.8382
 1609TIP3   OH2 4790   1.036   1.949   3.761  0.3761 -0.1219 -0.2405
 1609TIP3    H1 4791   1.033   1.853   3.769 -0.2504 -0.0645  0.3024
 1609TIP3    H2 4792   0.948   1.973   3.732  0.1326  0.3840  0.8539
 1610TIP3   OH2 4793   0.020   4.133   0.714 -0.0110  0.4034  0.1972
 1610TIP3    H1 4794   0.018   4.215   0.763 -0.2191  0.7809 -0.4358
 1610TIP3    H2 4795   0.113   4.120   0.695  0.0006  0.6132  0.1021
 1611TIP3   OH2 4796   1.410   6.223   5.787 -0.1157  0.4920  0.1510
 1611TIP3    H1 4797   1.314   6.220   5.784 -0.1116  0.7980 -1.4660
 1611TIP3    H2 4798   1.431   6.247   5.877 -1.5855  0.9472  0.3988
 1612TIP3   OH2 4799   2.243   2.116   4.566  0.2553 -0.6002  0.4397
 1612TIP3    H1 4800   2.222   2.065   4.488  1.1502  1.1245 -0.9874
 1612TIP3    H2 4801   2.305   2.061   4.614  1.2220 -0.8761 -1.0635
 1613TIP3   OH2 4802   1.012   3.377   1.515 -0.1307  0.3791 -0.0422
 1613TIP3    H1 4803   0.964   3.459   1.526 -1.5499 -0.2317 -1.2191
 1613TIP3    H2 4804   0.971   3.337   1.438  0.7462 -1.2751  0.3211
 1614TIP3   OH2 4805   1.553   4.974   3.285 -0.1709 -0.1934 -0.1367
 1614TIP3    H1 4806   1.565   4.948   3.377 -0.5036 -2.2732 -0.6279
 1614TIP3    H2 4807   1.544   5.069   3.288  0.9496 -0.0893  1.8590
 1615TIP3   OH2 4808   3.251   6.350   4.728  0.1241 -0.1930  0.5688
 1615TIP3    H1 4809   3.300   6.381   4.652 -2.2244  2.1157 -0.1636
 1615TIP3    H2 4810   3.314   6.348   4.800  1.6745  0.7699 -0.7261
 1616TIP3   OH2 4811   5.383   1.360   2.275 -0.1782  0.0598 -0.2910
 1616TIP3    H1 4812   5.426   1.375   2.191 -0.8836  0.1986 -0.6366
 1616TIP3    H2 4813   5.445   1.391   2.341  0.6136 -0.5682 -0.7281
 1617TIP3   OH2 4814   3.500   4.501   1.412  0.2405 -0.2808 -0.1286
 1617TIP3    H1 4815   3.411   4.465   1.404 -0.1072  0.6934 -0.8438
 1617TIP3    H2 4816   3.557   4.428   1.387 -0.4498 -0.3918 -1.4786
 1618TIP3   OH2 4817   5.205   1.545   0.990 -0.0510 -0.7735  0.0665
 1618TIP3    H1 4818   5.127   1.589   0.958 -1.5458 -2.6268  0.9375
 1618TIP3    H2 4819   5.173   1.488   1.060  2.6187  1.1417  3.1302
 1619TIP3   OH2 4820   4.280   5.116   0.221 -0.0398  0.2021  0.0207
 1619TIP3    H1 4821   4.204   5.158   0.261 -1.3567 -1.5546 -0.5019
 1619TIP3    H2 4822   4.336   5.092   0.294 -1.5826 -1.4088  0.7244
 1620TIP3   OH2 4823   5.341   3.501   1.744  0.3686 -0.0463 -0.4500
 1620TIP3    H1 4824   5.370   3.589   1.720 -0.1653 -0.0027 -0.9621
 1620TIP3    H2 4825   5.318   3.507   1.837  1.9124 -0.0718 -0.0266
 1621TIP3   OH2 4826   3.474   5.631   2.372 -0.3722  0.1354  0.3635
 1621TIP3    H1 4827   3.476   5.609   2.279 -2.4322  2.5350 -0.3743
 1621TIP3    H2 4828   3.389   5.598   2.403 -0.6377  1.1795  0.8185
 1622TIP3   OH2 4829   2.864   5.199   4.587  0.0108  0.7124 -0.3025
 1622TIP3    H1 4830   2.828   5.147   4.515 -1.7072 -0.4416  1.3228
 1622TIP3    H2 4831   2.950   5.161   4.603  0.0016  0.3301 -1.0816
 1623TIP3   OH2 4832   4.059   2.675   3.665 -0.0506 -0.2286 -0.9429
 1623TIP3    H1 4833   3.999   2.639   3.600 -0.3303  0.1676 -0.9097
 1623TIP3    H2 4834   4.089   2.757   3.627  0.3677 -0.3607 -0.8988
 1624TIP3   OH2 4835   2.048   3.749   0.855  0.2305 -0.3121 -0.1689
 1624TIP3    H1 4836   2.075   3.677   0.912 -2.0177 -1.4309 -0.3821
 1624TIP3    H2 4837   1.973   3.788   0.900 -3.0358 -2.5702 -3.0606
 1625TIP3   OH2 4838   4.876   0.699   3.944  0.6874 -0.2324  0.1782
 1625TIP3    H1 4839   4.918   0.656   3.870  0.0090 -1.5371  0.5243
 1625TIP3    H2 4840   4.945   0.708   4.010  1.2276  0.6999 -0.4900
 1626TIP3   OH2 4841   5.786   6.556   1.793 -0.1322 -0.8310 -0.0076
 1626TIP3    H1 4842   5.697   6.579   1.820  0.5041 -1.3545  2.9397
 1626TIP3    H2 4843   5.781   6.465   1.765 -0.5075 -0.8833  0.2309
 1627TIP3   OH2 4844   6.749   0.648   1.468  0.4759  0.2073  0.0329
 1627TIP3    H1 4845   6.833   0.624   1.506  1.5767  1.9905 -1.1163
 1627TIP3    H2 4846   6.695   0.673   1.543  0.8054 -1.3276  0.8195
 1628TIP3   OH2 4847   0.967   1.832   2.614  0.2612  0.3491  0.5464
 1628TIP3    H1 4848   1.052   1.788   2.616  1.1194  1.8661 -0.6843
 1628TIP3    H2 4849   0.956   1.858   2.522 -0.3555  2.3935  1.1500
 1629TIP3   OH2 4850   2.369   5.010   1.658  0.5666 -0.0543  0.0452
 1629TIP3    H1 4851   2.349   5.083   1.716  0.7274 -0.4535  0.6067
 1629TIP3    H2 4852   2.374   4.934   1.715  0.3276 -0.5221 -0.5459
 1630TIP3   OH2 4853   0.594   0.876   5.748 -0.1021  0.0864 -0.4310
 1630TIP3    H1 4854   0.525   0.854   5.686 -1.0410  2.7074 -0.4288
 1630TIP3    H2 4855   0.648   0.941   5.702  0.2081  0.7689  0.8417
 1631TIP3   OH2 4856   1.904   3.127   4.730  0.4180 -0.1491  0.3198
 1631TIP3    H1 4857   1.862   3.212   4.735 -0.1714 -0.4034 -0.2640
 1631TIP3    H2 4858   1.872   3.088   4.649  1.7810 -0.3555 -0.1561
 1632TIP3   OH2 4859   0.394   3.731   0.624 -0.1690 -0.1988 -0.7834
 1632TIP3    H1 4860   0.453   3.671   0.577 -0.4692 -0.3586 -0.9621
 1632TIP3    H2 4861   0.452   3.790   0.671  0.1316 -0.5347 -0.7312
 1633TIP3   OH2 4862   2.164   6.198   1.508  0.1576 -0.3527  0.0819
 1633TIP3    H1 4863   2.111   6.233   1.436  0.2217  0.2732  0.3368
 1633TIP3    H2 4864   2.222   6.270   1.533  1.1532 -1.0268 -0.2061
 1634TIP3   OH2 4865   5.690   6.787   4.849 -0.1007  0.0679  0.1464
 1634TIP3    H1 4866   5.762   6.738   4.810  1.0698  1.0745  0.9577
 1634TIP3    H2 4867   5.705   6.779   4.944 -1.2102  0.0851  0.3377
 1635TIP3   OH2 4868   3.240   2.787   5.099  0.1653 -0.5074 -0.3738
 1635TIP3    H1 4869   3.218   2.739   5.178  2.4900  0.9061  1.2482
 1635TIP3    H2 4870   3.188   2.745   5.030 -2.1533 -1.6368  1.8849
 1636TIP3   OH2 4871   6.012   4.966   3.547  0.4652  0.2606 -0.0078
 1636TIP3    H1 4872   6.006   4.885   3.495  2.9227  0.0207 -0.0625
 1636TIP3    H2 4873   6.044   5.032   3.485  1.3087  0.5111  0.6647
 1637TIP3   OH2 4874   1.034   3.123   2.116 -0.0023 -0.2739  0.0859
 1637TIP3    H1 4875   0.988   3.173   2.183 -0.2688 -0.3901 -0.0090
 1637TIP3    H2 4876   1.126   3.145   2.129  0.1951 -1.8324  1.7976
 1638TIP3   OH2 4877   0.771   6.458   3.678  0.2960  0.1109 -0.6129
 1638TIP3    H1 4878   0.718   6.430   3.752  0.7945 -1.0779 -0.6700
 1638TIP3    H2 4879   0.801   6.546   3.701 -1.0306  0.4825 -0.2388
 1639TIP3   OH2 4880   3.027   1.907   4.242 -0.5850 -0.3422  0.2785
 1639TIP3    H1 4881   3.033   2.003   4.250 -0.5640 -0.3351  0.1717
 1639TIP3    H2 4882   3.108   1.881   4.199  0.4038 -0.6354  2.1885
 1640TIP3   OH2 4883   0.412   2.914   0.294 -0.2622 -0.0078 -0.0782
 1640TIP3    H1 4884   0.332   2.877   0.255  0.1058 -0.8510 -0.0459
 1640TIP3    H2 4885   0.380   2.969   0.366 -0.9323  1.2448 -1.2708
 1641TIP3   OH2 4886   4.407   3.736   1.623 -0.4551 -0.2706  0.3890
 1641TIP3    H1 4887   4.371   3.649   1.604 -1.0508 -0.1018  0.7074
 1641TIP3    H2 4888   4.424   3.734   1.718 -2.4786  0.6480  0.8427
 1642TIP3   OH2 4889   7.172   5.263   3.512  0.4785  0.5889  0.2369
 1642TIP3    H1 4890   7.142   5.199   3.447 -1.0063  0.3065  1.1285
 1642TIP3    H2 4891   7.112   5.250   3.586  1.8110  1.2344  1.4595
 1643TIP3   OH2 4892   2.466   3.859   2.487 -0.0170  0.4107 -0.0373
 1643TIP3    H1 4893   2.533   3.924   2.510  1.3190 -1.6314  2.3714
 1643TIP3    H2 4894   2.514   3.777   2.479 -2.1545 -1.1202  1.6342
 1644TIP3   OH2 4895   4.327   0.702   0.118  0.1551  0.0949 -0.4930
 1644TIP3    H1 4896   4.331   0.715   0.213  0.5869 -3.7484  0.1914
 1644TIP3    H2 4897   4.412   0.731   0.086  0.3375  0.6196  0.4350
 1645TIP3   OH2 4898   6.239   2.380   0.918  0.6106  0.8012  0.3254
 1645TIP3    H1 4899   6.275   2.300   0.955  0.6240  0.1058 -1.1205
 1645TIP3    H2 4900   6.306   2.446   0.933  1.5400  0.0351 -0.3500
 1646TIP3   OH2 4901   1.256   1.089   4.988  0.1544  0.4104 -0.0823
 1646TIP3    H1 4902   1.231   1.000   4.965 -2.1194  0.7972  0.6133
 1646TIP3    H2 4903   1.319   1.079   5.060 -1.2283 -0.6619  1.0470
 1647TIP3   OH2 4904   4.032   4.217   3.163 -0.0253 -0.3416  0.2709
 1647TIP3    H1 4905   4.015   4.260   3.247 -2.8038 -1.5670  0.4659
 1647TIP3    H2 4906   3.964   4.251   3.105 -1.2612 -3.0729 -0.0286
 1648TIP3   OH2 4907   2.000   6.038   0.396 -0.0599 -0.4063 -0.4161
 1648TIP3    H1 4908   2.067   6.078   0.340  0.2786 -0.9674 -0.4101
 1648TIP3    H2 4909   1.923   6.094   0.384  0.9128  1.3806  0.9916
 1649TIP3   OH2 4910   0.867   5.598   3.302 -0.3476  0.6699  0.0505
 1649TIP3    H1 4911   0.789   5.649   3.277 -0.8385 -0.1716 -0.2000
 1649TIP3    H2 4912   0.940   5.656   3.285 -0.8303  0.9563 -1.1621
 1650TIP3   OH2 4913   5.581   2.481   1.879 -0.2493 -0.2147  0.2824
 1650TIP3    H1 4914   5.546   2.392   1.878 -0.9537  0.0017 -2.1707
 1650TIP3    H2 4915   5.505   2.538   1.866  0.4031  0.6096 -0.0719
 1651TIP3   OH2 4916   0.484   2.531   2.028 -0.6485 -0.8972 -0.0608
 1651TIP3    H1 4917   0.545   2.600   2.054 -1.0413 -0.0499 -1.3025
 1651TIP3    H2 4918   0.484   2.470   2.102  0.6714 -0.2261  0.5261
 1652TIP3   OH2 4919   1.445   4.143   0.440 -0.3153 -0.3112  0.3155
 1652TIP3    H1 4920   1.449   4.156   0.534 -0.7748 -0.8180  0.4108
 1652TIP3    H2 4921   1.354   4.117   0.423 -0.4324  0.4775 -0.3602
 1653TIP3   OH2 4922   3.755   1.576   1.269 -0.4270 -0.1568  0.0659
 1653TIP3    H1 4923   3.798   1.643   1.216 -1.3142  0.3241 -0.0684
 1653TIP3    H2 4924   3.816   1.559   1.341 -0.3267  1.0172  0.2681
 1654TIP3   OH2 4925   1.006   6.261   1.008 -0.0650 -0.1382 -0.0176
 1654TIP3    H1 4926   1.069   6.274   1.079  1.5491 -0.4010 -1.3511
 1654TIP3    H2 4927   0.956   6.184   1.034 -2.1123  1.8761  2.5875
 1655TIP3   OH2 4928   0.826   1.069   3.357  0.3000 -0.4533  0.2943
 1655TIP3    H1 4929   0.811   1.003   3.290 -0.5367 -0.1976  0.2248
 1655TIP3    H2 4930   0.824   1.020   3.440  0.4555 -0.6288  0.1959
 1656TIP3   OH2 4931   1.267   3.752   4.811 -0.4564 -0.2840  0.1563
 1656TIP3    H1 4932   1.348   3.800   4.828  0.3472 -1.4045 -0.3614
 1656TIP3    H2 4933   1.206   3.819   4.781 -0.6831  1.0780  3.2661
 1657TIP3   OH2 4934   2.113   1.247   5.498 -0.1551 -0.1232 -0.4627
 1657TIP3    H1 4935   2.095   1.277   5.587  0.3884  1.6151 -0.9201
 1657TIP3    H2 4936   2.201   1.279   5.479  0.3950 -1.8740 -1.0726
 1658TIP3   OH2 4937   6.384   0.208   1.484  0.0022  0.0249  0.1443
 1658TIP3    H1 4938   6.365   0.295   1.519 -0.7121  0.8930 -2.2522
 1658TIP3    H2 4939   6.479   0.206   1.476 -0.0777  1.5945 -2.0452
 1659TIP3   OH2 4940   6.928   0.456   5.222  0.3786 -0.5354 -0.5104
 1659TIP3    H1 4941   6.962   0.540   5.251  2.6428 -1.3312 -0.6647
 1659TIP3    H2 4942   6.878   0.424   5.297 -0.1365  0.7307 -0.2913
 1660TIP3   OH2 4943   4.630   1.246   2.582  0.6848  0.0304  0.6767
 1660TIP3    H1 4944   4.667   1.200   2.657  2.7155  0.2968 -0.0975
 1660TIP3    H2 4945   4.672   1.332   2.583  0.4046  0.2049 -0.4938
 1661TIP3   OH2 4946   6.592   0.508   5.805  0.2056  0.3027  0.2139
 1661TIP3    H1 4947   6.675   0.539   5.769  1.7632 -3.0084  0.4852
 1661TIP3    H2 4948   6.528   0.528   5.737  1.8816 -0.0421 -1.5897
 1662TIP3   OH2 4949   0.823   1.870   4.734  0.3032 -0.0946  0.9091
 1662TIP3    H1 4950   0.780   1.807   4.793  0.7099 -1.4324 -0.1809
 1662TIP3    H2 4951   0.915   1.867   4.759  0.3640 -0.1188  0.6748
 1663TIP3   OH2 4952   5.102   0.410   1.024 -0.7017 -0.4222 -1.0873
 1663TIP3    H1 4953   5.106   0.316   1.004 -2.2425 -0.6514 -0.5176
 1663TIP3    H2 4954   5.128   0.416   1.116 -0.0895 -0.2099 -1.2688
 1664TIP3   OH2 4955   6.148   3.727   2.067 -0.3037  0.4069  0.4277
 1664TIP3    H1 4956   6.231   3.752   2.106  0.4796  0.0773 -0.9347
 1664TIP3    H2 4957   6.155   3.632   2.054 -0.1757  0.6116 -1.2266
 1665TIP3   OH2 4958   3.912   1.616   2.784  0.4792  0.4241  0.0806
 1665TIP3    H1 4959   3.941   1.577   2.866 -0.8306  0.8748  0.7957
 1665TIP3    H2 4960   3.824   1.579   2.770  1.5259 -1.4116 -2.3169
 1666TIP3   OH2 4961   7.178   6.529   1.492  0.1312 -0.0403 -0.1873
 1666TIP3    H1 4962   7.225   6.474   1.554 -0.8917 -1.0993 -0.3283
 1666TIP3    H2 4963   7.094   6.485   1.477 -0.4323  1.1714 -0.8642
 1667TIP3   OH2 4964   1.085   0.416   2.476  0.7141  0.1132  0.2792
 1667TIP3    H1 4965   1.048   0.335   2.440 -1.0394  0.9002  0.2140
 1667TIP3    H2 4966   1.100   0.396   2.569 -0.4485 -0.0725  0.4457
 1668TIP3   OH2 4967   5.554   4.788   3.169 -0.2369 -0.4034 -0.1376
 1668TIP3    H1 4968   5.546   4.813   3.261 -0.8568  0.5190 -0.4311
 1668TIP3    H2 4969   5.471   4.814   3.129 -0.1237 -1.1397 -0.8869
 1669TIP3   OH2 4970   2.786   5.163   4.316  0.1415  0.2738 -0.2347
 1669TIP3    H1 4971   2.875   5.164   4.279  0.1599  0.1044 -0.1946
 1669TIP3    H2 4972   2.759   5.255   4.315 -0.0017  0.2307 -1.0149
 1670TIP3   OH2 4973   2.174   4.679   2.040  0.0423 -0.5631 -0.3820
 1670TIP3    H1 4974   2.151   4.590   2.067 -0.4768 -0.3883 -0.2385
 1670TIP3    H2 4975   2.270   4.678   2.035  0.1893 -0.6147  1.4770
 1671TIP3   OH2 4976   3.033   0.933   0.251 -0.5054 -0.3553 -0.0057
 1671TIP3    H1 4977   2.997   0.878   0.181 -1.9753 -0.0919  0.5109
 1671TIP3    H2 4978   3.124   0.946   0.227 -0.9428 -0.3997 -1.7936
 1672TIP3   OH2 4979   2.983   2.775   4.096 -0.2535  0.9673 -0.8671
 1672TIP3    H1 4980   2.893   2.808   4.102 -0.2401  1.4619 -2.9672
 1672TIP3    H2 4981   2.975   2.693   4.048  0.5063  1.5051 -1.9476
 1673TIP3   OH2 4982   1.833   4.657   0.074 -0.5040 -0.1230 -0.5957
 1673TIP3    H1 4983   1.748   4.619   0.098 -0.9482  0.0786 -1.7933
 1673TIP3    H2 4984   1.887   4.582   0.050 -0.1608 -0.2971  0.6389
 1674TIP3   OH2 4985   2.506   5.617   4.776 -0.2624 -0.6319  0.1897
 1674TIP3    H1 4986   2.494   5.710   4.799  0.0160 -0.6814  0.5464
 1674TIP3    H2 4987   2.417   5.582   4.772 -0.4199 -0.1703 -0.7289
 1675TIP3   OH2 4988   1.067   0.732   4.164  0.0201  0.3824  0.4361
 1675TIP3    H1 4989   1.072   0.676   4.241 -1.0088  2.1419  1.8541
 1675TIP3    H2 4990   1.112   0.813   4.190 -1.3622  1.4559 -0.3762
 1676TIP3   OH2 4991   5.337   1.527   0.523 -0.3055  0.0599  0.2663
 1676TIP3    H1 4992   5.290   1.490   0.449 -1.4035 -1.3554  1.5958
 1676TIP3    H2 4993   5.389   1.454   0.557  0.4605  0.7839  0.6689
 1677TIP3   OH2 4994   1.278   2.434   1.417 -0.0289 -0.1717 -0.7947
 1677TIP3    H1 4995   1.204   2.426   1.477  0.4554  0.3801 -0.1176
 1677TIP3    H2 4996   1.243   2.405   1.333 -1.2538  0.8217 -0.6588
 1678TIP3   OH2 4997   0.691   1.349   4.252 -0.8373 -0.3088  0.3278
 1678TIP3    H1 4998   0.637   1.405   4.196 -0.0081 -0.5134 -0.7314
 1678TIP3    H2 4999   0.701   1.268   4.202 -1.6890 -1.2786  1.6607
 1679TIP3   OH2 5000   0.345   1.822   3.493  0.0667  0.0960 -0.2146
 1679TIP3    H1 5001   0.256   1.814   3.457  0.7503 -2.9938 -1.5993
 1679TIP3    H2 5002   0.334   1.812   3.587 -1.0871 -0.1598 -0.3612
 1680TIP3   OH2 5003   1.375   3.738   2.530 -0.0562 -0.3581  0.6185
 1680TIP3    H1 5004   1.383   3.700   2.618 -0.3241  1.2857  1.3880
 1680TIP3    H2 5005   1.393   3.831   2.542  0.0415 -0.1232 -1.1071
 1681TIP3   OH2 5006   1.476   1.170   1.311 -0.2225 -0.0663  0.0393
 1681TIP3    H1 5007   1.419   1.131   1.377  1.3805  0.2015  1.6551
 1681TIP3    H2 5008   1.554   1.114   1.311  0.8830  1.4256  0.2671
 1682TIP3   OH2 5009   6.331   4.702   2.290  0.0561  0.2694  0.3394
 1682TIP3    H1 5010   6.422   4.729   2.304 -0.8453  2.6454  2.3814
 1682TIP3    H2 5011   6.285   4.783   2.268 -1.7717 -0.6639  0.5029
 1683TIP3   OH2 5012   1.073   4.103   2.974  0.2892  0.1044 -0.1010
 1683TIP3    H1 5013   1.090   4.118   2.881  0.3163  0.1246 -0.0929
 1683TIP3    H2 5014   1.102   4.184   3.017 -2.1712  1.1822 -0.3301
 1684TIP3   OH2 5015   3.426   6.837   5.599 -0.0762 -0.5965 -0.1648
 1684TIP3    H1 5016   3.504   6.791   5.571 -0.8915 -1.6628 -0.7543
 1684TIP3    H2 5017   3.367   6.769   5.632  0.0570  0.4082  2.3375
 1685TIP3   OH2 5018   3.691   2.987   0.897  0.7531 -0.2488  0.3796
 1685TIP3    H1 5019   3.728   2.992   0.808  0.3263  0.9838  0.2493
 1685TIP3    H2 5020   3.661   2.897   0.905  0.3068 -0.2425 -0.9383
 1686TIP3   OH2 5021   1.876   6.204   1.361  0.1459 -0.2643 -0.2839
 1686TIP3    H1 5022   1.933   6.272   1.325 -1.2312  0.0273 -2.0905
 1686TIP3    H2 5023   1.852   6.235   1.448 -0.1475  1.4233 -0.9294
 1687TIP3   OH2 5024   5.269   4.502   1.752 -0.1444  0.0438 -0.4175
 1687TIP3    H1 5025   5.241   4.434   1.812  0.6734  0.7974  0.8751
 1687TIP3    H2 5026   5.362   4.516   1.773  0.3054 -0.0246 -2.2174
 1688TIP3   OH2 5027   2.689   5.858   0.628  0.6946  0.1156  0.5478
 1688TIP3    H1 5028   2.740   5.918   0.682  0.3417  0.5116  0.4476
 1688TIP3    H2 5029   2.751   5.825   0.563  0.9785  0.0842  0.8300
 1689TIP3   OH2 5030   3.553   3.631   1.740 -0.2393 -0.2091 -0.6158
 1689TIP3    H1 5031   3.525   3.711   1.694  1.4132  0.0367 -1.2556
 1689TIP3    H2 5032   3.623   3.596   1.685  0.4795 -0.9586  0.7585
 1690TIP3   OH2 5033   2.274   2.520   2.305 -0.2699  0.0332  0.1814
 1690TIP3    H1 5034   2.316   2.454   2.361  1.0638  0.2401 -0.5248
 1690TIP3    H2 5035   2.265   2.477   2.220 -0.2723  0.4486 -0.0304
 1691TIP3   OH2 5036   4.458   4.529   4.953 -0.6578 -0.3765 -0.8240
 1691TIP3    H1 5037   4.394   4.565   4.892  0.6786  1.6529 -1.1409
 1691TIP3    H2 5038   4.532   4.504   4.898 -0.1790 -0.2764 -0.2350
 1692TIP3   OH2 5039   6.163   5.316   0.271  0.4920 -0.1490  0.8322
 1692TIP3    H1 5040   6.189   5.241   0.326  1.3319 -0.6903 -0.2706
 1692TIP3    H2 5041   6.076   5.339   0.303  0.3211 -1.4401  1.3793
 1693TIP3   OH2 5042   0.833   1.126   2.696  0.2313 -0.1168 -0.2777
 1693TIP3    H1 5043   0.826   1.205   2.749 -0.9151 -1.3214  1.4595
 1693TIP3    H2 5044   0.925   1.100   2.703  0.2729  0.2047  0.4563
 1694TIP3   OH2 5045   3.404   5.602   3.570 -0.3574  0.4248  0.6964
 1694TIP3    H1 5046   3.403   5.609   3.665  1.9766 -1.2715  0.9220
 1694TIP3    H2 5047   3.489   5.636   3.544 -0.0252 -1.2145 -0.5421
 1695TIP3   OH2 5048   5.625   6.567   4.412  0.1455  0.1779  0.1868
 1695TIP3    H1 5049   5.554   6.503   4.417 -0.8842  1.2997  0.4059
 1695TIP3    H2 5050   5.582   6.650   4.394  1.6256  0.5118 -2.2593
 1696TIP3   OH2 5051   6.250   0.366   3.989 -0.2780 -0.7036 -0.2650
 1696TIP3    H1 5052   6.296   0.416   4.057 -0.0911  0.8088 -1.4491
 1696TIP3    H2 5053   6.315   0.304   3.957 -0.0246 -0.6808  0.1919
 1697TIP3   OH2 5054   2.523   3.759   0.890 -0.1947 -0.1759  0.2413
 1697TIP3    H1 5055   2.535   3.683   0.947  0.5515 -1.0389 -1.0105
 1697TIP3    H2 5056   2.565   3.831   0.937 -1.4307 -0.3734  1.7171
 1698TIP3   OH2 5057   4.591   2.279   1.560 -0.2707 -0.1414  0.5280
 1698TIP3    H1 5058   4.501   2.308   1.576  0.2486  2.1194 -0.2610
 1698TIP3    H2 5059   4.634   2.286   1.645 -0.6311 -0.4894  0.7446
 1699TIP3   OH2 5060   4.817   0.411   1.644 -0.6146 -1.0103 -0.3259
 1699TIP3    H1 5061   4.869   0.490   1.659 -1.1713 -0.5392 -0.8379
 1699TIP3    H2 5062   4.754   0.436   1.576 -1.7432 -1.4598  0.5240
 1700TIP3   OH2 5063   7.170   5.237   4.280  0.3646 -0.1694  0.1802
 1700TIP3    H1 5064   7.244   5.297   4.281  0.8774 -0.7354  2.3127
 1700TIP3    H2 5065   7.202   5.158   4.324 -1.1016 -0.9577 -0.0698
 1701TIP3   OH2 5066   2.751   3.477   0.043  0.3431  0.1168 -0.1462
 1701TIP3    H1 5067   2.819   3.434  -0.009  0.0071 -0.2241 -0.3111
 1701TIP3    H2 5068   2.677   3.487  -0.018  0.3139  0.6627 -0.0251
 1702TIP3   OH2 5069   5.734   3.926   1.340  0.6670 -0.2124  0.1034
 1702TIP3    H1 5070   5.650   3.950   1.300 -0.3460 -1.2080  1.5559
 1702TIP3    H2 5071   5.754   3.999   1.398  1.8696  0.9782 -1.6987
 1703TIP3   OH2 5072   4.684   0.341   2.153  0.1378  0.4797  0.2217
 1703TIP3    H1 5073   4.648   0.424   2.120  0.2793  0.8942  1.0829
 1703TIP3    H2 5074   4.777   0.359   2.167  0.1990  0.1288  0.2739
 1704TIP3   OH2 5075   1.942   6.353   0.726  0.1805  0.2535 -0.2492
 1704TIP3    H1 5076   1.979   6.280   0.775  0.6030  0.5580 -0.1057
 1704TIP3    H2 5077   1.978   6.343   0.638  1.8383  1.3765  0.2431
 1705TIP3   OH2 5078   6.720   5.839   1.115  0.1713 -0.2837  0.1222
 1705TIP3    H1 5079   6.643   5.820   1.169  0.4738  0.3098  0.7909
 1705TIP3    H2 5080   6.721   5.934   1.109  0.8898 -0.2857  0.1806
 1706TIP3   OH2 5081   2.886   2.818   1.619  0.3891  0.0446  0.5228
 1706TIP3    H1 5082   2.865   2.730   1.588  2.3939 -0.0721 -0.7052
 1706TIP3    H2 5083   2.981   2.827   1.605  0.0869  2.8125 -0.6067
 1707TIP3   OH2 5084   4.778   2.205   4.346 -0.3145  0.2687  0.2424
 1707TIP3    H1 5085   4.720   2.140   4.305  0.3256  1.3920 -2.7389
 1707TIP3    H2 5086   4.863   2.162   4.348 -0.3616  0.1854  0.5070
 1708TIP3   OH2 5087   7.139   0.298   2.637 -0.2810 -0.2722  0.2884
 1708TIP3    H1 5088   7.206   0.261   2.693 -0.3861 -0.4333  0.3097
 1708TIP3    H2 5089   7.111   0.377   2.682 -1.2482 -1.0488  1.1114
 1709TIP3   OH2 5090   1.967   0.627   4.288  0.4647  0.6519 -0.3271
 1709TIP3    H1 5091   1.984   0.666   4.203  0.8407  1.0276 -0.0833
 1709TIP3    H2 5092   2.036   0.561   4.299  1.1164  1.4042  0.1801
 1710TIP3   OH2 5093   3.710   2.926   4.858 -0.0724 -0.4493 -0.2193
 1710TIP3    H1 5094   3.773   2.980   4.907  0.9588 -0.7689 -1.1528
 1710TIP3    H2 5095   3.725   2.837   4.889 -1.9177 -0.2430  1.4708
 1711TIP3   OH2 5096   7.025   1.716   4.736 -0.2636  0.3991  0.4967
 1711TIP3    H1 5097   7.011   1.771   4.659  2.8806 -0.1403 -0.5943
 1711TIP3    H2 5098   6.958   1.647   4.728 -0.0930  0.4234 -1.7234
 1712TIP3   OH2 5099   5.599   0.938   3.943 -0.3014  0.3834  0.2659
 1712TIP3    H1 5100   5.539   0.977   4.006  0.7329  0.0445  1.4849
 1712TIP3    H2 5101   5.669   0.900   3.995 -0.3961 -1.6567 -0.9607
 1713TIP3   OH2 5102   0.548   0.593   3.101 -0.4970  0.1279 -0.0221
 1713TIP3    H1 5103   0.503   0.626   3.179 -0.8743  1.2438 -0.6841
 1713TIP3    H2 5104   0.600   0.519   3.133 -1.7361 -0.3423  1.0228
 1714TIP3   OH2 5105   5.805   1.333   2.562  0.1550 -0.7118 -0.3138
 1714TIP3    H1 5106   5.834   1.244   2.540  1.6056 -0.2461 -0.3859
 1714TIP3    H2 5107   5.813   1.338   2.657  2.3970  0.0591 -0.4813
 1715TIP3   OH2 5108   0.457   4.712   0.661  0.3823  0.0399 -0.2226
 1715TIP3    H1 5109   0.375   4.726   0.709  0.6786  2.9107 -0.3560
 1715TIP3    H2 5110   0.514   4.667   0.723 -0.3988  0.5721  0.9137
 1716TIP3   OH2 5111   7.035   3.157   3.334 -0.9937  0.3368  0.2693
 1716TIP3    H1 5112   7.052   3.074   3.379  1.2042  0.5071 -0.1531
 1716TIP3    H2 5113   6.939   3.161   3.327 -1.1570 -2.4795 -0.2772
 1717TIP3   OH2 5114   3.602   6.626   1.799  0.3326 -0.7615 -0.0615
 1717TIP3    H1 5115   3.596   6.681   1.877  0.7646 -1.3494  0.3908
 1717TIP3    H2 5116   3.513   6.627   1.763  0.1794 -0.3195  0.3118
 1718TIP3   OH2 5117   3.772   0.933   2.496  0.4550  0.0305 -0.5048
 1718TIP3    H1 5118   3.758   0.967   2.585  1.9830 -1.2506  0.2674
 1718TIP3    H2 5119   3.683   0.918   2.462 -0.2102  2.4035  0.0154
 1719TIP3   OH2 5120   5.390   1.042   3.498  0.0515 -0.0919 -0.0757
 1719TIP3    H1 5121   5.307   0.997   3.511  0.0132 -0.1511 -0.5076
 1719TIP3    H2 5122   5.411   1.028   3.406  0.3557  0.2362 -0.0609
 1720TIP3   OH2 5123   0.054   3.152   0.795  0.4361  0.4667 -0.2886
 1720TIP3    H1 5124   0.083   3.117   0.879 -1.1662  0.1406  0.1495
 1720TIP3    H2 5125   0.087   3.242   0.795  0.2853  0.5392  0.7839
 1721TIP3   OH2 5126   5.688   1.304   5.822  0.7743 -0.0828  0.3217
 1721TIP3    H1 5127   5.677   1.396   5.846 -0.5170 -0.1050 -0.1093
 1721TIP3    H2 5128   5.769   1.302   5.771 -0.3974  1.2567 -1.7177
 1722TIP3   OH2 5129   2.944   3.292   5.125 -0.3311 -0.3414  0.8278
 1722TIP3    H1 5130   2.871   3.237   5.155  0.2290 -0.2560  2.4267
 1722TIP3    H2 5131   3.008   3.231   5.089 -1.2750 -0.3956 -0.8862
 1723TIP3   OH2 5132   1.515   2.486   5.583  0.1639  0.3327 -0.0875
 1723TIP3    H1 5133   1.453   2.558   5.588 -0.0216  0.1630  0.1364
 1723TIP3    H2 5134   1.465   2.410   5.613  0.6176  0.2871  0.5949
 1724TIP3   OH2 5135   2.056   4.766   1.582 -0.3166  0.1204 -0.0571
 1724TIP3    H1 5136   2.122   4.813   1.532  1.0877 -1.8322 -0.1569
 1724TIP3    H2 5137   1.976   4.772   1.529  0.4577  0.2821 -1.2400
 1725TIP3   OH2 5138   1.434   5.914   2.046  0.8683  0.2978  0.0384
 1725TIP3    H1 5139   1.509   5.960   2.008  2.1620 -1.9275 -0.2764
 1725TIP3    H2 5140   1.469   5.830   2.073 -1.3988 -0.5583  0.5100
 1726TIP3   OH2 5141   1.330   3.683   5.432  0.2224 -0.0045 -0.4996
 1726TIP3    H1 5142   1.279   3.734   5.495 -0.6625 -0.9043 -0.4677
 1726TIP3    H2 5143   1.333   3.595   5.469  0.5461 -0.3115 -1.2338
 1727TIP3   OH2 5144   5.271   2.123   1.593  0.3386 -0.2718 -0.1442
 1727TIP3    H1 5145   5.279   2.094   1.684 -0.3362  2.5116  0.9084
 1727TIP3    H2 5146   5.257   2.217   1.599  0.8045  0.1022 -3.1945
 1728TIP3   OH2 5147   1.600   0.851   4.550 -0.3192  0.1926  0.2508
 1728TIP3    H1 5148   1.527   0.799   4.584  0.0015 -0.8678 -0.6092
 1728TIP3    H2 5149   1.673   0.789   4.545  0.4570  1.0679  0.4673
 1729TIP3   OH2 5150   2.199   1.640   4.632  0.3955 -0.1020 -0.5709
 1729TIP3    H1 5151   2.269   1.580   4.605  1.2425 -0.2232  1.6755
 1729TIP3    H2 5152   2.127   1.582   4.658  0.5486 -0.0958 -0.1222
 1730TIP3   OH2 5153   6.342   6.342   2.909  0.4397  0.0920 -0.1689
 1730TIP3    H1 5154   6.247   6.329   2.916  0.3354  0.4244 -0.9061
 1730TIP3    H2 5155   6.371   6.269   2.854  0.1925  1.5600 -2.3321
 1731TIP3   OH2 5156   2.118   6.263   2.967  0.7266  0.0344 -0.0447
 1731TIP3    H1 5157   2.149   6.198   2.904 -1.5166 -1.4579  0.2652
 1731TIP3    H2 5158   2.077   6.331   2.913 -1.3689 -1.3376 -0.2793
 1732TIP3   OH2 5159   7.065   6.336   5.802 -0.6008  0.8574  0.1985
 1732TIP3    H1 5160   7.090   6.266   5.743 -1.5776  0.1118  0.6311
 1732TIP3    H2 5161   7.075   6.416   5.751  1.1986  0.4881 -0.0872
 1733TIP3   OH2 5162   3.495   4.547   3.425 -0.1368 -0.1400 -0.6755
 1733TIP3    H1 5163   3.475   4.533   3.518 -1.6425 -1.6371 -1.1746
 1733TIP3    H2 5164   3.569   4.608   3.425  0.3688 -0.6779  1.5144
 1734TIP3   OH2 5165   4.437   2.065   4.222 -0.1529 -1.2153  0.2530
 1734TIP3    H1 5166   4.530   2.046   4.220  0.1496 -0.0909  1.9227
 1734TIP3    H2 5167   4.397   1.994   4.171  1.6326 -1.3872 -1.0224
 1735TIP3   OH2 5168   1.888   5.531   1.191  0.4332  0.0001  0.2753
 1735TIP3    H1 5169   1.918   5.555   1.279  1.4080  1.2073 -0.3423
 1735TIP3    H2 5170   1.888   5.614   1.143  0.3996 -0.7165 -0.9973
 1736TIP3   OH2 5171   1.802   1.754   1.859  0.2010 -0.2389 -0.6726
 1736TIP3    H1 5172   1.738   1.733   1.792 -2.1245 -1.6718  1.8470
 1736TIP3    H2 5173   1.833   1.842   1.835 -2.9171  0.6529 -1.8436
 1737TIP3   OH2 5174   1.360   4.503   3.036  0.3451 -0.1748 -0.0828
 1737TIP3    H1 5175   1.349   4.434   3.102  2.5528 -1.1848 -0.6583
 1737TIP3    H2 5176   1.361   4.584   3.087  0.6534 -0.8192  0.9771
 1738TIP3   OH2 5177   0.806   0.944   1.199 -0.0992 -0.3522 -0.0451
 1738TIP3    H1 5178   0.726   0.982   1.237 -0.8862 -1.2896 -0.7412
 1738TIP3    H2 5179   0.872   0.954   1.268 -0.8978  0.1262  0.6659
 1739TIP3   OH2 5180   5.616   6.730   3.461 -0.4544 -0.7044 -0.2904
 1739TIP3    H1 5181   5.564   6.650   3.462 -0.5679 -0.6356  0.6090
 1739TIP3    H2 5182   5.556   6.797   3.429 -1.3335 -0.3946  1.8142
 1740TIP3   OH2 5183   7.020   4.950   2.931 -0.3180 -0.0044  0.1481
 1740TIP3    H1 5184   6.951   4.961   2.866 -1.1068 -1.1190  0.7586
 1740TIP3    H2 5185   7.075   5.028   2.922 -1.2137  0.5292 -0.8700
 1741TIP3   OH2 5186   2.129   0.880   0.717 -0.0811  0.0867 -0.6659
 1741TIP3    H1 5187   2.120   0.810   0.653 -0.5789  0.8525 -1.4572
 1741TIP3    H2 5188   2.173   0.839   0.791 -0.8915 -1.2090 -0.8649
 1742TIP3   OH2 5189   0.546   2.478   3.089 -0.4194 -0.5189  0.1747
 1742TIP3    H1 5190   0.471   2.535   3.106 -0.5385 -0.7297  0.3464
 1742TIP3    H2 5191   0.527   2.397   3.135 -0.7921 -1.1287 -1.0205
 1743TIP3   OH2 5192   7.103   5.951   1.979 -0.0136 -0.0202  0.2442
 1743TIP3    H1 5193   7.153   5.897   2.040 -1.3235  0.0449  1.4211
 1743TIP3    H2 5194   7.037   5.892   1.944  0.1261  0.1929 -0.3869
 1744TIP3   OH2 5195   5.271   0.636   1.675  0.2735 -0.9209  0.1520
 1744TIP3    H1 5196   5.229   0.597   1.599 -2.0558 -0.5785  1.1910
 1744TIP3    H2 5197   5.290   0.562   1.733  1.8308 -1.1546 -0.6161
 1745TIP3   OH2 5198   2.378   3.276   4.577 -0.0713 -0.0821 -0.4099
 1745TIP3    H1 5199   2.399   3.231   4.495 -0.9389 -2.0930  0.3999
 1745TIP3    H2 5200   2.283   3.289   4.573 -0.4058 -1.7368  0.9324
 1746TIP3   OH2 5201   6.895   3.456   1.360  0.0523  0.1975  0.1941
 1746TIP3    H1 5202   6.818   3.404   1.385  0.6883 -0.3912  1.0156
 1746TIP3    H2 5203   6.865   3.510   1.287 -1.0166 -0.3358  0.2119
 1747TIP3   OH2 5204   6.994   2.059   2.500 -0.4350 -0.3206 -0.0380
 1747TIP3    H1 5205   6.981   1.966   2.483 -1.1086 -0.2091 -0.1757
 1747TIP3    H2 5206   7.017   2.097   2.415 -1.1357 -0.2072 -0.1866
 1748TIP3   OH2 5207   0.540   0.346   3.591 -0.0462 -0.0654 -0.0052
 1748TIP3    H1 5208   0.584   0.367   3.509  0.4757 -1.4238 -0.0948
 1748TIP3    H2 5209   0.576   0.408   3.654 -0.2451  0.8031 -0.7141
 1749TIP3   OH2 5210   5.453   3.806   5.745  0.1077  0.1400  0.0339
 1749TIP3    H1 5211   5.380   3.830   5.802  0.1048 -0.6476  0.3740
 1749TIP3    H2 5212   5.410   3.776   5.664 -0.0320 -1.6826  0.7427
 1750TIP3   OH2 5213   6.807   5.081   2.193  0.2992 -0.1838  0.7007
 1750TIP3    H1 5214   6.818   5.001   2.142  1.2977 -0.2239  0.9527
 1750TIP3    H2 5215   6.738   5.129   2.147  0.1336 -0.8961  0.1815
 1751TIP3   OH2 5216   2.491   4.841   2.307  0.5691 -0.4065  0.6892
 1751TIP3    H1 5217   2.543   4.920   2.323  0.2512 -0.5415  2.5205
 1751TIP3    H2 5218   2.548   4.769   2.333 -0.0565 -0.6189  1.5158
 1752TIP3   OH2 5219   3.198   1.394   4.108  0.0555 -0.5262  0.2007
 1752TIP3    H1 5220   3.266   1.368   4.046  0.0520 -0.0412 -0.0106
 1752TIP3    H2 5221   3.134   1.323   4.104  0.9326 -1.4101  1.0233
 1753TIP3   OH2 5222   0.149   1.922   2.181  0.0196 -0.2980  0.4946
 1753TIP3    H1 5223   0.182   1.866   2.250  1.6178  0.4198  0.3709
 1753TIP3    H2 5224   0.206   1.999   2.183  0.4156 -0.4378 -1.8816
 1754TIP3   OH2 5225   2.194   1.261   0.813 -0.5723  0.1085 -0.1308
 1754TIP3    H1 5226   2.141   1.196   0.767  0.1861 -0.8367  0.2758
 1754TIP3    H2 5227   2.133   1.329   0.838 -1.5368 -0.7934  0.0472
 1755TIP3   OH2 5228   4.680   1.931   5.361  0.3875 -0.0062  0.1790
 1755TIP3    H1 5229   4.642   2.010   5.400 -0.5516  0.2848 -1.2734
 1755TIP3    H2 5230   4.773   1.952   5.350  0.0788  1.0377 -0.5242
 1756TIP3   OH2 5231   6.621   1.587   0.611 -0.2652 -0.7648  0.4586
 1756TIP3    H1 5232   6.708   1.617   0.639 -1.1552  0.9983  1.4705
 1756TIP3    H2 5233   6.566   1.665   0.616 -1.9452 -1.8769 -0.0590
 1757TIP3   OH2 5234   3.748   4.383   5.798 -0.5828 -0.7126  0.0973
 1757TIP3    H1 5235   3.717   4.305   5.752  3.5901 -2.3525 -0.3829
 1757TIP3    H2 5236   3.797   4.349   5.872 -0.8373  1.6446  1.4340
 1758TIP3   OH2 5237   6.455   2.080   0.449 -0.6342 -0.1285  1.0441
 1758TIP3    H1 5238   6.395   2.006   0.440 -1.3127  0.3407  1.6038
 1758TIP3    H2 5239   6.399   2.153   0.476 -0.0701  0.7302  0.0048
 1759TIP3   OH2 5240   2.722   6.071   4.993  0.4293  0.2569 -0.0874
 1759TIP3    H1 5241   2.760   6.149   5.033  0.4771  0.9817 -1.4873
 1759TIP3    H2 5242   2.767   6.064   4.908 -0.0631 -0.9008 -0.2683
 1760TIP3   OH2 5243   5.119   4.334   1.955 -0.3308  0.0351  0.4979
 1760TIP3    H1 5244   5.051   4.279   1.994 -0.7609  0.1838 -0.0240
 1760TIP3    H2 5245   5.108   4.419   1.997 -1.0195  0.2928 -0.1807
 1761TIP3   OH2 5246   4.084   4.881   5.747  0.3094  0.2506 -0.3333
 1761TIP3    H1 5247   4.001   4.926   5.734  1.1408  1.3731 -2.2533
 1761TIP3    H2 5248   4.084   4.856   5.839 -1.8579  0.7848 -0.1340
 1762TIP3   OH2 5249   3.364   6.125   2.768  0.1449  0.2443 -0.2024
 1762TIP3    H1 5250   3.291   6.181   2.742  1.5149  2.5531  0.6098
 1762TIP3    H2 5251   3.336   6.087   2.851  0.0458  1.5698  0.4045
 1763TIP3   OH2 5252   6.821   6.074   4.166  0.1853  0.1977 -0.0156
 1763TIP3    H1 5253   6.888   6.079   4.098  0.0708  0.6819 -0.0932
 1763TIP3    H2 5254   6.871   6.076   4.248  0.4905 -2.3989 -0.0386
 1764TIP3   OH2 5255   3.973   6.436   1.042  0.0243  0.3202 -0.0242
 1764TIP3    H1 5256   4.053   6.488   1.051 -0.9348  1.5118  2.5172
 1764TIP3    H2 5257   3.953   6.439   0.948  1.4812  2.3043 -0.3367
 1765TIP3   OH2 5258   5.223   5.400   3.045  0.1665 -0.7692  0.1073
 1765TIP3    H1 5259   5.284   5.379   2.974 -0.2264 -1.2097 -0.1017
 1765TIP3    H2 5260   5.256   5.483   3.081  1.3328 -1.3966  0.5058
 1766TIP3   OH2 5261   4.883   0.895   1.515 -0.0839  0.5241  0.0161
 1766TIP3    H1 5262   4.868   0.915   1.422  1.2335 -0.3257 -0.4117
 1766TIP3    H2 5263   4.804   0.927   1.559 -1.3311 -0.1938 -1.5613
 1767TIP3   OH2 5264   3.154   4.914   2.805  0.0584  0.2964 -0.2896
 1767TIP3    H1 5265   3.088   4.858   2.847  0.9924 -0.3658  0.3460
 1767TIP3    H2 5266   3.160   4.879   2.716  0.1109 -0.1441 -0.1162
 1768TIP3   OH2 5267   3.202   4.503   4.981  0.1101 -0.0827  0.6292
 1768TIP3    H1 5268   3.179   4.418   4.944 -1.2677  0.4936  0.1043
 1768TIP3    H2 5269   3.125   4.530   5.030  0.4305  0.9870  0.5760
 1769TIP3   OH2 5270   6.493   3.864   5.360 -0.1949 -0.2151  0.0129
 1769TIP3    H1 5271   6.474   3.902   5.274 -0.6911  0.0551  0.2374
 1769TIP3    H2 5272   6.498   3.939   5.419  0.1764 -0.3962  0.2173
 1770TIP3   OH2 5273   4.510   0.820   1.307  0.8101  0.3654  0.1366
 1770TIP3    H1 5274   4.488   0.727   1.296  0.3011  0.6909 -1.9228
 1770TIP3    H2 5275   4.601   0.827   1.279  1.0840  0.3758  1.0100
 1771TIP3   OH2 5276   4.983   3.854   3.117 -0.1460 -0.1231  0.0659
 1771TIP3    H1 5277   5.046   3.785   3.137  0.3396  0.2056 -0.2976
 1771TIP3    H2 5278   4.912   3.840   3.179 -0.8426 -1.9602 -1.0486
 1772TIP3   OH2 5279   2.625   0.026   1.893  0.2339 -0.2812 -0.1029
 1772TIP3    H1 5280   2.598   0.045   1.983  1.5924 -0.0676  0.2798
 1772TIP3    H2 5281   2.617   0.110   1.848 -1.1343 -0.5425 -0.3838
 1773TIP3   OH2 5282   1.186   0.660   0.839  0.9712 -0.4370 -0.7241
 1773TIP3    H1 5283   1.229   0.583   0.801  0.5525 -1.3776  0.6452
 1773TIP3    H2 5284   1.093   0.647   0.820  1.0070  0.3038 -1.4480
 1774TIP3   OH2 5285   0.981   2.390   2.477 -0.6400  0.4699 -0.0204
 1774TIP3    H1 5286   0.915   2.457   2.490  0.7576  1.8853  0.1723
 1774TIP3    H2 5287   0.996   2.353   2.564 -2.0789 -0.7981 -0.2792
 1775TIP3   OH2 5288   3.973   0.713   2.874  0.0202 -0.3741  0.1880
 1775TIP3    H1 5289   3.897   0.765   2.902 -0.3127 -0.5485 -0.3701
 1775TIP3    H2 5290   3.975   0.723   2.779  0.3110 -0.8962  0.1333
 1776TIP3   OH2 5291   5.333   2.024   2.864 -0.0255 -0.5575 -0.6436
 1776TIP3    H1 5292   5.404   2.057   2.809 -0.0516  1.9724  0.7219
 1776TIP3    H2 5293   5.352   2.058   2.951 -1.9420 -1.3970  0.1591
 1777TIP3   OH2 5294   0.790   1.339   2.193 -0.2035 -0.1404  0.6535
 1777TIP3    H1 5295   0.753   1.339   2.281 -0.0954  0.6627  0.7119
 1777TIP3    H2 5296   0.787   1.248   2.165 -0.1672 -0.4143  1.5201
 1778TIP3   OH2 5297   6.359   4.170   0.978 -0.6032  0.7815  0.0065
 1778TIP3    H1 5298   6.365   4.080   0.945 -0.7830  0.9359 -0.4614
 1778TIP3    H2 5299   6.327   4.161   1.067 -0.9876  0.3993 -0.1668
 1779TIP3   OH2 5300   5.172   0.212   2.277  0.3642  0.1618  0.2927
 1779TIP3    H1 5301   5.194   0.127   2.239  2.4668  1.0652 -0.6613
 1779TIP3    H2 5302   5.157   0.194   2.370 -3.0642 -1.7974 -0.4604
 1780TIP3   OH2 5303   0.926   2.179   5.246  0.3888  0.6901  0.0191
 1780TIP3    H1 5304   1.017   2.158   5.269  0.2454  1.4672  1.3506
 1780TIP3    H2 5305   0.873   2.119   5.297  0.1189  0.9296  0.0233
 1781TIP3   OH2 5306   6.616   4.077   5.507 -0.2090  0.2703 -0.5299
 1781TIP3    H1 5307   6.705   4.065   5.473  0.9558  2.9588  1.2541
 1781TIP3    H2 5308   6.621   4.052   5.599 -1.0990  1.0566 -0.2410
 1782TIP3   OH2 5309   5.091   4.717   1.674 -0.5902 -0.2105 -0.6383
 1782TIP3    H1 5310   5.013   4.691   1.723 -0.8854  2.0217  0.1962
 1782TIP3    H2 5311   5.154   4.647   1.691 -1.8932 -1.2974 -0.0829
 1783TIP3   OH2 5312   6.349   3.906   0.473 -0.9265 -0.0987  0.2124
 1783TIP3    H1 5313   6.326   3.845   0.403 -0.1749 -0.6051  0.3869
 1783TIP3    H2 5314   6.293   3.983   0.458 -0.4025  0.0326 -1.2666
 1784TIP3   OH2 5315   4.535   4.828   3.247  0.1878 -0.3147  0.4198
 1784TIP3    H1 5316   4.566   4.886   3.317 -0.5293  0.4786  0.1015
 1784TIP3    H2 5317   4.491   4.887   3.185  0.7346 -1.0177 -0.6613
 1785TIP3   OH2 5318   3.049   5.232   4.173  0.5728 -0.8330 -0.5959
 1785TIP3    H1 5319   3.134   5.202   4.142  1.4181  0.3611  0.4444
 1785TIP3    H2 5320   3.061   5.244   4.268 -1.0531 -1.5825 -0.2496
 1786TIP3   OH2 5321   4.768   0.940   0.829  0.0768 -0.5852 -0.0167
 1786TIP3    H1 5322   4.701   0.982   0.776 -1.7767 -0.2374  2.4538
 1786TIP3    H2 5323   4.792   1.005   0.895 -0.4396 -2.2034  1.8634
 1787TIP3   OH2 5324   5.122   2.149   5.510  0.2310  0.6155 -0.0886
 1787TIP3    H1 5325   5.160   2.218   5.456  0.3923 -0.1897 -1.0322
 1787TIP3    H2 5326   5.155   2.067   5.472 -1.7068 -0.0917 -0.3769
 1788TIP3   OH2 5327   1.743   4.917   1.142 -0.3279  0.2649 -0.2223
 1788TIP3    H1 5328   1.766   5.003   1.108 -0.3067 -0.0785 -1.1146
 1788TIP3    H2 5329   1.685   4.880   1.075 -0.0679 -0.5357 -0.0145
 1789TIP3   OH2 5330   2.549   0.420   4.311  0.1667  0.2946 -0.4075
 1789TIP3    H1 5331   2.538   0.443   4.219  0.8670  1.1890 -0.2765
 1789TIP3    H2 5332   2.600   0.339   4.310 -1.7145 -0.9511 -0.8539
 1790TIP3   OH2 5333   3.570   4.356   0.244  0.6738 -0.1724 -0.1982
 1790TIP3    H1 5334   3.613   4.323   0.323 -0.6383 -1.5374 -0.0093
 1790TIP3    H2 5335   3.534   4.441   0.270  0.2751 -0.5963  0.6820
 1791TIP3   OH2 5336   1.399   1.398   1.123  0.8048  0.4497 -0.1492
 1791TIP3    H1 5337   1.409   1.328   1.187 -0.5286 -0.4923 -0.9129
 1791TIP3    H2 5338   1.488   1.419   1.096  1.2409 -1.1481 -0.0747
 1792TIP3   OH2 5339   6.844   3.552   5.721 -0.2648  0.0742 -0.1900
 1792TIP3    H1 5340   6.773   3.489   5.736 -1.5255  1.5316  0.2035
 1792TIP3    H2 5341   6.910   3.531   5.787 -1.3914  0.1636  1.0095
 1793TIP3   OH2 5342   7.038   5.010   5.846 -0.3114 -0.8296  0.1714
 1793TIP3    H1 5343   7.062   5.088   5.897  0.0297 -1.5576  1.1514
 1793TIP3    H2 5344   7.102   5.006   5.776 -1.0167  0.4085 -0.5719
 1794TIP3   OH2 5345   3.525   3.477   5.266 -0.0032  0.4361  0.2473
 1794TIP3    H1 5346   3.613   3.473   5.303  0.3027 -2.2735 -0.5375
 1794TIP3    H2 5347   3.539   3.477   5.171 -0.7786 -2.0581  0.0563
 1795TIP3   OH2 5348   2.407   1.485   4.543 -0.2209 -0.7709 -0.3274
 1795TIP3    H1 5349   2.466   1.539   4.596  0.0006 -2.3850  1.1310
 1795TIP3    H2 5350   2.461   1.412   4.514 -0.6500 -0.5128 -1.8879
 1796TIP3   OH2 5351   0.167   6.684   4.981  0.0895 -0.1253 -0.0010
 1796TIP3    H1 5352   0.093   6.739   4.957  0.6869  0.2856 -0.9316
 1796TIP3    H2 5353   0.184   6.705   5.073 -1.1577 -0.4815  0.3276
 1797TIP3   OH2 5354   3.052   2.430   0.456  0.3016 -0.9800  0.2371
 1797TIP3    H1 5355   2.957   2.438   0.466  0.2647 -0.7910 -0.2306
 1797TIP3    H2 5356   3.068   2.336   0.450  0.1238 -1.0051  0.1503
 1798TIP3   OH2 5357   4.343   4.121   4.290  0.1376 -0.2939 -0.1558
 1798TIP3    H1 5358   4.376   4.131   4.201  2.1564  0.7863  0.6450
 1798TIP3    H2 5359   4.262   4.070   4.281  0.0583  0.1721 -2.6196
 1799TIP3   OH2 5360   3.252   5.316   5.166  0.2929  0.2010 -0.0208
 1799TIP3    H1 5361   3.247   5.228   5.202  0.1249 -0.0027 -0.5362
 1799TIP3    H2 5362   3.341   5.323   5.132  0.2934  0.2154 -0.0167
 1800TIP3   OH2 5363   1.500   1.349   4.079 -0.2177 -0.1109 -0.2992
 1800TIP3    H1 5364   1.477   1.338   4.171  1.8525  1.3704  0.4907
 1800TIP3    H2 5365   1.567   1.281   4.063  0.2748  0.3760 -0.3428
 1801TIP3   OH2 5366   7.060   2.331   3.331 -0.8493 -0.5749 -0.4511
 1801TIP3    H1 5367   7.087   2.261   3.273 -1.2428 -0.3209 -0.9510
 1801TIP3    H2 5368   7.028   2.287   3.410  1.3996 -0.8713  0.3526
 1802TIP3   OH2 5369   5.510   2.710   0.935  0.3005  0.3658 -0.7324
 1802TIP3    H1 5370   5.578   2.770   0.964  1.4583 -0.8839 -0.8108
 1802TIP3    H2 5371   5.557   2.640   0.889 -0.7908 -1.7755  1.2484
 1803TIP3   OH2 5372   4.227   5.496   2.589  0.2055 -0.2720  0.0194
 1803TIP3    H1 5373   4.321   5.500   2.609  0.2915 -0.7989 -0.2709
 1803TIP3    H2 5374   4.188   5.451   2.664  0.5493 -2.3919 -1.0016
 1804TIP3   OH2 5375   6.420   4.395   2.632 -0.2224 -0.1069 -0.3795
 1804TIP3    H1 5376   6.372   4.476   2.615 -0.6639 -0.7245 -2.3003
 1804TIP3    H2 5377   6.371   4.328   2.585  0.0813 -1.5469  1.2482
 1805TIP3   OH2 5378   6.843   0.744   5.163 -0.2810  0.3003  0.1125
 1805TIP3    H1 5379   6.837   0.833   5.128 -0.9234 -0.1831 -1.0906
 1805TIP3    H2 5380   6.903   0.699   5.103 -0.3201 -0.1944  0.4406
 1806TIP3   OH2 5381   0.362   4.835   1.628 -0.1315 -0.2072  0.2230
 1806TIP3    H1 5382   0.363   4.800   1.718 -0.2043  1.4477  0.8965
 1806TIP3    H2 5383   0.335   4.760   1.575 -0.9828 -1.0086  1.6858
 1807TIP3   OH2 5384   1.617   1.162   2.223 -0.1464  0.0036  0.5062
 1807TIP3    H1 5385   1.644   1.124   2.139 -1.7783  1.6221 -0.8185
 1807TIP3    H2 5386   1.700   1.183   2.266  0.7582 -2.0847 -0.0429
 1808TIP3   OH2 5387   1.948   0.604   5.554 -0.5094 -0.5857  0.2102
 1808TIP3    H1 5388   1.921   0.685   5.511  0.9764  0.0547  0.4255
 1808TIP3    H2 5389   1.968   0.544   5.482 -1.2028 -0.6414  0.0511
 1809TIP3   OH2 5390   4.877   0.086   5.090  0.0889 -0.2375 -0.6269
 1809TIP3    H1 5391   4.945   0.103   5.024  0.1292 -1.5607 -0.9523
 1809TIP3    H2 5392   4.910   0.011   5.140  0.4674  1.2411  1.5093
 1810TIP3   OH2 5393   7.085   0.244   2.351 -0.4631  0.4144 -0.7075
 1810TIP3    H1 5394   7.155   0.179   2.336  0.4677  1.2334 -0.0171
 1810TIP3    H2 5395   7.090   0.263   2.444  0.5465  2.8495 -1.1959
 1811TIP3   OH2 5396   6.183   4.575   0.312  0.4517  0.1986  0.1645
 1811TIP3    H1 5397   6.094   4.548   0.291  0.5570 -0.3635  0.4179
 1811TIP3    H2 5398   6.239   4.512   0.265  0.7428  1.3591 -1.0981
 1812TIP3   OH2 5399   4.663   0.313   4.657  0.0576 -0.0630 -0.4028
 1812TIP3    H1 5400   4.671   0.247   4.588 -0.6326  0.5471 -1.0877
 1812TIP3    H2 5401   4.753   0.328   4.686  0.4165  0.0459 -1.5313
 1813TIP3   OH2 5402   2.371   5.860   4.114  0.3065  0.0224  0.0418
 1813TIP3    H1 5403   2.349   5.947   4.082 -0.3059 -0.5083 -1.0244
 1813TIP3    H2 5404   2.295   5.834   4.166  0.0712 -0.2476 -0.4288
 1814TIP3   OH2 5405   3.740   0.237   0.232 -0.2812 -0.1785 -0.5490
 1814TIP3    H1 5406   3.773   0.185   0.159  1.6386 -1.0688  0.8449
 1814TIP3    H2 5407   3.656   0.198   0.254 -0.0276 -1.0780 -1.1337
 1815TIP3   OH2 5408   0.970   6.801   2.815 -0.4173 -0.3550 -0.2688
 1815TIP3    H1 5409   0.898   6.762   2.864  0.4593 -2.5072 -0.5957
 1815TIP3    H2 5410   1.027   6.838   2.882 -2.2478  2.3757 -0.0422
 1816TIP3   OH2 5411   3.523   5.306   5.278  0.4751  0.2415  0.0447
 1816TIP3    H1 5412   3.591   5.243   5.253 -1.3345 -1.1881 -1.6087
 1816TIP3    H2 5413   3.542   5.383   5.225 -0.0426 -0.7209 -1.6198
 1817TIP3   OH2 5414   1.016   6.395   0.509 -0.1337 -0.0116  0.2434
 1817TIP3    H1 5415   1.059   6.353   0.583  0.6905 -0.8925 -0.6943
 1817TIP3    H2 5416   0.969   6.324   0.465 -1.7692  0.7564  0.6921
 1818TIP3   OH2 5417   5.743   5.734   2.236 -0.0971 -0.6093  0.1138
 1818TIP3    H1 5418   5.744   5.791   2.159  0.1396 -1.2123 -0.3379
 1818TIP3    H2 5419   5.834   5.704   2.244 -0.4862 -1.9607 -0.4359
 1819TIP3   OH2 5420   6.779   2.501   2.972  0.4023  0.5279  0.6111
 1819TIP3    H1 5421   6.869   2.491   2.940  0.5641  3.0265  0.0601
 1819TIP3    H2 5422   6.787   2.499   3.067  0.7451 -1.1332  0.5724
 1820TIP3   OH2 5423   5.266   4.066   2.498 -0.3974  0.5965  0.1372
 1820TIP3    H1 5424   5.185   4.107   2.527  0.6543  1.4449  2.1226
 1820TIP3    H2 5425   5.256   3.974   2.522 -0.2307  0.9730  1.7991
 1821TIP3   OH2 5426   6.326   1.551   2.461 -0.5251  0.1452 -0.0367
 1821TIP3    H1 5427   6.251   1.607   2.439 -0.3198  0.1349 -0.8120
 1821TIP3    H2 5428   6.394   1.611   2.488 -0.5228  0.2269 -0.2196
 1822TIP3   OH2 5429   2.669   2.969   1.682  0.2205  0.0780  0.1042
 1822TIP3    H1 5430   2.708   3.023   1.750  0.3684  1.9261 -1.3884
 1822TIP3    H2 5431   2.740   2.910   1.654  0.0922 -0.8545  1.6440
 1823TIP3   OH2 5432   1.568   4.516   1.712  0.1431  0.6770  0.1870
 1823TIP3    H1 5433   1.522   4.529   1.629 -0.0085 -1.3727 -0.0948
 1823TIP3    H2 5434   1.655   4.486   1.687 -0.5365 -1.9985  0.6863
 1824TIP3   OH2 5435   6.193   6.084   0.119  0.8468  0.8424 -0.3771
 1824TIP3    H1 5436   6.146   6.076   0.201 -0.5998 -2.8075 -1.3563
 1824TIP3    H2 5437   6.148   6.154   0.071 -0.8138  0.3560  0.4194
 1825TIP3   OH2 5438   6.573   3.508   3.799 -0.2422  0.4527  0.3691
 1825TIP3    H1 5439   6.662   3.496   3.834  0.4655  1.8505 -0.8312
 1825TIP3    H2 5440   6.523   3.436   3.838  1.5589 -0.7871  0.5803
 1826TIP3   OH2 5441   1.636   2.005   3.921  0.1162  0.8298 -0.3798
 1826TIP3    H1 5442   1.649   1.910   3.915 -2.4911  0.4766 -1.9638
 1826TIP3    H2 5443   1.610   2.019   4.012  0.9778  0.1241 -0.0028
 1827TIP3   OH2 5444   1.371   3.251   1.791  0.1095  0.2267 -0.6320
 1827TIP3    H1 5445   1.400   3.256   1.699 -1.0478  1.8958 -0.9364
 1827TIP3    H2 5446   1.277   3.264   1.787 -0.0569 -0.3912  0.7703
 1828TIP3   OH2 5447   2.711   4.942   0.780  0.7217 -0.0314 -0.0679
 1828TIP3    H1 5448   2.650   5.003   0.738  2.2271  0.7061 -1.2774
 1828TIP3    H2 5449   2.664   4.912   0.858 -0.3972  2.0670  0.1448
 1829TIP3   OH2 5450   2.557   0.568   0.359  0.1021  0.3200  0.4535
 1829TIP3    H1 5451   2.493   0.578   0.289 -1.2411 -1.4917  1.3310
 1829TIP3    H2 5452   2.517   0.611   0.435 -0.2786 -1.0980  1.0933
 1830TIP3   OH2 5453   6.511   3.342   1.960 -0.4681 -0.4774 -0.2049
 1830TIP3    H1 5454   6.599   3.312   1.980 -0.7995 -0.9639  0.5927
 1830TIP3    H2 5455   6.454   3.283   2.011 -1.1868  0.8880  0.6317
 1831TIP3   OH2 5456   2.773   4.123   2.746 -0.2802  0.1651  0.2019
 1831TIP3    H1 5457   2.821   4.134   2.828  0.2270  0.0820 -0.0812
 1831TIP3    H2 5458   2.826   4.168   2.680  0.3709 -1.4611 -0.4484
 1832TIP3   OH2 5459   4.234   2.398   4.824  0.4415  0.2966 -0.4052
 1832TIP3    H1 5460   4.229   2.319   4.876 -0.5857  0.0335 -0.8751
 1832TIP3    H2 5461   4.231   2.367   4.733  1.0131  0.8164 -0.6102
 1833TIP3   OH2 5462   0.219   1.953   1.402 -0.1184 -0.1648  0.1129
 1833TIP3    H1 5463   0.284   1.915   1.461 -0.2143 -2.7501 -1.3083
 1833TIP3    H2 5464   0.159   1.881   1.383 -0.8433  0.9308 -2.1008
 1834TIP3   OH2 5465   3.287   1.400   1.105 -0.2649  0.5728 -0.2587
 1834TIP3    H1 5466   3.310   1.307   1.114  0.3890  0.6339 -1.1259
 1834TIP3    H2 5467   3.372   1.445   1.102 -0.5749  1.1914  0.0477
 1835TIP3   OH2 5468   3.633   0.499   2.118 -0.2013  0.2918 -0.1314
 1835TIP3    H1 5469   3.661   0.417   2.159  0.8329  0.3471 -0.7025
 1835TIP3    H2 5470   3.543   0.481   2.089  0.0451 -0.6890 -0.3553
 1836TIP3   OH2 5471   5.969   4.708   3.939 -0.0561  0.1699 -0.1693
 1836TIP3    H1 5472   5.912   4.686   4.013 -0.3295 -0.9293 -0.6886
 1836TIP3    H2 5473   5.952   4.801   3.924 -1.5593 -0.0652 -0.1574
 1837TIP3   OH2 5474   3.292   6.558   1.600  0.4110  0.2746 -0.2493
 1837TIP3    H1 5475   3.347   6.481   1.585  0.4057  0.1684  0.2728
 1837TIP3    H2 5476   3.308   6.582   1.691  0.7227  1.1403 -0.5251
 1838TIP3   OH2 5477   2.727   2.849   4.232  0.1626 -0.2316 -0.3578
 1838TIP3    H1 5478   2.734   2.871   4.325  0.6515 -1.8491  0.0075
 1838TIP3    H2 5479   2.644   2.802   4.224 -0.1847  0.4442 -0.8687
 1839TIP3   OH2 5480   1.958   1.273   4.153 -0.0138 -0.1047  0.0417
 1839TIP3    H1 5481   2.020   1.250   4.084 -0.9700  3.4386 -2.2442
 1839TIP3    H2 5482   2.012   1.316   4.220  0.7505 -2.6224  1.1949
 1840TIP3   OH2 5483   3.443   5.347   2.367  0.0399  0.0366 -0.0796
 1840TIP3    H1 5484   3.480   5.307   2.446 -0.1884 -2.9591 -1.3492
 1840TIP3    H2 5485   3.498   5.423   2.351  0.7315  0.1400  2.3560
 1841TIP3   OH2 5486   4.497   2.341   5.244 -0.3551 -0.2462  0.1004
 1841TIP3    H1 5487   4.416   2.378   5.208  1.2355  0.4998 -3.1128
 1841TIP3    H2 5488   4.510   2.260   5.194  0.6235 -0.6305  0.9449
 1842TIP3   OH2 5489   2.782   1.418   4.437  0.1844 -0.0242 -0.5128
 1842TIP3    H1 5490   2.795   1.466   4.519 -0.0649 -0.4501 -0.2148
 1842TIP3    H2 5491   2.857   1.359   4.432  0.2913  0.1268 -0.6827
 1843TIP3   OH2 5492   5.186   2.746   2.027 -0.5053  0.2282 -0.0250
 1843TIP3    H1 5493   5.108   2.737   2.081 -0.7296 -1.8416 -0.6235
 1843TIP3    H2 5494   5.154   2.778   1.943 -0.2319  2.8164  0.7782
 1844TIP3   OH2 5495   5.134   1.218   5.649  0.1875 -0.3224 -0.2831
 1844TIP3    H1 5496   5.131   1.149   5.583  0.4715 -1.5742  0.9660
 1844TIP3    H2 5497   5.200   1.188   5.712  0.5093  1.2212  0.1632
 1845TIP3   OH2 5498   6.954   3.294   3.775  0.1130 -0.1678 -0.3758
 1845TIP3    H1 5499   6.982   3.332   3.692 -2.7643 -2.3900 -2.6019
 1845TIP3    H2 5500   6.952   3.199   3.758 -0.3488 -0.7241  2.3237
 1846TIP3   OH2 5501   1.330   4.613   4.389  0.9480 -0.2693  1.1002
 1846TIP3    H1 5502   1.385   4.614   4.311 -0.1228  0.2978  0.3268
 1846TIP3    H2 5503   1.246   4.577   4.359  0.0994  1.1529  1.6669
 1847TIP3   OH2 5504   5.667   1.871   4.622  0.4816 -0.0759  0.2570
 1847TIP3    H1 5505   5.646   1.779   4.639 -0.9100  0.0708 -0.5427
 1847TIP3    H2 5506   5.663   1.913   4.708 -1.1574 -0.3528  0.3448
 1848TIP3   OH2 5507   0.839   4.179   4.094 -0.6713 -0.2756  0.1823
 1848TIP3    H1 5508   0.881   4.130   4.024 -2.1674 -0.3716 -0.6835
 1848TIP3    H2 5509   0.910   4.229   4.135  0.7262 -2.4412  0.5210
 1849TIP3   OH2 5510   7.000   1.232   2.571  0.3227 -0.3363  0.5720
 1849TIP3    H1 5511   7.019   1.190   2.654  2.0092 -0.7070  0.0258
 1849TIP3    H2 5512   6.922   1.186   2.538  1.4207 -2.2839  0.5457
 1850TIP3   OH2 5513   1.779   6.779   5.746 -0.3970  0.0895 -0.3826
 1850TIP3    H1 5514   1.857   6.793   5.801  1.6177 -1.2664 -2.6635
 1850TIP3    H2 5515   1.810   6.796   5.657 -1.7954 -3.5465 -1.7270
 1851TIP3   OH2 5516   1.604   3.286   1.029 -0.0451 -0.1791 -0.4376
 1851TIP3    H1 5517   1.525   3.274   0.976 -0.0312  0.7634 -0.6917
 1851TIP3    H2 5518   1.581   3.249   1.115 -0.6211 -0.2755 -0.6265
 1852TIP3   OH2 5519   4.425   4.485   4.605  0.4542 -0.7647 -0.6448
 1852TIP3    H1 5520   4.332   4.480   4.626  0.4008 -0.5822 -0.8312
 1852TIP3    H2 5521   4.443   4.579   4.600  0.1151 -0.7611 -2.8692
 1853TIP3   OH2 5522   1.965   2.433   1.136 -0.4543 -0.2954 -0.2857
 1853TIP3    H1 5523   1.987   2.514   1.090 -0.3816  0.5020  1.0941
 1853TIP3    H2 5524   1.933   2.374   1.068  1.1246  0.2827 -1.5753
 1854TIP3   OH2 5525   6.207   0.525   0.495 -0.3018 -0.1998  0.6380
 1854TIP3    H1 5526   6.165   0.495   0.575  0.8494 -1.3121  0.8488
 1854TIP3    H2 5527   6.298   0.539   0.518  0.1935 -1.1606 -0.6068
 1855TIP3   OH2 5528   0.213   6.271   3.853 -0.0476  0.3258 -0.2341
 1855TIP3    H1 5529   0.283   6.230   3.904 -0.1305  0.7463  0.2254
 1855TIP3    H2 5530   0.258   6.311   3.779  0.0637 -0.3686 -0.5445
 1856TIP3   OH2 5531   6.238   4.623   2.616 -0.6721 -0.8965 -0.5345
 1856TIP3    H1 5532   6.172   4.661   2.673 -0.3463  1.5802 -1.6658
 1856TIP3    H2 5533   6.192   4.601   2.535 -0.6771 -2.1545 -0.2126
 1857TIP3   OH2 5534   1.417   3.715   2.804 -0.2046  0.0544 -0.4793
 1857TIP3    H1 5535   1.414   3.628   2.844  0.9628 -0.2326 -0.9858
 1857TIP3    H2 5536   1.459   3.770   2.871  0.2237 -0.0584 -0.6526
 1858TIP3   OH2 5537   1.815   3.244   3.165  0.2075 -0.3101 -0.1656
 1858TIP3    H1 5538   1.722   3.231   3.186  0.2487  0.1930  0.3610
 1858TIP3    H2 5539   1.826   3.203   3.079 -0.5447 -0.2091 -0.3183
 1859TIP3   OH2 5540   1.771   0.517   5.849  0.5056  0.2051 -0.2066
 1859TIP3    H1 5541   1.811   0.492   5.932  1.0454  1.1507 -0.1709
 1859TIP3    H2 5542   1.831   0.582   5.812 -0.0786  0.3028 -1.0151
 1860TIP3   OH2 5543   6.489   1.167   0.724  0.4254  0.5340 -0.3586
 1860TIP3    H1 5544   6.509   1.165   0.818 -1.1618  0.2899 -0.0039
 1860TIP3    H2 5545   6.481   1.260   0.704 -0.9875  0.5508  0.1694
 1861TIP3   OH2 5546   0.915   4.612   4.075  0.0515  0.0322  0.5944
 1861TIP3    H1 5547   0.923   4.535   4.131 -0.1381 -0.2904  0.1912
 1861TIP3    H2 5548   0.967   4.679   4.118 -0.7535  0.0483  1.6001
 1862TIP3   OH2 5549   1.972   1.019   5.643  0.3483  0.0901 -0.0026
 1862TIP3    H1 5550   1.943   1.068   5.566 -1.1869  0.3317  0.6996
 1862TIP3    H2 5551   2.054   0.978   5.615  0.2450  0.8228 -1.4950
 1863TIP3   OH2 5552   0.558   6.046   1.124  0.3021  0.2780  0.0207
 1863TIP3    H1 5553   0.572   6.136   1.096 -1.1211  0.8762  1.1038
 1863TIP3    H2 5554   0.514   6.004   1.051 -2.5050  1.5521  0.8606
 1864TIP3   OH2 5555   0.714   4.486   4.772  0.2963  0.4232 -0.4308
 1864TIP3    H1 5556   0.694   4.547   4.843 -0.6201 -0.3755  0.0220
 1864TIP3    H2 5557   0.748   4.541   4.702 -0.7187  1.4906 -0.1124
 1865TIP3   OH2 5558   3.713   0.834   0.287 -0.4536 -0.0857 -0.4171
 1865TIP3    H1 5559   3.792   0.796   0.325  0.6554  1.0742 -1.4756
 1865TIP3    H2 5560   3.739   0.861   0.199 -2.6874 -1.8196 -1.6951
 1866TIP3   OH2 5561   2.259   2.810   3.675 -0.5374 -0.7000 -0.3263
 1866TIP3    H1 5562   2.331   2.749   3.659 -0.5866 -0.5370 -1.2334
 1866TIP3    H2 5563   2.282   2.888   3.625 -0.4184  0.0919  0.9020
 1867TIP3   OH2 5564   5.851   4.464   0.714  0.0026  0.2851  0.2949
 1867TIP3    H1 5565   5.834   4.384   0.764 -1.0425  0.3961  0.1355
 1867TIP3    H2 5566   5.805   4.450   0.631  1.3371  0.2955 -0.4678
 1868TIP3   OH2 5567   3.206   6.483   4.091  0.5164 -0.2832  0.0030
 1868TIP3    H1 5568   3.195   6.539   4.014 -1.6218 -0.7964 -0.1293
 1868TIP3    H2 5569   3.245   6.539   4.157 -1.8469  1.5262 -0.0137
 1869TIP3   OH2 5570   0.336   2.282   1.803  0.5065  0.0357  0.2076
 1869TIP3    H1 5571   0.385   2.230   1.739  0.4210  1.0695 -0.7364
 1869TIP3    H2 5572   0.299   2.218   1.864 -0.6643 -1.1436 -1.6483
 1870TIP3   OH2 5573   2.849   2.989   2.916 -1.0279  0.1739  0.3377
 1870TIP3    H1 5574   2.893   3.074   2.911 -0.8120  0.2132  2.2711
 1870TIP3    H2 5575   2.885   2.939   2.843  1.2255  0.6840  1.0197
 1871TIP3   OH2 5576   3.144   0.720   2.742  1.2717 -0.2803  0.0038
 1871TIP3    H1 5577   3.156   0.804   2.786 -1.0756  2.1999 -3.6093
 1871TIP3    H2 5578   3.060   0.687   2.774  1.4622 -0.4960  0.2866
 1872TIP3   OH2 5579   5.508   4.082   4.511  0.2582  0.2622  0.1798
 1872TIP3    H1 5580   5.433   4.114   4.562 -1.1097 -0.6527 -1.1381
 1872TIP3    H2 5581   5.473   4.073   4.422  1.4946 -1.6527 -0.1735
 1873TIP3   OH2 5582   1.148   4.722   3.888 -0.0090  0.2430  0.3714
 1873TIP3    H1 5583   1.156   4.707   3.983 -1.9295  0.5710  0.6155
 1873TIP3    H2 5584   1.229   4.685   3.852  1.0455  0.6504  2.1839
 1874TIP3   OH2 5585   5.638   4.302   5.349 -0.2255  0.3234  0.1693
 1874TIP3    H1 5586   5.713   4.245   5.365 -0.2302 -0.3752 -2.0010
 1874TIP3    H2 5587   5.632   4.308   5.253 -2.8892  0.4192  0.2771
 1875TIP3   OH2 5588   3.906   6.303   4.555  0.0846  0.9767 -0.4331
 1875TIP3    H1 5589   3.869   6.216   4.545 -1.8127  1.6692  0.0474
 1875TIP3    H2 5590   3.910   6.317   4.649  1.3253  1.0334 -0.4890
 1876TIP3   OH2 5591   6.250   3.581   1.035  0.6428  0.1043  0.2581
 1876TIP3    H1 5592   6.231   3.491   1.009  0.1058  0.1776  0.3914
 1876TIP3    H2 5593   6.170   3.629   1.014  0.9944  0.5915  0.0042
 1877TIP3   OH2 5594   6.516   4.025   3.756 -0.2417 -0.4228  0.1769
 1877TIP3    H1 5595   6.427   4.038   3.723 -0.4543 -1.0326  0.4920
 1877TIP3    H2 5596   6.511   3.943   3.805  0.4897 -0.4448  0.2186
 1878TIP3   OH2 5597   3.863   4.384   0.244 -0.1303  0.1157  0.2098
 1878TIP3    H1 5598   3.831   4.388   0.335 -0.2496 -2.2630  0.3410
 1878TIP3    H2 5599   3.786   4.404   0.191 -0.7061 -0.9372  0.6179
 1879TIP3   OH2 5600   4.550   0.941   1.707 -0.4828 -0.4833  0.2594
 1879TIP3    H1 5601   4.569   0.863   1.655  0.8438  0.4033 -0.6576
 1879TIP3    H2 5602   4.471   0.919   1.756 -1.7288 -1.4222 -2.0145
 1880TIP3   OH2 5603   2.036   1.964   3.840  0.2413  0.4786  0.4583
 1880TIP3    H1 5604   2.125   1.931   3.827 -0.5510 -1.2248 -1.2206
 1880TIP3    H2 5605   2.020   1.954   3.934  2.0219  1.4666  0.9113
 1881TIP3   OH2 5606   3.559   2.119   3.644 -0.5429  0.7179  0.3832
 1881TIP3    H1 5607   3.542   2.069   3.564 -0.1719 -1.8564  1.8300
 1881TIP3    H2 5608   3.506   2.198   3.634 -1.6191 -0.1927 -1.7503
 1882TIP3   OH2 5609   4.601   4.232   4.656  0.0610 -0.1139  0.5189
 1882TIP3    H1 5610   4.563   4.315   4.628 -0.5167 -0.5848 -0.1050
 1882TIP3    H2 5611   4.583   4.171   4.585 -0.1035 -0.9541  1.2569
 1883TIP3   OH2 5612   1.759   6.538   0.013 -0.4008  0.6048 -0.0137
 1883TIP3    H1 5613   1.736   6.535   0.105  2.8810  0.9824  0.9474
 1883TIP3    H2 5614   1.743   6.449  -0.019 -0.8840  0.2765  1.1025
 1884TIP3   OH2 5615   5.985   1.647   0.574  0.1607 -0.0704 -0.3088
 1884TIP3    H1 5616   5.908   1.591   0.561 -0.3710  0.8112 -1.0288
 1884TIP3    H2 5617   6.040   1.631   0.498  0.5019 -0.3762 -0.0048
 1885TIP3   OH2 5618   6.423   1.500   0.963  0.0591 -0.3584 -0.1941
 1885TIP3    H1 5619   6.472   1.582   0.957 -0.8522  0.0899 -3.1463
 1885TIP3    H2 5620   6.389   1.499   1.053  1.6603  1.5361  0.5011
 1886TIP3   OH2 5621   5.916   5.277   0.658 -0.0676  0.5881 -0.6277
 1886TIP3    H1 5622   5.895   5.370   0.654  1.5039  0.9650 -0.5595
 1886TIP3    H2 5623   6.003   5.273   0.698 -0.1574 -0.9190 -0.5093
 1887TIP3   OH2 5624   6.430   4.876   1.263  0.0598  0.6844 -0.5608
 1887TIP3    H1 5625   6.340   4.866   1.234 -0.1940 -1.9639  0.8582
 1887TIP3    H2 5626   6.430   4.956   1.315 -1.0900  1.4774 -1.7103
 1888TIP3   OH2 5627   2.923   1.541   2.872  0.3471 -0.5228  0.4051
 1888TIP3    H1 5628   3.018   1.551   2.862  0.2372 -0.4745 -0.6557
 1888TIP3    H2 5629   2.891   1.525   2.783 -0.9016  1.6178  0.3900
 1889TIP3   OH2 5630   2.072   3.431   0.711  0.7659 -0.0611 -0.5339
 1889TIP3    H1 5631   2.127   3.352   0.712 -0.4248 -0.9063 -0.0852
 1889TIP3    H2 5632   1.991   3.404   0.753 -0.0024  1.1712 -1.1768
 1890TIP3   OH2 5633   2.285   6.648   2.293 -1.0688 -0.8358  0.5255
 1890TIP3    H1 5634   2.201   6.639   2.248 -0.5276 -0.2925 -0.6380
 1890TIP3    H2 5635   2.330   6.566   2.276 -1.4581 -1.2351  1.3782
 1891TIP3   OH2 5636   2.681   0.096   0.822  0.0346  0.2051 -0.1882
 1891TIP3    H1 5637   2.633   0.078   0.903  1.4291 -1.5259  0.2909
 1891TIP3    H2 5638   2.747   0.160   0.847  0.8717 -0.7945  0.2225
 1892TIP3   OH2 5639   1.936   3.884   1.864 -0.0167  0.5859  0.3094
 1892TIP3    H1 5640   1.995   3.862   1.792 -0.7455  1.4430 -0.5803
 1892TIP3    H2 5641   1.991   3.876   1.942  0.9681  0.2533 -0.3856
 1893TIP3   OH2 5642   4.333   4.338   3.290 -0.1413 -0.0498  0.6720
 1893TIP3    H1 5643   4.355   4.407   3.226  0.1562 -0.4725  0.3102
 1893TIP3    H2 5644   4.244   4.359   3.318 -0.5637 -0.2892 -0.4568
 1894TIP3   OH2 5645   2.854   3.312   3.004 -0.1977 -0.4375  0.0460
 1894TIP3    H1 5646   2.940   3.281   3.031 -0.6592 -1.3854  0.5086
 1894TIP3    H2 5647   2.871   3.390   2.952  1.0421 -1.5800 -1.3273
 1895TIP3   OH2 5648   3.549   1.937   3.429 -0.6529  0.9030  0.3200
 1895TIP3    H1 5649   3.528   1.877   3.501  2.1968  0.4924  0.9331
 1895TIP3    H2 5650   3.583   1.880   3.360 -1.7958  1.4599 -0.7296
 1896TIP3   OH2 5651   6.337   6.038   3.584 -0.0219  0.0783  0.2586
 1896TIP3    H1 5652   6.275   6.094   3.631 -1.1406 -1.2736  0.4372
 1896TIP3    H2 5653   6.332   6.066   3.493 -0.8963 -0.0174  0.2758
 1897TIP3   OH2 5654   0.637   3.518   0.272 -0.6258  0.1224  0.1295
 1897TIP3    H1 5655   0.576   3.455   0.234 -2.1015  0.0174  2.4244
 1897TIP3    H2 5656   0.624   3.509   0.367  1.9546  1.1470  0.6650
 1898TIP3   OH2 5657   3.846   2.400   2.717 -0.0564 -0.2535  0.1155
 1898TIP3    H1 5658   3.895   2.368   2.641  0.0359 -1.0850  0.5141
 1898TIP3    H2 5659   3.771   2.340   2.724 -0.6337  0.4561  0.0550
 1899TIP3   OH2 5660   5.068   5.973   5.128  0.0524 -0.0351  0.4250
 1899TIP3    H1 5661   5.077   5.979   5.223 -1.5055  1.3680  0.5349
 1899TIP3    H2 5662   4.974   5.979   5.112  0.3923  2.5043 -1.3128
 1900TIP3   OH2 5663   5.421   6.357   0.411 -0.3412  0.5548 -0.9258
 1900TIP3    H1 5664   5.380   6.275   0.386  1.4364 -0.7523  0.2117
 1900TIP3    H2 5665   5.506   6.357   0.367  1.2637 -0.0623  1.9387
 1901TIP3   OH2 5666   0.741   0.057   0.317 -0.1917  0.2739  0.6382
 1901TIP3    H1 5667   0.670   0.033   0.258 -0.1304  0.7154  0.3756
 1901TIP3    H2 5668   0.818   0.064   0.260 -0.5678  2.9056  0.3355
 1902TIP3   OH2 5669   6.977   0.019   1.464 -0.0216  0.3870  0.1952
 1902TIP3    H1 5670   7.039  -0.054   1.460  1.4023  1.4724  1.4293
 1902TIP3    H2 5671   7.031   0.097   1.451 -1.4389  1.2711 -0.5640
 1903TIP3   OH2 5672   1.593   1.200   2.687 -0.0678  0.0777 -0.5792
 1903TIP3    H1 5673   1.580   1.220   2.780 -1.4771  1.7103 -1.0806
 1903TIP3    H2 5674   1.629   1.281   2.650 -1.1455  0.0294 -1.7718
 1904TIP3   OH2 5675   2.768   2.358   1.356  0.3188 -0.5319  0.5276
 1904TIP3    H1 5676   2.801   2.347   1.267  0.8669 -0.7801  0.7585
 1904TIP3    H2 5677   2.769   2.270   1.394 -0.5252 -0.5313  0.5740
 1905TIP3   OH2 5678   0.557   1.593   2.527 -0.1056 -0.4086  0.2015
 1905TIP3    H1 5679   0.539   1.640   2.446 -0.3983 -1.3467 -0.3003
 1905TIP3    H2 5680   0.573   1.503   2.499  0.3021 -0.6372  1.1420
 1906TIP3   OH2 5681   1.549   1.152   0.164  0.5036  0.1126 -0.0717
 1906TIP3    H1 5682   1.604   1.176   0.089  0.5941  0.2748  0.0465
 1906TIP3    H2 5683   1.610   1.113   0.227  0.3148 -0.6878 -0.3778
 1907TIP3   OH2 5684   0.041   3.928   5.593 -0.2834 -0.4616  0.4781
 1907TIP3    H1 5685   0.010   3.839   5.607  1.5140 -0.8446  2.6950
 1907TIP3    H2 5686  -0.023   3.983   5.639 -0.0304 -0.8551  1.3198
 1908TIP3   OH2 5687   3.937   3.728   2.147 -0.5072 -0.0086 -0.1786
 1908TIP3    H1 5688   3.948   3.714   2.053  0.3323  0.1373 -0.1082
 1908TIP3    H2 5689   3.864   3.671   2.171 -1.0922  0.3585 -1.0142
 1909TIP3   OH2 5690   0.262   0.330   4.758 -0.2468 -0.0627 -0.2645
 1909TIP3    H1 5691   0.313   0.261   4.798  0.0703 -1.4392 -2.8511
 1909TIP3    H2 5692   0.326   0.398   4.737 -0.3302  0.4195  0.9394
 1910TIP3   OH2 5693   2.523   4.234   2.774 -0.1569 -0.1530 -0.3232
 1910TIP3    H1 5694   2.609   4.202   2.747 -0.9345 -2.3727 -0.3319
 1910TIP3    H2 5695   2.467   4.157   2.775 -2.3923  1.3478 -1.0941
 1911TIP3   OH2 5696   4.176   1.306   5.330 -0.4657  0.3831  0.7696
 1911TIP3    H1 5697   4.142   1.323   5.418 -1.5425  0.7643  0.2804
 1911TIP3    H2 5698   4.138   1.374   5.275  1.3674  1.0546  0.2495
 1912TIP3   OH2 5699   3.382   1.460   4.679 -0.0095 -0.1240 -0.3079
 1912TIP3    H1 5700   3.373   1.556   4.681  2.4010  0.1519 -0.4226
 1912TIP3    H2 5701   3.419   1.441   4.593 -1.4214 -1.3070 -0.6900
 1913TIP3   OH2 5702   3.905   1.188   4.428  0.0448 -0.6760 -0.0439
 1913TIP3    H1 5703   3.855   1.143   4.496  1.4358 -3.9322 -0.9742
 1913TIP3    H2 5704   3.993   1.197   4.464 -0.2486  1.8526  0.2515
 1914TIP3   OH2 5705   3.139   0.201   3.468  0.5656  0.3156  0.4045
 1914TIP3    H1 5706   3.172   0.287   3.494  2.0067 -0.1660  0.2527
 1914TIP3    H2 5707   3.135   0.152   3.550  2.2796 -0.2728  0.1773
 1915TIP3   OH2 5708   5.792   3.566   5.531 -0.0440 -0.3580 -0.4016
 1915TIP3    H1 5709   5.737   3.497   5.493  1.6311 -1.6303 -0.6162
 1915TIP3    H2 5710   5.792   3.635   5.465 -0.1370 -0.9946 -1.0808
 1916TIP3   OH2 5711   1.560   5.978   3.044 -0.5129  0.2804  0.2236
 1916TIP3    H1 5712   1.491   6.040   3.018 -0.8212 -0.0497  0.2381
 1916TIP3    H2 5713   1.583   6.003   3.134 -0.6127  0.3945  0.2170
 1917TIP3   OH2 5714   2.155   1.967   5.606 -0.1042  0.1603  0.5117
 1917TIP3    H1 5715   2.242   1.948   5.640 -0.1272 -0.6109  0.1579
 1917TIP3    H2 5716   2.113   1.881   5.598 -1.0006  0.5433  0.9507
 1918TIP3   OH2 5717   2.573   0.754   5.600 -0.8883  0.1537 -0.4795
 1918TIP3    H1 5718   2.629   0.774   5.525  0.6837  1.3074  0.9288
 1918TIP3    H2 5719   2.626   0.697   5.656 -0.8723  1.6406  1.1167
 1919TIP3   OH2 5720   5.841   5.352   0.073  0.3481  0.3277  0.1714
 1919TIP3    H1 5721   5.784   5.348  -0.003  1.0171  0.6166 -0.3519
 1919TIP3    H2 5722   5.907   5.285   0.057  0.2660  0.1152  0.6925
 1920TIP3   OH2 5723   4.342   2.341   0.601 -0.2568 -0.0427 -0.4361
 1920TIP3    H1 5724   4.394   2.286   0.661 -1.1674  0.0662  0.4784
 1920TIP3    H2 5725   4.251   2.322   0.625 -0.5985  1.2451 -0.6838
 1921TIP3   OH2 5726   6.452   3.824   4.017  0.2133  0.1686 -0.5395
 1921TIP3    H1 5727   6.358   3.808   4.007  0.3849 -1.2112 -0.0896
 1921TIP3    H2 5728   6.457   3.908   4.062 -0.7941  0.4762 -0.9656
 1922TIP3   OH2 5729   2.954   6.134   5.610 -0.4505 -0.3751 -0.4019
 1922TIP3    H1 5730   3.047   6.113   5.605 -0.0112  1.2482  0.4583
 1922TIP3    H2 5731   2.912   6.068   5.554  1.3141 -0.3660 -1.8245
 1923TIP3   OH2 5732   2.825   4.434   5.428  0.0485 -0.3154  0.1813
 1923TIP3    H1 5733   2.879   4.510   5.449 -0.9568  0.1578  1.1791
 1923TIP3    H2 5734   2.821   4.384   5.510 -0.6142 -0.5987 -0.0172
 1924TIP3   OH2 5735   6.207   0.745   3.653 -0.0315 -0.2146  0.1997
 1924TIP3    H1 5736   6.270   0.763   3.723 -0.2289 -0.5420  0.4605
 1924TIP3    H2 5737   6.187   0.652   3.661  0.7635 -0.5145 -0.9720
 1925TIP3   OH2 5738   0.447   0.860   3.938 -0.7359 -0.5411 -0.2678
 1925TIP3    H1 5739   0.409   0.927   3.995  2.7275 -1.3861  3.5862
 1925TIP3    H2 5740   0.393   0.782   3.953 -1.2704 -0.1250 -0.0116
 1926TIP3   OH2 5741   3.421   4.979   1.653  0.0636  0.0563 -0.3415
 1926TIP3    H1 5742   3.345   5.037   1.653 -0.6556 -0.8351 -1.2320
 1926TIP3    H2 5743   3.450   4.977   1.744 -0.7756  0.6788 -0.0480
 1927TIP3   OH2 5744   5.662   4.617   1.526 -0.2001 -0.0269 -0.1472
 1927TIP3    H1 5745   5.659   4.672   1.604 -0.1356  0.5058 -0.5209
 1927TIP3    H2 5746   5.637   4.675   1.455 -1.1728 -0.7387 -0.4020
 1928TIP3   OH2 5747   1.346   4.107   3.315  0.3096 -0.0582  0.3369
 1928TIP3    H1 5748   1.334   4.013   3.307  2.6802 -0.3710 -0.3848
 1928TIP3    H2 5749   1.367   4.137   3.227 -0.7336  1.2238  0.4932
 1929TIP3   OH2 5750   4.799   1.625   5.563  0.1256  0.3053 -0.2184
 1929TIP3    H1 5751   4.821   1.717   5.552  0.8534  0.1864  0.2035
 1929TIP3    H2 5752   4.877   1.578   5.534  0.1937 -0.1434  0.6584
 1930TIP3   OH2 5753   4.894   4.703   4.129  0.2211 -0.5144 -0.4919
 1930TIP3    H1 5754   4.884   4.662   4.043  2.1697 -2.6744  0.2095
 1930TIP3    H2 5755   4.884   4.632   4.192  1.5520  0.4676  0.9155
 1931TIP3   OH2 5756   6.285   4.456   2.901 -0.0443 -0.5837 -0.2968
 1931TIP3    H1 5757   6.322   4.493   2.820  2.5891 -0.2834  0.9353
 1931TIP3    H2 5758   6.200   4.419   2.874  0.6661 -0.3818 -3.1521
 1932TIP3   OH2 5759   6.137   4.838   1.809  0.0718  0.3903 -0.3498
 1932TIP3    H1 5760   6.129   4.930   1.834  2.0868  0.4927  0.0969
 1932TIP3    H2 5761   6.089   4.790   1.876  1.0747  0.9918  0.8362
 1933TIP3   OH2 5762   2.977   1.641   4.178  0.2384 -0.0566 -0.0342
 1933TIP3    H1 5763   3.070   1.646   4.157  0.1092 -0.0050 -0.6117
 1933TIP3    H2 5764   2.945   1.731   4.171 -0.3985 -0.4030 -2.4882
 1934TIP3   OH2 5765   6.889   1.525   2.946 -0.0668  0.4050  0.4258
 1934TIP3    H1 5766   6.803   1.544   2.909 -0.5591 -2.6551 -0.2997
 1934TIP3    H2 5767   6.951   1.541   2.874 -0.1476  1.5287  0.6005
 1935TIP3   OH2 5768   3.222   1.891   3.686 -0.2558 -0.7365 -0.4653
 1935TIP3    H1 5769   3.253   1.857   3.770 -1.1343  0.4036  0.3505
 1935TIP3    H2 5770   3.210   1.813   3.631  1.5617 -1.3968  0.0071
 1936TIP3   OH2 5771   2.999   2.890   2.698  0.0343  0.0793  0.0046
 1936TIP3    H1 5772   3.048   2.810   2.717  0.8267 -0.3107 -3.1180
 1936TIP3    H2 5773   3.051   2.960   2.738  0.5813 -0.7481  0.7755
 1937TIP3   OH2 5774   4.022   5.215   4.324  0.5455  0.5626  0.4149
 1937TIP3    H1 5775   4.026   5.310   4.313  0.5918  0.5077 -0.0401
 1937TIP3    H2 5776   4.056   5.179   4.242 -0.7081  0.1463  0.0477
 1938TIP3   OH2 5777   5.939   2.819   3.984  0.1231  0.0205 -0.7129
 1938TIP3    H1 5778   5.897   2.835   4.069 -0.1841  1.1886 -1.0775
 1938TIP3    H2 5779   5.904   2.735   3.956  0.2380 -0.3972  0.3163
 1939TIP3   OH2 5780   3.077   1.314   3.806  0.2238 -0.6753  0.4881
 1939TIP3    H1 5781   3.030   1.269   3.876  1.8169 -0.0808  1.9971
 1939TIP3    H2 5782   3.169   1.302   3.826  0.7518 -0.8245 -1.7629
 1940TIP3   OH2 5783   6.385   3.918   0.018  0.1992  0.2200 -0.0905
 1940TIP3    H1 5784   6.291   3.913   0.006  0.1487 -0.1459  0.4320
 1940TIP3    H2 5785   6.416   3.828   0.006  0.2545 -0.0063  1.5045
 1941TIP3   OH2 5786   3.994   0.166   5.523  0.5713 -0.0972 -0.7771
 1941TIP3    H1 5787   4.050   0.163   5.601  1.0205  0.5567 -1.0650
 1941TIP3    H2 5788   3.968   0.258   5.516  0.6354 -0.1252 -1.4670
 1942TIP3   OH2 5789   5.248   4.280   4.919  1.1387 -0.3676  0.0587
 1942TIP3    H1 5790   5.189   4.281   4.994  1.3464 -0.6250  0.2253
 1942TIP3    H2 5791   5.190   4.286   4.843  0.7698 -2.1797  0.1467
 1943TIP3   OH2 5792   3.938   5.491   5.716 -0.5760 -0.0739 -0.3161
 1943TIP3    H1 5793   3.942   5.586   5.715 -0.7763 -0.0717 -1.2866
 1943TIP3    H2 5794   3.867   5.469   5.656  0.3635 -0.8782 -1.1566
 1944TIP3   OH2 5795   0.293   2.570   2.322  0.4073  0.0530  0.2278
 1944TIP3    H1 5796   0.289   2.549   2.229 -0.6591 -0.6227  0.4074
 1944TIP3    H2 5797   0.386   2.581   2.340  0.8147 -1.8328 -0.4926
 1945TIP3   OH2 5798   5.259   0.286   4.558 -0.0064  0.2825 -0.2751
 1945TIP3    H1 5799   5.187   0.332   4.514 -1.1984 -0.8220  0.4300
 1945TIP3    H2 5800   5.245   0.194   4.537  0.2393 -0.1155  1.2087
 1946TIP3   OH2 5801   6.371   5.067   0.834  0.4047 -0.0353  0.4868
 1946TIP3    H1 5802   6.352   4.998   0.899 -0.6014  0.8026  1.1198
 1946TIP3    H2 5803   6.368   5.021   0.750 -2.6954 -0.4050  0.6687
 1947TIP3   OH2 5804   2.537   1.946   1.913  0.6090 -0.0347 -0.1474
 1947TIP3    H1 5805   2.473   2.007   1.877  2.2438  1.4314 -0.6534
 1947TIP3    H2 5806   2.621   1.975   1.880  1.4893 -2.5578 -0.3783
 1948TIP3   OH2 5807   1.045   5.434   5.166 -0.5053  0.3252 -0.4336
 1948TIP3    H1 5808   1.138   5.455   5.161 -0.0842 -0.4155  2.3627
 1948TIP3    H2 5809   1.043   5.345   5.200 -2.2522  0.4787 -0.0593
 1949TIP3   OH2 5810   6.343   0.259   0.407  0.5121  0.2860  0.3573
 1949TIP3    H1 5811   6.306   0.215   0.484 -0.7445 -0.7674 -0.7975
 1949TIP3    H2 5812   6.390   0.191   0.360  0.6943  0.7637 -0.1662
 1950TIP3   OH2 5813   3.027   4.126   1.091 -0.0397  0.0314  0.2811
 1950TIP3    H1 5814   2.954   4.099   1.034 -0.9413  2.3591  0.1934
 1950TIP3    H2 5815   3.097   4.064   1.072 -1.4496 -1.2938 -0.8722
 1951TIP3   OH2 5816   3.422   0.137   2.584 -0.0720 -0.4228 -0.5578
 1951TIP3    H1 5817   3.390   0.101   2.667  1.5808 -0.2374  0.1874
 1951TIP3    H2 5818   3.514   0.156   2.599  0.2319 -0.2116 -2.3924
 1952TIP3   OH2 5819   5.686   4.925   5.580  0.7108  0.0697 -0.1541
 1952TIP3    H1 5820   5.717   4.860   5.516  1.2293 -0.2776  0.4420
 1952TIP3    H2 5821   5.737   5.004   5.561  2.7242 -0.7599  1.4147
 1953TIP3   OH2 5822   5.586   4.182   5.832  0.7480 -0.9089  0.2625
 1953TIP3    H1 5823   5.596   4.277   5.834  2.1110 -0.9589 -1.8722
 1953TIP3    H2 5824   5.506   4.166   5.883  1.1561  1.2380  1.7441
 1954TIP3   OH2 5825   2.997   5.050   5.672 -0.0285 -0.4910 -0.3722
 1954TIP3    H1 5826   3.028   5.104   5.744 -1.0014  1.4836 -1.3607
 1954TIP3    H2 5827   3.075   5.005   5.640  0.7581  0.1000  0.6413
 1955TIP3   OH2 5828   6.866   3.855   1.705  0.2937  0.6830  0.2352
 1955TIP3    H1 5829   6.818   3.908   1.641  0.5299  2.0783  1.1564
 1955TIP3    H2 5830   6.802   3.794   1.740  0.1807 -0.1633 -1.3582
 1956TIP3   OH2 5831   2.220   2.010   1.341  0.5208  0.5233  0.2535
 1956TIP3    H1 5832   2.146   2.060   1.305 -0.2546 -0.8921 -0.2071
 1956TIP3    H2 5833   2.287   2.015   1.273 -0.3230 -0.7478 -0.7235
 1957TIP3   OH2 5834   5.711   4.749   1.046  0.4956  0.3133 -0.2461
 1957TIP3    H1 5835   5.679   4.824   0.997  1.3311 -0.1796 -1.5939
 1957TIP3    H2 5836   5.665   4.674   1.009 -0.4040  0.1403  1.1568
 1958TIP3   OH2 5837   1.925   5.789   4.946  0.1801 -0.1527 -0.1544
 1958TIP3    H1 5838   1.899   5.866   4.996  0.8143 -0.4710  0.6992
 1958TIP3    H2 5839   1.859   5.781   4.877  0.5606  1.6463 -0.7948
 1959TIP3   OH2 5840   0.076   4.026   3.852 -0.5711 -0.6228  0.0326
 1959TIP3    H1 5841   0.075   4.021   3.948  0.5285  0.1426  0.1048
 1959TIP3    H2 5842   0.072   4.120   3.833  0.4241 -0.6993 -0.6278
 1960TIP3   OH2 5843   3.416   5.693   1.642  1.1042  0.6374 -0.3925
 1960TIP3    H1 5844   3.454   5.753   1.706  0.7183 -1.0717  1.5714
 1960TIP3    H2 5845   3.322   5.693   1.662  0.8313  0.7639 -1.6008
 1961TIP3   OH2 5846   5.739   5.437   2.568  0.1549  0.4738  0.3193
 1961TIP3    H1 5847   5.655   5.481   2.580 -0.1000 -0.5663  2.8850
 1961TIP3    H2 5848   5.750   5.434   2.473 -2.4177  1.1601 -0.0940
 1962TIP3   OH2 5849   0.224   2.394   2.897  0.3341  0.0053  0.2504
 1962TIP3    H1 5850   0.294   2.328   2.898  0.5845  0.2762  0.6596
 1962TIP3    H2 5851   0.150   2.350   2.938  0.6215  0.1054  0.8881
 1963TIP3   OH2 5852   1.230   2.034   4.164  0.0318  0.2837 -0.2855
 1963TIP3    H1 5853   1.306   1.986   4.196 -0.6069 -0.1866  0.5554
 1963TIP3    H2 5854   1.178   1.968   4.118 -0.8908  0.1233  0.9437
 1964TIP3   OH2 5855   2.821   0.185   4.644  0.2227  0.0417  0.1590
 1964TIP3    H1 5856   2.914   0.181   4.622  0.1416 -0.2515 -0.1544
 1964TIP3    H2 5857   2.804   0.277   4.662  0.9058 -0.0946  1.7069
 1965TIP3   OH2 5858   2.977   1.731   5.856  0.5467 -0.1447 -0.2288
 1965TIP3    H1 5859   3.018   1.812   5.828  0.6458 -0.0540  0.1811
 1965TIP3    H2 5860   2.921   1.706   5.782  0.3925  0.3799 -0.2905
 1966TIP3   OH2 5861   0.067   2.628   1.310  0.5190  0.0062  0.4433
 1966TIP3    H1 5862   0.094   2.536   1.314 -1.0282 -0.5430 -0.6230
 1966TIP3    H2 5863  -0.014   2.631   1.360 -0.0290  0.5308 -0.4498
 1967TIP3   OH2 5864   6.125   5.615   4.852 -0.2965 -0.5795 -0.5917
 1967TIP3    H1 5865   6.127   5.525   4.819  2.0549 -1.8835  2.5205
 1967TIP3    H2 5866   6.056   5.615   4.918  0.3064 -0.4194  0.0548
 1968TIP3   OH2 5867   1.995   4.450   1.947 -0.6222 -0.0802 -0.5184
 1968TIP3    H1 5868   1.979   4.356   1.939  0.0820 -0.2462 -0.0330
 1968TIP3    H2 5869   1.913   4.485   1.982 -0.0475 -0.9093  1.8653
 1969TIP3   OH2 5870   6.047   1.462   2.003  0.2586  0.3998  0.7126
 1969TIP3    H1 5871   6.109   1.391   2.018 -0.5800 -0.9019 -1.5750
 1969TIP3    H2 5872   6.081   1.509   1.927 -2.1353 -1.2191 -1.5329
 1970TIP3   OH2 5873   3.045   5.104   3.605  0.5521  0.0221  0.6665
 1970TIP3    H1 5874   3.095   5.162   3.661  2.5537 -3.0200  2.2971
 1970TIP3    H2 5875   2.968   5.080   3.658 -0.5890  1.5073 -0.2347
 1971TIP3   OH2 5876   7.041   0.338   1.604  0.3148  0.1564 -0.2518
 1971TIP3    H1 5877   7.012   0.356   1.693  0.7380 -0.7764  0.0904
 1971TIP3    H2 5878   6.960   0.321   1.556  0.0645  0.9424 -0.1200
 1972TIP3   OH2 5879   0.216   3.377   0.847  0.1461 -0.0949 -0.0425
 1972TIP3    H1 5880   0.220   3.464   0.807  2.4539  0.1963  0.6585
 1972TIP3    H2 5881   0.190   3.394   0.938 -1.9547 -0.4446 -0.5296
 1973TIP3   OH2 5882   6.698   0.455   4.872 -0.0644  0.5049 -0.1973
 1973TIP3    H1 5883   6.789   0.458   4.901  0.6827  1.6629 -2.3835
 1973TIP3    H2 5884   6.671   0.547   4.869 -0.5265  0.3524 -1.7162
 1974TIP3   OH2 5885   3.096   5.778   4.660 -0.2781 -0.0548  0.1257
 1974TIP3    H1 5886   3.170   5.732   4.619  0.0387  0.1112  0.5018
 1974TIP3    H2 5887   3.105   5.869   4.630 -1.6020 -0.4412 -1.5995
 1975TIP3   OH2 5888   2.735   0.763   3.060 -0.5516 -0.3009 -0.7962
 1975TIP3    H1 5889   2.728   0.858   3.049 -0.7685 -0.2403 -0.1884
 1975TIP3    H2 5890   2.645   0.732   3.051 -0.3619 -0.5751 -1.9881
 1976TIP3   OH2 5891   5.791   2.094   3.821 -0.4857 -0.8463 -0.5429
 1976TIP3    H1 5892   5.838   2.117   3.901 -1.0278  0.1739 -0.5075
 1976TIP3    H2 5893   5.845   2.025   3.781  0.7816 -0.0486 -0.2674
 1977TIP3   OH2 5894   6.071   2.398   2.544  0.7013  0.3738 -0.2068
 1977TIP3    H1 5895   6.007   2.388   2.474 -0.4647  2.5913  0.4524
 1977TIP3    H2 5896   6.154   2.372   2.505 -0.2406 -0.4216 -1.7570
 1978TIP3   OH2 5897   0.114   6.505   4.315 -0.5167 -0.0701 -0.2248
 1978TIP3    H1 5898   0.172   6.448   4.263  0.0385  0.9690 -0.7902
 1978TIP3    H2 5899   0.143   6.493   4.405  1.0922  0.9382 -0.5593
 1979TIP3   OH2 5900   1.815   3.922   5.281  0.3342 -0.2621 -0.1050
 1979TIP3    H1 5901   1.849   3.965   5.359  1.3219 -0.1910 -0.5589
 1979TIP3    H2 5902   1.739   3.873   5.311  0.9881 -0.6284  0.9960
 1980TIP3   OH2 5903   2.693   1.034   5.712  0.0682 -0.0222 -0.4664
 1980TIP3    H1 5904   2.597   1.042   5.714  0.1122  0.6486 -0.8485
 1980TIP3    H2 5905   2.714   1.034   5.619  0.4035 -0.6741 -0.3922
 1981TIP3   OH2 5906   0.860   3.116   3.987 -0.2938  0.0356 -0.0888
 1981TIP3    H1 5907   0.933   3.161   3.945  0.4634 -0.1395  0.9816
 1981TIP3    H2 5908   0.794   3.184   4.001  0.7346  0.8177  1.2850
 1982TIP3   OH2 5909   5.059   3.575   1.419 -0.0699 -0.0230 -0.1111
 1982TIP3    H1 5910   5.114   3.516   1.368  1.5193  0.6248  0.7680
 1982TIP3    H2 5911   5.063   3.658   1.372 -1.4408 -0.3144 -0.7770
 1983TIP3   OH2 5912   5.324   5.923   1.706  0.7466  0.1907 -0.3463
 1983TIP3    H1 5913   5.418   5.917   1.688  0.5377 -0.5551 -1.2865
 1983TIP3    H2 5914   5.316   5.997   1.766  1.8717  0.5810 -0.6440
 1984TIP3   OH2 5915   3.167   4.289   0.607 -0.4567  0.1459  0.3104
 1984TIP3    H1 5916   3.211   4.234   0.543  2.4093  0.2319  2.0414
 1984TIP3    H2 5917   3.197   4.378   0.586 -1.3952  0.4879  0.3568
 1985TIP3   OH2 5918   4.479   6.492   4.125 -0.0784  0.4690 -0.5719
 1985TIP3    H1 5919   4.421   6.460   4.056  1.7563 -2.8691 -0.7711
 1985TIP3    H2 5920   4.503   6.415   4.175  3.0598  1.8524  0.3548
 1986TIP3   OH2 5921   6.775   1.248   3.638 -0.0069 -0.1079  0.2633
 1986TIP3    H1 5922   6.711   1.218   3.573 -0.0318  0.0475  0.2153
 1986TIP3    H2 5923   6.822   1.320   3.595  1.2302 -1.1854 -0.2532
 1987TIP3   OH2 5924   3.373   3.558   0.246 -0.0244  0.0131 -0.2385
 1987TIP3    H1 5925   3.392   3.518   0.331  2.1272 -0.2994 -0.8147
 1987TIP3    H2 5926   3.367   3.484   0.186 -0.4532  0.3082 -0.5702
 1988TIP3   OH2 5927   5.731   3.394   3.004  0.4071  0.7793 -0.1715
 1988TIP3    H1 5928   5.695   3.480   3.026 -2.6365  0.0944 -1.9622
 1988TIP3    H2 5929   5.675   3.331   3.050  1.0665 -0.3092 -0.8027
 1989TIP3   OH2 5930   1.202   0.923   5.833  0.5496 -0.3491  0.0410
 1989TIP3    H1 5931   1.144   0.998   5.818 -0.8788 -1.1112  1.4278
 1989TIP3    H2 5932   1.143   0.848   5.837  2.0628 -1.8688 -2.8782
 1990TIP3   OH2 5933   2.692   0.018   3.949 -0.4194 -0.0094  0.3171
 1990TIP3    H1 5934   2.660  -0.015   4.033 -1.3629 -1.0364 -0.4204
 1990TIP3    H2 5935   2.669   0.111   3.949 -2.4573 -0.4819  0.2816
 1991TIP3   OH2 5936   1.130   4.097   4.163  0.0735 -0.3591 -0.0666
 1991TIP3    H1 5937   1.213   4.052   4.150  0.8027  0.5292  1.2876
 1991TIP3    H2 5938   1.072   4.031   4.200  1.3729 -0.0759  2.6885
 1992TIP3   OH2 5939   1.538   4.788   5.063  0.1164  0.3008 -0.6030
 1992TIP3    H1 5940   1.597   4.861   5.042  1.6479 -0.7562 -0.1997
 1992TIP3    H2 5941   1.463   4.800   5.005  0.6273  1.8343 -0.9881
 1993TIP3   OH2 5942   2.349   4.324   3.834  0.0542 -0.2487  0.5504
 1993TIP3    H1 5943   2.348   4.409   3.879 -1.9546  0.2207 -0.2777
 1993TIP3    H2 5944   2.380   4.263   3.901  0.8430  1.0087  1.3912
 1994TIP3   OH2 5945   5.415   2.364   1.002 -0.0591 -0.0302  0.6291
 1994TIP3    H1 5946   5.325   2.392   1.018  0.2700  2.7236 -1.6393
 1994TIP3    H2 5947   5.443   2.415   0.926  3.4344 -0.7754  1.2597
 1995TIP3   OH2 5948   2.984   4.949   2.544 -0.4538 -0.5238 -0.1185
 1995TIP3    H1 5949   2.986   4.854   2.549 -0.1895 -0.5870 -1.1714
 1995TIP3    H2 5950   2.893   4.973   2.558 -0.8844 -1.0735 -1.7746
 1996TIP3   OH2 5951   5.342   4.383   4.474 -0.2228 -0.3830 -0.0192
 1996TIP3    H1 5952   5.296   4.302   4.494  0.2220 -0.6653 -0.1436
 1996TIP3    H2 5953   5.325   4.439   4.550  1.2341 -1.3489  1.0873
 1997TIP3   OH2 5954   6.863   4.805   1.334  0.7622 -0.1267 -0.0483
 1997TIP3    H1 5955   6.890   4.809   1.426  0.7844  1.0996 -0.0955
 1997TIP3    H2 5956   6.834   4.714   1.322 -0.1123 -0.0778  1.4078
 1998TIP3   OH2 5957   5.473   1.604   2.645  0.5223 -0.1249  0.2596
 1998TIP3    H1 5958   5.382   1.598   2.616  0.1370 -2.0781  1.7280
 1998TIP3    H2 5959   5.468   1.638   2.734  1.1355 -1.0818  0.6787
 1999TIP3   OH2 5960   2.770   4.238   1.998  0.3182  0.6337  0.0389
 1999TIP3    H1 5961   2.790   4.309   1.937 -2.2163 -0.1809 -1.8818
 1999TIP3    H2 5962   2.825   4.165   1.969  0.8076  0.9232  0.2175
 2000TIP3   OH2 5963   4.157   4.746   4.538  0.3482 -0.0220 -0.2881
 2000TIP3    H1 5964   4.184   4.795   4.615  1.9028  0.6459 -1.2187
 2000TIP3    H2 5965   4.212   4.667   4.539  0.7115  0.2135 -0.9421
 2001TIP3   OH2 5966   2.330   6.705   2.700  0.5778  0.4840  0.1979
 2001TIP3    H1 5967   2.339   6.696   2.795 -0.2227 -0.8480  0.1845
 2001TIP3    H2 5968   2.241   6.736   2.687  0.2696 -0.4916 -0.1373
 2002TIP3   OH2 5969   6.825   4.474   3.777 -0.0813  0.5029  0.2880
 2002TIP3    H1 5970   6.748   4.426   3.744  0.3765  0.1346 -0.2655
 2002TIP3    H2 5971   6.788   4.550   3.822 -0.8709 -0.7363  1.8444
 2003TIP3   OH2 5972   6.626   0.881   4.237 -0.2792  0.1144 -0.4268
 2003TIP3    H1 5973   6.621   0.965   4.191  0.4706  0.8443  0.7641
 2003TIP3    H2 5974   6.611   0.815   4.169  0.8406  1.1464 -1.7350
 2004TIP3   OH2 5975   6.307   0.039   0.602  0.5489  0.1472 -0.2604
 2004TIP3    H1 5976   6.402   0.038   0.612  0.5752  1.6298 -0.2308
 2004TIP3    H2 5977   6.275   0.091   0.675 -0.1803  0.7923 -1.0085
 2005TIP3   OH2 5978   6.264   0.538   5.034 -0.1869  0.0208 -0.5159
 2005TIP3    H1 5979   6.258   0.553   4.939  1.1201  0.1957 -0.5909
 2005TIP3    H2 5980   6.358   0.537   5.052 -0.4156 -0.2274  0.7547
 2006TIP3   OH2 5981   6.547   4.213   1.913 -0.5370  0.2839  0.1900
 2006TIP3    H1 5982   6.596   4.258   1.844  0.0924 -0.4250  0.1567
 2006TIP3    H2 5983   6.595   4.232   1.993 -1.4302  1.3414  0.4909
 2007TIP3   OH2 5984   5.210   4.355   0.630 -0.0395 -0.3566 -0.2014
 2007TIP3    H1 5985   5.184   4.312   0.548 -0.6717 -2.1788  0.8876
 2007TIP3    H2 5986   5.142   4.330   0.692 -0.2304  1.9970  0.6230
 2008TIP3   OH2 5987   5.012   5.651   5.830  0.2636  0.1478  0.5005
 2008TIP3    H1 5988   4.980   5.610   5.911 -0.6681  0.5830  0.3725
 2008TIP3    H2 5989   5.103   5.622   5.822 -0.4342 -2.1771  0.2412
 2009TIP3   OH2 5990   1.306   6.221   1.040 -0.2278 -0.2012 -0.7151
 2009TIP3    H1 5991   1.279   6.189   0.954 -0.9179  1.1550 -1.0391
 2009TIP3    H2 5992   1.357   6.300   1.022  0.7607 -0.6454  0.0719
 2010TIP3   OH2 5993   3.077   3.705   4.856  0.5508 -0.8567 -0.3734
 2010TIP3    H1 5994   3.051   3.694   4.948  1.0204  0.4184 -0.0635
 2010TIP3    H2 5995   2.996   3.695   4.806 -0.2052  0.9576  0.3989
 2011TIP3   OH2 5996   1.986   5.455   4.515  0.2507 -0.3679  0.2355
 2011TIP3    H1 5997   1.909   5.458   4.572 -0.4528 -1.2936 -0.6388
 2011TIP3    H2 5998   1.982   5.537   4.464  0.5022  0.1297  0.9954
 2012TIP3   OH2 5999   3.421   3.907   4.024  0.0945  0.3616  0.5799
 2012TIP3    H1 6000   3.485   3.837   4.011 -0.4085 -0.1698  0.8959
 2012TIP3    H2 6001   3.460   3.964   4.090  1.4679  1.5898 -1.2277
 2013TIP3   OH2 6002   5.490   2.204   1.942  0.5821  0.1745  0.1910
 2013TIP3    H1 6003   5.464   2.150   1.867  0.2713  1.1136 -0.3830
 2013TIP3    H2 6004   5.409   2.220   1.989  0.1433  2.5653 -1.2482
 2014TIP3   OH2 6005   1.852   1.157   4.489  0.5403  0.0055  0.4006
 2014TIP3    H1 6006   1.893   1.105   4.558 -0.6852 -1.3326  0.1642
 2014TIP3    H2 6007   1.760   1.133   4.493  0.1399  1.3208 -0.4941
 2015TIP3   OH2 6008   0.658   1.883   4.310  0.5965  0.1537 -0.3463
 2015TIP3    H1 6009   0.599   1.959   4.316  0.0719 -0.2838  0.0818
 2015TIP3    H2 6010   0.652   1.856   4.218 -0.7476 -0.5712 -0.0663
 2016TIP3   OH2 6011   0.865   6.636   2.556  0.1488 -0.7566  0.0317
 2016TIP3    H1 6012   0.956   6.661   2.572 -0.0278 -0.6752  1.0175
 2016TIP3    H2 6013   0.821   6.719   2.534  0.2446 -0.7334 -0.0694
 2017TIP3   OH2 6014   4.638   2.559   0.033  0.7425 -0.0854 -0.0696
 2017TIP3    H1 6015   4.711   2.587   0.089  0.3857 -0.8543  0.8125
 2017TIP3    H2 6016   4.658   2.467   0.012  0.5948  0.0377 -0.7752
 2018TIP3   OH2 6017   7.015   5.242   3.220  0.5922 -0.1674  0.0606
 2018TIP3    H1 6018   7.105   5.275   3.214  1.0752 -0.8553  2.5213
 2018TIP3    H2 6019   6.961   5.320   3.231  0.9938  0.1836 -0.4142
 2019TIP3   OH2 6020   2.006   6.109   2.580  0.3569  0.3050  0.1041
 2019TIP3    H1 6021   2.016   6.057   2.660  0.3299 -0.3629 -0.3139
 2019TIP3    H2 6022   1.911   6.114   2.567  0.3458  0.8207  0.3700
 2020TIP3   OH2 6023   2.985   4.219   4.694  0.1209 -0.2693 -0.8170
 2020TIP3    H1 6024   3.034   4.242   4.773 -0.5488  0.9566 -0.7381
 2020TIP3    H2 6025   2.944   4.135   4.715  1.2308 -0.7253 -0.4583
 2021TIP3   OH2 6026   6.107   1.452   5.632 -0.2847 -0.5733  0.0846
 2021TIP3    H1 6027   6.150   1.419   5.553  0.1531  0.0645  0.0505
 2021TIP3    H2 6028   6.075   1.539   5.607 -0.6766 -0.6170  0.4272
 2022TIP3   OH2 6029   0.461   2.694   1.021  0.1845  0.4738  0.0552
 2022TIP3    H1 6030   0.426   2.691   1.110  1.0728  1.4654  0.4699
 2022TIP3    H2 6031   0.384   2.699   0.964 -0.3723  1.0518  0.8387
 2023TIP3   OH2 6032   2.314   1.388   1.291  0.0429 -0.5343  0.4666
 2023TIP3    H1 6033   2.342   1.387   1.199  0.4928 -0.6441  0.6012
 2023TIP3    H2 6034   2.258   1.311   1.300 -2.5505  1.1053 -0.4775
 2024TIP3   OH2 6035   6.882   3.751   4.359  0.2887 -0.2118 -0.1350
 2024TIP3    H1 6036   6.937   3.825   4.383  1.0509 -0.3184 -1.4584
 2024TIP3    H2 6037   6.811   3.790   4.307 -1.1908 -0.0165  1.9065
 2025TIP3   OH2 6038   1.918   2.864   1.833  0.1917  0.0238  0.2782
 2025TIP3    H1 6039   1.857   2.890   1.903 -1.9521 -0.5523 -1.2863
 2025TIP3    H2 6040   1.999   2.842   1.879 -0.6937  0.9844  2.4429
 2026TIP3   OH2 6041   4.036   1.514   3.019  0.2230 -0.6387  0.0123
 2026TIP3    H1 6042   4.064   1.578   3.085  0.2835 -1.2672  0.6040
 2026TIP3    H2 6043   4.117   1.472   2.991  0.1303 -0.8035 -0.0094
 2027TIP3   OH2 6044   5.590   5.955   3.043  0.0239  0.8319  0.1822
 2027TIP3    H1 6045   5.576   5.974   2.951 -0.7067  0.5570  0.2216
 2027TIP3    H2 6046   5.545   6.026   3.089  0.7863  1.2253  0.3320
 2028TIP3   OH2 6047   5.132   0.100   1.609  0.1015  0.3689 -0.2937
 2028TIP3    H1 6048   5.209   0.116   1.554 -0.9781 -0.3144 -2.0706
 2028TIP3    H2 6049   5.059   0.134   1.559 -0.6864  2.2348  1.9482
 2029TIP3   OH2 6050   2.119   3.470   0.343 -1.0832  0.3584  0.1982
 2029TIP3    H1 6051   2.045   3.410   0.355 -0.5063 -0.0885  1.8845
 2029TIP3    H2 6052   2.142   3.497   0.432  1.6029 -0.5395 -0.1232
 2030TIP3   OH2 6053   5.921   1.026   3.671  0.2555  0.0831 -0.3813
 2030TIP3    H1 6054   5.861   1.100   3.665  0.1506 -0.0606 -1.2611
 2030TIP3    H2 6055   6.002   1.064   3.707 -0.4859  0.1890  1.2201
 2031TIP3   OH2 6056   3.010   3.314   5.411 -0.0041 -0.0482  0.0887
 2031TIP3    H1 6057   3.028   3.285   5.322 -0.2349  0.4713 -0.1330
 2031TIP3    H2 6058   2.973   3.402   5.401  2.4314  1.1581  0.8032
 2032TIP3   OH2 6059   0.438   1.090   5.864 -0.6669  0.8697 -0.6182
 2032TIP3    H1 6060   0.529   1.064   5.876 -0.0542  2.1226 -2.2718
 2032TIP3    H2 6061   0.423   1.158   5.930 -1.0717 -0.6902  1.0002
 2033TIP3   OH2 6062   6.396   1.556   4.801  0.1660  0.1184  0.5395
 2033TIP3    H1 6063   6.446   1.514   4.872 -1.0768 -1.6208  0.4540
 2033TIP3    H2 6064   6.344   1.623   4.844 -0.9602 -1.2648  1.4043
 2034TIP3   OH2 6065   0.166   0.634   1.491  0.1713 -0.1848  0.5295
 2034TIP3    H1 6066   0.128   0.717   1.519  2.0449  1.0531 -0.3803
 2034TIP3    H2 6067   0.111   0.607   1.417  0.7520  1.3731 -0.5281
 2035TIP3   OH2 6068   3.074   0.926   3.666 -0.4625  0.2473 -0.1925
 2035TIP3    H1 6069   3.029   0.890   3.742  0.9156 -1.2637 -0.0406
 2035TIP3    H2 6070   3.017   0.902   3.592  0.2157 -2.0794 -0.0614
 2036TIP3   OH2 6071   3.347   4.769   3.307 -0.3895  0.2235  0.5180
 2036TIP3    H1 6072   3.296   4.804   3.233 -3.0295 -1.5374  1.3573
 2036TIP3    H2 6073   3.316   4.819   3.383 -0.3345 -0.3879  0.9477
 2037TIP3   OH2 6074   6.245   5.858   0.510 -0.0427 -0.1786  0.5559
 2037TIP3    H1 6075   6.276   5.822   0.593 -0.1812  1.2471  1.2592
 2037TIP3    H2 6076   6.317   5.844   0.449  0.5238 -0.1879  1.2193
 2038TIP3   OH2 6077   0.405   4.159   3.459 -0.2662 -0.0292 -0.0223
 2038TIP3    H1 6078   0.346   4.131   3.529 -0.0936  0.0629  0.1615
 2038TIP3    H2 6079   0.440   4.077   3.423 -0.2075 -0.0704  0.1272
 2039TIP3   OH2 6080   1.072   3.295   3.808  0.2866 -0.2691 -0.1215
 2039TIP3    H1 6081   1.135   3.246   3.860 -0.0377  0.2758  0.8237
 2039TIP3    H2 6082   1.122   3.326   3.732  1.0093 -0.3325  0.3152
 2040TIP3   OH2 6083   2.521   3.127   1.267  0.0335  0.1037  0.2104
 2040TIP3    H1 6084   2.545   3.037   1.244  0.0490 -0.0347  0.7517
 2040TIP3    H2 6085   2.519   3.127   1.363 -0.9170  0.4370  0.1976
 2041TIP3   OH2 6086   2.493   2.461   5.281 -0.1348  0.7881  0.1187
 2041TIP3    H1 6087   2.481   2.548   5.319 -1.2290 -0.3172  2.4771
 2041TIP3    H2 6088   2.408   2.419   5.288  0.2079 -0.3089 -1.5790
 2042TIP3   OH2 6089   5.339   5.428   1.415  0.1881  0.2994  0.4349
 2042TIP3    H1 6090   5.263   5.376   1.443 -0.6128 -0.3596 -2.4949
 2042TIP3    H2 6091   5.308   5.518   1.418 -0.0250  0.2106  1.1293
 2043TIP3   OH2 6092   2.243   3.342   1.133  0.3450  0.7772  0.0480
 2043TIP3    H1 6093   2.267   3.251   1.148 -0.6415  0.4797 -0.1302
 2043TIP3    H2 6094   2.256   3.384   1.218 -1.2802 -0.0172  0.7301
 2044TIP3   OH2 6095   1.796   4.907   3.084  0.0399  0.0933  0.2723
 2044TIP3    H1 6096   1.716   4.910   3.033  1.3647 -0.1000 -1.9500
 2044TIP3    H2 6097   1.812   4.998   3.111 -0.9780  0.1047  0.8561
 2045TIP3   OH2 6098   5.475   1.819   5.595 -0.6608  0.0219 -0.8333
 2045TIP3    H1 6099   5.567   1.808   5.571 -0.0722  1.2497  0.6771
 2045TIP3    H2 6100   5.447   1.733   5.624  1.0365  0.2446  1.8589
 2046TIP3   OH2 6101   7.177   0.611   2.156 -0.0720 -0.2140  0.0239
 2046TIP3    H1 6102   7.143   0.681   2.212 -0.3049  0.5350 -1.0330
 2046TIP3    H2 6103   7.108   0.544   2.158 -0.1582 -0.1209  0.4738
 2047TIP3   OH2 6104   5.870   1.067   2.548  0.0478 -0.3194 -0.6971
 2047TIP3    H1 6105   5.886   1.013   2.625 -0.7017  0.7194  0.2242
 2047TIP3    H2 6106   5.953   1.067   2.501  1.5140  1.4041  1.6517
 2048TIP3   OH2 6107   2.019   4.591   0.336  0.5365 -0.5277 -0.3068
 2048TIP3    H1 6108   2.003   4.684   0.324 -0.9001 -0.6674  0.2576
 2048TIP3    H2 6109   2.113   4.580   0.322  0.5695  0.8407 -1.3261
 2049TIP3   OH2 6110   2.186   5.773   2.201 -0.0120  0.3431  0.7589
 2049TIP3    H1 6111   2.209   5.855   2.159 -1.0642  0.2425 -0.0673
 2049TIP3    H2 6112   2.188   5.792   2.295 -0.0285  1.2451  0.5802
 2050TIP3   OH2 6113   3.367   6.369   4.971  0.4574 -0.5868  0.6894
 2050TIP3    H1 6114   3.357   6.306   5.043  0.3916  2.4571  3.6086
 2050TIP3    H2 6115   3.451   6.411   4.989 -0.4273  1.5249  0.0783
 2051TIP3   OH2 6116   6.008   3.934   3.473  0.0310 -0.6841 -0.1945
 2051TIP3    H1 6117   5.957   4.014   3.458 -0.2111 -0.7720  0.1498
 2051TIP3    H2 6118   5.950   3.879   3.525  0.3708 -0.9055 -0.0520
 2052TIP3   OH2 6119   0.334   4.489   0.820 -0.3821  0.3083 -0.4304
 2052TIP3    H1 6120   0.378   4.451   0.896 -0.9403 -0.7596 -0.6284
 2052TIP3    H2 6121   0.315   4.579   0.846  3.7292  1.5553 -1.0767
 2053TIP3   OH2 6122   0.846   4.918   0.265 -0.4252  0.4880  0.3675
 2053TIP3    H1 6123   0.933   4.878   0.264  0.9201  3.1674  0.9518
 2053TIP3    H2 6124   0.818   4.915   0.173  1.3714  1.6891 -0.2700
 2054TIP3   OH2 6125   5.629   3.142   2.683  0.3563  0.5918 -0.5328
 2054TIP3    H1 6126   5.539   3.124   2.657  0.4308 -0.3606 -0.1715
 2054TIP3    H2 6127   5.666   3.056   2.701  1.3474  0.9763 -0.6974
 2055TIP3   OH2 6128   4.759   2.128   0.949  0.2661 -0.1202 -0.1542
 2055TIP3    H1 6129   4.728   2.039   0.968  1.7600 -0.1679  2.7220
 2055TIP3    H2 6130   4.680   2.177   0.930 -1.1802 -1.2096  2.3983
 2056TIP3   OH2 6131   1.647   4.492   1.319  0.2543 -0.1446 -0.1837
 2056TIP3    H1 6132   1.580   4.536   1.371  0.8284 -0.9208  1.2944
 2056TIP3    H2 6133   1.611   4.488   1.231 -2.0723 -1.3598  0.7326
 2057TIP3   OH2 6134   0.971   4.869   0.838  0.0881 -0.6364 -0.2033
 2057TIP3    H1 6135   1.047   4.917   0.870 -1.6774 -0.0334  3.7111
 2057TIP3    H2 6136   0.938   4.922   0.766  1.4352  0.9173  0.2628
 2058TIP3   OH2 6137   3.949   1.096   1.817  0.4082  0.0112  0.0897
 2058TIP3    H1 6138   3.856   1.113   1.831  0.7038  2.2062 -0.2941
 2058TIP3    H2 6139   3.950   1.037   1.741 -0.6785 -0.8053  0.6768
 2059TIP3   OH2 6140   2.469   4.130   4.707 -0.1915 -0.1267 -0.1375
 2059TIP3    H1 6141   2.419   4.111   4.786  0.4785  0.4208  0.4372
 2059TIP3    H2 6142   2.530   4.057   4.699  1.5892  1.0870  1.4138
 2060TIP3   OH2 6143   3.112   4.493   3.887  0.3756 -0.3501 -0.1611
 2060TIP3    H1 6144   3.093   4.587   3.887  0.6881 -0.2643  1.0330
 2060TIP3    H2 6145   3.033   4.453   3.922 -0.5185 -0.7476 -2.5016
 2061TIP3   OH2 6146   2.952   4.047   1.914  0.0670 -0.1914  0.4406
 2061TIP3    H1 6147   2.903   4.008   1.842  1.3897  1.0721 -1.2224
 2061TIP3    H2 6148   3.036   4.003   1.913  0.0344 -0.3074  1.3908
 2062TIP3   OH2 6149   3.847   4.662   2.077  0.0652 -0.8856 -0.7911
 2062TIP3    H1 6150   3.771   4.671   2.019 -1.6828  0.8322  1.5628
 2062TIP3    H2 6151   3.879   4.751   2.088  1.9621 -1.4982 -1.0851
 2063TIP3   OH2 6152   5.311   5.045   1.043  0.7464  0.3055 -0.3744
 2063TIP3    H1 6153   5.230   5.090   1.067  0.0417  0.5533 -2.9593
 2063TIP3    H2 6154   5.294   4.953   1.065  0.3822  0.5829  0.5498
 2064TIP3   OH2 6155   6.103   0.053   3.881 -0.1245 -0.0531 -0.2770
 2064TIP3    H1 6156   6.108   0.059   3.976 -0.9387 -0.0714 -0.2318
 2064TIP3    H2 6157   6.176   0.107   3.850  0.2086 -0.1305  0.3527
 2065TIP3   OH2 6158   4.261   0.272   3.739  0.1446 -0.6719  0.6437
 2065TIP3    H1 6159   4.292   0.207   3.803 -0.2986 -0.2010  1.3494
 2065TIP3    H2 6160   4.283   0.234   3.654  1.1705 -1.1029  1.0822
 2066TIP3   OH2 6161   4.224   5.143   5.666 -0.1333  0.0280 -0.2032
 2066TIP3    H1 6162   4.161   5.213   5.652 -1.5876 -1.2968 -0.5569
 2066TIP3    H2 6163   4.173   5.074   5.709  0.6949 -1.6508 -1.8221
 2067TIP3   OH2 6164   4.425   5.415   4.385 -0.1628 -0.0125 -0.2957
 2067TIP3    H1 6165   4.359   5.393   4.450 -0.7994 -1.5293 -1.3885
 2067TIP3    H2 6166   4.507   5.418   4.434 -0.7607 -0.1214  0.7390
 2068TIP3   OH2 6167   3.616   2.154   2.101 -0.3726 -0.8495 -0.1442
 2068TIP3    H1 6168   3.536   2.184   2.145  0.4589  1.5703 -0.0914
 2068TIP3    H2 6169   3.588   2.131   2.013 -1.3114 -1.1368  0.2174
 2069TIP3   OH2 6170   1.437   1.866   4.237  0.6438 -0.0107 -0.2211
 2069TIP3    H1 6171   1.508   1.930   4.245  0.4336  0.3847 -1.2872
 2069TIP3    H2 6172   1.480   1.784   4.213  0.7392  0.2870 -1.1101
 2070TIP3   OH2 6173   3.537   2.131   0.013 -0.2927  0.1127  0.1592
 2070TIP3    H1 6174   3.578   2.178   0.085 -3.7635  1.0955  1.7025
 2070TIP3    H2 6175   3.505   2.200  -0.045 -0.2545 -0.5738 -0.6976
 2071TIP3   OH2 6176   4.257   5.722   5.601  0.0619 -0.3774  0.2575
 2071TIP3    H1 6177   4.212   5.702   5.519  0.6442  0.9083 -0.3941
 2071TIP3    H2 6178   4.339   5.763   5.574 -0.0743  0.7610  1.4874
 2072TIP3   OH2 6179   4.791   4.549   3.881  0.3106  0.2226 -0.2255
 2072TIP3    H1 6180   4.770   4.552   3.787 -0.2027 -0.4236 -0.1368
 2072TIP3    H2 6181   4.718   4.594   3.923  1.2185  1.7823 -0.2142
 2073TIP3   OH2 6182   4.347   5.148   2.935 -0.3802 -0.5003 -0.1369
 2073TIP3    H1 6183   4.322   5.231   2.974  0.2619  0.2476 -1.2631
 2073TIP3    H2 6184   4.348   5.165   2.840  0.0674 -1.6936 -0.3648
 2074TIP3   OH2 6185   6.164   2.929   1.549 -0.2322 -0.4244 -0.4726
 2074TIP3    H1 6186   6.126   2.907   1.635  0.0453  1.1411  0.0770
 2074TIP3    H2 6187   6.146   2.852   1.495 -0.4283 -1.4443  0.9789
 2075TIP3   OH2 6188   0.328   5.722   5.514  0.0671 -0.0760  0.5099
 2075TIP3    H1 6189   0.397   5.691   5.457 -0.3462 -2.3136  1.1220
 2075TIP3    H2 6190   0.369   5.727   5.601  0.1873  1.4355  0.3951
 2076TIP3   OH2 6191   2.387   6.554   5.024 -0.1907 -0.2664 -0.4373
 2076TIP3    H1 6192   2.427   6.638   5.045 -1.0777 -0.0519  0.4217
 2076TIP3    H2 6193   2.427   6.492   5.086 -0.9637 -0.1085  0.2209
 2077TIP3   OH2 6194   3.943   4.890   2.203  0.0266 -0.4682  0.3619
 2077TIP3    H1 6195   3.959   4.874   2.296 -0.3660  0.1649  0.5448
 2077TIP3    H2 6196   3.964   4.982   2.191 -1.4307 -0.1367  0.1707
 2078TIP3   OH2 6197   6.172   6.358   1.896  0.1136 -0.2640  0.1140
 2078TIP3    H1 6198   6.117   6.331   1.823 -0.6773  1.3810  0.0521
 2078TIP3    H2 6199   6.251   6.306   1.888 -0.8494 -1.6665 -0.6337
 2079TIP3   OH2 6200   4.215   3.915   3.949  0.6111 -0.0095 -0.2635
 2079TIP3    H1 6201   4.268   3.836   3.933  0.2552 -0.0252 -1.4340
 2079TIP3    H2 6202   4.269   3.967   4.008 -0.0539 -2.0646  2.3471
 2080TIP3   OH2 6203   2.556   6.584   5.810 -0.0771  0.7650 -0.5795
 2080TIP3    H1 6204   2.580   6.567   5.901 -1.5902  1.6720  0.0118
 2080TIP3    H2 6205   2.638   6.613   5.769  1.2044 -1.9450 -0.1573
 2081TIP3   OH2 6206   0.112   1.080   1.531  0.1076  0.2293  0.1691
 2081TIP3    H1 6207   0.071   1.151   1.581 -2.3844  1.1296 -2.7679
 2081TIP3    H2 6208   0.184   1.122   1.484 -1.6699  1.1194 -1.9514
 2082TIP3   OH2 6209   0.477   3.313   1.485 -0.4266  0.4316  0.3252
 2082TIP3    H1 6210   0.524   3.345   1.409  1.1262 -0.7733  0.7307
 2082TIP3    H2 6211   0.495   3.376   1.554  0.3302  0.1554  0.3833
 2083TIP3   OH2 6212   4.554   0.639   2.906  0.3114 -0.1108  0.0012
 2083TIP3    H1 6213   4.595   0.618   2.990 -1.7400 -1.1284  0.8181
 2083TIP3    H2 6214   4.478   0.580   2.900  1.2848 -1.2705 -3.3433
 2084TIP3   OH2 6215   0.939   5.346   1.927 -0.5400 -0.3232 -0.3562
 2084TIP3    H1 6216   0.928   5.386   1.841 -0.9558  0.1507 -0.0885
 2084TIP3    H2 6217   1.009   5.396   1.968 -0.5869 -0.3157 -0.2841
 2085TIP3   OH2 6218   0.857   3.703   0.435 -0.4835  0.3891 -0.9186
 2085TIP3    H1 6219   0.773   3.666   0.407 -1.1568  1.4555 -0.3992
 2085TIP3    H2 6220   0.849   3.712   0.530  1.0064 -1.3244 -0.5809
 2086TIP3   OH2 6221   0.923   6.502   3.029  0.3295 -0.2164 -0.0257
 2086TIP3    H1 6222   0.848   6.560   3.016 -0.3203 -0.5890  1.7942
 2086TIP3    H2 6223   0.981   6.550   3.089  1.7942  0.2253 -1.6826
 2087TIP3   OH2 6224   1.764   2.125   2.329 -0.2154 -0.7684  0.4839
 2087TIP3    H1 6225   1.720   2.070   2.394 -0.5728 -0.8897  0.1422
 2087TIP3    H2 6226   1.813   2.064   2.275 -0.9768 -0.8044 -0.1795
 2088TIP3   OH2 6227   1.498   6.656   1.049  0.0926  0.1193 -0.0153
 2088TIP3    H1 6228   1.576   6.697   1.085 -1.4110  2.4113  0.8612
 2088TIP3    H2 6229   1.492   6.689   0.960  1.5666 -2.2919 -1.0985
 2089TIP3   OH2 6230   1.633   3.393   0.626 -0.3488  0.1515 -0.3171
 2089TIP3    H1 6231   1.541   3.366   0.618 -0.2760  0.1089 -1.1265
 2089TIP3    H2 6232   1.639   3.472   0.572 -0.2111  0.9406  0.8173
 2090TIP3   OH2 6233   0.972   2.228  -0.004 -0.1500  0.2646 -0.3164
 2090TIP3    H1 6234   0.941   2.137  -0.003 -0.8794  0.4350 -2.5746
 2090TIP3    H2 6235   0.897   2.279   0.026 -0.5253  0.2779 -1.2342
 2091TIP3   OH2 6236   2.219   1.222   2.001  0.3003  0.3046  0.1244
 2091TIP3    H1 6237   2.176   1.138   2.012 -0.1526  0.5950  0.6131
 2091TIP3    H2 6238   2.305   1.200   1.964 -0.6696 -0.1879 -1.9878
 2092TIP3   OH2 6239   3.943   0.037   2.511  0.2948 -0.3537 -0.4409
 2092TIP3    H1 6240   3.926  -0.024   2.440  1.7637  0.1217 -1.2435
 2092TIP3    H2 6241   3.885   0.111   2.494 -1.2461 -1.3353  0.3461
 2093TIP3   OH2 6242   3.815   1.336   2.946 -0.0653  0.0122  0.2156
 2093TIP3    H1 6243   3.842   1.408   3.002  0.4016 -0.7253  0.9540
 2093TIP3    H2 6244   3.822   1.258   3.001  1.7219 -0.9214 -1.2124
 2094TIP3   OH2 6245   2.232   1.857   4.445 -0.5504 -0.4283  0.0372
 2094TIP3    H1 6246   2.231   1.783   4.506  1.1958 -0.2857  0.2979
 2094TIP3    H2 6247   2.310   1.842   4.391 -0.9309  0.5265 -0.8100
 2095TIP3   OH2 6248   3.685   5.338   2.902 -0.2012 -0.2799  0.5762
 2095TIP3    H1 6249   3.748   5.338   2.974  1.3778 -0.3395 -0.7427
 2095TIP3    H2 6250   3.661   5.246   2.890  1.2745 -0.5627 -0.3979
 2096TIP3   OH2 6251   2.768   4.695   1.971 -0.0404  0.7013  0.8325
 2096TIP3    H1 6252   2.698   4.760   1.970 -0.8642 -0.1513 -0.8409
 2096TIP3    H2 6253   2.823   4.716   1.895 -1.1316 -1.3210 -0.6224
 2097TIP3   OH2 6254   3.473   0.187   0.329  0.5427 -0.3715  0.6022
 2097TIP3    H1 6255   3.514   0.178   0.415  0.0213 -0.8626  0.8101
 2097TIP3    H2 6256   3.413   0.112   0.323  0.1381 -0.0150  0.0580
 2098TIP3   OH2 6257   0.835   2.434   4.182 -0.2764 -0.2768 -0.4132
 2098TIP3    H1 6258   0.752   2.465   4.218 -0.2704  0.8617 -1.3187
 2098TIP3    H2 6259   0.902   2.475   4.236 -0.1819  3.4499 -2.9901
 2099TIP3   OH2 6260   5.633   6.125   3.661 -0.0932 -0.3112  0.1080
 2099TIP3    H1 6261   5.719   6.159   3.637  0.2095  0.8944  2.6085
 2099TIP3    H2 6262   5.651   6.056   3.724 -0.9371 -0.7437 -0.1076
 2100TIP3   OH2 6263   5.899   2.335   3.162 -0.1027  0.1257 -0.1432
 2100TIP3    H1 6264   5.952   2.294   3.093 -0.0026  0.1113 -0.0565
 2100TIP3    H2 6265   5.946   2.415   3.185  0.2035 -0.1980  0.3671
 2101TIP3   OH2 6266   5.890   2.364   1.113  0.8484 -0.0686 -0.3492
 2101TIP3    H1 6267   5.799   2.353   1.142  1.1878  0.0340  0.8148
 2101TIP3    H2 6268   5.900   2.458   1.101  1.1455  0.0505  0.7517
 2102TIP3   OH2 6269   6.174   6.442   0.783 -0.5856 -0.2424  0.2758
 2102TIP3    H1 6270   6.088   6.413   0.755 -0.0996  0.4173 -2.1512
 2102TIP3    H2 6271   6.231   6.425   0.707  0.5371  3.1699  0.1715
 2103TIP3   OH2 6272   1.494   4.067   5.090  0.5353  0.1641 -0.0037
 2103TIP3    H1 6273   1.570   4.125   5.087  1.7536 -1.3569 -0.2489
 2103TIP3    H2 6274   1.509   4.005   5.018 -1.1869  0.1077 -0.3389
 2104TIP3   OH2 6275   6.924   0.279   4.996 -0.1734 -0.1637 -0.1244
 2104TIP3    H1 6276   6.935   0.339   5.070 -0.2041 -2.6119  2.0008
 2104TIP3    H2 6277   7.005   0.288   4.946  0.8675 -0.0906  1.5042
 2105TIP3   OH2 6278   0.062   0.507   3.873 -0.2277 -0.1858  0.5894
 2105TIP3    H1 6279   0.121   0.514   3.948  0.1936 -0.7846  0.3174
 2105TIP3    H2 6280  -0.020   0.548   3.903  0.9408  2.6180  0.2678
 2106TIP3   OH2 6281   2.323   3.557   2.154 -0.2633  0.2202 -0.2090
 2106TIP3    H1 6282   2.256   3.518   2.210  0.3416  1.6377  1.6041
 2106TIP3    H2 6283   2.404   3.513   2.180  0.0085  0.8230 -0.0161
 2107TIP3   OH2 6284   4.114   3.281   0.029 -0.0032  0.0284 -0.4576
 2107TIP3    H1 6285   4.076   3.213  -0.027  1.4263  0.5712 -2.2156
 2107TIP3    H2 6286   4.069   3.361   0.002  0.7152  0.2991 -0.8743
 2108TIP3   OH2 6287   0.769   3.592   4.938 -0.2008  0.1624 -0.5017
 2108TIP3    H1 6288   0.831   3.541   4.990  0.3261 -0.9616 -2.1439
 2108TIP3    H2 6289   0.823   3.637   4.873 -0.7140  2.5161  0.5935
 2109TIP3   OH2 6290   0.103   0.128   0.017  0.6156  0.6246  0.2404
 2109TIP3    H1 6291   0.015   0.120   0.054  0.5648  0.1895  0.0295
 2109TIP3    H2 6292   0.144   0.198   0.068  0.3635  0.4039  0.7469
 2110TIP3   OH2 6293   3.438   4.734   1.227 -0.1749 -0.4324 -0.2044
 2110TIP3    H1 6294   3.413   4.678   1.300 -0.9727 -0.7361 -0.6983
 2110TIP3    H2 6295   3.407   4.688   1.149 -0.4967  0.5032 -0.6473
 2111TIP3   OH2 6296   0.058   6.639   3.430  0.2702 -0.6445 -0.0942
 2111TIP3    H1 6297   0.034   6.547   3.426  2.4015 -1.2196 -2.6366
 2111TIP3    H2 6298   0.040   6.672   3.342 -0.4108  1.3994  0.7510
 2112TIP3   OH2 6299   0.619   2.829   1.891  0.7332  0.3533 -0.0366
 2112TIP3    H1 6300   0.580   2.890   1.827  0.3495  0.2207  0.0691
 2112TIP3    H2 6301   0.712   2.825   1.866  0.7554  0.9448 -0.0755
 2113TIP3   OH2 6302   3.067   3.835   1.630 -0.0380  0.0856 -0.1456
 2113TIP3    H1 6303   3.070   3.745   1.597  1.1352  0.1946 -0.3726
 2113TIP3    H2 6304   2.984   3.840   1.678 -1.1098 -0.4871 -1.8742
 2114TIP3   OH2 6305   2.842   5.860   5.506  0.3968 -0.4634  0.1134
 2114TIP3    H1 6306   2.811   5.793   5.445  0.9780  0.1318 -0.8744
 2114TIP3    H2 6307   2.884   5.811   5.576 -0.5697 -1.1800  0.2089
 2115TIP3   OH2 6308   1.803   1.733   4.402  0.3088  0.3716 -0.1977
 2115TIP3    H1 6309   1.837   1.644   4.397  0.9076  0.5154  0.8865
 2115TIP3    H2 6310   1.752   1.735   4.483  0.9526  1.2085  0.2037
 2116TIP3   OH2 6311   3.452   6.091   1.947 -0.3345 -0.0403  0.0320
 2116TIP3    H1 6312   3.389   6.133   2.005 -0.8112  0.3251 -0.7403
 2116TIP3    H2 6313   3.503   6.163   1.910  0.1503 -0.2913  0.1965
 2117TIP3   OH2 6314   6.004   4.074   4.542 -0.4012 -0.0653 -0.4262
 2117TIP3    H1 6315   5.910   4.090   4.557  0.0422  0.9777  1.5004
 2117TIP3    H2 6316   6.034   4.150   4.493  0.2020  1.6806  2.4489
 2118TIP3   OH2 6317   5.073   3.607   2.111  0.0208  0.0336  0.1053
 2118TIP3    H1 6318   4.997   3.627   2.167 -0.8716 -0.6016 -0.8401
 2118TIP3    H2 6319   5.077   3.511   2.110  0.2979  0.0472 -0.5582
 2119TIP3   OH2 6320   2.103   0.403   2.744  0.1887 -0.6184 -0.3001
 2119TIP3    H1 6321   2.135   0.448   2.666  0.3121  0.2308  0.2242
 2119TIP3    H2 6322   2.030   0.350   2.713  0.8672 -1.0736 -1.1642
 2120TIP3   OH2 6323   6.480   2.666   4.162 -0.8566  0.3642  0.1695
 2120TIP3    H1 6324   6.502   2.576   4.183  1.6452  1.0910  0.9882
 2120TIP3    H2 6325   6.520   2.681   4.076 -1.7219  0.5562 -0.2087
 2121TIP3   OH2 6326   4.380   5.410   0.071 -0.3910  0.0409  0.0140
 2121TIP3    H1 6327   4.450   5.359   0.113  0.4769  1.0755 -0.1486
 2121TIP3    H2 6328   4.369   5.369  -0.015 -0.2400 -0.3479  0.1768
 2122TIP3   OH2 6329   5.228   2.672   3.656  0.2979  0.0852  0.4261
 2122TIP3    H1 6330   5.223   2.601   3.592  1.5595 -1.9294  2.4004
 2122TIP3    H2 6331   5.252   2.749   3.604 -2.2334 -0.5614 -1.9746
 2123TIP3   OH2 6332   4.360   4.107   5.470 -0.1806 -0.0097 -0.2378
 2123TIP3    H1 6333   4.385   4.174   5.406  0.6854 -0.9275 -0.9111
 2123TIP3    H2 6334   4.437   4.098   5.527  0.4356 -1.6432 -1.2494
 2124TIP3   OH2 6335   3.349   5.135   0.215 -0.2318  0.0605  0.6041
 2124TIP3    H1 6336   3.399   5.119   0.135 -1.7587 -1.7015 -0.0790
 2124TIP3    H2 6337   3.339   5.230   0.219  3.3631  0.5532  0.9864
 2125TIP3   OH2 6338   6.726   6.677   2.904  0.2111 -0.1046  0.1214
 2125TIP3    H1 6339   6.730   6.764   2.944 -0.0189 -0.7765  1.6718
 2125TIP3    H2 6340   6.633   6.658   2.896  0.0486  1.3981 -4.0498
 2126TIP3   OH2 6341   2.916   0.801   3.861  0.2006 -0.2183  0.5223
 2126TIP3    H1 6342   3.004   0.773   3.887 -0.3198 -0.5080  2.1024
 2126TIP3    H2 6343   2.867   0.719   3.851 -0.4598 -0.0289  1.9046
 2127TIP3   OH2 6344   4.428   5.732   0.210  0.3664  0.4777  0.0016
 2127TIP3    H1 6345   4.383   5.807   0.248 -1.9761  0.5743 -2.6173
 2127TIP3    H2 6346   4.465   5.685   0.285  0.6720  3.3953  1.8287
 2128TIP3   OH2 6347   1.774   6.589   3.325 -0.3601  0.5994 -0.4311
 2128TIP3    H1 6348   1.763   6.508   3.375 -2.0794  1.1601  0.1438
 2128TIP3    H2 6349   1.754   6.565   3.234 -2.0674  0.6055 -0.0825
 2129TIP3   OH2 6350   1.099   5.035   0.076  0.0961  0.8174  0.9045
 2129TIP3    H1 6351   1.012   5.068   0.096 -0.9033 -0.7998 -0.4927
 2129TIP3    H2 6352   1.130   5.090   0.003 -0.4710  0.3379  0.2959
 2130TIP3   OH2 6353   6.546   6.181   4.194  0.3127  0.1015 -0.0586
 2130TIP3    H1 6354   6.639   6.160   4.184  0.4617  0.7762 -0.1335
 2130TIP3    H2 6355   6.533   6.260   4.141 -0.5320 -0.5577 -0.8675
 2131TIP3   OH2 6356   6.923   0.763   0.017 -0.3013 -0.0004  0.4290
 2131TIP3    H1 6357   6.895   0.831   0.078 -1.4457 -1.7554  1.9616
 2131TIP3    H2 6358   6.890   0.793  -0.068  1.9574  2.8389  0.4263
 2132TIP3   OH2 6359   5.671   1.424   0.958  0.3662 -0.3467 -0.0976
 2132TIP3    H1 6360   5.722   1.345   0.976  0.1871 -0.1571  1.3978
 2132TIP3    H2 6361   5.582   1.392   0.942  0.0586 -0.4292  1.5515
 2133TIP3   OH2 6362   3.465   3.058   4.837  0.5011  0.1700  0.1669
 2133TIP3    H1 6363   3.558   3.040   4.821  0.7359  1.0716  0.4854
 2133TIP3    H2 6364   3.458   3.060   4.933 -0.2383 -1.8136  0.2074
 2134TIP3   OH2 6365   2.325   2.229   5.002  0.1563 -0.2756 -0.4674
 2134TIP3    H1 6366   2.304   2.261   5.090  2.7151 -0.2186  0.1930
 2134TIP3    H2 6367   2.245   2.243   4.952 -0.7299  1.5591  1.3255
 2135TIP3   OH2 6368   7.074   2.833   2.296  0.0694 -0.1496  0.6636
 2135TIP3    H1 6369   7.008   2.784   2.345  1.2059 -0.5219  1.9050
 2135TIP3    H2 6370   7.158   2.805   2.334  0.8725  1.2291  0.0086
 2136TIP3   OH2 6371   2.731   3.451   4.551 -0.3999  0.8901  0.1240
 2136TIP3    H1 6372   2.648   3.493   4.531 -0.3491  0.4961 -1.0155
 2136TIP3    H2 6373   2.770   3.433   4.465  0.2189 -0.2012  0.6110
 2137TIP3   OH2 6374   2.516   0.375   4.038  0.5068 -0.0086 -0.2684
 2137TIP3    H1 6375   2.436   0.426   4.023  2.2078  2.4466 -1.9072
 2137TIP3    H2 6376   2.531   0.331   3.954  0.8924 -0.4110  0.0151
 2138TIP3   OH2 6377   2.881   5.753   0.424 -0.0621  0.3053  0.1670
 2138TIP3    H1 6378   2.967   5.787   0.402 -0.3749  0.3643 -1.0596
 2138TIP3    H2 6379   2.899   5.672   0.472  0.6756  1.9330  2.8328
 2139TIP3   OH2 6380   5.375   1.148   3.756 -0.0734 -0.3577 -0.9301
 2139TIP3    H1 6381   5.384   1.118   3.665  0.3689 -1.8025 -0.4426
 2139TIP3    H2 6382   5.306   1.093   3.793  1.4122 -1.5055  0.2606
 2140TIP3   OH2 6383   3.726   5.963   4.741  0.9642  0.1520 -0.0414
 2140TIP3    H1 6384   3.809   5.995   4.705  0.7011 -0.4015 -1.1834
 2140TIP3    H2 6385   3.660   6.022   4.704  0.6720 -0.5305 -0.6342
 2141TIP3   OH2 6386   0.001   2.124   1.294 -0.5458 -0.5060 -0.4393
 2141TIP3    H1 6387  -0.053   2.140   1.371 -0.5582  1.3967 -0.7893
 2141TIP3    H2 6388   0.075   2.072   1.326 -0.4947  0.3339  0.8751
 2142TIP3   OH2 6389   2.506   0.308   1.018  0.9755 -0.2320 -0.3181
 2142TIP3    H1 6390   2.601   0.316   1.019  0.8176  3.0745  0.1376
 2142TIP3    H2 6391   2.480   0.311   1.110  0.3716  2.1411 -0.4925
 2143TIP3   OH2 6392   5.634   4.917   0.216  0.1615 -0.2943 -0.2231
 2143TIP3    H1 6393   5.729   4.917   0.202  0.3825  1.7034  0.8452
 2143TIP3    H2 6394   5.597   4.931   0.129  0.8741 -0.3195 -0.5405
 2144TIP3   OH2 6395   2.513   3.355   4.193 -0.3136  0.2789 -0.3902
 2144TIP3    H1 6396   2.424   3.321   4.199  0.1917 -0.9224  0.7512
 2144TIP3    H2 6397   2.567   3.279   4.171  0.8320  0.2690  2.1292
 2145TIP3   OH2 6398   1.677   4.184   3.371 -0.1663  0.0103 -0.0162
 2145TIP3    H1 6399   1.609   4.116   3.365 -1.1808  1.1440 -2.8284
 2145TIP3    H2 6400   1.632   4.258   3.413 -0.2774  0.2994 -0.6393
 2146TIP3   OH2 6401   1.221   6.594   0.544 -0.4368 -0.0405 -0.3436
 2146TIP3    H1 6402   1.288   6.534   0.574 -0.0544  0.4915 -0.1097
 2146TIP3    H2 6403   1.139   6.545   0.552  0.0331 -1.1155 -1.7867
 2147TIP3   OH2 6404   5.383   3.644   1.126 -0.0366 -0.1344  0.0355
 2147TIP3    H1 6405   5.400   3.674   1.216 -1.0289  0.8629 -0.0799
 2147TIP3    H2 6406   5.289   3.659   1.113  0.4669  1.8426 -1.8969
 2148TIP3   OH2 6407   3.746   3.148   0.372 -0.8263  0.0074  0.4139
 2148TIP3    H1 6408   3.788   3.080   0.319 -2.7318 -1.0854  0.2085
 2148TIP3    H2 6409   3.787   3.229   0.344  0.3898 -0.8787 -0.4839
 2149TIP3   OH2 6410   4.106   4.347   4.444 -0.5639  0.0273  0.5824
 2149TIP3    H1 6411   4.087   4.375   4.355 -0.2399  0.5891  0.6869
 2149TIP3    H2 6412   4.037   4.386   4.497 -1.6969 -1.6194  0.3848
 2150TIP3   OH2 6413   0.655   0.236   5.552 -0.0011 -0.3676 -0.1390
 2150TIP3    H1 6414   0.726   0.244   5.616  0.9009  0.9267 -1.2551
 2150TIP3    H2 6415   0.595   0.308   5.574 -0.0954 -0.4082 -0.2636
 2151TIP3   OH2 6416   5.303   4.626   0.704 -0.4027  0.5980  0.3164
 2151TIP3    H1 6417   5.285   4.660   0.617 -0.9940  0.0436  0.2145
 2151TIP3    H2 6418   5.294   4.531   0.695  0.0281  0.4952  0.8688
 2152TIP3   OH2 6419   4.863   6.782   1.593 -0.5838  0.1014 -0.1933
 2152TIP3    H1 6420   4.950   6.753   1.621 -0.5543 -1.4025 -1.7260
 2152TIP3    H2 6421   4.857   6.757   1.501 -3.1913 -1.2248  0.2213
 2153TIP3   OH2 6422   2.620   6.745   2.107 -0.2075 -0.1084 -0.5508
 2153TIP3    H1 6423   2.525   6.748   2.096 -0.3795  1.5482  0.9695
 2153TIP3    H2 6424   2.653   6.808   2.043  0.0066 -1.4806 -1.8551
 2154TIP3   OH2 6425   0.048   6.388   1.998  0.5067  0.4430  0.6846
 2154TIP3    H1 6426   0.054   6.478   1.966 -0.5028  0.1902 -0.2967
 2154TIP3    H2 6427   0.138   6.365   2.021  0.6885  1.9020  1.5633
 2155TIP3   OH2 6428   0.403   6.692   0.342 -0.1955 -0.6882  0.3807
 2155TIP3    H1 6429   0.388   6.713   0.434 -0.1975 -0.3869  0.3124
 2155TIP3    H2 6430   0.423   6.776   0.301 -2.9927 -0.3062 -0.4532
 2156TIP3   OH2 6431   5.527   5.059   0.453  0.2892 -0.0938  0.0723
 2156TIP3    H1 6432   5.442   5.020   0.472  0.4862 -0.6870 -0.2571
 2156TIP3    H2 6433   5.566   5.002   0.387  0.4490  0.8378 -0.6589
 2157TIP3   OH2 6434   7.192   4.013   2.531  0.4895 -0.1841  0.1454
 2157TIP3    H1 6435   7.253   4.024   2.605  0.6604  3.1825 -0.3707
 2157TIP3    H2 6436   7.109   4.049   2.563  0.7434  1.9798 -1.4239
 2158TIP3   OH2 6437   0.149   1.142   5.455 -0.4927 -0.6520 -0.1086
 2158TIP3    H1 6438   0.196   1.181   5.529  0.9361 -1.6622 -0.4561
 2158TIP3    H2 6439   0.200   1.167   5.378 -1.3872 -0.4850 -0.6633
 2159TIP3   OH2 6440   3.751   2.192   1.749  0.0133  0.1186 -0.3442
 2159TIP3    H1 6441   3.837   2.233   1.757  1.2093 -2.1512 -0.7265
 2159TIP3    H2 6442   3.717   2.226   1.666  1.3664 -0.3112 -1.1210
 2160TIP3   OH2 6443   5.423   0.487   3.375 -0.3543  0.1323 -0.0641
 2160TIP3    H1 6444   5.438   0.437   3.295  0.0532  0.6097 -0.2847
 2160TIP3    H2 6445   5.508   0.525   3.397 -0.7835  1.2241 -0.2295
 2161TIP3   OH2 6446   3.196   2.168   3.692 -0.5588  0.4363  0.1437
 2161TIP3    H1 6447   3.197   2.078   3.660  0.4544  0.2641  0.5958
 2161TIP3    H2 6448   3.187   2.159   3.787  0.0649  0.7849  0.2401
 2162TIP3   OH2 6449   7.020   0.630   1.867  0.4459 -0.2045  0.1152
 2162TIP3    H1 6450   6.998   0.670   1.951 -1.3296 -0.0908 -0.3630
 2162TIP3    H2 6451   6.987   0.541   1.873 -2.9021  0.7415 -1.5877
 2163TIP3   OH2 6452   6.100   5.178   5.385 -0.4587  0.4664  0.1623
 2163TIP3    H1 6453   6.154   5.244   5.429 -0.4338  1.4593 -1.3240
 2163TIP3    H2 6454   6.158   5.138   5.320 -0.5617 -0.8351  0.8229
 2164TIP3   OH2 6455   1.722   1.366   3.481  0.1027 -0.3218  0.2760
 2164TIP3    H1 6456   1.741   1.337   3.570  1.4000 -1.8068 -0.4535
 2164TIP3    H2 6457   1.685   1.290   3.437  0.5543  0.0423 -0.7779
 2165TIP3   OH2 6458   2.327   4.586   1.367 -0.2741  1.1767  0.0717
 2165TIP3    H1 6459   2.315   4.664   1.420 -1.6397  0.7551  0.4137
 2165TIP3    H2 6460   2.318   4.513   1.429  0.4182  0.7251 -0.3390
 2166TIP3   OH2 6461   5.702   0.519   5.671 -0.3602 -0.0342 -0.1098
 2166TIP3    H1 6462   5.709   0.435   5.626 -0.0098 -0.0247 -0.0765
 2166TIP3    H2 6463   5.766   0.513   5.743 -1.0909 -0.1497  0.5446
 2167TIP3   OH2 6464   1.449   4.556   0.595  0.0120  0.5677 -0.8096
 2167TIP3    H1 6465   1.425   4.572   0.504  0.9881 -1.0279 -1.3809
 2167TIP3    H2 6466   1.496   4.473   0.594 -1.0028 -0.1269  1.3196
 2168TIP3   OH2 6467   3.335   3.960   2.097 -0.1132 -0.2744  0.3964
 2168TIP3    H1 6468   3.355   3.955   2.003 -0.7557  1.2694  0.1362
 2168TIP3    H2 6469   3.242   3.938   2.103 -0.5783  1.5063  0.3787
 2169TIP3   OH2 6470   4.249   0.148   4.496 -0.3263  0.0315  0.4075
 2169TIP3    H1 6471   4.192   0.218   4.464 -1.2576  1.2200  4.1915
 2169TIP3    H2 6472   4.335   0.189   4.503 -0.5675  0.4003  1.3026
 2170TIP3   OH2 6473   1.561   3.894   4.515  0.0146  0.1528  0.1694
 2170TIP3    H1 6474   1.477   3.929   4.544 -0.4494 -0.6892 -0.1396
 2170TIP3    H2 6475   1.605   3.969   4.475 -0.2641  0.7847  1.0182
 2171TIP3   OH2 6476   2.589   2.761   5.047  0.1601 -0.0970  0.2084
 2171TIP3    H1 6477   2.606   2.679   5.093 -0.0701 -0.0145  0.4395
 2171TIP3    H2 6478   2.671   2.809   5.052  0.6513 -0.7734 -0.8816
 2172TIP3   OH2 6479   6.363   0.706   1.311 -0.1722  0.6978 -0.0276
 2172TIP3    H1 6480   6.286   0.763   1.307 -1.7400 -1.2701  0.2461
 2172TIP3    H2 6481   6.402   0.714   1.224 -0.3121  2.1901  0.0182
 2173TIP3   OH2 6482   0.075   0.287   5.482 -0.2487  0.6896 -0.1407
 2173TIP3    H1 6483   0.092   0.261   5.392 -0.9345  0.6034 -0.2495
 2173TIP3    H2 6484   0.161   0.311   5.517  0.1331  0.0003 -0.5815
 2174TIP3   OH2 6485   3.023   2.558   5.217  0.4994  0.2039 -0.0661
 2174TIP3    H1 6486   2.939   2.534   5.256  0.4553  1.8648  0.9268
 2174TIP3    H2 6487   3.087   2.537   5.284  0.8273 -0.3675 -0.5440
 2175TIP3   OH2 6488   4.146   5.272   0.670  0.2125  0.5252 -0.1286
 2175TIP3    H1 6489   4.143   5.347   0.729 -0.1790  0.5404 -0.1607
 2175TIP3    H2 6490   4.235   5.238   0.677 -0.2996 -0.5727  1.8436
 2176TIP3   OH2 6491   0.291   2.158   0.548  0.2007 -0.7834  0.5523
 2176TIP3    H1 6492   0.236   2.130   0.621 -0.3429  1.0017  0.8766
 2176TIP3    H2 6493   0.308   2.251   0.565  0.5245 -0.4666 -1.2908
 2177TIP3   OH2 6494   3.969   1.527   3.753 -0.3110  0.5643 -0.4648
 2177TIP3    H1 6495   4.002   1.458   3.811  0.4820 -1.5565 -3.2404
 2177TIP3    H2 6496   4.036   1.596   3.759 -0.2064  0.3654  1.0325
 2178TIP3   OH2 6497   3.849   5.505   0.605 -0.2184  0.0421 -0.0620
 2178TIP3    H1 6498   3.798   5.512   0.685  0.4825 -0.5253  0.4520
 2178TIP3    H2 6499   3.843   5.412   0.580  0.9299 -0.1467  0.2801
 2179TIP3   OH2 6500   4.707   3.864   2.807 -0.0239  0.0146 -0.4688
 2179TIP3    H1 6501   4.624   3.876   2.854 -0.3542 -0.1867 -0.9755
 2179TIP3    H2 6502   4.682   3.814   2.728  0.7978 -1.3171  0.0694
 2180TIP3   OH2 6503   5.710   3.381   4.021 -0.3558 -0.8543 -0.3291
 2180TIP3    H1 6504   5.713   3.476   4.032 -0.2852 -0.6864 -1.6877
 2180TIP3    H2 6505   5.711   3.347   4.111  0.4396  0.3939  0.1672
 2181TIP3   OH2 6506   5.909   6.143   0.241 -0.0562  0.5966  0.3401
 2181TIP3    H1 6507   5.842   6.208   0.264 -1.3470 -1.0296  1.3653
 2181TIP3    H2 6508   5.910   6.082   0.315 -0.3807 -1.7060 -1.4443
 2182TIP3   OH2 6509   3.015   0.072   2.861  0.0919  0.0871  0.0305
 2182TIP3    H1 6510   3.003  -0.010   2.811 -2.5835 -0.0681  0.7667
 2182TIP3    H2 6511   3.032   0.138   2.794 -1.3390 -0.4856 -0.9584
 2183TIP3   OH2 6512   3.117   3.366   1.310 -0.0978  0.1115 -0.2698
 2183TIP3    H1 6513   3.202   3.330   1.287  0.7081  1.2468  0.7726
 2183TIP3    H2 6514   3.076   3.299   1.364  0.3305 -0.2612 -0.4056
 2184TIP3   OH2 6515   2.231   1.731   5.333  0.0319  0.3715 -0.4301
 2184TIP3    H1 6516   2.204   1.705   5.245 -1.5114  1.9331 -0.4787
 2184TIP3    H2 6517   2.310   1.681   5.350 -1.2553 -2.2357 -1.5186
 2185TIP3   OH2 6518   0.670   2.922   2.169 -0.0640  0.0789  0.1430
 2185TIP3    H1 6519   0.748   2.890   2.124  0.1407  1.7629 -0.8133
 2185TIP3    H2 6520   0.597   2.878   2.126  0.2279  0.4316 -0.7375
 2186TIP3   OH2 6521   7.078   5.350   0.411  0.0371  0.0018  0.5777
 2186TIP3    H1 6522   7.032   5.428   0.381 -0.3833 -0.2674  0.5106
 2186TIP3    H2 6523   7.103   5.370   0.501 -1.3294 -0.3086  1.0671
 2187TIP3   OH2 6524   5.743   2.910   4.464 -0.2002  0.2594 -0.2073
 2187TIP3    H1 6525   5.764   3.001   4.485  1.0384 -0.2695  0.9992
 2187TIP3    H2 6526   5.723   2.870   4.548 -2.7614 -0.1573 -0.9155
 2188TIP3   OH2 6527   7.162   4.842   1.308  0.0086  0.1071  0.0893
 2188TIP3    H1 6528   7.083   4.804   1.272 -0.9581  0.6830  1.5181
 2188TIP3    H2 6529   7.222   4.768   1.318 -0.4913 -0.4015 -0.6082
 2189TIP3   OH2 6530   6.623   0.185   4.980 -0.1832  0.4868 -1.1276
 2189TIP3    H1 6531   6.640   0.116   4.916  0.2948  0.5224 -1.0361
 2189TIP3    H2 6532   6.677   0.259   4.952  0.6449  0.2354 -0.2288
 2190TIP3   OH2 6533   6.724   4.064   0.052  0.2707 -0.0403  0.3533
 2190TIP3    H1 6534   6.660   4.096  -0.011  0.5776 -0.0617  0.0309
 2190TIP3    H2 6535   6.673   4.006   0.110  0.6441 -3.3292 -2.2611
 2191TIP3   OH2 6536   4.860   4.407   4.543 -0.1088 -0.7832 -0.1585
 2191TIP3    H1 6537   4.789   4.396   4.606 -1.5017  2.1839 -1.0487
 2191TIP3    H2 6538   4.933   4.440   4.595 -1.3398  1.9259 -0.0201
 2192TIP3   OH2 6539   4.413   1.253   1.669  0.0389  0.4860  0.6344
 2192TIP3    H1 6540   4.471   1.178   1.684 -1.5108 -0.7716  0.5886
 2192TIP3    H2 6541   4.390   1.284   1.756 -0.4550 -0.0115  0.6844
 2193TIP3   OH2 6542   5.395   1.980   5.243  0.0202 -0.0930  0.5963
 2193TIP3    H1 6543   5.344   1.961   5.321 -0.2177 -0.7733  0.2801
 2193TIP3    H2 6544   5.359   2.063   5.211 -1.5315 -1.0192 -0.1355
 2194TIP3   OH2 6545   0.111   0.954   4.515  0.1281 -0.2580 -0.0063
 2194TIP3    H1 6546   0.025   0.933   4.552  0.2540 -0.3949  0.2139
 2194TIP3    H2 6547   0.156   1.000   4.585  0.8363 -1.6460  0.4878
 2195TIP3   OH2 6548   3.111   3.880   3.162 -0.1190 -0.1270 -0.7252
 2195TIP3    H1 6549   3.147   3.861   3.249  0.1360 -0.5792 -0.9263
 2195TIP3    H2 6550   3.188   3.881   3.104 -0.1651  1.1963 -0.7828
 2196TIP3   OH2 6551   4.613   1.904   0.961  0.1824 -0.3257 -0.2246
 2196TIP3    H1 6552   4.554   1.961   0.913  0.4526  1.0527  1.0135
 2196TIP3    H2 6553   4.560   1.867   1.031  0.0605 -1.4735 -0.8969
 2197TIP3   OH2 6554   7.131   1.153   0.326 -0.1877 -0.1968 -0.2763
 2197TIP3    H1 6555   7.189   1.078   0.315  0.3320  0.0763  0.5152
 2197TIP3    H2 6556   7.060   1.122   0.381 -2.4804 -1.3956 -3.5641
 2198TIP3   OH2 6557   6.747   0.940   1.697  0.5511  0.1694 -0.0380
 2198TIP3    H1 6558   6.707   1.011   1.748  1.3138  0.4334  0.2072
 2198TIP3    H2 6559   6.840   0.946   1.717  0.8923  0.3381 -1.5472
 2199TIP3   OH2 6560   1.091   4.545   1.516 -0.2217 -0.1890  0.0965
 2199TIP3    H1 6561   1.028   4.476   1.539 -0.7081 -0.2035 -1.2343
 2199TIP3    H2 6562   1.087   4.606   1.589 -0.2328 -1.2514  1.0178
 2200TIP3   OH2 6563   2.619   3.891   0.564  0.4068  0.0206  0.3401
 2200TIP3    H1 6564   2.694   3.868   0.619 -1.3786  0.2720  3.0727
 2200TIP3    H2 6565   2.562   3.942   0.621 -1.3511  0.8346 -1.9823
 2201TIP3   OH2 6566   5.284   2.481   4.808  0.1533  0.2046 -0.1800
 2201TIP3    H1 6567   5.226   2.550   4.776 -0.4573  0.8224  2.0449
 2201TIP3    H2 6568   5.347   2.528   4.863  0.2583 -0.9130  0.6734
 2202TIP3   OH2 6569   2.529   0.773   1.724  0.0271 -0.4022  0.4515
 2202TIP3    H1 6570   2.547   0.802   1.635  2.3419 -1.6444  0.4387
 2202TIP3    H2 6571   2.585   0.828   1.779 -0.3608 -0.5475  1.0038
 2203TIP3   OH2 6572   5.004   2.920   0.825  0.2133  0.1269 -0.4518
 2203TIP3    H1 6573   5.052   2.850   0.869  0.4624 -0.8727 -2.2219
 2203TIP3    H2 6574   5.068   2.959   0.766 -0.2369  1.1375 -0.3051
 2204TIP3   OH2 6575   5.472   5.957   5.744  0.2211  0.2544 -0.3769
 2204TIP3    H1 6576   5.412   6.001   5.682 -0.6106 -3.0458 -2.1478
 2204TIP3    H2 6577   5.414   5.915   5.807  0.9139  0.4687  0.4114
 2205TIP3   OH2 6578   3.807   6.663   5.003  0.5306  0.5325  0.8432
 2205TIP3    H1 6579   3.816   6.647   4.909  0.0774 -2.0153  1.1733
 2205TIP3    H2 6580   3.875   6.728   5.022  0.7976  0.9273 -1.1835
 2206TIP3   OH2 6581   2.905   5.786   5.197 -0.0574  0.6631  0.1015
 2206TIP3    H1 6582   2.880   5.694   5.190  1.8469  0.0698  0.4095
 2206TIP3    H2 6583   2.899   5.819   5.108 -1.7605  0.5589  0.1414
 2207TIP3   OH2 6584   5.153   0.130   1.872 -0.2740 -0.3319 -0.2097
 2207TIP3    H1 6585   5.064   0.163   1.857 -0.0175  0.0854 -0.8212
 2207TIP3    H2 6586   5.177   0.086   1.791 -0.1584 -1.0033  0.1824
 2208TIP3   OH2 6587   2.902   6.731   2.307 -0.2699  0.1759 -0.3134
 2208TIP3    H1 6588   2.904   6.640   2.276  0.6014  0.2934 -0.6188
 2208TIP3    H2 6589   2.837   6.730   2.377  1.8264 -1.3921  1.7960
 2209TIP3   OH2 6590   4.678   4.292   4.149  0.5178  0.9331 -0.8123
 2209TIP3    H1 6591   4.583   4.298   4.161  0.4033 -0.2839 -0.9211
 2209TIP3    H2 6592   4.713   4.368   4.195 -0.5890  2.2696 -2.0556
 2210TIP3   OH2 6593   7.177   3.730   4.139  0.1795 -0.2128  0.0629
 2210TIP3    H1 6594   7.245   3.745   4.204  1.3253  0.4764 -1.2340
 2210TIP3    H2 6595   7.215   3.666   4.079 -0.7470 -0.6338 -0.0928
 2211TIP3   OH2 6596   1.840   2.606   4.312 -0.3922 -0.0663  0.1672
 2211TIP3    H1 6597   1.767   2.668   4.316 -1.5739 -1.3826 -0.2460
 2211TIP3    H2 6598   1.858   2.586   4.404 -1.2603 -0.5006  0.2602
 2212TIP3   OH2 6599   1.466   5.618   5.019 -0.5510  0.4484 -0.2099
 2212TIP3    H1 6600   1.556   5.588   5.003 -1.0758 -0.9771 -0.6724
 2212TIP3    H2 6601   1.471   5.713   5.016  1.3575  0.5133  1.9343
 2213TIP3   OH2 6602  -0.029   5.689   1.704  0.0228 -0.2918 -0.5836
 2213TIP3    H1 6603  -0.011   5.654   1.791 -1.5290  2.2377  0.8571
 2213TIP3    H2 6604   0.043   5.749   1.686 -1.6986  2.3600  0.8809
 2214TIP3   OH2 6605   0.112   3.654   0.820  0.1974  0.0959  0.5617
 2214TIP3    H1 6606   0.113   3.745   0.847  0.7465 -0.3952  2.3324
 2214TIP3    H2 6607   0.031   3.645   0.769 -0.1202  1.4413  0.7947
 2215TIP3   OH2 6608   3.209   6.646   0.082  0.0858  0.1589 -0.2072
 2215TIP3    H1 6609   3.280   6.583   0.096  0.5220  0.6937  0.0359
 2215TIP3    H2 6610   3.135   6.611   0.131 -0.0977 -0.8674 -1.1829
 2216TIP3   OH2 6611   0.792   0.836   2.754  0.0970  0.0741  0.0725
 2216TIP3    H1 6612   0.804   0.931   2.742 -1.0384  0.3120  0.6834
 2216TIP3    H2 6613   0.881   0.802   2.765  0.5424  1.0223 -0.4454
 2217TIP3   OH2 6614   6.064   6.417   2.336 -0.0073 -0.2610 -0.5306
 2217TIP3    H1 6615   6.073   6.327   2.306  0.5426 -1.8069  3.6210
 2217TIP3    H2 6616   6.153   6.454   2.329  0.9757 -1.8229  2.3221
 2218TIP3   OH2 6617   6.635   4.695   2.390 -0.7669 -0.1753 -1.0027
 2218TIP3    H1 6618   6.611   4.716   2.481 -0.0950 -0.1034 -0.8405
 2218TIP3    H2 6619   6.730   4.693   2.390 -0.7566  0.1370 -1.7813
 2219TIP3   OH2 6620   0.561   3.186   0.537 -0.0080 -0.7139 -0.0856
 2219TIP3    H1 6621   0.629   3.183   0.470  1.1173  0.2312  0.9599
 2219TIP3    H2 6622   0.606   3.218   0.616 -2.0001  1.7415  0.1929
 2220TIP3   OH2 6623   3.326   2.230   4.147 -0.3941 -0.1769 -0.3094
 2220TIP3    H1 6624   3.407   2.209   4.101  1.3509 -0.2353  2.5576
 2220TIP3    H2 6625   3.339   2.320   4.178 -1.6708 -0.0026 -0.2317
 2221TIP3   OH2 6626   6.535   6.665   3.510 -0.2717  0.0619  0.5452
 2221TIP3    H1 6627   6.612   6.718   3.533 -0.7599  1.6757 -1.2950
 2221TIP3    H2 6628   6.463   6.728   3.509 -0.8374 -0.5197 -1.9594
 2222TIP3   OH2 6629   3.883   5.575   1.292  0.0773 -0.0446  0.0229
 2222TIP3    H1 6630   3.926   5.632   1.227 -1.9367 -0.5621 -1.8791
 2222TIP3    H2 6631   3.791   5.576   1.267 -0.5977 -1.1857  2.2535
 2223TIP3   OH2 6632   3.829   1.288   5.068  0.3178 -0.1025 -0.4365
 2223TIP3    H1 6633   3.849   1.338   5.147 -1.1695 -1.0622  0.6077
 2223TIP3    H2 6634   3.754   1.334   5.030  1.1842  0.5011 -1.4676
 2224TIP3   OH2 6635   5.959   3.779   4.790 -0.1016  0.3325  0.4416
 2224TIP3    H1 6636   6.017   3.816   4.724 -0.2856 -0.9814 -0.5057
 2224TIP3    H2 6637   5.891   3.844   4.803 -0.9544 -0.0168 -1.8642
 2225TIP3   OH2 6638   4.283   1.498   3.943  0.5071  0.2121  0.0183
 2225TIP3    H1 6639   4.284   1.566   4.010 -0.2133 -0.0898  0.3462
 2225TIP3    H2 6640   4.214   1.437   3.971 -1.0370  0.9731 -1.8674
 2226TIP3   OH2 6641   3.651   4.233   5.610 -0.2824  0.2959 -0.0190
 2226TIP3    H1 6642   3.655   4.197   5.522 -0.8889 -0.8880  0.4145
 2226TIP3    H2 6643   3.604   4.167   5.661  0.8474  0.5313  1.3952
 2227TIP3   OH2 6644   1.011   1.161   5.051 -0.6268  0.1006  0.2952
 2227TIP3    H1 6645   0.982   1.158   5.143 -1.6101 -1.5692 -0.0249
 2227TIP3    H2 6646   1.102   1.132   5.054 -0.4427  0.6949  0.8032
 2228TIP3   OH2 6647   5.800   5.403   3.333  0.0305 -0.4357  0.3319
 2228TIP3    H1 6648   5.739   5.330   3.324  0.1860 -0.5349  0.0555
 2228TIP3    H2 6649   5.822   5.427   3.243 -0.3293  0.2180  0.4102
 2229TIP3   OH2 6650   5.223   2.992   2.171 -0.4503 -0.2903  0.0415
 2229TIP3    H1 6651   5.315   3.013   2.157 -0.4083 -0.4180  0.1279
 2229TIP3    H2 6652   5.215   2.900   2.148  0.3250 -1.5304  3.9477
 2230TIP3   OH2 6653   3.885   1.320   0.599 -0.1616 -0.1172 -0.6273
 2230TIP3    H1 6654   3.812   1.379   0.619 -0.0366 -0.8933  2.7589
 2230TIP3    H2 6655   3.917   1.292   0.685  1.5190 -3.0256 -2.0466
 2231TIP3   OH2 6656   2.967   1.105   2.573 -0.1988 -0.2786  0.2985
 2231TIP3    H1 6657   3.020   1.050   2.630  0.4616  1.1172  1.0992
 2231TIP3    H2 6658   3.031   1.154   2.521 -0.7281  0.3537  0.2202
 2232TIP3   OH2 6659   6.625   0.787   2.308 -0.0367  0.1517  0.2888
 2232TIP3    H1 6660   6.555   0.853   2.302  0.8589  1.0448 -1.1577
 2232TIP3    H2 6661   6.628   0.748   2.221  0.2356 -0.9793  0.7994
 2233TIP3   OH2 6662   0.335   2.759   1.856  0.2557  0.2320 -0.2977
 2233TIP3    H1 6663   0.285   2.824   1.905  0.9211  2.0046 -1.8332
 2233TIP3    H2 6664   0.424   2.767   1.890  0.0953 -0.7936  0.3795
 2234TIP3   OH2 6665   6.862   5.418   5.643  0.0815 -0.2445  0.2811
 2234TIP3    H1 6666   6.897   5.455   5.563 -0.6013 -0.0377  0.0723
 2234TIP3    H2 6667   6.774   5.456   5.651 -0.0601 -0.6731  0.8421
 2235TIP3   OH2 6668   6.786   4.963   3.046 -0.5164  0.5049 -0.0011
 2235TIP3    H1 6669   6.873   4.924   3.047 -0.5926  0.3375  0.2096
 2235TIP3    H2 6670   6.788   5.029   3.115  0.3015  2.4187 -1.7561
 2236TIP3   OH2 6671   1.516   3.988   1.136 -0.5454 -0.9072  0.7207
 2236TIP3    H1 6672   1.610   3.972   1.125 -0.6299 -2.4443  1.8877
 2236TIP3    H2 6673   1.474   3.937   1.067 -0.6010 -2.2519  1.7036
 2237TIP3   OH2 6674   6.004   6.643   1.940 -0.2051 -0.4339  0.4614
 2237TIP3    H1 6675   5.927   6.615   1.892  0.0831 -1.4928  0.5972
 2237TIP3    H2 6676   6.075   6.589   1.906  0.0250 -1.1174  1.9631
 2238TIP3   OH2 6677   0.196   5.397   4.336  0.4311 -0.4582  0.1161
 2238TIP3    H1 6678   0.265   5.342   4.372  1.9643  0.5885 -1.1261
 2238TIP3    H2 6679   0.232   5.486   4.336 -1.3190  0.3014  0.4287
 2239TIP3   OH2 6680   0.082   4.090   4.131  0.3833 -0.1386  0.9886
 2239TIP3    H1 6681   0.098   4.098   4.225  0.0620  1.0951  0.9576
 2239TIP3    H2 6682  -0.007   4.125   4.118  0.9739  1.1171  0.0509
 2240TIP3   OH2 6683   1.297   0.292   4.324 -0.2785  0.5069  0.5929
 2240TIP3    H1 6684   1.352   0.239   4.382  0.1104 -0.4364 -0.5851
 2240TIP3    H2 6685   1.338   0.379   4.326  1.2573 -0.1529 -0.1967
 2241TIP3   OH2 6686   4.112   5.631   3.644 -0.1092 -0.3127  0.1570
 2241TIP3    H1 6687   4.188   5.625   3.587 -0.9174 -0.5579 -0.9369
 2241TIP3    H2 6688   4.037   5.622   3.585 -0.9939  0.1010  1.1726
 2242TIP3   OH2 6689   1.647   1.135   3.662 -0.0374 -0.0116  0.4135
 2242TIP3    H1 6690   1.572   1.097   3.707  0.5837 -0.3102  1.2180
 2242TIP3    H2 6691   1.675   1.066   3.600 -1.1753  0.5763 -0.8022
 2243TIP3   OH2 6692   0.682   2.208   1.768 -0.2415  0.0530  0.2702
 2243TIP3    H1 6693   0.771   2.189   1.740 -0.2848 -0.1522  0.2640
 2243TIP3    H2 6694   0.685   2.297   1.803 -0.4761  0.8901 -1.6900
 2244TIP3   OH2 6695   3.087   0.618   1.253  0.2822  0.4234 -0.0840
 2244TIP3    H1 6696   2.993   0.604   1.264 -0.1678  1.6004 -1.8951
 2244TIP3    H2 6697   3.120   0.534   1.221 -0.1350 -0.0048  0.5872
 2245TIP3   OH2 6698   0.201   6.259   5.671  0.2466 -0.8580 -0.8418
 2245TIP3    H1 6699   0.276   6.206   5.700  0.4718 -0.4370 -0.6381
 2245TIP3    H2 6700   0.134   6.195   5.648 -0.4954 -1.2587  2.0108
 2246TIP3   OH2 6701   6.554   5.280   5.537  0.0390 -0.5961 -0.6237
 2246TIP3    H1 6702   6.463   5.307   5.552  0.1949  0.2764 -1.2328
 2246TIP3    H2 6703   6.603   5.362   5.534  1.0532 -1.1015  0.9364
 2247TIP3   OH2 6704   5.707   0.873   4.446 -0.2469 -0.2577  0.2504
 2247TIP3    H1 6705   5.751   0.950   4.483 -0.4881 -0.6618  1.4487
 2247TIP3    H2 6706   5.687   0.818   4.523  0.6664 -1.9173 -0.6425
 2248TIP3   OH2 6707   1.469   1.525   4.537  0.2897 -0.1935  1.3293
 2248TIP3    H1 6708   1.410   1.514   4.612 -1.1073  0.3574  0.3560
 2248TIP3    H2 6709   1.484   1.620   4.533 -1.9966  0.1632 -0.7564
 2249TIP3   OH2 6710   1.862   2.569   4.874 -0.1999  0.2111  0.4100
 2249TIP3    H1 6711   1.934   2.627   4.897  0.3869 -0.0253 -0.7631
 2249TIP3    H2 6712   1.798   2.625   4.830 -1.2592  0.6347  2.3555
 2250TIP3   OH2 6713   2.187   6.086   3.351 -0.8856 -0.5622  0.0526
 2250TIP3    H1 6714   2.181   5.991   3.341 -2.2172 -0.5471  0.5827
 2250TIP3    H2 6715   2.239   6.115   3.276  1.6191 -1.9295  1.1250
 2251TIP3   OH2 6716   1.229   5.779   0.501  0.1630 -0.4789 -0.1982
 2251TIP3    H1 6717   1.173   5.722   0.448  0.5626  2.6558 -4.5193
 2251TIP3    H2 6718   1.169   5.842   0.541  0.0993 -1.3896  1.2224
 2252TIP3   OH2 6719   1.356   4.311   1.599  0.3159  0.0400 -0.4029
 2252TIP3    H1 6720   1.389   4.384   1.547 -2.5384  0.9287 -1.1152
 2252TIP3    H2 6721   1.363   4.235   1.541  0.6165  0.2952 -0.7034
 2253TIP3   OH2 6722   4.449   0.234   5.301 -0.7077 -0.1494 -0.3706
 2253TIP3    H1 6723   4.488   0.192   5.224 -0.1552  0.0490 -0.2034
 2253TIP3    H2 6724   4.507   0.307   5.320 -0.9259 -0.1098  0.1520
 2254TIP3   OH2 6725   5.683   0.303   4.363  0.6104  1.3967 -0.7955
 2254TIP3    H1 6726   5.599   0.268   4.332  0.8795  1.8767 -2.1662
 2254TIP3    H2 6727   5.748   0.247   4.321  0.9827  1.2326 -0.0025
 2255TIP3   OH2 6728   4.420   5.093   0.758  0.4386 -0.0346  0.8029
 2255TIP3    H1 6729   4.515   5.095   0.754  0.4620  1.8013  1.3063
 2255TIP3    H2 6730   4.399   5.124   0.846 -0.6250  2.1816 -0.1565
 2256TIP3   OH2 6731   1.368   4.780   3.141 -0.1200  0.4814 -0.0885
 2256TIP3    H1 6732   1.440   4.832   3.177 -0.2951  1.2424 -0.8129
 2256TIP3    H2 6733   1.289   4.821   3.175 -0.2667  0.8527 -0.8486
 2257TIP3   OH2 6734   0.074   1.323   1.690 -0.3252  0.0177  0.4402
 2257TIP3    H1 6735   0.015   1.396   1.671 -0.3329 -0.3402 -1.0052
 2257TIP3    H2 6736   0.026   1.269   1.754 -2.6512 -1.4876 -2.3283
 2258TIP3   OH2 6737   1.574   5.869   4.873 -0.1220  0.6966 -0.1806
 2258TIP3    H1 6738   1.622   5.928   4.932  1.5783 -1.7513  1.0723
 2258TIP3    H2 6739   1.642   5.827   4.820 -1.4547  1.3532 -2.5670
 2259TIP3   OH2 6740   1.015   4.072   2.162 -0.1646  0.0313 -0.2322
 2259TIP3    H1 6741   0.990   4.021   2.085  1.7567 -1.5326  0.0815
 2259TIP3    H2 6742   1.075   4.014   2.210  0.7508  1.9592  1.0653
 2260TIP3   OH2 6743   2.557   5.778   1.057 -0.8010  0.2878  1.0818
 2260TIP3    H1 6744   2.560   5.840   1.130 -0.4222  1.0604  0.4252
 2260TIP3    H2 6745   2.515   5.827   0.986  3.7233  1.6176 -1.0668
 2261TIP3   OH2 6746   2.084   3.406   4.940  0.1173  0.0607  0.2375
 2261TIP3    H1 6747   2.113   3.314   4.940  1.1053  0.3174 -1.7253
 2261TIP3    H2 6748   2.060   3.423   4.849 -0.2793  1.6882  0.6246
 2262TIP3   OH2 6749   5.066   5.020   0.129  0.0658  0.7150 -0.0145
 2262TIP3    H1 6750   5.084   5.086   0.061  0.7722  0.8136  0.2603
 2262TIP3    H2 6751   4.979   4.986   0.107  0.7863 -0.1686 -1.7298
 2263TIP3   OH2 6752   0.987   1.625   2.377 -0.0476  0.5763  0.7058
 2263TIP3    H1 6753   1.062   1.684   2.370 -0.1662  0.7625  0.9718
 2263TIP3    H2 6754   0.967   1.601   2.287  1.2440 -0.6312  0.7104
 2264TIP3   OH2 6755   0.375   1.878   4.669 -0.3968  0.5062  0.3511
 2264TIP3    H1 6756   0.407   1.877   4.759 -1.2708  1.6893  0.7005
 2264TIP3    H2 6757   0.386   1.788   4.639 -0.6418 -0.0625  1.8427
 2265TIP3   OH2 6758   4.496   0.459   1.862  0.3679  0.0506  0.3949
 2265TIP3    H1 6759   4.470   0.495   1.947 -0.1023  0.9042 -0.0905
 2265TIP3    H2 6760   4.546   0.529   1.821 -0.2901  0.0433 -0.4443
 2266TIP3   OH2 6761   3.705   3.301   3.356  0.1154 -0.2209 -0.2323
 2266TIP3    H1 6762   3.665   3.368   3.301 -1.2935 -1.1463 -0.4007
 2266TIP3    H2 6763   3.689   3.331   3.445 -1.0286 -0.5756 -0.2963
 2267TIP3   OH2 6764   2.973   4.091   3.759  0.2028  1.0144  0.3436
 2267TIP3    H1 6765   3.030   4.063   3.830  0.4499 -5.0672 -1.6644
 2267TIP3    H2 6766   3.033   4.125   3.692  0.8496 -0.0330  0.3768
 2268TIP3   OH2 6767   6.096   0.253   1.295  0.0460 -0.5959  0.4822
 2268TIP3    H1 6768   6.184   0.274   1.264 -1.0186  0.7027 -1.9373
 2268TIP3    H2 6769   6.104   0.252   1.390  2.0386  2.7763  0.5273
 2269TIP3   OH2 6770   5.305   3.444   3.877  0.2470  0.1182  0.4008
 2269TIP3    H1 6771   5.360   3.365   3.877 -1.0164 -0.8019  1.0708
 2269TIP3    H2 6772   5.252   3.435   3.797  0.2064  0.3711  0.4006
 2270TIP3   OH2 6773   6.900   5.837   0.383  0.3428 -0.5286  0.3129
 2270TIP3    H1 6774   6.994   5.858   0.378  0.2801  0.4306  2.1774
 2270TIP3    H2 6775   6.897   5.746   0.411  0.7277 -0.4289  0.6936
 2271TIP3   OH2 6776   2.157   2.341   1.366 -0.3454  0.4040  0.3125
 2271TIP3    H1 6777   2.147   2.326   1.272  3.3612  0.7642 -0.3255
 2271TIP3    H2 6778   2.082   2.395   1.390 -1.4902  0.1895 -2.4119
 2272TIP3   OH2 6779   0.100   1.218   0.988 -1.0415 -0.8269  0.1199
 2272TIP3    H1 6780   0.168   1.267   0.942 -0.9120 -0.2442  0.9105
 2272TIP3    H2 6781   0.102   1.252   1.077 -1.7098 -1.4970  0.4013
 2273TIP3   OH2 6782   6.704   1.213   4.613  0.2907  0.7486 -0.2066
 2273TIP3    H1 6783   6.788   1.231   4.570  0.6591 -0.8180 -0.2093
 2273TIP3    H2 6784   6.638   1.242   4.549  0.8158  1.7255 -0.3212
 2274TIP3   OH2 6785   4.344   5.829   2.939  0.1913  0.0464 -0.4472
 2274TIP3    H1 6786   4.278   5.780   2.988  0.4985  0.0637 -0.0184
 2274TIP3    H2 6787   4.293   5.883   2.878 -0.1554 -0.7520 -0.8864
 2275TIP3   OH2 6788   6.752   5.287   3.511  0.5347  0.3995  0.3737
 2275TIP3    H1 6789   6.673   5.330   3.479  0.9231  0.7216 -0.1623
 2275TIP3    H2 6790   6.764   5.213   3.450  0.5307  0.2273  0.5815
 2276TIP3   OH2 6791   4.873   2.591   4.810 -0.1782  0.0788 -0.1107
 2276TIP3    H1 6792   4.947   2.610   4.753 -0.2726 -1.7533 -0.9477
 2276TIP3    H2 6793   4.907   2.601   4.899  0.3042  1.8346 -0.4672
 2277TIP3   OH2 6794   1.319   3.293   4.441  0.3372 -0.3196  0.0373
 2277TIP3    H1 6795   1.332   3.200   4.422  1.0399 -0.3600  0.6768
 2277TIP3    H2 6796   1.285   3.295   4.530  2.5783  0.1183  0.9419
 2278TIP3   OH2 6797   5.211   0.489   3.568 -0.2732 -0.3073 -0.5971
 2278TIP3    H1 6798   5.291   0.492   3.516  2.1475 -1.1793  2.7154
 2278TIP3    H2 6799   5.172   0.404   3.548  1.5480 -1.3876  0.1238
 2279TIP3   OH2 6800   3.089   3.615   2.604 -0.2238  0.6039 -0.3161
 2279TIP3    H1 6801   3.082   3.554   2.677 -0.2959  1.4287  0.3680
 2279TIP3    H2 6802   3.004   3.658   2.600 -0.1659  0.6807 -0.7873
 2280TIP3   OH2 6803   5.391   1.599   4.348  0.3481  0.2798 -0.1498
 2280TIP3    H1 6804   5.430   1.686   4.350 -0.0154  0.4638 -0.7318
 2280TIP3    H2 6805   5.326   1.600   4.418 -0.6801  0.9866 -1.0787
 2281TIP3   OH2 6806   6.219   1.266   2.132  0.3612  0.7986 -0.1244
 2281TIP3    H1 6807   6.233   1.172   2.139  0.3043  0.6449 -1.7084
 2281TIP3    H2 6808   6.284   1.305   2.191  0.6755 -0.2147  0.2110
 2282TIP3   OH2 6809   6.582   4.644   5.037 -0.2941 -0.4121  0.2283
 2282TIP3    H1 6810   6.535   4.662   4.956  0.0149 -0.8017 -0.0408
 2282TIP3    H2 6811   6.527   4.580   5.082 -0.3857 -0.3161  0.2537
 2283TIP3   OH2 6812   6.136   6.510   5.719 -0.3124  0.2231 -0.2284
 2283TIP3    H1 6813   6.098   6.428   5.688 -0.3121  0.3392 -0.5408
 2283TIP3    H2 6814   6.101   6.521   5.807 -0.3087 -0.1148 -0.1855
 2284TIP3   OH2 6815   3.859   4.960   1.842 -0.5549  0.1703 -0.3569
 2284TIP3    H1 6816   3.929   4.896   1.845 -0.1155  0.6250 -0.7116
 2284TIP3    H2 6817   3.779   4.909   1.833 -0.3429 -0.3898  0.7419
 2285TIP3   OH2 6818   5.183   5.844   3.271 -0.1269  0.7087 -0.1308
 2285TIP3    H1 6819   5.124   5.858   3.344  1.4201  1.7484  1.0037
 2285TIP3    H2 6820   5.130   5.859   3.193 -1.8776 -0.6715  0.7333
 2286TIP3   OH2 6821   0.979   1.283   3.365  0.2303  0.2359 -0.2565
 2286TIP3    H1 6822   0.999   1.288   3.459  0.9394 -0.3203 -0.3720
 2286TIP3    H2 6823   0.935   1.199   3.355 -1.0400  0.8697 -0.2235
 2287TIP3   OH2 6824   1.105   6.251   0.743 -0.1598  0.4320  0.3176
 2287TIP3    H1 6825   1.193   6.214   0.737  0.5235  1.5884  2.3523
 2287TIP3    H2 6826   1.073   6.223   0.829 -2.1887 -0.7350 -0.7417
 2288TIP3   OH2 6827   4.713   3.480   0.999 -0.4104 -0.7172  0.1866
 2288TIP3    H1 6828   4.618   3.474   0.988 -0.5939  1.9504 -0.4485
 2288TIP3    H2 6829   4.746   3.505   0.912  0.5856  0.4904  0.8718
 2289TIP3   OH2 6830   0.939   0.039   4.077  0.2312  0.1874 -0.0196
 2289TIP3    H1 6831   0.987   0.059   4.158  0.3149  0.1889 -0.0694
 2289TIP3    H2 6832   0.996   0.070   4.007  0.0359  0.4337 -0.0692
 2290TIP3   OH2 6833   5.117   0.269   2.696  0.5785  0.4883 -0.3299
 2290TIP3    H1 6834   5.092   0.349   2.741  1.3823  0.2039  0.6599
 2290TIP3    H2 6835   5.045   0.208   2.712  1.3488  0.0083  1.6268
 2291TIP3   OH2 6836   2.789   0.589   5.097 -0.1483  0.0103 -0.0912
 2291TIP3    H1 6837   2.706   0.541   5.109 -0.4669  0.5673 -0.0617
 2291TIP3    H2 6838   2.763   0.680   5.088  0.4133  0.1146 -0.7300
 2292TIP3   OH2 6839   7.190   5.143   1.948 -0.1660  0.6783 -0.2063
 2292TIP3    H1 6840   7.128   5.195   1.897  0.0738 -0.9591 -2.3217
 2292TIP3    H2 6841   7.247   5.101   1.882  1.5572  0.1144  1.5249
 2293TIP3   OH2 6842   4.121   5.399   1.317  0.0632 -0.8752  0.2716
 2293TIP3    H1 6843   4.060   5.374   1.248 -1.3936 -1.1235  1.5883
 2293TIP3    H2 6844   4.065   5.422   1.391  1.5715 -2.5862  2.0583
 2294TIP3   OH2 6845   3.103   6.634   3.273 -0.0018  0.2993 -0.3432
 2294TIP3    H1 6846   3.145   6.568   3.218  1.1402  0.2875  0.5339
 2294TIP3    H2 6847   3.062   6.694   3.210  1.5574  0.4692 -1.2423
 2295TIP3   OH2 6848   6.498   5.086   3.254 -0.4317  0.0647  0.6484
 2295TIP3    H1 6849   6.444   5.163   3.235 -1.4303 -0.6511  0.5530
 2295TIP3    H2 6850   6.485   5.028   3.179  0.0727 -0.3386  0.8652
 2296TIP3   OH2 6851   6.354   2.263   2.935 -0.6856 -0.2656  0.3508
 2296TIP3    H1 6852   6.390   2.177   2.912 -0.3635 -0.1544  0.4409
 2296TIP3    H2 6853   6.266   2.245   2.966 -0.5151 -0.5916  0.6407
 2297TIP3   OH2 6854   0.398   1.879   4.935 -0.3726  0.0708 -0.0443
 2297TIP3    H1 6855   0.486   1.917   4.938 -0.1247 -0.5633  0.8948
 2297TIP3    H2 6856   0.407   1.791   4.972 -1.5780  0.3827  1.1154
 2298TIP3   OH2 6857   1.720   0.920   1.647  0.0551  0.0376 -0.3593
 2298TIP3    H1 6858   1.675   0.877   1.720 -1.3893  0.4937 -0.9671
 2298TIP3    H2 6859   1.688   1.010   1.648  1.5384  0.6069 -0.3524
 2299TIP3   OH2 6860   1.478   0.938   4.293 -0.4684  0.0838  0.0339
 2299TIP3    H1 6861   1.554   0.952   4.235 -1.1613  0.8300 -0.7245
 2299TIP3    H2 6862   1.512   0.953   4.381  0.4528 -0.3945 -0.2282
 2300TIP3   OH2 6863   1.615   1.683   4.990  0.1999  0.4935 -0.4411
 2300TIP3    H1 6864   1.527   1.649   5.007  0.3939  0.0410 -0.3396
 2300TIP3    H2 6865   1.604   1.740   4.914 -0.7732  2.9006  1.3669
 2301TIP3   OH2 6866   2.272   0.079   1.940 -0.2226  0.6750 -0.2162
 2301TIP3    H1 6867   2.211   0.152   1.926 -0.0846  1.3179  2.1198
 2301TIP3    H2 6868   2.342   0.116   1.994  0.8621 -0.7324 -0.5976
 2302TIP3   OH2 6869   1.286   6.279   2.704  0.4286  0.3608 -0.4408
 2302TIP3    H1 6870   1.208   6.334   2.704  0.5614  0.5739  0.5182
 2302TIP3    H2 6871   1.265   6.206   2.646 -0.4726  0.4247 -0.2056
 2303TIP3   OH2 6872   2.960   0.488   5.776  0.0434  0.0571  0.3829
 2303TIP3    H1 6873   3.025   0.550   5.744  0.3387 -0.9414 -1.0086
 2303TIP3    H2 6874   3.007   0.405   5.783 -0.4852 -0.1651  1.7092
 2304TIP3   OH2 6875   5.507   2.921   2.361  0.2231 -0.1598 -0.1769
 2304TIP3    H1 6876   5.554   3.004   2.350 -1.6103  0.7164 -2.4130
 2304TIP3    H2 6877   5.420   2.946   2.393  0.0536 -1.3634  0.3759
 2305TIP3   OH2 6878   0.464   2.058   5.403  0.2726 -0.0079  0.5304
 2305TIP3    H1 6879   0.481   1.964   5.416 -2.0382 -0.2062  2.9425
 2305TIP3    H2 6880   0.426   2.063   5.315 -1.5049 -1.7007  1.1346
 2306TIP3   OH2 6881   0.858   2.104   0.759 -0.2107 -0.4245 -0.1190
 2306TIP3    H1 6882   0.809   2.160   0.819  0.2386  0.2083 -0.3379
 2306TIP3    H2 6883   0.922   2.059   0.814  0.0313 -0.0366 -0.0862
 2307TIP3   OH2 6884   2.840   6.777   4.668  0.1080  0.3499 -0.1385
 2307TIP3    H1 6885   2.911   6.810   4.721  0.1421  1.3048 -0.7502
 2307TIP3    H2 6886   2.876   6.772   4.579 -0.5277  0.6869 -0.4270
 2308TIP3   OH2 6887   5.977   3.714   5.078  0.2711  0.1660  0.3403
 2308TIP3    H1 6888   6.067   3.747   5.086  0.7565 -0.8735 -0.5861
 2308TIP3    H2 6889   5.965   3.699   4.984  0.0367 -2.0529  0.6586
 2309TIP3   OH2 6890   5.268   2.339   0.487  0.1311 -0.3589 -0.2566
 2309TIP3    H1 6891   5.361   2.321   0.471  0.4931  0.1506  1.1134
 2309TIP3    H2 6892   5.239   2.265   0.542 -0.3849 -0.7203 -1.0003
 2310TIP3   OH2 6893   4.742   6.286   1.014  0.1762  0.3204  0.2924
 2310TIP3    H1 6894   4.761   6.364   0.962 -1.0210  0.3859 -0.0813
 2310TIP3    H2 6895   4.649   6.268   0.998 -0.0159 -0.1558  1.7462
 2311TIP3   OH2 6896   4.047   3.611   5.430  0.5137 -0.4313  0.1866
 2311TIP3    H1 6897   4.080   3.630   5.518  0.1793 -0.9301  0.4271
 2311TIP3    H2 6898   4.048   3.695   5.385  1.0581 -0.2382  0.5439
 2312TIP3   OH2 6899   4.213   1.950   0.221  0.4565 -0.2641  0.6024
 2312TIP3    H1 6900   4.188   1.955   0.129  1.6654  4.4041  0.2838
 2312TIP3    H2 6901   4.307   1.936   0.220  0.4793 -0.1880  1.1816
 2313TIP3   OH2 6902   6.427   2.221   4.548  0.5080  0.3846 -0.2210
 2313TIP3    H1 6903   6.488   2.286   4.584  0.1253 -0.0917  1.3413
 2313TIP3    H2 6904   6.368   2.272   4.492  0.9562  1.1934  0.0257
 2314TIP3   OH2 6905   4.748   1.106   1.610  0.5013 -0.1199  0.0769
 2314TIP3    H1 6906   4.676   1.086   1.669  0.0080  1.6588  0.1437
 2314TIP3    H2 6907   4.809   1.157   1.663  0.5034  0.6887 -0.6639
 2315TIP3   OH2 6908   6.215   1.232   4.421 -0.1559  0.3690 -0.4391
 2315TIP3    H1 6909   6.238   1.265   4.508 -1.7638 -0.9517  0.5461
 2315TIP3    H2 6910   6.230   1.138   4.426  0.4121  0.3566 -1.8547
 2316TIP3   OH2 6911   0.337   3.628   4.589 -0.5044 -0.0801  0.0508
 2316TIP3    H1 6912   0.358   3.721   4.577 -0.9935  0.0948  0.5575
 2316TIP3    H2 6913   0.252   3.628   4.632  0.3911 -0.7158  1.9332
 2317TIP3   OH2 6914   7.130   2.595   2.595  0.0596 -0.5908 -0.2009
 2317TIP3    H1 6915   7.182   2.673   2.574  0.9363 -0.8331  0.9824
 2317TIP3    H2 6916   7.040   2.623   2.583  0.3272  0.8336  0.8694
 2318TIP3   OH2 6917   6.438   5.219   2.733  0.2307 -0.5733 -0.2415
 2318TIP3    H1 6918   6.458   5.284   2.800 -0.0632 -0.0804 -0.6252
 2318TIP3    H2 6919   6.515   5.217   2.677 -0.0948  0.0589 -0.7153
 2319TIP3   OH2 6920   3.675   2.198   2.736  0.1017 -0.0319  0.0228
 2319TIP3    H1 6921   3.679   2.156   2.650 -0.9134  0.2974 -0.1999
 2319TIP3    H2 6922   3.633   2.133   2.793  0.9044 -0.3065  0.3174
 2320TIP3   OH2 6923   6.665   3.726   3.234 -0.4111  0.0838 -0.6141
 2320TIP3    H1 6924   6.586   3.725   3.180 -1.2745 -3.1638  0.4664
 2320TIP3    H2 6925   6.637   3.769   3.315 -0.7920 -0.1860 -0.5998
 2321TIP3   OH2 6926   4.682   5.369   1.028 -0.0751  0.4296 -0.2979
 2321TIP3    H1 6927   4.723   5.413   0.954 -0.2605 -0.5599 -1.0151
 2321TIP3    H2 6928   4.588   5.384   1.016 -0.0428  1.2903  0.4228
 2322TIP3   OH2 6929   4.493   1.517   3.062  0.0273 -0.0356  0.0462
 2322TIP3    H1 6930   4.426   1.560   3.009 -0.8929 -0.8834  0.4982
 2322TIP3    H2 6931   4.492   1.426   3.033  2.0612  0.2113 -1.0063
 2323TIP3   OH2 6932   5.821   0.208   3.859  0.0469  0.3979  0.1029
 2323TIP3    H1 6933   5.902   0.207   3.911  0.0395 -0.0584  0.1079
 2323TIP3    H2 6934   5.828   0.287   3.805 -0.0594  1.0246  0.9822
 2324TIP3   OH2 6935   6.139   2.821   1.034 -0.1210 -0.3320 -0.1459
 2324TIP3    H1 6936   6.067   2.882   1.051 -0.7754 -1.5107  1.6680
 2324TIP3    H2 6937   6.214   2.861   1.078  0.4522  1.0174 -2.2419
 2325TIP3   OH2 6938   1.052   5.223   5.366  0.5999  0.1224  0.2668
 2325TIP3    H1 6939   1.001   5.154   5.324 -1.4481  0.9124  1.2748
 2325TIP3    H2 6940   1.132   5.180   5.395  0.7982 -1.0591 -1.8626
 2326TIP3   OH2 6941   2.293   2.360   1.623  0.3421 -0.4043  0.1100
 2326TIP3    H1 6942   2.249   2.346   1.539 -0.0140 -0.0074  0.2228
 2326TIP3    H2 6943   2.353   2.433   1.607  1.0598 -1.0314 -0.0765
 2327TIP3   OH2 6944   4.942   2.006   5.340  0.7672  0.5972  0.0433
 2327TIP3    H1 6945   4.957   2.008   5.434  1.1064  1.0371 -0.0201
 2327TIP3    H2 6946   4.999   2.074   5.304  1.1871 -0.0469 -0.5550
 2328TIP3   OH2 6947   6.912   3.497   2.098 -0.0883  0.1826 -0.0644
 2328TIP3    H1 6948   6.899   3.430   2.031  2.3765  0.1828 -0.6226
 2328TIP3    H2 6949   6.828   3.542   2.102 -1.1930 -1.6571 -1.0826
 2329TIP3   OH2 6950   1.571   5.622   2.509 -0.6790  0.1636 -0.0801
 2329TIP3    H1 6951   1.484   5.602   2.542 -0.2598  0.7925  1.5120
 2329TIP3    H2 6952   1.630   5.567   2.562 -0.0360  0.5059 -0.4286
 2330TIP3   OH2 6953   0.422   0.088   2.136 -0.1813  0.0802 -0.1620
 2330TIP3    H1 6954   0.342   0.126   2.101  0.3668  0.9932 -0.4504
 2330TIP3    H2 6955   0.400  -0.004   2.150 -1.6732  0.5507  0.9293
 2331TIP3   OH2 6956   0.281   6.110   0.106  0.1124 -0.2686 -0.0949
 2331TIP3    H1 6957   0.219   6.037   0.097 -1.8424  1.2910  0.0389
 2331TIP3    H2 6958   0.271   6.139   0.197  2.1588 -0.8893  0.3684
 2332TIP3   OH2 6959   6.817   2.123   1.159  0.2042 -0.1124 -0.1027
 2332TIP3    H1 6960   6.904   2.099   1.127 -0.0895  1.0922 -1.9923
 2332TIP3    H2 6961   6.757   2.096   1.089 -0.8377  0.0691  0.6816
 2333TIP3   OH2 6962   3.650   4.103   1.677 -0.0097 -0.3931 -0.2466
 2333TIP3    H1 6963   3.669   4.193   1.704  0.4597 -0.6515  0.2948
 2333TIP3    H2 6964   3.644   4.108   1.582  1.9857 -0.1404 -0.3865
 2334TIP3   OH2 6965   4.979   4.869   0.666  0.4415  0.1320 -0.7843
 2334TIP3    H1 6966   5.041   4.941   0.653  1.2449 -0.3649  0.2136
 2334TIP3    H2 6967   4.893   4.912   0.662  0.9214  1.3850  1.0047
 2335TIP3   OH2 6968   4.672   1.227   3.201  0.1107  0.0275 -0.8170
 2335TIP3    H1 6969   4.599   1.169   3.177 -1.0931  0.8789  0.5973
 2335TIP3    H2 6970   4.747   1.192   3.154 -1.0964 -1.2076 -1.9161
 2336TIP3   OH2 6971   4.585   3.543   4.810  0.0165 -0.4806 -0.0330
 2336TIP3    H1 6972   4.667   3.570   4.852 -1.5675  0.7074  2.4870
 2336TIP3    H2 6973   4.577   3.450   4.832  0.5412 -0.5330 -0.0465
 2337TIP3   OH2 6974   2.924   3.463   0.578 -0.1731 -0.4874  0.2927
 2337TIP3    H1 6975   2.874   3.535   0.618  0.6370  1.8144 -2.4116
 2337TIP3    H2 6976   2.857   3.405   0.542 -0.8618 -0.7199  1.9045
 2338TIP3   OH2 6977   1.348   3.809   1.649 -0.2716  0.1274  0.3768
 2338TIP3    H1 6978   1.343   3.848   1.736  0.4308 -1.1398  1.0077
 2338TIP3    H2 6979   1.263   3.766   1.637 -0.0331 -0.4852  0.8347
 2339TIP3   OH2 6980   6.856   1.455   0.815 -0.0345 -0.2087 -0.0259
 2339TIP3    H1 6981   6.807   1.467   0.897 -0.5419  1.3587 -0.5138
 2339TIP3    H2 6982   6.901   1.539   0.802  1.7351 -1.1520 -0.2920
 2340TIP3   OH2 6983   5.592   3.983   0.334  0.3975  0.2016 -0.3069
 2340TIP3    H1 6984   5.669   3.978   0.390  1.3772 -0.7839 -1.6910
 2340TIP3    H2 6985   5.606   4.063   0.282  0.9376 -0.4388 -1.1666
 2341TIP3   OH2 6986   3.057   5.669   3.046  0.0047  0.0419  0.1898
 2341TIP3    H1 6987   3.075   5.749   3.096  0.5937 -0.1627  0.3120
 2341TIP3    H2 6988   2.988   5.694   2.985  0.5507  0.7974 -0.1373
 2342TIP3   OH2 6989   0.114   6.691   1.006  0.3171 -0.0210  0.2226
 2342TIP3    H1 6990   0.039   6.749   1.021 -1.3448 -1.4002 -2.2034
 2342TIP3    H2 6991   0.103   6.621   1.070  1.2769  1.2414  1.8687
 2343TIP3   OH2 6992   2.083   4.606   5.150  0.3648 -0.9530 -0.3580
 2343TIP3    H1 6993   2.023   4.679   5.163 -0.1324 -1.4782  0.4025
 2343TIP3    H2 6994   2.036   4.530   5.185  1.6540 -1.2946  0.7082
 2344TIP3   OH2 6995   1.108   3.914   1.490  0.1150 -0.1360  0.1914
 2344TIP3    H1 6996   1.200   3.935   1.477  1.0130 -2.6761  1.8697
 2344TIP3    H2 6997   1.071   3.911   1.402  2.3155 -1.8836 -0.7430
 2345TIP3   OH2 6998   5.727   2.237   0.852 -0.3101  0.2566 -0.0280
 2345TIP3    H1 6999   5.818   2.211   0.868  0.1584  1.0345 -1.3183
 2345TIP3    H2 7000   5.724   2.330   0.876 -0.2073  0.7942 -1.9620
 2346TIP3   OH2 7001   6.403   5.183   1.617  0.5755  0.2097  0.3015
 2346TIP3    H1 7002   6.311   5.182   1.589  0.2791  0.6376  1.2217
 2346TIP3    H2 7003   6.452   5.208   1.539 -0.2029  1.1126  0.0896
 2347TIP3   OH2 7004   0.062   5.965   0.194 -0.0152  0.0214  0.0968
 2347TIP3    H1 7005   0.017   5.957   0.278 -0.0034 -1.3221 -0.0082
 2347TIP3    H2 7006   0.023   6.043   0.154  0.4118  1.0532  1.5876
 2348TIP3   OH2 7007   2.861   5.396   4.013  0.1094  0.6149 -0.1924
 2348TIP3    H1 7008   2.914   5.320   4.039  0.0137  0.7526  0.4180
 2348TIP3    H2 7009   2.896   5.420   3.928  0.0207 -0.2338 -0.4825
 2349TIP3   OH2 7010   6.579   0.121   5.649 -0.3240  0.0739 -0.0333
 2349TIP3    H1 7011   6.649   0.128   5.715 -2.2605  0.2255  2.1556
 2349TIP3    H2 7012   6.514   0.064   5.690 -0.7957 -1.4900 -2.7017
 2350TIP3   OH2 7013   3.628   6.066   3.292 -0.7764 -0.7019 -0.8189
 2350TIP3    H1 7014   3.613   6.088   3.200  0.3646  0.2490 -0.7989
 2350TIP3    H2 7015   3.633   6.151   3.336 -0.5354 -1.1280 -0.0094
 2351TIP3   OH2 7016   2.250   2.350   5.269  0.1029 -0.0244 -0.8620
 2351TIP3    H1 7017   2.233   2.296   5.346  0.0043 -1.4255 -1.8353
 2351TIP3    H2 7018   2.162   2.371   5.236  0.1377 -1.4464 -1.9352
 2352TIP3   OH2 7019   4.538   1.416   4.070  0.0833 -0.0771  0.5045
 2352TIP3    H1 7020   4.595   1.352   4.026  0.4085  0.5489 -0.0010
 2352TIP3    H2 7021   4.469   1.433   4.006 -1.5358 -1.9190  1.6534
 2353TIP3   OH2 7022   6.399   4.846   1.881 -0.1669  0.0300 -0.4743
 2353TIP3    H1 7023   6.309   4.840   1.849 -1.0422 -1.9892  2.0446
 2353TIP3    H2 7024   6.445   4.774   1.838 -1.0976 -2.0689  1.8304
 2354TIP3   OH2 7025   1.572   3.938   3.283 -0.1817  0.3597  0.3477
 2354TIP3    H1 7026   1.492   3.907   3.326  0.2071 -1.9893 -0.4831
 2354TIP3    H2 7027   1.555   3.926   3.190  1.5865 -1.5531  0.1948
 2355TIP3   OH2 7028   6.184   1.136   1.369  0.4686  0.0699 -0.8913
 2355TIP3    H1 7029   6.150   1.223   1.386  1.8892  0.3615  0.7988
 2355TIP3    H2 7030   6.275   1.150   1.345  1.6194 -0.9957  2.3045
 2356TIP3   OH2 7031   6.097   1.878   4.518  0.5317  0.1422 -0.1014
 2356TIP3    H1 7032   6.020   1.934   4.516  0.7672  0.5045  0.6033
 2356TIP3    H2 7033   6.077   1.811   4.583 -0.4352 -1.6413 -2.1314
 2357TIP3   OH2 7034   4.559   2.356   3.155 -0.1900 -0.4318  0.2602
 2357TIP3    H1 7035   4.575   2.397   3.240 -1.2606 -0.1755  0.3478
 2357TIP3    H2 7036   4.510   2.421   3.105 -0.5759 -1.0211 -0.1456
 2358TIP3   OH2 7037   2.565   3.881   4.645  0.1797 -0.4503 -0.3982
 2358TIP3    H1 7038   2.473   3.855   4.657 -0.2571  0.5304 -1.4247
 2358TIP3    H2 7039   2.569   3.916   4.556  1.6751 -0.9268 -0.5437
 2359TIP3   OH2 7040   6.280   2.337   2.032  0.3475 -0.1823  0.1935
 2359TIP3    H1 7041   6.189   2.353   2.009 -0.2574 -1.2572  1.6622
 2359TIP3    H2 7042   6.288   2.369   2.122  1.1342 -0.9995  0.4342
 2360TIP3   OH2 7043   7.095   6.109   1.731 -0.0639  0.2685 -0.0794
 2360TIP3    H1 7044   7.004   6.121   1.705 -0.2519 -1.3779 -0.2342
 2360TIP3    H2 7045   7.091   6.088   1.824  0.2679  1.3135  0.1917
 2361TIP3   OH2 7046   5.659   3.668   4.033  0.6750  0.7522 -0.5659
 2361TIP3    H1 7047   5.653   3.667   4.128 -0.8395 -0.5434 -0.6326
 2361TIP3    H2 7048   5.745   3.706   4.014  0.6997  1.6966  1.2833
 2362TIP3   OH2 7049   5.054   6.255   0.860 -0.4078 -0.2194 -0.1818
 2362TIP3    H1 7050   5.132   6.275   0.808 -1.0979 -0.4183 -1.3350
 2362TIP3    H2 7051   4.987   6.314   0.826 -1.3805 -1.6365 -0.8208
 2363TIP3   OH2 7052   1.057   4.745   3.085  0.0588  0.3255 -0.1817
 2363TIP3    H1 7053   1.084   4.729   2.995  0.6135 -1.1426  0.2162
 2363TIP3    H2 7054   1.069   4.839   3.097  1.8141  0.2559 -1.0659
 2364TIP3   OH2 7055   4.040   6.443   4.042 -0.6246 -0.2834 -0.4807
 2364TIP3    H1 7056   3.962   6.421   3.991  0.0886  0.4039 -1.9207
 2364TIP3    H2 7057   4.014   6.428   4.133 -2.3297 -0.3630 -0.9466
 2365TIP3   OH2 7058   5.202   1.872   1.047  0.1379  0.0248 -0.1600
 2365TIP3    H1 7059   5.264   1.918   0.991 -0.1276  0.6778  0.0732
 2365TIP3    H2 7060   5.118   1.884   1.003  0.0022  0.1360  0.1262
 2366TIP3   OH2 7061   2.050   1.704   5.551 -0.5130  0.4025  0.1547
 2366TIP3    H1 7062   2.133   1.716   5.503 -0.6177  1.3019  0.1708
 2366TIP3    H2 7063   1.983   1.702   5.482 -0.8491  3.4081  0.2615
 2367TIP3   OH2 7064   2.346   6.415   2.010 -0.6020  0.1051  0.2385
 2367TIP3    H1 7065   2.365   6.419   2.103  0.6546 -0.8366  0.0405
 2367TIP3    H2 7066   2.367   6.503   1.977  1.4555 -0.2877  0.4110
 2368TIP3   OH2 7067   1.340   2.699   4.489  0.4841 -0.2310  0.7970
 2368TIP3    H1 7068   1.260   2.731   4.531  1.1080  1.0117  1.0763
 2368TIP3    H2 7069   1.333   2.728   4.398  0.8353  0.2986  0.9372
 2369TIP3   OH2 7070   1.825   0.716   1.824  0.3511 -0.7190 -0.4283
 2369TIP3    H1 7071   1.909   0.701   1.866  1.4230  0.7802 -1.9048
 2369TIP3    H2 7072   1.832   0.671   1.739 -0.1668 -0.2218 -0.7418
 2370TIP3   OH2 7073   4.293   2.730   2.410 -0.9684  0.1969  0.0646
 2370TIP3    H1 7074   4.324   2.640   2.397 -0.4560  0.4061 -0.1940
 2370TIP3    H2 7075   4.279   2.737   2.504  1.1000  0.5044  0.4111
 2371TIP3   OH2 7076   0.404   6.312   2.403 -0.0656  0.0401 -0.2005
 2371TIP3    H1 7077   0.429   6.292   2.313  0.1258 -0.0929 -0.1182
 2371TIP3    H2 7078   0.441   6.240   2.455 -0.6071 -0.1499 -0.0772
 2372TIP3   OH2 7079   6.896   2.237   2.706 -0.0777  0.0505 -0.0833
 2372TIP3    H1 7080   6.920   2.200   2.621  1.2398  0.8918 -0.0934
 2372TIP3    H2 7081   6.954   2.194   2.768 -0.9133 -0.4287  0.3889
 2373TIP3   OH2 7082   3.739   0.211   2.140  0.3488  0.0030  0.3070
 2373TIP3    H1 7083   3.765   0.121   2.158 -1.1533 -0.2733  1.2653
 2373TIP3    H2 7084   3.821   0.260   2.141  0.9515 -0.9111  2.5829
 2374TIP3   OH2 7085   0.079   6.592   3.803 -0.6457 -0.4959 -0.2986
 2374TIP3    H1 7086   0.120   6.656   3.744 -0.1374 -0.5249  0.0157
 2374TIP3    H2 7087   0.047   6.523   3.745  0.1029 -0.6635 -0.5265
 2375TIP3   OH2 7088   5.609   3.627   5.313 -0.5505 -0.4860 -0.0651
 2375TIP3    H1 7089   5.678   3.682   5.349  2.8454 -4.3528  0.0741
 2375TIP3    H2 7090   5.646   3.593   5.231 -1.4128 -4.0346  0.8417
 2376TIP3   OH2 7091   3.846   6.069   4.446 -0.3160 -0.0762 -0.2382
 2376TIP3    H1 7092   3.871   5.976   4.452 -2.0564 -0.5750 -0.0914
 2376TIP3    H2 7093   3.799   6.075   4.363  0.0830  0.7633 -0.4086
 2377TIP3   OH2 7094   1.085   6.156   3.187  0.4757 -0.4137  0.4060
 2377TIP3    H1 7095   1.170   6.199   3.176  0.1458  0.4003  0.9132
 2377TIP3    H2 7096   1.061   6.174   3.278  0.6678 -2.3219  0.8616
 2378TIP3   OH2 7097   6.069   1.945   0.497 -0.2716  0.0448 -0.4362
 2378TIP3    H1 7098   6.065   1.860   0.541  1.5864  0.1165 -0.0264
 2378TIP3    H2 7099   5.996   1.995   0.534 -0.1002 -0.6636  0.9229
 2379TIP3   OH2 7100   0.734   1.076   4.129 -0.0525 -0.2792  0.0015
 2379TIP3    H1 7101   0.738   0.981   4.141  0.3386 -0.2607  0.0181
 2379TIP3    H2 7102   0.781   1.093   4.047  0.2032 -0.0643  0.1896
 2380TIP3   OH2 7103   5.089   3.620   3.654  0.0589 -0.2293 -0.0971
 2380TIP3    H1 7104   5.071   3.527   3.637 -0.3103 -0.0177 -0.8995
 2380TIP3    H2 7105   5.182   3.630   3.634  0.6837 -0.9020  2.1876
 2381TIP3   OH2 7106   5.127   5.522   0.040 -0.2270  0.1664 -0.3865
 2381TIP3    H1 7107   5.084   5.608   0.049 -2.2533 -0.7033 -1.2231
 2381TIP3    H2 7108   5.216   5.543   0.011 -0.6726  1.9914 -0.5781
 2382TIP3   OH2 7109   2.452   6.598   3.512 -0.0394 -0.0232  0.7169
 2382TIP3    H1 7110   2.397   6.524   3.487 -0.4946  1.0322 -1.6068
 2382TIP3    H2 7111   2.395   6.652   3.568 -0.4068 -0.3504  0.6655
 2383TIP3   OH2 7112   0.118   3.761   4.374 -0.1828  0.6061 -0.0348
 2383TIP3    H1 7113   0.204   3.779   4.412  0.7685  0.0625 -1.8258
 2383TIP3    H2 7114   0.082   3.690   4.428  1.2929 -0.4347 -0.3765
 2384TIP3   OH2 7115   4.563   4.539   1.183 -0.1440 -0.1808  0.3654
 2384TIP3    H1 7116   4.606   4.621   1.205  0.5772 -0.1046 -1.2227
 2384TIP3    H2 7117   4.634   4.476   1.176 -0.2276 -0.0975 -2.1001
 2385TIP3   OH2 7118   1.138   3.759   2.779  0.2795  0.1953  0.2076
 2385TIP3    H1 7119   1.115   3.667   2.771 -1.0156  0.3034  2.0527
 2385TIP3    H2 7120   1.233   3.759   2.795 -0.1627 -1.1405  3.6028
 2386TIP3   OH2 7121   3.127   6.789   5.894 -0.6560  0.5794 -0.0063
 2386TIP3    H1 7122   3.153   6.701   5.866 -0.3136  0.7961 -0.3778
 2386TIP3    H2 7123   3.208   6.840   5.893 -1.0933  1.2943 -1.2755
 2387TIP3   OH2 7124   0.736   1.825   5.644 -0.2406  0.1127  0.0653
 2387TIP3    H1 7125   0.800   1.792   5.707 -0.5058 -0.7803 -0.1273
 2387TIP3    H2 7126   0.690   1.895   5.691 -0.0247 -0.1356  0.6482
 2388TIP3   OH2 7127   3.296   0.875   0.590  0.2673  0.4517 -0.4191
 2388TIP3    H1 7128   3.299   0.968   0.567 -0.7499 -0.1369 -3.4216
 2388TIP3    H2 7129   3.372   0.837   0.546 -0.3253 -0.4061 -0.7324
 2389TIP3   OH2 7130   2.559   5.307   5.756 -0.3580 -0.1524  0.0676
 2389TIP3    H1 7131   2.564   5.376   5.689 -1.5255  0.2385  0.3546
 2389TIP3    H2 7132   2.597   5.230   5.714  0.8112  0.6138 -0.3217
 2390TIP3   OH2 7133   2.611   6.466   5.503  0.4869 -0.3766  0.1582
 2390TIP3    H1 7134   2.656   6.550   5.500 -0.9211  0.4207  0.3969
 2390TIP3    H2 7135   2.521   6.488   5.528 -0.3236 -1.7747 -1.3338
 2391TIP3   OH2 7136   1.698   4.442   4.753  0.8033  0.5791 -0.0248
 2391TIP3    H1 7137   1.772   4.495   4.780  0.1558  1.2261  0.5342
 2391TIP3    H2 7138   1.622   4.484   4.793  0.1671 -0.2516 -0.3107
 2392TIP3   OH2 7139   6.811   3.269   5.016 -0.0919 -0.5121 -0.5107
 2392TIP3    H1 7140   6.767   3.310   4.942 -0.7389 -0.0521  0.1151
 2392TIP3    H2 7141   6.905   3.276   4.995 -0.1637  1.4336 -0.3578
 2393TIP3   OH2 7142   6.272   2.755   4.907 -0.3444 -0.2155 -0.0026
 2393TIP3    H1 7143   6.235   2.842   4.890  2.9284  1.6349  1.2549
 2393TIP3    H2 7144   6.296   2.722   4.821  0.0910  1.0371 -0.3902
 2394TIP3   OH2 7145   2.308   5.342   2.126 -0.2254  0.1800  0.1574
 2394TIP3    H1 7146   2.391   5.388   2.141 -1.2288  1.6704  1.5152
 2394TIP3    H2 7147   2.257   5.357   2.206 -2.6203  1.0984 -1.4212
 2395TIP3   OH2 7148   5.188   1.349   4.925  0.0770 -0.2892 -0.1123
 2395TIP3    H1 7149   5.209   1.322   5.014 -0.2689 -1.0752 -0.2603
 2395TIP3    H2 7150   5.102   1.390   4.932  0.2453  0.0534 -0.0181
 2396TIP3   OH2 7151   0.798   1.471   5.569  0.2399  0.3020  0.0812
 2396TIP3    H1 7152   0.744   1.539   5.528 -0.2984  0.8429  1.6093
 2396TIP3    H2 7153   0.768   1.468   5.659  0.6909 -1.5513  0.2188
 2397TIP3   OH2 7154   3.346   6.648   1.863  0.0805  0.1535 -0.0236
 2397TIP3    H1 7155   3.324   6.741   1.851 -0.1896 -0.0508 -1.2162
 2397TIP3    H2 7156   3.365   6.640   1.956 -3.0169  0.7756  0.7914
 2398TIP3   OH2 7157   5.709   0.092   3.660 -0.2956 -0.7439  0.4927
 2398TIP3    H1 7158   5.752   0.127   3.738 -1.0652 -0.9096  1.0039
 2398TIP3    H2 7159   5.685   0.002   3.685 -0.8323 -0.6908  0.1906
 2399TIP3   OH2 7160   5.779   0.489   5.301 -0.5426 -0.1408  0.1585
 2399TIP3    H1 7161   5.744   0.423   5.361 -0.1970 -0.7669 -0.3160
 2399TIP3    H2 7162   5.722   0.486   5.225 -0.2385 -0.2423 -0.0684
 2400TIP3   OH2 7163   1.058   6.420   2.646  0.2922  0.5454  0.5167
 2400TIP3    H1 7164   1.112   6.462   2.580  2.0790 -0.4925  1.2478
 2400TIP3    H2 7165   0.979   6.474   2.651  0.9079  1.6714 -1.1277
 2401TIP3   OH2 7166   0.099   0.177   2.819  0.2629  0.1154 -0.5373
 2401TIP3    H1 7167   0.140   0.249   2.867  2.1535 -0.9430 -0.4753
 2401TIP3    H2 7168   0.140   0.181   2.732 -0.0445 -0.5203 -0.7126
 2402TIP3   OH2 7169   4.189   5.200   3.584  0.3733 -0.1316  0.4196
 2402TIP3    H1 7170   4.149   5.262   3.524  0.2465  1.0925  1.7229
 2402TIP3    H2 7171   4.138   5.119   3.572 -0.0145  0.2575 -0.6773
 2403TIP3   OH2 7172   5.314   3.382   2.279  0.4415 -0.2671 -0.3147
 2403TIP3    H1 7173   5.317   3.391   2.374 -0.0869  1.5479 -0.4313
 2403TIP3    H2 7174   5.402   3.354   2.254  1.7483  2.7292  0.4544
 2404TIP3   OH2 7175   4.671   1.571   2.840  0.1488 -0.4674 -0.3141
 2404TIP3    H1 7176   4.662   1.480   2.812 -1.9302 -0.3019 -0.3298
 2404TIP3    H2 7177   4.671   1.568   2.935 -1.6170 -0.3957 -0.2845
 2405TIP3   OH2 7178   5.292   1.072   1.752  0.6652  0.5032 -0.2623
 2405TIP3    H1 7179   5.374   1.098   1.708  1.0246  0.8913  0.6165
 2405TIP3    H2 7180   5.320   1.022   1.828  0.0434 -0.1722 -0.4690
 2406TIP3   OH2 7181   1.464   5.384   0.764 -0.1116  0.6972  0.3104
 2406TIP3    H1 7182   1.547   5.360   0.805  1.4006  1.7407 -1.9649
 2406TIP3    H2 7183   1.428   5.301   0.731  0.9721  0.4589 -0.3088
 2407TIP3   OH2 7184   0.903   6.682   3.717  0.2525  0.1655  0.4345
 2407TIP3    H1 7185   0.964   6.665   3.645 -1.5996 -1.4961 -0.8759
 2407TIP3    H2 7186   0.957   6.681   3.795  1.8107 -2.4869 -0.5422
 2408TIP3   OH2 7187   2.911   4.986   1.587 -0.0666 -0.1485  0.2858
 2408TIP3    H1 7188   2.899   4.959   1.678  1.4528 -0.5957  0.3840
 2408TIP3    H2 7189   2.822   4.997   1.553 -0.6496  0.2705  1.8859
 2409TIP3   OH2 7190   6.639   3.140   3.920 -0.2703  0.0947  0.6111
 2409TIP3    H1 7191   6.575   3.068   3.916 -0.5971  0.4424 -0.8648
 2409TIP3    H2 7192   6.585   3.219   3.922  0.0977  0.3358  1.8750
 2410TIP3   OH2 7193   0.348   4.267   0.208 -0.1815 -0.3388  0.1886
 2410TIP3    H1 7194   0.366   4.247   0.116  1.2745  1.9709 -0.1120
 2410TIP3    H2 7195   0.434   4.279   0.248 -0.8117  1.8493  1.0377
 2411TIP3   OH2 7196   1.217   4.636   1.306 -0.2629  0.0516 -0.4259
 2411TIP3    H1 7197   1.183   4.721   1.276  1.7143  1.4207  0.9287
 2411TIP3    H2 7198   1.160   4.612   1.379 -1.0770 -0.0082 -1.0652
 2412TIP3   OH2 7199   3.264   5.438   0.116 -0.3069 -0.4522 -0.3876
 2412TIP3    H1 7200   3.354   5.427   0.148  0.1269 -0.1657 -1.4576
 2412TIP3    H2 7201   3.230   5.512   0.166  0.3095 -0.0876 -0.4981
 2413TIP3   OH2 7202   0.118   4.469   3.247 -0.0915  0.4492 -0.3843
 2413TIP3    H1 7203   0.169   4.484   3.326  1.1800  0.5302 -1.1982
 2413TIP3    H2 7204   0.162   4.396   3.203 -0.4684  0.7452 -1.2715
 2414TIP3   OH2 7205   4.043   5.886   3.317 -0.5824 -0.2291 -0.5234
 2414TIP3    H1 7206   4.113   5.946   3.291  0.6497 -1.6176 -0.6043
 2414TIP3    H2 7207   3.981   5.888   3.244 -0.0471  0.1945 -0.9762
 2415TIP3   OH2 7208   3.616   3.334   2.698 -0.2180  0.2735  0.0519
 2415TIP3    H1 7209   3.685   3.367   2.641 -0.4577  0.2270 -0.2641
 2415TIP3    H2 7210   3.542   3.317   2.640 -0.5646  0.5174  0.4164
 2416TIP3   OH2 7211   4.985   3.234   0.483  0.1409 -0.0054  0.6524
 2416TIP3    H1 7212   5.021   3.243   0.395 -1.3458  1.6102  0.1483
 2416TIP3    H2 7213   5.061   3.235   0.540  1.0863 -0.1866 -0.5617
 2417TIP3   OH2 7214   3.728   4.635   3.570 -0.1950 -0.5466 -0.4336
 2417TIP3    H1 7215   3.702   4.726   3.556  0.1199 -0.4595 -0.4708
 2417TIP3    H2 7216   3.821   4.633   3.548  0.4461 -0.3092  1.9945
 2418TIP3   OH2 7217   5.436   2.122   0.300  0.1357 -0.4013  0.4039
 2418TIP3    H1 7218   5.503   2.188   0.319 -0.2517 -0.0349  0.5076
 2418TIP3    H2 7219   5.417   2.135   0.207  1.2669 -1.4895 -0.0036
 2419TIP3   OH2 7220   3.588   2.575   3.523  0.2748  0.1800 -0.0539
 2419TIP3    H1 7221   3.533   2.516   3.575 -0.0304  0.7795  0.3128
 2419TIP3    H2 7222   3.567   2.553   3.432  0.0935 -0.2124  0.0814
 2420TIP3   OH2 7223   6.004   2.309   0.361 -0.0421  0.2436  0.5522
 2420TIP3    H1 7224   5.970   2.270   0.281 -0.6742  0.8420  0.5236
 2420TIP3    H2 7225   6.097   2.325   0.343 -0.1866  0.3991 -0.0626
 2421TIP3   OH2 7226   4.859   6.496   4.316 -0.4860 -0.3886  0.0056
 2421TIP3    H1 7227   4.881   6.525   4.228  0.6700 -0.8784  0.1170
 2421TIP3    H2 7228   4.923   6.538   4.373 -2.1045  1.1071  0.8386
 2422TIP3   OH2 7229   1.872   6.023   5.100  0.4729  0.3534 -0.6703
 2422TIP3    H1 7230   1.921   6.085   5.155  0.7616 -0.2578 -0.2351
 2422TIP3    H2 7231   1.788   6.066   5.085  0.6305  0.8083 -0.2898
 2423TIP3   OH2 7232   0.811   0.810   4.083  0.1108 -0.0938  0.0371
 2423TIP3    H1 7233   0.745   0.757   4.125  0.8029 -0.0965  1.1566
 2423TIP3    H2 7234   0.893   0.787   4.127  0.5441  1.3353  0.0499
 2424TIP3   OH2 7235   5.911   5.320   2.073 -0.2106  0.6296  0.1704
 2424TIP3    H1 7236   5.868   5.239   2.044 -1.9670  1.8034 -0.6669
 2424TIP3    H2 7237   5.870   5.389   2.021  3.0388  1.8550 -0.9693
 2425TIP3   OH2 7238   6.129   1.959   1.412  0.5226  0.0824 -0.3225
 2425TIP3    H1 7239   6.088   2.042   1.439 -0.9178 -0.2606 -1.3136
 2425TIP3    H2 7240   6.189   1.985   1.342 -0.3076  0.2688 -0.9957
 2426TIP3   OH2 7241   1.701   3.113   0.210  0.2525 -0.2170 -0.2189
 2426TIP3    H1 7242   1.641   3.048   0.248 -0.3250  0.9158  0.8679
 2426TIP3    H2 7243   1.687   3.192   0.262  2.7290  0.0863  0.0983
 2427TIP3   OH2 7244   6.333   6.573   4.269 -0.1289 -0.5212 -0.1830
 2427TIP3    H1 7245   6.281   6.645   4.234  2.2073  0.6833 -1.4077
 2427TIP3    H2 7246   6.310   6.570   4.362  0.2168  2.3015  0.0621
 2428TIP3   OH2 7247   4.951   4.732   1.443 -0.5837  0.5105 -0.8954
 2428TIP3    H1 7248   5.027   4.745   1.500 -1.6289  0.3741  0.5887
 2428TIP3    H2 7249   4.933   4.638   1.448 -1.8879  0.7877  0.1997
 2429TIP3   OH2 7250   2.882   1.169   1.496 -0.2510  0.2557  0.1916
 2429TIP3    H1 7251   2.801   1.126   1.467  1.4803 -1.8718 -1.9825
 2429TIP3    H2 7252   2.901   1.233   1.428 -0.1066  0.7656  0.7044
 2430TIP3   OH2 7253   1.831   3.001   4.502 -0.2975  0.1667  0.4488
 2430TIP3    H1 7254   1.797   2.913   4.487  0.9591 -0.5211  1.4011
 2430TIP3    H2 7255   1.762   3.059   4.471 -2.7445 -1.1042  2.9914
 2431TIP3   OH2 7256   5.793   2.872   1.358  0.4007  0.3225 -0.2805
 2431TIP3    H1 7257   5.780   2.778   1.345  1.2780  0.0392  0.7364
 2431TIP3    H2 7258   5.734   2.894   1.429 -1.3212  0.9974 -1.8506
 2432TIP3   OH2 7259   3.966   1.112   5.356  0.1851  0.1824 -0.1890
 2432TIP3    H1 7260   4.045   1.166   5.352  0.6760 -0.2873  1.7263
 2432TIP3    H2 7261   3.998   1.027   5.388 -1.3214  0.7199  3.2417
 2433TIP3   OH2 7262   0.832   0.519   5.822 -0.5331 -0.1410 -0.2715
 2433TIP3    H1 7263   0.814   0.452   5.888  0.4047  0.0920  0.2502
 2433TIP3    H2 7264   0.787   0.597   5.855  1.3496  0.4568  1.0563
 2434TIP3   OH2 7265   0.573   6.381   3.866  0.2001 -0.4291  0.1380
 2434TIP3    H1 7266   0.516   6.318   3.910 -1.5892 -0.6914 -2.3565
 2434TIP3    H2 7267   0.520   6.460   3.857  0.4665 -0.4018 -1.5039
 2435TIP3   OH2 7268   0.061   0.551   4.204  0.3432  0.5100 -0.3981
 2435TIP3    H1 7269  -0.021   0.514   4.172  2.3925 -5.0813 -0.3018
 2435TIP3    H2 7270   0.045   0.571   4.296 -0.7740 -1.3778 -0.1298
 2436TIP3   OH2 7271   5.007   0.253   4.390 -0.1470  0.1568 -0.7171
 2436TIP3    H1 7272   5.033   0.328   4.337 -1.0846 -0.7261 -2.5297
 2436TIP3    H2 7273   5.074   0.187   4.372  1.5658  0.9563  2.0790
 2437TIP3   OH2 7274   4.677   5.686   5.460  0.3910  0.1320 -0.1512
 2437TIP3    H1 7275   4.731   5.748   5.509 -0.5787 -0.1826  1.3516
 2437TIP3    H2 7276   4.645   5.624   5.525 -2.0083  0.4579 -0.9274
 2438TIP3   OH2 7277   5.400   2.570   2.121 -0.5614  0.1127 -0.7550
 2438TIP3    H1 7278   5.317   2.615   2.141 -0.3791  1.3161 -2.5147
 2438TIP3    H2 7279   5.459   2.640   2.094  0.9115 -0.7971 -0.0274
 2439TIP3   OH2 7280   5.974   4.999   4.380 -0.4092 -0.4333  0.4267
 2439TIP3    H1 7281   5.950   4.970   4.468  1.7517 -1.2041  0.8161
 2439TIP3    H2 7282   6.028   5.076   4.394 -1.6251  0.6017 -0.3631
 2440TIP3   OH2 7283   2.947   0.434   4.208 -0.0663  0.0252 -0.0903
 2440TIP3    H1 7284   2.952   0.350   4.253 -1.0555  0.1836  0.3506
 2440TIP3    H2 7285   3.018   0.486   4.246  1.6695 -1.1388 -1.5895
 2441TIP3   OH2 7286   0.203   5.319   5.246 -0.6220  0.3316  0.3258
 2441TIP3    H1 7287   0.191   5.232   5.209 -1.1893  0.1943  0.8292
 2441TIP3    H2 7288   0.203   5.306   5.341  1.0025  0.6599  0.4001
 2442TIP3   OH2 7289   2.058   6.483   1.760 -0.1971  0.3227 -0.2150
 2442TIP3    H1 7290   2.085   6.574   1.771  1.0764 -0.2145  1.3814
 2442TIP3    H2 7291   2.004   6.464   1.836 -1.0349 -0.0878 -0.8874
 2443TIP3   OH2 7292   2.528   4.409   4.670  0.4242  0.0598  0.2208
 2443TIP3    H1 7293   2.471   4.484   4.684  0.3040  0.2928 -1.3026
 2443TIP3    H2 7294   2.473   4.333   4.685 -0.5523  0.2667 -1.8736
 2444TIP3   OH2 7295   4.876   3.588   4.858 -0.6125 -0.0470  0.1477
 2444TIP3    H1 7296   4.872   3.544   4.773 -0.6554  1.2570 -0.5550
 2444TIP3    H2 7297   4.961   3.562   4.894 -0.6958 -0.8069 -0.1706
 2445TIP3   OH2 7298   2.175   4.286   2.740 -0.4054  0.0863  0.0184
 2445TIP3    H1 7299   2.225   4.239   2.673 -0.1112 -0.7100  0.7873
 2445TIP3    H2 7300   2.196   4.242   2.822 -0.7136  1.0970  0.6579
 2446TIP3   OH2 7301   6.762   3.717   2.457  0.2066  0.1162  0.1438
 2446TIP3    H1 7302   6.789   3.778   2.388 -0.1979 -0.8982 -0.9496
 2446TIP3    H2 7303   6.842   3.671   2.481  0.2303  0.0014 -0.1455
 2447TIP3   OH2 7304   5.085   2.309   0.795  0.0374 -0.0851  0.1878
 2447TIP3    H1 7305   5.054   2.252   0.865  0.1348 -1.6167 -0.9814
 2447TIP3    H2 7306   5.122   2.250   0.730  1.1430  1.3925 -0.5809
 2448TIP3   OH2 7307   0.964   3.074   5.702  0.5346  0.4185  0.1632
 2448TIP3    H1 7308   0.987   3.008   5.637 -1.6260  1.0955 -1.4066
 2448TIP3    H2 7309   1.034   3.069   5.767  0.5694 -3.2836  0.0639
 2449TIP3   OH2 7310   2.395   3.528   4.714  0.5182  0.1213  0.4756
 2449TIP3    H1 7311   2.375   3.454   4.656 -0.4684  1.0803 -0.4378
 2449TIP3    H2 7312   2.451   3.490   4.782  1.1439 -1.1880 -0.7106
 2450TIP3   OH2 7313   0.415   1.444   2.028  0.0323  0.0042 -0.6714
 2450TIP3    H1 7314   0.436   1.536   2.041 -0.3726 -0.2220  2.4947
 2450TIP3    H2 7315   0.491   1.408   1.981  1.0990  1.5776 -0.2224
 2451TIP3   OH2 7316   4.293   0.172   5.527  0.0258 -0.0804 -0.3871
 2451TIP3    H1 7317   4.310   0.198   5.437 -0.0969  0.6801 -0.1910
 2451TIP3    H2 7318   4.381   0.163   5.566  0.0626  1.0274 -0.1814
 2452TIP3   OH2 7319   6.456   5.775   2.691 -0.3387 -0.3104 -0.1981
 2452TIP3    H1 7320   6.387   5.716   2.723  0.4494 -1.3602 -0.3868
 2452TIP3    H2 7321   6.508   5.795   2.769  0.1148 -0.8576 -0.3584
 2453TIP3   OH2 7322   6.850   1.446   4.694  0.2234  0.0203  0.0667
 2453TIP3    H1 7323   6.768   1.440   4.743 -1.4741 -0.2108 -2.5788
 2453TIP3    H2 7324   6.874   1.355   4.676 -0.5614  0.1012 -1.5674
 2454TIP3   OH2 7325   1.742   6.671   4.885  0.5443  0.3559 -0.2690
 2454TIP3    H1 7326   1.660   6.679   4.933  0.2088 -1.4592 -0.4845
 2454TIP3    H2 7327   1.776   6.761   4.882 -1.1431  1.0604  0.2843
 2455TIP3   OH2 7328   6.050   4.325   1.774 -0.0218  0.5205  0.3105
 2455TIP3    H1 7329   6.123   4.386   1.772 -0.6083  1.4953  3.4585
 2455TIP3    H2 7330   5.980   4.369   1.726  0.6535  0.6561 -0.5810
 2456TIP3   OH2 7331   2.267   2.162   4.256  0.4620  0.2914  0.1890
 2456TIP3    H1 7332   2.258   2.169   4.161 -0.5789 -0.8927  0.1782
 2456TIP3    H2 7333   2.243   2.250   4.288 -3.7367 -0.3924 -0.4280
 2457TIP3   OH2 7334   7.062   5.026   5.075  0.3075 -0.7753  0.5793
 2457TIP3    H1 7335   7.007   5.065   5.144  0.4293 -1.7442  1.2507
 2457TIP3    H2 7336   7.074   5.096   5.011  0.5555  0.2997  1.7581
 2458TIP3   OH2 7337   5.203   6.213   4.948  0.1928 -0.8380 -0.3975
 2458TIP3    H1 7338   5.195   6.168   4.864  1.9627 -0.4937 -0.7925
 2458TIP3    H2 7339   5.264   6.160   4.999  0.4709 -0.1356  0.0223
 2459TIP3   OH2 7340   0.403   2.543   1.703  0.5940 -0.5382  0.7165
 2459TIP3    H1 7341   0.391   2.609   1.771 -2.6630  0.8489 -0.9941
 2459TIP3    H2 7342   0.368   2.462   1.741  0.3316 -0.1702  1.2623
 2460TIP3   OH2 7343   0.194   5.257   4.018  0.5850  0.4739 -0.2302
 2460TIP3    H1 7344   0.156   5.180   4.062 -0.5526  1.6442  0.9216
 2460TIP3    H2 7345   0.288   5.243   4.023  0.4052 -0.7280  0.1819
 2461TIP3   OH2 7346   5.574   0.443   3.892  0.1658 -0.7222 -0.4801
 2461TIP3    H1 7347   5.586   0.368   3.833  0.5709 -0.1564 -1.1252
 2461TIP3    H2 7348   5.642   0.505   3.867 -0.0568 -0.2058  0.1675
 2462TIP3   OH2 7349   2.798   0.207   5.276  0.2356 -0.1771 -0.0294
 2462TIP3    H1 7350   2.731   0.139   5.283  0.7847 -0.9125 -1.4826
 2462TIP3    H2 7351   2.750   0.290   5.283 -0.7446 -0.7009 -0.5001
 2463TIP3   OH2 7352   0.745   3.443   5.443 -0.2307  0.1780  1.0019
 2463TIP3    H1 7353   0.767   3.363   5.489  1.0314 -0.7970 -1.1489
 2463TIP3    H2 7354   0.667   3.421   5.392 -0.2195  0.5055  0.8384
 2464TIP3   OH2 7355   7.024   6.075   3.959 -0.6541  0.3126 -0.3982
 2464TIP3    H1 7356   6.974   6.095   3.880  0.4423  0.8353 -0.9965
 2464TIP3    H2 7357   7.069   5.993   3.938  1.2115  1.4610 -1.1501
 2465TIP3   OH2 7358   5.771   1.395   3.831  0.4306 -0.1362 -0.4245
 2465TIP3    H1 7359   5.721   1.323   3.867  0.7846 -0.8464 -1.3012
 2465TIP3    H2 7360   5.836   1.353   3.774  1.5432  0.7940  0.1077
 2466TIP3   OH2 7361   2.275   4.239   1.287 -0.2168 -0.0460  0.5110
 2466TIP3    H1 7362   2.252   4.190   1.208 -1.8011  2.6117 -0.8203
 2466TIP3    H2 7363   2.335   4.307   1.257 -0.0726  0.4294  1.7993
 2467TIP3   OH2 7364   0.370   3.159   2.397  0.2261  0.6533 -0.4476
 2467TIP3    H1 7365   0.411   3.242   2.373 -1.6183  1.7771  0.1216
 2467TIP3    H2 7366   0.295   3.183   2.451 -0.5717 -1.3766 -0.5433
 2468TIP3   OH2 7367   6.426   2.673   0.468 -0.0213 -0.1618 -0.0615
 2468TIP3    H1 7368   6.468   2.587   0.473 -1.1444 -0.6664  1.1365
 2468TIP3    H2 7369   6.341   2.661   0.508  0.4602  1.9429  1.7987
 2469TIP3   OH2 7370   2.557   4.142   5.693 -0.2206 -0.0476  0.5538
 2469TIP3    H1 7371   2.528   4.210   5.632 -1.5768 -1.6478 -0.6558
 2469TIP3    H2 7372   2.477   4.097   5.718  0.7947 -2.2667  0.0032
 2470TIP3   OH2 7373   6.592   3.880   0.232  0.7755 -0.0273  0.2330
 2470TIP3    H1 7374   6.661   3.817   0.207  0.9880  0.1369  0.3987
 2470TIP3    H2 7375   6.512   3.828   0.234  1.0373 -0.4247  0.9146
 2471TIP3   OH2 7376   3.983   6.244   4.849 -0.1705  0.2843  1.1583
 2471TIP3    H1 7377   3.928   6.283   4.917 -0.4828  0.9423  0.5430
 2471TIP3    H2 7378   4.064   6.220   4.894 -0.7469 -0.2130  1.9730
 2472TIP3   OH2 7379   6.910   1.051   4.784  0.5570 -0.1570  0.2140
 2472TIP3    H1 7380   6.862   1.128   4.753 -0.6066 -0.5240  1.0362
 2472TIP3    H2 7381   6.994   1.056   4.739 -0.2316  0.5149 -1.2533
 2473TIP3   OH2 7382   5.734   2.575   4.141  0.3731 -0.2165 -0.1847
 2473TIP3    H1 7383   5.639   2.572   4.134  0.3662 -0.5325  0.0050
 2473TIP3    H2 7384   5.765   2.576   4.051  0.1572  1.1975 -0.2547
 2474TIP3   OH2 7385   0.358   5.414   0.556  0.0151  0.4390 -0.0494
 2474TIP3    H1 7386   0.449   5.418   0.586  0.1675  0.4719 -0.4963
 2474TIP3    H2 7387   0.319   5.496   0.586 -0.1189  0.0181  0.9315
 2475TIP3   OH2 7388   1.550   2.820   0.953 -0.3002  0.1914  0.1031
 2475TIP3    H1 7389   1.645   2.823   0.941 -0.1352 -2.6442  0.0508
 2475TIP3    H2 7390   1.517   2.782   0.871 -1.1121 -1.6871  1.2356
 2476TIP3   OH2 7391   4.591   4.655   4.349 -0.0984 -0.1183  0.2325
 2476TIP3    H1 7392   4.553   4.710   4.418  3.5297  1.7547  0.9491
 2476TIP3    H2 7393   4.591   4.566   4.386  0.6455  0.6475  2.1988
 2477TIP3   OH2 7394   1.188   4.110   4.447 -0.6814  0.6310 -0.0554
 2477TIP3    H1 7395   1.203   4.134   4.355 -1.1024 -0.3634 -0.3936
 2477TIP3    H2 7396   1.111   4.162   4.472 -1.1389  0.2098 -0.5579
 2478TIP3   OH2 7397   2.027   6.134   0.847 -0.4356  0.0597 -0.4725
 2478TIP3    H1 7398   1.999   6.119   0.938  0.7329  0.9009  0.0595
 2478TIP3    H2 7399   2.109   6.086   0.840 -0.9626 -0.7247 -1.3721
 2479TIP3   OH2 7400   4.676   4.075   5.183  0.1394  0.3552  0.0786
 2479TIP3    H1 7401   4.746   4.074   5.118  0.2441  0.9582  0.1806
 2479TIP3    H2 7402   4.714   4.033   5.260 -0.1738 -0.9090 -0.4306
 2480TIP3   OH2 7403   0.874   6.103   5.596  0.7003  0.0302 -0.0716
 2480TIP3    H1 7404   0.913   6.190   5.600  1.0530 -0.0947 -0.6574
 2480TIP3    H2 7405   0.946   6.046   5.570  0.0537 -0.1440 -1.5527
 2481TIP3   OH2 7406   1.090   5.549   3.830  0.5050  0.1929  0.3389
 2481TIP3    H1 7407   1.123   5.624   3.880  0.1478 -0.7940  2.1472
 2481TIP3    H2 7408   1.064   5.587   3.746  2.4355  1.6795  0.3353
 2482TIP3   OH2 7409   0.571   4.252   2.544  0.0384  0.3535 -0.8925
 2482TIP3    H1 7410   0.492   4.287   2.502 -0.2154 -0.5547 -1.1859
 2482TIP3    H2 7411   0.643   4.282   2.489 -0.3177 -1.2265 -2.3082
 2483TIP3   OH2 7412   3.351   1.216   3.016  0.9082  0.3219  0.2700
 2483TIP3    H1 7413   3.262   1.200   3.048  0.1489  2.3142 -0.7115
 2483TIP3    H2 7414   3.398   1.249   3.092  0.5405  0.1838  0.5630
 2484TIP3   OH2 7415   0.359   4.753   5.537  0.3143 -0.1659 -0.2382
 2484TIP3    H1 7416   0.293   4.809   5.576  0.8581  1.1582 -1.1504
 2484TIP3    H2 7417   0.414   4.726   5.610 -0.1045  0.2892  0.2462
 2485TIP3   OH2 7418   0.041   1.095   3.893  0.6978  0.2563  0.2400
 2485TIP3    H1 7419  -0.008   1.014   3.876 -0.9838  1.3379 -0.3747
 2485TIP3    H2 7420   0.074   1.084   3.982  0.6995 -1.1877  0.0923
 2486TIP3   OH2 7421   2.864   6.032   0.791  0.4020  0.2703 -0.5930
 2486TIP3    H1 7422   2.937   5.972   0.808  2.3336  1.9835 -2.2559
 2486TIP3    H2 7423   2.905   6.109   0.753 -2.3748  1.0643 -2.2675
 2487TIP3   OH2 7424   2.469   3.821   1.455  0.1428 -0.3342 -0.5678
 2487TIP3    H1 7425   2.445   3.849   1.366 -0.1913 -0.8137 -0.6331
 2487TIP3    H2 7426   2.558   3.854   1.467 -0.0271  0.2511 -0.8553
 2488TIP3   OH2 7427   5.346   0.371   5.632 -0.7195  0.0223 -0.5586
 2488TIP3    H1 7428   5.385   0.370   5.545 -1.0014 -1.1061 -0.6921
 2488TIP3    H2 7429   5.407   0.322   5.687 -0.7348  0.3901 -0.2104
 2489TIP3   OH2 7430   1.934   0.388   1.177  0.7069  0.3802  0.5627
 2489TIP3    H1 7431   1.981   0.369   1.258  1.8802  1.1740  0.0908
 2489TIP3    H2 7432   1.957   0.479   1.157 -2.1704  1.3198  1.0682
 2490TIP3   OH2 7433   2.067   1.729   1.952 -0.9605 -0.1393  0.7274
 2490TIP3    H1 7434   1.974   1.728   1.927 -0.6892  2.4659 -0.7366
 2490TIP3    H2 7435   2.098   1.642   1.928 -2.2974  0.0284 -2.0565
 2491TIP3   OH2 7436   2.154   2.253   1.842  0.0624  0.2048 -0.1860
 2491TIP3    H1 7437   2.207   2.269   1.764  0.4345  0.2586  0.0766
 2491TIP3    H2 7438   2.151   2.158   1.850  2.7807  0.1855  1.5807
 2492TIP3   OH2 7439   4.755   3.032   0.724 -0.3107  0.0800 -0.4535
 2492TIP3    H1 7440   4.840   2.988   0.723  0.7991  2.0547  0.0416
 2492TIP3    H2 7441   4.738   3.053   0.632  1.1613  2.0872 -0.3460
 2493TIP3   OH2 7442   3.169   2.474   0.710  0.3712 -0.1358  0.5092
 2493TIP3    H1 7443   3.152   2.443   0.620  0.5612 -0.1082  0.4641
 2493TIP3    H2 7444   3.124   2.558   0.715  2.1553  0.9333 -0.2718
 2494TIP3   OH2 7445   2.409   1.030   0.050  0.4966 -0.0867 -0.3450
 2494TIP3    H1 7446   2.348   0.961   0.023 -1.6958  1.8396 -0.6398
 2494TIP3    H2 7447   2.404   1.031   0.145 -0.5246  0.5208 -0.3916
 2495TIP3   OH2 7448   5.189   5.747   5.246  0.5801 -0.1262 -0.7019
 2495TIP3    H1 7449   5.132   5.712   5.177 -1.0434  1.1601 -0.0891
 2495TIP3    H2 7450   5.145   5.723   5.327  3.6951 -3.8037  0.1945
 2496TIP3   OH2 7451   5.122   1.433   0.334 -0.6012 -0.5229 -0.2273
 2496TIP3    H1 7452   5.080   1.518   0.319 -0.6252 -0.4291  0.3538
 2496TIP3    H2 7453   5.056   1.368   0.309 -1.0125 -0.3763  0.4786
 2497TIP3   OH2 7454   4.015   2.215   1.040 -0.4635  0.2237  0.4897
 2497TIP3    H1 7455   3.999   2.263   0.959  0.3982 -2.3374 -1.3175
 2497TIP3    H2 7456   4.087   2.263   1.082 -1.1025  1.7448 -0.0650
 2498TIP3   OH2 7457   0.650   5.663   0.557  0.2112  0.0527  0.1755
 2498TIP3    H1 7458   0.640   5.735   0.494  0.6983 -1.4825 -1.7572
 2498TIP3    H2 7459   0.734   5.679   0.599  1.0232 -0.1284 -1.3088
 2499TIP3   OH2 7460   2.624   2.057   4.239 -0.1621 -0.2745  0.7163
 2499TIP3    H1 7461   2.576   2.116   4.181 -0.3271  0.5939  1.6927
 2499TIP3    H2 7462   2.674   2.116   4.296  2.1629 -1.1337 -0.3038
 2500TIP3   OH2 7463   6.546   0.460   0.382 -0.2745 -0.6043 -0.0214
 2500TIP3    H1 7464   6.520   0.528   0.443  0.0284  1.6677 -2.2573
 2500TIP3    H2 7465   6.473   0.398   0.381 -0.0570 -1.0344  2.9090
 2501TIP3   OH2 7466   5.489   4.192   3.507  0.1070  0.7645  0.6736
 2501TIP3    H1 7467   5.426   4.144   3.562 -1.7633  2.3064  0.0086
 2501TIP3    H2 7468   5.467   4.284   3.522  2.0920  1.3460  0.2129
 2502TIP3   OH2 7469   2.567   0.452   3.517 -0.3284  0.2769  0.2900
 2502TIP3    H1 7470   2.583   0.368   3.561 -1.3859  1.7562  3.8243
 2502TIP3    H2 7471   2.640   0.460   3.455  0.9564 -2.2885  1.3073
 2503TIP3   OH2 7472   1.130   0.997   2.492 -0.2538  0.0205 -0.0370
 2503TIP3    H1 7473   1.127   1.033   2.581  0.2834  1.0397 -0.4241
 2503TIP3    H2 7474   1.157   0.906   2.504 -1.1899 -0.1550  0.9223
 2504TIP3   OH2 7475   6.088   1.185   3.427 -0.3051 -0.8441  0.3226
 2504TIP3    H1 7476   6.027   1.225   3.490  0.8452 -0.4591  1.2332
 2504TIP3    H2 7477   6.102   1.253   3.361  1.5151  0.2881  1.7769
 2505TIP3   OH2 7478   1.081   2.055   1.820  0.4308 -0.4127 -0.2576
 2505TIP3    H1 7479   1.050   2.061   1.910  0.0240 -0.2607 -0.4028
 2505TIP3    H2 7480   1.001   2.053   1.768  0.6560 -1.1623 -0.5800
 2506TIP3   OH2 7481   6.394   3.268   5.654 -0.1472 -0.3467 -0.1817
 2506TIP3    H1 7482   6.466   3.266   5.717  0.7903 -2.0540 -1.2535
 2506TIP3    H2 7483   6.324   3.217   5.696  0.7191 -2.0681 -0.7514
 2507TIP3   OH2 7484   0.883   6.188   5.057 -0.5957 -0.3214  0.3117
 2507TIP3    H1 7485   0.841   6.269   5.029  0.5922  0.7651  1.5378
 2507TIP3    H2 7486   0.841   6.167   5.141  1.2830  0.8348  1.6005
 2508TIP3   OH2 7487   5.255   4.819   3.026  0.0729 -0.2141  0.4063
 2508TIP3    H1 7488   5.169   4.802   2.988 -0.4200  1.2396  0.7747
 2508TIP3    H2 7489   5.246   4.791   3.117  0.0605 -0.2898  0.3817
 2509TIP3   OH2 7490   7.152   1.469   0.103 -0.5852  0.0912 -0.0089
 2509TIP3    H1 7491   7.146   1.559   0.135 -2.4323 -0.1544  0.4681
 2509TIP3    H2 7492   7.210   1.474   0.027  0.8785  1.3315  1.1332
 2510TIP3   OH2 7493   4.082   3.169   5.676  0.3091  0.0492  0.0308
 2510TIP3    H1 7494   4.106   3.086   5.718 -0.2876  0.8079  1.9658
 2510TIP3    H2 7495   4.107   3.236   5.739 -0.2652  1.2811 -1.0211
 2511TIP3   OH2 7496   6.603   4.283   3.863  0.0308 -0.0295 -0.0314
 2511TIP3    H1 7497   6.590   4.227   3.787 -0.3868  2.3665 -1.8545
 2511TIP3    H2 7498   6.517   4.286   3.906  0.4766 -2.0825  1.1548
 2512TIP3   OH2 7499   5.824   6.209   4.652 -0.3905  0.4603  0.9301
 2512TIP3    H1 7500   5.829   6.303   4.635  1.2292 -0.0413 -2.2701
 2512TIP3    H2 7501   5.731   6.187   4.639 -0.4179  1.3273 -0.6090
 2513TIP3   OH2 7502   3.383   3.871   4.791  0.5366  0.1922  0.0790
 2513TIP3    H1 7503   3.411   3.914   4.710  0.1407 -1.4220 -0.9812
 2513TIP3    H2 7504   3.464   3.858   4.841  1.1220 -0.6377 -1.0265
 2514TIP3   OH2 7505   5.170   6.774   1.096 -0.6904 -0.0954  0.3335
 2514TIP3    H1 7506   5.201   6.752   1.184 -2.2521 -0.4919  0.8281
 2514TIP3    H2 7507   5.170   6.869   1.093 -1.5265 -0.0494  1.1440
 2515TIP3   OH2 7508   2.305   0.292   2.319  0.0449 -0.5680 -0.3568
 2515TIP3    H1 7509   2.223   0.258   2.355 -1.3367  0.5172 -2.3337
 2515TIP3    H2 7510   2.309   0.383   2.349  0.1921 -0.4247 -0.7962
 2516TIP3   OH2 7511   4.436   1.237   5.267  0.1203  0.0733  0.6178
 2516TIP3    H1 7512   4.456   1.185   5.345 -0.5666  0.1954  0.8813
 2516TIP3    H2 7513   4.340   1.235   5.260  0.2113 -2.2115 -1.7496
 2517TIP3   OH2 7514   4.284   6.308   0.962  0.8403 -0.0145 -0.5160
 2517TIP3    H1 7515   4.292   6.401   0.942 -0.1740  0.1026 -0.4482
 2517TIP3    H2 7516   4.331   6.296   1.044 -0.3640  0.7639  0.3078
 2518TIP3   OH2 7517   2.623   5.406   3.620 -0.2495 -0.4432 -0.3341
 2518TIP3    H1 7518   2.606   5.495   3.651  0.7632 -0.6672  0.9372
 2518TIP3    H2 7519   2.536   5.368   3.608 -0.7964  1.3656 -3.0438
 2519TIP3   OH2 7520   0.279   6.830   2.588 -0.6273 -0.5988  0.4250
 2519TIP3    H1 7521   0.269   6.736   2.570  1.1068 -0.8675  0.7423
 2519TIP3    H2 7522   0.271   6.837   2.683  0.5214 -0.6290  0.5389
 2520TIP3   OH2 7523   0.633   5.761   4.338  0.0875  0.1800 -0.2732
 2520TIP3    H1 7524   0.659   5.698   4.405 -2.8194  0.9138  1.7557
 2520TIP3    H2 7525   0.568   5.714   4.285 -0.3034  0.7024 -0.2678
 2521TIP3   OH2 7526   2.871   4.412   3.259  0.2058 -0.1149  0.2490
 2521TIP3    H1 7527   2.844   4.409   3.350 -0.0436  1.0847  0.2258
 2521TIP3    H2 7528   2.920   4.331   3.246  0.4599 -0.1778  1.5079
 2522TIP3   OH2 7529   1.798   4.379   1.672 -0.0532  0.4293 -0.0071
 2522TIP3    H1 7530   1.766   4.296   1.707 -0.6738 -0.2602 -2.0805
 2522TIP3    H2 7531   1.893   4.366   1.664 -0.1407 -0.0607 -0.2759
 2523TIP3   OH2 7532   1.122   5.297   4.328 -0.2687 -0.2096  1.0566
 2523TIP3    H1 7533   1.058   5.368   4.327 -0.9517 -0.7512 -1.9752
 2523TIP3    H2 7534   1.096   5.239   4.257  2.6345 -1.3408  0.7601
 2524TIP3   OH2 7535   0.005   2.599   2.091  0.2668 -0.0330  0.0718
 2524TIP3    H1 7536   0.067   2.562   2.028  1.5175  2.1409 -0.0543
 2524TIP3    H2 7537   0.054   2.604   2.173  0.4210  1.9385 -0.0898
 2525TIP3   OH2 7538   4.246   1.992   5.391 -0.0831 -0.1601  0.3527
 2525TIP3    H1 7539   4.152   1.971   5.391  0.3708 -2.4523 -0.1046
 2525TIP3    H2 7540   4.249   2.088   5.388 -2.4011 -0.0190  0.6076
 2526TIP3   OH2 7541   4.964   5.737   0.126  0.1118  0.0690 -0.0163
 2526TIP3    H1 7542   4.870   5.725   0.112  0.1332 -0.1625  0.0344
 2526TIP3    H2 7543   4.993   5.785   0.048 -0.1280  0.5383  0.1815
 2527TIP3   OH2 7544   5.113   1.672   2.025  0.2228 -0.0780 -0.3896
 2527TIP3    H1 7545   5.180   1.631   1.970  1.7521  0.7722  0.7797
 2527TIP3    H2 7546   5.133   1.766   2.022  0.6579 -0.0555  1.9960
 2528TIP3   OH2 7547   1.923   1.016   4.707 -0.1913 -0.5968  0.3413
 2528TIP3    H1 7548   1.838   1.030   4.750 -1.5067 -3.1428 -1.1872
 2528TIP3    H2 7549   1.983   0.997   4.779 -1.3713 -0.7100  1.3361
 2529TIP3   OH2 7550   1.320   4.338   1.254 -0.0381 -0.3275 -0.0169
 2529TIP3    H1 7551   1.389   4.379   1.202 -0.2389  2.4808  1.7294
 2529TIP3    H2 7552   1.261   4.409   1.277 -0.6008 -1.5860  3.0250
 2530TIP3   OH2 7553   0.898   2.105   1.621  0.2470  0.0234  0.0559
 2530TIP3    H1 7554   0.879   2.031   1.563  1.3429 -0.7558  0.6735
 2530TIP3    H2 7555   0.914   2.178   1.561 -1.8071  0.0490 -0.5448
 2531TIP3   OH2 7556   4.406   4.096   4.028 -0.2052 -0.5977 -0.3152
 2531TIP3    H1 7557   4.377   4.186   4.011  0.2963 -0.2588  0.5374
 2531TIP3    H2 7558   4.436   4.064   3.943  0.2607  0.2951 -0.5005
 2532TIP3   OH2 7559   6.599   4.172   0.691  0.0127  0.2817 -0.3243
 2532TIP3    H1 7560   6.620   4.176   0.785 -2.5085  1.2038  0.2803
 2532TIP3    H2 7561   6.653   4.240   0.652  2.3482 -1.2074  0.1130
 2533TIP3   OH2 7562   6.973   3.073   2.674 -0.3801 -0.7471 -0.7313
 2533TIP3    H1 7563   7.024   3.154   2.683  1.4263 -1.7263 -1.6599
 2533TIP3    H2 7564   6.938   3.058   2.762 -0.1129  0.6328 -0.3610
 2534TIP3   OH2 7565   0.166   0.423   1.268 -0.0273  0.3827  0.1304
 2534TIP3    H1 7566   0.084   0.469   1.282 -0.7779 -0.0792 -2.2414
 2534TIP3    H2 7567   0.157   0.341   1.317 -0.2134  1.1282  1.3529
 2535TIP3   OH2 7568   5.939   2.625   1.088 -0.5233 -0.1489 -0.1806
 2535TIP3    H1 7569   5.955   2.698   1.147  2.1105 -1.8183  1.3558
 2535TIP3    H2 7570   6.004   2.635   1.019 -0.1044 -1.0370  0.0694
 2536TIP3   OH2 7571   2.596   2.489   2.147  0.1753 -0.5306  0.1699
 2536TIP3    H1 7572   2.523   2.483   2.085  0.8801  0.5075 -0.8025
 2536TIP3    H2 7573   2.639   2.404   2.140  0.0126 -0.5700 -0.4905
 2537TIP3   OH2 7574   1.304   4.374   3.271  0.1030  0.1139  0.0678
 2537TIP3    H1 7575   1.212   4.386   3.291  0.5257  1.4445  1.3500
 2537TIP3    H2 7576   1.328   4.294   3.317 -0.5374 -0.6016 -0.8033
 2538TIP3   OH2 7577   5.415   2.345   2.684 -0.7036 -0.4030  0.5763
 2538TIP3    H1 7578   5.467   2.266   2.699 -0.9699 -0.5509  0.7236
 2538TIP3    H2 7579   5.473   2.402   2.633 -0.3360 -0.4973  0.8838
 2539TIP3   OH2 7580   2.483   0.496   0.693  0.3703 -0.3245 -0.1847
 2539TIP3    H1 7581   2.462   0.579   0.650  0.3599 -0.3360 -0.2016
 2539TIP3    H2 7582   2.410   0.481   0.754  0.4429 -0.2490 -0.0782
 2540TIP3   OH2 7583   6.689   5.709   5.349 -0.8621 -0.3368 -0.2573
 2540TIP3    H1 7584   6.643   5.781   5.394  1.7401  1.0964  0.3283
 2540TIP3    H2 7585   6.734   5.752   5.276  1.5493 -1.1239  0.6911
 2541TIP3   OH2 7586   4.742   5.354   5.848  0.1925  0.3317 -0.0204
 2541TIP3    H1 7587   4.685   5.385   5.919 -0.2663  0.1297 -0.2984
 2541TIP3    H2 7588   4.685   5.348   5.772  0.2484 -1.1942  0.0215
 2542TIP3   OH2 7589   3.001   6.560   4.495 -0.2912 -0.4570  0.4410
 2542TIP3    H1 7590   3.029   6.607   4.417 -1.3186 -1.6251 -0.6786
 2542TIP3    H2 7591   2.910   6.535   4.477 -0.1862 -1.7291  1.5220
 2543TIP3   OH2 7592   6.728   1.693   2.622  0.6457  0.7113  0.6032
 2543TIP3    H1 7593   6.728   1.789   2.630 -0.1821  1.1432 -2.9899
 2543TIP3    H2 7594   6.789   1.675   2.550 -0.9189 -1.2531 -0.2991
 2544TIP3   OH2 7595   1.409   0.253   2.748 -0.1019  0.1757  0.0993
 2544TIP3    H1 7596   1.445   0.270   2.661  1.6764 -1.4688  0.4433
 2544TIP3    H2 7597   1.318   0.280   2.742  0.1427  0.7295 -2.0571
 2545TIP3   OH2 7598   2.249   3.519   0.107  0.7517  0.4391  0.6404
 2545TIP3    H1 7599   2.218   3.486   0.191  0.8425 -0.5404  0.2991
 2545TIP3    H2 7600   2.188   3.484   0.043 -2.0133  4.6133  0.5352
 2546TIP3   OH2 7601   6.486   6.396   3.708  0.0965 -0.2129  0.2241
 2546TIP3    H1 7602   6.516   6.396   3.617  0.0799 -1.1704  0.2083
 2546TIP3    H2 7603   6.525   6.475   3.746  1.8921 -0.9110 -0.0426
 2547TIP3   OH2 7604   1.653   0.124   1.340 -0.3219  0.3741  0.4163
 2547TIP3    H1 7605   1.579   0.094   1.286 -0.0414  2.6981 -1.4079
 2547TIP3    H2 7606   1.633   0.215   1.360  1.7209  0.8694  0.4132
 2548TIP3   OH2 7607   4.157   4.999   4.205 -0.2995 -0.0952  0.4297
 2548TIP3    H1 7608   4.097   4.925   4.208 -1.7497  0.8567 -1.7607
 2548TIP3    H2 7609   4.228   4.971   4.146 -0.7234  0.1432 -0.2062
 2549TIP3   OH2 7610   0.506   5.039   3.469 -0.0546 -0.3357  0.2575
 2549TIP3    H1 7611   0.521   5.133   3.485 -1.0448 -0.0252 -0.4926
 2549TIP3    H2 7612   0.593   5.003   3.452  0.2618  0.6231 -0.2744
 2550TIP3   OH2 7613   1.414   2.580   0.422 -0.3101 -0.2050  0.3346
 2550TIP3    H1 7614   1.382   2.600   0.510  1.6597 -0.3947  1.1395
 2550TIP3    H2 7615   1.509   2.584   0.429 -0.0884 -0.6393 -1.7062
 2551TIP3   OH2 7616   0.424   6.783   1.378 -0.4932 -0.3681 -0.6864
 2551TIP3    H1 7617   0.480   6.848   1.421 -1.4914  0.4336 -0.5455
 2551TIP3    H2 7618   0.465   6.699   1.398  1.0033  0.2163 -1.1204
 2552TIP3   OH2 7619   2.137   2.929   2.528  0.0754  0.1099 -0.6901
 2552TIP3    H1 7620   2.160   2.989   2.599 -0.7326 -1.0134  0.5864
 2552TIP3    H2 7621   2.121   2.986   2.453  1.3574  1.3127 -0.1102
 2553TIP3   OH2 7622   6.865   5.669   2.404  0.3425 -0.1067 -0.0119
 2553TIP3    H1 7623   6.773   5.686   2.423  0.2658 -1.1994  0.6964
 2553TIP3    H2 7624   6.902   5.755   2.384 -0.7174  0.4094  0.1850
 2554TIP3   OH2 7625   3.786   1.225   5.541  0.2343  0.4367  0.5339
 2554TIP3    H1 7626   3.850   1.207   5.472  1.3337  0.5864  1.4781
 2554TIP3    H2 7627   3.750   1.310   5.519 -0.1206  0.0580 -0.3646
 2555TIP3   OH2 7628   0.467   6.566   5.748 -0.2154 -0.2405  0.1442
 2555TIP3    H1 7629   0.505   6.506   5.684 -1.6006 -0.6680 -0.3040
 2555TIP3    H2 7630   0.471   6.518   5.831 -0.9140 -0.7986 -0.1337
 2556TIP3   OH2 7631   5.331   1.624   4.064  0.2969 -0.2220 -0.0823
 2556TIP3    H1 7632   5.397   1.685   4.031  0.1462  0.2566  0.4787
 2556TIP3    H2 7633   5.331   1.638   4.159  0.4701 -1.3069  0.0983
 2557TIP3   OH2 7634   5.952   6.340   3.832 -0.2401  0.0449  0.1831
 2557TIP3    H1 7635   5.874   6.313   3.881 -1.5917  0.4861 -1.6408
 2557TIP3    H2 7636   5.984   6.417   3.879 -1.6555  0.6192  0.2363
 2558TIP3   OH2 7637   0.611   3.715   2.150  0.5280 -0.1127 -0.6367
 2558TIP3    H1 7638   0.537   3.756   2.194  2.5250  2.7497  0.2677
 2558TIP3    H2 7639   0.684   3.723   2.211  1.7656 -2.5458 -1.6311
 2559TIP3   OH2 7640   5.210   4.931   3.923 -0.3716 -0.1112  0.1452
 2559TIP3    H1 7641   5.157   4.915   4.002 -1.4519 -0.2381 -0.5844
 2559TIP3    H2 7642   5.154   4.983   3.867  0.4408  0.0800 -0.4998
 2560TIP3   OH2 7643   3.675   4.915   1.016 -0.4014 -0.1313  0.7652
 2560TIP3    H1 7644   3.739   4.950   1.078  0.2416 -2.0642  1.2431
 2560TIP3    H2 7645   3.672   4.980   0.946 -0.6587  1.7897  2.4623
 2561TIP3   OH2 7646   2.319   2.583   5.582 -0.2477  0.3585  0.0416
 2561TIP3    H1 7647   2.386   2.597   5.648 -0.7656  0.4042  0.5584
 2561TIP3    H2 7648   2.344   2.642   5.510  0.3086  0.3111  0.1927
 2562TIP3   OH2 7649   5.048   1.145   2.351  0.3076  0.1352 -0.0188
 2562TIP3    H1 7650   5.053   1.237   2.377  0.6342 -0.4871  2.3558
 2562TIP3    H2 7651   4.956   1.122   2.357  0.2753  0.1958 -0.2550
 2563TIP3   OH2 7652   3.709   0.977   0.998  0.5378  0.4843 -0.4408
 2563TIP3    H1 7653   3.694   1.064   1.034 -1.6389  0.5022 -1.2547
 2563TIP3    H2 7654   3.776   0.990   0.931  1.1987  1.2695  0.3458
 2564TIP3   OH2 7655   1.002   1.432   0.304 -0.2791 -0.1259  0.6408
 2564TIP3    H1 7656   1.063   1.502   0.325 -0.7998  0.2097  1.0843
 2564TIP3    H2 7657   1.033   1.396   0.221 -1.2613  2.0763 -0.7772
 2565TIP3   OH2 7658   1.636   2.195   3.324  0.1767  0.3165  0.0886
 2565TIP3    H1 7659   1.681   2.111   3.327 -0.2592  0.0468 -0.6386
 2565TIP3    H2 7660   1.604   2.208   3.413 -0.2058 -0.5490  0.0865
 2566TIP3   OH2 7661   3.466   0.581   1.612  0.2248 -0.4037 -0.5269
 2566TIP3    H1 7662   3.377   0.611   1.596 -0.1787 -0.6490  1.1277
 2566TIP3    H2 7663   3.490   0.619   1.696  1.2808 -1.2181 -0.4337
 2567TIP3   OH2 7664   2.604   6.764   0.899  0.0050  0.2162 -0.6335
 2567TIP3    H1 7665   2.577   6.672   0.906  1.4102 -0.1805 -0.1354
 2567TIP3    H2 7666   2.534   6.805   0.847 -1.4734 -0.7584  0.4733
 2568TIP3   OH2 7667   4.085   0.065   0.669  0.0274  0.4341  0.0217
 2568TIP3    H1 7668   4.124  -0.015   0.706  2.0880  1.7450  0.9152
 2568TIP3    H2 7669   4.125   0.135   0.720 -2.2432  2.0297 -0.2767
 2569TIP3   OH2 7670   2.316   5.011   3.877 -0.1407 -0.3968 -0.2492
 2569TIP3    H1 7671   2.294   5.103   3.890 -2.5915 -1.0156  0.6071
 2569TIP3    H2 7672   2.306   4.998   3.783  1.3408  0.4286 -0.5477
 2570TIP3   OH2 7673   6.296   1.507   4.382  0.0791 -0.5009 -0.3875
 2570TIP3    H1 7674   6.317   1.414   4.388  0.1794 -0.4418  0.1992
 2570TIP3    H2 7675   6.201   1.510   4.372 -0.1718 -0.6024  1.6683
 2571TIP3   OH2 7676   1.436   3.741   4.312  0.1279 -0.0220  0.6309
 2571TIP3    H1 7677   1.503   3.789   4.360 -1.1867  2.8266 -0.1344
 2571TIP3    H2 7678   1.359   3.745   4.369 -0.8080  1.4201 -0.6483
 2572TIP3   OH2 7679   5.335   5.327   0.944 -0.2705  0.3607 -0.3910
 2572TIP3    H1 7680   5.353   5.242   0.905 -1.5188 -0.6127  1.0952
 2572TIP3    H2 7681   5.417   5.352   0.987  0.0950 -0.0726 -0.8240
 2573TIP3   OH2 7682   2.940   3.439   3.278 -0.2469  0.1848  0.3998
 2573TIP3    H1 7683   2.989   3.387   3.214  0.5719  1.7068 -0.2902
 2573TIP3    H2 7684   2.946   3.390   3.359  0.2224 -0.9323 -0.2872
 2574TIP3   OH2 7685   3.957   6.401   2.847  0.2468  0.0731 -0.1990
 2574TIP3    H1 7686   3.924   6.316   2.819 -0.3308  0.4454 -0.6768
 2574TIP3    H2 7687   4.002   6.435   2.769  0.2032  0.3339 -0.1114
 2575TIP3   OH2 7688   5.505   5.278   5.357  0.1644 -0.2655  0.1872
 2575TIP3    H1 7689   5.445   5.221   5.405 -0.1643  0.0049  0.1004
 2575TIP3    H2 7690   5.464   5.289   5.271  0.0525  0.3846  0.3215
 2576TIP3   OH2 7691   2.153   4.092   4.229 -0.5840  0.3367 -0.2035
 2576TIP3    H1 7692   2.060   4.099   4.252 -0.4423  0.2160  0.4120
 2576TIP3    H2 7693   2.193   4.050   4.305 -0.1359 -0.2064 -0.7312
 2577TIP3   OH2 7694   3.803   3.641   2.628  0.2602  0.8195  0.2486
 2577TIP3    H1 7695   3.722   3.599   2.599  1.1664 -0.9939  0.1917
 2577TIP3    H2 7696   3.858   3.645   2.549  1.5221 -1.2108  0.9437
 2578TIP3   OH2 7697   0.916   3.687   1.030 -0.5051  0.5127  0.1957
 2578TIP3    H1 7698   0.973   3.679   1.107  0.0277  0.7169 -0.1715
 2578TIP3    H2 7699   0.834   3.646   1.057  0.1054 -0.6044  0.4398
 2579TIP3   OH2 7700   5.697   3.687   1.470 -0.2178 -0.0093 -0.5430
 2579TIP3    H1 7701   5.706   3.766   1.416 -1.1680  0.5509  0.0882
 2579TIP3    H2 7702   5.781   3.679   1.516 -0.0713  0.5591 -0.7098
 2580TIP3   OH2 7703   4.125   1.034   3.777 -0.2033 -0.0460 -0.6710
 2580TIP3    H1 7704   4.168   0.949   3.764  2.1131  1.0689 -0.8202
 2580TIP3    H2 7705   4.092   1.032   3.866  0.2487 -0.9319 -0.5181
 2581TIP3   OH2 7706   5.318   4.201   0.355  0.7955  0.4143 -0.2288
 2581TIP3    H1 7707   5.329   4.126   0.414  1.5444 -1.1265 -2.1890
 2581TIP3    H2 7708   5.373   4.269   0.392 -0.7647  0.4761  2.2407
 2582TIP3   OH2 7709   6.632   2.804   3.938 -0.3012 -0.5845 -0.0471
 2582TIP3    H1 7710   6.611   2.816   3.845 -1.8842 -1.4309  0.1629
 2582TIP3    H2 7711   6.698   2.870   3.957  0.0114 -0.3628 -1.7644
 2583TIP3   OH2 7712   1.978   6.147   3.502  0.5988  0.5352 -0.0385
 2583TIP3    H1 7713   1.992   6.083   3.572  0.9581  2.1939  1.4768
 2583TIP3    H2 7714   2.055   6.136   3.446  1.1477  0.2916  0.7338
 2584TIP3   OH2 7715   4.766   5.604   5.177  0.6195  0.5459  0.0069
 2584TIP3    H1 7716   4.745   5.593   5.270  0.5703  2.0678  0.1939
 2584TIP3    H2 7717   4.681   5.599   5.132  0.7027 -0.8486 -0.0654
 2585TIP3   OH2 7718   6.161   4.970   3.130  0.7429 -0.2939  0.7109
 2585TIP3    H1 7719   6.229   4.983   3.063  1.0742  0.2164  1.1352
 2585TIP3    H2 7720   6.183   4.886   3.170 -1.0568 -2.0148 -1.6424
 2586TIP3   OH2 7721   2.028   0.949   2.575  0.5135  0.4109  0.3672
 2586TIP3    H1 7722   1.994   1.038   2.587  1.1774  0.6488  0.5531
 2586TIP3    H2 7723   2.046   0.918   2.663 -2.4803 -1.0621  0.5664
 2587TIP3   OH2 7724   2.565   5.168   2.823  0.0922 -0.6175 -0.3521
 2587TIP3    H1 7725   2.656   5.189   2.840 -0.5782  1.6932  0.7549
 2587TIP3    H2 7726   2.520   5.189   2.905 -1.5824 -0.6233 -1.2247
 2588TIP3   OH2 7727   1.353   3.374   0.577 -0.2690 -0.6425 -0.9230
 2588TIP3    H1 7728   1.305   3.297   0.607 -1.1677  0.6685  1.2387
 2588TIP3    H2 7729   1.297   3.412   0.510 -0.3991 -1.1966 -1.1340
 2589TIP3   OH2 7730   2.016   0.892   1.675  0.2581 -0.2433 -0.1726
 2589TIP3    H1 7731   1.931   0.861   1.644 -0.9256  1.0754  1.6153
 2589TIP3    H2 7732   2.017   0.873   1.769  1.4419  0.8362  0.0705
 2590TIP3   OH2 7733   6.401   1.219   4.907 -0.0610  0.7408  0.2921
 2590TIP3    H1 7734   6.363   1.203   4.820 -0.0522  2.0479  0.0326
 2590TIP3    H2 7735   6.327   1.244   4.961  0.0674  0.8238  0.4285
 2591TIP3   OH2 7736   3.936   2.610   0.781 -0.4743  0.4446 -0.4901
 2591TIP3    H1 7737   3.926   2.519   0.809 -1.0508  0.3286 -1.0449
 2591TIP3    H2 7738   3.875   2.659   0.835 -1.0104  0.3303 -0.9759
 2592TIP3   OH2 7739   3.148   5.771   3.572  0.3764  0.4227  0.4455
 2592TIP3    H1 7740   3.086   5.764   3.500  0.3936 -1.9357  0.5841
 2592TIP3    H2 7741   3.208   5.698   3.560  2.2910  1.7740  1.1441
 2593TIP3   OH2 7742   0.792   1.646   2.794 -0.0569 -0.3531 -0.2004
 2593TIP3    H1 7743   0.774   1.716   2.732 -0.6848 -0.2761  0.0719
 2593TIP3    H2 7744   0.848   1.585   2.745 -0.1059 -0.0265 -0.6668
 2594TIP3   OH2 7745   0.232   4.007   0.037 -0.0052  0.1936  0.3290
 2594TIP3    H1 7746   0.256   4.045  -0.047  0.7524  0.4498  0.6562
 2594TIP3    H2 7747   0.313   3.971   0.072 -0.6480 -1.5581  0.1316
 2595TIP3   OH2 7748   5.983   0.998   5.016  0.7131  0.0585 -0.1776
 2595TIP3    H1 7749   5.923   0.935   5.055 -1.2128  1.0585 -1.3370
 2595TIP3    H2 7750   5.979   1.075   5.073  1.7448 -0.2474  0.3211
 2596TIP3   OH2 7751   5.548   4.529   4.309 -0.7941  0.3191  0.0891
 2596TIP3    H1 7752   5.465   4.489   4.334 -0.7574  0.5799  0.6348
 2596TIP3    H2 7753   5.553   4.609   4.361  0.2735 -0.1991  0.8229
 2597TIP3   OH2 7754   6.980   1.170   0.766 -0.0897 -0.2977  0.2294
 2597TIP3    H1 7755   6.923   1.245   0.747  2.3566  2.1828  1.9600
 2597TIP3    H2 7756   6.932   1.121   0.833 -1.0993  0.5120  0.1364
 2598TIP3   OH2 7757   2.680   1.181   0.666  0.5016 -0.0637 -0.0175
 2598TIP3    H1 7758   2.775   1.170   0.667  0.5130 -0.2811 -1.3787
 2598TIP3    H2 7759   2.647   1.103   0.711  0.9655  0.0689  0.5645
 2599TIP3   OH2 7760   6.617   2.872   1.114 -0.0017 -0.0854 -0.0860
 2599TIP3    H1 7761   6.527   2.902   1.101 -0.1721 -0.7672 -0.5007
 2599TIP3    H2 7762   6.620   2.842   1.204  0.5666  2.4965  0.8658
 2600TIP3   OH2 7763   5.973   6.585   2.561  0.0758  0.2133  0.0023
 2600TIP3    H1 7764   5.881   6.600   2.585 -0.5462  0.7271 -2.4675
 2600TIP3    H2 7765   5.972   6.503   2.511  0.3223  1.8412 -2.8923
 2601TIP3   OH2 7766   1.624   6.216   1.697  0.2456  0.4492 -0.3257
 2601TIP3    H1 7767   1.548   6.198   1.641 -1.4439  1.4315  1.5329
 2601TIP3    H2 7768   1.675   6.281   1.647  0.0550 -0.4398 -1.7330
 2602TIP3   OH2 7769   1.109   1.383   0.724 -0.1122  0.2189 -0.3794
 2602TIP3    H1 7770   1.023   1.409   0.758  0.3387  0.2132  0.8470
 2602TIP3    H2 7771   1.157   1.355   0.802  1.4842  1.5772 -0.8125
 2603TIP3   OH2 7772   1.435   2.954   2.421  0.4747 -0.1920 -0.5888
 2603TIP3    H1 7773   1.447   2.901   2.500  1.8207  1.2987  0.2642
 2603TIP3    H2 7774   1.341   2.959   2.409  0.2429 -0.4140  0.9648
 2604TIP3   OH2 7775   5.973   2.193   5.107  0.6164 -0.2204 -0.5789
 2604TIP3    H1 7776   5.880   2.215   5.103  0.5926 -0.4477 -1.6980
 2604TIP3    H2 7777   6.015   2.271   5.143 -0.0258 -0.2110  0.1880
 2605TIP3   OH2 7778   2.605   2.647   2.372  0.5364  0.2869 -0.3989
 2605TIP3    H1 7779   2.686   2.619   2.416 -0.3529 -0.5454  0.7728
 2605TIP3    H2 7780   2.607   2.601   2.288  1.0982 -0.0443 -0.2160
 2606TIP3   OH2 7781   4.914   4.750   2.248 -0.6018 -0.2273  0.3257
 2606TIP3    H1 7782   4.933   4.805   2.172  1.1394 -1.9005 -0.5268
 2606TIP3    H2 7783   4.974   4.782   2.316 -0.1308 -0.5629  0.0734
 2607TIP3   OH2 7784   2.793   3.400   2.120 -0.1101  0.3109  0.3848
 2607TIP3    H1 7785   2.871   3.454   2.123  0.5031 -0.5413  0.1033
 2607TIP3    H2 7786   2.798   3.354   2.036  0.4492 -1.7212  1.4808
 2608TIP3   OH2 7787   4.680   6.519   2.588  0.5531  0.7280 -0.0724
 2608TIP3    H1 7788   4.726   6.579   2.647 -1.0123  1.4812  0.4396
 2608TIP3    H2 7789   4.597   6.502   2.632 -0.7456  1.4410 -2.1269
 2609TIP3   OH2 7790   4.903   3.290   1.433 -0.2237  0.2863 -0.4470
 2609TIP3    H1 7791   4.887   3.379   1.400 -0.2069  0.5450  0.2336
 2609TIP3    H2 7792   4.905   3.299   1.528  0.8653 -0.2499 -0.3945
 2610TIP3   OH2 7793   1.759   0.927   1.238  0.3116  0.2811  0.0084
 2610TIP3    H1 7794   1.696   0.930   1.311 -0.4871  0.6104 -0.6744
 2610TIP3    H2 7795   1.720   0.867   1.175  0.1855  1.2389 -0.8572
 2611TIP3   OH2 7796   3.990   4.996   0.980 -0.3008  0.2221  0.1321
 2611TIP3    H1 7797   4.054   5.007   1.051  0.9957 -2.0754 -0.5919
 2611TIP3    H2 7798   3.929   5.070   0.992  0.8025  0.8588  2.6022
 2612TIP3   OH2 7799   1.804   6.354   3.416  0.2758 -0.5334 -0.8701
 2612TIP3    H1 7800   1.871   6.310   3.469  0.8076  0.9302 -0.2973
 2612TIP3    H2 7801   1.824   6.327   3.327  0.6092 -1.4181 -0.5504
 2613TIP3   OH2 7802   2.110   3.690   1.437  0.6958  0.3421 -0.2411
 2613TIP3    H1 7803   2.147   3.700   1.525 -2.3515  1.0810  1.1046
 2613TIP3    H2 7804   2.115   3.778   1.399  3.0019 -0.1853 -1.3671
 2614TIP3   OH2 7805   6.750   0.869   3.584  0.3428  0.0265  0.0323
 2614TIP3    H1 7806   6.686   0.842   3.518 -1.0260  2.5696  0.2059
 2614TIP3    H2 7807   6.816   0.916   3.534  0.7711 -0.4141  0.1761
 2615TIP3   OH2 7808   1.189   3.529   0.426 -0.0171 -0.6465  0.0377
 2615TIP3    H1 7809   1.112   3.528   0.483  0.0786  0.8242  0.2233
 2615TIP3    H2 7810   1.218   3.620   0.426  1.5510 -1.1208 -0.2776
 2616TIP3   OH2 7811   6.885   5.983   2.412 -0.1699 -0.3149  0.3490
 2616TIP3    H1 7812   6.948   6.055   2.408  0.5184 -0.9792 -1.1308
 2616TIP3    H2 7813   6.825   5.999   2.339 -0.8504 -0.5151  0.8480
 2617TIP3   OH2 7814   6.176   3.956   4.348 -0.0237 -0.2479  0.1324
 2617TIP3    H1 7815   6.105   3.915   4.298 -0.2114  1.3839 -1.0558
 2617TIP3    H2 7816   6.131   4.008   4.415  0.0574  0.1783 -0.1352
 2618TIP3   OH2 7817   2.359   3.598   5.045  0.1755  0.4745 -0.4569
 2618TIP3    H1 7818   2.408   3.659   5.101  0.4592 -0.0271 -0.1471
 2618TIP3    H2 7819   2.425   3.561   4.986  0.2930 -0.6261  0.3365
 2619TIP3   OH2 7820   2.076   1.696   3.954  0.4563  0.1166  0.4105
 2619TIP3    H1 7821   2.171   1.699   3.947  0.5498  1.2537  1.7806
 2619TIP3    H2 7822   2.055   1.760   4.023 -1.3792  0.7365 -0.6601
 2620TIP3   OH2 7823   2.750   4.762   5.542 -0.3415 -0.3648 -0.4887
 2620TIP3    H1 7824   2.832   4.739   5.587 -0.3646 -1.8443 -1.1459
 2620TIP3    H2 7825   2.779   4.808   5.463  0.0388 -2.7601 -1.8394
 2621TIP3   OH2 7826   2.780   3.101   1.954 -0.2346  0.1304 -0.0048
 2621TIP3    H1 7827   2.849   3.036   1.949 -0.1276  0.1095  1.3292
 2621TIP3    H2 7828   2.815   3.178   1.908  1.1186  0.4869  1.5394
 2622TIP3   OH2 7829   2.443   1.660   0.735 -0.3138 -0.0292 -0.4415
 2622TIP3    H1 7830   2.502   1.586   0.719  0.7261 -0.1265  3.1013
 2622TIP3    H2 7831   2.494   1.737   0.711  0.1292 -0.2551 -0.2215
 2623TIP3   OH2 7832   2.894   3.745   3.482 -0.1433  0.2333  0.5333
 2623TIP3    H1 7833   2.862   3.817   3.537  1.4370  1.5390 -0.1577
 2623TIP3    H2 7834   2.919   3.676   3.544 -1.2770  0.4367  1.2439
 2624TIP3   OH2 7835   4.134   4.759   1.325  0.2595 -0.0612  0.2091
 2624TIP3    H1 7836   4.084   4.743   1.406 -0.3934 -0.5076 -0.2700
 2624TIP3    H2 7837   4.204   4.819   1.352 -0.5067  0.5475  0.9069
 2625TIP3   OH2 7838   6.730   6.313   3.970  0.3695  0.2598 -0.2914
 2625TIP3    H1 7839   6.639   6.337   3.988  0.6291  1.6088 -0.6696
 2625TIP3    H2 7840   6.777   6.337   4.050  0.6427  1.0967 -0.6953
 2626TIP3   OH2 7841   3.756   5.228   2.248  0.0769  0.7277 -0.1519
 2626TIP3    H1 7842   3.706   5.252   2.169 -2.8007 -0.8126  1.0428
 2626TIP3    H2 7843   3.843   5.204   2.215 -0.5095  1.6862 -2.6371
 2627TIP3   OH2 7844   4.045   5.976   3.603  0.3305 -0.0261 -0.5672
 2627TIP3    H1 7845   4.140   5.968   3.610  0.3430 -0.3314 -1.0333
 2627TIP3    H2 7846   4.023   5.935   3.519  0.1744  3.2057 -2.2484
 2628TIP3   OH2 7847   6.442   0.639   0.589  0.4886  0.2495  0.3205
 2628TIP3    H1 7848   6.375   0.627   0.657 -0.5817  0.5816 -0.6580
 2628TIP3    H2 7849   6.463   0.732   0.593 -2.1650  1.0991 -2.0860
 2629TIP3   OH2 7850   7.051   0.157   2.872  0.3356 -0.4060 -0.2467
 2629TIP3    H1 7851   7.142   0.188   2.871  0.2973 -0.1725  1.2387
 2629TIP3    H2 7852   7.016   0.185   2.787  1.6441 -0.5059 -0.8512
 2630TIP3   OH2 7853   2.849   6.147   3.488 -0.0938 -1.0316  0.0813
 2630TIP3    H1 7854   2.808   6.233   3.492  0.9485 -0.4970 -0.5912
 2630TIP3    H2 7855   2.776   6.086   3.504 -0.9921 -0.0709 -0.2334
 2631TIP3   OH2 7856   0.340   3.541   2.069 -0.0579  0.6452 -0.3783
 2631TIP3    H1 7857   0.331   3.614   2.130  0.7400  1.7680 -1.5426
 2631TIP3    H2 7858   0.366   3.583   1.986  0.0865 -0.9328 -1.1575
 2632TIP3   OH2 7859   1.555   1.918   0.049 -0.1316  0.1145  0.3683
 2632TIP3    H1 7860   1.636   1.888   0.090 -0.2939 -1.2346 -0.2671
 2632TIP3    H2 7861   1.583   1.981  -0.017  0.3705 -0.0734  0.4029
 2633TIP3   OH2 7862   0.659   0.642   0.321  0.1029 -0.1421  0.2443
 2633TIP3    H1 7863   0.751   0.669   0.320  0.1287 -0.0891 -2.0483
 2633TIP3    H2 7864   0.611   0.724   0.336  0.3841  0.0715 -0.0025
 2634TIP3   OH2 7865   1.338   5.836   4.689  0.5134  0.0451 -0.4280
 2634TIP3    H1 7866   1.405   5.904   4.701 -0.3993  0.8660  0.1530
 2634TIP3    H2 7867   1.287   5.837   4.770  0.0373 -0.8501 -0.6970
 2635TIP3   OH2 7868   4.088   2.892   4.282  0.0110  0.1898  0.3788
 2635TIP3    H1 7869   4.108   2.799   4.274 -0.5986  0.1557 -1.3489
 2635TIP3    H2 7870   4.132   2.932   4.206  1.7566  1.6124  2.0394
 2636TIP3   OH2 7871   0.575   4.444   1.608  0.1158  0.0404  0.5868
 2636TIP3    H1 7872   0.640   4.390   1.653  0.6383  2.0294  2.3970
 2636TIP3    H2 7873   0.556   4.515   1.670 -1.7153  1.0515 -1.0236
 2637TIP3   OH2 7874   2.188   5.634   1.654 -0.1276 -0.4362 -0.1945
 2637TIP3    H1 7875   2.254   5.565   1.647 -1.0244 -2.0001  3.8908
 2637TIP3    H2 7876   2.108   5.594   1.623 -0.2007 -0.4599  0.0216
 2638TIP3   OH2 7877   6.342   5.438   1.419  0.4933 -0.3872  0.5376
 2638TIP3    H1 7878   6.399   5.422   1.343  0.1193  1.2412 -0.1349
 2638TIP3    H2 7879   6.265   5.384   1.403  0.5322 -0.2580 -0.1154
 2639TIP3   OH2 7880   6.378   1.862   1.960  0.2905 -0.2550 -0.4448
 2639TIP3    H1 7881   6.359   1.773   1.990  0.0350 -0.2900 -0.7088
 2639TIP3    H2 7882   6.458   1.853   1.908 -0.0938 -0.4430 -1.0177
 2640TIP3   OH2 7883   0.508   4.994   0.666  0.8633 -0.1809 -0.6815
 2640TIP3    H1 7884   0.492   4.902   0.648 -1.1083 -0.0524  0.1789
 2640TIP3    H2 7885   0.432   5.039   0.627  1.5291  1.0283 -0.6297
 2641TIP3   OH2 7886   5.650   2.255   5.530  0.0397 -0.0536  0.3986
 2641TIP3    H1 7887   5.697   2.314   5.588  2.4870 -1.7628  0.2814
 2641TIP3    H2 7888   5.635   2.176   5.582 -0.5070 -0.4687 -0.3612
 2642TIP3   OH2 7889   5.791   3.031   2.990  0.5177  0.2877 -0.2452
 2642TIP3    H1 7890   5.872   2.981   2.994 -1.7043 -3.6144  1.2944
 2642TIP3    H2 7891   5.766   3.044   3.082 -1.5262 -0.3311 -0.6619
 2643TIP3   OH2 7892   0.887   1.483   2.592  0.4395  0.2883 -0.5749
 2643TIP3    H1 7893   0.961   1.435   2.631  0.3708 -0.0661 -0.8799
 2643TIP3    H2 7894   0.928   1.550   2.538  0.5502  1.3466  0.7455
 2644TIP3   OH2 7895   6.808   0.689   4.027 -0.2332 -0.3766  0.7267
 2644TIP3    H1 7896   6.714   0.680   4.012 -0.2984 -0.3016  1.0648
 2644TIP3    H2 7897   6.817   0.685   4.122  0.1059 -0.3835  0.6950
 2645TIP3   OH2 7898   2.177   5.223   0.080 -0.1739 -0.0282  0.2994
 2645TIP3    H1 7899   2.234   5.158   0.120 -0.5434 -0.7293 -0.3067
 2645TIP3    H2 7900   2.170   5.292   0.147  0.9298 -0.1820  0.5909
 2646TIP3   OH2 7901   0.838   1.547   1.222 -0.0470 -0.3024  0.4975
 2646TIP3    H1 7902   0.777   1.573   1.291 -0.4033 -0.5575  0.2842
 2646TIP3    H2 7903   0.795   1.572   1.141 -0.4860 -1.6841  0.2761
 2647TIP3   OH2 7904   4.009   0.570   0.753 -1.0901 -0.1511  0.4934
 2647TIP3    H1 7905   3.934   0.543   0.807 -1.9859 -0.5237 -0.8613
 2647TIP3    H2 7906   4.005   0.665   0.752 -0.5419 -0.1010  1.7615
 2648TIP3   OH2 7907   3.242   4.328   1.012 -0.2615 -0.1694 -0.3186
 2648TIP3    H1 7908   3.178   4.273   1.057 -2.0988  1.2618 -1.0584
 2648TIP3    H2 7909   3.198   4.413   1.001  1.9065  1.0135 -0.5324
 2649TIP3   OH2 7910   0.079   4.953   1.733  0.2960  0.1773  0.4438
 2649TIP3    H1 7911   0.053   4.973   1.643 -1.2726 -0.7504  0.6680
 2649TIP3    H2 7912   0.162   4.907   1.723  0.8508  1.2974 -0.4255
 2650TIP3   OH2 7913   5.536   5.053   1.204 -0.1690 -0.0051 -0.4401
 2650TIP3    H1 7914   5.453   5.063   1.156  0.3314  2.8087 -0.9018
 2650TIP3    H2 7915   5.602   5.085   1.143  0.9085  0.3503  0.8701
 2651TIP3   OH2 7916   2.893   3.062   3.957 -0.1496 -0.3825  0.3581
 2651TIP3    H1 7917   2.965   3.018   3.912 -0.0180 -0.6531  0.8223
 2651TIP3    H2 7918   2.818   3.003   3.947 -0.2859 -0.1469 -0.0406
 2652TIP3   OH2 7919   4.613   5.187   1.657  0.5873 -0.6080  0.3410
 2652TIP3    H1 7920   4.519   5.207   1.659  0.4801 -1.0926  2.2813
 2652TIP3    H2 7921   4.627   5.147   1.571 -0.5659  1.2808 -0.7849
 2653TIP3   OH2 7922   6.465   1.993   5.153 -0.2192  0.0098  0.2354
 2653TIP3    H1 7923   6.392   2.037   5.197 -0.7597  0.0665 -0.6987
 2653TIP3    H2 7924   6.538   2.056   5.158 -0.1613 -0.1236  1.3343
 2654TIP3   OH2 7925   6.020   5.120   5.747 -0.1770  0.2213 -0.3736
 2654TIP3    H1 7926   5.973   5.133   5.665  0.8101  0.5836 -0.9003
 2654TIP3    H2 7927   5.965   5.161   5.814  0.9264  3.7598 -1.4054
 2655TIP3   OH2 7928   6.870   1.190   1.795  0.0017  0.5594 -0.6453
 2655TIP3    H1 7929   6.877   1.204   1.701 -1.3544 -1.4603 -1.1163
 2655TIP3    H2 7930   6.777   1.194   1.813  0.2777  1.4433  0.7363
 2656TIP3   OH2 7931   2.246   0.610   1.127  0.0145 -0.2711 -0.3096
 2656TIP3    H1 7932   2.264   0.550   1.198  1.5173  0.3645 -0.1192
 2656TIP3    H2 7933   2.162   0.650   1.150 -0.1179 -0.9704  0.4569
 2657TIP3   OH2 7934   6.447   5.007   4.463 -0.2612 -0.4457 -0.5305
 2657TIP3    H1 7935   6.367   4.958   4.483 -0.1685 -0.5890 -0.5087
 2657TIP3    H2 7936   6.432   5.094   4.501 -0.6678 -0.2666 -1.0845
 2658TIP3   OH2 7937   3.313   5.720   2.032 -0.5510  0.9421 -0.0038
 2658TIP3    H1 7938   3.260   5.692   1.958 -0.0445  0.5881 -0.2438
 2658TIP3    H2 7939   3.380   5.652   2.040  0.4752  1.8759 -0.3576
 2659TIP3   OH2 7940   6.947   1.873   4.191 -0.2324  0.0363 -0.3330
 2659TIP3    H1 7941   6.916   1.804   4.250  0.0189 -0.6846 -1.0360
 2659TIP3    H2 7942   6.955   1.950   4.248  0.1973 -0.6896  0.6334
 2660TIP3   OH2 7943   4.864   2.281   4.867 -0.2841 -0.0014  0.1717
 2660TIP3    H1 7944   4.802   2.215   4.901 -0.8132  0.9623  1.1370
 2660TIP3    H2 7945   4.829   2.364   4.899 -0.6488  0.9693 -2.5357
 2661TIP3   OH2 7946   5.231   5.822   4.973 -0.3355  0.6932 -0.1619
 2661TIP3    H1 7947   5.186   5.739   4.988 -2.4039  1.7183 -0.3706
 2661TIP3    H2 7948   5.179   5.886   5.020 -0.6697  2.3482 -2.6290
 2662TIP3   OH2 7949   0.270   2.250   1.496  0.1586  0.0309 -0.3633
 2662TIP3    H1 7950   0.258   2.157   1.480  2.1666 -0.3824  0.2306
 2662TIP3    H2 7951   0.225   2.266   1.580  0.8449 -0.6926  0.1559
 2663TIP3   OH2 7952   2.028   5.785   4.478 -0.4604  0.2529 -0.6326
 2663TIP3    H1 7953   2.116   5.797   4.514 -1.0107 -2.5153  2.0418
 2663TIP3    H2 7954   1.973   5.847   4.526 -0.1721  1.4626 -1.7893
 2664TIP3   OH2 7955   3.750   1.452   4.678 -0.1606 -0.1588 -0.5291
 2664TIP3    H1 7956   3.737   1.488   4.766 -1.3763  0.2718 -0.8722
 2664TIP3    H2 7957   3.722   1.361   4.684 -0.8361  0.0406 -0.6156
 2665TIP3   OH2 7958   0.084   2.036   2.452  0.2254 -0.0094  0.3862
 2665TIP3    H1 7959   0.125   2.085   2.524 -1.3925 -0.2529  1.5296
 2665TIP3    H2 7960   0.114   2.080   2.373  0.5344  1.4766  1.2939
 2666TIP3   OH2 7961   0.579   4.884   1.940 -0.1140  0.1478 -0.0976
 2666TIP3    H1 7962   0.551   4.873   2.031 -1.8693 -0.2545 -0.6467
 2666TIP3    H2 7963   0.650   4.948   1.945  0.3434 -0.4257  1.6206
 2667TIP3   OH2 7964   4.103   0.157   3.185  0.2935  0.1306  0.3126
 2667TIP3    H1 7965   4.180   0.211   3.202 -0.6651  1.2438  1.3552
 2667TIP3    H2 7966   4.079   0.123   3.271 -0.7245  0.3084  0.1099
 2668TIP3   OH2 7967   6.974   4.854   4.407  0.5974 -0.3230  0.3366
 2668TIP3    H1 7968   6.892   4.903   4.401  0.0742 -1.2989 -0.9286
 2668TIP3    H2 7969   7.017   4.889   4.485 -0.7078  0.6763  0.6454
 2669TIP3   OH2 7970   5.742   0.468   0.671  0.1248 -0.0138 -0.0903
 2669TIP3    H1 7971   5.699   0.436   0.751  0.5317  0.0146  0.1396
 2669TIP3    H2 7972   5.692   0.546   0.647 -1.6323 -1.4389 -1.3200
 2670TIP3   OH2 7973   2.490   0.084   4.631 -0.3353 -0.2322 -0.5682
 2670TIP3    H1 7974   2.570   0.044   4.665  2.2756  3.1007 -2.2401
 2670TIP3    H2 7975   2.477   0.042   4.546  0.9304  0.6712 -1.2298
 2671TIP3   OH2 7976   4.856   4.746   5.167  0.1705  0.4891 -0.8485
 2671TIP3    H1 7977   4.823   4.807   5.101 -0.6704  0.0444 -0.8551
 2671TIP3    H2 7978   4.791   4.676   5.169 -0.5470  1.1398  1.4257
 2672TIP3   OH2 7979   5.914   5.069   1.689 -0.2887 -0.2030  0.1672
 2672TIP3    H1 7980   5.952   4.995   1.642  1.1711  1.0725 -0.7763
 2672TIP3    H2 7981   5.871   5.121   1.621  1.8502  1.6711  0.1057
 2673TIP3   OH2 7982   0.163   5.487   2.949  0.5810 -0.3080 -0.2963
 2673TIP3    H1 7983   0.088   5.530   2.989  0.6664  0.0997 -0.5636
 2673TIP3    H2 7984   0.149   5.495   2.855  0.8508 -0.4184 -0.3485
 2674TIP3   OH2 7985   0.169   3.758   2.860  0.5368  0.1449  0.3816
 2674TIP3    H1 7986   0.172   3.836   2.805  0.0235 -0.2636 -0.2409
 2674TIP3    H2 7987   0.251   3.711   2.839  1.3955  1.0480  1.5881
 2675TIP3   OH2 7988   1.069   2.412   4.410  0.1147 -0.1204 -0.2992
 2675TIP3    H1 7989   1.110   2.367   4.484  0.8388  0.7626 -0.1398
 2675TIP3    H2 7990   1.124   2.390   4.335 -0.2892 -0.5471 -0.4788
 2676TIP3   OH2 7991   4.939   0.248   0.575 -0.2624 -0.5604  0.2100
 2676TIP3    H1 7992   4.902   0.336   0.569  0.0582 -0.4255  0.2130
 2676TIP3    H2 7993   5.010   0.256   0.639 -1.4214 -1.2213  1.6417
 2677TIP3   OH2 7994   7.150   1.421   3.932  0.7325 -0.6910 -0.6458
 2677TIP3    H1 7995   7.129   1.430   4.025 -0.0746  1.2032 -0.9604
 2677TIP3    H2 7996   7.165   1.327   3.920 -2.6429 -1.5652  0.7030
 2678TIP3   OH2 7997   7.202   0.568   0.942 -0.5535  0.0654  0.3377
 2678TIP3    H1 7998   7.226   0.543   0.853 -0.0201 -0.6194  0.6577
 2678TIP3    H2 7999   7.161   0.654   0.933  0.7662  0.6570 -0.4257
 2679TIP3   OH2 8000   2.817   6.057   1.379  0.2774  0.1256  0.2584
 2679TIP3    H1 8001   2.879   5.984   1.380 -0.6936 -0.7141  0.5092
 2679TIP3    H2 8002   2.747   6.028   1.321 -0.7373  0.3269  1.3491
 2680TIP3   OH2 8003   0.685   2.263   5.858  0.1693 -0.1072 -0.0948
 2680TIP3    H1 8004   0.641   2.183   5.828 -0.0566  0.6954 -2.0695
 2680TIP3    H2 8005   0.765   2.268   5.806  1.3574 -0.2011  1.6374
 2681TIP3   OH2 8006   1.937   4.355   0.767 -0.2570 -0.3828  0.4542
 2681TIP3    H1 8007   2.000   4.407   0.718 -0.7817  0.6955  0.9023
 2681TIP3    H2 8008   1.929   4.274   0.717  2.0503 -0.8869  0.7759
 2682TIP3   OH2 8009   4.367   3.198   0.119  0.1338  0.6088 -0.2738
 2682TIP3    H1 8010   4.281   3.227   0.089 -0.7747  0.4373  1.9744
 2682TIP3    H2 8011   4.349   3.143   0.195  2.2466  0.7865  0.4293
 2683TIP3   OH2 8012   4.240   3.211   2.325  0.3610 -0.1270 -0.6875
 2683TIP3    H1 8013   4.153   3.178   2.348  0.0470  1.8089  1.2925
 2683TIP3    H2 8014   4.296   3.183   2.398  1.1578 -0.3624 -1.3739
 2684TIP3   OH2 8015   5.996   5.834   3.656  0.3068  0.4202 -0.1187
 2684TIP3    H1 8016   6.015   5.918   3.697 -0.5276  0.8808 -0.6482
 2684TIP3    H2 8017   6.082   5.793   3.643  0.6807  0.9608  0.6135
 2685TIP3   OH2 8018   2.763   1.217   1.729  0.2301  0.6507 -0.2300
 2685TIP3    H1 8019   2.685   1.226   1.675 -0.5320 -0.4406  0.6249
 2685TIP3    H2 8020   2.830   1.183   1.670  0.1651  1.8757 -1.0411
 2686TIP3   OH2 8021   5.512   3.103   1.035  0.4751  0.3754  0.4022
 2686TIP3    H1 8022   5.507   3.177   0.973 -1.8839  0.6060  0.7825
 2686TIP3    H2 8023   5.526   3.145   1.120 -0.8029  0.4246  0.6093
 2687TIP3   OH2 8024   1.471   3.433   2.809 -0.0792  0.2426  0.0057
 2687TIP3    H1 8025   1.544   3.485   2.844  0.4085 -0.9412  0.8417
 2687TIP3    H2 8026   1.513   3.356   2.772 -0.8162  0.2841 -0.9485
 2688TIP3   OH2 8027   5.257   6.528   0.157  0.1796  0.5890  0.2127
 2688TIP3    H1 8028   5.285   6.618   0.177 -0.7597  1.0050 -0.2463
 2688TIP3    H2 8029   5.238   6.489   0.242  1.2042  0.6121  0.4580
 2689TIP3   OH2 8030   5.748   2.925   0.226  0.0432 -0.7667  0.0865
 2689TIP3    H1 8031   5.813   2.970   0.173 -1.1995  2.1031  0.8091
 2689TIP3    H2 8032   5.794   2.898   0.305  1.0337 -1.7420 -0.7894
 2690TIP3   OH2 8033   6.450   0.581   2.777 -0.4629  0.0475  0.0880
 2690TIP3    H1 8034   6.459   0.630   2.696  0.0875 -0.7534 -0.3471
 2690TIP3    H2 8035   6.357   0.588   2.799 -0.5167  0.6889 -0.3396
 2691TIP3   OH2 8036   4.441   4.078   2.021  0.0183 -0.2738 -0.0715
 2691TIP3    H1 8037   4.475   4.066   2.110  1.0193 -1.5262 -0.5977
 2691TIP3    H2 8038   4.346   4.081   2.032  0.1310 -0.1901  1.0569
 2692TIP3   OH2 8039   2.654   1.265   5.486 -0.3668  0.0238  0.7768
 2692TIP3    H1 8040   2.728   1.267   5.547 -0.2281 -0.3756  0.6249
 2692TIP3    H2 8041   2.609   1.348   5.501  0.5291  0.5957  0.3566
 2693TIP3   OH2 8042   3.992   2.854   1.482 -0.4195 -0.2378  0.4741
 2693TIP3    H1 8043   4.027   2.931   1.526 -0.9907  0.5661 -0.4386
 2693TIP3    H2 8044   3.956   2.887   1.399 -3.1703 -1.0165  1.2538
 2694TIP3   OH2 8045   1.751   5.267   0.044  0.4578 -0.4292 -0.0889
 2694TIP3    H1 8046   1.779   5.351   0.007  0.4438  0.2198  1.3216
 2694TIP3    H2 8047   1.772   5.203  -0.024  2.2793  0.4581 -0.4328
 2695TIP3   OH2 8048   6.524   3.719   5.586  0.2370  0.3837 -0.8092
 2695TIP3    H1 8049   6.455   3.653   5.596  1.8042 -1.1189  0.7759
 2695TIP3    H2 8050   6.500   3.766   5.506 -2.3417 -0.3673 -0.5885
 2696TIP3   OH2 8051   2.333   4.425   1.584  0.2554  0.0096 -0.3042
 2696TIP3    H1 8052   2.376   4.434   1.669  0.7580 -2.7193 -0.1550
 2696TIP3    H2 8053   2.239   4.430   1.604  0.3851  1.4533  0.0522
 2697TIP3   OH2 8054   6.715   2.904   4.412  0.3641  0.1540  0.0039
 2697TIP3    H1 8055   6.792   2.955   4.435  0.6545  1.1209 -2.6985
 2697TIP3    H2 8056   6.660   2.966   4.362 -0.6355 -1.3656 -0.8589
 2698TIP3   OH2 8057   5.970   5.637   2.579 -0.1486 -0.0032 -0.1448
 2698TIP3    H1 8058   6.047   5.602   2.534  0.3296 -0.4005  0.9424
 2698TIP3    H2 8059   5.904   5.568   2.570 -0.5808  0.5475 -1.5189
 2699TIP3   OH2 8060   0.297   6.563   1.555 -0.7860  0.5830 -0.3504
 2699TIP3    H1 8061   0.232   6.632   1.541  0.4238  1.7912 -0.2451
 2699TIP3    H2 8062   0.369   6.608   1.599  1.7680  0.2053 -3.7770
 2700TIP3   OH2 8063   1.040   0.761   1.600 -0.3314  0.0990 -0.3456
 2700TIP3    H1 8064   1.094   0.840   1.592  1.6690 -1.0966  0.5544
 2700TIP3    H2 8065   0.971   0.772   1.534  0.2191  2.3068 -0.6310
 2701TIP3   OH2 8066   3.652   4.629   5.482 -0.0217 -0.3337  0.3913
 2701TIP3    H1 8067   3.685   4.702   5.431 -0.3975  0.0408  0.6679
 2701TIP3    H2 8068   3.718   4.561   5.474  0.0560 -0.1732 -0.3454
 2702TIP3   OH2 8069   0.812   5.777   0.975 -0.2807 -0.0899  0.4431
 2702TIP3    H1 8070   0.896   5.731   0.972 -0.8771 -1.2801  1.2798
 2702TIP3    H2 8071   0.771   5.746   1.055 -2.4444 -1.1925 -0.9981
 2703TIP3   OH2 8072   3.479   0.066   2.248 -0.3853 -1.0987  0.1201
 2703TIP3    H1 8073   3.553   0.118   2.217 -0.1633 -2.3298 -1.5660
 2703TIP3    H2 8074   3.518   0.005   2.310 -0.2192 -0.8956  0.2189
 2704TIP3   OH2 8075   6.227   3.714   3.621 -0.1188 -0.5729 -0.7662
 2704TIP3    H1 8076   6.179   3.684   3.698 -1.8414 -0.8329 -1.8825
 2704TIP3    H2 8077   6.277   3.790   3.652 -1.7540  0.1090  0.3458
 2705TIP3   OH2 8078   3.364   4.070   5.268  0.3039 -0.3105 -0.0639
 2705TIP3    H1 8079   3.458   4.070   5.289  0.4905 -1.0674 -0.8618
 2705TIP3    H2 8080   3.361   4.093   5.175 -0.4092  1.2758  0.3050
 2706TIP3   OH2 8081   3.574   0.952   2.252 -0.1136 -0.2637  0.4141
 2706TIP3    H1 8082   3.634   0.893   2.207 -2.5706 -1.7660 -1.1449
 2706TIP3    H2 8083   3.542   0.901   2.327  1.8455  1.2221  2.4163
 2707TIP3   OH2 8084   4.687   1.631   4.710 -0.3182  1.0129  0.2050
 2707TIP3    H1 8085   4.737   1.614   4.790  1.2295  2.4850 -0.3925
 2707TIP3    H2 8086   4.720   1.567   4.647 -2.5565 -1.1359  1.0354
 2708TIP3   OH2 8087   6.547   5.713   0.867 -0.4175 -0.2321 -0.2721
 2708TIP3    H1 8088   6.584   5.765   0.938  0.8957 -0.0192 -1.0689
 2708TIP3    H2 8089   6.578   5.624   0.883  1.3209  0.1097 -1.4487
 2709TIP3   OH2 8090   5.607   3.251   0.631  0.4618  0.1618  0.0254
 2709TIP3    H1 8091   5.566   3.271   0.715 -0.3135 -0.8474 -0.0889
 2709TIP3    H2 8092   5.623   3.156   0.634 -0.6360 -0.1150 -1.3781
 2710TIP3   OH2 8093   1.403   4.697   3.496 -0.5452 -0.3441  0.2995
 2710TIP3    H1 8094   1.480   4.688   3.440 -0.2950 -2.7030  0.8874
 2710TIP3    H2 8095   1.330   4.708   3.436  0.0737  0.5805 -0.3157
 2711TIP3   OH2 8096   4.079   3.776   1.633  0.0841 -0.0270  0.0696
 2711TIP3    H1 8097   4.134   3.698   1.640  0.4989  0.2081 -0.5004
 2711TIP3    H2 8098   4.036   3.769   1.548  1.9033  1.4702 -1.0687
 2712TIP3   OH2 8099   4.008   1.793   5.272  0.3315  0.5688 -0.0519
 2712TIP3    H1 8100   3.967   1.842   5.343 -0.2432 -0.9827  0.7243
 2712TIP3    H2 8101   3.985   1.702   5.288  1.8371 -0.0550 -1.1280
 2713TIP3   OH2 8102   1.154   4.821   0.267  0.4954  0.8169 -0.7042
 2713TIP3    H1 8103   1.148   4.893   0.205  0.2120  1.3809 -0.0356
 2713TIP3    H2 8104   1.237   4.834   0.312  0.3452  0.8575 -0.4321
 2714TIP3   OH2 8105   6.956   2.725   5.154  0.2501 -0.0729  0.0850
 2714TIP3    H1 8106   6.928   2.645   5.109 -0.2706  0.5600 -0.7413
 2714TIP3    H2 8107   6.981   2.785   5.084  0.8794  0.4117  0.7033
 2715TIP3   OH2 8108   2.185   1.522   1.497  0.1282  0.4084 -0.3067
 2715TIP3    H1 8109   2.093   1.499   1.491  0.3589 -1.1146  1.1130
 2715TIP3    H2 8110   2.225   1.487   1.417 -0.6313  1.9056 -1.3891
 2716TIP3   OH2 8111   2.756   4.421   1.287  0.4045  0.5735  0.2371
 2716TIP3    H1 8112   2.774   4.408   1.194 -0.3084 -1.1178  0.2900
 2716TIP3    H2 8113   2.681   4.480   1.289  1.0182  1.3723 -0.2236
 2717TIP3   OH2 8114   3.198   3.482   0.481  0.0030 -0.0506  0.6978
 2717TIP3    H1 8115   3.201   3.405   0.424 -0.4130 -0.9360  1.8398
 2717TIP3    H2 8116   3.109   3.483   0.515 -0.4634  1.8276 -0.4473
 2718TIP3   OH2 8117   5.489   2.821   0.477 -0.6723  0.2779 -0.7171
 2718TIP3    H1 8118   5.547   2.751   0.448  0.2298  0.7853 -0.1705
 2718TIP3    H2 8119   5.413   2.776   0.515 -0.3663 -0.3890 -0.8895
 2719TIP3   OH2 8120   5.276   4.022   2.954  0.2775 -0.1310 -0.0200
 2719TIP3    H1 8121   5.280   3.959   2.882 -1.7439 -0.2527 -0.0966
 2719TIP3    H2 8122   5.209   4.085   2.927 -0.5686 -0.2020  1.7509
 2720TIP3   OH2 8123   1.273   5.639   3.081 -0.0452 -0.3623  0.2273
 2720TIP3    H1 8124   1.250   5.690   3.004  0.4754  1.4950  1.2393
 2720TIP3    H2 8125   1.227   5.682   3.153  2.3744  0.3024  1.5090
 2721TIP3   OH2 8126   3.998   4.743   5.525 -0.6380 -0.1167 -0.4553
 2721TIP3    H1 8127   3.959   4.659   5.549 -0.0554 -0.0452  0.8653
 2721TIP3    H2 8128   4.036   4.775   5.607  1.2536  0.3077 -1.4553
 2722TIP3   OH2 8129   5.086   3.521   0.105  0.5351 -0.2026 -0.0790
 2722TIP3    H1 8130   5.149   3.503   0.036  2.0832  0.5920  1.0550
 2722TIP3    H2 8131   5.130   3.584   0.162 -1.2385  0.2661  0.8607
 2723TIP3   OH2 8132   6.262   0.942   3.172  0.0632  0.7939  0.1086
 2723TIP3    H1 8133   6.354   0.966   3.158  0.2418  0.4092  0.6202
 2723TIP3    H2 8134   6.244   0.968   3.262  0.0008 -0.1679  0.3793
 2724TIP3   OH2 8135   2.043   0.411   3.343  0.3955 -0.1915  0.2488
 2724TIP3    H1 8136   2.133   0.437   3.365  0.4212  0.4571 -0.5730
 2724TIP3    H2 8137   2.007   0.488   3.298 -0.5567 -0.4680  0.5308
 2725TIP3   OH2 8138   5.980   2.269   2.064  0.1705  0.4238 -0.3962
 2725TIP3    H1 8139   5.953   2.332   1.996  0.3259  1.1037  0.1630
 2725TIP3    H2 8140   5.901   2.220   2.084 -0.2575  1.2763  0.0390
 2726TIP3   OH2 8141   1.463   2.649   1.418 -0.3789 -0.2032 -0.3225
 2726TIP3    H1 8142   1.390   2.590   1.401 -0.5255 -0.4014  0.9061
 2726TIP3    H2 8143   1.481   2.638   1.512  0.5421  0.6183 -0.3919
 2727TIP3   OH2 8144   1.945   6.759   1.915  0.0907 -0.0801 -0.0148
 2727TIP3    H1 8145   1.944   6.765   1.819 -0.0926 -0.6676 -0.0533
 2727TIP3    H2 8146   1.888   6.685   1.935  0.7055 -0.4304  0.5063
 2728TIP3   OH2 8147   0.972   0.536   3.274 -0.3316 -0.5289  0.0582
 2728TIP3    H1 8148   1.046   0.591   3.299 -1.5082  0.6454  1.1012
 2728TIP3    H2 8149   0.961   0.551   3.180  1.0055 -1.0623 -0.1988
 2729TIP3   OH2 8150   0.635   5.891   0.394 -0.3259 -0.0550 -0.1257
 2729TIP3    H1 8151   0.558   5.866   0.344 -0.1679  0.6581 -0.7324
 2729TIP3    H2 8152   0.601   5.949   0.463 -0.4210 -0.2992  0.0342
 2730TIP3   OH2 8153   4.703   5.808   1.907  0.3524  0.4063  0.5960
 2730TIP3    H1 8154   4.759   5.843   1.977 -0.1604  0.4757  0.9753
 2730TIP3    H2 8155   4.615   5.837   1.930  0.2665  1.0128 -0.4512
 2731TIP3   OH2 8156   5.939   3.789   4.000 -0.5602  0.3439  0.1783
 2731TIP3    H1 8157   5.952   3.781   4.094  0.8738  0.8284  0.0426
 2731TIP3    H2 8158   5.897   3.874   3.988 -0.8242  0.2435  0.3776
 2732TIP3   OH2 8159   3.044   6.297   4.446  0.3015 -0.5472  0.4758
 2732TIP3    H1 8160   3.109   6.293   4.376 -1.1126 -2.0738 -0.8436
 2732TIP3    H2 8161   3.052   6.385   4.482  0.5909  0.5782 -2.1285
 2733TIP3   OH2 8162   6.772   5.011   0.742  0.2472  0.2039  0.3721
 2733TIP3    H1 8163   6.846   4.994   0.683 -0.4261 -0.2144 -0.3729
 2733TIP3    H2 8164   6.801   4.978   0.827 -0.1754 -2.7421 -0.5437
 2734TIP3   OH2 8165   1.044   1.162   5.777  0.7727  0.2319 -0.1258
 2734TIP3    H1 8166   0.967   1.131   5.731  1.5603 -1.3695 -0.4661
 2734TIP3    H2 8167   1.011   1.225   5.841 -0.5517  1.0876 -1.6002
 2735TIP3   OH2 8168   7.155   1.058   2.447 -0.4598  0.4024  0.1917
 2735TIP3    H1 8169   7.249   1.059   2.429 -0.6648  0.4431 -0.9743
 2735TIP3    H2 8170   7.144   1.118   2.520  0.3664  0.7136  0.0757
 2736TIP3   OH2 8171   3.235   3.695   1.221  0.9924 -0.3500 -0.2142
 2736TIP3    H1 8172   3.200   3.661   1.138  0.2103 -0.3771  0.1157
 2736TIP3    H2 8173   3.329   3.682   1.214  1.1119  0.9770 -1.7035
 2737TIP3   OH2 8174   1.804   4.784   3.625  0.4277 -0.7607  0.1024
 2737TIP3    H1 8175   1.868   4.718   3.654 -1.1481 -1.5124  2.0757
 2737TIP3    H2 8176   1.724   4.763   3.674 -0.3859  2.1175  0.1704
 2738TIP3   OH2 8177   2.233   4.829   2.751  0.1368  0.5947  0.1056
 2738TIP3    H1 8178   2.213   4.735   2.749 -0.2664  0.6375  1.2881
 2738TIP3    H2 8179   2.153   4.869   2.785  0.0773  1.4435 -0.9934
 2739TIP3   OH2 8180   2.586   2.026   5.603  0.6317  0.1977 -0.5850
 2739TIP3    H1 8181   2.526   1.961   5.641  0.6879  0.1106 -0.6463
 2739TIP3    H2 8182   2.673   1.990   5.618  0.6616  0.2429 -0.6491
 2740TIP3   OH2 8183   5.511   2.371   3.434 -0.2504  0.4982 -0.5643
 2740TIP3    H1 8184   5.591   2.356   3.485 -1.1524  1.2521  1.1447
 2740TIP3    H2 8185   5.486   2.283   3.405  1.1429  0.2395 -1.0927
 2741TIP3   OH2 8186   5.025   6.123   5.649  0.2420 -0.4521 -0.4043
 2741TIP3    H1 8187   5.115   6.132   5.679  0.0485 -2.7004  1.0788
 2741TIP3    H2 8188   4.998   6.212   5.627  3.0921  0.1840 -1.8272
 2742TIP3   OH2 8189   0.026   4.793   3.860  0.4353 -0.8155  0.1884
 2742TIP3    H1 8190   0.112   4.755   3.876  0.2677 -1.0649  0.5126
 2742TIP3    H2 8191   0.032   4.830   3.772  1.4366  0.7328  0.8627
 2743TIP3   OH2 8192   1.444   5.509   3.646  0.5157 -0.1423  0.0181
 2743TIP3    H1 8193   1.381   5.448   3.608  0.6818 -0.3052  0.0058
 2743TIP3    H2 8194   1.450   5.483   3.738 -2.6884  2.5142  1.1709
 2744TIP3   OH2 8195   3.624   4.772   3.287  0.3798 -0.2651  0.1429
 2744TIP3    H1 8196   3.636   4.840   3.354 -2.0702  1.1807 -0.7533
 2744TIP3    H2 8197   3.541   4.730   3.312  0.7732 -1.4650 -0.5413
 2745TIP3   OH2 8198   6.589   3.802   1.039  0.0470  0.6139 -0.2053
 2745TIP3    H1 8199   6.603   3.742   0.966  0.2467  0.8129 -0.3312
 2745TIP3    H2 8200   6.506   3.845   1.018  0.3550  1.0352 -0.5687
 2746TIP3   OH2 8201   0.215   4.302   5.781 -0.0046  0.0013  0.3525
 2746TIP3    H1 8202   0.132   4.276   5.743  0.0358  0.5082 -0.0994
 2746TIP3    H2 8203   0.221   4.397   5.765  1.4473 -0.3020 -1.2223
 2747TIP3   OH2 8204   3.995   5.501   4.833  0.5913 -0.3915  0.6393
 2747TIP3    H1 8205   4.064   5.451   4.875  1.9458 -0.8527 -1.9186
 2747TIP3    H2 8206   3.965   5.445   4.761 -0.5187  0.9333  0.0195
 2748TIP3   OH2 8207   2.735   0.397   5.489 -0.4374  0.0595  0.4162
 2748TIP3    H1 8208   2.772   0.365   5.571  0.6394  1.4300  0.5064
 2748TIP3    H2 8209   2.644   0.421   5.512 -0.6873 -1.1781  0.7666
 2749TIP3   OH2 8210   0.824   6.836   1.533  0.2854  0.1142  0.1239
 2749TIP3    H1 8211   0.914   6.814   1.555 -0.3586 -2.1346  0.7923
 2749TIP3    H2 8212   0.787   6.754   1.499 -1.9510  0.4901  1.4397
 2750TIP3   OH2 8213   5.035   5.628   2.095  0.1647  0.1578  0.2542
 2750TIP3    H1 8214   4.987   5.675   2.163 -0.5124  1.9488 -1.3665
 2750TIP3    H2 8215   4.975   5.627   2.020  1.6687  0.1261 -0.9875
 2751TIP3   OH2 8216   3.242   4.674   1.664 -0.2194  0.0335 -0.1225
 2751TIP3    H1 8217   3.201   4.735   1.726 -0.3025 -0.4599  0.3136
 2751TIP3    H2 8218   3.179   4.665   1.593 -0.5191 -0.1090  0.1630
 2752TIP3   OH2 8219   5.701   1.746   2.518 -0.1770 -0.4550  0.1325
 2752TIP3    H1 8220   5.636   1.684   2.552 -1.6725  0.9232 -0.1012
 2752TIP3    H2 8221   5.744   1.698   2.447 -1.0404 -1.3559  0.1913
 2753TIP3   OH2 8222   1.019   4.434   4.753 -0.5268 -0.0990 -0.1859
 2753TIP3    H1 8223   1.057   4.516   4.720 -0.1769  0.1271  0.7505
 2753TIP3    H2 8224   0.957   4.463   4.820  0.1813 -0.6299  0.7174
 2754TIP3   OH2 8225   0.905   6.629   1.190 -0.1070  0.2643  0.1514
 2754TIP3    H1 8226   0.930   6.721   1.192  1.0139 -0.0375  0.2379
 2754TIP3    H2 8227   0.854   6.616   1.270 -0.5270  0.8741 -0.0095
 2755TIP3   OH2 8228   7.041   4.472   5.643 -0.5870 -0.4823 -0.1880
 2755TIP3    H1 8229   7.039   4.541   5.709  1.9231 -1.1406  0.6834
 2755TIP3    H2 8230   7.102   4.504   5.577  0.0633 -1.5296 -0.1263
 2756TIP3   OH2 8231   5.373   2.763   5.125 -0.4910  0.5137 -0.2668
 2756TIP3    H1 8232   5.301   2.802   5.174  0.5506  1.2444  0.7490
 2756TIP3    H2 8233   5.439   2.833   5.120  0.2773 -0.2289 -0.8954
 2757TIP3   OH2 8234   0.950   2.014   3.061  0.2235  0.1037 -0.2405
 2757TIP3    H1 8235   1.033   2.043   3.099  0.0861 -0.7371  0.7494
 2757TIP3    H2 8236   0.900   1.982   3.136 -1.6281  2.0167 -0.5546
 2758TIP3   OH2 8237   0.362   1.739   2.319  0.3340  0.1299 -0.1520
 2758TIP3    H1 8238   0.400   1.825   2.336  1.6416 -0.5291  0.4433
 2758TIP3    H2 8239   0.423   1.697   2.258  0.9408 -1.1557  1.2431
 2759TIP3   OH2 8240   6.366   2.987   3.913  0.6361 -0.0292  0.1592
 2759TIP3    H1 8241   6.360   2.895   3.887 -1.2369  0.6981 -2.4060
 2759TIP3    H2 8242   6.315   2.991   3.994  2.1679 -1.4773  1.2758
 2760TIP3   OH2 8243   3.037   4.668   2.894  0.3115 -0.2538 -0.0756
 2760TIP3    H1 8244   3.053   4.655   2.987 -0.4008  0.2824  0.1297
 2760TIP3    H2 8245   2.947   4.699   2.889  0.5465  0.3404 -0.8828
 2761TIP3   OH2 8246   3.200   1.497   1.359 -0.1431 -0.4105 -0.1477
 2761TIP3    H1 8247   3.241   1.462   1.281 -1.7522  1.5054 -1.9969
 2761TIP3    H2 8248   3.108   1.510   1.334 -0.3511  1.8382  1.4451
 2762TIP3   OH2 8249   1.574   0.474   1.155  0.0963 -0.1104  0.3460
 2762TIP3    H1 8250   1.631   0.470   1.078  0.2782 -0.2862  0.4912
 2762TIP3    H2 8251   1.629   0.449   1.228 -0.2799 -0.7327  0.4270
 2763TIP3   OH2 8252   0.257   0.624   1.065 -0.0795  0.3376 -0.6454
 2763TIP3    H1 8253   0.281   0.549   1.119  1.3843  1.8429  0.9053
 2763TIP3    H2 8254   0.168   0.645   1.092  0.2082  0.3406  0.3175
 2764TIP3   OH2 8255   5.687   0.615   3.414  0.0413 -0.1550 -0.4883
 2764TIP3    H1 8256   5.697   0.698   3.460  1.7716 -0.4513 -0.2526
 2764TIP3    H2 8257   5.755   0.617   3.346 -1.2169 -0.5368 -1.8025
 2765TIP3   OH2 8258   2.525   2.108   3.352  0.0157 -0.5264  0.3239
 2765TIP3    H1 8259   2.450   2.091   3.295 -0.7026  2.4738  0.2259
 2765TIP3    H2 8260   2.486   2.132   3.436  0.8942  0.4168  0.4687
 2766TIP3   OH2 8261   0.138   0.711   4.893  0.0404 -0.3536  0.6411
 2766TIP3    H1 8262   0.188   0.680   4.817 -1.2303 -1.4797  0.2259
 2766TIP3    H2 8263   0.137   0.637   4.953  0.6507  0.3816  1.5908
 2767TIP3   OH2 8264   5.597   4.757   1.295 -0.4522 -0.3368 -0.0235
 2767TIP3    H1 8265   5.604   4.852   1.303 -1.1938 -0.2306 -0.5821
 2767TIP3    H2 8266   5.654   4.735   1.221  2.4267 -0.7540  2.1177
 2768TIP3   OH2 8267   1.617   2.069   4.551  0.5181 -0.4426  0.6175
 2768TIP3    H1 8268   1.651   2.118   4.626  0.2497  0.9186 -0.1258
 2768TIP3    H2 8269   1.671   2.096   4.477 -0.3511 -0.4043 -0.0211
 2769TIP3   OH2 8270   0.365   2.431   0.582  0.0208 -0.2084 -0.0996
 2769TIP3    H1 8271   0.390   2.445   0.491  2.0136 -1.0291  0.2659
 2769TIP3    H2 8272   0.408   2.502   0.630  0.4229 -0.7601  0.3743
 2770TIP3   OH2 8273   0.912   6.804   5.457  0.3542 -0.0825  0.1889
 2770TIP3    H1 8274   0.922   6.715   5.425  2.1494 -0.2233  0.9785
 2770TIP3    H2 8275   0.891   6.795   5.550  0.1384  0.3102  0.1820
 2771TIP3   OH2 8276   6.965   5.723   0.722  0.2676 -0.4701 -0.6897
 2771TIP3    H1 8277   6.985   5.817   0.718 -1.8123 -0.0262 -3.8265
 2771TIP3    H2 8278   6.926   5.711   0.809 -1.2965  2.0301 -0.9535
 2772TIP3   OH2 8279   0.940   2.230   1.191  0.9177 -0.7379  0.6743
 2772TIP3    H1 8280   0.965   2.159   1.131  1.4997  0.4851 -0.5941
 2772TIP3    H2 8281   1.011   2.294   1.184  0.3809  0.0124  1.7407
 2773TIP3   OH2 8282   1.414   2.524   5.208  0.2376  0.7641 -0.6049
 2773TIP3    H1 8283   1.452   2.440   5.232 -1.0867  0.1774 -0.4512
 2773TIP3    H2 8284   1.453   2.587   5.268 -0.7917 -0.1921  1.1258
 2774TIP3   OH2 8285   2.592   2.956   5.765  0.4742 -0.2963  0.1117
 2774TIP3    H1 8286   2.557   3.022   5.824 -2.6301 -1.8412  0.2245
 2774TIP3    H2 8287   2.546   2.970   5.683  0.8173 -1.3892 -0.2885
 2775TIP3   OH2 8288   0.422   1.731   0.525 -0.3389  0.4153 -0.4913
 2775TIP3    H1 8289   0.401   1.793   0.455  1.1347  3.0867  1.2442
 2775TIP3    H2 8290   0.389   1.773   0.604 -0.3539 -1.6440  0.6504
 2776TIP3   OH2 8291   0.560   0.106   2.725  0.6592  0.5161 -0.1240
 2776TIP3    H1 8292   0.506   0.068   2.794  1.1383  0.4719  0.2319
 2776TIP3    H2 8293   0.567   0.036   2.659  2.8160 -0.6391  1.2194
 2777TIP3   OH2 8294   1.431   2.978   3.995 -0.3999  0.2008 -0.3087
 2777TIP3    H1 8295   1.521   2.967   4.023 -0.2319  0.9581 -0.5224
 2777TIP3    H2 8296   1.434   2.972   3.899 -0.7795 -1.0902 -0.2546
 2778TIP3   OH2 8297   6.505   2.457   3.096 -0.7665  0.2640 -0.0771
 2778TIP3    H1 8298   6.439   2.401   3.054 -1.4969  0.2770  1.0295
 2778TIP3    H2 8299   6.578   2.397   3.113 -1.0038 -0.0491 -0.1364
 2779TIP3   OH2 8300   4.343   2.665   3.718  0.1972  0.3734 -0.0100
 2779TIP3    H1 8301   4.383   2.666   3.805  0.0226  2.1686  0.0839
 2779TIP3    H2 8302   4.250   2.650   3.735 -0.0919  2.2429  0.2825
 2780TIP3   OH2 8303   6.294   2.168   4.097  0.2675 -0.4336 -0.3477
 2780TIP3    H1 8304   6.382   2.202   4.114  0.0096 -0.2863  0.7707
 2780TIP3    H2 8305   6.262   2.139   4.183 -0.5405 -1.0594 -0.8374
 2781TIP3   OH2 8306   0.746   4.060   1.923 -0.2705 -0.2609 -0.2679
 2781TIP3    H1 8307   0.825   4.007   1.920 -1.4262 -2.0375 -0.6184
 2781TIP3    H2 8308   0.675   4.000   1.903 -1.7719  1.2060  0.3316
 2782TIP3   OH2 8309   1.176   6.672   0.227  0.1855 -0.1273  0.0687
 2782TIP3    H1 8310   1.106   6.644   0.168  0.1970 -0.9512  0.4456
 2782TIP3    H2 8311   1.158   6.629   0.310  0.6311  0.3823  0.4432
 2783TIP3   OH2 8312   5.705   3.002   1.599 -0.3549  0.2875 -0.1082
 2783TIP3    H1 8313   5.634   2.952   1.640 -0.7092  0.9088  0.0589
 2783TIP3    H2 8314   5.677   3.094   1.607  0.0132  0.4792 -0.9085
 2784TIP3   OH2 8315   5.066   0.940   5.520 -0.2927 -0.4045  0.8306
 2784TIP3    H1 8316   5.079   0.911   5.610 -1.0036 -3.8675  0.0004
 2784TIP3    H2 8317   5.116   0.877   5.468 -0.8988  0.7445 -1.2513
 2785TIP3   OH2 8318   6.412   5.147   3.891  0.7417 -0.3328 -0.6573
 2785TIP3    H1 8319   6.507   5.138   3.894  0.7364 -0.6847 -1.4036
 2785TIP3    H2 8320   6.384   5.133   3.982  1.1011 -3.8809 -0.9409
 2786TIP3   OH2 8321   1.831   0.975   3.834 -0.0121 -0.1212 -0.4483
 2786TIP3    H1 8322   1.832   1.056   3.784  1.9183  0.2152  0.0350
 2786TIP3    H2 8323   1.842   0.906   3.769  0.9764  0.2110 -0.6499
 2787TIP3   OH2 8324   2.231   1.385   3.416 -0.0309  0.2710 -0.0338
 2787TIP3    H1 8325   2.228   1.358   3.508  0.0177 -0.9525 -0.3655
 2787TIP3    H2 8326   2.293   1.324   3.375 -0.0739  0.7742 -0.8785
 2788TIP3   OH2 8327   3.304   3.696   0.908 -0.1920  0.8151  0.1981
 2788TIP3    H1 8328   3.212   3.674   0.918  0.1464 -0.1892  1.5216
 2788TIP3    H2 8329   3.326   3.670   0.819 -0.2449 -2.8538  1.1223
 2789TIP3   OH2 8330   1.978   6.735   2.382 -0.3267 -0.3546  0.1864
 2789TIP3    H1 8331   1.987   6.681   2.304 -2.8428 -2.2890  1.0977
 2789TIP3    H2 8332   2.025   6.815   2.361  1.8003 -2.0496 -2.0393
 2790TIP3   OH2 8333   3.053   4.781   2.323 -0.5576  0.5252 -0.2826
 2790TIP3    H1 8334   3.041   4.687   2.317  2.1372  0.1202 -0.1776
 2790TIP3    H2 8335   3.110   4.794   2.399 -1.4645  2.3178  0.1639
 2791TIP3   OH2 8336   1.125   3.590   4.137  0.1838 -0.0672 -0.2554
 2791TIP3    H1 8337   1.043   3.629   4.107 -0.1811 -1.6751 -1.4802
 2791TIP3    H2 8338   1.139   3.628   4.224 -2.1621 -0.1605  0.2378
 2792TIP3   OH2 8339   1.859   5.194   5.854 -0.3474 -0.0570 -0.2836
 2792TIP3    H1 8340   1.933   5.133   5.859 -0.4371 -0.1071  0.4908
 2792TIP3    H2 8341   1.838   5.215   5.945 -0.5882  0.8078 -0.5247
 2793TIP3   OH2 8342   5.098   3.171   1.961  0.2753 -0.2168  0.3612
 2793TIP3    H1 8343   5.189   3.142   1.951  0.7484  1.5801 -1.1140
 2793TIP3    H2 8344   5.096   3.218   2.044  0.1908 -1.8344  1.3248
 2794TIP3   OH2 8345   2.130   4.933   1.126  0.5435 -0.1542 -0.4704
 2794TIP3    H1 8346   2.044   4.961   1.096 -0.1016 -0.5000  0.9344
 2794TIP3    H2 8347   2.120   4.838   1.140  1.0931 -0.1696 -0.1470
 2795TIP3   OH2 8348   0.265   0.715   0.559  0.6003 -0.3683  0.4119
 2795TIP3    H1 8349   0.344   0.753   0.521  0.6599  0.1124  1.0028
 2795TIP3    H2 8350   0.291   0.689   0.647 -0.0509  0.3386  0.8218
 2796TIP3   OH2 8351   6.383   4.568   2.017  0.1178 -0.3315  0.2715
 2796TIP3    H1 8352   6.349   4.481   2.039  0.8106 -0.8199 -0.5276
 2796TIP3    H2 8353   6.318   4.628   2.052 -1.4639 -1.2236 -0.9495
 2797TIP3   OH2 8354   5.775   3.147   3.637 -0.0866  0.6553  0.1955
 2797TIP3    H1 8355   5.699   3.204   3.647 -1.5105 -1.0689 -0.2860
 2797TIP3    H2 8356   5.739   3.063   3.609  1.9627 -0.3960  0.4904
 2798TIP3   OH2 8357   5.236   5.387   1.722  0.2795 -0.1399 -0.3337
 2798TIP3    H1 8358   5.144   5.405   1.741 -0.0255 -1.1009 -0.8348
 2798TIP3    H2 8359   5.274   5.472   1.699 -0.5536  0.2064 -0.4326
 2799TIP3   OH2 8360   5.497   4.509   5.574 -0.3326  0.1967 -0.0223
 2799TIP3    H1 8361   5.516   4.438   5.513  0.3355  0.8871 -0.6414
 2799TIP3    H2 8362   5.457   4.577   5.520 -0.9904  0.2838  0.5689
 2800TIP3   OH2 8363   5.616   1.014   2.772  0.0041 -0.1606 -0.0756
 2800TIP3    H1 8364   5.628   0.937   2.718 -0.3092 -0.1450 -0.1712
 2800TIP3    H2 8365   5.549   1.065   2.727 -0.6962 -0.4372  0.6263
 2801TIP3   OH2 8366   1.154   4.398   0.951 -0.2422  0.3502 -0.3157
 2801TIP3    H1 8367   1.208   4.475   0.971 -0.4660  0.5102 -0.3299
 2801TIP3    H2 8368   1.133   4.407   0.858 -0.2246  0.2422 -0.3305
 2802TIP3   OH2 8369   6.352   4.100   0.226  0.1111  0.5894 -0.0560
 2802TIP3    H1 8370   6.369   4.021   0.175  1.6642  0.8321  0.0248
 2802TIP3    H2 8371   6.421   4.101   0.293 -0.5975  1.3891  0.6946
 2803TIP3   OH2 8372   2.743   1.652   1.589 -1.0364  0.7161 -0.3000
 2803TIP3    H1 8373   2.670   1.623   1.643 -0.8467  0.3164 -0.2594
 2803TIP3    H2 8374   2.717   1.633   1.499 -0.2406 -1.1141 -0.1805
 2804TIP3   OH2 8375   5.612   6.246   1.246 -0.2683 -0.3289 -0.3234
 2804TIP3    H1 8376   5.589   6.302   1.171 -1.6684 -2.5579 -1.6651
 2804TIP3    H2 8377   5.689   6.197   1.216 -0.5486 -0.8952 -0.1204
 2805TIP3   OH2 8378   2.624   2.663   5.645  0.6057  0.7941 -0.1414
 2805TIP3    H1 8379   2.598   2.741   5.694  0.4461  1.7969 -1.7700
 2805TIP3    H2 8380   2.649   2.695   5.558  1.7534 -0.8204 -0.4701
 2806TIP3   OH2 8381   0.677   1.151   1.329  0.7028 -0.2713  0.1978
 2806TIP3    H1 8382   0.609   1.094   1.364  1.7223 -0.2587  2.4152
 2806TIP3    H2 8383   0.752   1.136   1.387  1.9859  1.0938 -1.0197
 2807TIP3   OH2 8384   1.265   6.705   1.454 -0.1785 -0.2325 -0.6500
 2807TIP3    H1 8385   1.286   6.664   1.369 -2.3567  1.6506 -2.2074
 2807TIP3    H2 8386   1.283   6.798   1.441 -0.2572  0.0592  1.0889
 2808TIP3   OH2 8387   6.203   3.730   3.951 -0.0308 -0.0343 -0.3151
 2808TIP3    H1 8388   6.218   3.644   3.912  0.0417 -0.3894  0.4692
 2808TIP3    H2 8389   6.113   3.726   3.984 -0.2012  0.3737 -0.7197
 2809TIP3   OH2 8390   3.852   3.215   4.800  0.4736 -0.3075 -0.4024
 2809TIP3    H1 8391   3.770   3.195   4.756  0.1782  0.4425 -0.1997
 2809TIP3    H2 8392   3.915   3.154   4.762 -0.2608 -1.1689 -0.2673
 2810TIP3   OH2 8393   1.608   0.275   3.658 -0.2806 -0.1143 -0.1099
 2810TIP3    H1 8394   1.618   0.345   3.593  0.0420 -0.2923 -0.2533
 2810TIP3    H2 8395   1.587   0.198   3.606 -0.4213 -0.1697  0.0307
 2811TIP3   OH2 8396  -0.026   5.949   4.595 -0.3820  0.0298 -0.0471
 2811TIP3    H1 8397  -0.030   5.953   4.500  1.0860 -0.0334 -0.1421
 2811TIP3    H2 8398   0.067   5.960   4.615 -0.7725  0.8153  1.4230
 2812TIP3   OH2 8399   1.079   1.887   1.361  0.3316 -0.2445  0.5663
 2812TIP3    H1 8400   1.046   1.862   1.448 -0.0423  0.8784  0.7715
 2812TIP3    H2 8401   1.100   1.804   1.318 -2.8439 -1.0930  0.4001
 2813TIP3   OH2 8402   3.954   3.379   3.621 -0.3435  0.0989  0.0771
 2813TIP3    H1 8403   3.996   3.378   3.708 -1.4693  1.5304  0.6843
 2813TIP3    H2 8404   3.910   3.464   3.617  0.4622  0.4580 -2.3049
 2814TIP3   OH2 8405   0.981   6.412   4.742 -0.1082  0.0666  0.0545
 2814TIP3    H1 8406   0.982   6.485   4.803 -0.6064  0.9150 -0.9248
 2814TIP3    H2 8407   1.068   6.414   4.701  0.0179 -0.1465  0.3035
 2815TIP3   OH2 8408   3.312   2.584   0.075 -0.5914 -0.0892 -0.2413
 2815TIP3    H1 8409   3.224   2.615   0.054 -0.4481  1.3564  1.0841
 2815TIP3    H2 8410   3.306   2.553   0.165  0.5331  1.3213  0.3620
 2816TIP3   OH2 8411   6.717   0.271   1.955 -0.0625 -0.2611 -0.9506
 2816TIP3    H1 8412   6.683   0.219   1.882 -0.5462 -0.8641 -0.2997
 2816TIP3    H2 8413   6.693   0.223   2.033  1.5708 -0.2778 -0.4143
 2817TIP3   OH2 8414   4.390   1.932   1.857 -0.0563 -0.1598  0.2276
 2817TIP3    H1 8415   4.408   1.861   1.919 -0.5683 -1.2157 -0.7716
 2817TIP3    H2 8416   4.327   1.988   1.902  1.1594  0.2785  1.4479
 2818TIP3   OH2 8417   4.098   5.618   1.610 -0.4679 -0.4409 -0.1448
 2818TIP3    H1 8418   4.010   5.653   1.599  0.2570  1.0784 -1.4803
 2818TIP3    H2 8419   4.131   5.607   1.521 -0.0966 -3.2617  0.2239
 2819TIP3   OH2 8420   3.457   1.086   3.508 -0.3391  0.1133 -0.1588
 2819TIP3    H1 8421   3.398   1.043   3.570 -0.9455 -1.0729 -1.4866
 2819TIP3    H2 8422   3.473   1.020   3.441  1.2926  0.9394 -0.6323
 2820TIP3   OH2 8423   0.926   2.666   5.605 -0.1993  0.0073 -0.2713
 2820TIP3    H1 8424   0.844   2.710   5.628 -1.3514 -1.3923 -1.5262
 2820TIP3    H2 8425   0.902   2.604   5.536  1.9449 -0.3711 -0.7630
 2821TIP3   OH2 8426   0.485   4.368   2.967 -0.7038 -0.0601  0.6090
 2821TIP3    H1 8427   0.557   4.304   2.962 -1.0618 -0.4699  0.6344
 2821TIP3    H2 8428   0.454   4.362   3.058  0.5429  1.5819  1.1964
 2822TIP3   OH2 8429   3.529   0.480   4.670 -0.4821 -0.4499 -0.2453
 2822TIP3    H1 8430   3.461   0.418   4.699 -2.2250  0.9090 -1.1781
 2822TIP3    H2 8431   3.571   0.509   4.750 -1.0998 -1.2350  0.3829
 2823TIP3   OH2 8432   2.104   4.440   2.239 -0.3413  0.5491  0.1606
 2823TIP3    H1 8433   2.085   4.348   2.225  0.6663  0.2354  0.7032
 2823TIP3    H2 8434   2.086   4.455   2.332  1.2323  0.4134  0.5202
 2824TIP3   OH2 8435   3.750   2.956   2.634  0.2306 -0.6487 -0.9455
 2824TIP3    H1 8436   3.658   2.971   2.657  0.9135  1.3473  0.9136
 2824TIP3    H2 8437   3.762   2.862   2.645 -1.1899 -0.7180  0.5168
 2825TIP3   OH2 8438   6.332   2.465   2.293 -1.1429 -0.3739  0.0428
 2825TIP3    H1 8439   6.351   2.374   2.317 -0.1703 -0.9483 -2.6373
 2825TIP3    H2 8440   6.415   2.511   2.305 -0.6687 -0.6453 -1.8738
 2826TIP3   OH2 8441   6.024   2.190   1.529 -0.3448 -0.1128  0.6768
 2826TIP3    H1 8442   6.032   2.271   1.578  0.1760  0.1177  0.2231
 2826TIP3    H2 8443   5.967   2.134   1.583 -0.5231  0.4654  1.0931
 2827TIP3   OH2 8444   6.252   2.638   4.668  0.4791 -0.3115  0.5755
 2827TIP3    H1 8445   6.310   2.583   4.616  0.7496  0.0509  0.4844
 2827TIP3    H2 8446   6.177   2.656   4.611  2.0479  2.4180 -0.8178
 2828TIP3   OH2 8447   3.130   5.518   1.514 -0.2162  0.1066  0.0213
 2828TIP3    H1 8448   3.039   5.533   1.487 -0.3328  1.2897  0.9676
 2828TIP3    H2 8449   3.151   5.593   1.570  0.8568 -0.8999  1.0370
 2829TIP3   OH2 8450   3.689   0.682   3.655 -0.2000  0.2500  0.1634
 2829TIP3    H1 8451   3.778   0.688   3.691 -0.4935  1.8469  0.7167
 2829TIP3    H2 8452   3.681   0.759   3.599 -0.7527 -0.6845 -1.0786
 2830TIP3   OH2 8453   3.234   0.796   3.233  0.3371 -0.3186  0.1468
 2830TIP3    H1 8454   3.197   0.708   3.224  1.0145 -0.7578  1.4879
 2830TIP3    H2 8455   3.320   0.782   3.272  1.0083  0.8573 -0.8584
 2831TIP3   OH2 8456   1.162   2.328   3.007  0.7538 -0.7599 -0.6000
 2831TIP3    H1 8457   1.212   2.405   3.035  0.2734  0.5366 -2.9917
 2831TIP3    H2 8458   1.086   2.326   3.066 -0.5006  2.1290 -1.9170
 2832TIP3   OH2 8459   1.433   1.252   4.785  0.1313  0.1580  0.7513
 2832TIP3    H1 8460   1.387   1.330   4.754 -1.0121  0.4405  2.9767
 2832TIP3    H2 8461   1.377   1.217   4.854  1.9373 -1.0883  1.6657
 2833TIP3   OH2 8462   4.118   0.367   1.859 -0.2851 -0.1284  0.2401
 2833TIP3    H1 8463   4.148   0.296   1.802  0.4401  0.3083  0.0691
 2833TIP3    H2 8464   4.172   0.361   1.937 -1.6644 -1.0873  1.1683
 2834TIP3   OH2 8465   5.451   5.562   2.777  0.1996 -0.2897  0.1998
 2834TIP3    H1 8466   5.544   5.580   2.793  0.0484  0.0040  0.7578
 2834TIP3    H2 8467   5.439   5.471   2.803  0.0762  0.0190  1.2429
 2835TIP3   OH2 8468   0.077   4.405   0.785 -0.3367  0.0746 -0.4396
 2835TIP3    H1 8469   0.173   4.401   0.782 -0.2963 -0.4155  0.8885
 2835TIP3    H2 8470   0.056   4.495   0.758  0.4304 -0.0773 -1.6256
 2836TIP3   OH2 8471   0.740   2.243   0.984 -0.8196  0.3613 -0.1230
 2836TIP3    H1 8472   0.781   2.248   1.070 -0.0980 -0.5227 -0.3935
 2836TIP3    H2 8473   0.659   2.196   0.999 -1.1818  1.0779  0.2250
 2837TIP3   OH2 8474   4.343   0.579   4.753  0.1233 -0.0455  0.3780
 2837TIP3    H1 8475   4.334   0.630   4.833 -0.6561  0.5084 -0.0509
 2837TIP3    H2 8476   4.429   0.602   4.719  0.9756 -1.2062  1.6712
 2838TIP3   OH2 8477   5.801   4.058   3.051 -0.5979  0.5431  0.4563
 2838TIP3    H1 8478   5.737   4.096   2.991 -0.3827  1.4733  0.8031
 2838TIP3    H2 8479   5.817   4.126   3.117  0.2996  0.1099  0.7131
 2839TIP3   OH2 8480   4.332   4.260   2.453 -0.7729 -0.0050  0.8576
 2839TIP3    H1 8481   4.394   4.263   2.380  0.8362  0.1212  2.1924
 2839TIP3    H2 8482   4.359   4.331   2.511 -2.5843  0.4740  1.1690
 2840TIP3   OH2 8483   4.697   5.293   3.878 -0.2523 -0.1136  0.0775
 2840TIP3    H1 8484   4.661   5.251   3.800  1.4121 -1.1164 -0.1832
 2840TIP3    H2 8485   4.742   5.223   3.925  1.0424  0.9999  0.5690
 2841TIP3   OH2 8486   4.727   1.697   5.196 -0.5258 -0.1881  0.1248
 2841TIP3    H1 8487   4.706   1.769   5.255 -3.3849 -0.2300 -0.7051
 2841TIP3    H2 8488   4.696   1.618   5.241 -0.4260 -0.5211 -0.3735
 2842TIP3   OH2 8489   0.180   0.295   0.962  0.5746  0.3128  0.1003
 2842TIP3    H1 8490   0.168   0.386   0.991  0.5784  0.6429 -0.9019
 2842TIP3    H2 8491   0.264   0.269   1.000  0.0374  0.3355  1.3415
 2843TIP3   OH2 8492   1.061   4.176   2.719 -0.1590  0.4444  0.9706
 2843TIP3    H1 8493   0.984   4.208   2.765 -0.1973  2.3519 -0.3107
 2843TIP3    H2 8494   1.050   4.209   2.630  0.8237 -1.5489  0.0621
 2844TIP3   OH2 8495   4.625   6.563   1.201  0.4270  0.0884 -0.1703
 2844TIP3    H1 8496   4.610   6.548   1.294 -0.5989 -0.7129 -0.4485
 2844TIP3    H2 8497   4.562   6.631   1.177 -0.4815 -0.8817 -0.6166
 2845TIP3   OH2 8498   7.010   4.144   5.904 -0.3850 -0.0951 -0.2215
 2845TIP3    H1 8499   6.979   4.074   5.847 -0.2460 -0.1574 -0.2189
 2845TIP3    H2 8500   7.076   4.190   5.853 -0.4491  0.0108 -0.2095
 2846TIP3   OH2 8501   1.188   1.348   1.429 -0.0379 -0.3671 -0.8483
 2846TIP3    H1 8502   1.206   1.270   1.378  1.1435  0.3256 -1.5339
 2846TIP3    H2 8503   1.094   1.344   1.448 -0.0226 -1.8544 -0.9963
 2847TIP3   OH2 8504   4.712   2.556   0.778  0.0760 -0.2959  0.0663
 2847TIP3    H1 8505   4.677   2.536   0.692 -0.3177 -0.7940  0.3370
 2847TIP3    H2 8506   4.659   2.630   0.809  0.6080  0.2727 -0.3548
 2848TIP3   OH2 8507   4.709   1.314   1.128  0.2316  0.2295  0.1585
 2848TIP3    H1 8508   4.727   1.267   1.209 -1.6398  0.0357  0.5032
 2848TIP3    H2 8509   4.637   1.267   1.088  0.4822  0.8944 -1.1531
 2849TIP3   OH2 8510   0.689   3.873   5.097 -0.1563  0.5830 -0.1254
 2849TIP3    H1 8511   0.616   3.817   5.071 -1.1224  1.2631  1.0717
 2849TIP3    H2 8512   0.697   3.860   5.192  1.0341  0.8083 -0.1787
 2850TIP3   OH2 8513   1.096   0.095   2.994  0.3258 -0.4122 -0.0332
 2850TIP3    H1 8514   1.095   0.165   3.060 -2.1486 -1.7946  1.5358
 2850TIP3    H2 8515   1.114   0.015   3.043 -1.9068 -1.5407 -0.8929
 2851TIP3   OH2 8516   6.128   0.681   5.459  0.4346  0.0957 -0.2300
 2851TIP3    H1 8517   6.103   0.651   5.546 -0.7050 -0.6126 -0.7670
 2851TIP3    H2 8518   6.047   0.673   5.407  1.1047  0.4235 -1.3624
 2852TIP3   OH2 8519   6.462   0.362   2.557 -0.0714  0.1093 -0.0605
 2852TIP3    H1 8520   6.457   0.444   2.508  0.6497  1.3139  1.7806
 2852TIP3    H2 8521   6.392   0.368   2.622  0.3570 -0.4636  0.4724
 2853TIP3   OH2 8522   0.465   3.521   2.891  0.5512  0.7645  0.0914
 2853TIP3    H1 8523   0.554   3.551   2.907  1.1933 -1.6632  1.5685
 2853TIP3    H2 8524   0.433   3.494   2.977 -0.8351 -0.4427 -0.7496
 2854TIP3   OH2 8525   1.698   4.265   5.062 -0.0140  0.4287  0.2500
 2854TIP3    H1 8526   1.793   4.259   5.074  0.2269  1.6283 -0.8238
 2854TIP3    H2 8527   1.682   4.357   5.041 -1.2685  0.0294 -0.7110
 2855TIP3   OH2 8528   1.816   2.752   5.397  0.1668 -0.9124 -0.0675
 2855TIP3    H1 8529   1.900   2.797   5.388 -0.2991 -0.1425 -0.7439
 2855TIP3    H2 8530   1.767   2.805   5.460 -0.6718  0.0043 -1.4450
 2856TIP3   OH2 8531   5.973   5.344   4.875  1.0231  0.6059 -0.5108
 2856TIP3    H1 8532   5.924   5.416   4.914 -0.0632 -0.3728 -0.0091
 2856TIP3    H2 8533   5.908   5.293   4.827  1.9741  0.5739 -1.8280
 2857TIP3   OH2 8534   6.812   1.293   5.361 -0.4796  0.0028 -0.1119
 2857TIP3    H1 8535   6.884   1.259   5.415  0.1885  0.1278 -0.9002
 2857TIP3    H2 8536   6.834   1.265   5.272 -1.9121 -0.7845 -0.2409
 2858TIP3   OH2 8537   0.272   2.932   3.383  0.2221  0.4103  0.1129
 2858TIP3    H1 8538   0.261   2.923   3.289  2.0975  0.0186 -0.1014
 2858TIP3    H2 8539   0.201   2.880   3.421 -1.0097  1.1950 -1.0561
 2859TIP3   OH2 8540   2.960   1.767   0.048  0.0336  0.2456 -0.1453
 2859TIP3    H1 8541   3.018   1.775   0.124  0.2447 -1.5967 -0.0723
 2859TIP3    H2 8542   2.875   1.743   0.085  0.1808 -0.8356 -0.4734
 2860TIP3   OH2 8543   5.353   3.677   4.014  0.0117  0.2656 -0.2222
 2860TIP3    H1 8544   5.361   3.595   3.964  0.3519 -1.3549  2.3102
 2860TIP3    H2 8545   5.443   3.707   4.025 -0.0214  0.3113 -0.0841
 2861TIP3   OH2 8546   5.367   5.312   5.673  0.4697  0.5065 -0.4525
 2861TIP3    H1 8547   5.362   5.248   5.745  0.2863  0.5616 -0.4155
 2861TIP3    H2 8548   5.334   5.264   5.597  1.3622  0.2138 -0.6647
 2862TIP3   OH2 8549   5.801   2.357   5.731 -0.0478 -0.2248 -0.2364
 2862TIP3    H1 8550   5.816   2.264   5.742 -1.0650 -0.9952 -3.8556
 2862TIP3    H2 8551   5.719   2.375   5.777 -1.2879 -1.8178 -1.6920
 2863TIP3   OH2 8552   6.234   4.513   1.750 -0.0483  0.2726  0.2178
 2863TIP3    H1 8553   6.241   4.570   1.674  0.6095  0.0057  0.0741
 2863TIP3    H2 8554   6.297   4.550   1.813 -0.4269  0.3605  0.5471
 2864TIP3   OH2 8555   6.577   6.481   4.360 -0.1252  0.1004 -0.2016
 2864TIP3    H1 8556   6.501   6.526   4.324  0.4380  0.4334 -1.0022
 2864TIP3    H2 8557   6.636   6.470   4.286  1.5530  1.7794  0.7911
 2865TIP3   OH2 8558   1.599   3.740   1.725  0.2066 -0.5997  0.0142
 2865TIP3    H1 8559   1.514   3.771   1.692 -0.7640 -1.0471  1.9537
 2865TIP3    H2 8560   1.637   3.815   1.769  0.5263 -0.5764 -0.3011
 2866TIP3   OH2 8561   5.396   5.850   3.663  0.6716 -0.1452 -0.8729
 2866TIP3    H1 8562   5.332   5.912   3.698  1.6057  0.1230  0.4242
 2866TIP3    H2 8563   5.417   5.885   3.576 -0.8639 -0.2043 -1.3020
 2867TIP3   OH2 8564   4.165   6.482   4.794 -0.2561 -0.1149 -0.0073
 2867TIP3    H1 8565   4.157   6.443   4.880  0.0831 -0.2123 -0.0170
 2867TIP3    H2 8566   4.210   6.416   4.741  0.9152  0.5305  0.1509
 2868TIP3   OH2 8567   2.397   4.783   0.218  0.0332 -0.0585 -0.1195
 2868TIP3    H1 8568   2.473   4.734   0.186  0.2834  0.5250 -0.4177
 2868TIP3    H2 8569   2.342   4.716   0.260  0.4679 -0.5639 -0.3432
 2869TIP3   OH2 8570   0.564   4.940   1.463 -0.4796 -0.1920  0.3271
 2869TIP3    H1 8571   0.520   4.933   1.548 -2.3709  1.7531 -0.3954
 2869TIP3    H2 8572   0.638   4.879   1.469 -1.5601 -1.4136  2.7131
 2870TIP3   OH2 8573   7.014   4.788   1.578 -0.0318  0.3427  0.1060
 2870TIP3    H1 8574   7.047   4.784   1.667  1.3762 -0.1384 -0.4172
 2870TIP3    H2 8575   7.086   4.757   1.524 -1.2065 -0.3514 -1.1202
 2871TIP3   OH2 8576   4.541   5.370   2.163 -0.5386  0.2238  0.3487
 2871TIP3    H1 8577   4.631   5.340   2.158 -0.9202 -1.2391  1.5440
 2871TIP3    H2 8578   4.534   5.435   2.094  0.9924 -0.7759 -0.8236
 2872TIP3   OH2 8579   6.290   1.800   2.989  0.4366 -0.4283  0.1287
 2872TIP3    H1 8580   6.206   1.845   2.977 -0.5535 -1.6131  2.0608
 2872TIP3    H2 8581   6.272   1.709   2.969  1.6330 -0.5143 -0.6964
 2873TIP3   OH2 8582   1.076   0.464   1.555 -0.8833  0.1939  0.0803
 2873TIP3    H1 8583   1.074   0.560   1.552 -2.1876  0.1724 -3.1931
 2873TIP3    H2 8584   0.983   0.439   1.559 -0.6491 -0.9093 -0.9531
 2874TIP3   OH2 8585   6.414   6.063   5.078 -0.3315 -0.1479 -0.5179
 2874TIP3    H1 8586   6.468   6.022   5.010 -1.2354 -0.7637 -0.8712
 2874TIP3    H2 8587   6.446   6.024   5.160 -0.3290 -0.6057 -0.7347
 2875TIP3   OH2 8588   1.365   2.343   3.848 -0.7567  0.4694 -0.3597
 2875TIP3    H1 8589   1.300   2.295   3.900  0.0636  0.1785  0.4078
 2875TIP3    H2 8590   1.326   2.347   3.760 -1.8609  0.3930  0.1039
 2876TIP3   OH2 8591   2.872   1.575   5.652  0.4224 -0.2932 -0.1707
 2876TIP3    H1 8592   2.894   1.482   5.642 -0.7102 -0.5419 -0.6305
 2876TIP3    H2 8593   2.910   1.617   5.575  1.3683 -0.2828  0.2950
 2877TIP3   OH2 8594   0.611   3.552   1.591  0.0761  0.2083  0.0390
 2877TIP3    H1 8595   0.705   3.559   1.570  0.7631  0.4556  2.7552
 2877TIP3    H2 8596   0.568   3.608   1.527  2.1602  2.7293  0.6776
 2878TIP3   OH2 8597   7.045   3.378   0.066  0.2777 -0.3597 -0.2713
 2878TIP3    H1 8598   7.022   3.364   0.158 -3.4497  0.2148 -0.9509
 2878TIP3    H2 8599   7.060   3.291   0.031  3.3078 -0.5177  1.0797
 2879TIP3   OH2 8600   2.552   0.315   5.171  0.1473 -0.5503 -0.1428
 2879TIP3    H1 8601   2.511   0.232   5.197 -2.0855  0.0696 -1.5145
 2879TIP3    H2 8602   2.547   0.316   5.076  0.1914  1.1594 -0.1511
 2880TIP3   OH2 8603   4.486   3.161   3.060  0.3272 -0.4119 -0.2923
 2880TIP3    H1 8604   4.568   3.124   3.026  0.3644 -0.9611  0.3634
 2880TIP3    H2 8605   4.448   3.207   2.986  0.6018 -1.2404 -0.9667
 2881TIP3   OH2 8606   3.110   0.623   2.097  0.2826  0.0305  0.1797
 2881TIP3    H1 8607   3.035   0.563   2.093  0.2165  0.1747 -1.2823
 2881TIP3    H2 8608   3.099   0.680   2.021 -0.6161  3.1161  2.4118
 2882TIP3   OH2 8609   0.487   4.409   1.023  0.0102  0.3863 -0.2915
 2882TIP3    H1 8610   0.536   4.451   1.094  0.6785 -0.7446 -0.0463
 2882TIP3    H2 8611   0.535   4.328   1.007 -1.1470 -0.2050 -0.8397
 2883TIP3   OH2 8612   6.236   0.126   0.837 -0.1446 -0.4460 -0.5080
 2883TIP3    H1 8613   6.225   0.039   0.877  0.8483  0.2464  1.3911
 2883TIP3    H2 8614   6.175   0.182   0.885  0.2309  0.1825 -0.7522
 2884TIP3   OH2 8615   2.580   5.581   0.594  0.1711 -0.5679 -0.5646
 2884TIP3    H1 8616   2.531   5.570   0.676  2.4525 -0.8163  0.8516
 2884TIP3    H2 8617   2.623   5.666   0.603 -2.6237  1.3534 -3.3425
 2885TIP3   OH2 8618   6.094   3.508   0.064 -0.1049  0.5043  0.4356
 2885TIP3    H1 8619   6.033   3.582   0.062 -1.5211 -0.6360 -0.3583
 2885TIP3    H2 8620   6.065   3.455   0.138 -0.0508 -0.0039  0.1007
 2886TIP3   OH2 8621   5.754   0.539   1.045  0.0036  0.3610  0.3807
 2886TIP3    H1 8622   5.718   0.486   0.973 -1.1833 -0.9191  1.8340
 2886TIP3    H2 8623   5.785   0.474   1.108  0.9643  1.4520  1.0549
 2887TIP3   OH2 8624   2.198   0.919   1.379 -0.0855  0.0630 -0.5224
 2887TIP3    H1 8625   2.131   0.924   1.446 -0.1615  0.9529 -0.6565
 2887TIP3    H2 8626   2.157   0.956   1.301  1.2596  2.7920 -0.0345
 2888TIP3   OH2 8627   4.679   2.815   2.708 -0.0920 -0.0913  0.2937
 2888TIP3    H1 8628   4.659   2.816   2.802 -1.6063  1.4799 -0.0092
 2888TIP3    H2 8629   4.606   2.861   2.667  0.9463 -0.0378 -1.5953
 2889TIP3   OH2 8630   3.301   2.773   4.547  0.8171 -0.3751 -0.0705
 2889TIP3    H1 8631   3.214   2.811   4.535  0.7803 -0.4658 -0.0891
 2889TIP3    H2 8632   3.358   2.826   4.491  0.3791 -1.8343 -1.9785
 2890TIP3   OH2 8633   0.525   6.575   4.156 -0.4907  0.0396 -0.1068
 2890TIP3    H1 8634   0.490   6.537   4.237 -2.1985  0.6677 -0.5069
 2890TIP3    H2 8635   0.489   6.521   4.086 -3.0175  2.2662 -0.6926
 2891TIP3   OH2 8636   5.841   0.151   0.065 -0.0594 -0.3153  0.0771
 2891TIP3    H1 8637   5.911   0.132   0.001 -1.3945 -1.0460 -1.2225
 2891TIP3    H2 8638   5.849   0.245   0.081  1.0936 -0.3471 -0.1840
 2892TIP3   OH2 8639   4.265   1.770   2.166 -0.1285  0.4031 -0.2098
 2892TIP3    H1 8640   4.259   1.847   2.223 -1.7047  0.2983 -0.1981
 2892TIP3    H2 8641   4.354   1.773   2.132  0.5900  0.9451  1.5873
 2893TIP3   OH2 8642   3.966   5.536   3.851  0.0331 -0.0093 -0.1348
 2893TIP3    H1 8643   4.027   5.547   3.923  1.8370  0.4801 -1.6379
 2893TIP3    H2 8644   4.014   5.570   3.774 -1.3569 -1.4780 -1.7412
 2894TIP3   OH2 8645   1.852   3.116   3.493  0.0153 -0.2399 -0.1350
 2894TIP3    H1 8646   1.834   3.173   3.418 -0.2547 -1.0642 -0.7058
 2894TIP3    H2 8647   1.792   3.042   3.482 -0.3239 -0.1715  1.1264
 2895TIP3   OH2 8648   7.025   0.686   4.957  0.3733  0.5844 -0.0774
 2895TIP3    H1 8649   7.056   0.636   4.882 -0.5382 -0.3387  0.1505
 2895TIP3    H2 8650   7.003   0.772   4.921 -1.3416 -0.2584 -1.1627
 2896TIP3   OH2 8651   1.261   1.057   3.996 -0.2546  0.2559 -0.1077
 2896TIP3    H1 8652   1.228   1.144   4.016 -2.5709 -0.7278  0.6394
 2896TIP3    H2 8653   1.244   1.006   4.075 -0.3541 -1.2597 -1.0656
 2897TIP3   OH2 8654   4.035   0.184   2.728  0.1622 -0.1318  0.0731
 2897TIP3    H1 8655   4.011   0.117   2.663 -2.2916  1.3152 -0.6435
 2897TIP3    H2 8656   3.973   0.171   2.800  1.0517  0.0470  0.8854
 2898TIP3   OH2 8657   5.227   1.354   3.655  0.0275 -0.3179  0.1386
 2898TIP3    H1 8658   5.301   1.307   3.694 -0.2174 -1.2871 -0.5020
 2898TIP3    H2 8659   5.164   1.284   3.634  0.4660  0.0402 -2.6645
 2899TIP3   OH2 8660   5.300   1.544   3.357  0.2010  0.4373  0.1169
 2899TIP3    H1 8661   5.331   1.555   3.447  2.3360 -1.6933 -0.2411
 2899TIP3    H2 8662   5.292   1.633   3.323  1.6078  1.2432  1.7222
 2900TIP3   OH2 8663   2.697   1.329   3.444  0.2259 -0.4154  0.0969
 2900TIP3    H1 8664   2.688   1.319   3.349 -0.1678 -2.0206  0.2829
 2900TIP3    H2 8665   2.791   1.325   3.459  0.2942 -0.1273 -0.2188
 2901TIP3   OH2 8666   6.322   0.432   1.730  0.3663 -0.0239  0.3105
 2901TIP3    H1 8667   6.401   0.382   1.710 -0.3277 -0.5183 -1.4008
 2901TIP3    H2 8668   6.304   0.481   1.649 -1.3250 -0.2721  0.5024
 2902TIP3   OH2 8669   2.762   5.259   1.903 -0.2131 -1.0295 -0.5727
 2902TIP3    H1 8670   2.857   5.249   1.899  0.0789  1.1576 -0.3155
 2902TIP3    H2 8671   2.744   5.340   1.856 -2.1393 -2.0836 -1.8090
 2903TIP3   OH2 8672   6.569   2.698   5.680  0.3010  0.0623  0.2620
 2903TIP3    H1 8673   6.577   2.787   5.714  1.2966  0.1725 -0.2280
 2903TIP3    H2 8674   6.649   2.684   5.630 -0.8426 -0.2778 -1.5853
 2904TIP3   OH2 8675   4.402   2.456   1.300 -0.4179 -0.2971  0.2428
 2904TIP3    H1 8676   4.360   2.485   1.380  0.0059  1.2300 -0.0608
 2904TIP3    H2 8677   4.495   2.475   1.314 -0.5191  1.4592 -1.1872
 2905TIP3   OH2 8678   6.691   1.148   0.327  0.3154  0.1140  0.8514
 2905TIP3    H1 8679   6.636   1.216   0.366 -0.3677 -0.3845  0.7641
 2905TIP3    H2 8680   6.762   1.136   0.390 -0.7188 -0.6183  1.9176
 2906TIP3   OH2 8681   1.271   1.794   3.387  0.1038 -0.1980 -0.4447
 2906TIP3    H1 8682   1.224   1.712   3.404 -0.6025  0.1378 -0.7808
 2906TIP3    H2 8683   1.250   1.850   3.462  2.4145 -1.0974  0.9788
 2907TIP3   OH2 8684   4.327   2.566   5.568 -0.1141  0.5021 -0.2359
 2907TIP3    H1 8685   4.408   2.561   5.619  0.2400 -1.7964 -0.8869
 2907TIP3    H2 8686   4.274   2.493   5.600 -1.9095  1.8820  0.0727
 2908TIP3   OH2 8687   1.359   5.929   1.152  0.6802  0.0887  0.1237
 2908TIP3    H1 8688   1.310   5.999   1.108  0.1933  0.4517  1.1973
 2908TIP3    H2 8689   1.293   5.885   1.206  1.5236  0.5744  1.5959
 2909TIP3   OH2 8690   4.144   4.268   5.222 -0.0595  0.2550 -0.6811
 2909TIP3    H1 8691   4.237   4.255   5.203  0.1374 -0.6642  0.8208
 2909TIP3    H2 8692   4.129   4.360   5.201  0.7162 -0.0199 -2.7422
 2910TIP3   OH2 8693   4.755   2.434   0.367 -0.1532 -0.5533 -0.3022
 2910TIP3    H1 8694   4.778   2.518   0.327 -0.5934 -0.2609  0.0617
 2910TIP3    H2 8695   4.689   2.455   0.433  3.1872 -0.4578  3.3486
 2911TIP3   OH2 8696   2.788   4.344   4.227  0.8637  0.1699 -0.1258
 2911TIP3    H1 8697   2.740   4.277   4.178  0.0828  1.3883 -1.0976
 2911TIP3    H2 8698   2.734   4.361   4.304  0.8519 -0.0126 -0.0929
 2912TIP3   OH2 8699   4.633   2.608   2.544 -0.2177  0.8039 -0.2140
 2912TIP3    H1 8700   4.664   2.660   2.618  0.5679 -1.8201  1.4526
 2912TIP3    H2 8701   4.709   2.602   2.486  0.9583 -1.3550  1.3749
 2913TIP3   OH2 8702   4.938   3.881   0.062  0.4177 -0.2466 -0.1829
 2913TIP3    H1 8703   4.887   3.833  -0.004  0.2115  1.0409 -0.9867
 2913TIP3    H2 8704   4.986   3.813   0.108 -0.6857 -1.3373 -0.5711
 2914TIP3   OH2 8705   3.729   0.780   0.618 -0.1838  0.1146  0.8399
 2914TIP3    H1 8706   3.816   0.779   0.577  0.4094  0.5369  2.0309
 2914TIP3    H2 8707   3.687   0.858   0.581 -1.0854 -1.4714 -1.6966
 2915TIP3   OH2 8708   7.050   1.297   3.326  0.4792  0.1254 -0.3889
 2915TIP3    H1 8709   7.024   1.354   3.399  0.6068 -1.1150  0.6591
 2915TIP3    H2 8710   6.992   1.322   3.255 -2.9155 -1.7180  1.4931
 2916TIP3   OH2 8711   0.772   6.756   0.589 -0.0545 -0.6670  0.0655
 2916TIP3    H1 8712   0.774   6.842   0.631  2.0690 -0.6011 -0.0789
 2916TIP3    H2 8713   0.693   6.714   0.624 -0.0853  0.6012  1.6324
 2917TIP3   OH2 8714   1.856   1.492   2.241 -0.1446  0.1364  0.0407
 2917TIP3    H1 8715   1.940   1.536   2.234 -0.4350  0.7723  0.4757
 2917TIP3    H2 8716   1.843   1.450   2.156  0.2234  0.7425 -0.3175
 2918TIP3   OH2 8717   3.617   4.533   2.573  0.4482  0.1201  0.2627
 2918TIP3    H1 8718   3.627   4.595   2.501 -0.8826 -0.0436 -0.0837
 2918TIP3    H2 8719   3.580   4.455   2.533 -1.6967  0.5321  1.3144
 2919TIP3   OH2 8720   5.820   3.862   3.670  0.0451  0.4273  0.5449
 2919TIP3    H1 8721   5.787   3.923   3.604  0.8863  1.0043  0.6372
 2919TIP3    H2 8722   5.752   3.861   3.737 -1.0317 -0.5110 -0.5211
 2920TIP3   OH2 8723   5.505   4.827   2.594  0.6706 -0.1584  0.1471
 2920TIP3    H1 8724   5.542   4.766   2.658 -0.7057 -0.3062  0.8571
 2920TIP3    H2 8725   5.475   4.771   2.522  0.9697 -0.1348  0.0029
 2921TIP3   OH2 8726   5.416   2.151   3.097 -0.2514  0.9446  0.6106
 2921TIP3    H1 8727   5.470   2.228   3.081 -0.1073  0.6795 -0.2158
 2921TIP3    H2 8728   5.455   2.111   3.175  0.5329  0.9535  0.2388
 2922TIP3   OH2 8729   1.063   5.964   5.469  0.7993 -0.4760  0.0203
 2922TIP3    H1 8730   1.104   6.049   5.455 -1.2239  0.5617  0.1337
 2922TIP3    H2 8731   1.034   5.936   5.382 -0.7660  0.1767  0.2934
 2923TIP3   OH2 8732   5.829   5.516   3.641 -0.0956 -0.2107 -0.0226
 2923TIP3    H1 8733   5.766   5.587   3.631  1.1232  0.7346 -1.5689
 2923TIP3    H2 8734   5.868   5.530   3.727 -1.0572 -0.0575  0.4056
 2924TIP3   OH2 8735   2.089   5.933   3.656  0.0235 -0.0201 -0.2363
 2924TIP3    H1 8736   2.184   5.928   3.659 -0.0643 -2.8289  1.3694
 2924TIP3    H2 8737   2.062   5.856   3.606 -1.4312  0.2506  0.0679
 2925TIP3   OH2 8738   4.566   3.009   3.537 -0.2283  0.4710 -0.7012
 2925TIP3    H1 8739   4.530   3.056   3.462 -0.1579 -0.1438 -1.1335
 2925TIP3    H2 8740   4.554   2.916   3.515  0.7562  0.2675 -0.4311
 2926TIP3   OH2 8741   5.782   4.366   2.141 -1.1126 -0.6878  0.0263
 2926TIP3    H1 8742   5.821   4.288   2.101 -0.4181 -0.9441  1.1708
 2926TIP3    H2 8743   5.691   4.342   2.158 -0.7534 -1.4871  0.9238
 2927TIP3   OH2 8744   1.921   3.707   0.604 -0.2707 -0.0847  0.2175
 2927TIP3    H1 8745   1.967   3.742   0.680 -3.2762 -0.0963  2.2112
 2927TIP3    H2 8746   1.928   3.612   0.614  1.6219 -0.1248 -1.0979
 2928TIP3   OH2 8747   2.036   5.124   3.729 -0.2752  0.2158  0.3177
 2928TIP3    H1 8748   2.107   5.083   3.680  1.1486  2.7752  0.0747
 2928TIP3    H2 8749   1.958   5.106   3.677  0.1826 -2.3886  0.4185
 2929TIP3   OH2 8750   3.788   0.557   1.830  0.5328 -0.2569  0.3836
 2929TIP3    H1 8751   3.842   0.542   1.908  0.1171  2.1709  1.2500
 2929TIP3    H2 8752   3.718   0.615   1.861 -0.0387  0.2111 -1.6449
 2930TIP3   OH2 8753   0.138   3.114   3.735  0.5076 -0.2573  0.2346
 2930TIP3    H1 8754   0.108   3.190   3.684  0.5006 -3.0523 -4.5012
 2930TIP3    H2 8755   0.058   3.071   3.764  0.4723  0.1868  0.8377
 2931TIP3   OH2 8756   0.386   5.691   5.038 -0.1201  0.6118  0.5348
 2931TIP3    H1 8757   0.302   5.656   5.009  0.1893 -0.5184  0.9521
 2931TIP3    H2 8758   0.448   5.621   5.021  0.8934  1.7013 -0.4572
 2932TIP3   OH2 8759   6.282   5.782   2.268 -0.0357 -0.2046 -0.0087
 2932TIP3    H1 8760   6.200   5.737   2.287 -0.6322 -0.1593 -2.1994
 2932TIP3    H2 8761   6.264   5.834   2.190  2.2878 -0.9063 -1.1262
 2933TIP3   OH2 8762   5.344   5.396   5.135  0.0741 -0.5785 -0.0103
 2933TIP3    H1 8763   5.325   5.409   5.042 -0.6939 -0.9648  0.0858
 2933TIP3    H2 8764   5.258   5.388   5.176  0.3780  0.5101  0.8764
 2934TIP3   OH2 8765   1.341   5.839   3.736  0.0969 -1.0213 -0.1560
 2934TIP3    H1 8766   1.324   5.920   3.688 -0.4659  0.0386  1.7594
 2934TIP3    H2 8767   1.286   5.774   3.691 -2.2858  0.4379  0.4225
 2935TIP3   OH2 8768   6.380   5.385   4.276 -0.4092  0.3183 -0.3302
 2935TIP3    H1 8769   6.383   5.456   4.341 -1.1331  1.4343 -1.4481
 2935TIP3    H2 8770   6.292   5.392   4.238 -0.2729 -0.8053 -0.8822
 2936TIP3   OH2 8771   0.375   4.500   2.103 -0.0873 -0.2292  0.1550
 2936TIP3    H1 8772   0.351   4.494   2.011  0.2000  1.0063 -0.0229
 2936TIP3    H2 8773   0.305   4.553   2.142 -1.3301 -2.4247  1.1102
 2937TIP3   OH2 8774   2.271   1.127   4.186 -0.3382 -0.4272  0.5270
 2937TIP3    H1 8775   2.230   1.170   4.261  0.0740  1.5437 -0.3251
 2937TIP3    H2 8776   2.240   1.175   4.110  1.4512 -0.5537 -0.3432
 2938TIP3   OH2 8777   6.149   4.091   3.883  0.2466  0.1833  0.0989
 2938TIP3    H1 8778   6.156   4.028   3.955  2.5172 -0.3035 -0.4528
 2938TIP3    H2 8779   6.188   4.045   3.808  0.3317  1.6066 -0.7574
 2939TIP3   OH2 8780   5.316   2.079   1.284  0.6165 -0.0670  0.0232
 2939TIP3    H1 8781   5.391   2.038   1.240 -0.0928 -0.8843 -0.4559
 2939TIP3    H2 8782   5.327   2.172   1.267  0.2718 -0.3484 -2.0977
 2940TIP3   OH2 8783   4.435   1.074   3.262 -0.1653 -0.4768 -0.0717
 2940TIP3    H1 8784   4.392   1.046   3.182  1.8737  1.0121 -1.7791
 2940TIP3    H2 8785   4.461   0.992   3.305 -0.6717 -1.2770 -1.2542
 2941TIP3   OH2 8786   3.688   1.296   0.382 -0.4709  0.7173 -0.2366
 2941TIP3    H1 8787   3.755   1.243   0.426 -0.5737  1.2809  0.6153
 2941TIP3    H2 8788   3.703   1.385   0.414 -0.7379  1.0880 -1.1288
 2942TIP3   OH2 8789   6.160   5.120   3.349 -0.1709 -0.2594 -0.5771
 2942TIP3    H1 8790   6.162   5.059   3.276 -1.3286  0.6142 -1.3766
 2942TIP3    H2 8791   6.204   5.198   3.316  2.7996 -1.1120  0.9625
 2943TIP3   OH2 8792   0.937   3.483   2.492 -0.7578 -0.0970 -0.3618
 2943TIP3    H1 8793   0.883   3.552   2.531  1.6026  0.2419  2.7282
 2943TIP3    H2 8794   1.020   3.527   2.471  1.0994 -1.9485  2.4086
 2944TIP3   OH2 8795   6.132   3.516   5.417  0.7845  0.1513  0.3624
 2944TIP3    H1 8796   6.087   3.521   5.501 -1.2249 -0.2010 -0.6319
 2944TIP3    H2 8797   6.131   3.606   5.383  1.0772  0.1881  0.4465
 2945TIP3   OH2 8798   3.420   3.823   1.619 -0.1464  0.1223  0.3320
 2945TIP3    H1 8799   3.382   3.751   1.568  0.0579  0.8392 -0.8932
 2945TIP3    H2 8800   3.454   3.883   1.552  1.1952  0.5389  1.3592
 2946TIP3   OH2 8801   1.234   1.744   2.725  0.0560 -0.8589  0.0168
 2946TIP3    H1 8802   1.252   1.681   2.794 -0.8720 -1.4234 -0.2372
 2946TIP3    H2 8803   1.271   1.826   2.756  1.7171 -1.6272  0.1369
 2947TIP3   OH2 8804   7.125   3.095   0.019  0.1236 -0.3339 -0.3210
 2947TIP3    H1 8805   7.214   3.099  -0.016  1.1201  0.5642  2.1009
 2947TIP3    H2 8806   7.136   3.062   0.108 -2.0341 -0.5789 -0.0993
 2948TIP3   OH2 8807   2.089   6.515   2.540 -0.3539 -0.0665 -0.6854
 2948TIP3    H1 8808   2.016   6.484   2.487 -0.6684  0.1570 -0.3866
 2948TIP3    H2 8809   2.110   6.601   2.505 -0.6927  0.1678 -0.3292
 2949TIP3   OH2 8810   6.245   1.216   0.312 -0.0799 -0.2394  0.2635
 2949TIP3    H1 8811   6.195   1.156   0.369  0.1682 -0.4391  0.2742
 2949TIP3    H2 8812   6.216   1.194   0.224  0.4019 -0.7568  0.2227
 2950TIP3   OH2 8813   3.536   5.241   2.586  0.4690  0.1584 -0.1103
 2950TIP3    H1 8814   3.620   5.196   2.597  0.2591 -0.2869 -0.2952
 2950TIP3    H2 8815   3.482   5.209   2.658  0.1801 -0.2137 -0.4889
 2951TIP3   OH2 8816   1.843   0.127   0.576 -0.0112  0.0675  0.3160
 2951TIP3    H1 8817   1.760   0.142   0.529  0.2197  0.1477 -0.0677
 2951TIP3    H2 8818   1.903   0.093   0.510  0.0263 -0.7948  0.7776
 2952TIP3   OH2 8819   6.476   6.222   0.324 -0.0922  0.4639 -0.5126
 2952TIP3    H1 8820   6.472   6.151   0.261 -1.3235  0.6369 -0.6425
 2952TIP3    H2 8821   6.517   6.294   0.277 -1.3282  0.7098 -1.2542
 2953TIP3   OH2 8822   2.514   6.253   0.852  0.2013 -0.3438  0.6125
 2953TIP3    H1 8823   2.442   6.313   0.835  1.6889  1.2205 -0.5430
 2953TIP3    H2 8824   2.519   6.199   0.773  0.4607 -0.2526  0.5658
 2954TIP3   OH2 8825   3.709   4.808   1.558  0.0617  0.6552  0.7705
 2954TIP3    H1 8826   3.674   4.892   1.587  0.4242  0.3028  2.3166
 2954TIP3    H2 8827   3.638   4.745   1.573 -0.2010  0.6670 -0.3582
 2955TIP3   OH2 8828   5.993   3.864   1.349  0.3310 -0.6086  0.1846
 2955TIP3    H1 8829   5.901   3.889   1.345  0.7615  0.9233 -2.0029
 2955TIP3    H2 8830   6.001   3.792   1.287  0.8601  0.2814 -0.8031
 2956TIP3   OH2 8831   5.754   4.444   3.016  0.0569 -0.2016 -0.3062
 2956TIP3    H1 8832   5.758   4.464   2.923 -2.0512 -2.3473 -0.9700
 2956TIP3    H2 8833   5.661   4.438   3.035  0.4381  0.3241  2.0027
 2957TIP3   OH2 8834   0.708   2.065   2.920 -0.2077 -0.0675 -0.4154
 2957TIP3    H1 8835   0.696   2.148   2.965  1.4957 -0.4643  0.8491
 2957TIP3    H2 8836   0.785   2.026   2.960  0.7221 -1.0026 -2.8762
 2958TIP3   OH2 8837   6.066   4.719   3.381 -0.8847 -0.4002  0.6422
 2958TIP3    H1 8838   5.985   4.708   3.330 -0.4887  0.1160 -0.1284
 2958TIP3    H2 8839   6.119   4.643   3.359 -0.0231  0.6468 -1.0780
 2959TIP3   OH2 8840   5.810   5.447   5.671 -0.4285 -0.5340  0.0018
 2959TIP3    H1 8841   5.725   5.450   5.715 -0.5170  1.2986 -0.2393
 2959TIP3    H2 8842   5.872   5.423   5.739 -0.8640  0.1149  0.6388
 2960TIP3   OH2 8843   6.182   3.945   5.152 -0.2221  0.0799  0.0670
 2960TIP3    H1 8844   6.254   3.923   5.093  0.1310 -0.1038  0.5583
 2960TIP3    H2 8845   6.224   3.992   5.225 -0.6209  0.1369  0.2627
 2961TIP3   OH2 8846   4.498   3.794   1.925  0.7088  0.1404 -0.2422
 2961TIP3    H1 8847   4.576   3.762   1.879 -0.1286  0.7046 -2.1956
 2961TIP3    H2 8848   4.513   3.888   1.936 -0.2562  0.5756 -2.0493
 2962TIP3   OH2 8849   1.017   2.643   0.248 -0.1922  0.3227 -0.2268
 2962TIP3    H1 8850   1.019   2.696   0.328  0.6668 -1.4715  1.0272
 2962TIP3    H2 8851   1.072   2.691   0.186  0.0201  1.2207  0.6218
 2963TIP3   OH2 8852   3.358   6.738   2.119  0.2232 -0.2195  0.1497
 2963TIP3    H1 8853   3.359   6.826   2.156 -0.4572 -1.2393  2.8687
 2963TIP3    H2 8854   3.300   6.688   2.177 -0.3399 -2.2096 -1.9673
 2964TIP3   OH2 8855   4.121   4.216   1.850 -0.5044  0.3689  0.7572
 2964TIP3    H1 8856   4.150   4.178   1.933 -1.1032 -0.3341  0.6665
 2964TIP3    H2 8857   4.028   4.236   1.864 -0.1896  1.8797  0.8126
 2965TIP3   OH2 8858   4.102   3.458   1.090  0.5639 -0.3159 -0.2872
 2965TIP3    H1 8859   4.035   3.521   1.064  0.6594  0.2600  0.8094
 2965TIP3    H2 8860   4.111   3.400   1.014 -1.8654 -1.0012 -0.1386
 2966TIP3   OH2 8861   5.237   5.033   0.330  0.4277  0.2837 -0.6124
 2966TIP3    H1 8862   5.173   5.029   0.260  1.8935 -0.5174 -1.9799
 2966TIP3    H2 8863   5.296   5.104   0.305  0.5425  0.4855  0.2050
 2967TIP3   OH2 8864   5.116   1.123   0.123 -0.5655 -0.4355  0.4543
 2967TIP3    H1 8865   5.177   1.052   0.100  0.0660  0.1651  0.2247
 2967TIP3    H2 8866   5.075   1.146   0.040  1.8042  1.8186 -0.2395
 2968TIP3   OH2 8867   4.726   0.747   4.173  0.3243 -0.3206 -0.0831
 2968TIP3    H1 8868   4.630   0.740   4.170  0.2383  0.5956  0.0667
 2968TIP3    H2 8869   4.753   0.741   4.081  0.0577  0.1406 -0.1951
 2969TIP3   OH2 8870   1.495   2.564   2.862 -0.8694 -0.2768  0.6418
 2969TIP3    H1 8871   1.457   2.588   2.777 -0.3988  0.5621  0.6588
 2969TIP3    H2 8872   1.562   2.499   2.841 -1.6934 -1.1070  0.5213
 2970TIP3   OH2 8873   3.762   2.972   0.633  0.1331 -0.4448  0.4508
 2970TIP3    H1 8874   3.753   2.877   0.621  1.8307 -0.4121 -1.5585
 2970TIP3    H2 8875   3.752   3.008   0.545  2.1076  0.9876  0.7615
 2971TIP3   OH2 8876   3.560   1.291   3.187 -0.5340  0.0414 -0.4336
 2971TIP3    H1 8877   3.564   1.317   3.279 -0.6825  0.6135 -0.5820
 2971TIP3    H2 8878   3.644   1.250   3.169 -0.9247 -1.0814  0.2496
 2972TIP3   OH2 8879   0.386   2.171   1.010  0.5148  0.3469  0.2112
 2972TIP3    H1 8880   0.319   2.229   1.046 -1.1720 -0.7250 -1.0601
 2972TIP3    H2 8881   0.353   2.145   0.924  1.8150 -1.4644  0.1796
 2973TIP3   OH2 8882   3.299   0.413   0.161 -0.0465 -0.5422 -0.5556
 2973TIP3    H1 8883   3.377   0.435   0.211 -1.0051  1.0774  0.2983
 2973TIP3    H2 8884   3.309   0.462   0.079 -0.3875  0.0832 -0.2318
 2974TIP3   OH2 8885   0.816   4.138   5.112 -0.4663  0.0411 -0.0400
 2974TIP3    H1 8886   0.771   4.056   5.096 -0.4595  0.3471 -1.8787
 2974TIP3    H2 8887   0.794   4.192   5.036 -0.0405  1.5497  0.8660
 2975TIP3   OH2 8888   2.426   5.888   4.792  0.2894  0.7380 -0.4784
 2975TIP3    H1 8889   2.348   5.843   4.821  0.4349  0.6180 -0.2766
 2975TIP3    H2 8890   2.394   5.954   4.730  0.0791  0.3531 -0.7867
 2976TIP3   OH2 8891   2.726   1.407   0.309  0.3445  0.6780  0.4339
 2976TIP3    H1 8892   2.785   1.417   0.383  1.2990  1.0061 -0.3541
 2976TIP3    H2 8893   2.732   1.490   0.261  0.1439  0.2850 -0.2956
 2977TIP3   OH2 8894   4.972   6.657   4.088 -0.1463 -0.4037 -0.4824
 2977TIP3    H1 8895   4.911   6.686   4.021  0.1682  1.2649 -0.0707
 2977TIP3    H2 8896   5.035   6.602   4.041 -1.6001 -1.6843 -0.9971
 2978TIP3   OH2 8897   4.119   0.966   0.320  0.3253 -0.0609  0.2486
 2978TIP3    H1 8898   4.152   0.967   0.230 -1.7545  1.0324 -0.5815
 2978TIP3    H2 8899   4.159   1.042   0.361 -0.8303  1.0772 -0.6472
 2979TIP3   OH2 8900   0.971   2.653   3.518 -0.1985 -0.1372  0.2787
 2979TIP3    H1 8901   0.934   2.727   3.566 -1.1513 -1.2779  1.3735
 2979TIP3    H2 8902   1.040   2.619   3.575 -0.3123 -0.5926  0.1483
 2980TIP3   OH2 8903   5.955   1.317   5.417  0.3486 -0.1501  0.2535
 2980TIP3    H1 8904   5.884   1.381   5.413  0.8905  0.4211 -0.5581
 2980TIP3    H2 8905   5.930   1.257   5.488 -1.5305 -0.6748 -0.7790
 2981TIP3   OH2 8906   4.231   1.755   1.033 -0.0170  0.1112  0.4256
 2981TIP3    H1 8907   4.160   1.804   0.993  0.1016  0.9321  1.1779
 2981TIP3    H2 8908   4.251   1.803   1.113  0.7640 -0.6286  0.6943
 2982TIP3   OH2 8909   6.909   3.053   5.898  0.2024  0.4747  0.7054
 2982TIP3    H1 8910   6.929   3.080   5.808  1.2271  0.9485  1.0628
 2982TIP3    H2 8911   6.979   2.993   5.921 -0.5004 -0.2741  0.9179
 2983TIP3   OH2 8912   6.676   0.659   2.045  0.0922 -0.3733 -0.0453
 2983TIP3    H1 8913   6.641   0.656   1.956  0.7535 -0.1505 -0.3181
 2983TIP3    H2 8914   6.766   0.689   2.034 -0.4715  1.8539  0.8866
 2984TIP3   OH2 8915   4.683   4.524   5.150 -0.5886 -0.3295 -0.4992
 2984TIP3    H1 8916   4.719   4.446   5.107 -0.5699 -0.8079  0.3568
 2984TIP3    H2 8917   4.589   4.507   5.155 -0.3384 -1.3582  1.7101
 2985TIP3   OH2 8918   2.079   6.184   5.524  0.0650 -0.2881 -0.0754
 2985TIP3    H1 8919   2.034   6.103   5.548  2.8308 -1.8123  0.3379
 2985TIP3    H2 8920   2.054   6.246   5.592 -0.4959 -1.4015  0.7695
 2986TIP3   OH2 8921   6.160   6.593   2.771 -0.2474 -0.8650  0.2522
 2986TIP3    H1 8922   6.091   6.574   2.708  0.9075 -0.9998 -1.0290
 2986TIP3    H2 8923   6.239   6.556   2.732  0.8120  0.5030  1.0058
 2987TIP3   OH2 8924   4.098   2.853   0.459  0.0044 -0.1861 -0.4863
 2987TIP3    H1 8925   4.013   2.860   0.416 -0.3298  1.5289  0.3585
 2987TIP3    H2 8926   4.094   2.772   0.509 -1.8020  0.6558  0.8502
 2988TIP3   OH2 8927   3.893   5.147   0.605 -0.2082  0.2641 -0.7228
 2988TIP3    H1 8928   3.846   5.132   0.687 -0.1873  2.4173 -0.2588
 2988TIP3    H2 8929   3.968   5.201   0.630 -0.6575  1.6857 -2.2503
 2989TIP3   OH2 8930   5.592   6.718   5.571  0.2140  0.3176 -0.3948
 2989TIP3    H1 8931   5.623   6.668   5.646  3.6193  3.5111  0.6333
 2989TIP3    H2 8932   5.628   6.672   5.495  0.5074 -0.5129  0.2343
 2990TIP3   OH2 8933   5.523   3.559   3.068  0.6348 -0.2145 -0.9138
 2990TIP3    H1 8934   5.466   3.545   2.992 -1.2379  1.9444 -0.0345
 2990TIP3    H2 8935   5.554   3.649   3.059  1.9754 -0.5623 -0.1006
 2991TIP3   OH2 8936   4.044   3.598   3.043 -0.0389  0.3365  0.3303
 2991TIP3    H1 8937   4.106   3.656   2.997 -0.7559  0.3412 -0.6586
 2991TIP3    H2 8938   3.968   3.594   2.985  0.0836 -1.8061  0.2598
 2992TIP3   OH2 8939   4.391   0.691   2.329 -0.3327 -0.1571 -0.2839
 2992TIP3    H1 8940   4.414   0.675   2.420 -0.1164 -2.9850 -0.7598
 2992TIP3    H2 8941   4.296   0.680   2.326 -0.3796  0.2569 -0.3447
 2993TIP3   OH2 8942   0.034   4.201   1.556  0.0386  0.3152  0.4479
 2993TIP3    H1 8943   0.006   4.224   1.644  0.2728 -1.0985  0.9209
 2993TIP3    H2 8944   0.039   4.105   1.556 -0.9525  0.2060 -1.4106
 2994TIP3   OH2 8945   0.031   0.060   3.219  0.0036  0.1077  0.0866
 2994TIP3    H1 8946  -0.063   0.079   3.227 -0.2017  0.1374 -1.9823
 2994TIP3    H2 8947   0.037  -0.005   3.150  1.6566  2.1040 -1.8127
 2995TIP3   OH2 8948   3.990   1.884   2.088 -0.0573 -0.2147 -0.3361
 2995TIP3    H1 8949   3.965   1.856   2.000 -1.0008 -1.4881  0.2978
 2995TIP3    H2 8950   4.045   1.813   2.122  1.6078  0.9757 -0.4292
 2996TIP3   OH2 8951   3.115   0.414   4.688 -0.3685 -0.2187 -0.0661
 2996TIP3    H1 8952   3.173   0.458   4.749 -0.9680 -1.7256  1.7004
 2996TIP3    H2 8953   3.030   0.456   4.701 -0.5809 -0.7952  0.4208
 2997TIP3   OH2 8954   6.048   0.086   4.705  0.1373  0.1577 -0.5481
 2997TIP3    H1 8955   6.084   0.119   4.787 -0.1239  1.2639 -0.8483
 2997TIP3    H2 8956   5.988   0.017   4.731 -1.6463  1.9650  0.4202
 2998TIP3   OH2 8957   5.907   5.571   0.538 -0.0991 -0.2780 -0.4790
 2998TIP3    H1 8958   5.922   5.506   0.469  0.4176 -0.1087 -0.5302
 2998TIP3    H2 8959   5.949   5.651   0.505 -1.5161  0.3497 -0.8288
 2999TIP3   OH2 8960   2.746   6.307   5.332  0.0328  0.8070 -0.1513
 2999TIP3    H1 8961   2.825   6.361   5.322 -0.5775  1.4698 -1.8243
 2999TIP3    H2 8962   2.695   6.350   5.400  1.7713 -0.5243  2.1308
 3000TIP3   OH2 8963   3.979   5.912   1.392  0.0930  0.0634  0.1857
 3000TIP3    H1 8964   3.955   6.000   1.419  0.8484  0.5438 -0.6327
 3000TIP3    H2 8965   3.981   5.916   1.296 -0.2529 -0.9522  0.1184
 3001TIP3   OH2 8966   1.929   2.787   1.561 -0.5163 -0.0555 -0.1194
 3001TIP3    H1 8967   2.008   2.836   1.539 -1.2795  0.6371 -1.4886
 3001TIP3    H2 8968   1.915   2.806   1.654  0.4151  0.5619 -0.0875
 3002TIP3   OH2 8969   5.811   0.513   4.794  0.3513 -0.0740 -0.6272
 3002TIP3    H1 8970   5.904   0.512   4.772  1.1604 -2.9435  2.1780
 3002TIP3    H2 8971   5.793   0.424   4.827 -2.4421  1.3704  2.3137
 3003TIP3   OH2 8972   5.507   5.694   5.741  0.5498 -0.4915 -0.1345
 3003TIP3    H1 8973   5.572   5.675   5.809  2.4504  0.3770 -1.6253
 3003TIP3    H2 8974   5.513   5.789   5.728  1.2956 -0.8221 -2.5111
 3004TIP3   OH2 8975   3.519   4.001   1.411  0.2251  0.3625  0.3290
 3004TIP3    H1 8976   3.455   4.060   1.372  0.1013 -0.6880 -1.1742
 3004TIP3    H2 8977   3.562   3.960   1.336  2.2480  0.5728  1.2961
 3005TIP3   OH2 8978   6.875   3.323   2.928 -0.1067 -0.0919  0.0395
 3005TIP3    H1 8979   6.859   3.365   2.844 -0.4936  1.3796  0.8024
 3005TIP3    H2 8980   6.818   3.369   2.989  1.2798 -0.0589  1.3889
 3006TIP3   OH2 8981   5.417   0.813   0.657 -0.2938 -0.0287 -0.1089
 3006TIP3    H1 8982   5.321   0.803   0.659 -0.3435  0.4694  0.0203
 3006TIP3    H2 8983   5.435   0.880   0.723  0.1721 -0.3139  0.0590
 3007TIP3   OH2 8984   0.268   4.372   1.782 -0.5652  0.3932 -0.0138
 3007TIP3    H1 8985   0.268   4.305   1.850 -0.0416 -0.8010 -1.1389
 3007TIP3    H2 8986   0.311   4.330   1.707 -0.4149  1.9204 -0.8297
 3008TIP3   OH2 8987   2.766   3.316   1.468  0.3763 -0.1055 -0.2340
 3008TIP3    H1 8988   2.745   3.408   1.483  1.7114  0.0123  1.1367
 3008TIP3    H2 8989   2.766   3.307   1.373 -3.0212  0.4842 -0.4194
 3009TIP3   OH2 8990   2.069   0.087   2.672 -0.5772  0.2249  0.5104
 3009TIP3    H1 8991   2.034   0.080   2.761  0.4231 -0.9499  0.8405
 3009TIP3    H2 8992   2.045   0.004   2.631  0.8191 -0.1340  0.3883
 3010TIP3   OH2 8993   0.053   6.463   5.141 -0.1124  0.2960  0.5933
 3010TIP3    H1 8994   0.103   6.509   5.075 -1.4325 -0.6452 -1.1415
 3010TIP3    H2 8995   0.091   6.375   5.145 -0.0623  0.3334  1.0748
 3011TIP3   OH2 8996   0.408   2.979   3.797  0.1692  0.1126 -0.4093
 3011TIP3    H1 8997   0.467   2.932   3.738  0.5416  1.2984 -1.0180
 3011TIP3    H2 8998   0.350   3.028   3.739 -0.3824  0.1903  0.1993
 3012TIP3   OH2 8999   5.546   5.115   3.809 -0.5969  0.0018  0.4155
 3012TIP3    H1 9000   5.482   5.084   3.873 -2.1509  0.5522 -0.7756
 3012TIP3    H2 9001   5.599   5.179   3.856  0.1640 -1.6202  1.8615
 3013TIP3   OH2 9002   0.302   0.588   0.808  0.0140  0.7989  0.8462
 3013TIP3    H1 9003   0.355   0.509   0.822 -2.9394 -1.1797  1.9375
 3013TIP3    H2 9004   0.274   0.614   0.896 -1.2112  1.4217  0.3007
 3014TIP3   OH2 9005   3.522   6.657   4.826 -0.5417 -0.1923  0.3668
 3014TIP3    H1 9006   3.520   6.699   4.911 -0.1834  2.1841 -0.7253
 3014TIP3    H2 9007   3.445   6.690   4.780  0.1984 -0.0599 -0.8278
 3015TIP3   OH2 9008   0.260   4.539   0.204  0.3838  0.1266  0.1228
 3015TIP3    H1 9009   0.333   4.547   0.266  1.4913 -0.0637 -1.1254
 3015TIP3    H2 9010   0.239   4.446   0.204 -0.1418  0.2374  0.7789
 3016TIP3   OH2 9011   3.036   2.027   5.488 -0.0405 -0.8612 -0.2186
 3016TIP3    H1 9012   2.973   2.081   5.441 -1.1948 -1.9697  0.0078
 3016TIP3    H2 9013   3.070   2.085   5.557 -1.5668 -0.5093  0.2923
 3017TIP3   OH2 9014   2.875   1.127   1.111  0.2057  0.3314  0.4420
 3017TIP3    H1 9015   2.936   1.065   1.151 -0.3858 -0.6507 -0.1432
 3017TIP3    H2 9016   2.826   1.075   1.047 -0.8083  1.2414  0.4553
 3018TIP3   OH2 9017   6.682   1.809   5.655  0.0818 -1.3239 -0.3771
 3018TIP3    H1 9018   6.694   1.722   5.693  1.7231 -0.7912  0.4007
 3018TIP3    H2 9019   6.737   1.809   5.576 -2.3350 -1.9990 -2.1638
 3019TIP3   OH2 9020   2.144   5.426   4.256  0.2012 -0.1116  0.4978
 3019TIP3    H1 9021   2.123   5.379   4.337  1.3227 -1.0873  0.2669
 3019TIP3    H2 9022   2.237   5.446   4.264 -0.1249  1.5679  0.3067
 3020TIP3   OH2 9023   2.806   1.656   4.595  0.1350 -0.2545 -0.1309
 3020TIP3    H1 9024   2.807   1.726   4.529  0.7449  0.6512  0.8197
 3020TIP3    H2 9025   2.898   1.645   4.620 -0.0267 -0.9764  0.1825
 3021TIP3   OH2 9026   1.149   5.232   3.070 -0.4875 -1.1253  0.1758
 3021TIP3    H1 9027   1.070   5.263   3.113 -0.2933 -1.2735  0.6452
 3021TIP3    H2 9028   1.213   5.302   3.086 -0.2368 -1.4628  0.6697
 3022TIP3   OH2 9029   4.399   5.080   0.465  0.7412  0.5595 -0.6676
 3022TIP3    H1 9030   4.487   5.114   0.448  0.2021  1.2634 -2.2872
 3022TIP3    H2 9031   4.386   5.091   0.559  1.7834  1.9041 -0.6566
 3023TIP3   OH2 9032   4.710   5.725   4.557 -0.1230 -0.3501 -0.1174
 3023TIP3    H1 9033   4.748   5.813   4.553 -0.5387 -0.2023 -0.8484
 3023TIP3    H2 9034   4.777   5.673   4.602  0.2149  0.2906  0.1390
 3024TIP3   OH2 9035   0.806   0.772   2.246  0.6357  0.1821  0.7560
 3024TIP3    H1 9036   0.873   0.764   2.314  1.0439 -0.7855  0.2688
 3024TIP3    H2 9037   0.856   0.767   2.164  0.0769  0.5823  0.3916
 3025TIP3   OH2 9038   4.984   3.611   2.810 -0.1939 -0.1873  0.3892
 3025TIP3    H1 9039   5.006   3.702   2.791 -0.6689 -0.2861 -0.7070
 3025TIP3    H2 9040   5.036   3.559   2.748 -1.0491 -0.5724 -0.0267
 3026TIP3   OH2 9041   4.993   0.643   4.404 -0.3232  0.2622  0.1316
 3026TIP3    H1 9042   5.041   0.642   4.486 -1.5636  2.1591  0.9675
 3026TIP3    H2 9043   4.950   0.729   4.403 -2.4250 -0.7174 -1.2587
 3027TIP3   OH2 9044   6.764   1.729   4.338  0.3894 -0.4619 -0.0819
 3027TIP3    H1 9045   6.677   1.728   4.377 -0.4701  3.5589 -1.4529
 3027TIP3    H2 9046   6.760   1.664   4.267 -0.8830 -1.4930  0.8978
 3028TIP3   OH2 9047   4.233   3.602   1.298 -0.5580 -0.9788 -0.3797
 3028TIP3    H1 9048   4.314   3.649   1.275 -0.9536 -0.4106 -0.6215
 3028TIP3    H2 9049   4.211   3.552   1.220 -0.5771 -0.9455 -0.3955
 3029TIP3   OH2 9050   3.794   4.131   0.052 -0.0624  0.8144 -0.6714
 3029TIP3    H1 9051   3.845   4.199   0.008  1.3937 -0.4215 -0.9465
 3029TIP3    H2 9052   3.709   4.172   0.068  1.1416  3.1307  0.2964
 3030TIP3   OH2 9053   0.959   1.431   3.102 -0.2590  0.3789 -0.2671
 3030TIP3    H1 9054   1.054   1.437   3.092 -0.2515  0.6592 -0.0263
 3030TIP3    H2 9055   0.946   1.369   3.173 -0.1969  1.9528  1.1710
 3031TIP3   OH2 9056   5.400   1.705   0.851  0.0280 -0.1676  0.1036
 3031TIP3    H1 9057   5.344   1.657   0.912 -1.9611  1.2412 -0.4985
 3031TIP3    H2 9058   5.468   1.744   0.906 -0.7737 -0.2502  1.1977
 3032TIP3   OH2 9059   5.805   1.730   1.277  0.3141 -0.0468 -0.3836
 3032TIP3    H1 9060   5.731   1.669   1.277  0.0059  0.3152 -1.1879
 3032TIP3    H2 9061   5.824   1.744   1.370 -1.9261  1.4014 -0.0503
 3033TIP3   OH2 9062   1.445   4.749   1.115  0.2067 -0.1683  0.2384
 3033TIP3    H1 9063   1.454   4.836   1.076  2.2386 -0.8991 -1.1334
 3033TIP3    H2 9064   1.452   4.764   1.209 -1.9479  1.3611  0.2255
 3034TIP3   OH2 9065   4.560   0.840   5.462  0.3622  0.1618 -0.7152
 3034TIP3    H1 9066   4.634   0.900   5.454 -0.3616  0.8824 -2.3540
 3034TIP3    H2 9067   4.589   0.776   5.527  0.9230  2.5661  1.5626
 3035TIP3   OH2 9068   6.806   2.283   1.396  0.1325  0.5093  0.7254
 3035TIP3    H1 9069   6.779   2.234   1.319 -0.6130  0.6828  0.8644
 3035TIP3    H2 9070   6.886   2.240   1.426  0.6189  0.6471 -0.3303
 3036TIP3   OH2 9071   3.128   6.496   5.069 -0.2888  0.0547 -1.0244
 3036TIP3    H1 9072   3.198   6.431   5.061 -0.4500 -0.1621 -0.7073
 3036TIP3    H2 9073   3.112   6.526   4.980 -0.3476 -0.4854 -1.1990
 3037TIP3   OH2 9074   0.141   5.464   1.413 -0.6229  0.8568  0.5543
 3037TIP3    H1 9075   0.067   5.523   1.430 -0.6805  1.5697 -1.8298
 3037TIP3    H2 9076   0.218   5.521   1.412 -0.2620  0.3956  1.2085
 3038TIP3   OH2 9077   7.016   4.393   1.177 -0.1689 -0.0838 -0.1256
 3038TIP3    H1 9078   7.106   4.389   1.144  0.5801 -0.6451  1.8187
 3038TIP3    H2 9079   6.963   4.351   1.109  1.0131  0.3468 -1.3474
 3039TIP3   OH2 9080   1.377   0.931   0.174 -0.3990  0.0884 -0.5647
 3039TIP3    H1 9081   1.436   1.006   0.169  0.5582 -0.4218  1.7680
 3039TIP3    H2 9082   1.290   0.969   0.183 -0.1879  0.8712 -1.6672
 3040TIP3   OH2 9083   4.906   2.886   4.534 -0.7484 -0.0926  0.4330
 3040TIP3    H1 9084   4.817   2.852   4.528 -1.3594  1.4224  0.5387
 3040TIP3    H2 9085   4.907   2.938   4.614  0.0676  0.3499  0.1503
 3041TIP3   OH2 9086   0.238   0.306   5.716  0.2535 -0.9026 -0.3460
 3041TIP3    H1 9087   0.184   0.227   5.716 -1.2390  0.0713 -1.3751
 3041TIP3    H2 9088   0.226   0.342   5.804 -2.8944  0.6104 -1.2635
 3042TIP3   OH2 9089   3.707   2.865   5.176  0.3934 -0.4776  0.5133
 3042TIP3    H1 9090   3.723   2.793   5.115  1.1808 -1.0040  1.3242
 3042TIP3    H2 9091   3.787   2.917   5.174  0.8346 -1.0598  1.8270
 3043TIP3   OH2 9092   2.091   2.441   2.549  0.1443 -0.0353 -0.4331
 3043TIP3    H1 9093   2.042   2.515   2.514 -2.6549 -1.4836  0.1568
 3043TIP3    H2 9094   2.121   2.393   2.472  0.9084  0.9934 -0.8022
 3044TIP3   OH2 9095   4.297   5.782   1.181  0.5568  0.0261 -0.0626
 3044TIP3    H1 9096   4.233   5.739   1.126  0.9130 -0.2952 -0.2269
 3044TIP3    H2 9097   4.314   5.720   1.252  0.9023 -0.0136 -0.1781
 3045TIP3   OH2 9098   5.225   5.881   4.300  0.2893 -0.1786 -0.1341
 3045TIP3    H1 9099   5.189   5.931   4.373  0.8364  0.8325 -0.5368
 3045TIP3    H2 9100   5.315   5.863   4.325  0.3407 -0.2416 -0.3639
 3046TIP3   OH2 9101   1.068   0.120   1.198 -0.2368 -0.0997  0.1785
 3046TIP3    H1 9102   1.105   0.165   1.274  0.0161  0.9924 -0.5706
 3046TIP3    H2 9103   1.121   0.150   1.124  0.0715 -1.7973 -0.3320
 3047TIP3   OH2 9104   1.917   0.533   3.647 -0.0512 -0.1466 -0.1031
 3047TIP3    H1 9105   1.888   0.450   3.609  1.2346 -1.2571  1.2027
 3047TIP3    H2 9106   1.996   0.510   3.696 -0.4465  1.6093  1.4454
 3048TIP3   OH2 9107   4.497   0.373   5.023 -0.0963 -0.1857 -0.0042
 3048TIP3    H1 9108   4.498   0.321   4.943  0.3388 -1.0334  0.5349
 3048TIP3    H2 9109   4.585   0.365   5.058 -0.3456 -0.0202  0.6755
 3049TIP3   OH2 9110   6.916   3.470   2.621 -0.5581  0.3793  0.3735
 3049TIP3    H1 9111   6.986   3.433   2.674 -0.2494  0.6838  0.1774
 3049TIP3    H2 9112   6.942   3.451   2.531 -1.5053 -0.9153  0.3377
 3050TIP3   OH2 9113   6.077   5.590   3.204 -0.0521 -0.2570 -0.1569
 3050TIP3    H1 9114   6.113   5.639   3.130 -0.9774  2.2323  0.9151
 3050TIP3    H2 9115   6.013   5.530   3.165  0.6076 -0.1291 -1.4839
 3051TIP3   OH2 9116   3.988   0.561   0.194 -0.4365 -0.4779 -0.1637
 3051TIP3    H1 9117   4.063   0.598   0.148 -0.4407 -0.8726 -0.4969
 3051TIP3    H2 9118   4.026   0.523   0.274 -0.4873  0.5648  0.3725
 3052TIP3   OH2 9119   6.890   4.175   1.324 -0.1048  0.2404  0.6620
 3052TIP3    H1 9120   6.966   4.231   1.309  0.7778 -0.9808  0.4428
 3052TIP3    H2 9121   6.878   4.178   1.419  0.4613  0.1389  0.7438
 3053TIP3   OH2 9122   6.506   3.475   2.783  0.0236 -0.2320  0.5981
 3053TIP3    H1 9123   6.455   3.417   2.840  1.0295 -0.4647  1.2978
 3053TIP3    H2 9124   6.538   3.543   2.842  1.0716 -0.4687  0.3105
 3054TIP3   OH2 9125   4.732   1.334   5.441  0.0627 -0.3031  0.1347
 3054TIP3    H1 9126   4.712   1.300   5.528  0.8794  1.1176  0.8943
 3054TIP3    H2 9127   4.765   1.422   5.455 -1.1791  0.5468 -1.7214
 3055TIP3   OH2 9128   6.855   3.165   4.489 -0.7380 -0.4553  0.0980
 3055TIP3    H1 9129   6.869   3.229   4.559 -1.9883 -0.9356  0.8187
 3055TIP3    H2 9130   6.928   3.104   4.498 -0.4228 -0.0341  0.4478
 3056TIP3   OH2 9131   2.115   3.850   5.898  0.0637 -0.5126  0.2130
 3056TIP3    H1 9132   2.113   3.788   5.825  1.2886  1.1138 -1.2698
 3056TIP3    H2 9133   2.192   3.825   5.949  0.4014 -0.3975 -0.2311
 3057TIP3   OH2 9134   0.226   2.556   2.680  0.2145 -0.0387 -0.4752
 3057TIP3    H1 9135   0.297   2.615   2.704  1.4393 -1.9367  0.9191
 3057TIP3    H2 9136   0.219   2.495   2.754 -1.8410 -0.8661 -1.2513
 3058TIP3   OH2 9137   2.272   3.828   3.840 -0.2031 -0.4861 -0.0223
 3058TIP3    H1 9138   2.249   3.735   3.835 -2.4138  0.0298 -0.3678
 3058TIP3    H2 9139   2.208   3.865   3.902 -1.0354  1.2494 -1.8207
 3059TIP3   OH2 9140   5.329   2.094   0.931  0.4407 -0.2988  0.2406
 3059TIP3    H1 9141   5.359   2.180   0.960 -1.1168  0.2831  0.2084
 3059TIP3    H2 9142   5.234   2.097   0.941  0.2605 -1.6215 -0.8058
 3060TIP3   OH2 9143   0.518   0.248   4.015  0.0674 -0.0768 -0.1794
 3060TIP3    H1 9144   0.575   0.178   3.984  0.6350 -0.4668  1.5931
 3060TIP3    H2 9145   0.578   0.316   4.045 -0.4610  0.6662 -0.7912
 3061TIP3   OH2 9146   4.845   6.504   3.301 -0.3339 -0.2998 -0.1182
 3061TIP3    H1 9147   4.920   6.445   3.286 -1.1118 -1.0351 -1.2863
 3061TIP3    H2 9148   4.860   6.577   3.241 -0.2313 -0.1356  0.1072
 3062TIP3   OH2 9149   1.000   1.362   1.789  0.4580 -0.3234  0.4359
 3062TIP3    H1 9150   1.011   1.328   1.878 -1.3089  2.1242  1.7038
 3062TIP3    H2 9151   1.079   1.415   1.775  1.0356 -1.1985  0.2457
 3063TIP3   OH2 9152   5.137   2.209   4.887 -0.2554 -0.0303 -0.2664
 3063TIP3    H1 9153   5.128   2.114   4.877  0.8140 -0.5526  2.7653
 3063TIP3    H2 9154   5.047   2.242   4.887 -0.6582 -1.0777 -0.9869
 3064TIP3   OH2 9155   4.030   2.384   4.377  0.4186  0.2802  0.2076
 3064TIP3    H1 9156   3.937   2.359   4.379  0.3885  0.3825  0.1347
 3064TIP3    H2 9157   4.047   2.404   4.284  0.5673  0.0626  0.1873
 3065TIP3   OH2 9158   4.225   3.828   1.961  0.0203  0.2854 -0.0461
 3065TIP3    H1 9159   4.201   3.736   1.955 -0.9865  0.3578  1.9463
 3065TIP3    H2 9160   4.314   3.833   1.925 -0.2154 -1.2959 -0.9156
 3066TIP3   OH2 9161   0.458   2.327   3.987  0.1466 -0.5567 -0.1461
 3066TIP3    H1 9162   0.391   2.276   3.942 -0.3655 -0.3705  0.4003
 3066TIP3    H2 9163   0.520   2.262   4.019 -0.2765 -0.8061  0.1706
 3067TIP3   OH2 9164   0.219   0.143   2.592  0.7425 -0.0768 -0.0723
 3067TIP3    H1 9165   0.160   0.099   2.531  0.0406 -1.2304  1.3625
 3067TIP3    H2 9166   0.268   0.071   2.633  1.9694  0.7452 -0.0395
 3068TIP3   OH2 9167   6.398   3.948   1.918 -0.2697  0.4070  0.2387
 3068TIP3    H1 9168   6.407   3.891   1.994  0.6469  1.3331  0.8434
 3068TIP3    H2 9169   6.458   4.021   1.934  1.0776 -0.0810 -2.0165
 3069TIP3   OH2 9170   6.036   5.746   0.380 -0.2796 -0.4718  0.1262
 3069TIP3    H1 9171   5.990   5.823   0.415  1.4640 -0.3543  2.4011
 3069TIP3    H2 9172   6.127   5.759   0.406  0.0936 -3.2448  0.4513
 3070TIP3   OH2 9173   1.865   2.652   5.849  0.2576  0.2047 -0.2515
 3070TIP3    H1 9174   1.780   2.660   5.806  0.7823 -0.7318 -1.5098
 3070TIP3    H2 9175   1.926   2.634   5.778  1.4648  0.5103  0.6801
 3071TIP3   OH2 9176   2.732   0.022   1.112  0.2630 -0.0960 -0.1306
 3071TIP3    H1 9177   2.782   0.017   1.193  0.0088  2.1085  0.2257
 3071TIP3    H2 9178   2.643  -0.003   1.138  0.2387  0.3415  0.2154
 3072TIP3   OH2 9179   0.901   2.960   0.775 -0.6031 -0.3549 -0.3042
 3072TIP3    H1 9180   0.841   2.915   0.835 -0.3155 -1.9206 -1.1223
 3072TIP3    H2 9181   0.970   2.995   0.831 -0.5025 -1.5075  0.3139
 3073TIP3   OH2 9182   0.631   0.073   2.306 -0.0566  0.4211 -0.3501
 3073TIP3    H1 9183   0.563   0.050   2.242  2.1515 -0.3472 -2.6156
 3073TIP3    H2 9184   0.612   0.018   2.382 -0.8484 -1.2940 -1.7052
 3074TIP3   OH2 9185   2.896   4.278   0.728  0.1899 -0.0412  0.2984
 3074TIP3    H1 9186   2.901   4.373   0.722  0.6430 -0.0947 -0.1713
 3074TIP3    H2 9187   2.982   4.247   0.699 -0.1877 -0.6207 -0.2253
 3075TIP3   OH2 9188   4.737   6.628   2.337  0.0229  0.2638 -0.5300
 3075TIP3    H1 9189   4.726   6.551   2.281 -0.2349  0.6030 -0.9501
 3075TIP3    H2 9190   4.679   6.613   2.412  0.2405 -0.1107 -0.4359
 3076TIP3   OH2 9191   2.604   2.860   1.264  0.3529 -0.3424 -0.3896
 3076TIP3    H1 9192   2.542   2.850   1.192 -2.0641 -0.4049  1.5781
 3076TIP3    H2 9193   2.621   2.771   1.294 -0.6534 -0.2020  0.6671
 3077TIP3   OH2 9194   7.014   5.417   1.372  0.3509  0.4438  0.3132
 3077TIP3    H1 9195   6.925   5.408   1.337  0.7725  2.1046 -1.3716
 3077TIP3    H2 9196   7.058   5.336   1.346 -0.5714 -0.2788  0.9272
 3078TIP3   OH2 9197   1.962   4.003   5.506  0.5133 -0.3255 -0.6171
 3078TIP3    H1 9198   1.938   4.000   5.599  2.0057 -1.7750 -0.2210
 3078TIP3    H2 9199   2.027   4.074   5.500  0.4000 -0.2170 -0.5583
 3079TIP3   OH2 9200   1.551   1.220   3.260  0.5983 -0.3909  0.5467
 3079TIP3    H1 9201   1.470   1.241   3.307 -0.2665 -2.0722 -0.0784
 3079TIP3    H2 9202   1.542   1.265   3.176 -0.2161 -1.3959  0.0674
 3080TIP3   OH2 9203   5.936   4.965   0.917 -0.4679  1.0917  0.2016
 3080TIP3    H1 9204   5.853   4.983   0.961  0.1119  1.3607  1.2159
 3080TIP3    H2 9205   5.916   4.892   0.857 -1.5010  1.3666  0.1928
 3081TIP3   OH2 9206   2.770   6.697   5.436 -0.4076  0.0758  0.2438
 3081TIP3    H1 9207   2.728   6.766   5.488 -2.6688 -0.1316 -1.1834
 3081TIP3    H2 9208   2.724   6.699   5.352  0.5854 -2.1090 -0.4202
 3082TIP3   OH2 9209   4.658   1.026   5.659  0.3738  0.0489  0.7630
 3082TIP3    H1 9210   4.675   0.948   5.712  1.0298  1.2723  2.4515
 3082TIP3    H2 9211   4.739   1.076   5.663  0.7368 -0.1441 -2.1353
 3083TIP3   OH2 9212   4.949   6.466   2.532 -0.1621  0.2127  0.0464
 3083TIP3    H1 9213   4.855   6.452   2.545 -0.1366 -0.7844 -0.7192
 3083TIP3    H2 9214   4.970   6.415   2.454  0.6128  2.0850 -1.0519
 3084TIP3   OH2 9215   2.684   3.903   3.961 -0.2307  0.3950  0.2418
 3084TIP3    H1 9216   2.667   3.993   3.988 -0.9749 -0.2531  2.1471
 3084TIP3    H2 9217   2.772   3.884   3.993 -0.4142  0.1874  0.6347
 3085TIP3   OH2 9218   4.351   2.804   4.519 -0.0959 -0.3243  0.1904
 3085TIP3    H1 9219   4.260   2.783   4.497  0.2709 -0.6393 -1.1463
 3085TIP3    H2 9220   4.390   2.719   4.539 -0.3240 -0.0805  1.7823
 3086TIP3   OH2 9221   4.003   2.795   4.693  0.5926  0.2839  0.5055
 3086TIP3    H1 9222   3.978   2.722   4.636 -1.0229  0.1187  1.3620
 3086TIP3    H2 9223   4.030   2.753   4.775 -1.9421  0.5989  1.6116
 3087TIP3   OH2 9224   4.650   1.833   0.089 -0.2762  0.6644 -0.1798
 3087TIP3    H1 9225   4.677   1.869   0.174 -0.9479 -2.4144  1.4822
 3087TIP3    H2 9226   4.555   1.842   0.088 -0.6261 -2.0119  0.8918
 3088TIP3   OH2 9227   6.995   1.842   3.291 -0.8007  0.1605  0.0275
 3088TIP3    H1 9228   7.063   1.783   3.325 -0.6792 -0.2315 -0.8546
 3088TIP3    H2 9229   6.918   1.786   3.280 -1.5611  0.7737  1.8129
 3089TIP3   OH2 9230   4.719   1.282   5.742  0.2550  0.2549 -0.0028
 3089TIP3    H1 9231   4.776   1.328   5.804 -1.0023  0.8665  0.7285
 3089TIP3    H2 9232   4.637   1.269   5.789 -0.2563 -0.5557 -1.0616
 3090TIP3   OH2 9233   1.782   0.130   4.477 -0.5309  0.2842 -0.2770
 3090TIP3    H1 9234   1.812   0.128   4.386  0.6844  2.1196  0.0277
 3090TIP3    H2 9235   1.801   0.220   4.507 -4.0948  0.8522  0.7469
 3091TIP3   OH2 9236   0.830   1.843   1.490  0.0245 -0.3570  0.4331
 3091TIP3    H1 9237   0.787   1.775   1.540 -0.6218  0.4774  1.0502
 3091TIP3    H2 9238   0.824   1.814   1.399 -0.5929 -0.9239  0.6505
 3092TIP3   OH2 9239   4.908   5.998   1.295 -0.5101 -0.0305 -0.1632
 3092TIP3    H1 9240   4.916   6.093   1.290 -1.6281  0.1384  0.8929
 3092TIP3    H2 9241   4.990   5.970   1.337 -0.9682  0.6725  1.2716
 3093TIP3   OH2 9242   0.239   0.848   0.055  1.3387 -0.1156 -0.9035
 3093TIP3    H1 9243   0.152   0.879   0.029  1.9284  1.4750 -1.1414
 3093TIP3    H2 9244   0.237   0.754   0.040 -0.0468  0.0174 -1.7541
 3094TIP3   OH2 9245   4.495   0.268   1.678 -0.5215  0.5847  0.2312
 3094TIP3    H1 9246   4.532   0.307   1.598 -1.6960 -0.3703 -0.8101
 3094TIP3    H2 9247   4.488   0.341   1.739  0.2156  1.3730 -0.5909
 3095TIP3   OH2 9248   5.230   5.339   0.617 -0.0645  0.5545  0.3395
 3095TIP3    H1 9249   5.193   5.370   0.535  1.5697  0.1693 -0.6026
 3095TIP3    H2 9250   5.320   5.373   0.617  1.2192 -2.4473  0.1175
 3096TIP3   OH2 9251   4.903   3.599   0.308  0.0301 -0.3867  0.4728
 3096TIP3    H1 9252   4.941   3.536   0.247  0.3539  0.0076  0.2620
 3096TIP3    H2 9253   4.976   3.656   0.333  0.0219 -0.8696  1.6593
 3097TIP3   OH2 9254   5.076   1.111   5.294 -0.2369 -0.0473 -0.2086
 3097TIP3    H1 9255   5.056   1.048   5.364  2.0946  0.1769  0.7549
 3097TIP3    H2 9256   5.064   1.062   5.213 -1.1034 -0.8961  0.4083
 3098TIP3   OH2 9257   6.725   5.625   2.747 -0.4903 -0.3531  0.8199
 3098TIP3    H1 9258   6.746   5.562   2.678 -3.2614  0.2666 -0.7404
 3098TIP3    H2 9259   6.764   5.707   2.718 -0.4389 -0.4140  0.7167
 3099TIP3   OH2 9260   3.857   5.527   4.440 -0.0477  0.3778  0.8141
 3099TIP3    H1 9261   3.900   5.447   4.469 -2.1306 -0.0462  3.1231
 3099TIP3    H2 9262   3.803   5.501   4.366  1.8135  0.4444 -0.6316
 3100TIP3   OH2 9263   1.936   1.290   2.668  0.2230 -0.1670  0.4006
 3100TIP3    H1 9264   2.018   1.301   2.621 -0.3608 -1.9291 -1.1439
 3100TIP3    H2 9265   1.952   1.218   2.729  0.1121  0.1370  0.7925
 3101TIP3   OH2 9266   1.305   2.923   0.636 -0.3966 -0.5700 -0.1379
 3101TIP3    H1 9267   1.318   2.841   0.683 -0.6412 -0.1318  0.7120
 3101TIP3    H2 9268   1.394   2.955   0.619 -0.2940 -1.1165 -0.6969
 3102TIP3   OH2 9269   5.870   1.021   1.229 -0.2298 -0.3987  0.2189
 3102TIP3    H1 9270   5.853   1.114   1.242 -1.8475 -0.1765 -2.6264
 3102TIP3    H2 9271   5.953   1.018   1.182 -1.0268 -0.2056 -1.2599
 3103TIP3   OH2 9272   3.975   2.002   2.475 -0.1110  0.0360  0.1427
 3103TIP3    H1 9273   3.990   1.948   2.552 -0.4955  0.7575  0.7403
 3103TIP3    H2 9274   3.927   1.946   2.415 -1.9103  0.1627  1.3702
 3104TIP3   OH2 9275   1.809   5.170   1.042 -0.0705 -0.8052 -0.3744
 3104TIP3    H1 9276   1.841   5.240   1.098 -0.7327 -1.7279  1.2185
 3104TIP3    H2 9277   1.735   5.208   0.995  0.0805 -0.2102 -0.1347
 3105TIP3   OH2 9278   4.800   0.509   2.509 -0.6952 -0.0984 -0.0558
 3105TIP3    H1 9279   4.871   0.457   2.471 -0.5626 -0.0442  0.1124
 3105TIP3    H2 9280   4.745   0.533   2.434  0.2689  1.0957 -0.4289
 3106TIP3   OH2 9281   0.649   3.892   1.564 -0.4616  0.1001  0.3862
 3106TIP3    H1 9282   0.615   3.975   1.597 -0.1570 -0.5788  2.5938
 3106TIP3    H2 9283   0.729   3.877   1.615 -0.0612 -1.1523 -0.5612
 3107TIP3   OH2 9284   3.696   4.282   1.428 -0.2534  0.1142 -0.3343
 3107TIP3    H1 9285   3.773   4.232   1.400 -0.9453 -1.7985  0.8959
 3107TIP3    H2 9286   3.622   4.232   1.393 -0.9915 -0.1243  1.4577
 3108TIP3   OH2 9287   5.087   5.457   5.335 -0.0964  0.4306 -0.2627
 3108TIP3    H1 9288   5.161   5.489   5.388  0.5089 -0.5659 -0.4804
 3108TIP3    H2 9289   5.016   5.518   5.355 -0.0497 -0.1594  2.0849
 3109TIP3   OH2 9290   0.409   5.328   3.281 -0.1931  0.1194 -0.4266
 3109TIP3    H1 9291   0.331   5.357   3.328 -0.1598 -0.1920 -0.1784
 3109TIP3    H2 9292   0.476   5.320   3.348  0.1121  0.5805 -0.6693
 3110TIP3   OH2 9293   1.667   6.745   0.428 -0.4522 -0.8988 -0.3743
 3110TIP3    H1 9294   1.671   6.797   0.509  1.4216 -0.8389 -0.4565
 3110TIP3    H2 9295   1.574   6.729   0.415 -0.8690 -0.1499  1.3142
 3111TIP3   OH2 9296   0.052   3.456   4.506 -0.1801  0.1481  0.2444
 3111TIP3    H1 9297   0.048   3.513   4.583  0.0057 -1.2160  1.3024
 3111TIP3    H2 9298  -0.037   3.454   4.472 -0.2845  0.6794  0.4929
 3112TIP3   OH2 9299   4.039   3.083   3.832  0.0205  0.6151  0.3357
 3112TIP3    H1 9300   4.106   3.112   3.769 -0.0952 -0.7908 -0.4751
 3112TIP3    H2 9301   3.980   3.158   3.840  2.2627  2.3767  1.9784
 3113TIP3   OH2 9302   4.944   4.346   3.810 -0.7487  0.7027  0.2607
 3113TIP3    H1 9303   4.872   4.310   3.758 -1.9003 -0.8349  2.7247
 3113TIP3    H2 9304   4.908   4.426   3.849  0.6340  2.7619 -2.3727
 3114TIP3   OH2 9305   6.007   2.475   0.807  0.0090 -0.5219  0.5089
 3114TIP3    H1 9306   6.082   2.441   0.855  0.9031 -0.0207 -0.4826
 3114TIP3    H2 9307   6.046   2.522   0.733 -1.2885 -0.2793 -0.0399
 3115TIP3   OH2 9308   2.385   0.908   5.037  0.1246 -0.4843 -0.0485
 3115TIP3    H1 9309   2.330   0.932   4.963 -2.2079  0.4881  1.8848
 3115TIP3    H2 9310   2.469   0.885   4.997 -2.1330 -4.1467 -3.3986
 3116TIP3   OH2 9311   5.780   6.011   5.323 -0.2284 -0.0134  0.1919
 3116TIP3    H1 9312   5.872   6.022   5.298 -0.3738 -2.4213 -1.7331
 3116TIP3    H2 9313   5.735   6.085   5.283  0.6439  0.2867 -0.2552
 3117TIP3   OH2 9314   2.724   1.707   0.203 -0.2320 -0.0541 -0.2671
 3117TIP3    H1 9315   2.690   1.728   0.117 -0.5531 -2.2260 -0.7236
 3117TIP3    H2 9316   2.651   1.722   0.263  0.3036  2.5000 -0.1573
 3118TIP3   OH2 9317   4.576   4.346   2.238 -0.4557 -0.6142  0.1451
 3118TIP3    H1 9318   4.525   4.371   2.161 -0.9944 -0.9344  0.3958
 3118TIP3    H2 9319   4.588   4.428   2.286 -2.6320 -0.8265  1.2107
 3119TIP3   OH2 9320   6.636   0.127   1.742 -0.1635  0.4669  0.0548
 3119TIP3    H1 9321   6.675   0.040   1.730 -0.7144  0.0398  1.1867
 3119TIP3    H2 9322   6.624   0.160   1.653  0.4137 -0.4496 -0.3860
 3120TIP3   OH2 9323   2.038   3.393   3.863 -0.3963 -0.6501  0.6599
 3120TIP3    H1 9324   1.959   3.381   3.810 -1.7527 -0.8674  2.6479
 3120TIP3    H2 9325   2.080   3.308   3.863  1.8861  0.2017 -3.2873
 3121TIP3   OH2 9326   3.625   5.131   3.287  0.0829 -0.0219  0.3432
 3121TIP3    H1 9327   3.623   5.213   3.336  2.8898 -1.0626  2.4744
 3121TIP3    H2 9328   3.709   5.133   3.240  0.4923 -1.8750  0.9046
 3122TIP3   OH2 9329   0.442   0.639   4.992 -0.2984  0.1356 -0.6345
 3122TIP3    H1 9330   0.462   0.627   5.085  0.2668  1.6100 -0.5318
 3122TIP3    H2 9331   0.527   0.651   4.951 -0.6346  1.4083 -1.0184
 3123TIP3   OH2 9332   1.234   3.815   1.172 -0.1038 -0.6822  0.0024
 3123TIP3    H1 9333   1.268   3.854   1.091 -0.6677 -0.5728 -0.1831
 3123TIP3    H2 9334   1.166   3.875   1.200 -0.8248 -1.4121 -0.1624
 3124TIP3   OH2 9335   3.815   3.166   3.955  0.2877 -0.2853  0.3069
 3124TIP3    H1 9336   3.725   3.151   3.926  0.5651 -1.0612 -0.1752
 3124TIP3    H2 9337   3.806   3.200   4.044 -0.5129  0.5612 -0.0872
 3125TIP3   OH2 9338   7.063   4.821   1.860 -0.8007  0.2668  0.0482
 3125TIP3    H1 9339   7.143   4.866   1.831 -0.6568 -0.9322 -1.5803
 3125TIP3    H2 9340   7.094   4.739   1.898 -1.1699  0.6751  1.2696
 3126TIP3   OH2 9341   4.600   4.991   1.088  0.3746  0.0973 -0.4977
 3126TIP3    H1 9342   4.545   4.930   1.039  0.2641 -0.9170  0.8503
 3126TIP3    H2 9343   4.685   4.988   1.044  0.1916 -0.5316 -0.8151
 3127TIP3   OH2 9344   0.422   0.242   1.068  0.2652 -0.3655 -0.1808
 3127TIP3    H1 9345   0.475   0.248   0.989 -1.5759  0.2588 -1.4368
 3127TIP3    H2 9346   0.474   0.285   1.135  1.3470  0.2199 -1.3584
 3128TIP3   OH2 9347   6.599   2.348   2.093 -0.1669  0.3385 -0.5410
 3128TIP3    H1 9348   6.533   2.299   2.043 -0.6357  2.5154 -2.1706
 3128TIP3    H2 9349   6.635   2.411   2.031 -0.7707  3.1917  1.8048
 3129TIP3   OH2 9350   3.930   2.979   1.250 -0.0635 -0.3588 -0.1553
 3129TIP3    H1 9351   3.924   2.971   1.155 -1.7565  1.2090 -0.2520
 3129TIP3    H2 9352   4.013   3.023   1.266  0.5380 -1.2132 -0.8380
 3130TIP3   OH2 9353   0.326   3.252   3.878 -0.1944  0.0555 -0.1939
 3130TIP3    H1 9354   0.297   3.248   3.970 -0.5802  1.2833 -0.2463
 3130TIP3    H2 9355   0.255   3.212   3.829 -1.0915  1.5390 -0.1621
 3131TIP3   OH2 9356   4.315   6.733   5.503 -0.1724 -0.0959 -0.1139
 3131TIP3    H1 9357   4.241   6.778   5.545  0.8048  2.2235 -0.7334
 3131TIP3    H2 9358   4.288   6.723   5.412 -0.0237  0.0475 -0.1729
 3132TIP3   OH2 9359   3.945   3.454   0.595  1.4284  0.6755  0.0628
 3132TIP3    H1 9360   3.881   3.401   0.642  2.3816 -0.4403  0.1325
 3132TIP3    H2 9361   3.901   3.478   0.514  0.9165 -0.0613  0.1140
 3133TIP3   OH2 9362   2.548   6.023   1.545  0.2539  0.4947 -0.0470
 3133TIP3    H1 9363   2.602   5.962   1.595  0.4378  0.3427 -0.4260
 3133TIP3    H2 9364   2.459   6.008   1.578  0.2415 -0.2444 -0.3980
 3134TIP3   OH2 9365   6.837   5.814   5.156  0.5447  0.4623 -0.9800
 3134TIP3    H1 9366   6.827   5.816   5.061 -1.8034 -1.7961 -0.8826
 3134TIP3    H2 9367   6.927   5.784   5.170 -0.1295 -2.9016 -2.6780
 3135TIP3   OH2 9368   3.366   3.645   1.972  0.1485 -0.0804  0.0747
 3135TIP3    H1 9369   3.401   3.557   1.987 -0.5330 -0.8925 -2.5579
 3135TIP3    H2 9370   3.435   3.691   1.924 -0.1794  0.2228 -0.1153
 3136TIP3   OH2 9371   0.598   1.253   3.220  0.1861  0.1786  0.4735
 3136TIP3    H1 9372   0.689   1.224   3.222  0.1300  0.0204  0.7577
 3136TIP3    H2 9373   0.559   1.214   3.297 -0.6018 -1.2968 -0.6200
 3137TIP3   OH2 9374   4.024   2.894   5.389 -0.0973  0.4344  0.1756
 3137TIP3    H1 9375   4.118   2.886   5.401 -0.2394 -0.7447  0.6223
 3137TIP3    H2 9376   3.999   2.817   5.339 -0.8670  0.5853  0.3087
 3138TIP3   OH2 9377   4.509   1.694   4.407 -0.0798 -0.2963  0.3122
 3138TIP3    H1 9378   4.587   1.645   4.382 -0.4114 -0.4776 -0.3968
 3138TIP3    H2 9379   4.534   1.786   4.394 -0.0248 -0.3587 -0.0369
 3139TIP3   OH2 9380   4.675   3.294   5.609 -0.3898 -0.4320 -0.6351
 3139TIP3    H1 9381   4.620   3.317   5.534  0.6729 -0.3988 -1.4438
 3139TIP3    H2 9382   4.753   3.349   5.598 -0.4569 -0.0185  0.8207
 3140TIP3   OH2 9383   5.985   5.081   1.360 -0.0452 -0.3061  0.7248
 3140TIP3    H1 9384   6.060   5.037   1.320  0.5428 -1.5323  3.0119
 3140TIP3    H2 9385   5.929   5.010   1.391 -0.9861  0.5897  1.1500
 3141TIP3   OH2 9386   0.711   3.995   0.153 -0.4319  0.0256  0.5693
 3141TIP3    H1 9387   0.761   4.026   0.077 -1.0995 -0.6799 -0.1880
 3141TIP3    H2 9388   0.701   3.901   0.138  1.1010 -0.5283  2.5508
 3142TIP3   OH2 9389   0.879   3.984   3.138  0.2246  0.6385 -0.3997
 3142TIP3    H1 9390   0.941   4.021   3.075  0.6773 -0.4589 -0.6239
 3142TIP3    H2 9391   0.929   3.980   3.220  0.2332  0.3873 -0.4166
 3143TIP3   OH2 9392   4.645   3.689   2.573  0.1659 -0.0709 -0.3351
 3143TIP3    H1 9393   4.555   3.695   2.540 -1.2345 -2.5174  2.5210
 3143TIP3    H2 9394   4.656   3.597   2.595  2.5090  0.5673  1.5788
 3144TIP3   OH2 9395   5.567   4.196   1.911  0.5689  0.4844  0.4750
 3144TIP3    H1 9396   5.603   4.111   1.936 -1.4226 -0.5295  0.1131
 3144TIP3    H2 9397   5.546   4.238   1.994  0.5735  0.1709  0.6374
 3145TIP3   OH2 9398   0.628   3.577   0.550  0.1865  0.0533  0.1586
 3145TIP3    H1 9399   0.586   3.503   0.594  1.2558  0.1326  1.3686
 3145TIP3    H2 9400   0.677   3.620   0.619  3.1127 -0.6397 -1.3582
 3146TIP3   OH2 9401   1.015   2.024   1.007 -0.1254  0.1908 -0.2781
 3146TIP3    H1 9402   1.026   1.935   1.040 -0.9019  0.5973  1.1798
 3146TIP3    H2 9403   1.103   2.062   1.009  0.1228 -0.3688 -0.3997
 3147TIP3   OH2 9404   3.547   6.753   0.463 -0.5787 -0.2197 -0.8348
 3147TIP3    H1 9405   3.578   6.844   0.471  2.6293 -1.2315 -0.3772
 3147TIP3    H2 9406   3.574   6.727   0.375  0.2991 -1.2774 -0.2736
 3148TIP3   OH2 9407   3.338   3.925   5.535 -0.3625 -0.1889  0.0985
 3148TIP3    H1 9408   3.242   3.936   5.535 -0.2435  1.0848 -0.5957
 3148TIP3    H2 9409   3.359   3.910   5.443  0.1712  0.1904  0.1590
 3149TIP3   OH2 9410   3.373   1.805   1.068 -0.2048 -0.1064 -0.1061
 3149TIP3    H1 9411   3.360   1.860   0.991 -1.9481 -0.6429 -0.2301
 3149TIP3    H2 9412   3.286   1.797   1.107  0.4732 -0.6800  1.3467
 3150TIP3   OH2 9413   3.275   4.620   4.732 -0.0312  0.2964 -0.1251
 3150TIP3    H1 9414   3.264   4.589   4.822  2.1590  2.4944  1.0430
 3150TIP3    H2 9415   3.337   4.558   4.693  0.1697  0.1621  0.3942
 3151TIP3   OH2 9416   7.169   3.834   3.025  0.5869  0.5082 -0.0924
 3151TIP3    H1 9417   7.178   3.926   3.001 -0.7475  0.3572 -1.2987
 3151TIP3    H2 9418   7.255   3.796   3.006  0.4957  1.0549 -1.8458
 3152TIP3   OH2 9419   6.606   0.491   1.269  0.5159  0.0319 -0.5182
 3152TIP3    H1 9420   6.644   0.561   1.321 -1.9070  0.9709  0.1277
 3152TIP3    H2 9421   6.534   0.532   1.222 -1.0284 -1.9894 -0.0775
 3153TIP3   OH2 9422   2.076   0.989   0.199  0.0818  0.1425  0.1004
 3153TIP3    H1 9423   2.114   0.934   0.266 -0.3625 -0.9892 -0.5412
 3153TIP3    H2 9424   2.105   0.950   0.116 -1.3542  0.0340 -0.3828
 3154TIP3   OH2 9425   2.704   4.744   3.883 -0.3875 -0.0383 -1.3424
 3154TIP3    H1 9426   2.665   4.813   3.938  0.1991 -0.4625 -0.3765
 3154TIP3    H2 9427   2.797   4.765   3.881  0.3913 -2.5101  1.6419
 3155TIP3   OH2 9428   3.504   1.195   2.488  0.2104 -0.7168 -0.3417
 3155TIP3    H1 9429   3.486   1.289   2.489 -0.4462 -0.8250 -1.1248
 3155TIP3    H2 9430   3.581   1.185   2.432  0.2283 -0.6558 -0.3279
 3156TIP3   OH2 9431   5.203   1.185   0.669 -0.1213  0.0576  0.0862
 3156TIP3    H1 9432   5.231   1.183   0.577  1.8907 -0.1463  0.6587
 3156TIP3    H2 9433   5.130   1.247   0.670  0.0045  0.2914 -1.5959
 3157TIP3   OH2 9434   0.788   5.864   2.913 -0.7368 -0.2540 -0.0406
 3157TIP3    H1 9435   0.694   5.879   2.919 -0.6044  0.2290  1.0196
 3157TIP3    H2 9436   0.827   5.935   2.964  0.0888 -1.8458  1.6627
 3158TIP3   OH2 9437   6.075   6.078   0.505  0.7395  0.0808 -0.4898
 3158TIP3    H1 9438   6.127   6.000   0.522  0.7614  0.5228  1.7521
 3158TIP3    H2 9439   6.138   6.150   0.508  0.2482  0.4831  0.8162
 3159TIP3   OH2 9440   3.224   3.244   0.333  0.2841 -0.5254  0.6457
 3159TIP3    H1 9441   3.174   3.193   0.269  1.0956 -0.4182 -0.0839
 3159TIP3    H2 9442   3.315   3.230   0.310  0.5581  2.1299 -0.3056
 3160TIP3   OH2 9443   3.796   4.921   0.458  0.0896 -0.3336  0.0414
 3160TIP3    H1 9444   3.850   4.999   0.475  0.5905 -0.7817  0.5404
 3160TIP3    H2 9445   3.708   4.948   0.483  0.5598 -0.4928  2.0448
 3161TIP3   OH2 9446   0.460   3.747   3.711  0.6661  0.5266  1.2484
 3161TIP3    H1 9447   0.550   3.782   3.714  0.8764  0.0552  0.7104
 3161TIP3    H2 9448   0.427   3.757   3.800  0.6946  2.1499  1.1093
 3162TIP3   OH2 9449   1.603   3.199   3.745 -0.4767  0.4345 -0.4784
 3162TIP3    H1 9450   1.687   3.228   3.709 -0.1276  0.3594  0.2494
 3162TIP3    H2 9451   1.610   3.104   3.749 -0.5528  0.4344 -0.3244
 3163TIP3   OH2 9452   4.634   3.561   1.555  0.0399 -0.0038  0.6316
 3163TIP3    H1 9453   4.673   3.591   1.473 -3.0154 -0.4743 -1.1536
 3163TIP3    H2 9454   4.606   3.642   1.599 -0.1976  0.1705  0.1666
 3164TIP3   OH2 9455   2.297   4.753   5.385  0.3265  0.6181 -0.0033
 3164TIP3    H1 9456   2.233   4.681   5.387  0.3636  0.5700 -0.4172
 3164TIP3    H2 9457   2.331   4.757   5.474  0.3366  0.1076  0.0188
 3165TIP3   OH2 9458   5.962   6.139   1.740 -0.5627 -0.5986  0.1330
 3165TIP3    H1 9459   6.040   6.109   1.693  0.1923  1.5665 -0.1076
 3165TIP3    H2 9460   5.892   6.134   1.676 -0.1513 -0.4529 -0.3360
 3166TIP3   OH2 9461   2.027   3.161   0.083 -0.1328  0.3813 -0.5179
 3166TIP3    H1 9462   2.085   3.169   0.007  2.0373  0.2296  1.0181
 3166TIP3    H2 9463   1.993   3.072   0.077  2.1505 -0.6055  0.0446
 3167TIP3   OH2 9464   1.137   3.407   3.556  0.2291 -0.0261  0.4668
 3167TIP3    H1 9465   1.202   3.392   3.487 -0.0019 -1.1489  0.4851
 3167TIP3    H2 9466   1.099   3.492   3.534  1.2030  0.3176  0.0549
 3168TIP3   OH2 9467   4.045   0.628   5.578 -0.9231  0.3426 -0.4193
 3168TIP3    H1 9468   4.047   0.722   5.594 -0.9967  0.3342 -0.3595
 3168TIP3    H2 9469   4.119   0.593   5.628 -2.7992 -0.0486  2.3107
 3169TIP3   OH2 9470   4.175   1.610   1.760  0.2409 -0.8701 -0.0484
 3169TIP3    H1 9471   4.263   1.640   1.737 -0.4283 -0.1958 -1.9330
 3169TIP3    H2 9472   4.176   1.516   1.738  0.8597 -1.1889  1.2271
 3170TIP3   OH2 9473   4.084   5.949   2.043  0.0603  0.0648  0.0319
 3170TIP3    H1 9474   4.008   5.999   2.073  0.9196  0.7784  1.1408
 3170TIP3    H2 9475   4.047   5.877   1.992 -1.3338  0.5907  0.2462
 3171TIP3   OH2 9476   5.865   0.368   1.222 -0.2872  0.0998 -0.8317
 3171TIP3    H1 9477   5.816   0.287   1.236 -0.9707  0.4430 -1.1976
 3171TIP3    H2 9478   5.955   0.346   1.245 -0.4194 -0.8397 -1.1895
 3172TIP3   OH2 9479   5.847   2.769   1.621 -1.0413 -1.5386 -0.4672
 3172TIP3    H1 9480   5.789   2.845   1.627 -0.4882 -1.1996  2.0980
 3172TIP3    H2 9481   5.893   2.779   1.538 -2.1522  0.0589 -0.9237
 3173TIP3   OH2 9482   5.105   0.254   3.259 -0.6826 -0.1347 -0.5349
 3173TIP3    H1 9483   5.121   0.335   3.211 -2.3036  0.0364 -0.8321
 3173TIP3    H2 9484   5.122   0.185   3.195  4.3545 -0.3597  0.6531
 3174TIP3   OH2 9485   3.645   4.272   0.876  0.2944 -0.0886 -0.7055
 3174TIP3    H1 9486   3.698   4.247   0.952  0.2612  0.0249 -0.6436
 3174TIP3    H2 9487   3.657   4.367   0.869  1.5243 -0.3071 -1.7888
 3175TIP3   OH2 9488   0.124   1.626   2.426  0.3861 -0.4496  0.0474
 3175TIP3    H1 9489   0.205   1.663   2.392  0.5879 -1.8074 -1.0235
 3175TIP3    H2 9490   0.139   1.619   2.521  1.6848 -1.0448 -0.1844
 3176TIP3   OH2 9491   2.216   4.545   2.814 -0.4107 -0.3231 -0.1099
 3176TIP3    H1 9492   2.305   4.552   2.846 -0.4370 -1.4923  0.2901
 3176TIP3    H2 9493   2.207   4.453   2.789 -1.1411  0.0362 -1.2501
 3177TIP3   OH2 9494   6.223   5.233   4.820 -0.4170  0.2008 -0.0639
 3177TIP3    H1 9495   6.279   5.207   4.893 -1.1017 -1.5664 -0.1110
 3177TIP3    H2 9496   6.141   5.261   4.861 -0.6493 -0.3804 -0.1210
 3178TIP3   OH2 9497   1.033   0.123   4.541 -0.7739 -0.4619  0.5750
 3178TIP3    H1 9498   1.085   0.065   4.485  0.4303  0.0457  1.1328
 3178TIP3    H2 9499   1.018   0.201   4.488  2.2415  0.9494  1.6148
 3179TIP3   OH2 9500   1.527   6.005   5.227 -0.0423  0.4629 -0.2142
 3179TIP3    H1 9501   1.437   6.037   5.214  0.6008  2.6803  0.2558
 3179TIP3    H2 9502   1.578   6.052   5.161  0.9150 -0.0505  0.1428
 3180TIP3   OH2 9503   6.036   4.339   2.824 -0.1174 -0.4468 -0.0823
 3180TIP3    H1 9504   5.975   4.285   2.775  2.3148 -1.4413 -2.2513
 3180TIP3    H2 9505   5.988   4.419   2.843 -1.8820 -0.8910 -2.2674
 3181TIP3   OH2 9506   4.548   6.186   1.382  0.2222 -0.1618  0.2417
 3181TIP3    H1 9507   4.641   6.191   1.362 -0.3447 -1.3955 -3.6037
 3181TIP3    H2 9508   4.534   6.097   1.414  0.1204 -0.8084 -1.4840
 3182TIP3   OH2 9509   0.708   1.673   0.996  0.0236  0.2628  0.2722
 3182TIP3    H1 9510   0.749   1.664   0.910  0.8530  0.6056  0.6207
 3182TIP3    H2 9511   0.617   1.649   0.982  0.8651 -3.2642  0.0438
 3183TIP3   OH2 9512   0.844   3.417   3.779  0.6563 -0.0332 -0.2648
 3183TIP3    H1 9513   0.775   3.372   3.828  1.4110  0.1217  0.9716
 3183TIP3    H2 9514   0.920   3.360   3.787  1.5982  1.3633  1.2171
 3184TIP3   OH2 9515   0.499   5.594   2.041 -0.0679 -0.1902 -0.4439
 3184TIP3    H1 9516   0.411   5.599   2.004 -0.0089  1.4985 -0.4215
 3184TIP3    H2 9517   0.544   5.528   1.988 -0.9022 -0.0049 -1.4036
 3185TIP3   OH2 9518   0.980   5.987   3.427 -0.0740 -0.2135  0.0464
 3185TIP3    H1 9519   1.014   6.076   3.428  0.1354 -0.2543  2.3388
 3185TIP3    H2 9520   0.890   5.995   3.397  0.4254  0.5136 -1.3747
 3186TIP3   OH2 9521   5.614   1.285   1.374 -0.2826  0.2200  0.3223
 3186TIP3    H1 9522   5.636   1.216   1.437  2.0279  2.1302  1.7966
 3186TIP3    H2 9523   5.694   1.297   1.323 -0.9751  1.1083 -0.5969
 3187TIP3   OH2 9524   2.871   3.684   3.141  0.0382 -0.2220 -0.1584
 3187TIP3    H1 9525   2.907   3.771   3.159  0.2534 -0.0884 -1.1725
 3187TIP3    H2 9526   2.899   3.631   3.216  2.2123 -0.0627 -0.7898
 3188TIP3   OH2 9527   1.156   6.720   3.129  0.1739 -0.4724 -0.5411
 3188TIP3    H1 9528   1.214   6.675   3.068 -0.7325 -0.6178 -1.3132
 3188TIP3    H2 9529   1.138   6.804   3.088 -0.9063 -0.8003 -0.7665
 3189TIP3   OH2 9530   4.082   1.344   4.787  0.1172 -1.2318  0.0879
 3189TIP3    H1 9531   4.039   1.266   4.822  0.2550 -1.5986 -0.5485
 3189TIP3    H2 9532   4.106   1.320   4.698  2.0677 -1.1964  0.5748
 3190TIP3   OH2 9533   0.216   5.583   2.170 -0.9779 -0.4522 -0.0412
 3190TIP3    H1 9534   0.181   5.494   2.171  0.1651 -0.9595 -1.7862
 3190TIP3    H2 9535   0.305   5.574   2.205 -1.0833  0.1227  0.3875
 3191TIP3   OH2 9536   3.634   1.726   0.961 -0.3525  0.2528  0.5114
 3191TIP3    H1 9537   3.582   1.662   1.009  0.0711 -0.1212  0.4885
 3191TIP3    H2 9538   3.576   1.757   0.891  0.0941 -1.6824 -0.7869
 3192TIP3   OH2 9539   1.058   5.423   1.300 -0.2075  0.0566 -0.3597
 3192TIP3    H1 9540   1.077   5.497   1.356 -0.2908  0.6408 -1.0909
 3192TIP3    H2 9541   1.063   5.347   1.358  1.7989  0.4160  0.0041
 3193TIP3   OH2 9542   4.748   3.373   5.133  0.2023 -0.1400 -0.9403
 3193TIP3    H1 9543   4.723   3.354   5.042 -1.0546  0.3240 -0.7075
 3193TIP3    H2 9544   4.682   3.435   5.164  0.8547  0.0273  0.1674
 3194TIP3   OH2 9545   3.172   3.854   1.889  0.6023  0.3664  0.3840
 3194TIP3    H1 9546   3.193   3.768   1.926 -3.1855 -0.8161  0.1990
 3194TIP3    H2 9547   3.179   3.842   1.794  0.5050  0.3729  0.3756
 3195TIP3   OH2 9548   1.481   0.748   1.824  0.3477  0.1194  0.0613
 3195TIP3    H1 9549   1.392   0.782   1.829 -0.0684 -1.0081  0.4726
 3195TIP3    H2 9550   1.525   0.783   1.902 -0.3123 -0.9262  0.9212
 3196TIP3   OH2 9551   4.335   3.980   0.197  0.1809 -0.1722  0.4872
 3196TIP3    H1 9552   4.419   4.022   0.215  0.7365 -0.8362 -0.4321
 3196TIP3    H2 9553   4.352   3.886   0.206 -0.4644 -0.3148  0.2996
 3197TIP3   OH2 9554   7.144   1.360   5.265  0.3453  0.2682 -0.1216
 3197TIP3    H1 9555   7.091   1.315   5.331  0.3294  0.5412  0.0569
 3197TIP3    H2 9556   7.134   1.308   5.186 -0.0843  0.2406 -0.0521
 3198TIP3   OH2 9557   3.832   6.115   5.840 -0.0208 -0.0479  0.1336
 3198TIP3    H1 9558   3.766   6.148   5.900  0.4102 -1.0572  1.2126
 3198TIP3    H2 9559   3.854   6.028   5.875  2.5272  0.6176  0.3964
 3199TIP3   OH2 9560   5.118   4.754  -0.009 -0.0795  0.2929 -0.3190
 3199TIP3    H1 9561   5.102   4.838   0.032 -0.6934  0.7537 -1.4775
 3199TIP3    H2 9562   5.047   4.698   0.021 -0.0003  0.3513 -0.0196
 3200TIP3   OH2 9563   6.425   4.011   4.238  0.0707  0.1783 -0.4350
 3200TIP3    H1 9564   6.353   3.957   4.272 -0.5496  1.7494  0.8631
 3200TIP3    H2 9565   6.395   4.101   4.249  1.9515  0.8683 -0.5697
 3201TIP3   OH2 9566   4.693   4.442   1.441  0.0176  0.4636  0.2892
 3201TIP3    H1 9567   4.684   4.356   1.482 -1.1965 -0.7802 -2.3625
 3201TIP3    H2 9568   4.615   4.490   1.468 -0.5789 -0.1943 -0.2418
 3202TIP3   OH2 9569   0.528   4.805   0.107  0.0742  0.8148 -0.1855
 3202TIP3    H1 9570   0.564   4.789   0.193  2.0517  0.2788 -1.0656
 3202TIP3    H2 9571   0.433   4.802   0.119  0.2703  2.0724  2.1847
 3203TIP3   OH2 9572   5.251   0.739   5.500  0.0557 -0.9227  0.6419
 3203TIP3    H1 9573   5.188   0.673   5.528 -1.5951  0.4894  0.3971
 3203TIP3    H2 9574   5.329   0.722   5.554 -0.9320 -1.9816  1.7902
 3204TIP3   OH2 9575   6.348   3.879   0.955 -0.9969 -0.5408  0.0852
 3204TIP3    H1 9576   6.329   3.812   0.889 -1.3770 -1.0160  0.6598
 3204TIP3    H2 9577   6.266   3.928   0.965 -1.3163 -1.2239  1.0303
 3205TIP3   OH2 9578   4.626   2.709   4.817  0.2341  0.2063 -0.4782
 3205TIP3    H1 9579   4.710   2.663   4.811  0.8057  1.1412  0.0381
 3205TIP3    H2 9580   4.616   2.727   4.910 -1.2914 -1.2063 -0.3367
 3206TIP3   OH2 9581   1.555   4.426   3.428 -0.0053 -0.2307 -0.2731
 3206TIP3    H1 9582   1.472   4.426   3.380  0.3874  1.9143 -1.0997
 3206TIP3    H2 9583   1.579   4.519   3.434  0.8426 -0.5372  2.6400
 3207TIP3   OH2 9584   0.243   0.322   1.676 -0.6412  0.5349 -0.1496
 3207TIP3    H1 9585   0.193   0.274   1.742 -0.3404  1.0996  0.5041
 3207TIP3    H2 9586   0.332   0.323   1.710 -0.2462 -0.1098 -1.1049
 3208TIP3   OH2 9587   5.860   4.738   4.482  0.2330  0.0693 -0.0253
 3208TIP3    H1 9588   5.776   4.703   4.512  0.6148  0.2436  1.3076
 3208TIP3    H2 9589   5.924   4.706   4.546  0.8123  1.9271  0.3894
 3209TIP3   OH2 9590   1.708   3.521   4.574 -0.3158  0.1190 -1.1060
 3209TIP3    H1 9591   1.619   3.506   4.542 -1.0241  1.8403 -0.0462
 3209TIP3    H2 9592   1.731   3.607   4.541  1.8177 -1.1082 -3.0963
 3210TIP3   OH2 9593   4.519   2.940   5.313  0.3124 -0.4516  0.3682
 3210TIP3    H1 9594   4.472   2.863   5.344  0.4657 -0.3546  0.8476
 3210TIP3    H2 9595   4.495   3.009   5.374  1.3785 -0.4932  0.8666
 3211TIP3   OH2 9596   2.656   5.344   3.336  0.2016 -0.0148 -0.3216
 3211TIP3    H1 9597   2.634   5.255   3.361 -0.4592 -0.2117 -1.5360
 3211TIP3    H2 9598   2.685   5.386   3.417 -0.4146 -1.0470  0.4445
 3212TIP3   OH2 9599   0.120   2.683   4.537 -0.2796  0.2362  0.7077
 3212TIP3    H1 9600   0.134   2.776   4.521 -0.5183  0.0988 -0.3675
 3212TIP3    H2 9601   0.083   2.649   4.456 -2.7874 -0.2754  1.9454
 3213TIP3   OH2 9602   3.795   0.911   1.278  0.2340 -0.7454 -0.6653
 3213TIP3    H1 9603   3.768   0.939   1.190 -0.6480 -1.5141 -0.6638
 3213TIP3    H2 9604   3.734   0.840   1.299  0.6470 -0.7815  0.4406
 3214TIP3   OH2 9605   0.805   3.536   4.374  0.2947 -0.4071 -0.2755
 3214TIP3    H1 9606   0.724   3.565   4.333 -1.1377 -0.4423  2.3314
 3214TIP3    H2 9607   0.819   3.598   4.445  3.4672  0.5102 -1.5243
 3215TIP3   OH2 9608   1.893   3.091   5.758 -0.5577 -0.2629  0.1209
 3215TIP3    H1 9609   1.982   3.125   5.761 -0.8632  0.5599  0.2169
 3215TIP3    H2 9610   1.837   3.169   5.763 -1.2904 -0.6202 -1.6500
 3216TIP3   OH2 9611   2.432   4.408   2.590  0.1333  0.3286 -0.6337
 3216TIP3    H1 9612   2.467   4.348   2.655 -0.2259 -1.1534 -1.7625
 3216TIP3    H2 9613   2.452   4.495   2.625  0.3724 -0.4188  1.1991
 3217TIP3   OH2 9614   2.299   5.206   5.782 -0.4311 -0.2779 -0.6195
 3217TIP3    H1 9615   2.256   5.288   5.757  0.6098  0.3456 -0.4086
 3217TIP3    H2 9616   2.392   5.225   5.779 -0.1812 -1.2610  0.1114
 3218TIP3   OH2 9617   0.766   4.686   4.956 -0.5296 -0.2298 -0.5610
 3218TIP3    H1 9618   0.738   4.713   5.044 -0.5268 -0.1303 -0.5908
 3218TIP3    H2 9619   0.860   4.674   4.963 -0.2187  1.6843 -1.0339
 3219TIP3   OH2 9620   2.308   4.767   4.078  0.3770  0.2173 -0.3769
 3219TIP3    H1 9621   2.235   4.707   4.093 -1.3324  2.1027 -0.7043
 3219TIP3    H2 9622   2.355   4.770   4.161 -1.5147  0.9601  0.7182
 3220TIP3   OH2 9623   1.386   0.484   4.577  0.6335  0.6890 -0.1342
 3220TIP3    H1 9624   1.438   0.405   4.593  0.4934  0.6554  0.1678
 3220TIP3    H2 9625   1.408   0.510   4.488  1.0402  0.5795 -0.0669
 3221TIP3   OH2 9626   5.464   1.682   2.907 -0.1948 -0.1501  0.0262
 3221TIP3    H1 9627   5.509   1.762   2.935  0.2965 -0.6478  0.6887
 3221TIP3    H2 9628   5.414   1.654   2.984  0.5013 -1.0698  0.1560
 3222TIP3   OH2 9629   0.185   0.222   0.694 -0.3765  0.2504  0.0633
 3222TIP3    H1 9630   0.252   0.176   0.643 -0.6588  1.2487 -1.2804
 3222TIP3    H2 9631   0.208   0.205   0.785  0.1487 -1.6120 -0.3721
 3223TIP3   OH2 9632   1.874   3.097   1.223  0.0764 -0.3435 -0.3451
 3223TIP3    H1 9633   1.791   3.144   1.231 -1.3444 -2.8177  0.2254
 3223TIP3    H2 9634   1.927   3.130   1.296 -0.6450  0.7530 -0.2961
 3224TIP3   OH2 9635   4.144   2.286   3.549 -0.1048  0.2606  0.5197
 3224TIP3    H1 9636   4.191   2.297   3.632  1.6075  0.1100 -0.3877
 3224TIP3    H2 9637   4.169   2.363   3.498  0.3031 -0.5346 -0.5106
 3225TIP3   OH2 9638   0.090   1.942   4.517  0.1878  0.1158  0.0461
 3225TIP3    H1 9639   0.009   1.983   4.487 -0.3080  0.4117  1.7011
 3225TIP3    H2 9640   0.066   1.851   4.533  0.7947 -0.3950 -1.6855
 3226TIP3   OH2 9641   4.482   6.571   4.700  0.3749  0.3854  0.2411
 3226TIP3    H1 9642   4.386   6.570   4.696  0.4240 -0.3817 -1.2944
 3226TIP3    H2 9643   4.505   6.482   4.725  0.7426 -0.5388 -2.9325
 3227TIP3   OH2 9644   6.711   4.153   2.555 -0.0267  0.1310  0.4569
 3227TIP3    H1 9645   6.684   4.073   2.508  3.0875 -1.9709  1.9551
 3227TIP3    H2 9646   6.662   4.149   2.637 -2.6572  1.8622 -0.8799
 3228TIP3   OH2 9647   0.380   1.693   4.134 -0.9860 -0.5844  0.3318
 3228TIP3    H1 9648   0.461   1.730   4.099 -0.1884 -1.3189  1.3717
 3228TIP3    H2 9649   0.330   1.769   4.163 -0.4709 -0.1580  0.1278
 3229TIP3   OH2 9650   4.916   6.482   5.062  0.5070  0.3453 -0.2678
 3229TIP3    H1 9651   4.864   6.550   5.104 -1.3575 -0.2018 -1.5837
 3229TIP3    H2 9652   4.909   6.500   4.968  0.6770 -1.1638 -0.5963
 3230TIP3   OH2 9653   0.317   0.596   4.688 -0.0928  0.0634 -0.0930
 3230TIP3    H1 9654   0.356   0.558   4.609 -0.0150  0.9192 -0.4699
 3230TIP3    H2 9655   0.392   0.629   4.737 -0.3649  3.8485 -1.9033
 3231TIP3   OH2 9656   4.261   2.850   1.643 -0.5123 -0.2739  0.6682
 3231TIP3    H1 9657   4.235   2.820   1.556  0.7051 -1.0221  0.5509
 3231TIP3    H2 9658   4.322   2.783   1.675  0.8456  1.1362  1.1487
 3232TIP3   OH2 9659   2.807   3.905   1.688 -0.5838 -0.0725 -0.0071
 3232TIP3    H1 9660   2.737   3.863   1.738 -0.4916  0.3130  0.4552
 3232TIP3    H2 9661   2.769   3.921   1.602 -0.6053 -1.1389 -0.2073
 3233TIP3   OH2 9662   1.424   3.597   4.063 -0.0263  0.1840 -0.0526
 3233TIP3    H1 9663   1.455   3.654   4.134 -2.1495  0.7003  0.5408
 3233TIP3    H2 9664   1.414   3.656   3.988  0.4819 -0.0059 -0.2778
 3234TIP3   OH2 9665   5.296   6.709   2.907 -0.1815 -0.2413 -0.7150
 3234TIP3    H1 9666   5.254   6.667   2.983 -1.6048  1.2599 -0.5934
 3234TIP3    H2 9667   5.349   6.640   2.867 -2.2693 -2.1178 -0.4601
 3235TIP3   OH2 9668   1.566   3.857   5.460 -0.3584 -0.1217  0.2574
 3235TIP3    H1 9669   1.590   3.821   5.545 -2.5132 -0.0548  0.9472
 3235TIP3    H2 9670   1.480   3.820   5.440  0.2207 -0.4046 -2.0799
 3236TIP3   OH2 9671   6.858   1.754   5.245 -0.3789  0.2721  0.0136
 3236TIP3    H1 9672   6.938   1.703   5.230 -1.1331 -0.8091 -0.5086
 3236TIP3    H2 9673   6.803   1.697   5.298 -1.2887  0.4852 -0.6707
 3237TIP3   OH2 9674   6.186   5.219   3.726  0.5500 -0.2375  0.1089
 3237TIP3    H1 9675   6.258   5.176   3.772 -0.6776 -0.1671  2.2374
 3237TIP3    H2 9676   6.228   5.261   3.650  2.4920 -1.3354  0.4991
 3238TIP3   OH2 9677   7.139   6.379   3.441  0.4545  0.7574  0.2517
 3238TIP3    H1 9678   7.153   6.350   3.532 -0.2362  0.6083  0.3157
 3238TIP3    H2 9679   7.108   6.301   3.396  0.3408  0.9530 -0.0097
 3239TIP3   OH2 9680   3.422   6.193   0.633 -0.4232 -0.1932 -0.6342
 3239TIP3    H1 9681   3.420   6.153   0.546 -1.7295  0.3871 -0.9015
 3239TIP3    H2 9682   3.427   6.287   0.616  1.2022 -0.1421 -0.0336
 3240TIP3   OH2 9683   6.372   3.450   2.313  0.1900  0.0007 -0.0279
 3240TIP3    H1 9684   6.424   3.384   2.360  0.8867 -0.1634 -0.9990
 3240TIP3    H2 9685   6.309   3.399   2.262 -0.0342  0.1423  0.1053
 3241TIP3   OH2 9686   3.449   5.527   2.816  0.0715  0.0097 -0.2831
 3241TIP3    H1 9687   3.366   5.499   2.854 -1.1962  1.4240 -1.8264
 3241TIP3    H2 9688   3.511   5.456   2.836 -0.5353  0.3893  3.8949
 3242TIP3   OH2 9689   4.870   4.086   5.488  0.1838  0.2858  0.6085
 3242TIP3    H1 9690   4.899   3.998   5.515 -1.0463 -0.4040 -0.2397
 3242TIP3    H2 9691   4.931   4.111   5.419 -0.0169 -0.3128  0.2031
 3243TIP3   OH2 9692   0.184   0.451   3.451 -0.0098  0.0353 -0.4187
 3243TIP3    H1 9693   0.091   0.460   3.469 -0.1513 -0.8790 -0.6811
 3243TIP3    H2 9694   0.188   0.406   3.367  0.6644  1.3207 -1.1063
 3244TIP3   OH2 9695   1.552   1.164   1.920  0.0396 -0.4047  0.0508
 3244TIP3    H1 9696   1.472   1.123   1.953 -0.5962  1.9967  1.7710
 3244TIP3    H2 9697   1.548   1.254   1.952  1.4730  1.0029 -3.2460
 3245TIP3   OH2 9698   3.094   6.690   1.206 -0.7117 -0.3725  0.3552
 3245TIP3    H1 9699   3.091   6.679   1.301 -0.7722 -2.0260  0.1796
 3245TIP3    H2 9700   3.071   6.782   1.193  0.8510  0.3173  2.0115
 3246TIP3   OH2 9701   6.553   3.036   3.177  0.4218 -0.0753  0.1045
 3246TIP3    H1 9702   6.609   2.963   3.149 -0.3319 -1.5438  2.1258
 3246TIP3    H2 9703   6.613   3.097   3.219  0.9639  0.1156 -0.9144
 3247TIP3   OH2 9704   5.740   5.025   5.293 -0.2270  0.7240 -0.1383
 3247TIP3    H1 9705   5.784   5.054   5.373  0.2402 -2.4387  0.8992
 3247TIP3    H2 9706   5.794   5.058   5.222  1.6657  0.2166  1.0135
 3248TIP3   OH2 9707   0.731   4.076   3.633 -0.4344 -0.2628 -0.1070
 3248TIP3    H1 9708   0.735   3.987   3.667 -0.8651 -0.7212 -1.2105
 3248TIP3    H2 9709   0.641   4.104   3.649 -0.2399  0.0672  0.4400
 3249TIP3   OH2 9710   7.095   2.365   1.077 -0.2630  0.4275  0.0520
 3249TIP3    H1 9711   7.059   2.279   1.057  1.7713 -0.7798  1.2441
 3249TIP3    H2 9712   7.048   2.393   1.156 -0.0172 -0.1895  0.4198
 3250TIP3   OH2 9713   1.527   1.422   0.746 -0.2168  0.7653 -0.0686
 3250TIP3    H1 9714   1.577   1.402   0.667 -0.6758  0.0671 -0.1941
 3250TIP3    H2 9715   1.489   1.509   0.729 -0.7244  0.4035 -0.8341
 3251TIP3   OH2 9716   4.661   1.908   4.622  0.2975 -0.0601  0.1611
 3251TIP3    H1 9717   4.670   1.812   4.618 -1.0808 -0.1865 -1.8849
 3251TIP3    H2 9718   4.581   1.922   4.673  0.3902 -0.0208  0.2940
 3252TIP3   OH2 9719   3.729   0.668   4.540  0.4264 -0.0065 -0.3559
 3252TIP3    H1 9720   3.722   0.574   4.557  0.2211 -0.2197 -1.4949
 3252TIP3    H2 9721   3.774   0.704   4.616  1.1162 -1.1344 -0.2172
 3253TIP3   OH2 9722   2.986   2.377   3.716 -0.0445  0.2747 -0.4392
 3253TIP3    H1 9723   3.046   2.305   3.695 -2.0055 -1.3389 -0.7437
 3253TIP3    H2 9724   2.967   2.418   3.632 -1.3287 -0.8534 -0.7288
 3254TIP3   OH2 9725   3.312   3.575   5.585 -0.1904 -0.3114 -0.1698
 3254TIP3    H1 9726   3.397   3.608   5.615 -1.1473  0.2170  2.1887
 3254TIP3    H2 9727   3.319   3.480   5.590  0.5195 -0.3024 -0.8330
 3255TIP3   OH2 9728   5.403   3.277   4.912  0.6789  0.1562 -0.4380
 3255TIP3    H1 9729   5.382   3.310   4.999  1.9358  2.3355 -0.8859
 3255TIP3    H2 9730   5.492   3.241   4.920  0.0391 -1.5388 -0.4056
 3256TIP3   OH2 9731   5.895   3.617   0.252  0.4737  0.2322 -0.1422
 3256TIP3    H1 9732   5.922   3.544   0.307  1.0686 -0.5211 -1.3818
 3256TIP3    H2 9733   5.821   3.583   0.201  0.5660  0.5915 -0.5193
 3257TIP3   OH2 9734   4.411   0.180   2.980  0.0161  0.4744 -0.2807
 3257TIP3    H1 9735   4.383   0.250   2.920 -0.5609 -0.7946 -1.5618
 3257TIP3    H2 9736   4.399   0.100   2.929  1.7102 -0.4831  0.7711
 3258TIP3   OH2 9737   4.506   4.372   2.631  0.1014 -0.2759  0.0201
 3258TIP3    H1 9738   4.534   4.282   2.613 -0.1237 -0.0020 -1.8164
 3258TIP3    H2 9739   4.542   4.391   2.718  1.0244 -1.7730 -0.0019
 3259TIP3   OH2 9740   1.142   1.719   0.076 -0.2189  0.3649 -0.3388
 3259TIP3    H1 9741   1.170   1.716   0.168 -2.2764 -0.5403  0.3161
 3259TIP3    H2 9742   1.198   1.785   0.036  2.5575 -1.0696  0.8995
 3260TIP3   OH2 9743   6.160   5.892   5.003  0.4282  0.2126  0.3535
 3260TIP3    H1 9744   6.069   5.863   5.003  0.1049  1.1881 -0.4725
 3260TIP3    H2 9745   6.166   5.949   5.080  0.4352 -0.1122  0.5975
 3261TIP3   OH2 9746   4.574   5.542   1.642 -0.1282  0.6818 -0.0341
 3261TIP3    H1 9747   4.575   5.492   1.724 -0.3478  0.0098 -0.4338
 3261TIP3    H2 9748   4.490   5.589   1.644 -0.8738 -0.5678 -0.5832
 3262TIP3   OH2 9749   7.220   3.735   1.351  0.2070  0.7486 -0.2101
 3262TIP3    H1 9750   7.232   3.685   1.432 -1.6066  1.6290  0.6801
 3262TIP3    H2 9751   7.152   3.799   1.373 -0.3671  0.9973 -2.4545
 3263TIP3   OH2 9752   1.035   3.640   5.532 -0.6685 -0.1604  0.2563
 3263TIP3    H1 9753   0.968   3.671   5.593  0.3571  0.9834  0.8481
 3263TIP3    H2 9754   1.036   3.705   5.462 -0.3728 -0.3160  0.1121
 3264TIP3   OH2 9755   3.334   5.143   3.394 -0.0225  0.0257  0.0382
 3264TIP3    H1 9756   3.398   5.147   3.323  0.0274 -2.1538 -0.1047
 3264TIP3    H2 9757   3.338   5.053   3.425 -1.5047  0.3975  1.4637
 3265TIP3   OH2 9758   5.091   3.259   1.201 -0.2659  0.4352  0.6128
 3265TIP3    H1 9759   5.013   3.302   1.165 -1.8597 -2.0528  0.8713
 3265TIP3    H2 9760   5.071   3.247   1.294  1.4930  1.8322  1.2549
 3266TIP3   OH2 9761   2.012   1.374   0.489 -0.4054 -0.1852 -0.2674
 3266TIP3    H1 9762   2.017   1.295   0.543 -0.6601  0.5719  0.8842
 3266TIP3    H2 9763   2.094   1.421   0.505  0.0164 -0.4807 -1.4154
 3267TIP3   OH2 9764   4.793   3.428   0.508  0.6409 -0.1266  0.5880
 3267TIP3    H1 9765   4.863   3.364   0.496  1.1768  0.4142  0.7928
 3267TIP3    H2 9766   4.828   3.509   0.472 -0.4243 -0.1792 -0.6266
 3268TIP3   OH2 9767   7.049   4.653   2.671  0.1864 -0.2157  0.1664
 3268TIP3    H1 9768   7.117   4.587   2.657 -0.6508 -1.2985  0.9981
 3268TIP3    H2 9769   7.088   4.715   2.733 -0.0961 -1.7401  1.9606
 3269TIP3   OH2 9770   5.028   5.616   5.057 -0.3037  0.7055  0.3438
 3269TIP3    H1 9771   4.948   5.607   5.109  0.3535  0.0868  1.2603
 3269TIP3    H2 9772   5.056   5.526   5.041  0.2269  0.9224  0.0263
 3270TIP3   OH2 9773   5.770   4.697   5.396  0.4861 -0.6013 -0.1594
 3270TIP3    H1 9774   5.727   4.678   5.312 -0.1494 -0.1818  0.0682
 3270TIP3    H2 9775   5.770   4.613   5.442  1.1735 -0.9218 -0.7258
 3271TIP3   OH2 9776   5.253   0.634   0.299 -0.2258 -0.1206 -0.2803
 3271TIP3    H1 9777   5.223   0.714   0.343  1.7603  0.3766  0.2871
 3271TIP3    H2 9778   5.241   0.652   0.205  0.7509  1.1241 -0.1944
 3272TIP3   OH2 9779   4.749   1.311   2.854 -0.2258 -0.3114  0.4479
 3272TIP3    H1 9780   4.842   1.300   2.834 -0.3420 -0.5903  0.0334
 3272TIP3    H2 9781   4.712   1.224   2.841 -0.3026 -0.5336  2.0194
 3273TIP3   OH2 9782   2.156   3.261   2.489 -0.9449  0.1431 -0.0541
 3273TIP3    H1 9783   2.245   3.257   2.454 -0.8178  0.7410  0.1870
 3273TIP3    H2 9784   2.105   3.205   2.431 -0.0611 -1.7112  0.8724
 3274TIP3   OH2 9785   0.725   1.480   4.494  0.2193 -0.2115 -0.4194
 3274TIP3    H1 9786   0.707   1.442   4.409  1.0516 -2.2561  0.2583
 3274TIP3    H2 9787   0.790   1.548   4.477  1.6737 -1.7379 -1.2725
 3275TIP3   OH2 9788   1.300   2.822   4.222 -0.2730  0.2720 -0.1282
 3275TIP3    H1 9789   1.225   2.787   4.173 -0.0887  0.1484 -0.3226
 3275TIP3    H2 9790   1.361   2.852   4.154  0.4770 -0.9126  0.0055
 3276TIP3   OH2 9791   4.170   3.721   3.478 -0.0033 -0.0125 -1.2847
 3276TIP3    H1 9792   4.178   3.663   3.403  1.0068 -2.1875  0.4052
 3276TIP3    H2 9793   4.260   3.736   3.506 -0.3826 -2.2636  1.6033
 3277TIP3   OH2 9794   0.203   5.876   4.087  0.1203  0.1635 -0.4169
 3277TIP3    H1 9795   0.181   5.960   4.048 -0.5254  0.7992  1.1927
 3277TIP3    H2 9796   0.213   5.816   4.013 -2.7080  0.8620 -1.5094
 3278TIP3   OH2 9797   3.601   4.284   2.414 -0.6318  0.2066  0.6328
 3278TIP3    H1 9798   3.681   4.278   2.363 -0.1790  0.7484  1.2590
 3278TIP3    H2 9799   3.549   4.209   2.386 -0.0218 -0.0017  0.0288
 3279TIP3   OH2 9800   6.558   3.081   2.785  0.3293 -0.3811  0.5171
 3279TIP3    H1 9801   6.627   3.142   2.759  0.6778 -0.9289  0.1107
 3279TIP3    H2 9802   6.513   3.124   2.857  0.0216  0.7199 -0.3154
 3280TIP3   OH2 9803   5.961   6.019   2.114  0.6741  0.3451 -0.1615
 3280TIP3    H1 9804   5.883   5.976   2.081  0.5242  0.5372 -0.0575
 3280TIP3    H2 9805   6.034   5.973   2.071  0.6344 -1.5039  1.5732
 3281TIP3   OH2 9806   0.319   2.451   3.788  0.3068 -0.1398  0.0897
 3281TIP3    H1 9807   0.358   2.531   3.752 -0.5699 -0.0537 -0.7018
 3281TIP3    H2 9808   0.385   2.418   3.849  1.3660  0.3149 -0.7772
 3282TIP3   OH2 9809   4.939   0.521   3.707 -0.3817 -0.5298  0.5279
 3282TIP3    H1 9810   5.023   0.539   3.664 -1.1461 -0.4694 -1.0325
 3282TIP3    H2 9811   4.948   0.433   3.743  0.4692 -0.3819  0.6776
 3283TIP3   OH2 9812   4.096   4.774   1.798  0.1369  0.2505 -0.1563
 3283TIP3    H1 9813   4.031   4.770   1.727  0.0446  0.8283 -0.1104
 3283TIP3    H2 9814   4.147   4.693   1.789 -0.5552 -0.1837 -0.2244
 3284TIP3   OH2 9815   4.122   5.904   4.300  0.0225 -0.2284 -0.5599
 3284TIP3    H1 9816   4.118   5.853   4.219 -0.7643 -2.0937  0.5819
 3284TIP3    H2 9817   4.042   5.880   4.348  0.5842  0.6209  0.8886
 3285TIP3   OH2 9818   4.648   3.603   4.510 -0.0472  0.3200  0.4475
 3285TIP3    H1 9819   4.619   3.567   4.594 -0.1282 -0.4252  0.1045
 3285TIP3    H2 9820   4.567   3.617   4.461  0.0029  0.7248  0.4769
 3286TIP3   OH2 9821   1.493   6.703   2.301 -0.3619  0.6534  0.1676
 3286TIP3    H1 9822   1.430   6.711   2.229 -0.7950 -0.5212  0.4022
 3286TIP3    H2 9823   1.545   6.626   2.279  2.1288  2.4792 -0.8475
 3287TIP3   OH2 9824   3.363   1.317   3.913 -0.4379  0.0243  0.5036
 3287TIP3    H1 9825   3.426   1.389   3.918  0.6994 -0.8535 -0.5040
 3287TIP3    H2 9826   3.344   1.308   3.819 -0.0624 -1.3978  0.5466
 3288TIP3   OH2 9827   0.553   1.782   0.034 -0.0660  0.2555  0.4012
 3288TIP3    H1 9828   0.531   1.875   0.043 -0.7060  0.0196  1.5496
 3288TIP3    H2 9829   0.614   1.765   0.105 -0.1426 -0.2634  0.3421
 3289TIP3   OH2 9830   3.775   6.354   4.251  0.0540 -0.1819 -0.3822
 3289TIP3    H1 9831   3.816   6.270   4.228  0.1259 -0.5758  1.1149
 3289TIP3    H2 9832   3.780   6.358   4.346 -0.1684  1.4287 -0.4142
 3290TIP3   OH2 9833   3.973   0.028   2.965  0.3652  0.3369  0.1388
 3290TIP3    H1 9834   3.951  -0.051   3.016 -2.2332  1.6051  1.1912
 3290TIP3    H2 9835   4.036   0.075   3.019 -1.3780  1.0207  1.7032
 3291TIP3   OH2 9836   7.109   1.718   4.383 -0.1530  0.3510 -0.3080
 3291TIP3    H1 9837   7.070   1.633   4.406  0.9572  0.2628  1.3434
 3291TIP3    H2 9838   7.042   1.782   4.407  0.4932  0.1800  2.2267
 3292TIP3   OH2 9839   6.741   0.329   3.278 -0.0748  0.4566  0.7515
 3292TIP3    H1 9840   6.781   0.377   3.350  1.3337  0.1095  0.2374
 3292TIP3    H2 9841   6.709   0.248   3.318  2.3142 -0.5741  0.7453
 3293TIP3   OH2 9842   0.758   3.564   2.879  0.2396  0.1445  0.1669
 3293TIP3    H1 9843   0.832   3.508   2.900  1.5042  2.0676  1.0758
 3293TIP3    H2 9844   0.765   3.638   2.939 -1.4912  1.1942 -0.8247
 3294TIP3   OH2 9845   3.108   3.148   1.760 -0.2325  0.4430 -1.0031
 3294TIP3    H1 9846   3.058   3.138   1.680 -0.6736  0.8553 -0.7813
 3294TIP3    H2 9847   3.095   3.066   1.808 -0.3243  0.3730 -1.1510
 3295TIP3   OH2 9848   0.309   4.241   1.532 -0.1097 -0.3679 -0.0533
 3295TIP3    H1 9849   0.347   4.226   1.445 -0.5694 -0.1774 -0.2908
 3295TIP3    H2 9850   0.219   4.210   1.524 -0.0669 -0.6397  0.4508
 3296TIP3   OH2 9851   2.742   1.285   4.130 -0.4841 -0.3459  0.6324
 3296TIP3    H1 9852   2.780   1.357   4.079 -0.5005  0.1608  1.3117
 3296TIP3    H2 9853   2.816   1.229   4.151 -0.2865  0.0446  1.0026
 3297TIP3   OH2 9854   5.685   0.001   0.522  0.9879 -0.6858 -0.3456
 3297TIP3    H1 9855   5.646   0.026   0.438  1.6869  2.5486  0.1443
 3297TIP3    H2 9856   5.778  -0.009   0.503  0.9382 -1.4201 -0.2147
 3298TIP3   OH2 9857   2.347   2.831   0.327  0.0850  0.1356 -0.1261
 3298TIP3    H1 9858   2.300   2.793   0.401  0.0785 -0.8275 -0.6051
 3298TIP3    H2 9859   2.336   2.925   0.337 -0.0248  0.0206  1.0243
 3299TIP3   OH2 9860   6.371   3.954   1.637  0.2341 -0.0807  0.0227
 3299TIP3    H1 9861   6.399   3.958   1.728  0.3525  0.1857 -0.0221
 3299TIP3    H2 9862   6.294   4.010   1.632  0.2628 -0.0457 -0.0511
 3300TIP3   OH2 9863   2.271   2.130   3.232 -0.1301 -0.5633  0.6331
 3300TIP3    H1 9864   2.180   2.147   3.256  0.2995  0.3187  1.6906
 3300TIP3    H2 9865   2.266   2.095   3.143 -1.3792  0.9872  0.0622
 3301TIP3   OH2 9866   7.125   2.863   3.237 -1.2391 -0.0205 -0.2246
 3301TIP3    H1 9867   7.051   2.819   3.194 -2.5659 -0.3630  2.2088
 3301TIP3    H2 9868   7.166   2.795   3.290 -1.0987  0.8698  0.8414
 3302TIP3   OH2 9869   7.133   4.626   3.390 -0.4504  0.0010 -0.3303
 3302TIP3    H1 9870   7.175   4.561   3.333 -0.4868 -0.4649  0.1642
 3302TIP3    H2 9871   7.090   4.686   3.330  0.9115  0.4902 -0.8529
 3303TIP3   OH2 9872   7.058   6.606   4.636  0.2291  0.2227  0.3858
 3303TIP3    H1 9873   7.153   6.597   4.641  0.1592  0.2697  2.4724
 3303TIP3    H2 9874   7.029   6.610   4.727 -1.8217 -0.1798 -0.1961
 3304TIP3   OH2 9875   5.403   4.669   2.393 -0.1265  0.0533 -0.1208
 3304TIP3    H1 9876   5.340   4.597   2.390 -1.4026  1.1143  0.2972
 3304TIP3    H2 9877   5.379   4.725   2.319  0.2532  0.5323  0.1133
 3305TIP3   OH2 9878   6.917   0.784   5.801  0.1763 -0.5263 -0.7858
 3305TIP3    H1 9879   6.905   0.698   5.762 -1.2251 -0.2555 -1.0118
 3305TIP3    H2 9880   6.839   0.833   5.776  0.3407  0.4003  0.3960
 3306TIP3   OH2 9881   3.901   2.142   0.696 -0.8150 -0.2243  0.1622
 3306TIP3    H1 9882   3.848   2.064   0.685 -1.6263  0.0278  1.8638
 3306TIP3    H2 9883   3.990   2.109   0.710 -0.9581 -0.7753 -0.2117
 3307TIP3   OH2 9884   1.462   6.707   4.631  0.2424  0.9420 -0.7921
 3307TIP3    H1 9885   1.469   6.707   4.535 -0.3523 -3.3559 -1.0108
 3307TIP3    H2 9886   1.512   6.631   4.659 -0.7372  1.2931  2.2405
 3308TIP3   OH2 9887   0.558   2.680   2.300  0.0465 -0.5613  0.6888
 3308TIP3    H1 9888   0.594   2.655   2.386 -1.4041 -0.1581  1.4392
 3308TIP3    H2 9889   0.610   2.756   2.274  0.5420 -0.7209  1.1898
 3309TIP3   OH2 9890   6.632   2.681   2.831  0.3545 -0.1701  0.7864
 3309TIP3    H1 9891   6.581   2.726   2.898  0.2070 -0.4160  0.8390
 3309TIP3    H2 9892   6.691   2.623   2.880  1.5793  1.0143  0.7953
 3310TIP3   OH2 9893  -0.013   3.245   1.716  0.4333  0.5413 -0.0051
 3310TIP3    H1 9894   0.067   3.252   1.664  0.9631  0.8130  0.8196
 3310TIP3    H2 9895   0.015   3.205   1.798 -0.0581  1.6666  0.7365
 3311TIP3   OH2 9896   2.861   5.345   3.123 -0.0821  0.4526  0.4449
 3311TIP3    H1 9897   2.796   5.387   3.179  0.7734  0.3338  1.5505
 3311TIP3    H2 9898   2.944   5.390   3.144  0.5123 -0.5714  0.3494
 3312TIP3   OH2 9899   6.987   2.701   3.096 -0.1402  0.0972  0.7370
 3312TIP3    H1 9900   6.939   2.644   3.156 -1.9311  1.0021  0.2313
 3312TIP3    H2 9901   7.052   2.643   3.056 -0.7048 -1.1563  1.5507
 3313TIP3   OH2 9902   6.452   0.753   1.044 -0.3025  0.4287 -0.5572
 3313TIP3    H1 9903   6.482   0.839   1.016  0.1809 -0.0021 -1.3934
 3313TIP3    H2 9904   6.402   0.718   0.970  0.1231 -0.3014 -0.5144
 3314TIP3   OH2 9905   4.453   1.164   2.403 -0.5834 -0.5065  0.1045
 3314TIP3    H1 9906   4.510   1.190   2.476  0.9226 -0.8738 -0.9018
 3314TIP3    H2 9907   4.428   1.247   2.362 -1.9504 -0.2555  1.3706
 3315TIP3   OH2 9908   4.721   3.032   1.004  0.4915 -0.0295  0.1235
 3315TIP3    H1 9909   4.671   3.114   1.011 -1.6908 -1.2234 -0.4453
 3315TIP3    H2 9910   4.745   3.026   0.911  0.6150 -0.0467  0.1566
 3316TIP3   OH2 9911   1.870   0.797   2.142  0.0438 -0.1777 -0.1806
 3316TIP3    H1 9912   1.943   0.801   2.080  1.0354 -1.8990  0.7751
 3316TIP3    H2 9913   1.905   0.834   2.223 -0.3727 -0.3518  0.0825
 3317TIP3   OH2 9914   2.586   0.248   4.909  0.6179  0.4823 -0.1207
 3317TIP3    H1 9915   2.571   0.188   4.836  0.8075 -0.5220  0.6557
 3317TIP3    H2 9916   2.651   0.310   4.876 -1.8847  2.2927 -2.0620
 3318TIP3   OH2 9917   4.117   4.727   4.036  0.0059 -0.3816 -0.4868
 3318TIP3    H1 9918   4.142   4.635   4.039 -0.7660 -0.5649  0.7134
 3318TIP3    H2 9919   4.142   4.762   4.121 -3.0421 -0.4050  0.5427
 3319TIP3   OH2 9920   0.410   3.437   3.184  0.1395 -0.6428 -0.3401
 3319TIP3    H1 9921   0.445   3.348   3.191  0.5887 -0.3753  1.3967
 3319TIP3    H2 9922   0.406   3.468   3.275  2.1495  1.9340 -1.0099
 3320TIP3   OH2 9923   1.259   0.773   5.623 -0.0550  0.5479  0.1743
 3320TIP3    H1 9924   1.331   0.729   5.577 -0.3477 -1.5607  1.5770
 3320TIP3    H2 9925   1.303   0.827   5.688  0.3022  0.2340  0.2033
 3321TIP3   OH2 9926   2.971   1.303   5.435 -0.2159 -0.0258  0.5867
 3321TIP3    H1 9927   2.947   1.289   5.527 -0.7018 -1.1698  0.2893
 3321TIP3    H2 9928   3.002   1.218   5.405 -0.6594  0.1875 -0.4980
 3322TIP3   OH2 9929   5.523   5.879   4.381 -0.5556  0.2433 -0.7067
 3322TIP3    H1 9930   5.521   5.786   4.403 -0.6500  0.4086 -0.0212
 3322TIP3    H2 9931   5.501   5.924   4.462  0.4086  0.9036 -0.7954
 3323TIP3   OH2 9932   0.652   0.298   0.087  0.8122 -0.2035 -0.3794
 3323TIP3    H1 9933   0.693   0.292   0.001  1.3481  2.5028 -0.4116
 3323TIP3    H2 9934   0.726   0.304   0.148  0.4311 -0.9655  0.1724
 3324TIP3   OH2 9935   3.117   6.295   1.555  0.1420  0.0213  0.2851
 3324TIP3    H1 9936   3.179   6.366   1.536  1.7316 -1.0066  1.4125
 3324TIP3    H2 9937   3.131   6.274   1.647 -0.2710 -1.7637 -0.0161
 3325TIP3   OH2 9938   1.940   1.806   3.488  0.3433 -0.1000  0.5703
 3325TIP3    H1 9939   1.930   1.774   3.578 -1.7912 -1.3832 -0.0454
 3325TIP3    H2 9940   1.881   1.882   3.484  0.2617 -0.1836  0.2068
 3326TIP3   OH2 9941   6.970   0.479   4.227  0.2826 -0.3584  0.2012
 3326TIP3    H1 9942   7.015   0.485   4.312 -1.7008  1.2867  1.2429
 3326TIP3    H2 9943   6.886   0.521   4.243 -0.4652 -0.7396 -2.4169
 3327TIP3   OH2 9944   1.432   0.248   4.766  0.4193 -0.1698 -0.2221
 3327TIP3    H1 9945   1.465   0.308   4.832  2.0789  1.5583 -2.4732
 3327TIP3    H2 9946   1.343   0.226   4.795  0.8136  1.1002  2.1283
 3328TIP3   OH2 9947   2.308   6.073   2.833 -0.0167 -0.4074  0.4556
 3328TIP3    H1 9948   2.242   6.011   2.863  0.6644 -0.5343  1.8005
 3328TIP3    H2 9949   2.367   6.021   2.779  0.6845 -1.0351  1.7682
 3329TIP3   OH2 9950   0.105   0.254   5.201 -0.3138 -0.3233  0.4111
 3329TIP3    H1 9951   0.170   0.186   5.182 -0.8384 -1.0212  1.0447
 3329TIP3    H2 9952   0.137   0.332   5.155 -0.0414 -1.1691 -0.8817
 3330TIP3   OH2 9953   5.352   6.410   2.773 -0.0030 -0.4146  0.2756
 3330TIP3    H1 9954   5.300   6.342   2.816 -1.2346  1.1581  1.4176
 3330TIP3    H2 9955   5.413   6.440   2.841  0.7093 -0.5484 -0.2939
 3331TIP3   OH2 9956   3.021   6.447   2.505 -0.0979 -0.6314 -1.0621
 3331TIP3    H1 9957   2.928   6.442   2.529 -0.0263 -0.6956 -0.7877
 3331TIP3    H2 9958   3.066   6.462   2.589  0.2380 -1.7218 -1.0243
 3332TIP3   OH2 9959   2.498   6.710   4.361  0.2712  0.9055 -0.5899
 3332TIP3    H1 9960   2.559   6.656   4.411  0.1414  0.9752 -0.3565
 3332TIP3    H2 9961   2.457   6.650   4.299  0.7370  0.9006 -0.8945
 3333TIP3   OH2 9962   7.071   0.942   1.829 -0.7259  0.0373  0.0058
 3333TIP3    H1 9963   7.004   0.888   1.871  1.3661 -2.0842  0.8279
 3333TIP3    H2 9964   7.139   0.951   1.895  0.6372  0.4988 -1.4040
 3334TIP3   OH2 9965   6.067   2.028   5.425  0.2528  0.0900  0.2660
 3334TIP3    H1 9966   6.137   2.050   5.363 -0.7217 -0.6772 -1.1755
 3334TIP3    H2 9967   6.079   2.089   5.498  2.5287 -0.1660  0.1752
 3335TIP3   OH2 9968   2.755   0.205   4.351  0.2112  0.5429 -0.5522
 3335TIP3    H1 9969   2.756   0.190   4.446 -1.8574 -0.1630 -0.5825
 3335TIP3    H2 9970   2.739   0.118   4.314  0.9516  0.8261 -1.5642
 3336TIP3   OH2 9971   2.296   0.573   4.016  0.7676  0.0599 -0.1409
 3336TIP3    H1 9972   2.302   0.665   3.991 -1.4646  0.0175 -1.0650
 3336TIP3    H2 9973   2.295   0.574   4.112  1.8178  0.8943 -0.1291
 3337TIP3   OH2 9974   0.886   1.344   3.908  0.4610 -0.6196 -0.0884
 3337TIP3    H1 9975   0.805   1.360   3.858 -0.3031 -3.3580  0.0937
 3337TIP3    H2 9976   0.923   1.266   3.868  3.5983  1.0581 -0.7294
 3338TIP3   OH2 9977   6.222   2.093   4.720 -0.1869  0.6019 -0.0486
 3338TIP3    H1 9978   6.253   2.160   4.659  0.9595  0.8543  0.7790
 3338TIP3    H2 9979   6.296   2.033   4.730 -0.8410 -0.2106  0.0385
 3339TIP3   OH2 9980   4.933   3.873   3.981 -0.3387  0.0468 -0.6495
 3339TIP3    H1 9981   5.015   3.853   4.025 -0.0632 -0.5502 -1.4111
 3339TIP3    H2 9982   4.902   3.953   4.022 -0.6694 -1.0676  1.4033
 3340TIP3   OH2 9983   4.793   6.009   1.709  0.6067  0.5374  0.4060
 3340TIP3    H1 9984   4.789   5.932   1.765  0.0945  1.1317  1.2035
 3340TIP3    H2 9985   4.711   6.008   1.659  0.4459  0.7430  0.6630
 3341TIP3   OH2 9986   4.738   6.010   0.525 -0.2154 -0.0740  0.2070
 3341TIP3    H1 9987   4.719   5.918   0.539 -1.2018  0.2991  1.5518
 3341TIP3    H2 9988   4.831   6.013   0.501 -0.1800 -1.3993  0.1477
 3342TIP3   OH2 9989   4.284   6.713   2.706 -0.3523  0.4965 -0.0713
 3342TIP3    H1 9990   4.365   6.682   2.748 -0.9189  0.7364  1.2511
 3342TIP3    H2 9991   4.286   6.808   2.717 -2.2840  0.3232  2.8987
 3343TIP3   OH2 9992   3.836   0.378   2.907 -0.6770 -0.3758 -0.1630
 3343TIP3    H1 9993   3.807   0.462   2.873  1.4894  0.2857 -0.5616
 3343TIP3    H2 9994   3.807   0.314   2.841  1.4636  0.6257 -2.2371
 3344TIP3   OH2 9995   4.100   0.752   5.812  0.1287  0.1054 -0.3561
 3344TIP3    H1 9996   4.033   0.810   5.776  1.2550  3.2156  2.0342
 3344TIP3    H2 9997   4.052   0.678   5.848 -1.6025  0.4018 -1.9239
 3345TIP3   OH2 9998   5.360   3.942   3.905  0.0280 -0.3377 -0.1454
 3345TIP3    H1 9999   5.310   3.862   3.923  0.2487 -0.2518  0.9007
 3345TIP3    H210000   5.295   4.005   3.876 -0.9104  0.4566  3.2752
 3346TIP3   OH210001   4.049   1.345   3.976  0.4402  0.2533  0.5946
 3346TIP3    H110002   4.050   1.367   4.069  0.5815 -1.6765  1.0859
 3346TIP3    H210003   3.977   1.282   3.966 -0.8169  1.8182 -0.9894
 3347TIP3   OH210004   3.303   5.015   5.575  0.2911  0.3340 -0.5225
 3347TIP3    H110005   3.388   5.059   5.587  0.6450 -0.6746  0.9369
 3347TIP3    H210006   3.326   4.930   5.538  0.2687 -1.0805  2.4239
 3348TIP3   OH210007   4.005   4.122   0.316 -0.5824  0.6684 -0.1273
 3348TIP3    H110008   4.030   4.087   0.231  1.4277  1.3374  0.1394
 3348TIP3    H210009   3.960   4.205   0.295  0.3297  1.0703 -0.5401
 3349TIP3   OH210010   4.526   6.160   0.330 -0.4309  0.3895 -0.0342
 3349TIP3    H110011   4.515   6.094   0.261 -0.5577  1.1446 -0.7569
 3349TIP3    H210012   4.568   6.113   0.402 -1.2065 -0.6576 -0.2464
 3350TIP3   OH210013   4.274   1.486   4.930  0.0981  0.3144  0.2665
 3350TIP3    H110014   4.187   1.458   4.900  0.8008 -0.1158 -1.4940
 3350TIP3    H210015   4.257   1.537   5.009 -1.4708 -3.2129  2.4983
 3351TIP3   OH210016   2.167   3.153   3.774 -0.4340 -0.2170 -0.3435
 3351TIP3    H110017   2.262   3.150   3.769 -0.2715  1.8505  0.2730
 3351TIP3    H210018   2.137   3.137   3.685  0.5943  0.6262 -0.8612
 3352TIP3   OH210019   0.944   5.404   5.540 -0.5437  0.3503 -0.2986
 3352TIP3    H110020   0.986   5.361   5.465 -0.3644 -1.7127  0.9050
 3352TIP3    H210021   0.946   5.497   5.518 -2.3391 -0.2491 -3.7913
 3353TIP3   OH210022   5.889   4.823   0.681  0.6558 -0.3079  0.8387
 3353TIP3    H110023   5.939   4.853   0.605 -0.3883  1.6026  0.8467
 3353TIP3    H210024   5.801   4.804   0.646  0.2985  0.1343  1.4794
 3354TIP3   OH210025   2.446   6.141   5.013 -0.0298  0.4244 -0.2794
 3354TIP3    H110026   2.529   6.093   5.005 -0.7650 -0.8485 -0.5633
 3354TIP3    H210027   2.422   6.163   4.923  0.1399  1.0349 -0.1742
 3355TIP3   OH210028   2.202   3.801   4.932 -0.5349 -1.1794  0.1223
 3355TIP3    H110029   2.239   3.792   4.844  0.2026  1.5141  0.0815
 3355TIP3    H210030   2.271   3.768   4.990  0.6416  0.6903 -0.1414
 3356TIP3   OH210031   5.909   4.295   1.188  0.3933 -0.2083  0.4120
 3356TIP3    H110032   5.828   4.346   1.189  0.1211 -0.5576  2.5342
 3356TIP3    H210033   5.893   4.225   1.124 -0.6614  0.2134  0.1947
 3357TIP3   OH210034   0.755   5.736   1.872 -0.6547  0.7062 -0.0356
 3357TIP3    H110035   0.828   5.796   1.853 -1.3043  1.7472  0.6811
 3357TIP3    H210036   0.746   5.684   1.792 -0.0129  1.4906 -0.6364
 3358TIP3   OH210037   6.074   5.105   1.998  0.1044  0.1442 -0.5623
 3358TIP3    H110038   5.986   5.099   2.034  0.5382  0.6459  0.6237
 3358TIP3    H210039   6.067   5.174   1.932 -0.5201 -0.2451 -0.9177
 3359TIP3   OH210040   2.257   1.681   2.492 -0.4313  0.6454  0.3078
 3359TIP3    H110041   2.220   1.671   2.579 -0.4307 -1.5932  0.0903
 3359TIP3    H210042   2.187   1.655   2.433  0.7949 -1.8273 -0.1768
 3360TIP3   OH210043   2.462   0.203   5.713 -0.3585  0.0792  0.1055
 3360TIP3    H110044   2.469   0.118   5.670  1.5022  0.1027  0.2562
 3360TIP3    H210045   2.390   0.193   5.775  0.6626 -1.8542  1.0753
 3361TIP3   OH210046   3.022   0.424   0.228 -0.5763  0.3574 -0.2368
 3361TIP3    H110047   2.980   0.340   0.211 -0.1079  0.2991 -1.1243
 3361TIP3    H210048   3.116   0.405   0.228 -0.4750  0.8463 -0.2623
 3362TIP3   OH210049   4.391   3.712   0.209 -0.1935 -0.0140 -0.3927
 3362TIP3    H110050   4.321   3.657   0.174 -0.1599  1.0062 -2.1681
 3362TIP3    H210051   4.471   3.662   0.194 -0.4479 -1.0928  1.4598
 3363TIP3   OH210052   1.338   6.204   0.353  0.1518  0.7062  0.2198
 3363TIP3    H110053   1.370   6.114   0.344  0.4612  0.8617 -0.2960
 3363TIP3    H210054   1.386   6.253   0.286 -0.5386  1.1196  0.0247
 3364TIP3   OH210055   2.726   6.061   2.027 -0.2344 -0.0044 -0.1302
 3364TIP3    H110056   2.804   6.057   1.972  0.1394 -2.6879  0.4912
 3364TIP3    H210057   2.656   6.090   1.968  0.7788  0.2651 -1.2216
 3365TIP3   OH210058   1.979   2.515   1.445  0.0774  0.6060  0.0291
 3365TIP3    H110059   1.915   2.522   1.375 -3.0509 -1.1921  2.4346
 3365TIP3    H210060   1.958   2.587   1.504  0.1114 -0.1167  0.9457
 3366TIP3   OH210061   5.100   4.659   5.702  0.0504  0.1287  0.1948
 3366TIP3    H110062   5.130   4.697   5.785 -0.6576 -0.2085  0.6115
 3366TIP3    H210063   5.005   4.671   5.703 -0.0493 -0.5787 -0.2091
 3367TIP3   OH210064   1.745   0.432   0.153  0.2260  0.4739  0.1653
 3367TIP3    H110065   1.810   0.441   0.084  0.6433  1.8232  0.6979
 3367TIP3    H210066   1.792   0.390   0.225  0.2086  0.4611  0.1693
 3368TIP3   OH210067   1.543   4.734   3.722 -0.6675  0.1111  0.1213
 3368TIP3    H110068   1.476   4.735   3.654 -0.5462  0.7644  0.0030
 3368TIP3    H210069   1.523   4.656   3.774 -1.6830  0.4340  0.2466
 3369TIP3   OH210070   4.563   6.216   4.615 -0.4220 -0.0680 -0.1765
 3369TIP3    H110071   4.569   6.237   4.708 -1.9830  1.1501 -0.2985
 3369TIP3    H210072   4.558   6.121   4.612 -0.8984 -0.1082  1.0485
 3370TIP3   OH210073   3.587   1.674   5.265 -0.3097  0.3164  0.1670
 3370TIP3    H110074   3.545   1.660   5.180 -2.2097  2.9503  0.5526
 3370TIP3    H210075   3.680   1.661   5.247 -0.6507  0.6804 -2.2991
 3371TIP3   OH210076   4.910   6.332   0.541 -0.2883 -0.5998  0.4302
 3371TIP3    H110077   4.851   6.319   0.615 -1.3712  1.7356  0.0884
 3371TIP3    H210078   4.861   6.390   0.482  1.4996 -0.4119 -0.9401
 3372TIP3   OH210079   3.691   0.273   3.693  0.1321  0.1367 -0.3059
 3372TIP3    H110080   3.776   0.263   3.736  0.4116 -0.1128 -0.9065
 3372TIP3    H210081   3.630   0.225   3.749  0.4038  0.2212  0.0684
 3373TIP3   OH210082   4.582   3.329   3.845  0.1550 -0.7138 -0.5031
 3373TIP3    H110083   4.550   3.419   3.842 -1.2428 -1.0428  1.7037
 3373TIP3    H210084   4.607   3.309   3.755  0.4676  1.8398 -1.0650
 3374TIP3   OH210085   3.655   3.864   2.394  0.7197  0.7242  0.0877
 3374TIP3    H110086   3.645   3.901   2.306  0.1223  3.3103  1.1647
 3374TIP3    H210087   3.747   3.881   2.417  0.3350  2.0014  0.7516
 3375TIP3   OH210088   7.136   1.411   4.895 -0.3370 -0.1879  0.3476
 3375TIP3    H110089   7.171   1.322   4.908  0.3768  0.1824  1.0069
 3375TIP3    H210090   7.210   1.469   4.912 -0.9312  0.5640  0.4248
 3376TIP3   OH210091   1.871   0.523   2.105  0.1849  0.2783  0.4427
 3376TIP3    H110092   1.861   0.519   2.010 -1.6247 -1.2287  0.6503
 3376TIP3    H210093   1.860   0.616   2.127 -0.9215  0.4268 -0.6694
 3377TIP3   OH210094   1.467   5.430   2.154 -0.0571 -0.2067 -0.0268
 3377TIP3    H110095   1.403   5.360   2.161 -0.0879 -0.1006  0.8335
 3377TIP3    H210096   1.493   5.430   2.062 -0.4222 -1.0150 -0.1346
 3378TIP3   OH210097   0.029   5.377   0.826  0.2622  0.0606  0.0040
 3378TIP3    H110098   0.005   5.289   0.799  0.7227  0.0959 -0.5436
 3378TIP3    H210099   0.123   5.372   0.844  0.2313  0.3681  0.2653
 3379TIP3   OH210100   3.800   1.400   3.547  0.5141 -0.4905  0.1115
 3379TIP3    H110101   3.831   1.471   3.602 -0.4388 -0.1119  0.1796
 3379TIP3    H210102   3.836   1.321   3.587  1.8154 -0.0389 -0.1295
 3380TIP3   OH210103   6.072   5.473   3.457  0.3539 -0.4803 -0.2200
 3380TIP3    H110104   6.087   5.521   3.375 -1.3046  1.2536  0.4093
 3380TIP3    H210105   6.126   5.519   3.521  0.6206 -0.9935 -0.0779
 3381TIP3   OH210106   1.014   1.550   5.008 -0.2841 -0.2597 -0.3818
 3381TIP3    H110107   1.109   1.538   5.008 -0.2169 -0.1532  2.0602
 3381TIP3    H210108   0.978   1.463   5.021 -0.3501  0.0500  1.8933
 3382TIP3   OH210109   0.004   4.570   5.487 -0.0115 -0.0337  0.0653
 3382TIP3    H110110   0.085   4.524   5.466  0.5392  1.0077 -0.1626
 3382TIP3    H210111   0.012   4.654   5.441 -1.5985 -0.2464 -0.6689
 3383TIP3   OH210112   5.345   2.623   1.789  0.2218  0.4479  0.2627
 3383TIP3    H110113   5.302   2.685   1.847 -0.3493  0.6360 -0.3504
 3383TIP3    H210114   5.304   2.637   1.703  0.5763 -0.2894 -0.0405
 3384TIP3   OH210115   3.384   6.236   5.437 -0.2895 -0.0666  0.3095
 3384TIP3    H110116   3.386   6.222   5.342  0.3958 -1.4231  0.5044
 3384TIP3    H210117   3.315   6.178   5.468 -0.6723  0.5463  0.6336
 3385TIP3   OH210118   5.591   3.461   4.573  0.6337 -0.2782 -0.2198
 3385TIP3    H110119   5.529   3.477   4.502  2.7890  1.4773 -1.8540
 3385TIP3    H210120   5.543   3.483   4.652 -1.6290 -1.5670 -1.1327
 3386TIP3   OH210121   4.054   4.971   3.594 -0.4644  0.2825 -0.1777
 3386TIP3    H110122   4.074   4.899   3.654  0.9309 -0.1490 -1.0991
 3386TIP3    H210123   3.973   5.008   3.627 -0.6922 -1.0890  0.9035
 3387TIP3   OH210124   3.731   5.141   5.201 -0.2161 -0.6211 -0.0744
 3387TIP3    H110125   3.783   5.102   5.271  1.4256  0.7473 -0.4562
 3387TIP3    H210126   3.757   5.092   5.123  1.6973  0.9447 -0.5188
 3388TIP3   OH210127   1.798   0.772   0.109  0.7750  0.1482  0.1458
 3388TIP3    H110128   1.785   0.738   0.021  0.7211 -2.4386  1.0844
 3388TIP3    H210129   1.874   0.725   0.143 -0.9525 -1.2225  2.4869
 3389TIP3   OH210130   0.027   5.771   2.463  0.3249 -0.0757  0.3610
 3389TIP3    H110131   0.107   5.726   2.489 -0.1477 -0.2615  1.5801
 3389TIP3    H210132   0.033   5.856   2.507  0.4663  0.4362 -0.6295
 3390TIP3   OH210133   5.873   5.036   2.135 -0.0391  0.2967 -0.2462
 3390TIP3    H110134   5.786   4.995   2.130 -0.6671  1.6201 -0.5677
 3390TIP3    H210135   5.882   5.060   2.228  0.8320 -1.5340  0.2016
 3391TIP3   OH210136   6.378   6.388   3.177 -0.5493  0.0863  0.2213
 3391TIP3    H110137   6.367   6.372   3.083  0.8512  2.7611 -0.4907
 3391TIP3    H210138   6.311   6.453   3.198  0.1243  0.6232  0.7233
 3392TIP3   OH210139   0.581   6.409   4.792 -1.0049 -0.0268  0.2085
 3392TIP3    H110140   0.646   6.433   4.858 -1.0258 -0.9068  0.5653
 3392TIP3    H210141   0.498   6.442   4.826 -0.9334  0.0058  0.3520
 3393TIP3   OH210142   7.102   4.035   2.110 -0.4266  0.2761  0.1102
 3393TIP3    H110143   7.021   4.032   2.160 -0.7282 -0.6976 -0.4164
 3393TIP3    H210144   7.087   3.977   2.035  0.1345  1.4261 -0.9312
 3394TIP3   OH210145   1.729   1.861   4.176  0.4223  0.1433  0.2813
 3394TIP3    H110146   1.750   1.815   4.257 -0.9494 -1.9802 -0.5037
 3394TIP3    H210147   1.760   1.804   4.107 -3.4729 -0.9528 -0.8116
 3395TIP3   OH210148   4.565   4.821   5.437 -0.2307 -0.4921  0.2659
 3395TIP3    H110149   4.621   4.746   5.456 -1.3139 -1.1316  1.1128
 3395TIP3    H210150   4.558   4.823   5.341  0.4136 -1.0132  0.2061
 3396TIP3   OH210151   2.487   1.420   4.072  0.3806  0.0886 -0.6566
 3396TIP3    H110152   2.461   1.474   4.147 -1.0373 -1.9715  0.4398
 3396TIP3    H210153   2.583   1.419   4.075  0.4121 -1.3769  2.3487
 3397TIP3   OH210154   3.672   2.066   2.488  0.1286  0.0403 -0.4109
 3397TIP3    H110155   3.737   2.059   2.419  0.8061  0.4557  0.1696
 3397TIP3    H210156   3.604   2.003   2.463  1.7069 -1.9607  0.0310
 3398TIP3   OH210157   0.745   0.069   4.479 -0.0224  0.3157 -0.6077
 3398TIP3    H110158   0.835   0.099   4.488  0.0698 -0.4744  2.4540
 3398TIP3    H210159   0.700   0.140   4.434  1.7963  1.3854 -0.8489
 3399TIP3   OH210160   4.051   6.043   5.456  0.8606 -0.2869 -0.1387
 3399TIP3    H110161   3.962   6.049   5.493  0.7135 -1.0793 -0.3526
 3399TIP3    H210162   4.037   6.033   5.362  1.2107  0.5862 -0.2908
 3400TIP3   OH210163   3.584   0.187   0.611 -0.0975  0.0085 -0.3760
 3400TIP3    H110164   3.525   0.132   0.662  0.5459 -1.2361 -0.9322
 3400TIP3    H210165   3.671   0.171   0.648  0.1698  0.2412 -0.8775
 3401TIP3   OH210166   4.227   5.657   3.101 -0.7546  0.5566  0.1101
 3401TIP3    H110167   4.216   5.716   3.175 -1.0108 -0.2843  0.7612
 3401TIP3    H210168   4.146   5.606   3.099 -0.6855  0.4642 -0.6543
 3402TIP3   OH210169   5.223   3.291   4.574  0.3853  0.4728 -0.4412
 3402TIP3    H110170   5.155   3.301   4.507  0.3506  2.1149 -0.2093
 3402TIP3    H210171   5.175   3.273   4.655  0.1754  1.7443 -0.2549
 3403TIP3   OH210172   5.655   5.258   0.758 -0.4091 -0.4789  0.4868
 3403TIP3    H110173   5.748   5.258   0.736 -0.6360 -0.0353 -0.5015
 3403TIP3    H210174   5.611   5.293   0.680 -1.4956 -1.5685  0.5787
 3404TIP3   OH210175   0.381   3.882   4.457 -0.4148 -0.0690 -0.1844
 3404TIP3    H110176   0.435   3.908   4.532  1.2244  1.2040 -1.7071
 3404TIP3    H210177   0.307   3.943   4.459  0.9159  1.6315 -0.9817
 3405TIP3   OH210178   3.258   3.583   4.699 -0.1930 -0.0371  0.0197
 3405TIP3    H110179   3.184   3.529   4.674  0.4909 -0.0222 -2.1904
 3405TIP3    H210180   3.332   3.546   4.651  0.7550  1.4174  0.3029
 3406TIP3   OH210181   6.539   0.709   4.032  0.4705  0.0367  0.0374
 3406TIP3    H110182   6.534   0.738   3.941 -0.7947 -0.3243 -0.0262
 3406TIP3    H210183   6.450   0.683   4.054  0.9417 -0.7607  1.0997
 3407TIP3   OH210184   6.881   4.517   5.412 -0.2183 -0.0658 -0.1609
 3407TIP3    H110185   6.909   4.552   5.496 -4.4627  0.5939  1.2243
 3407TIP3    H210186   6.885   4.591   5.352 -1.1679  0.6109  0.5908
 3408TIP3   OH210187   4.818   0.132   1.124 -0.1371  0.0971 -0.1079
 3408TIP3    H110188   4.855   0.188   1.192 -0.1541 -0.7053  0.5717
 3408TIP3    H210189   4.758   0.189   1.076 -0.7436  0.4709  1.0506
 3409TIP3   OH210190   1.705   2.882   3.453 -0.2849  0.5154  0.8547
 3409TIP3    H110191   1.752   2.799   3.442 -0.6514  0.2295  1.3998
 3409TIP3    H210192   1.654   2.890   3.373  0.3678  0.6181  0.4440
 3410TIP3   OH210193   2.546   4.433   5.307  0.1913  0.2475 -0.4085
 3410TIP3    H110194   2.632   4.454   5.343  1.3539 -2.0855 -1.6307
 3410TIP3    H210195   2.561   4.417   5.214 -1.1180 -2.3390 -0.2642
 3411TIP3   OH210196   0.479   4.080   3.204 -0.5982  0.3855 -0.4805
 3411TIP3    H110197   0.461   4.168   3.237  0.0083  1.1987 -2.1869
 3411TIP3    H210198   0.542   4.093   3.133 -0.7041 -1.4005 -0.9610
 3412TIP3   OH210199   4.084   2.959   0.760  0.4873  0.4874 -0.3898
 3412TIP3    H110200   4.032   2.952   0.679 -0.1525  0.0520  0.0504
 3412TIP3    H210201   4.115   2.870   0.776 -3.6163 -0.7210  2.5725
 3413TIP3   OH210202   4.315   2.833   2.119 -0.2774  0.4706 -0.2441
 3413TIP3    H110203   4.376   2.903   2.095 -0.4081  0.9031  0.6373
 3413TIP3    H210204   4.305   2.841   2.214 -2.1712  0.8222 -0.4245
 3414TIP3   OH210205   3.617   3.708   4.174 -0.5778  0.0233 -0.0784
 3414TIP3    H110206   3.535   3.664   4.194 -0.0756 -0.8957 -0.0099
 3414TIP3    H210207   3.665   3.709   4.257  0.0556 -0.6976 -0.4203
 3415TIP3   OH210208   1.061   3.646   4.925  0.4383 -0.4269 -0.3720
 3415TIP3    H110209   1.122   3.703   4.879  1.9980 -0.9463  0.9435
 3415TIP3    H210210   1.108   3.620   5.004 -1.5510 -0.7717  0.7617
 3416TIP3   OH210211   1.037   5.937   5.202 -0.5039  0.2407 -0.7573
 3416TIP3    H110212   1.013   5.898   5.118  2.4309 -0.2766 -1.4861
 3416TIP3    H210213   1.075   6.022   5.179  0.6573 -0.0549 -0.0393
 3417TIP3   OH210214   3.022   2.670   4.971 -0.0780 -0.4817  0.0861
 3417TIP3    H110215   3.034   2.610   4.898 -1.7549 -1.9301  0.9212
 3417TIP3    H210216   3.031   2.615   5.049  0.4063  0.7693  0.9495
 3418TIP3   OH210217   6.781   2.650   3.690  0.2237 -0.6653  0.8035
 3418TIP3    H110218   6.696   2.662   3.649  0.4469 -1.7000 -0.0133
 3418TIP3    H210219   6.773   2.568   3.739  0.9488 -1.1606  0.1251
 3419TIP3   OH210220   6.463   2.232   0.972 -0.7408  0.1332 -0.2811
 3419TIP3    H110221   6.516   2.223   0.892  0.5925  2.5690  0.2166
 3419TIP3    H210222   6.452   2.142   1.004  4.0464 -0.5964  0.0920
 3420TIP3   OH210223   2.581   4.317   3.024  0.1451 -0.0231  0.3367
 3420TIP3    H110224   2.550   4.407   3.023  3.3423  1.2437 -0.9802
 3420TIP3    H210225   2.570   4.287   2.934 -0.8591 -0.9866  0.7578
 3421TIP3   OH210226   6.986   0.765   2.355  0.7601  0.4682 -0.4099
 3421TIP3    H110227   6.927   0.694   2.381 -1.0773  1.3588 -1.9757
 3421TIP3    H210228   7.034   0.786   2.435 -0.4387 -0.8530  0.7143
 3422TIP3   OH210229   1.371   5.103   3.557  0.5259 -0.3201  0.2267
 3422TIP3    H110230   1.452   5.142   3.525  1.4117 -0.2309  2.3987
 3422TIP3    H210231   1.322   5.176   3.593 -0.0607 -0.5305 -0.1351
 3423TIP3   OH210232   3.340   0.654   0.882  0.4148  0.6011 -0.5063
 3423TIP3    H110233   3.410   0.717   0.867  0.2561  0.9263  0.0937
 3423TIP3    H210234   3.323   0.617   0.795  0.4882  1.4067 -0.8767
 3424TIP3   OH210235   0.379   1.632   5.026  0.7577  0.2888 -0.1440
 3424TIP3    H110236   0.284   1.632   5.016  0.8230  0.4100 -0.8374
 3424TIP3    H210237   0.397   1.562   5.088  0.1577  0.7892  0.6080
 3425TIP3   OH210238   4.214   1.309   1.384 -0.3406 -0.3604 -0.0883
 3425TIP3    H110239   4.242   1.221   1.362 -2.6859 -0.7181 -1.9729
 3425TIP3    H210240   4.263   1.366   1.324  1.9959 -0.1287  1.8374
 3426TIP3   OH210241   3.173   2.229   5.614 -0.1752  0.0547 -0.2339
 3426TIP3    H110242   3.262   2.253   5.638  0.6738 -2.3629 -0.7023
 3426TIP3    H210243   3.120   2.257   5.688  0.9120  1.6468 -0.0034
 3427TIP3   OH210244   6.092   6.722   1.420  0.4955 -0.2808 -0.0714
 3427TIP3    H110245   6.027   6.722   1.350 -1.5924  1.6825  1.6856
 3427TIP3    H210246   6.172   6.688   1.379 -1.2279 -1.4663 -2.7155
 3428TIP3   OH210247   6.173   0.460   1.974 -0.6815  0.2372 -0.5914
 3428TIP3    H110248   6.216   0.479   1.890  1.1059 -1.0073 -0.0216
 3428TIP3    H210249   6.226   0.390   2.013 -2.9162 -0.9746  0.4759
 3429TIP3   OH210250   0.273   2.384   4.475 -0.2524  0.1302  0.3010
 3429TIP3    H110251   0.306   2.294   4.484 -1.7381 -1.1210 -4.0227
 3429TIP3    H210252   0.350   2.439   4.483  1.1118 -1.7510  0.7803
 3430TIP3   OH210253   1.162   2.898   1.492  0.0104 -0.4270  0.3998
 3430TIP3    H110254   1.087   2.953   1.516 -0.7132 -0.6905 -1.1367
 3430TIP3    H210255   1.174   2.839   1.566 -1.0242 -0.0807  0.8539
 3431TIP3   OH210256   3.352   0.655   3.602 -0.7502 -0.2223  0.3371
 3431TIP3    H110257   3.401   0.603   3.665 -1.0285  1.2450  1.8269
 3431TIP3    H210258   3.368   0.746   3.627 -0.9259  0.4242 -1.6916
 3432TIP3   OH210259   0.217   3.043   1.022 -0.6175  0.1159 -0.3137
 3432TIP3    H110260   0.268   3.116   1.058 -1.6745  1.0473 -0.6442
 3432TIP3    H210261   0.173   3.005   1.097 -2.3447  1.6748 -0.4783
 3433TIP3   OH210262   3.516   4.747   0.296  0.1877 -0.1374 -0.3321
 3433TIP3    H110263   3.603   4.725   0.264 -0.5813 -1.0698 -1.9258
 3433TIP3    H210264   3.526   4.833   0.338  1.6664  0.2512 -1.4047
 3434TIP3   OH210265   2.446   4.834   4.606 -0.1953 -0.1864 -0.2051
 3434TIP3    H110266   2.529   4.802   4.640 -0.3164 -1.5868 -1.1461
 3434TIP3    H210267   2.380   4.779   4.647 -0.6398  0.5662  0.1229
 3435TIP3   OH210268   4.005   1.096   2.437 -0.6911 -0.8856  0.6623
 3435TIP3    H110269   4.079   1.078   2.494  0.2681  0.4877 -0.0795
 3435TIP3    H210270   3.930   1.054   2.480  0.2281 -0.9903  2.2341
 3436TIP3   OH210271   3.658   5.116   1.591  0.7611 -0.6235  0.1235
 3436TIP3    H110272   3.643   5.176   1.518  1.2262 -0.9005 -0.2072
 3436TIP3    H210273   3.571   5.085   1.614  0.5482 -0.0834  0.0758
 3437TIP3   OH210274   2.805   4.409   1.019 -0.0739 -0.1343 -0.2414
 3437TIP3    H110275   2.800   4.346   0.947 -2.5541  0.8887 -1.0861
 3437TIP3    H210276   2.781   4.493   0.979  1.2162  0.9924  1.2450
 3438TIP3   OH210277   1.512   0.921   3.063  0.3837  0.2072  0.0439
 3438TIP3    H110278   1.454   0.997   3.056  0.4523  0.3617  1.0085
 3438TIP3    H210279   1.454   0.846   3.050  0.2988  0.4151 -0.8229
 3439TIP3   OH210280   4.756   2.813   5.656  0.1001  0.8528  0.4030
 3439TIP3    H110281   4.820   2.884   5.647  1.8943 -0.6909  0.3411
 3439TIP3    H210282   4.759   2.768   5.572  1.1411 -0.9746  1.3640
 3440TIP3   OH210283   3.512   3.731   1.181  0.0549  0.4300 -0.0525
 3440TIP3    H110284   3.536   3.712   1.090 -0.5662 -0.7375  0.0026
 3440TIP3    H210285   3.523   3.826   1.190 -0.5299  0.6619 -1.5478
 3441TIP3   OH210286   1.398   2.383   5.864 -0.7966  0.7952 -0.0602
 3441TIP3    H110287   1.341   2.449   5.905 -1.0757  1.7237 -1.8577
 3441TIP3    H210288   1.487   2.413   5.884 -0.8885  0.0538  1.6414
 3442TIP3   OH210289   1.688   0.856   5.357  0.0217 -0.7066 -0.9824
 3442TIP3    H110290   1.726   0.918   5.295 -0.0871 -0.8654 -1.2071
 3442TIP3    H210291   1.723   0.771   5.331  2.8508 -0.3952  1.3138
 3443TIP3   OH210292   3.594   5.800   2.544  0.1454 -0.6612 -0.3973
 3443TIP3    H110293   3.651   5.857   2.493  2.0039 -1.8930  0.2069
 3443TIP3    H210294   3.558   5.739   2.480  1.0222 -1.0542 -0.5325
 3444TIP3   OH210295   6.074   4.738   2.803  0.0631  0.3012 -0.7461
 3444TIP3    H110296   6.143   4.762   2.864 -0.3914  1.1209 -0.5362
 3444TIP3    H210297   5.993   4.753   2.851 -0.2792  0.1366 -1.2603
 3445TIP3   OH210298   6.199   3.507   5.848 -0.1312  0.1231  0.0115
 3445TIP3    H110299   6.279   3.523   5.798  0.5691 -0.0818  1.0346
 3445TIP3    H210300   6.132   3.491   5.782  0.7816 -0.1992 -0.8579
 3446TIP3   OH210301   3.407   0.285   3.546 -1.1561 -0.0437 -0.0558
 3446TIP3    H110302   3.379   0.223   3.613  1.2626 -0.0194  1.0814
 3446TIP3    H210303   3.462   0.348   3.593  0.0955  0.3512 -1.9499
 3447TIP3   OH210304   2.445   2.576   1.574 -0.0937 -0.5084  0.1721
 3447TIP3    H110305   2.479   2.606   1.490  1.0428  2.3812  1.5249
 3447TIP3    H210306   2.378   2.640   1.597 -1.6371 -2.2378  0.7389
 3448TIP3   OH210307   6.420   4.539   5.230 -0.3262  0.4621  0.1888
 3448TIP3    H110308   6.465   4.477   5.288  1.5385 -1.6855 -3.2179
 3448TIP3    H210309   6.338   4.495   5.207 -1.0544  1.3038  1.0754
 3449TIP3   OH210310   0.853   0.669   0.883 -0.0323 -0.0390  0.0612
 3449TIP3    H110311   0.908   0.714   0.947  1.1850  0.9235 -1.5891
 3449TIP3    H210312   0.823   0.739   0.824 -3.9086 -0.3038  1.3738
 3450TIP3   OH210313   1.944   0.407   0.604  0.4285 -0.6908 -0.5393
 3450TIP3    H110314   1.937   0.397   0.509  1.3278 -0.6667 -0.6204
 3450TIP3    H210315   1.914   0.323   0.639 -0.6405 -0.4330 -0.7973
 3451TIP3   OH210316   5.661   4.229   5.052 -0.1424 -0.0264  0.3961
 3451TIP3    H110317   5.670   4.140   5.017 -0.5828 -0.1414  0.5710
 3451TIP3    H210318   5.607   4.275   4.988 -2.5706 -0.7678  1.7992
 3452TIP3   OH210319   3.087   2.988   0.844  0.0565 -0.2282 -0.3059
 3452TIP3    H110320   2.992   2.996   0.847  0.0751 -0.0926  0.0564
 3452TIP3    H210321   3.117   3.071   0.806  0.1715  0.9815  2.1650
 3453TIP3   OH210322   7.033   0.558   3.978 -0.0800 -0.1863  0.1787
 3453TIP3    H110323   6.962   0.620   3.992 -1.2410 -0.5632 -3.1504
 3453TIP3    H210324   7.021   0.492   4.047 -0.9187  1.4210  1.6430
 3454TIP3   OH210325   3.977   5.154  -0.004  0.2016 -0.1067  0.4141
 3454TIP3    H110326   3.929   5.173   0.076  0.3016 -1.5688  0.8479
 3454TIP3    H210327   4.007   5.240  -0.035  1.0124  0.3978  2.4579
 3455TIP3   OH210328   2.483   2.358   1.244  0.1599 -0.3164  0.0429
 3455TIP3    H110329   2.397   2.346   1.284 -0.5137  0.2714 -1.1663
 3455TIP3    H210330   2.543   2.368   1.318 -1.0357  0.7659  0.9123
 3456TIP3   OH210331   4.447   1.849   5.487 -0.1657  0.4273 -0.5341
 3456TIP3    H110332   4.388   1.910   5.443  1.4615  2.7462  0.3288
 3456TIP3    H210333   4.525   1.847   5.432 -0.0538 -0.6451 -0.3630
 3457TIP3   OH210334   5.879   4.854   0.131  0.2238  0.4677 -0.5192
 3457TIP3    H110335   5.869   4.804   0.049 -2.3773  0.3405 -0.2262
 3457TIP3    H210336   5.971   4.846   0.153  0.1296 -3.5872 -0.9108
 3458TIP3   OH210337   2.044   4.652   5.494 -0.0318 -0.2755 -0.3757
 3458TIP3    H110338   1.970   4.705   5.523 -0.4192 -0.3813 -1.1634
 3458TIP3    H210339   2.005   4.572   5.461  0.3254  0.1450 -1.9074
 3459TIP3   OH210340   4.300   1.106   2.954  0.2554 -0.2977 -0.2903
 3459TIP3    H110341   4.277   1.059   3.034 -2.5222  0.4128 -0.5646
 3459TIP3    H210342   4.343   1.041   2.899 -0.5435 -1.6391  0.6058
 3460TIP3   OH210343   0.694   3.167   1.605 -0.0232  0.5035  0.1865
 3460TIP3    H110344   0.610   3.208   1.590 -0.6786 -1.2111 -1.2815
 3460TIP3    H210345   0.688   3.082   1.560  2.3360  0.1559  0.3579
 3461TIP3   OH210346   3.744   3.096   2.359 -0.0305 -0.0287 -0.1668
 3461TIP3    H110347   3.716   3.065   2.446  0.0226  0.2938 -0.0331
 3461TIP3    H210348   3.712   3.029   2.299 -0.3293 -0.1057  0.0732
 3462TIP3   OH210349   1.997   3.590   2.174 -0.1822  0.0767  0.1219
 3462TIP3    H110350   2.044   3.651   2.117  0.0778  1.6264  1.8855
 3462TIP3    H210351   2.062   3.562   2.238 -0.7926 -0.5124  0.4972
 3463TIP3   OH210352   2.856   6.116   2.261  0.2890  0.2192  0.1502
 3463TIP3    H110353   2.821   6.082   2.178  1.0359  2.1505 -1.0389
 3463TIP3    H210354   2.949   6.096   2.257 -0.0686 -2.2524  1.9334
 3464TIP3   OH210355   6.342   1.135   5.606  0.2163 -0.2673 -0.1436
 3464TIP3    H110356   6.390   1.057   5.635 -0.8735 -0.1541  2.2072
 3464TIP3    H210357   6.395   1.208   5.640 -1.1012 -0.1308  1.7709
 3465TIP3   OH210358   3.039   4.767   3.801  0.0825  0.2330  0.2013
 3465TIP3    H110359   3.015   4.752   3.710  0.5754  0.2381  0.0679
 3465TIP3    H210360   2.999   4.850   3.824  0.3039  0.4329 -0.1361
 3466TIP3   OH210361   6.269   1.330   4.661  0.4105  0.3000  0.3759
 3466TIP3    H110362   6.317   1.398   4.708 -0.5851 -0.2291  2.2684
 3466TIP3    H210363   6.179   1.340   4.690 -0.5279  0.6436 -2.3515
 3467TIP3   OH210364   2.988   3.156   1.485 -0.1278 -0.1269 -0.0935
 3467TIP3    H110365   2.956   3.090   1.424 -0.5349 -1.8244  1.8124
 3467TIP3    H210366   2.913   3.213   1.500 -0.2646 -0.1807 -0.5589
 3468TIP3   OH210367   0.776   4.702   1.459 -0.3880 -0.0279  0.7594
 3468TIP3    H110368   0.788   4.739   1.546 -1.4073 -1.0721  1.3749
 3468TIP3    H210369   0.800   4.609   1.469 -1.6842 -0.4412  0.2426
 3469TIP3   OH210370   4.609   4.991   5.650 -0.2619  0.2372 -0.4015
 3469TIP3    H110371   4.704   5.005   5.649 -0.1523 -0.4437  0.0306
 3469TIP3    H210372   4.593   4.930   5.578 -0.1544 -0.9004  0.5084
 3470TIP3   OH210373   6.727   4.635   3.546 -0.1269  0.0642  0.1571
 3470TIP3    H110374   6.762   4.556   3.504  0.1334 -0.5178  1.4119
 3470TIP3    H210375   6.642   4.608   3.580  0.0708  0.2415  0.8094
 3471TIP3   OH210376   5.506   5.590   2.511  0.1253 -0.4152 -0.3579
 3471TIP3    H110377   5.490   5.612   2.603 -1.5353  0.4297 -0.8163
 3471TIP3    H210378   5.529   5.674   2.470 -0.5246 -0.5332 -0.9797
 3472TIP3   OH210379   5.231   1.961   3.887 -0.0813  0.5871  0.0231
 3472TIP3    H110380   5.254   1.923   3.802 -1.9050  0.6906 -0.5513
 3472TIP3    H210381   5.313   1.999   3.919  0.3193  1.9047 -2.3870
 3473TIP3   OH210382   6.091   3.913   0.053 -0.2926  0.7534 -0.2463
 3473TIP3    H110383   6.092   4.005   0.028  0.0780  1.1299  1.0427
 3473TIP3    H210384   6.042   3.912   0.136  1.3089  0.0987  0.7415
 3474TIP3   OH210385   5.269   4.670   0.984 -0.0957  0.1327  0.1491
 3474TIP3    H110386   5.189   4.618   0.993  1.0238 -1.6382  0.3424
 3474TIP3    H210387   5.289   4.668   0.890 -0.3578  0.7184  0.0769
 3475TIP3   OH210388   2.368   5.244   5.358  0.1315 -0.0446  0.5841
 3475TIP3    H110389   2.438   5.241   5.294 -1.7119 -0.8141 -1.5303
 3475TIP3    H210390   2.366   5.335   5.388  1.6193  0.1112  0.2775
 3476TIP3   OH210391   3.689   6.638   2.385 -0.1201  0.1653 -0.2504
 3476TIP3    H110392   3.678   6.705   2.318 -0.9925  0.1250 -0.1592
 3476TIP3    H210393   3.695   6.687   2.467 -1.4194  0.1181 -0.1110
 3477TIP3   OH210394   0.319   3.021   2.752 -0.2413  0.0752  0.0364
 3477TIP3    H110395   0.412   3.043   2.753  0.2506 -1.8371  1.5774
 3477TIP3    H210396   0.276   3.097   2.792  0.9265  0.0157  1.4749
 3478TIP3   OH210397   4.746   2.696   5.410  0.5036  0.2886  0.0859
 3478TIP3    H110398   4.799   2.760   5.363 -0.0953  0.6161 -0.1641
 3478TIP3    H210399   4.673   2.677   5.351  0.4936 -0.3721  0.3019
 3479TIP3   OH210400   6.567   2.905   3.685 -1.1788  0.1318 -0.3432
 3479TIP3    H110401   6.474   2.924   3.692 -1.2891 -0.3420 -0.4448
 3479TIP3    H210402   6.577   2.867   3.597 -0.7747  0.8047 -0.5993
 3480TIP3   OH210403   2.106   4.525   1.682  0.5742  0.4081 -0.1131
 3480TIP3    H110404   2.063   4.517   1.767  0.4742  1.0303 -0.0998
 3480TIP3    H210405   2.084   4.613   1.652 -1.1169 -0.5183 -1.7417
 3481TIP3   OH210406   4.940   2.788   2.153  0.6022 -0.9077  0.1331
 3481TIP3    H110407   4.894   2.816   2.073  2.8737 -0.9263 -1.2743
 3481TIP3    H210408   4.945   2.866   2.208 -0.6958 -0.8052  0.1272
 3482TIP3   OH210409   0.288   6.078   1.641 -0.1271  0.7355  0.2080
 3482TIP3    H110410   0.296   5.985   1.621 -1.8960  0.8026 -0.9935
 3482TIP3    H210411   0.243   6.081   1.725 -0.8903  0.5053 -0.1889
 3483TIP3   OH210412   3.059   0.205   4.526  0.0804 -0.1545  0.7010
 3483TIP3    H110413   3.109   0.277   4.565 -0.5062 -0.5113  2.2130
 3483TIP3    H210414   3.090   0.199   4.436  0.3747  1.7769  0.6353
 3484TIP3   OH210415   5.704   0.115   1.797 -0.3090  0.3247 -0.1676
 3484TIP3    H110416   5.755   0.182   1.841 -0.8681 -0.2552  1.4474
 3484TIP3    H210417   5.696   0.146   1.707  0.0590  2.0463  0.3564
 3485TIP3   OH210418  -0.005   0.752   2.950 -0.4604 -0.0732 -0.5281
 3485TIP3    H110419  -0.060   0.829   2.936  0.3922  0.8355  0.9141
 3485TIP3    H210420   0.084   0.782   2.929 -0.2935 -1.1033 -1.3871
 3486TIP3   OH210421   1.681   4.577   5.835  0.1363 -0.3113 -0.1133
 3486TIP3    H110422   1.640   4.655   5.871  0.5633  0.6406 -1.6183
 3486TIP3    H210423   1.673   4.512   5.905  0.5074  1.2972  1.5048
 3487TIP3   OH210424   1.579   4.902   2.932  0.4282  0.8159 -0.6391
 3487TIP3    H110425   1.493   4.871   2.961  1.0694  0.7115  1.2306
 3487TIP3    H210426   1.558   4.968   2.865 -1.0103 -1.7426 -2.9014
 3488TIP3   OH210427   7.084   3.917   3.726  0.1999 -0.5604 -0.5204
 3488TIP3    H110428   7.163   3.950   3.770  0.1407 -1.3199  0.1751
 3488TIP3    H210429   7.070   3.830   3.763 -1.6196 -0.0038  0.2131
 3489TIP3   OH210430   4.496   5.810   2.556 -0.0944 -0.0978 -0.1968
 3489TIP3    H110431   4.548   5.760   2.494  1.9215  1.6267 -0.0173
 3489TIP3    H210432   4.544   5.803   2.639 -0.5546  0.9087  0.1775
 3490TIP3   OH210433   0.541   0.019   5.758  0.2447 -0.0757  0.3116
 3490TIP3    H110434   0.555  -0.038   5.683 -0.1156 -0.2945  0.4103
 3490TIP3    H210435   0.587   0.100   5.735  1.3000 -0.6218  0.4481
 3491TIP3   OH210436   1.442   0.317   4.018  0.2588  0.4372 -0.1271
 3491TIP3    H110437   1.367   0.326   4.077 -0.1197 -1.7123 -0.2177
 3491TIP3    H210438   1.510   0.276   4.071 -0.0074 -1.3029 -1.0598
 3492TIP3   OH210439   5.691   1.132   5.001 -0.0193 -0.2239 -0.0456
 3492TIP3    H110440   5.623   1.157   5.063  0.3594  0.1297  0.2401
 3492TIP3    H210441   5.669   1.043   4.974  0.9150 -1.1753  2.1357
 3493TIP3   OH210442   3.560   6.445   0.973 -0.0785  0.0609 -0.2300
 3493TIP3    H110443   3.496   6.516   0.985 -1.2612 -1.3745  3.0462
 3493TIP3    H210444   3.644   6.490   0.964 -0.8668  1.9322  1.1031
 3494TIP3   OH210445   1.608   0.218   1.701 -0.0923 -0.0678 -0.2942
 3494TIP3    H110446   1.541   0.188   1.639 -1.1759 -0.1550  0.8638
 3494TIP3    H210447   1.584   0.308   1.721 -1.7598 -0.9750  2.4109
 3495TIP3   OH210448   0.987   5.402   2.827 -0.4868  0.3065  0.1115
 3495TIP3    H110449   0.974   5.493   2.854  1.0558  0.1474  1.5339
 3495TIP3    H210450   0.941   5.350   2.893 -1.1830  0.0096 -0.5790
 3496TIP3   OH210451   1.997   0.033   2.325 -0.1910 -0.3112  0.1169
 3496TIP3    H110452   1.973   0.045   2.234 -0.0657 -3.8146 -0.5175
 3496TIP3    H210453   2.070  -0.029   2.323 -0.2956 -0.6281  2.5809
 3497TIP3   OH210454   5.115   5.923   1.504  0.3677  0.6249  0.2600
 3497TIP3    H110455   5.170   5.900   1.580 -0.0864  0.0726  0.4274
 3497TIP3    H210456   5.137   6.014   1.486  0.9028  0.5912  0.7004
 3498TIP3   OH210457   4.289   0.509   5.615 -0.9483  0.2354  0.6573
 3498TIP3    H110458   4.383   0.499   5.628 -0.8500  1.3751  0.9430
 3498TIP3    H210459   4.274   0.484   5.524 -0.0061  2.1559 -0.0817
 3499TIP3   OH210460   1.368   6.074   4.329  0.5257  0.3657  0.4643
 3499TIP3    H110461   1.335   6.094   4.417 -2.3828 -1.6745  0.0120
 3499TIP3    H210462   1.448   6.024   4.344  0.3667  0.4938  1.9475
 3500TIP3   OH210463   0.751   3.917   0.937 -0.2103 -0.0406  0.2833
 3500TIP3    H110464   0.657   3.899   0.940 -0.0846 -0.6063  1.0277
 3500TIP3    H210465   0.792   3.843   0.983  0.5465  0.5995  0.6710
 3501TIP3   OH210466   2.466   4.734   1.703  0.2214  0.6939  0.1355
 3501TIP3    H110467   2.535   4.743   1.637 -2.8617  1.3052 -3.3543
 3501TIP3    H210468   2.436   4.644   1.693 -3.1447  1.9263 -2.7330
 3502TIP3   OH210469   2.279   6.435   1.618  0.4491  0.8190 -0.1960
 3502TIP3    H110470   2.325   6.515   1.643  1.0928 -0.2216  2.2905
 3502TIP3    H210471   2.196   6.439   1.666  1.8594 -1.4046  2.7824
 3503TIP3   OH210472   6.095   6.351   5.237  0.3542 -0.3025 -0.0469
 3503TIP3    H110473   6.152   6.424   5.261  0.7780 -0.8993  0.7917
 3503TIP3    H210474   6.017   6.393   5.201  1.1029  0.5371 -0.7523
 3504TIP3   OH210475   1.021   5.925   2.770 -0.1371  0.0241  0.5825
 3504TIP3    H110476   0.947   5.893   2.823  1.4746 -1.6254  1.9903
 3504TIP3    H210477   1.096   5.875   2.802  1.2746  0.2443 -2.1095
 3505TIP3   OH210478   0.434   1.063   4.135  0.0323  0.4146 -0.1738
 3505TIP3    H110479   0.407   1.058   4.227 -1.1576 -1.7211 -0.5812
 3505TIP3    H210480   0.528   1.047   4.137  0.2339  1.5840  0.7422
 3506TIP3   OH210481   4.132   5.942   2.816 -0.7167 -1.0523  0.2859
 3506TIP3    H110482   4.071   5.881   2.775 -1.2113  0.5590 -1.5207
 3506TIP3    H210483   4.078   6.014   2.848  0.1021 -0.1398 -0.3198
 3507TIP3   OH210484   2.241   0.030   0.460  0.1203  0.2425 -0.2312
 3507TIP3    H110485   2.228  -0.047   0.514  1.6738  0.7231  0.8800
 3507TIP3    H210486   2.164   0.032   0.403 -2.9135  1.0106  3.4736
 3508TIP3   OH210487   4.314   3.359   2.117 -0.3015  0.0006  0.0261
 3508TIP3    H110488   4.399   3.402   2.126 -0.9942  1.2036  1.4361
 3508TIP3    H210489   4.306   3.306   2.197 -1.0324  0.2392  0.1208
 3509TIP3   OH210490   2.514   5.721   1.343 -0.2222 -0.3947 -0.2104
 3509TIP3    H110491   2.545   5.685   1.261  0.0353 -2.7653  0.8514
 3509TIP3    H210492   2.424   5.690   1.351 -0.5164  0.4724  0.0664
 3510TIP3   OH210493   3.184   6.058   4.013  0.4950 -0.0754 -0.2204
 3510TIP3    H110494   3.192   5.982   4.070 -0.8932  0.0429  0.1530
 3510TIP3    H210495   3.162   6.022   3.927  0.0686 -0.1029 -0.0976
 3511TIP3   OH210496   3.888   0.717   4.302 -0.3474 -0.1401  0.0647
 3511TIP3    H110497   3.810   0.687   4.348 -0.8465  1.3972  0.2712
 3511TIP3    H210498   3.951   0.646   4.312 -1.0521 -0.5828  1.5940
 3512TIP3   OH210499   5.671   4.983   4.271  0.5230  0.0084  0.6721
 3512TIP3    H110500   5.724   5.039   4.214 -0.4994  0.6709  0.3345
 3512TIP3    H210501   5.734   4.929   4.318  1.4084 -1.0023 -1.5142
 3513TIP3   OH210502   6.055   2.698   2.455 -0.0039 -0.2096 -0.1875
 3513TIP3    H110503   6.051   2.605   2.434 -1.6378 -0.6879  1.9028
 3513TIP3    H210504   6.136   2.708   2.506 -0.5195 -0.8115  0.7840
 3514TIP3   OH210505   3.458   1.124   4.104  0.5592 -0.1567  0.1010
 3514TIP3    H110506   3.440   1.034   4.075 -0.4949  0.1046 -0.0968
 3514TIP3    H210507   3.491   1.169   4.026  0.3950 -0.1812  0.0177
 3515TIP3   OH210508   1.488   5.103   4.270 -0.3986  0.2259 -0.3307
 3515TIP3    H110509   1.565   5.147   4.307  0.7673 -1.9553  0.0014
 3515TIP3    H210510   1.422   5.109   4.339  0.4723 -0.4269  0.5933
 3516TIP3   OH210511   6.691   5.119   4.166  0.0885 -0.1088  0.0964
 3516TIP3    H110512   6.630   5.184   4.131  0.5078  0.8824  1.1370
 3516TIP3    H210513   6.744   5.167   4.229  1.4364 -1.1285 -0.2085
 3517TIP3   OH210514   5.087   0.223   3.541  0.3205 -0.1894 -0.5472
 3517TIP3    H110515   4.994   0.206   3.556  0.3716  1.0026  1.5020
 3517TIP3    H210516   5.098   0.214   3.447 -1.7298 -0.9997 -0.7633
 3518TIP3   OH210517   0.681   3.239   5.157 -0.6373  0.6254  0.3288
 3518TIP3    H110518   0.759   3.275   5.116 -1.1606 -1.0474 -2.3690
 3518TIP3    H210519   0.714   3.186   5.230  0.4359  2.6142  1.3467
 3519TIP3   OH210520   6.871   1.805   1.380  0.1344 -0.0979  1.0827
 3519TIP3    H110521   6.886   1.850   1.463 -0.0634  0.8428  0.6219
 3519TIP3    H210522   6.953   1.816   1.331  0.7079 -1.6987  1.5939
 3520TIP3   OH210523   2.232   4.448   0.952 -0.6746 -0.2906  0.1728
 3520TIP3    H110524   2.279   4.479   0.874  0.2153  0.4346  0.9801
 3520TIP3    H210525   2.298   4.401   1.003 -0.9082  0.4013  1.1360
 3521TIP3   OH210526   1.981   6.226   4.725  0.3012 -0.3787  0.0882
 3521TIP3    H110527   2.040   6.216   4.800  0.2669  0.6154  0.2575
 3521TIP3    H210528   1.900   6.261   4.763 -0.0293 -0.7157 -0.2930
 3522TIP3   OH210529   3.223   2.754   0.949  0.9747  0.0218  0.4224
 3522TIP3    H110530   3.152   2.812   0.922  0.7999  0.5135  1.8493
 3522TIP3    H210531   3.196   2.720   1.034  0.7507 -2.7458 -0.6346
 3523TIP3   OH210532   4.072   4.238   0.828 -0.1426  0.3227  0.0679
 3523TIP3    H110533   4.046   4.308   0.888  0.7237  1.2625 -0.6141
 3523TIP3    H210534   4.136   4.187   0.877 -2.5392 -1.5215  1.4627
 3524TIP3   OH210535   1.265   5.941   2.255  0.3953 -0.1268  0.3405
 3524TIP3    H110536   1.288   5.853   2.286 -1.5592 -1.2940 -1.3011
 3524TIP3    H210537   1.307   5.947   2.168 -0.7197 -0.0663 -0.2075
 3525TIP3   OH210538   4.084   4.258   3.795  0.7047 -0.0188  0.4141
 3525TIP3    H110539   4.068   4.209   3.875 -1.1806 -1.4198 -0.7383
 3525TIP3    H210540   4.149   4.206   3.747 -1.9498 -2.1122 -1.2219
 3526TIP3   OH210541   1.657   2.597   2.457 -0.5265  0.2750  0.0890
 3526TIP3    H110542   1.753   2.589   2.451 -0.5589  0.7966 -2.5510
 3526TIP3    H210543   1.635   2.663   2.391 -2.6214  1.2632  1.6811
 3527TIP3   OH210544   3.516   5.550   2.090  0.2086  0.1823 -0.7559
 3527TIP3    H110545   3.612   5.550   2.096  0.2911 -2.6183 -0.5899
 3527TIP3    H210546   3.497   5.481   2.026 -1.7299 -1.8938  1.8570
 3528TIP3   OH210547   1.528   0.738   0.335 -0.1937  0.1175  0.0598
 3528TIP3    H110548   1.530   0.812   0.274  4.6053 -0.2725 -0.6409
 3528TIP3    H210549   1.486   0.667   0.286 -0.3002  0.9879 -1.1541
 3529TIP3   OH210550   4.228   1.828   1.481 -0.2310 -0.1292  0.2297
 3529TIP3    H110551   4.287   1.774   1.534 -1.0367 -0.4669  0.7987
 3529TIP3    H210552   4.177   1.764   1.430 -0.9842  0.0957  0.6881
 3530TIP3   OH210553   1.995   0.223   5.395 -0.2524 -0.4163 -0.2551
 3530TIP3    H110554   1.974   0.249   5.305  2.2325 -1.5740 -1.2710
 3530TIP3    H210555   1.964   0.133   5.402 -0.7695 -0.2108  0.2005
 3531TIP3   OH210556   0.558   4.523   1.263 -0.3011 -0.3297 -0.5041
 3531TIP3    H110557   0.555   4.487   1.351  0.5334 -1.1333 -0.7812
 3531TIP3    H210558   0.651   4.521   1.240 -0.5541 -0.5714 -1.5698
 3532TIP3   OH210559   4.783   1.827   1.653 -0.8093  0.7700 -0.3046
 3532TIP3    H110560   4.745   1.746   1.619 -2.0618  1.5116 -0.7715
 3532TIP3    H210561   4.730   1.897   1.613  0.7540  1.8636 -0.5799
 3533TIP3   OH210562   3.702   3.086   2.005  0.3717  0.0444  0.6272
 3533TIP3    H110563   3.620   3.072   2.052  0.0790  3.4511  1.3661
 3533TIP3    H210564   3.677   3.086   1.913 -0.2391 -0.2059  0.7856
 3534TIP3   OH210565   3.444   6.519   2.431  0.1280 -0.1616  0.2438
 3534TIP3    H110566   3.480   6.444   2.385  0.8806  0.3583 -0.0414
 3534TIP3    H210567   3.511   6.588   2.421 -1.1689  1.0114 -0.7789
 3535TIP3   OH210568   5.035   1.851   4.595 -0.0351  0.4426 -0.0964
 3535TIP3    H110569   5.008   1.942   4.586  0.5640  0.8088  1.5244
 3535TIP3    H210570   4.999   1.824   4.680  2.0972  0.0380  0.7330
 3536TIP3   OH210571   6.805   2.480   5.386 -0.7224 -0.4173  0.2657
 3536TIP3    H110572   6.803   2.440   5.473  0.2075 -0.5437  0.2337
 3536TIP3    H210573   6.809   2.406   5.326  0.5399 -0.3077  0.1896
 3537TIP3   OH210574   6.810   4.902   5.002  0.0130 -0.1260  0.4108
 3537TIP3    H110575   6.880   4.960   5.031 -0.9831  0.6775  1.3048
 3537TIP3    H210576   6.739   4.961   4.975 -0.0346 -0.9012 -1.3020
 3538TIP3   OH210577   2.579   5.258   0.958  0.2106  0.1422 -0.1087
 3538TIP3    H110578   2.586   5.190   0.891 -1.8975 -0.4122  0.1645
 3538TIP3    H210579   2.486   5.281   0.959  0.2023  0.2534  2.5086
 3539TIP3   OH210580   3.441   5.877   1.125  0.2840 -0.3340 -0.9071
 3539TIP3    H110581   3.439   5.797   1.179  1.2749 -1.2829 -2.2169
 3539TIP3    H210582   3.382   5.858   1.052  1.2965 -0.2774 -1.7523
 3540TIP3   OH210583   3.654   0.420   1.314 -0.3977  0.2184  0.5334
 3540TIP3    H110584   3.741   0.415   1.275 -0.2465 -2.3295  1.0099
 3540TIP3    H210585   3.622   0.508   1.293  1.4729  0.4936 -1.3695
 3541TIP3   OH210586   0.218   5.461   5.018 -0.1533 -0.1152 -0.0634
 3541TIP3    H110587   0.141   5.411   4.992  1.5614 -2.4253 -1.1165
 3541TIP3    H210588   0.239   5.428   5.106 -1.8385  2.5144  1.4503
 3542TIP3   OH210589   5.716   3.192   4.221 -0.0387 -0.0188  0.1595
 3542TIP3    H110590   5.622   3.205   4.236 -0.7131 -2.7252 -0.9989
 3542TIP3    H210591   5.751   3.174   4.308 -1.2877 -2.2078  0.2903
 3543TIP3   OH210592   6.545   0.351   0.960  0.0688 -0.8461 -0.7848
 3543TIP3    H110593   6.641   0.346   0.962  0.0194 -1.8397 -0.6127
 3543TIP3    H210594   6.526   0.399   0.880  0.7767  1.9118  0.5899
 3544TIP3   OH210595   5.978   0.389   1.576 -0.0513  0.3496 -0.5399
 3544TIP3    H110596   6.003   0.298   1.560 -1.4178 -0.0408 -0.5276
 3544TIP3    H210597   5.926   0.386   1.657 -0.1930  1.1248 -0.5948
 3545TIP3   OH210598   7.102   5.597   1.164  0.0881 -0.0948 -0.6661
 3545TIP3    H110599   7.140   5.521   1.208 -3.7134 -1.7106  0.2520
 3545TIP3    H210600   7.070   5.653   1.236 -2.2948 -0.6017 -1.2462
 3546TIP3   OH210601   6.994   4.661   1.099  0.2103 -0.3242  0.0435
 3546TIP3    H110602   6.919   4.673   1.041  0.1778 -0.1281  0.1288
 3546TIP3    H210603   6.981   4.573   1.136 -1.3431  0.6758  2.0328
 3547TIP3   OH210604   3.523   0.212   1.426 -0.1779  0.0600 -0.0731
 3547TIP3    H110605   3.557   0.291   1.384 -1.7110  0.5831 -0.4188
 3547TIP3    H210606   3.551   0.219   1.517  2.1010 -0.4493 -0.6700
 3548TIP3   OH210607   6.526   1.487   5.601 -0.2680 -0.3380 -0.0415
 3548TIP3    H110608   6.476   1.429   5.659 -0.9495  0.2923  0.0173
 3548TIP3    H210609   6.472   1.566   5.594  0.4870  0.1579 -0.3869
 3549TIP3   OH210610   0.352   5.245   4.494 -0.0507 -0.1400 -0.1484
 3549TIP3    H110611   0.323   5.196   4.571 -0.4543  1.3177  0.6587
 3549TIP3    H210612   0.378   5.177   4.431 -0.9986 -1.3906  0.7536
 3550TIP3   OH210613   5.811   1.379   1.913 -0.5172  0.9150  0.1463
 3550TIP3    H110614   5.756   1.457   1.913 -0.4731  1.0154  2.3376
 3550TIP3    H210615   5.887   1.403   1.966 -0.7139 -0.7108  1.2357
 3551TIP3   OH210616   5.717   1.077   1.508  0.3642  0.3604  0.0180
 3551TIP3    H110617   5.780   1.022   1.461 -2.3679 -1.9805 -1.2084
 3551TIP3    H210618   5.761   1.098   1.590  2.3340 -2.1301 -0.2570
 3552TIP3   OH210619   0.238   1.610   0.964 -0.0039  0.2004 -0.0511
 3552TIP3    H110620   0.205   1.541   0.906 -0.2702  0.9969 -0.8646
 3552TIP3    H210621   0.333   1.597   0.965 -0.1708 -1.2002  1.1444
 3553TIP3   OH210622   1.421   0.655   2.136 -0.2149  0.1711  0.5241
 3553TIP3    H110623   1.359   0.728   2.145  0.4013  0.5656  1.7910
 3553TIP3    H210624   1.366   0.577   2.139 -0.7839  0.5467  0.1792
 3554TIP3   OH210625   4.763   5.250   5.498  0.1380  0.4125  0.0640
 3554TIP3    H110626   4.821   5.263   5.423  1.1306  0.3938  0.8098
 3554TIP3    H210627   4.818   5.209   5.565  0.1086  2.9316  1.8184
 3555TIP3   OH210628   0.033   3.523   3.928 -0.1650 -0.6056  0.1382
 3555TIP3    H110629  -0.024   3.580   3.876 -0.1823 -0.3448  0.4369
 3555TIP3    H210630   0.047   3.446   3.873 -1.6390 -1.1496  0.4745
 3556TIP3   OH210631   2.675   3.387   3.209 -0.0767  0.0802  0.1717
 3556TIP3    H110632   2.748   3.432   3.251 -0.3068 -0.9197  1.7362
 3556TIP3    H210633   2.710   3.356   3.126  0.6378  1.4424 -0.0650
 3557TIP3   OH210634   1.705   5.011   5.068 -0.2811  0.2980 -0.1167
 3557TIP3    H110635   1.793   5.038   5.041 -0.5790  0.8718 -0.5374
 3557TIP3    H210636   1.646   5.073   5.025 -0.9677 -0.7098 -0.6938
 3558TIP3   OH210637   3.516   4.349   5.218 -0.0445  0.4449 -0.5461
 3558TIP3    H110638   3.564   4.279   5.262  0.5499 -0.3152 -2.2717
 3558TIP3    H210639   3.480   4.403   5.288 -0.3390 -1.4666  0.8423
 3559TIP3   OH210640   2.891   5.302   0.517 -0.1224  0.2427  1.0687
 3559TIP3    H110641   2.839   5.372   0.558 -0.5443  0.5492  0.0427
 3559TIP3    H210642   2.903   5.238   0.586  0.3788  1.3809  2.0802
 3560TIP3   OH210643   1.593   5.566   0.455  0.0830 -0.1757 -0.2419
 3560TIP3    H110644   1.632   5.621   0.387  2.6287 -2.7515 -1.1053
 3560TIP3    H210645   1.629   5.600   0.537  1.6875 -0.5051 -0.7678
 3561TIP3   OH210646   1.115   1.358   2.734  0.1363  0.1913 -0.3889
 3561TIP3    H110647   1.134   1.419   2.806  0.9151 -0.1388 -0.3039
 3561TIP3    H210648   1.117   1.271   2.775 -0.7905  0.0803 -0.5448
 3562TIP3   OH210649   5.506   1.773   3.192  0.3416 -0.7981  0.4514
 3562TIP3    H110650   5.411   1.781   3.201  0.2054 -1.5198 -0.2322
 3562TIP3    H210651   5.537   1.754   3.280 -0.3579 -2.3610  0.3873
 3563TIP3   OH210652   6.294   4.761   0.479  0.5848  0.4497  0.0998
 3563TIP3    H110653   6.283   4.672   0.446  2.0925  0.0288  0.6724
 3563TIP3    H210654   6.204   4.794   0.489  0.0287 -0.7349 -0.8002
 3564TIP3   OH210655   6.153   4.390   1.308  0.2229 -0.0062 -0.2145
 3564TIP3    H110656   6.216   4.332   1.350 -0.5381  0.0176  1.0193
 3564TIP3    H210657   6.100   4.332   1.252  1.5116  0.0268 -1.5279
 3565TIP3   OH210658   5.974   2.157   0.933  0.1828 -0.2523 -0.3202
 3565TIP3    H110659   5.941   2.086   0.988  0.7203  0.5097  1.0392
 3565TIP3    H210660   5.957   2.237   0.984  1.9376  0.3593 -0.6222
 3566TIP3   OH210661   4.835   2.650   0.228  0.4662  0.0968  0.2153
 3566TIP3    H110662   4.893   2.714   0.271 -0.2295  0.0431  1.2456
 3566TIP3    H210663   4.892   2.606   0.165  0.9897  1.6717 -0.4827
 3567TIP3   OH210664   4.951   5.203   5.289  0.0322 -0.0143 -0.7075
 3567TIP3    H110665   4.990   5.290   5.295 -0.1134 -0.0380  2.2195
 3567TIP3    H210666   5.024   5.144   5.277  0.5032  0.2866  0.5340
 3568TIP3   OH210667   5.488   5.814   1.429  0.3636 -0.0214  0.4966
 3568TIP3    H110668   5.413   5.776   1.474  0.2815 -0.3320  0.1022
 3568TIP3    H210669   5.473   5.909   1.433 -0.3545 -0.0982 -0.0947
 3569TIP3   OH210670   2.729   6.641   1.597  0.1103 -0.6837 -0.4601
 3569TIP3    H110671   2.715   6.734   1.618  1.7853 -0.2501 -1.1386
 3569TIP3    H210672   2.682   6.594   1.666 -2.7061  0.6069 -1.3573
 3570TIP3   OH210673   2.041   0.983   1.958 -0.3324  0.0704 -0.9673
 3570TIP3    H110674   1.977   1.048   1.931  0.3688  1.2182  0.0468
 3570TIP3    H210675   2.024   0.970   2.052 -0.2508 -0.9763 -1.0797
 3571TIP3   OH210676   4.004   4.696   3.496 -0.5230 -0.2135 -0.3700
 3571TIP3    H110677   4.084   4.749   3.494 -0.4249 -0.2813  0.8895
 3571TIP3    H210678   3.999   4.665   3.587 -1.9691 -0.2215 -0.4374
 3572TIP3   OH210679   2.351   2.686   3.290  0.3639 -0.0398 -0.2009
 3572TIP3    H110680   2.336   2.779   3.272  0.7210  0.5196  2.1065
 3572TIP3    H210681   2.445   2.674   3.280  0.2013 -0.4251 -1.4763
 3573TIP3   OH210682   4.419   5.642   4.665  0.0685 -0.4041  0.2447
 3573TIP3    H110683   4.386   5.600   4.745 -0.1747  2.0679  1.5188
 3573TIP3    H210684   4.508   5.608   4.656  0.7422  0.5417  2.5781
 3574TIP3   OH210685   5.390   5.296   2.820 -0.1625  0.7276 -0.0750
 3574TIP3    H110686   5.427   5.289   2.732  2.0715  0.2701  0.8420
 3574TIP3    H210687   5.343   5.213   2.833 -0.3186  0.7071 -0.7307
 3575TIP3   OH210688   6.456   5.667   0.328 -0.1724  0.1481 -0.2198
 3575TIP3    H110689   6.386   5.693   0.267  0.8985 -0.0136 -1.5764
 3575TIP3    H210690   6.451   5.572   0.331 -2.2006  0.2310  2.4425
 3576TIP3   OH210691   0.910   5.340   3.925 -0.5188 -0.0152 -0.8729
 3576TIP3    H110692   0.962   5.415   3.896  2.2654 -0.7830  1.6471
 3576TIP3    H210693   0.889   5.359   4.017  0.5529 -2.3898 -0.0577
 3577TIP3   OH210694   7.128   6.107   5.659  0.3378  0.0079  0.0763
 3577TIP3    H110695   7.115   6.088   5.567 -1.0587  1.4899 -0.0810
 3577TIP3    H210696   7.156   6.024   5.698 -1.6554 -1.3201 -1.1976
 3578TIP3   OH210697   6.758   3.216   3.302 -0.7339  0.0810  0.1399
 3578TIP3    H110698   6.729   3.257   3.384 -1.1151 -0.9354  0.5373
 3578TIP3    H210699   6.771   3.289   3.242  2.7927  1.2073  2.0282
 3579TIP3   OH210700   4.171   3.935   2.800 -0.1242  0.7397  0.1341
 3579TIP3    H110701   4.125   3.921   2.883 -2.9033 -1.1060 -1.5587
 3579TIP3    H210702   4.115   3.996   2.751  0.2404  0.0192 -1.2408
 3580TIP3   OH210703   4.221   2.647   4.197 -0.0866 -0.8272 -0.1274
 3580TIP3    H110704   4.157   2.664   4.128 -3.3792 -3.2678  2.0467
 3580TIP3    H210705   4.269   2.569   4.167 -0.6156 -1.1221 -0.2116
 3581TIP3   OH210706   4.083   6.197   5.685 -0.3636  0.2615 -0.2784
 3581TIP3    H110707   4.085   6.142   5.606 -1.2196  0.0372 -0.1539
 3581TIP3    H210708   3.998   6.179   5.724 -0.1061  0.6754  0.4885
 3582TIP3   OH210709   1.780   1.076   5.826 -0.4847  0.8362 -0.0838
 3582TIP3    H110710   1.835   1.051   5.752  0.2879  1.0939  0.3835
 3582TIP3    H210711   1.752   1.165   5.806 -1.3653  0.4301 -0.6804
 3583TIP3   OH210712   2.167   5.878   0.938  0.2325  0.5964 -0.0586
 3583TIP3    H110713   2.197   5.952   0.991 -1.3962  1.9016 -0.8683
 3583TIP3    H210714   2.239   5.862   0.877  0.9385  0.9774  0.6561
 3584TIP3   OH210715   6.756   5.459   1.275 -0.1575 -0.0456 -0.0899
 3584TIP3    H110716   6.733   5.533   1.331 -1.6791 -1.4775  1.3110
 3584TIP3    H210717   6.672   5.422   1.248  0.5267 -1.7587 -0.0058
 3585TIP3   OH210718   1.759   2.023   1.781  0.2083 -0.2871  0.3347
 3585TIP3    H110719   1.675   2.025   1.734  0.8893 -0.2216 -0.9071
 3585TIP3    H210720   1.770   2.112   1.814  1.2837  0.6660 -2.2904
 3586TIP3   OH210721   3.077   0.842   0.857 -0.3499  0.5738 -0.9715
 3586TIP3    H110722   3.129   0.781   0.805 -1.1152  0.7232 -1.9397
 3586TIP3    H210723   3.130   0.922   0.861  0.4139  0.0431 -0.1534
 3587TIP3   OH210724   5.865   2.116   0.507  0.1855 -0.0704 -0.2812
 3587TIP3    H110725   5.940   2.169   0.480 -0.0016  0.3203 -0.0399
 3587TIP3    H210726   5.807   2.116   0.430  0.4378 -0.3803 -0.4704
 3588TIP3   OH210727   1.806   1.228   2.999  0.2842  0.6785  0.3387
 3588TIP3    H110728   1.712   1.241   2.992  0.3767  1.9714  1.0615
 3588TIP3    H210729   1.818   1.185   3.084  0.1482 -2.6168 -1.1560
 3589TIP3   OH210730   3.180   2.663   3.513 -0.0690  0.1449  0.6002
 3589TIP3    H110731   3.251   2.658   3.449 -0.1527  0.8350  0.4538
 3589TIP3    H210732   3.153   2.572   3.525  0.4543 -0.0640  0.2235
 3590TIP3   OH210733   3.203   6.469   0.835  0.7978  0.2525  0.0173
 3590TIP3    H110734   3.253   6.487   0.914  0.0813  0.4253  0.4404
 3590TIP3    H210735   3.127   6.528   0.840  0.3188 -0.3141 -0.3885
 3591TIP3   OH210736   1.945   4.644   0.908 -0.6004 -0.1729 -0.5071
 3591TIP3    H110737   1.855   4.659   0.935 -0.7292  0.4656 -1.2394
 3591TIP3    H210738   1.978   4.578   0.968 -1.8720 -1.1607 -0.8675
 3592TIP3   OH210739   5.025   3.315   4.379  0.3643  0.5167  0.0124
 3592TIP3    H110740   5.005   3.329   4.286  1.2806  0.4694 -0.2050
 3592TIP3    H210741   4.940   3.301   4.420 -0.0630  0.6372 -0.8051
 3593TIP3   OH210742   0.477   1.109   1.593 -0.0049 -0.0677 -0.2009
 3593TIP3    H110743   0.473   1.056   1.673 -1.5275  1.2628  0.6556
 3593TIP3    H210744   0.468   1.045   1.522  1.5588 -1.2988  0.6323
 3594TIP3   OH210745   2.743   2.550   4.138  0.5548  0.4153 -0.1242
 3594TIP3    H110746   2.719   2.530   4.228  0.7301 -1.3758 -0.4333
 3594TIP3    H210747   2.666   2.594   4.101  0.1975  0.4744  0.6738
 3595TIP3   OH210748   5.880   0.130   2.743  0.2793  0.1425  0.1878
 3595TIP3    H110749   5.836   0.055   2.704 -2.2448  1.4233  0.3628
 3595TIP3    H210750   5.840   0.138   2.830  1.6606  0.7689  0.7942
 3596TIP3   OH210751   1.269   4.045   5.734 -0.2490  0.3024 -0.6623
 3596TIP3    H110752   1.233   4.123   5.692 -0.4072  0.5851 -0.0180
 3596TIP3    H210753   1.302   3.992   5.662  0.9517  1.5115 -1.0586
 3597TIP3   OH210754   1.926   4.449   3.304 -0.5375 -0.8908  0.2203
 3597TIP3    H110755   1.884   4.518   3.253 -0.2138  0.5348  1.7871
 3597TIP3    H210756   2.005   4.427   3.254 -0.9395 -0.5357 -0.5839
 3598TIP3   OH210757   5.206   2.406   2.884 -0.4967 -0.7724 -0.3377
 3598TIP3    H110758   5.154   2.481   2.857 -2.6919 -1.7495  0.9393
 3598TIP3    H210759   5.246   2.374   2.803  0.5923  1.7790 -0.8865
 3599TIP3   OH210760   1.307   0.437   0.782  0.7159  0.4999  0.0223
 3599TIP3    H110761   1.393   0.408   0.813  1.4358 -0.2947 -2.4831
 3599TIP3    H210762   1.282   0.372   0.716 -2.8255 -0.4928  2.0272
 3600TIP3   OH210763   6.585   5.009   2.371 -0.7201 -0.0899 -0.3891
 3600TIP3    H110764   6.593   4.939   2.306  1.0706  0.4423 -0.8052
 3600TIP3    H210765   6.655   5.071   2.349 -0.3590  0.3553  1.7333
 3601TIP3   OH210766   3.207   3.954   1.013 -0.0039  0.3646 -0.0908
 3601TIP3    H110767   3.219   3.860   1.028 -0.7806  0.5047  1.6196
 3601TIP3    H210768   3.292   3.985   0.982  0.3538 -0.8365 -0.3490
 3602TIP3   OH210769   4.446   2.673   0.219 -0.2042 -0.1195  0.0417
 3602TIP3    H110770   4.513   2.736   0.194  0.0027 -1.0760 -2.0218
 3602TIP3    H210771   4.477   2.590   0.183 -2.0892 -0.7314 -0.2778
 3603TIP3   OH210772   6.824   5.924   5.726  0.0246 -0.5643 -0.1072
 3603TIP3    H110773   6.783   6.006   5.753 -1.0721 -1.4762  1.1121
 3603TIP3    H210774   6.911   5.926   5.764 -0.3330 -0.3756  0.7084
 3604TIP3   OH210775   3.308   4.326   0.157  0.1237  0.4276 -0.2338
 3604TIP3    H110776   3.398   4.298   0.143  0.2499  1.1536 -0.9492
 3604TIP3    H210777   3.313   4.393   0.225  0.0277 -0.0443  0.2462
 3605TIP3   OH210778   0.943   1.767   4.110  0.1762 -0.7147 -0.1339
 3605TIP3    H110779   0.879   1.720   4.057 -0.2194  0.4771 -0.7585
 3605TIP3    H210780   1.025   1.758   4.062  0.4500 -2.0560  0.5528
 3606TIP3   OH210781   5.722   2.018   3.144 -0.0429  0.1964  0.0861
 3606TIP3    H110782   5.665   2.036   3.218  0.6150  0.5995  0.5039
 3606TIP3    H210783   5.765   2.102   3.126  1.8819 -0.5356  1.0481
 3607TIP3   OH210784   1.239   4.587   4.660 -0.5224  0.0512  0.2715
 3607TIP3    H110785   1.192   4.670   4.655  0.0738  0.3924  0.3016
 3607TIP3    H210786   1.256   4.564   4.569 -0.8151 -0.1111  0.2576
 3608TIP3   OH210787   1.236   1.256   5.608 -0.0568 -0.0262 -0.0425
 3608TIP3    H110788   1.172   1.318   5.575  0.5825  0.7349  0.1213
 3608TIP3    H210789   1.187   1.204   5.672 -0.7072  0.0100 -0.4948
 3609TIP3   OH210790   4.289   5.039   4.461 -0.2177 -0.2795  0.2003
 3609TIP3    H110791   4.211   5.042   4.517  0.3617 -0.0198  1.0188
 3609TIP3    H210792   4.256   5.051   4.372 -0.9543  1.4489  0.6668
 3610TIP3   OH210793   1.724   0.961   2.476 -0.5788  0.3082 -0.2472
 3610TIP3    H110794   1.818   0.967   2.455 -0.2597 -0.5790  0.8006
 3610TIP3    H210795   1.686   0.910   2.405  0.2993 -1.8557  0.7517
 3611TIP3   OH210796   1.881   5.413   2.994 -0.2463 -0.3364 -0.1659
 3611TIP3    H110797   1.955   5.353   2.987  0.7618  0.8243  0.2376
 3611TIP3    H210798   1.917   5.499   2.972 -1.2173  0.4148  1.0520
 3612TIP3   OH210799   2.041   5.807   1.362 -0.2188 -0.8682 -0.5345
 3612TIP3    H110800   1.964   5.825   1.416 -0.2191 -0.7596 -0.5704
 3612TIP3    H210801   2.009   5.814   1.272  0.5716  2.8727 -0.6917
 3613TIP3   OH210802   0.851   1.693   4.357 -0.1150 -0.2778 -0.3620
 3613TIP3    H110803   0.773   1.747   4.348  1.2389  2.0161  0.6484
 3613TIP3    H210804   0.899   1.707   4.276 -0.1240 -0.6194 -0.4278
 3614TIP3   OH210805   6.431   2.493   5.824  0.1169 -0.0712  0.1607
 3614TIP3    H110806   6.342   2.486   5.789 -0.3991 -1.2874  1.6072
 3614TIP3    H210807   6.466   2.573   5.784 -1.7355  0.6234 -0.1800
 3615TIP3   OH210808   1.123   6.569   3.581 -0.6676 -0.4868  0.1729
 3615TIP3    H110809   1.090   6.486   3.614 -0.8927 -0.0799  0.9953
 3615TIP3    H210810   1.204   6.584   3.630 -1.1427  0.2513  0.7580
 3616TIP3   OH210811   2.383   3.030   3.508  0.2788 -0.2180  0.0126
 3616TIP3    H110812   2.437   3.054   3.433 -0.3707 -0.4354 -0.5292
 3616TIP3    H210813   2.305   3.086   3.501 -0.0555 -0.6508  0.1912
 3617TIP3   OH210814   4.990   5.057   3.766  0.4477  0.1941 -0.5032
 3617TIP3    H110815   4.933   5.062   3.842 -1.1668 -2.1490 -1.4412
 3617TIP3    H210816   5.044   5.136   3.771 -1.8439  1.7688  1.2477
 3618TIP3   OH210817   4.329   5.195   2.262 -0.2359 -0.9930  0.3266
 3618TIP3    H110818   4.388   5.125   2.233  0.0850 -0.3832 -0.5328
 3618TIP3    H210819   4.388   5.266   2.286 -0.6286 -0.0035 -1.5133
 3619TIP3   OH210820   4.166   2.069   2.031 -0.9639  0.0082  0.6327
 3619TIP3    H110821   4.085   2.019   2.042 -0.4310 -0.6665  1.6971
 3619TIP3    H210822   4.166   2.131   2.103  0.1018 -0.9203  1.4596
 3620TIP3   OH210823   4.086   2.037   4.191 -0.5363 -0.0866  0.2782
 3620TIP3    H110824   4.035   1.956   4.189 -0.2645 -0.2459 -0.4988
 3620TIP3    H210825   4.153   2.020   4.258 -0.3007 -0.6177 -0.0850
 3621TIP3   OH210826   3.362   3.179   3.537 -0.2951 -0.1516  0.1009
 3621TIP3    H110827   3.296   3.152   3.601 -0.6005  0.2724 -0.0302
 3621TIP3    H210828   3.342   3.271   3.518  0.1797 -0.0887 -0.1289
 3622TIP3   OH210829   1.016   3.351   5.709 -0.0502 -0.3896  0.1510
 3622TIP3    H110830   0.978   3.396   5.785  2.2969  0.6002  0.8312
 3622TIP3    H210831   1.008   3.258   5.729 -0.2560 -0.1551  1.2124
 3623TIP3   OH210832   0.590   2.175   0.519 -0.5099 -0.0087  0.9133
 3623TIP3    H110833   0.621   2.089   0.489 -1.1451  0.1519 -0.2844
 3623TIP3    H210834   0.495   2.169   0.513 -0.5312  1.2676 -0.7052
 3624TIP3   OH210835   3.979   6.724   4.247 -0.4770 -0.3471 -0.1943
 3624TIP3    H110836   4.064   6.736   4.206 -0.6732  1.1332 -0.2029
 3624TIP3    H210837   3.978   6.631   4.272  0.3305 -0.8821 -1.9684
 3625TIP3   OH210838   1.345   6.142   0.736 -0.0835  0.2118 -0.3020
 3625TIP3    H110839   1.433   6.172   0.756  0.5764  0.7208 -3.5253
 3625TIP3    H210840   1.345   6.049   0.762  0.3338  0.9284  2.5406
 3626TIP3   OH210841   2.432   6.536   4.142 -0.6037  0.2452 -0.3415
 3626TIP3    H110842   2.494   6.487   4.088 -0.6823  0.5675 -0.7343
 3626TIP3    H210843   2.350   6.488   4.134 -0.4549 -0.0637  0.0063
 3627TIP3   OH210844   3.941   1.378   1.859 -0.6836  0.1689 -0.0996
 3627TIP3    H110845   3.985   1.410   1.780 -2.9786  0.7677 -1.2104
 3627TIP3    H210846   3.926   1.285   1.842 -0.7992  0.2045 -0.1960
 3628TIP3   OH210847   1.084   1.984   4.750 -0.3469  0.3066  0.3481
 3628TIP3    H110848   1.096   2.004   4.657 -2.2680  1.9305  0.3684
 3628TIP3    H210849   1.142   2.044   4.795 -0.4572  0.5174  0.2141
 3629TIP3   OH210850   5.391   0.433   3.005  1.1548  0.2503 -0.4109
 3629TIP3    H110851   5.406   0.383   2.925 -1.2099 -0.2192 -0.6437
 3629TIP3    H210852   5.408   0.371   3.076 -2.5993 -1.3826 -0.6981
 3630TIP3   OH210853   4.950   1.228   1.312 -0.9769  0.2984  0.0975
 3630TIP3    H110854   4.870   1.252   1.358 -1.9047 -1.0367 -0.7450
 3630TIP3    H210855   5.006   1.189   1.380 -1.1768  0.9083  0.6209
 3631TIP3   OH210856   6.061   0.652   1.544 -0.7236  0.5266  0.0533
 3631TIP3    H110857   5.984   0.687   1.588 -0.6667 -0.3520  0.8926
 3631TIP3    H210858   6.046   0.557   1.541 -0.9902  0.5933 -2.3539
 3632TIP3   OH210859   6.260   4.517   1.069 -0.0938 -0.3078 -0.0777
 3632TIP3    H110860   6.192   4.581   1.047 -0.9626 -1.2253 -0.1199
 3632TIP3    H210861   6.242   4.494   1.160  0.7017  0.0779  0.1881
 3633TIP3   OH210862   5.691   1.596   4.883  0.1225 -0.2616 -0.2120
 3633TIP3    H110863   5.756   1.543   4.929 -0.2712 -2.0441 -1.5997
 3633TIP3    H210864   5.722   1.686   4.894  1.2501 -0.8030  1.5581
 3634TIP3   OH210865   5.444   3.138   1.382 -0.0069  0.1104  0.4440
 3634TIP3    H110866   5.389   3.061   1.394  0.7002 -0.5473 -0.3953
 3634TIP3    H210867   5.397   3.208   1.428 -1.5799 -0.3966 -0.2992
 3635TIP3   OH210868   0.953   4.081   3.860 -0.4613  0.0653 -0.1518
 3635TIP3    H110869   0.910   4.059   3.777 -0.2060  0.2432 -0.3343
 3635TIP3    H210870   1.046   4.079   3.839 -0.2756 -1.8453  0.5978
 3636TIP3   OH210871   3.068   6.192   5.201  0.1264  0.2265 -0.4668
 3636TIP3    H110872   3.038   6.266   5.254  0.5912  1.6657 -2.1114
 3636TIP3    H210873   3.008   6.189   5.127 -1.4807 -2.7488  0.7666
 3637TIP3   OH210874   4.909   5.841   2.782 -0.0958 -0.0443  0.0104
 3637TIP3    H110875   4.851   5.875   2.850 -0.9251 -0.0859 -0.6685
 3637TIP3    H210876   4.862   5.856   2.700  0.9849  0.2061 -0.5898
 3638TIP3   OH210877   5.505   5.610   4.466 -0.6105  0.0042 -0.0286
 3638TIP3    H110878   5.551   5.602   4.550  1.0519 -0.3545 -0.9289
 3638TIP3    H210879   5.495   5.519   4.436 -1.1211  0.1386 -0.2750
 3639TIP3   OH210880   4.402   4.692   2.239  0.2947 -0.1853 -0.1947
 3639TIP3    H110881   4.380   4.744   2.316  0.9216 -1.3816  0.8282
 3639TIP3    H210882   4.338   4.718   2.173 -0.1474  0.9876  0.6648
 3640TIP3   OH210883   7.060   5.564   5.011 -0.1717  0.0087 -0.5716
 3640TIP3    H110884   7.105   5.645   4.985 -1.4196  1.0481  0.3397
 3640TIP3    H210885   7.089   5.548   5.101 -1.1378  0.3688 -0.1795
 3641TIP3   OH210886   2.409   5.535   0.070 -0.1860 -0.0822 -0.3209
 3641TIP3    H110887   2.315   5.547   0.053 -0.4063 -0.8366  0.3350
 3641TIP3    H210888   2.413   5.472   0.142  0.8378 -0.3312 -0.5798
 3642TIP3   OH210889   0.407   6.557   0.971  0.4309  0.4939  0.0865
 3642TIP3    H110890   0.421   6.532   1.062  1.0913 -0.6121 -0.3034
 3642TIP3    H210891   0.323   6.602   0.971 -0.0133 -0.3004  1.0957
 3643TIP3   OH210892   2.257   5.631   1.326  0.2113 -0.4186 -0.2024
 3643TIP3    H110893   2.197   5.578   1.274  0.6427 -2.8066  1.5679
 3643TIP3    H210894   2.201   5.681   1.385 -0.1234 -0.7959 -0.2002
 3644TIP3   OH210895   0.694   5.882   5.159  0.3238  0.1991  0.5014
 3644TIP3    H110896   0.725   5.968   5.186  0.4621  0.2503  0.1857
 3644TIP3    H210897   0.682   5.890   5.064  1.2620 -0.4134  0.3212
 3645TIP3   OH210898   6.386   5.319   3.569  0.9646 -0.1947  0.2100
 3645TIP3    H110899   6.448   5.355   3.633  0.3791  1.0679  0.1006
 3645TIP3    H210900   6.416   5.353   3.485 -1.2941  2.6622  0.4076
 3646TIP3   OH210901   0.907   4.451   5.448 -0.2945 -0.6971 -0.1280
 3646TIP3    H110902   0.895   4.429   5.540 -0.1040 -0.2880 -0.0016
 3646TIP3    H210903   0.862   4.381   5.400 -1.6110 -0.1686  0.2958
 3647TIP3   OH210904   4.137   0.418   2.648 -0.0835  0.0430 -0.0154
 3647TIP3    H110905   4.092   0.337   2.674  1.4682 -1.2144 -0.9927
 3647TIP3    H210906   4.079   0.458   2.583 -0.5884 -0.6354  0.0066
 3648TIP3   OH210907   6.431   2.568   0.926  1.1902  1.1536  0.4133
 3648TIP3    H110908   6.397   2.633   0.865  0.2142  0.3556  0.0802
 3648TIP3    H210909   6.508   2.532   0.883  0.4465  0.5148 -0.4475
 3649TIP3   OH210910   5.462   0.506   4.506 -0.6934  0.2764 -0.7688
 3649TIP3    H110911   5.415   0.424   4.523 -1.6613  1.1356  0.9500
 3649TIP3    H210912   5.399   0.574   4.527  0.3589  1.4734 -1.3952
 3650TIP3   OH210913   2.804   1.611   1.261 -1.3418  0.1415 -0.1011
 3650TIP3    H110914   2.756   1.692   1.276 -0.8211  0.5312 -0.4790
 3650TIP3    H210915   2.895   1.634   1.280 -0.6739  0.5639 -3.2564
 3651TIP3   OH210916   1.720   2.449   0.812 -0.0305 -0.7291  0.2957
 3651TIP3    H110917   1.657   2.499   0.864  1.4644  3.1474 -1.2556
 3651TIP3    H210918   1.675   2.431   0.730 -0.7298 -2.4826  1.0266
 3652TIP3   OH210919   1.678   2.280   1.281  0.9155  0.1447  0.0318
 3652TIP3    H110920   1.655   2.351   1.221  0.9166 -0.1357 -0.3047
 3652TIP3    H210921   1.717   2.213   1.225  0.8171 -0.1679  0.3313
 3653TIP3   OH210922   3.868   6.131   2.821 -0.6318  0.5440  0.8796
 3653TIP3    H110923   3.845   6.130   2.728 -1.1428  2.6199  0.9396
 3653TIP3    H210924   3.816   6.060   2.859 -0.7847 -0.0217 -0.3135
 3654TIP3   OH210925   1.695   6.286   0.414  0.4696  0.1143  0.1229
 3654TIP3    H110926   1.692   6.250   0.503 -3.1410 -0.3689 -0.0640
 3654TIP3    H210927   1.659   6.217   0.359 -0.4508  1.5935 -1.2067
 3655TIP3   OH210928   2.992   6.730   3.879  0.5323  0.0582 -0.3201
 3655TIP3    H110929   3.073   6.689   3.848  1.0200  1.4136 -0.9154
 3655TIP3    H210930   2.963   6.784   3.806  0.0122  0.9033  0.4918
 3656TIP3   OH210931   2.282   4.031   5.757  0.3359  0.2559 -0.1229
 3656TIP3    H110932   2.230   4.077   5.691  1.7345  1.4717 -0.4158
 3656TIP3    H210933   2.230   4.038   5.838  0.2755  1.9566 -0.2697
 3657TIP3   OH210934   5.361   2.701   1.179 -0.0587 -0.2331 -0.0393
 3657TIP3    H110935   5.340   2.716   1.087 -0.6201  2.4242  0.4250
 3657TIP3    H210936   5.287   2.652   1.213  0.6736 -2.2464 -1.1887
 3658TIP3   OH210937   0.046   4.335   4.906  0.1474 -0.1423 -0.1213
 3658TIP3    H110938  -0.044   4.342   4.876  0.4502 -1.8821 -1.6023
 3658TIP3    H210939   0.056   4.406   4.970 -2.1204  0.3415 -0.2313
 3659TIP3   OH210940   0.886   4.724   5.428  0.1605 -0.0357 -0.0280
 3659TIP3    H110941   0.885   4.629   5.431 -2.8195 -0.1959 -1.5064
 3659TIP3    H210942   0.854   4.751   5.514  4.0746 -0.1036  1.6132
 3660TIP3   OH210943   3.034   5.112   5.052  0.0781 -0.4048  0.0977
 3660TIP3    H110944   2.947   5.129   5.015  1.1988  0.4378 -2.3782
 3660TIP3    H210945   3.061   5.196   5.089 -0.3595 -0.8162  1.3896
 3661TIP3   OH210946   5.553   6.464   2.567  0.4349  0.3970  0.5086
 3661TIP3    H110947   5.584   6.379   2.535  0.6299  0.3495  0.8124
 3661TIP3    H210948   5.502   6.443   2.646 -1.0139  0.4100 -0.3938
 3662TIP3   OH210949   5.456   6.226   3.435 -0.3159 -0.2742  0.3720
 3662TIP3    H110950   5.423   6.136   3.431  2.9716 -1.6149 -1.2821
 3662TIP3    H210951   5.495   6.233   3.522  0.2113 -0.8049  0.1870
 3663TIP3   OH210952   6.885   2.328   0.054  0.1652  0.1521  0.3182
 3663TIP3    H110953   6.973   2.366   0.049 -0.2995  1.1403 -1.3154
 3663TIP3    H210954   6.826   2.404   0.056 -0.7283 -0.4451 -1.3058
 3664TIP3   OH210955   6.336   6.105   1.974 -0.2656 -0.0115 -0.5415
 3664TIP3    H110956   6.391   6.129   1.899 -2.2017 -0.6381 -2.2755
 3664TIP3    H210957   6.362   6.165   2.043  0.2694  1.9666 -2.3480
 3665TIP3   OH210958   1.884   4.010   5.754 -0.2629  0.4758 -0.3163
 3665TIP3    H110959   1.935   3.967   5.822 -2.1781 -3.0271 -0.8099
 3665TIP3    H210960   1.811   4.052   5.800  0.0438  0.6753 -0.0140
 3666TIP3   OH210961   1.361   3.557   0.834  0.0442  0.1928  0.1820
 3666TIP3    H110962   1.386   3.494   0.767  0.5577 -0.3295  0.8519
 3666TIP3    H210963   1.397   3.640   0.803 -1.9915  0.5393 -1.5114
 3667TIP3   OH210964   4.334   1.602   4.202 -0.5453 -0.1950  0.2684
 3667TIP3    H110965   4.272   1.537   4.234  0.5214 -1.7524 -0.6808
 3667TIP3    H210966   4.382   1.631   4.279 -1.1694 -0.4009  0.7328
 3668TIP3   OH210967   1.443   3.352   2.372 -0.5209  0.6036  0.5526
 3668TIP3    H110968   1.495   3.284   2.328 -0.9466  0.9324 -0.4839
 3668TIP3    H210969   1.502   3.427   2.377 -0.4708  0.5646  0.5526
 3669TIP3   OH210970   4.244   2.891   4.983  0.0249  0.2358  0.3762
 3669TIP3    H110971   4.229   2.838   4.905  0.6758  2.1842 -1.1429
 3669TIP3    H210972   4.249   2.827   5.054 -0.9972 -1.5724 -1.0798
 3670TIP3   OH210973   1.162   0.470   5.240  0.2257 -0.0881  0.2124
 3670TIP3    H110974   1.193   0.401   5.299  0.2247  0.5080  0.9115
 3670TIP3    H210975   1.142   0.544   5.297  0.4422  0.5752 -0.5561
 3671TIP3   OH210976   0.634   1.735   3.675  0.6437 -0.4520 -0.4865
 3671TIP3    H110977   0.607   1.703   3.589  0.2698 -0.8031 -0.2417
 3671TIP3    H210978   0.552   1.764   3.716  0.9638  0.8219 -0.6957
 3672TIP3   OH210979   2.255   4.967   2.158  0.1283 -0.2654 -0.5156
 3672TIP3    H110980   2.331   4.982   2.214  0.9310 -0.9254 -1.4135
 3672TIP3    H210981   2.237   4.873   2.166 -2.3382  0.2801  1.8532
 3673TIP3   OH210982   6.229   2.148   5.223 -0.3699  0.0752  0.2062
 3673TIP3    H110983   6.165   2.136   5.153  1.4701 -0.3795 -1.4910
 3673TIP3    H210984   6.246   2.242   5.224 -0.5623  0.1108  0.2046
 3674TIP3   OH210985   0.953   4.086   5.487  0.3637  0.0328 -0.3711
 3674TIP3    H110986   0.936   3.997   5.516  0.6681 -0.0722 -0.5037
 3674TIP3    H210987   0.867   4.129   5.487  0.1246 -0.4342 -0.8908
 3675TIP3   OH210988   0.142   0.956   5.692 -0.1693  0.7084  0.1106
 3675TIP3    H110989   0.060   0.948   5.643  0.4203  0.9958 -0.9324
 3675TIP3    H210990   0.210   0.962   5.626  0.6670  0.9379  0.9645
 3676TIP3   OH210991   7.055   6.598   3.948  0.2464  0.1959  0.3802
 3676TIP3    H110992   7.140   6.594   3.904  0.6255  1.1721  0.9750
 3676TIP3    H210993   7.067   6.666   4.015 -0.8748  0.0389  0.7500
 3677TIP3   OH210994   6.925   4.547   2.886 -0.4372  0.0950 -0.2290
 3677TIP3    H110995   6.963   4.610   2.826  0.2427  1.3906  1.4868
 3677TIP3    H210996   6.844   4.519   2.843 -1.2506  2.8325 -0.6667
 3678TIP3   OH210997   1.645   4.267   2.680 -0.3751  0.1082  0.0706
 3678TIP3    H110998   1.646   4.330   2.608  0.7973  0.0863  0.0502
 3678TIP3    H210999   1.558   4.227   2.675  0.1219 -0.8666 -2.2095
 3679TIP3   OH211000   2.382   5.977   5.403 -0.7816 -0.2185  0.4866
 3679TIP3    H111001   2.419   5.899   5.361  0.5142  0.5946  0.0802
 3679TIP3    H211002   2.323   6.014   5.338  0.4445  0.4677 -0.2749
 3680TIP3   OH211003   3.758   5.130   4.467  0.1035 -0.2544  0.5384
 3680TIP3    H111004   3.834   5.155   4.414  0.5105 -2.7220 -0.1724
 3680TIP3    H211005   3.683   5.145   4.410  0.4299 -1.5849 -0.2873
 3681TIP3   OH211006   0.812   1.829   1.218  0.0299 -0.5545 -0.3066
 3681TIP3    H111007   0.857   1.907   1.186  0.2159 -1.1950 -1.6614
 3681TIP3    H211008   0.772   1.791   1.140  0.8636 -2.4304  0.1428
 3682TIP3   OH211009   6.756   6.545   0.498 -0.0176  0.2248 -0.2990
 3682TIP3    H111010   6.795   6.476   0.445  1.4696  1.2502 -0.5965
 3682TIP3    H211011   6.685   6.502   0.546  0.0242 -1.1924 -1.4657
 3683TIP3   OH211012   7.149   1.890   5.206  0.0010 -0.0739  0.7232
 3683TIP3    H111013   7.079   1.953   5.222 -0.9745 -0.9871  0.0900
 3683TIP3    H211014   7.114   1.806   5.234  0.3045 -0.7776 -0.9227
 3684TIP3   OH211015   2.685   4.770   3.623  0.2856  0.0972  0.3308
 3684TIP3    H111016   2.692   4.739   3.713 -1.2003 -0.9007  0.1398
 3684TIP3    H211017   2.593   4.794   3.612  0.4762  0.3698 -0.8623
 3685TIP3   OH211018   3.305   0.144   5.925 -0.1797  0.2242 -0.4896
 3685TIP3    H111019   3.339   0.154   5.836 -2.7182  0.0631 -1.5783
 3685TIP3    H211020   3.217   0.109   5.912 -0.4001 -0.3571  2.1488
 3686TIP3   OH211021   7.035   2.690   0.592 -0.2755 -0.1077  0.0621
 3686TIP3    H111022   7.124   2.713   0.563  0.0556 -1.4119 -0.0222
 3686TIP3    H211023   7.012   2.759   0.654  0.9357  0.0861  0.3368
 3687TIP3   OH211024   2.974   4.791   4.862 -0.3659  0.5780 -1.0832
 3687TIP3    H111025   2.995   4.699   4.848 -0.1266  0.7713 -2.0074
 3687TIP3    H211026   2.894   4.805   4.811 -0.0818  1.0255 -1.4082
 3688TIP3   OH211027   6.719   3.933   4.236 -0.0928  0.1991  0.2612
 3688TIP3    H111028   6.747   3.951   4.146  0.1036 -2.7036 -0.3428
 3688TIP3    H211029   6.629   3.903   4.228 -0.2662  0.4398  1.1315
 3689TIP3   OH211030   2.534   3.538   1.560 -0.4178  0.1925 -0.2024
 3689TIP3    H111031   2.457   3.556   1.614 -0.2315  1.3632 -0.3055
 3689TIP3    H211032   2.585   3.619   1.563  1.5284 -1.0242  1.0133
 3690TIP3   OH211033   4.379   0.146   3.246  0.2213 -0.0821  0.3529
 3690TIP3    H111034   4.462   0.118   3.285  0.4985  0.9397  0.5280
 3690TIP3    H211035   4.395   0.143   3.152  1.0004  1.5872  0.3912
 3691TIP3   OH211036   2.144   1.796   3.006 -0.3503  0.6970  0.3096
 3691TIP3    H111037   2.196   1.873   2.985  0.9181  0.1422  1.2487
 3691TIP3    H211038   2.198   1.722   2.978 -0.9243  0.1127  0.7134
 3692TIP3   OH211039   4.904   3.458   1.197 -0.2129  0.4072 -0.2249
 3692TIP3    H111040   4.894   3.546   1.232  1.4653  1.0000 -1.1235
 3692TIP3    H211041   4.843   3.455   1.123  1.0389  1.5249 -1.3661
 3693TIP3   OH211042   5.335   0.826   4.989  0.4110  0.0104  0.7330
 3693TIP3    H111043   5.281   0.853   5.064 -0.9251  0.0109 -0.1861
 3693TIP3    H211044   5.353   0.733   5.005  1.5805  0.3935  1.8694
 3694TIP3   OH211045   0.626   4.946   5.865 -0.6835 -0.3561  0.4276
 3694TIP3    H111046   0.624   5.016   5.930 -0.3404 -0.8046  0.9237
 3694TIP3    H211047   0.571   4.979   5.793  0.0695  0.7378  0.3221
 3695TIP3   OH211048   2.484   5.865   3.389 -0.3414  0.3790  0.4443
 3695TIP3    H111049   2.576   5.891   3.391  0.1580 -1.1142 -0.9865
 3695TIP3    H211050   2.470   5.835   3.300 -1.5947 -1.5229  1.2352
 3696TIP3   OH211051   4.484   4.685   2.831  0.1366  0.4375 -0.3008
 3696TIP3    H111052   4.527   4.666   2.748  0.2473  0.0262 -0.1495
 3696TIP3    H211053   4.468   4.780   2.828 -0.4187  0.3390 -1.0617
 3697TIP3   OH211054   1.378   4.179   0.872  0.5227  0.2260  0.0160
 3697TIP3    H111055   1.346   4.089   0.873  1.3660 -0.2216 -2.7471
 3697TIP3    H211056   1.306   4.231   0.906 -1.5190 -1.1623 -1.9192
 3698TIP3   OH211057   4.007   5.317   4.623  0.0248 -0.5614  0.1462
 3698TIP3    H111058   4.001   5.222   4.622 -0.6063 -0.5528 -1.7313
 3698TIP3    H211059   4.093   5.336   4.585 -0.8951 -0.4068 -1.9954
 3699TIP3   OH211060   1.496   3.898   3.006  0.0968 -0.2574 -0.1847
 3699TIP3    H111061   1.572   3.908   2.947  0.9786 -0.2405  0.9256
 3699TIP3    H211062   1.453   3.983   3.004  0.3808 -0.1168 -0.4628
 3700TIP3   OH211063   1.326   4.286   5.012  0.0429 -0.1286 -0.1381
 3700TIP3    H111064   1.255   4.265   5.072  0.1543 -3.0827 -0.8971
 3700TIP3    H211065   1.392   4.217   5.027  1.5282  0.9505 -1.3681
 3701TIP3   OH211066   1.301   1.962   2.950  0.0217 -0.2253 -0.3224
 3701TIP3    H111067   1.374   1.969   2.887  1.1432  0.1832  0.9666
 3701TIP3    H211068   1.301   2.046   2.995 -0.2590 -0.7882  0.7525
 3702TIP3   OH211069   5.420   6.731   4.285  0.0833  0.6322  0.1308
 3702TIP3    H111070   5.400   6.794   4.215 -0.3994  0.4633  0.1148
 3702TIP3    H211071   5.467   6.783   4.351 -0.6030  1.0885  0.2683
 3703TIP3   OH211072   1.698   2.907   4.072  0.0887  0.4031  0.0744
 3703TIP3    H111073   1.709   2.823   4.117 -0.1847  0.6669  0.6481
 3703TIP3    H211074   1.775   2.915   4.017  1.1487  0.7337  1.5630
 3704TIP3   OH211075   4.123   4.409   1.044  0.5026  0.0709  1.0272
 3704TIP3    H111076   4.052   4.428   1.105  1.3239  0.8595  1.7670
 3704TIP3    H211077   4.151   4.495   1.013  1.1903 -0.2270  0.8027
 3705TIP3   OH211078   1.384   0.001   4.160 -0.2985  0.0457 -0.3848
 3705TIP3    H111079   1.388  -0.018   4.066  0.4346  0.3813 -0.4274
 3705TIP3    H211080   1.444   0.074   4.172 -1.7605  1.2369  0.0533
 3706TIP3   OH211081   7.075   3.242   4.950  0.5862  0.1016 -0.1523
 3706TIP3    H111082   7.132   3.287   5.013  1.1625 -2.2523  1.1073
 3706TIP3    H211083   7.130   3.174   4.913 -0.9762 -1.3139  0.0200
 3707TIP3   OH211084   1.839   1.635   0.911  0.1381  0.1608 -0.0548
 3707TIP3    H111085   1.849   1.592   0.826 -0.0042 -3.3373  1.5440
 3707TIP3    H211086   1.767   1.696   0.898  1.8142  1.7715 -3.0767
 3708TIP3   OH211087   7.157   6.703   4.377  0.6374 -0.1770  0.0674
 3708TIP3    H111088   7.107   6.664   4.449 -1.4626 -0.3538 -1.4017
 3708TIP3    H211089   7.215   6.633   4.348 -1.5236 -1.6169 -1.1002
 3709TIP3   OH211090   6.671   6.566   1.315 -0.7685 -0.2461 -0.1422
 3709TIP3    H111091   6.592   6.571   1.261 -0.1405  0.2850 -1.0337
 3709TIP3    H211092   6.696   6.657   1.329 -0.4411 -0.4057  0.3175
 3710TIP3   OH211093   4.854   6.454   0.831  0.6273 -0.2020 -0.2981
 3710TIP3    H111094   4.899   6.528   0.874  1.4639 -0.6287 -0.4199
 3710TIP3    H211095   4.812   6.493   0.755  1.7000  0.0422 -0.7939
 3711TIP3   OH211096   5.492   2.297   5.271  0.4802  1.2361  0.3695
 3711TIP3    H111097   5.470   2.288   5.363  0.0331 -0.6756  0.1211
 3711TIP3    H211098   5.418   2.345   5.233 -0.2888  0.3414  0.6843
 3712TIP3   OH211099   6.875   3.040   5.136  0.0305  0.0813  0.7670
 3712TIP3    H111100   6.866   3.130   5.107  1.8033  0.3150  0.8140
 3712TIP3    H211101   6.900   2.992   5.057 -0.5807 -0.3178  0.8094
 3713TIP3   OH211102   1.618   2.067   0.612 -0.3426  0.0322 -0.0136
 3713TIP3    H111103   1.585   1.985   0.574  0.3493 -1.1239  1.7473
 3713TIP3    H211104   1.714   2.056   0.611 -0.2818  0.2475  1.3817
 3714TIP3   OH211105   0.967   3.645   3.709 -0.3735 -0.7012 -0.0901
 3714TIP3    H111106   0.934   3.570   3.758 -0.9600 -0.3234  0.0982
 3714TIP3    H211107   1.037   3.680   3.765 -1.2081 -0.1220  0.6078
 3715TIP3   OH211108   0.364   5.424   2.764  0.7414  0.5303  0.6534
 3715TIP3    H111109   0.450   5.463   2.749  0.7033  0.3399 -0.0951
 3715TIP3    H211110   0.379   5.359   2.833  1.5290 -0.5826 -0.5226
 3716TIP3   OH211111   0.750   2.433   1.940  0.2706 -0.3037  0.5346
 3716TIP3    H111112   0.779   2.498   1.876  0.6660 -0.3760  0.6371
 3716TIP3    H211113   0.679   2.477   1.988  0.5724  0.0753  0.6421
 3717TIP3   OH211114   2.789   1.299   2.287  0.4932  0.3230  0.3822
 3717TIP3    H111115   2.856   1.311   2.219 -1.4964  0.4217 -1.6716
 3717TIP3    H211116   2.746   1.385   2.293 -1.7154 -0.5990 -0.9548
 3718TIP3   OH211117   6.178   3.191   1.931 -0.0944  0.3295 -0.2213
 3718TIP3    H111118   6.187   3.096   1.936 -0.9674  0.2914  1.4610
 3718TIP3    H211119   6.126   3.206   1.852  1.5548 -0.4424 -1.4909
 3719TIP3   OH211120   5.735   3.271   0.201  0.3007  0.3321  0.3120
 3719TIP3    H111121   5.790   3.349   0.202 -0.0603  0.6016  1.7448
 3719TIP3    H211122   5.656   3.296   0.249  0.3978 -1.0434  1.2584
 3720TIP3   OH211123   4.037   5.712   1.900  1.0154 -0.4615  0.0468
 3720TIP3    H111124   3.970   5.646   1.882  2.5305 -2.8053  2.3419
 3720TIP3    H211125   4.097   5.705   1.826  0.1553 -0.2176 -0.6967
 3721TIP3   OH211126   1.516   4.037   1.627  0.4421  0.1887  0.3971
 3721TIP3    H111127   1.502   4.061   1.536  1.5931 -2.0062 -0.4269
 3721TIP3    H211128   1.456   3.964   1.643 -0.6188  1.3027  1.8064
 3722TIP3   OH211129   0.339   1.305   4.497 -0.4169  0.3260  0.5454
 3722TIP3    H111130   0.360   1.354   4.418  2.4870 -1.6285 -0.0854
 3722TIP3    H211131   0.347   1.369   4.568 -0.5566  1.5709 -0.5352
 3723TIP3   OH211132   0.488   4.105   4.833 -0.3223  0.6739 -0.1660
 3723TIP3    H111133   0.409   4.077   4.788 -0.5161  0.5885  0.2170
 3723TIP3    H211134   0.458   4.132   4.920  0.1650 -0.1280  0.2706
 3724TIP3   OH211135   6.639   4.592   4.692  0.0350 -0.6710  0.3247
 3724TIP3    H111136   6.712   4.650   4.716 -0.1080 -0.5698  0.5145
 3724TIP3    H211137   6.677   4.531   4.629  0.5359 -1.2217  1.1327
 3725TIP3   OH211138   6.073   6.309   2.668  0.2108 -0.0749 -0.0280
 3725TIP3    H111139   6.131   6.296   2.593  0.8212  0.2098  0.3908
 3725TIP3    H211140   5.994   6.260   2.645 -0.0678  0.9256 -1.3588
 3726TIP3   OH211141   4.999   6.072   0.418 -0.0833  0.0324 -0.0111
 3726TIP3    H111142   4.952   6.155   0.419  1.5986  1.0623  2.0360
 3726TIP3    H211143   5.046   6.070   0.501  0.4092 -2.7244 -0.2561
 3727TIP3   OH211144   6.766   5.065   0.260  0.2858 -0.4815 -0.3351
 3727TIP3    H111145   6.827   5.040   0.190 -0.6968 -2.7129 -0.5176
 3727TIP3    H211146   6.713   5.134   0.222  1.1853 -0.1465 -1.0085
 3728TIP3   OH211147   4.561   2.809   4.288  0.4670 -0.2124  0.5523
 3728TIP3    H111148   4.500   2.789   4.359  1.5918 -0.8932  1.3467
 3728TIP3    H211149   4.647   2.792   4.325  1.0844 -0.4335 -0.9415
 3729TIP3   OH211150   6.383   1.412   0.090  0.2668 -0.4053 -0.1640
 3729TIP3    H111151   6.417   1.502   0.096  0.9257 -0.6992  0.6924
 3729TIP3    H211152   6.412   1.370   0.171 -1.6195 -0.8690  0.3138
 3730TIP3   OH211153   0.684   5.433   2.810 -0.6444  0.8227  0.3382
 3730TIP3    H111154   0.649   5.373   2.876 -0.6126  1.1992  0.6950
 3730TIP3    H211155   0.757   5.477   2.852 -0.1664  0.5433 -0.1829
 3731TIP3   OH211156   2.440   4.724   0.707 -0.4403 -0.1836  0.9461
 3731TIP3    H111157   2.352   4.709   0.741 -0.0754 -1.5366  1.3266
 3731TIP3    H211158   2.429   4.795   0.644 -1.9308 -0.8563  0.4156
 3732TIP3   OH211159   3.495   4.830   3.901  0.2814 -0.4169 -0.2514
 3732TIP3    H111160   3.529   4.767   3.965  0.9504  2.2786  2.2556
 3732TIP3    H211161   3.401   4.834   3.919  0.3133 -0.3585 -0.1001
 3733TIP3   OH211162   2.956   1.679   0.341  0.1620 -0.0165  0.2293
 3733TIP3    H111163   2.977   1.733   0.418  0.4097  0.3644 -0.0971
 3733TIP3    H211164   2.867   1.704   0.318  0.4112  0.5493 -0.1513
 3734TIP3   OH211165   1.745   5.983   4.488 -0.8301  0.0931  0.3363
 3734TIP3    H111166   1.756   6.066   4.442 -0.2141 -1.0741 -1.7164
 3734TIP3    H211167   1.658   5.952   4.463 -0.4995 -0.5404 -0.0548
 3735TIP3   OH211168   4.297   3.923   4.663 -0.2665  0.4574  0.0036
 3735TIP3    H111169   4.324   4.011   4.638 -0.0949  0.6916  0.9754
 3735TIP3    H211170   4.266   3.932   4.753 -0.7042 -0.3867 -0.0532
 3736TIP3   OH211171   5.995   2.275   3.547  0.1362 -0.1558 -0.0550
 3736TIP3    H111172   5.981   2.354   3.495  2.3174 -0.3711 -1.0528
 3736TIP3    H211173   6.087   2.254   3.535  0.8920 -0.0733  4.1408
 3737TIP3   OH211174   6.213   1.000   2.574 -0.6516 -0.4688  0.2213
 3737TIP3    H111175   6.159   0.931   2.534 -1.7734 -0.0699  0.9790
 3737TIP3    H211176   6.246   0.961   2.655  2.0877 -1.4716 -1.2853
 3738TIP3   OH211177   1.615   0.371   0.547  0.1311 -0.3613 -0.2322
 3738TIP3    H111178   1.539   0.339   0.499 -2.3648  3.3942  0.8157
 3738TIP3    H211179   1.674   0.403   0.479 -0.3662 -0.9615 -0.9705
 3739TIP3   OH211180   1.329   3.825   0.379  0.4755  0.0380  0.5095
 3739TIP3    H111181   1.302   3.911   0.347  0.0241  0.3909  1.8064
 3739TIP3    H211182   1.405   3.802   0.325  1.0898  1.6045  0.6690
 3740TIP3   OH211183   2.562   0.653   1.223  0.1323 -0.2141  0.2439
 3740TIP3    H111184   2.543   0.704   1.302  0.8874 -0.5062  0.6280
 3740TIP3    H211185   2.496   0.584   1.221 -0.4250  0.3154  0.1383
 3741TIP3   OH211186   6.909   2.192   5.914 -0.4389 -0.0736  0.2534
 3741TIP3    H111187   6.890   2.286   5.915  0.0349  0.0263  0.1603
 3741TIP3    H211188   6.869   2.160   5.833 -3.1847 -0.5214  1.6917
 3742TIP3   OH211189   3.928   5.270   3.855 -0.2139 -0.2304  0.0066
 3742TIP3    H111190   4.014   5.244   3.889 -0.7167  0.9775  2.4226
 3742TIP3    H211191   3.932   5.366   3.849 -1.1759 -0.2063 -0.5054
 3743TIP3   OH211192   5.763   5.927   4.237  0.7119 -0.1395 -0.1010
 3743TIP3    H111193   5.681   5.891   4.270  0.6823 -0.8108 -0.8824
 3743TIP3    H211194   5.764   6.018   4.267 -0.2116 -0.1943  0.0968
 3744TIP3   OH211195   6.762   4.478   1.533 -0.1169  0.4649 -0.3962
 3744TIP3    H111196   6.849   4.483   1.493  0.3429  3.0490  0.7025
 3744TIP3    H211197   6.704   4.521   1.471 -0.0244  1.4429  0.1776
 3745TIP3   OH211198   6.972   5.401   2.418 -0.2583  0.0002  0.5191
 3745TIP3    H111199   6.951   5.494   2.433  0.6052  0.1606  0.7942
 3745TIP3    H211200   7.000   5.397   2.327  0.2350  0.1069  0.6677
 3746TIP3   OH211201   6.094   3.835   1.707  0.2931  0.3151  0.0697
 3746TIP3    H111202   6.114   3.890   1.782 -3.6256  1.0124  0.7963
 3746TIP3    H211203   6.074   3.896   1.637 -0.0154 -0.2720 -0.3597
 3747TIP3   OH211204   2.097   2.032   0.081  0.0399  0.2321  0.0274
 3747TIP3    H111205   2.034   2.094   0.118 -0.5641 -0.2398 -0.1826
 3747TIP3    H211206   2.057   2.003  -0.001 -0.0508 -0.9677  0.4606
 3748TIP3   OH211207   4.071   0.169   4.014  0.7015  0.2319 -0.7673
 3748TIP3    H111208   3.981   0.202   4.014  1.8856  3.8917 -1.4223
 3748TIP3    H211209   4.061   0.073   4.014 -3.1373  0.4627 -0.6827
 3749TIP3   OH211210   5.285   2.324   2.078  0.1308 -0.3992 -0.2059
 3749TIP3    H111211   5.314   2.251   2.132  0.6030 -1.9992 -2.4812
 3749TIP3    H211212   5.349   2.393   2.094  0.2085 -0.7843  1.2852
 3750TIP3   OH211213   4.814   6.014   4.381  0.3267  0.4217  0.1156
 3750TIP3    H111214   4.820   6.107   4.401 -1.5450  0.7565 -0.6962
 3750TIP3    H211215   4.735   6.005   4.329 -0.3681 -1.8487  1.4047
 3751TIP3   OH211216   1.394   5.055   1.440  0.1482  0.4325 -0.0389
 3751TIP3    H111217   1.434   5.034   1.524 -1.2758  1.9697  1.1024
 3751TIP3    H211218   1.461   5.106   1.394  0.9178 -0.3676  0.1718
 3752TIP3   OH211219   2.987   3.853   1.304  0.0623  0.0491  0.0045
 3752TIP3    H111220   3.060   3.857   1.243  0.1510 -0.8224  0.0451
 3752TIP3    H211221   3.020   3.803   1.378 -0.5325 -0.2371  0.0836
 3753TIP3   OH211222   3.272   3.488   3.534  0.0722 -0.0074  0.1753
 3753TIP3    H111223   3.229   3.520   3.613 -0.1364  1.0466 -0.3572
 3753TIP3    H211224   3.357   3.532   3.534  0.2259 -0.3051  0.0099
 3754TIP3   OH211225   4.852   1.889   3.287 -0.4502 -0.4014  0.3396
 3754TIP3    H111226   4.875   1.799   3.307 -0.1539 -0.1176  1.3205
 3754TIP3    H211227   4.914   1.942   3.338  0.1452  0.3619 -1.1055
 3755TIP3   OH211228   4.322   0.324   0.999  0.3339 -0.1446  0.0246
 3755TIP3    H111229   4.277   0.300   1.080  1.5573 -0.5679  0.5835
 3755TIP3    H211230   4.257   0.307   0.930 -0.5052 -0.3500  0.8481
 3756TIP3   OH211231   1.125   0.621   2.251  0.2145 -0.0237  0.4622
 3756TIP3    H111232   1.075   0.642   2.330 -1.5639  2.5629 -1.1806
 3756TIP3    H211233   1.137   0.526   2.254 -2.2199 -0.3614  2.4372
 3757TIP3   OH211234   4.214   1.502   0.248 -0.5384  0.4043 -0.2416
 3757TIP3    H111235   4.149   1.556   0.202 -0.6211  0.2124 -0.3484
 3757TIP3    H211236   4.172   1.479   0.331  0.0010  1.6118  0.3925
 3758TIP3   OH211237   4.813   5.518   4.263  0.0011 -0.2990 -0.5527
 3758TIP3    H111238   4.852   5.477   4.341  0.7764  0.1895 -0.6692
 3758TIP3    H211239   4.838   5.610   4.270 -0.5646 -0.1118 -0.9967
 3759TIP3   OH211240   3.816   2.832   0.337  0.1589 -0.7262 -0.0495
 3759TIP3    H111241   3.853   2.882   0.264  0.6425 -0.4908  0.3540
 3759TIP3    H211242   3.726   2.813   0.309  0.4054 -0.8222 -0.7971
 3760TIP3   OH211243   5.063   1.889   0.448  0.2601  0.0924 -0.2298
 3760TIP3    H111244   5.033   1.872   0.537  0.5897  1.6538  0.2154
 3760TIP3    H211245   5.158   1.874   0.450  0.2643  0.1003 -0.3251
 3761TIP3   OH211246   4.023   6.480   4.335  0.3398 -0.0193 -0.4897
 3761TIP3    H111247   4.005   6.401   4.386  1.2295 -1.0121 -1.6572
 3761TIP3    H211248   4.116   6.499   4.353  0.7244 -0.5096 -1.8733
 3762TIP3   OH211249   3.557   5.346   1.422 -0.2310  0.2662 -0.0984
 3762TIP3    H111250   3.474   5.300   1.412 -0.3315  0.5385 -0.5228
 3762TIP3    H211251   3.540   5.409   1.493 -1.2043  2.1343 -1.8982
 3763TIP3   OH211252   3.869   5.947   3.124  0.0036 -0.2340 -0.2589
 3763TIP3    H111253   3.885   5.908   3.038 -1.2114 -0.4734 -0.3970
 3763TIP3    H211254   3.781   5.916   3.148  1.0473 -1.7881  1.9286
 3764TIP3   OH211255   1.553   0.607   5.687  0.5995  0.4027 -0.5117
 3764TIP3    H111256   1.645   0.582   5.697  0.8172  0.9626 -1.0526
 3764TIP3    H211257   1.528   0.639   5.774  0.3705 -1.4423  0.1359
 3765TIP3   OH211258   7.042   0.126   1.935 -0.0327 -0.0344 -0.0956
 3765TIP3    H111259   6.976   0.061   1.912 -1.0043  0.6135  0.7428
 3765TIP3    H211260   7.061   0.110   2.027  0.7241  0.0123 -0.2382
 3766TIP3   OH211261   4.470   5.999   1.125  0.4148  0.3889 -0.3131
 3766TIP3    H111262   4.552   5.962   1.157  0.6806 -0.2706 -1.7042
 3766TIP3    H211263   4.415   5.923   1.106 -0.5005  0.8177  0.4739
 3767TIP3   OH211264   0.054   0.162   1.805  0.4093  0.5346 -0.3278
 3767TIP3    H111265   0.046   0.089   1.743  0.4944  0.3197 -0.0875
 3767TIP3    H211266  -0.031   0.166   1.849  0.2731  0.8303 -0.6136
 3768TIP3   OH211267   2.127   2.004   1.898 -0.0487  0.3885  0.0302
 3768TIP3    H111268   2.094   1.920   1.866  0.2967  0.6340 -1.0203
 3768TIP3    H211269   2.172   1.983   1.979 -4.2955  0.2782  2.6809
 3769TIP3   OH211270   2.115   3.846   5.340 -0.5015 -0.3728 -0.2718
 3769TIP3    H111271   2.174   3.919   5.321  2.6333 -1.8518  2.8424
 3769TIP3    H211272   2.035   3.889   5.372 -0.0629  1.6679 -1.6677
 3770TIP3   OH211273   4.891   5.324   4.757 -0.3791 -0.4559  0.2663
 3770TIP3    H111274   4.889   5.406   4.806  1.4910 -0.8579  1.1294
 3770TIP3    H211275   4.953   5.340   4.686  0.4676 -1.2461  0.7884
 3771TIP3   OH211276   7.118   0.883   3.804  0.1725 -0.1471  0.8127
 3771TIP3    H111277   7.167   0.864   3.724  0.1121  1.0549  0.4746
 3771TIP3    H211278   7.049   0.817   3.807 -0.4541  0.4169 -0.6711
 3772TIP3   OH211279   2.993   3.221   3.458 -0.1552 -0.9440 -0.0772
 3772TIP3    H111280   2.924   3.174   3.503 -0.0561  0.8750  2.1866
 3772TIP3    H211281   3.066   3.224   3.520  0.9957 -0.5441 -1.3683
 3773TIP3   OH211282   3.883   0.003   5.264  0.0173 -0.0654 -0.1680
 3773TIP3    H111283   3.857  -0.057   5.334 -2.6953  0.4365 -0.6421
 3773TIP3    H211284   3.932   0.072   5.309 -1.4984  0.1473  1.2549
 3774TIP3   OH211285   0.861   4.604   3.183  0.3505  0.9808 -0.0587
 3774TIP3    H111286   0.934   4.651   3.143  0.1096  1.7514  0.3926
 3774TIP3    H211287   0.902   4.547   3.248  0.8079 -0.7467 -1.7617
 3775TIP3   OH211288   3.670   0.758   5.347  0.5623 -0.0334 -0.6970
 3775TIP3    H111289   3.680   0.852   5.328  0.7877 -0.2892 -1.8806
 3775TIP3    H211290   3.583   0.752   5.386  0.5980  0.6856 -0.4758
 3776TIP3   OH211291   3.529   2.246   1.117 -0.4953 -0.3068 -0.0685
 3776TIP3    H111292   3.547   2.320   1.059  0.6806  2.2244  3.2107
 3776TIP3    H211293   3.613   2.227   1.158 -1.5051 -1.0772  1.7616
 3777TIP3   OH211294   6.618   3.188   0.488 -0.1429 -0.2720  0.2583
 3777TIP3    H111295   6.602   3.239   0.567 -0.9984  0.8549 -0.6135
 3777TIP3    H211296   6.570   3.106   0.501  1.3625 -0.9933  1.7350
 3778TIP3   OH211297   2.886   1.285   5.686  0.4076 -0.6196 -0.5750
 3778TIP3    H111298   2.949   1.220   5.718  2.1427  1.4706  0.5277
 3778TIP3    H211299   2.831   1.303   5.762  1.7010  1.1280  0.0059
 3779TIP3   OH211300   2.065   5.227   5.390  0.5669 -0.3213 -0.4368
 3779TIP3    H111301   2.057   5.297   5.326  1.4443  0.2338  0.0291
 3779TIP3    H211302   2.018   5.259   5.467 -0.4650 -0.9761 -0.7820
 3780TIP3   OH211303   2.031   1.683   2.735 -0.1292  0.5273  0.0047
 3780TIP3    H111304   2.100   1.625   2.769 -0.8099  1.1901  2.7848
 3780TIP3    H211305   2.056   1.770   2.763  0.1479  1.4913 -2.9183
 3781TIP3   OH211306   7.215   5.743   2.916 -0.0285  0.0712 -0.3331
 3781TIP3    H111307   7.157   5.787   2.854 -3.4969 -2.0621  1.1030
 3781TIP3    H211308   7.174   5.755   3.001  0.6360 -3.0046  0.5668
 3782TIP3   OH211309   6.563   4.527   0.269  0.2263 -0.2826 -0.0098
 3782TIP3    H111310   6.620   4.532   0.346  1.4485  2.3751 -0.9442
 3782TIP3    H211311   6.614   4.478   0.204  0.3001 -0.2836  0.0486
 3783TIP3   OH211312   1.772   3.391   2.459 -0.8055 -0.0817  0.6647
 3783TIP3    H111313   1.738   3.449   2.391  2.4919 -0.1900 -1.2785
 3783TIP3    H211314   1.757   3.439   2.541 -0.7283  2.2736 -0.6104
 3784TIP3   OH211315   6.240   3.193   3.763  0.5251  0.2487 -0.3889
 3784TIP3    H111316   6.151   3.159   3.764  1.0058 -1.0918 -0.9903
 3784TIP3    H211317   6.279   3.159   3.844  1.0909 -0.9007 -1.1269
 3785TIP3   OH211318   6.601   1.150   1.826  0.3361  0.1121 -0.4537
 3785TIP3    H111319   6.571   1.107   1.906  2.4460 -0.1053  0.2728
 3785TIP3    H211320   6.533   1.130   1.761 -1.9234  1.1014  1.4562
 3786TIP3   OH211321   6.649   3.411   0.330  0.1525  0.2372 -0.3515
 3786TIP3    H111322   6.613   3.469   0.397 -2.1143 -0.1296 -1.1701
 3786TIP3    H211323   6.677   3.333   0.379 -1.1718  0.1041  0.2337
 3787TIP3   OH211324   5.630   2.331   3.065 -0.1526  0.3308 -0.3477
 3787TIP3    H111325   5.619   2.407   3.007 -0.3237 -0.4187 -1.3304
 3787TIP3    H211326   5.712   2.348   3.112  0.0501  0.9008 -0.8935
 3788TIP3   OH211327   7.033   2.555   0.278 -0.2460 -0.1756  0.0766
 3788TIP3    H111328   6.950   2.600   0.293 -1.2303 -1.1510 -2.0358
 3788TIP3    H211329   7.032   2.533   0.185  2.7778  0.4850 -0.1959
 3789TIP3   OH211330   5.086   3.490   5.678 -0.0590 -0.3446 -0.9422
 3789TIP3    H111331   5.163   3.433   5.686  2.0140  2.3402 -0.4785
 3789TIP3    H211332   5.086   3.542   5.758 -1.0950  1.2029 -1.9022
 3790TIP3   OH211333   0.570   1.722   1.707 -0.5260  0.1825  0.6821
 3790TIP3    H111334   0.537   1.761   1.788  0.1946  2.7310 -0.1502
 3790TIP3    H211335   0.656   1.688   1.730 -1.4429 -1.6846  1.5881
 3791TIP3   OH211336   1.466   0.898   2.665  0.1137 -0.1180  0.4744
 3791TIP3    H111337   1.374   0.917   2.681  0.3685 -0.2576  2.3241
 3791TIP3    H211338   1.466   0.812   2.622 -0.7090  1.0372 -1.9768
 3792TIP3   OH211339   7.140   0.738   0.647 -0.1027 -0.4564  0.1486
 3792TIP3    H111340   7.201   0.666   0.661  1.2338  0.6241  0.0543
 3792TIP3    H211341   7.077   0.704   0.583  0.3984 -1.5958  0.2420
 3793TIP3   OH211342   5.102   0.749   0.683  0.5099 -0.7054 -0.2793
 3793TIP3    H111343   5.042   0.711   0.748 -1.8924  0.7244 -1.5174
 3793TIP3    H211344   5.092   0.843   0.695  1.4179 -0.4376 -1.4958
 3794TIP3   OH211345   2.204   4.939   3.609 -0.2603 -0.7872 -0.1351
 3794TIP3    H111346   2.173   4.857   3.572  1.3908 -2.2612  1.5365
 3794TIP3    H211347   2.288   4.955   3.566 -0.5511  0.0158 -0.4240
 3795TIP3   OH211348   2.295   5.794   5.568 -0.4013 -0.2368 -0.9568
 3795TIP3    H111349   2.380   5.794   5.611 -1.1173 -1.2649  0.6026
 3795TIP3    H211350   2.278   5.886   5.547 -0.5750  0.6274  2.3380
 3796TIP3   OH211351   2.991   0.563   1.730 -0.2169  0.3475 -0.6936
 3796TIP3    H111352   3.016   0.498   1.796 -1.0228  0.3339 -0.3919
 3796TIP3    H211353   2.921   0.520   1.679  0.5705  0.2557 -1.7366
 3797TIP3   OH211354   1.357   6.659   0.801 -0.2448 -0.0519 -0.1671
 3797TIP3    H111355   1.306   6.630   0.877  0.2459 -2.4837 -0.6738
 3797TIP3    H211356   1.293   6.662   0.729  0.0054 -1.7689 -0.5037
 3798TIP3   OH211357   5.203   1.490   1.575 -0.0627 -0.5924  0.2032
 3798TIP3    H111358   5.172   1.408   1.539 -0.2837 -0.8015  0.8509
 3798TIP3    H211359   5.133   1.553   1.559 -1.3641 -1.2995  2.5890
 3799TIP3   OH211360   1.546   2.192   2.886  0.3632  0.4677 -0.1423
 3799TIP3    H111361   1.510   2.181   2.974 -0.6771  1.9761 -0.3444
 3799TIP3    H211362   1.588   2.108   2.867  0.7447  0.1605  1.8401
 3800TIP3   OH211363   2.934   4.277   2.287  0.1873  0.6962  0.4606
 3800TIP3    H111364   2.860   4.291   2.229 -0.1876 -1.2529  0.4135
 3800TIP3    H211365   2.919   4.337   2.360 -1.7581 -0.0429  0.7226
 3801TIP3   OH211366   3.228   6.188   0.837  0.2803 -0.6709 -0.2691
 3801TIP3    H111367   3.210   6.281   0.825 -0.1743 -0.3895  2.1093
 3801TIP3    H211368   3.310   6.173   0.790 -0.5138  0.5095 -2.1233
 3802TIP3   OH211369   3.020   6.319   4.828  0.3761  0.0978  0.4416
 3802TIP3    H111370   3.103   6.320   4.781 -0.3185 -1.1386 -0.8680
 3802TIP3    H211371   2.994   6.411   4.832  2.1729  0.6099  1.6270
 3803TIP3   OH211372   3.555   5.151   5.516  0.1068 -0.4204  0.1460
 3803TIP3    H111373   3.520   5.200   5.441 -1.5521  0.9916  1.7635
 3803TIP3    H211374   3.594   5.073   5.477  0.0521  0.6582 -2.2639
 3804TIP3   OH211375   2.805   0.426   0.489  0.1376  0.4613  0.0028
 3804TIP3    H111376   2.858   0.349   0.510  1.4253  1.2158 -0.3814
 3804TIP3    H211377   2.728   0.419   0.546  0.6469 -0.6669  0.5698
 3805TIP3   OH211378   4.989   2.953   3.917  0.7706  0.3727  0.2944
 3805TIP3    H111379   5.046   3.021   3.882  1.5173  0.7482  2.1398
 3805TIP3    H211380   4.933   2.998   3.980 -1.4992 -0.0199 -1.3061
 3806TIP3   OH211381   0.960   2.259   2.088 -0.5562 -0.2881 -0.5012
 3806TIP3    H111382   0.986   2.317   2.016 -0.5151  1.3847  0.8027
 3806TIP3    H211383   1.043   2.229   2.126 -0.5724 -0.2750 -0.4553
 3807TIP3   OH211384   7.208   5.039   1.487 -0.0811 -0.1725  0.0980
 3807TIP3    H111385   7.126   5.066   1.446  0.2028 -1.8561 -1.7265
 3807TIP3    H211386   7.243   4.972   1.429  3.8540  2.1748 -0.5638
 3808TIP3   OH211387   0.563   1.499   2.788  0.9188  0.5305 -0.1319
 3808TIP3    H111388   0.633   1.564   2.798 -0.5189  2.3046 -1.1328
 3808TIP3    H211389   0.532   1.510   2.698  0.6209 -1.5992 -0.3580
 3809TIP3   OH211390   5.431   0.591   5.286  0.2677  0.4183  0.2102
 3809TIP3    H111391   5.338   0.595   5.308 -0.1357  0.8640 -1.4291
 3809TIP3    H211392   5.464   0.515   5.335 -1.2667 -0.5798 -0.2109
 3810TIP3   OH211393   3.950   4.056   4.557  0.7830 -0.2031 -0.3930
 3810TIP3    H111394   3.989   4.114   4.491 -1.8742 -0.5769 -2.4308
 3810TIP3    H211395   3.898   4.114   4.612  0.4790 -0.2990 -0.5822
 3811TIP3   OH211396   4.397   2.466   2.419 -0.2797 -0.7414  0.1005
 3811TIP3    H111397   4.491   2.471   2.436 -0.1371 -1.7505 -0.3540
 3811TIP3    H211398   4.371   2.380   2.451 -1.2278 -0.1705  0.9813
 3812TIP3   OH211399   1.093   2.050   4.459  0.1106 -0.4090  0.3592
 3812TIP3    H111400   1.153   2.123   4.476 -1.2875  1.1226 -0.9777
 3812TIP3    H211401   1.102   2.034   4.366 -1.4241 -0.2403  0.1633
 3813TIP3   OH211402   4.892   0.239   4.090  0.4452  0.4418  0.4346
 3813TIP3    H111403   4.963   0.195   4.137 -0.2680 -0.0331  1.0839
 3813TIP3    H211404   4.860   0.305   4.152  0.0557  0.3842  0.2941
 3814TIP3   OH211405   6.299   3.076   0.070 -0.3335  0.3476  0.3900
 3814TIP3    H111406   6.372   3.042   0.122 -0.1099  0.5134  0.1875
 3814TIP3    H211407   6.268   3.152   0.120 -0.3633  0.2820  0.4719
 3815TIP3   OH211408   6.250   4.708   3.027  0.0039 -0.6756 -0.2113
 3815TIP3    H111409   6.277   4.620   3.000 -0.7549 -0.6767 -0.9918
 3815TIP3    H211410   6.157   4.700   3.048  0.3022 -0.4161  1.3420
 3816TIP3   OH211411   5.325   1.935   0.464 -0.1716  0.9691  0.4955
 3816TIP3    H111412   5.379   1.979   0.398  0.3358 -0.8485 -0.3586
 3816TIP3    H211413   5.385   1.873   0.506 -1.2849 -0.2192  0.3834
 3817TIP3   OH211414   2.776   5.675   0.872  0.0782  0.0577 -0.1107
 3817TIP3    H111415   2.720   5.634   0.938 -0.9548  0.1421 -0.9065
 3817TIP3    H211416   2.749   5.767   0.872  1.2484  0.4217  0.5133
 3818TIP3   OH211417   1.774   2.325   4.999 -0.3120 -0.0229 -0.1711
 3818TIP3    H111418   1.792   2.403   4.947 -0.6614  0.4352  0.3746
 3818TIP3    H211419   1.756   2.256   4.935 -0.7168  0.5271 -0.6583
 3819TIP3   OH211420   2.619   6.524   1.074 -0.0505 -0.3503 -0.3373
 3819TIP3    H111421   2.687   6.578   1.114 -1.1353  1.3835 -0.7088
 3819TIP3    H211422   2.630   6.438   1.113  0.6305  0.5893  1.6712
 3820TIP3   OH211423   6.496   4.715   2.658  0.0326 -0.0377  0.1511
 3820TIP3    H111424   6.487   4.810   2.650  1.2843  0.4208  3.0947
 3820TIP3    H211425   6.410   4.681   2.632 -0.1786  1.7693 -1.7809
 3821TIP3   OH211426   2.353   5.798   2.666 -0.3199  0.0840 -0.2281
 3821TIP3    H111427   2.366   5.723   2.608  1.2265  0.4222 -0.3727
 3821TIP3    H211428   2.368   5.763   2.754  1.8614  0.4795 -0.3978
 3822TIP3   OH211429   3.126   3.485   4.057 -0.4244 -0.1139 -0.0470
 3822TIP3    H111430   3.189   3.480   3.986  0.3031  0.4115  0.5456
 3822TIP3    H211431   3.074   3.405   4.049 -0.3756 -0.0542 -1.1703
 3823TIP3   OH211432   3.169   3.795   3.675  0.3067 -0.1771  0.3834
 3823TIP3    H111433   3.172   3.820   3.767 -1.7238 -0.0485  0.4698
 3823TIP3    H211434   3.093   3.737   3.669  1.5406 -1.7580 -0.8687
 3824TIP3   OH211435   0.531   2.277   1.417  0.8140  0.1670 -0.6966
 3824TIP3    H111436   0.540   2.184   1.395 -1.2904 -0.6086  1.3296
 3824TIP3    H211437   0.440   2.286   1.446  1.8779  2.0832  2.5284
 3825TIP3   OH211438   0.226   1.945   0.168 -0.5665  0.0444 -0.4024
 3825TIP3    H111439   0.202   2.034   0.194  2.0769  0.7113  0.0482
 3825TIP3    H211440   0.183   1.932   0.084 -0.7998  1.8547 -0.6042
 3826TIP3   OH211441   3.763   5.841   1.966  0.2314  0.5838 -0.0973
 3826TIP3    H111442   3.804   5.767   1.922  0.7693 -0.1880  1.6434
 3826TIP3    H211443   3.678   5.849   1.924  0.4736 -0.5261 -0.8413
 3827TIP3   OH211444   3.569   0.284   5.773 -0.3244 -0.0610 -0.7409
 3827TIP3    H111445   3.628   0.226   5.725 -0.8695  0.4179 -2.0469
 3827TIP3    H211446   3.627   0.343   5.821  0.2472 -0.3063 -1.1221
 3828TIP3   OH211447   1.293   2.311   3.581  0.2599  0.6123 -0.2999
 3828TIP3    H111448   1.246   2.233   3.551  0.9294  0.3391 -0.6714
 3828TIP3    H211449   1.270   2.379   3.518  1.6308  0.0500 -1.4533
 3829TIP3   OH211450   7.117   0.699   3.438  0.5992  0.0682 -0.0557
 3829TIP3    H111451   7.082   0.784   3.463 -2.4578 -0.9248 -0.6339
 3829TIP3    H211452   7.158   0.714   3.352  0.6827  1.0466  0.1446
 3830TIP3   OH211453   1.114   4.196   4.830  0.4285  0.0278  0.1616
 3830TIP3    H111454   1.057   4.261   4.788 -0.2468 -0.2537  0.6252
 3830TIP3    H211455   1.176   4.249   4.881 -1.4941  0.3584  2.3748
 3831TIP3   OH211456   1.747   4.181   0.383  0.1670 -0.0245  0.9219
 3831TIP3    H111457   1.653   4.163   0.389  0.0090  0.2060 -0.5365
 3831TIP3    H211458   1.763   4.195   0.290  1.4966  0.7886  1.2466
 3832TIP3   OH211459   5.784   0.176   5.873 -0.1607  0.3868 -0.0195
 3832TIP3    H111460   5.858   0.162   5.932  0.2578 -0.6880 -0.7706
 3832TIP3    H211461   5.811   0.137   5.790 -1.0399  1.1876 -0.7109
 3833TIP3   OH211462   0.519   5.386   4.761 -0.3610 -0.1968  0.0833
 3833TIP3    H111463   0.550   5.389   4.852 -0.7936  0.8937  0.2113
 3833TIP3    H211464   0.490   5.296   4.748  0.0887 -0.4680  0.8972
 3834TIP3   OH211465   0.707   0.392   1.269  0.1469  0.3983 -0.5348
 3834TIP3    H111466   0.702   0.474   1.219 -0.5304  1.1600  0.7378
 3834TIP3    H211467   0.697   0.324   1.203  1.3526  1.2978 -1.7180
 3835TIP3   OH211468   2.846   3.119   0.991 -0.1963 -0.0825 -0.2412
 3835TIP3    H111469   2.832   3.024   0.999  1.6428 -0.3233  0.4345
 3835TIP3    H211470   2.827   3.137   0.899  1.2590 -1.4583 -0.8537
 3836TIP3   OH211471   2.007   6.724   4.181  0.4020 -0.0078  0.1324
 3836TIP3    H111472   2.096   6.755   4.167 -0.3124  2.2471  0.1968
 3836TIP3    H211473   1.982   6.681   4.099  1.3758 -0.2620 -0.0335
 3837TIP3   OH211474   0.969   3.445   2.985  0.4910  0.6702 -0.4464
 3837TIP3    H111475   1.039   3.478   3.041  1.5970 -0.1171 -1.3160
 3837TIP3    H211476   1.013   3.420   2.904 -0.3886 -2.0743 -0.1814
 3838TIP3   OH211477   2.750   5.530   2.220  0.0600 -0.1542 -0.2245
 3838TIP3    H111478   2.670   5.487   2.189 -0.0936  0.1425 -0.2425
 3838TIP3    H211479   2.752   5.613   2.172 -1.2109  1.2184  1.9490
 3839TIP3   OH211480   5.933   1.260   0.037 -0.0033  0.2155 -0.2080
 3839TIP3    H111481   5.860   1.323   0.037  0.3615  0.6695  1.3330
 3839TIP3    H211482   6.006   1.308  -0.002 -0.1649  0.1816 -0.5633
 3840TIP3   OH211483   4.725   4.421   0.188  0.3769  0.0210  1.2175
 3840TIP3    H111484   4.812   4.426   0.228  0.2646 -1.1148  1.6471
 3840TIP3    H211485   4.741   4.398   0.097  0.5436  0.5314  1.1127
 3841TIP3   OH211486   0.743   3.818   4.471 -0.1334 -0.5107 -0.3325
 3841TIP3    H111487   0.699   3.845   4.552  1.0515 -1.3507  0.6310
 3841TIP3    H211488   0.678   3.831   4.402 -0.9712  0.8007  0.6642
 3842TIP3   OH211489   5.648   4.682   0.617 -0.1273 -0.0993  0.2364
 3842TIP3    H111490   5.571   4.736   0.636 -0.3920 -0.2248 -0.4372
 3842TIP3    H211491   5.647   4.672   0.521 -1.6236 -3.4981  0.4492
 3843TIP3   OH211492   0.731   3.003   2.446 -0.3560 -0.1234 -0.3291
 3843TIP3    H111493   0.729   3.001   2.350 -0.6457 -2.6272 -0.3313
 3843TIP3    H211494   0.640   2.989   2.472 -0.4607  1.6119  0.3579
 3844TIP3   OH211495   3.853   4.567   2.342 -0.7341  0.2524 -0.1415
 3844TIP3    H111496   3.764   4.603   2.349  0.3200  3.2420 -0.4395
 3844TIP3    H211497   3.877   4.580   2.250  0.1267 -0.2107  0.0087
 3845TIP3   OH211498   4.029   6.044   1.762 -0.5006 -0.1924 -0.0421
 3845TIP3    H111499   4.098   6.049   1.828  0.4389  1.7005 -1.0907
 3845TIP3    H211500   4.064   6.091   1.686 -1.9623 -1.3765 -1.5372
 3846TIP3   OH211501   4.146   6.036   4.563  0.2214 -0.3378 -0.1025
 3846TIP3    H111502   4.071   6.087   4.531  1.0979  0.1284 -1.4946
 3846TIP3    H211503   4.130   5.947   4.530  1.0099  0.0923 -1.7485
 3847TIP3   OH211504   3.321   4.288   4.500 -0.2071  0.2950  0.1726
 3847TIP3    H111505   3.303   4.336   4.581  0.5288  2.3516 -0.7880
 3847TIP3    H211506   3.235   4.266   4.464 -0.5449 -1.9551  2.1747
 3848TIP3   OH211507   3.211   3.817   3.413  0.5288 -0.1927 -0.6721
 3848TIP3    H111508   3.250   3.740   3.455  2.3339  1.3119  0.5495
 3848TIP3    H211509   3.167   3.863   3.484  2.2731  1.5615 -0.6498
 3849TIP3   OH211510   5.615   6.122   0.530 -0.7267  0.6093  0.3468
 3849TIP3    H111511   5.635   6.213   0.554 -1.5488  0.9827 -0.3400
 3849TIP3    H211512   5.519   6.116   0.536 -0.6250 -0.5025  1.3635
 3850TIP3   OH211513   6.683   3.317   1.509  0.1072  0.3082  0.1241
 3850TIP3    H111514   6.721   3.257   1.573 -1.5557 -1.3125 -0.2724
 3850TIP3    H211515   6.611   3.359   1.556 -0.2189  0.1780 -0.2501
 3851TIP3   OH211516   4.192   0.808   4.920  0.7672 -0.1724  0.4230
 3851TIP3    H111517   4.229   0.882   4.969  0.4008  0.8371 -0.7527
 3851TIP3    H211518   4.190   0.736   4.983  1.9122  0.5794  1.3736
 3852TIP3   OH211519   3.213   2.978   0.170  0.2892  0.1227 -0.4704
 3852TIP3    H111520   3.148   2.934   0.225 -0.7008  0.4463 -1.3386
 3852TIP3    H211521   3.294   2.929   0.183 -0.1899 -0.4360  0.4627
 3853TIP3   OH211522   7.026   3.920   1.374 -0.1020 -0.8115 -0.2058
 3853TIP3    H111523   6.966   3.856   1.335 -0.3472 -0.7455  0.0564
 3853TIP3    H211524   6.976   4.002   1.375  0.4750 -0.4373 -1.2247
 3854TIP3   OH211525   0.493   6.784   3.585  0.0507 -0.5643 -0.6877
 3854TIP3    H111526   0.557   6.823   3.644 -0.0051 -0.6948 -0.5372
 3854TIP3    H211527   0.541   6.717   3.537  0.3455  0.2582 -1.5553
 3855TIP3   OH211528   3.978   1.281   3.368  0.0900 -0.2177 -0.1762
 3855TIP3    H111529   3.930   1.268   3.450 -1.1784  1.1657 -0.6564
 3855TIP3    H211530   4.063   1.315   3.396  0.0380 -0.6849  0.6007
 3856TIP3   OH211531   0.955   0.777   2.479 -0.0605  0.1203  0.6098
 3856TIP3    H111532   0.997   0.839   2.540 -3.4524  2.0655  1.2661
 3856TIP3    H211533   0.916   0.710   2.536  1.1925 -1.0636  0.1099
 3857TIP3   OH211534   1.152   4.325   2.228 -0.0900 -0.3154  0.3557
 3857TIP3    H111535   1.129   4.239   2.193  0.8487 -0.4862  0.1228
 3857TIP3    H211536   1.193   4.370   2.154 -1.4770  0.7206  0.1837
 3858TIP3   OH211537   3.759   2.686   0.587  0.4123 -0.2428 -0.3400
 3858TIP3    H111538   3.828   2.651   0.643  3.7175  1.9506 -2.6509
 3858TIP3    H211539   3.788   2.666   0.498 -1.4841  1.5339 -1.4509
 3859TIP3   OH211540   1.854   6.736   5.181  0.0206 -0.1126  0.1210
 3859TIP3    H111541   1.829   6.820   5.141 -0.4724  0.7201  2.0861
 3859TIP3    H211542   1.936   6.754   5.226  0.0423 -0.7690  0.3529
 3860TIP3   OH211543   2.372   1.078   4.661 -0.0865 -0.3866 -0.2752
 3860TIP3    H111544   2.310   1.035   4.602 -1.0677  0.6123 -0.0199
 3860TIP3    H211545   2.425   1.134   4.604 -0.1337 -0.4361 -0.3675
 3861TIP3   OH211546   0.540   6.176   5.136  0.1915 -0.0169  0.7166
 3861TIP3    H111547   0.530   6.267   5.163 -2.0608 -0.6063  2.0693
 3861TIP3    H211548   0.600   6.139   5.201 -1.1243 -0.1442  1.9142
 3862TIP3   OH211549   3.167   5.985   3.749  0.0155  0.3702 -0.0361
 3862TIP3    H111550   3.177   5.934   3.669 -0.0406  1.6232 -0.8790
 3862TIP3    H211551   3.075   6.011   3.749 -0.8285 -2.1201  2.0554
 3863TIP3   OH211552   5.726   6.157   2.276  0.0329  0.2124 -0.3453
 3863TIP3    H111553   5.681   6.190   2.353 -1.6917 -0.1012 -1.1659
 3863TIP3    H211554   5.775   6.081   2.307  0.1693  0.6798  0.6090
 3864TIP3   OH211555   4.503   6.721   0.529 -0.1670 -0.3085 -0.0164
 3864TIP3    H111556   4.498   6.774   0.609 -0.8705 -1.8384  0.9920
 3864TIP3    H211557   4.428   6.750   0.477 -0.0550  0.2743  0.1388
 3865TIP3   OH211558   7.137   1.819   2.431 -0.1006 -0.1529  0.2534
 3865TIP3    H111559   7.184   1.899   2.409 -1.8264  0.6951 -0.5571
 3865TIP3    H211560   7.205   1.753   2.441  1.2362  0.9090 -1.3408
 3866TIP3   OH211561   2.729   2.206   3.556 -0.0097  0.2753 -0.1808
 3866TIP3    H111562   2.635   2.190   3.547  0.0064  0.3743 -0.5167
 3866TIP3    H211563   2.754   2.158   3.635 -0.3124  0.1263 -0.1755
 3867TIP3   OH211564   2.845   5.516   5.160 -0.0248 -0.2009  0.0621
 3867TIP3    H111565   2.935   5.515   5.129  0.2433 -0.4260  0.8311
 3867TIP3    H211566   2.792   5.519   5.080  0.6257 -1.6802 -0.4566
 3868TIP3   OH211567   0.114   5.331   2.083 -0.3455 -0.1736 -0.0978
 3868TIP3    H111568   0.122   5.269   2.011 -1.2849  0.7642 -1.0340
 3868TIP3    H211569   0.104   5.276   2.161  1.0414 -1.2081 -0.5984
 3869TIP3   OH211570   5.770   2.188   2.455 -0.3344  0.6245 -0.0712
 3869TIP3    H111571   5.795   2.262   2.399 -0.3108  0.5004 -0.2238
 3869TIP3    H211572   5.785   2.220   2.544  0.6136  0.4732 -0.1601
 3870TIP3   OH211573   6.425   1.876   4.159 -0.5024 -0.6764  0.1286
 3870TIP3    H111574   6.428   1.833   4.245  0.2565 -1.4178 -0.2536
 3870TIP3    H211575   6.515   1.903   4.143 -0.8882  0.7110  0.1631
 3871TIP3   OH211576   5.173   6.618   3.133  0.0753  0.1061 -0.0766
 3871TIP3    H111577   5.162   6.523   3.138 -1.4429  0.3131  1.7022
 3871TIP3    H211578   5.224   6.640   3.211  0.4296  0.7712 -0.4876
 3872TIP3   OH211579   4.009   5.479   0.837  0.4120  0.5335  0.1551
 3872TIP3    H111580   4.062   5.559   0.843  1.0926  0.2754 -1.7028
 3872TIP3    H211581   3.919   5.511   0.831  0.6810  1.2000 -0.6600
 3873TIP3   OH211582   0.351   0.982   0.267 -0.0792  0.3975  0.2881
 3873TIP3    H111583   0.362   1.060   0.212  0.9866  1.0507  1.3855
 3873TIP3    H211584   0.274   0.938   0.231 -1.0625  2.2530 -0.0074
 3874TIP3   OH211585   3.163   6.064   0.475  0.2836 -0.1806  0.3526
 3874TIP3    H111586   3.158   5.976   0.438 -1.0054  0.5768 -1.4732
 3874TIP3    H211587   3.121   6.058   0.560  0.4820 -1.3763  0.3755
 3875TIP3   OH211588   0.704   5.912   4.863 -0.6634 -0.1499 -0.3065
 3875TIP3    H111589   0.799   5.899   4.860 -0.5776 -0.6576  1.9623
 3875TIP3    H211590   0.690   6.000   4.830  0.5617 -0.2094 -1.0343
 3876TIP3   OH211591   7.190   6.516   0.473  0.1594  0.1533 -0.4132
 3876TIP3    H111592   7.187   6.424   0.448  0.3587  0.2655 -0.8506
 3876TIP3    H211593   7.106   6.532   0.517 -0.4543  0.1093 -1.5404
 3877TIP3   OH211594   1.927   1.501   3.387  0.0451  0.3715  0.0260
 3877TIP3    H111595   1.844   1.458   3.408 -0.0851  0.2892 -0.6488
 3877TIP3    H211596   1.994   1.437   3.414 -0.1395 -0.0996 -0.6198
 3878TIP3   OH211597   1.494   0.528   5.278  0.6245 -0.3065 -0.7113
 3878TIP3    H111598   1.561   0.461   5.286  0.4885 -0.1945  3.7914
 3878TIP3    H211599   1.421   0.495   5.330 -1.5051  1.1550 -2.5662
 3879TIP3   OH211600   0.020   4.487   2.438 -0.4701  0.4476  0.2577
 3879TIP3    H111601  -0.001   4.459   2.527 -0.1263  0.0266  0.2051
 3879TIP3    H211602  -0.015   4.418   2.382 -1.9781  1.3971 -0.0326
 3880TIP3   OH211603   1.076   1.277   4.813  0.2294  0.4094  0.1823
 3880TIP3    H111604   1.054   1.228   4.892 -0.5479  1.9518  0.9737
 3880TIP3    H211605   0.996   1.325   4.791  1.5813  3.2392  0.9346
 3881TIP3   OH211606   1.561   2.605   1.682  0.1375  0.8268  0.0766
 3881TIP3    H111607   1.644   2.565   1.707 -0.3113 -0.4719 -0.4361
 3881TIP3    H211608   1.497   2.535   1.691 -0.8410  1.7031  0.0716
 3882TIP3   OH211609   6.174   2.727   4.096 -0.3902  0.1899  0.4533
 3882TIP3    H111610   6.094   2.754   4.051 -0.2689 -0.4209 -0.1416
 3882TIP3    H211611   6.242   2.734   4.029 -0.4841 -2.3698  0.0210
 3883TIP3   OH211612   3.144   1.411   2.479 -0.1502 -0.3025  0.5365
 3883TIP3    H111613   3.197   1.444   2.406  0.4930 -0.1409  1.0671
 3883TIP3    H211614   3.144   1.316   2.466 -2.0587 -0.1615 -1.0271
 3884TIP3   OH211615   2.343   2.936   3.184 -0.6080  0.4515 -0.0434
 3884TIP3    H111616   2.281   2.995   3.141 -0.5619  0.8351  0.4029
 3884TIP3    H211617   2.419   2.935   3.125  0.2424  2.5024  0.9177
 3885TIP3   OH211618   1.392   2.661   4.953 -0.6828  0.0774 -0.0119
 3885TIP3    H111619   1.431   2.614   5.027 -1.9887  1.2636  1.5036
 3885TIP3    H211620   1.298   2.662   4.972 -1.0312  0.5948 -1.6082
 3886TIP3   OH211621   3.646   6.669   1.416  0.7701  0.6041 -0.0823
 3886TIP3    H111622   3.728   6.705   1.383  0.7788  0.0298 -0.6984
 3886TIP3    H211623   3.657   6.574   1.410  0.8621  0.4562  1.8011
 3887TIP3   OH211624   3.383   0.669   4.527 -0.2585  0.3960  0.5257
 3887TIP3    H111625   3.414   0.757   4.545 -0.4245  0.6347 -0.2935
 3887TIP3    H211626   3.441   0.612   4.577 -0.6171  0.9916  1.6744
 3888TIP3   OH211627   2.083   2.495   0.153  0.1396 -0.1734 -0.0605
 3888TIP3    H111628   2.068   2.521   0.063  0.7087 -0.9765 -0.4088
 3888TIP3    H211629   2.168   2.533   0.175  0.3726 -0.6357 -0.1404
 3889TIP3   OH211630   2.438   3.145   5.219 -0.2728 -0.2714  0.4545
 3889TIP3    H111631   2.424   3.111   5.307 -1.0385 -0.0819  0.4162
 3889TIP3    H211632   2.442   3.067   5.164  1.3750 -0.4566  0.7885
 3890TIP3   OH211633   6.327   6.157   5.682 -0.1713 -0.1218  0.1562
 3890TIP3    H111634   6.407   6.110   5.706 -1.0962 -1.6495  0.3690
 3890TIP3    H211635   6.356   6.223   5.619  1.3579 -0.1758  0.7626
 3891TIP3   OH211636   1.193   6.529   2.915 -0.2541 -0.1723 -0.1556
 3891TIP3    H111637   1.098   6.540   2.915 -0.1010  1.4410  0.2525
 3891TIP3    H211638   1.225   6.600   2.859  0.7591  0.0524  0.6791
 3892TIP3   OH211639   2.573   5.744   3.116 -0.1249  0.3123  0.2822
 3892TIP3    H111640   2.529   5.665   3.146  1.3033 -0.6502 -0.0586
 3892TIP3    H211641   2.640   5.760   3.182  1.1022 -0.1222 -0.8121
 3893TIP3   OH211642   5.285   0.015   5.085 -0.1500 -0.1309  0.4622
 3893TIP3    H111643   5.322   0.073   5.152 -0.7250  2.5375 -1.3885
 3893TIP3    H211644   5.349   0.017   5.014 -1.8851  1.3019 -1.1427
 3894TIP3   OH211645   2.151   6.737   0.077  0.4605  0.5505  0.1657
 3894TIP3    H111646   2.125   6.646   0.067  1.1558  0.1098  1.8815
 3894TIP3    H211647   2.083   6.775   0.133 -0.7041  1.5740 -1.8159
 3895TIP3   OH211648   0.830   5.517   4.131  0.0857 -0.0392 -0.0560
 3895TIP3    H111649   0.860   5.491   4.218 -0.8574  1.0571  0.6279
 3895TIP3    H211650   0.837   5.612   4.130 -0.0446 -0.0211 -1.1470
 3896TIP3   OH211651   4.463   4.128   0.589  0.0598  0.0536 -0.0637
 3896TIP3    H111652   4.526   4.086   0.531  1.4497 -1.0208  2.0620
 3896TIP3    H211653   4.381   4.081   0.574  1.0540 -2.0587  0.7112
 3897TIP3   OH211654   6.120   4.363   4.706 -0.4422 -0.5452 -0.0908
 3897TIP3    H111655   6.129   4.288   4.765 -0.9668 -0.5097  0.0357
 3897TIP3    H211656   6.093   4.325   4.623 -1.7410 -0.4155  0.2493
 3898TIP3   OH211657   0.967   2.268   5.605 -0.8176  0.2278  0.5261
 3898TIP3    H111658   1.043   2.243   5.554 -0.0748  2.7882  0.2666
 3898TIP3    H211659   0.910   2.313   5.543 -1.5655  0.2276  1.1913
 3899TIP3   OH211660   4.407   1.646   4.656 -0.5208 -0.1543 -0.1648
 3899TIP3    H111661   4.492   1.609   4.680 -1.3128 -1.6940  0.3952
 3899TIP3    H211662   4.417   1.673   4.565  0.0972 -1.7792 -0.5965
 3900TIP3   OH211663   2.024   6.463   2.817 -0.1346 -0.7495  0.6964
 3900TIP3    H111664   1.928   6.465   2.815 -0.2087  3.2985  0.3170
 3900TIP3    H211665   2.049   6.470   2.725  0.3268  2.0464  0.9463
 3901TIP3   OH211666   2.933   0.151   5.506  0.2517 -0.5014 -0.2613
 3901TIP3    H111667   2.883   0.188   5.433  3.1451  0.5991 -1.8465
 3901TIP3    H211668   2.966   0.068   5.473 -0.4648 -1.2057  0.7520
 3902TIP3   OH211669   3.089   0.811   4.582 -0.2300  0.7560  0.0274
 3902TIP3    H111670   3.176   0.783   4.610 -0.1502  1.3450  0.3875
 3902TIP3    H211671   3.061   0.871   4.650 -1.8610 -1.1180  1.1248
 3903TIP3   OH211672   1.889   3.534   1.557  0.1660  0.0367 -0.1865
 3903TIP3    H111673   1.862   3.623   1.535  0.9668  0.1528 -0.7437
 3903TIP3    H211674   1.839   3.512   1.635  1.4498  1.7147  1.1615
 3904TIP3   OH211675   5.692   2.391   2.188  0.0265 -0.2543  0.2146
 3904TIP3    H111676   5.635   2.460   2.155 -1.2954 -0.1872  2.4444
 3904TIP3    H211677   5.666   2.313   2.139 -0.6834  0.1683 -0.0953
 3905TIP3   OH211678   0.020   4.792   2.816  0.4457  0.1094 -0.3767
 3905TIP3    H111679   0.058   4.723   2.870  1.1833  0.7463 -0.0743
 3905TIP3    H211680  -0.037   4.841   2.875  0.5410  0.2509 -0.4036
 3906TIP3   OH211681   3.221   0.547   3.979 -0.7833 -0.3786 -0.1167
 3906TIP3    H111682   3.212   0.629   4.026 -0.1120  0.0890 -0.7736
 3906TIP3    H211683   3.285   0.497   4.029  0.6994  0.5287 -1.0448
 3907TIP3   OH211684   1.229   4.654   1.012  0.5323  0.2136 -0.2485
 3907TIP3    H111685   1.310   4.700   1.032  1.1223 -1.5843  1.8647
 3907TIP3    H211686   1.166   4.687   1.076  0.0648  0.3470 -0.7672
 3908TIP3   OH211687   6.261   6.683   1.168 -0.0004  0.0158  0.5703
 3908TIP3    H111688   6.261   6.778   1.161  0.0236 -0.0147  0.0922
 3908TIP3    H211689   6.351   6.658   1.148 -0.1814 -0.1536 -0.0413
 3909TIP3   OH211690   3.732   2.406   4.604  0.2335  0.2028 -0.0199
 3909TIP3    H111691   3.701   2.316   4.596  1.6496 -0.2904 -0.2499
 3909TIP3    H211692   3.653   2.457   4.624 -0.6979 -0.9814 -0.5315
 3910TIP3   OH211693   3.028   6.331   3.590  0.1629 -0.6659 -0.2302
 3910TIP3    H111694   3.049   6.269   3.520  0.5323  0.5806 -1.2680
 3910TIP3    H211695   3.110   6.342   3.637  0.2993 -0.3767 -0.5324
 3911TIP3   OH211696   3.651   3.412   3.750 -0.0832 -0.1548 -0.1589
 3911TIP3    H111697   3.636   3.470   3.675  0.6330 -0.1018 -0.2631
 3911TIP3    H211698   3.590   3.339   3.736 -0.2357  0.0484 -0.5801
 3912TIP3   OH211699   1.327   2.683   5.652 -0.0997 -0.9531 -0.4087
 3912TIP3    H111700   1.269   2.710   5.723  1.9564 -0.7851  1.2926
 3912TIP3    H211701   1.275   2.698   5.572 -1.3297  1.9836  0.7889
 3913TIP3   OH211702   0.492   0.619   1.257 -0.0978 -0.3034  0.0479
 3913TIP3    H111703   0.429   0.690   1.248 -1.0474 -1.0697  0.4368
 3913TIP3    H211704   0.477   0.584   1.345  0.6264 -0.7387  0.0114
 3914TIP3   OH211705   0.726   0.785   4.984  0.4597  0.6561 -0.2569
 3914TIP3    H111706   0.774   0.707   5.013  0.1592  0.1781 -1.0220
 3914TIP3    H211707   0.795   0.846   4.958  0.6852  0.4988 -0.0401
 3915TIP3   OH211708   3.554   4.465   4.986  0.2167 -0.0732 -0.1040
 3915TIP3    H111709   3.552   4.553   5.023  1.0045  0.3461 -1.0173
 3915TIP3    H211710   3.526   4.408   5.058 -1.7833  1.0447  0.0720
 3916TIP3   OH211711   6.709   4.729   3.878 -0.4823  0.2986  0.1921
 3916TIP3    H111712   6.615   4.714   3.866 -0.2510  0.4515 -2.4622
 3916TIP3    H211713   6.726   4.811   3.832  1.3782 -1.1298 -1.8557
 3917TIP3   OH211714   2.664   3.058   4.505 -0.1072 -0.1303 -0.5830
 3917TIP3    H111715   2.614   3.097   4.434  2.3523  0.8945 -1.8642
 3917TIP3    H211716   2.625   3.096   4.585  0.4800  3.0558 -1.6432
 3918TIP3   OH211717   5.158   4.432   4.281 -0.3834  0.0516 -0.4490
 3918TIP3    H111718   5.244   4.414   4.318  0.4685  2.4528 -1.0557
 3918TIP3    H211719   5.164   4.401   4.191 -0.7661 -1.3166 -0.0223
 3919TIP3   OH211720   6.087   3.798   3.222 -0.1076  0.6058  0.2911
 3919TIP3    H111721   6.045   3.829   3.302 -0.2447  0.2162  0.3691
 3919TIP3    H211722   6.018   3.801   3.155 -0.0291  0.7992  0.2165
 3920TIP3   OH211723   2.369   3.201   1.745  0.2123  0.2569  0.4184
 3920TIP3    H111724   2.348   3.292   1.768 -0.1588  0.3144 -0.1504
 3920TIP3    H211725   2.439   3.208   1.681 -0.1304  0.1543  0.0332
 3921TIP3   OH211726   4.981   1.574   4.192 -0.0735 -0.2796  0.7294
 3921TIP3    H111727   5.011   1.602   4.106 -1.7728 -0.8786 -0.0869
 3921TIP3    H211728   5.048   1.513   4.222 -0.7102 -2.1476 -1.3579
 3922TIP3   OH211729   5.267   5.628   3.482  0.1793 -0.2560  0.1777
 3922TIP3    H111730   5.235   5.708   3.524 -2.7194 -0.2653 -1.6799
 3922TIP3    H211731   5.354   5.650   3.451 -0.4811  2.2012 -0.1565
 3923TIP3   OH211732   2.989   5.680   3.360  0.4798  0.8511 -0.4681
 3923TIP3    H111733   2.952   5.594   3.381 -0.8015  1.4191 -0.2633
 3923TIP3    H211734   3.042   5.666   3.282  0.2551 -0.1125 -0.4563
 3924TIP3   OH211735   5.458   4.963   5.319 -0.2669 -0.1845  0.1964
 3924TIP3    H111736   5.547   4.994   5.305 -0.5919  0.0750 -1.4687
 3924TIP3    H211737   5.429   4.933   5.233 -1.6530 -0.6460  0.7925
 3925TIP3   OH211738   1.111   4.549   0.220 -0.2622  0.0809  0.2232
 3925TIP3    H111739   1.189   4.526   0.270  0.0574 -0.0611 -0.3391
 3925TIP3    H211740   1.117   4.644   0.208 -0.8581  0.2797  1.3141
 3926TIP3   OH211741   1.356   0.676   3.043  0.2026  0.2070  0.6095
 3926TIP3    H111742   1.393   0.591   3.019 -0.5021  0.2804 -0.7985
 3926TIP3    H211743   1.274   0.681   2.995 -1.4797  0.2459  3.2834
 3927TIP3   OH211744   1.993   2.149   5.034  0.5576  0.3486  0.2732
 3927TIP3    H111745   2.000   2.214   5.104 -2.9027  0.6328  0.5224
 3927TIP3    H211746   1.989   2.065   5.079 -1.3978  0.5126  0.4822
 3928TIP3   OH211747   2.044   3.177   5.369 -0.1360 -0.4286  0.4171
 3928TIP3    H111748   2.118   3.187   5.428  0.5299  2.1814 -0.7212
 3928TIP3    H211749   2.070   3.106   5.310  1.4659  0.4249  0.0599
 3929TIP3   OH211750   3.350   2.848   0.715  0.9598  0.0219 -0.2049
 3929TIP3    H111751   3.316   2.789   0.783 -0.0278 -0.6143 -1.2104
 3929TIP3    H211752   3.368   2.930   0.761  0.7258 -0.5224  0.9002
 3930TIP3   OH211753   6.145   5.952   1.598  0.6901  0.2145  0.1830
 3930TIP3    H111754   6.222   6.004   1.574  1.3046 -1.2820 -1.3822
 3930TIP3    H211755   6.181   5.877   1.647  0.1909 -0.2503 -0.1438
 3931TIP3   OH211756   1.237   4.361   3.574 -0.1072 -0.1333 -0.2758
 3931TIP3    H111757   1.300   4.385   3.641  0.4803  1.9950 -1.4930
 3931TIP3    H211758   1.167   4.426   3.582 -1.4376 -1.5609  0.0809
 3932TIP3   OH211759   6.540   5.695   2.321  0.1229 -0.1026  0.4330
 3932TIP3    H111760   6.457   5.730   2.289 -0.5107  0.6089  2.6367
 3932TIP3    H211761   6.516   5.615   2.368  0.4058  0.9125  2.3980
 3933TIP3   OH211762   1.153   2.809   1.080  0.2857 -0.3904  0.3600
 3933TIP3    H111763   1.112   2.765   1.154 -0.5366  0.5998  0.5225
 3933TIP3    H211764   1.243   2.824   1.107 -0.2748  0.9037  1.6227
 3934TIP3   OH211765   4.321   6.261   3.635 -0.4262  0.7427  0.1118
 3934TIP3    H111766   4.401   6.273   3.583 -1.1326 -0.8735 -1.4611
 3934TIP3    H211767   4.326   6.171   3.667 -1.5503  0.6592  0.0888
 3935TIP3   OH211768   3.199   0.563   5.673 -0.0178 -0.0325  0.2373
 3935TIP3    H111769   3.243   0.530   5.752 -0.4063 -0.9640  0.0657
 3935TIP3    H211770   3.227   0.504   5.603 -0.1901  0.4030 -0.2056
 3936TIP3   OH211771   6.478   3.189   1.277  0.2792  0.3738 -0.4312
 3936TIP3    H111772   6.403   3.248   1.265  0.5435  0.5420 -1.2862
 3936TIP3    H211773   6.519   3.220   1.358  1.6657  2.7873 -1.9419
 3937TIP3   OH211774   2.487   1.810   4.325 -0.1758 -0.0831  0.2545
 3937TIP3    H111775   2.543   1.737   4.296 -0.8300 -0.7976  0.7484
 3937TIP3    H211776   2.531   1.888   4.291  1.2762 -0.5919  0.8629
 3938TIP3   OH211777   1.006   2.014   2.793  0.2061 -0.0484 -0.0147
 3938TIP3    H111778   0.990   1.988   2.884  1.2336  0.4931  0.3419
 3938TIP3    H211779   0.991   1.935   2.743  0.0289 -0.4640  0.6753
 3939TIP3   OH211780   5.572   0.801   2.604  0.3174 -0.0930 -0.0162
 3939TIP3    H111781   5.531   0.731   2.655 -0.2684  0.8771  0.8717
 3939TIP3    H211782   5.506   0.823   2.538  0.1588  0.2112  0.2459
 3940TIP3   OH211783   3.413   5.255   4.723  0.0736 -0.3322  0.1497
 3940TIP3    H111784   3.427   5.348   4.706 -0.3463 -0.4009 -0.6377
 3940TIP3    H211785   3.327   5.251   4.766  0.3952 -0.2989  0.7951
 3941TIP3   OH211786   0.989   5.548   5.843  0.1587 -0.0709  0.7031
 3941TIP3    H111787   1.035   5.572   5.924  0.9643 -1.3001  0.6419
 3941TIP3    H211788   0.943   5.467   5.864 -0.8216  0.3723  0.3318
 3942TIP3   OH211789   3.767   3.253   0.680  0.3784 -0.4553 -0.5134
 3942TIP3    H111790   3.695   3.272   0.621 -0.6271 -0.6206  0.6079
 3942TIP3    H211791   3.789   3.161   0.663 -3.7722 -2.4758  3.1347
 3943TIP3   OH211792   1.513   0.945   0.561  0.1491  0.0092  0.2935
 3943TIP3    H111793   1.518   0.873   0.498 -0.6002  0.0053  0.2265
 3943TIP3    H211794   1.510   0.902   0.646  1.6305  0.0268  0.3796
 3944TIP3   OH211795   2.968   2.160   3.385  0.3825 -0.3590 -0.4160
 3944TIP3    H111796   2.882   2.185   3.420  0.4589  0.7465 -0.9718
 3944TIP3    H211797   2.980   2.070   3.414  0.3260  0.3792  2.1465
 3945TIP3   OH211798   3.681   5.948   3.654  0.0114  0.0547  0.0026
 3945TIP3    H111799   3.747   5.900   3.705 -0.2332 -1.1712 -0.7983
 3945TIP3    H211800   3.722   6.033   3.638  0.5813  0.0376  1.1954
 3946TIP3   OH211801   2.060   6.405   1.303  0.2164  0.1570 -0.0109
 3946TIP3    H111802   2.109   6.392   1.222  1.0282 -1.8575  0.7166
 3946TIP3    H211803   2.083   6.493   1.332  2.0279 -0.0807 -0.6123
 3947TIP3   OH211804   3.399   0.473   3.119  0.4073  0.0682  0.4022
 3947TIP3    H111805   3.473   0.500   3.064  0.5284 -2.0346 -0.5524
 3947TIP3    H211806   3.340   0.548   3.117  2.2563  1.6118  0.7747
 3948TIP3   OH211807   0.351   4.765   4.653 -0.4870  0.6590 -0.1845
 3948TIP3    H111808   0.413   4.769   4.726 -1.3526  1.7856  0.5260
 3948TIP3    H211809   0.291   4.695   4.677  0.0744  0.0587 -0.5193
 3949TIP3   OH211810   6.058   0.826   2.420  0.7091 -1.0866  0.7681
 3949TIP3    H111811   5.977   0.779   2.438 -0.6381  1.0907  0.8076
 3949TIP3    H211812   6.104   0.772   2.356 -1.7904 -1.3947 -0.8845
 3950TIP3   OH211813   6.549   4.654   3.172 -0.1997 -0.2461  0.2853
 3950TIP3    H111814   6.548   4.711   3.095  2.3955 -1.1349 -0.5413
 3950TIP3    H211815   6.537   4.712   3.246 -0.8302  0.9127 -0.6944
 3951TIP3   OH211816   6.091   4.929   5.516 -0.2361  0.2257  1.0054
 3951TIP3    H111817   6.073   4.969   5.602 -0.6024  1.5820  0.3287
 3951TIP3    H211818   6.171   4.972   5.486  0.3887 -0.8872  1.0355
 3952TIP3   OH211819   2.418   3.669   1.928 -0.0215  0.4018 -0.0133
 3952TIP3    H111820   2.371   3.653   2.010 -2.7499  1.8277 -1.1605
 3952TIP3    H211821   2.393   3.595   1.872  2.7514 -1.2020  0.6656
 3953TIP3   OH211822   5.749   0.821   2.297 -0.2133 -0.3199 -0.0960
 3953TIP3    H111823   5.701   0.892   2.340  0.4205  0.4423 -0.6033
 3953TIP3    H211824   5.781   0.767   2.369  1.2360  1.1888  0.4667
 3954TIP3   OH211825   3.812   1.164   3.187 -0.4049  0.2953  0.6224
 3954TIP3    H111826   3.881   1.185   3.249  1.4608 -2.6857 -0.2488
 3954TIP3    H211827   3.795   1.071   3.200  0.1959 -0.5570 -3.3407
 3955TIP3   OH211828   4.232   2.292   5.360  0.3230  0.2357  0.8798
 3955TIP3    H111829   4.206   2.330   5.444 -0.1575  0.3549  0.6825
 3955TIP3    H211830   4.327   2.289   5.363  0.4227  2.0927  0.6286
 3956TIP3   OH211831   0.917   3.624   1.518  0.5367  0.3247  0.1394
 3956TIP3    H111832   0.961   3.662   1.441 -0.4516 -0.1313 -0.6685
 3956TIP3    H211833   0.908   3.698   1.578 -0.7626  1.2566 -1.1428
 3957TIP3   OH211834   1.353   5.400   3.030 -0.0659  0.1974 -0.0350
 3957TIP3    H111835   1.311   5.481   3.058 -1.2174 -0.0697 -0.9568
 3957TIP3    H211836   1.436   5.399   3.078  1.0454  3.0429 -1.6615
 3958TIP3   OH211837   0.749   0.979   0.677  0.1779 -0.4170 -0.4657
 3958TIP3    H111838   0.662   1.016   0.663  0.7145  1.5390  0.8482
 3958TIP3    H211839   0.809   1.049   0.650  1.3445 -1.5500 -0.9056
 3959TIP3   OH211840   3.715   1.893   3.058  0.1363  0.6070 -0.5586
 3959TIP3    H111841   3.715   1.985   3.085 -0.8485  0.5739 -0.4333
 3959TIP3    H211842   3.646   1.887   2.992 -0.4367 -0.2218  0.0971
 3960TIP3   OH211843   7.129   4.545   0.623 -0.3463 -0.0478  0.0527
 3960TIP3    H111844   7.126   4.461   0.669 -2.3783 -0.8510 -1.3594
 3960TIP3    H211845   7.144   4.521   0.531  1.9161  1.3852 -0.0323
 3961TIP3   OH211846   3.435   1.159   1.545 -0.0866 -0.4150  0.7307
 3961TIP3    H111847   3.407   1.070   1.566 -0.5744  0.0668  2.3440
 3961TIP3    H211848   3.416   1.209   1.625 -0.2523  1.2309 -0.2813
 3962TIP3   OH211849   4.754   2.506   1.962 -0.2728 -0.0955  0.0343
 3962TIP3    H111850   4.753   2.458   2.045  1.4159  2.1629  1.4666
 3962TIP3    H211851   4.740   2.438   1.896 -3.2649 -1.7986  2.1567
 3963TIP3   OH211852   5.133   3.723   5.066  0.3455 -0.1349  0.1291
 3963TIP3    H111853   5.173   3.649   5.021  0.4092  0.4597 -0.8105
 3963TIP3    H211854   5.116   3.691   5.154 -0.8108 -1.6992 -0.6149
 3964TIP3   OH211855   0.429   2.159   2.865  0.0224  1.5581 -0.5056
 3964TIP3    H111856   0.502   2.105   2.834 -1.6702 -1.1156 -0.1639
 3964TIP3    H211857   0.451   2.179   2.956  0.5551  1.1893 -0.5468
 3965TIP3   OH211858   1.262   6.118   5.151  0.1842 -0.4597  0.1435
 3965TIP3    H111859   1.242   6.137   5.242 -0.4772  0.6556 -0.2212
 3965TIP3    H211860   1.263   6.203   5.108 -2.1635 -1.1376 -1.4155
 3966TIP3   OH211861   2.082   2.771   4.794 -0.1121 -0.1323 -0.2789
 3966TIP3    H111862   2.160   2.718   4.809  0.7072  0.7761 -1.1547
 3966TIP3    H211863   2.106   2.829   4.721 -0.6281  2.0466  1.1932
 3967TIP3   OH211864   3.860   6.648   3.790  0.1907  0.2075 -0.0823
 3967TIP3    H111865   3.796   6.719   3.794  0.8370  1.1799 -3.7298
 3967TIP3    H211866   3.940   6.689   3.757  1.4395 -1.7462  0.3402
 3968TIP3   OH211867   3.175   5.143   0.968  0.3491 -0.0323 -0.2568
 3968TIP3    H111868   3.199   5.070   1.026 -0.6172 -1.6203 -1.7646
 3968TIP3    H211869   3.252   5.157   0.914  0.9255  0.8287  0.7672
 3969TIP3   OH211870   2.852   4.022   4.393 -0.9763  0.1783  0.2924
 3969TIP3    H111871   2.773   3.990   4.350 -1.1374  0.8700  0.0607
 3969TIP3    H211872   2.821   4.091   4.451 -0.6282 -0.0568  0.7673
 3970TIP3   OH211873   4.803   6.194   2.329  0.4686 -0.3686 -0.2774
 3970TIP3    H111874   4.781   6.222   2.418  1.7521  1.8392 -0.5709
 3970TIP3    H211875   4.720   6.164   2.291 -0.7022  1.4200  0.7306
 3971TIP3   OH211876   1.600   3.415   3.521 -0.4968 -0.5201  0.5363
 3971TIP3    H111877   1.588   3.328   3.483 -1.9046  0.0214 -0.3597
 3971TIP3    H211878   1.516   3.434   3.564  0.0578  0.0939  1.3785
 3972TIP3   OH211879   2.223   0.449   0.317  0.2887  0.4684  0.0292
 3972TIP3    H111880   2.274   0.509   0.263 -0.1765 -1.7022 -3.0403
 3972TIP3    H211881   2.288   0.408   0.374  1.5071  0.0687 -1.5703
 3973TIP3   OH211882   5.150   3.612   4.350 -0.3867  0.5018  0.1794
 3973TIP3    H111883   5.193   3.673   4.409 -0.2225  0.3173  0.2497
 3973TIP3    H211884   5.057   3.620   4.371 -0.2921  0.1058  0.7784
 3974TIP3   OH211885   0.778   1.648   0.735  0.5391  0.5110  0.2922
 3974TIP3    H111886   0.728   1.729   0.736  0.4298  0.4471 -0.1783
 3974TIP3    H211887   0.756   1.606   0.653 -1.5586 -1.3442  1.6897
 3975TIP3   OH211888   1.210   0.689   3.287  0.0748  0.1224  0.2688
 3975TIP3    H111889   1.246   0.759   3.342 -1.6075  0.5998  0.8178
 3975TIP3    H211890   1.244   0.708   3.200 -1.0699  2.2182  0.2163
 3976TIP3   OH211891   2.757   1.975   5.022 -0.1647 -0.0251 -0.1624
 3976TIP3    H111892   2.692   1.994   4.954 -1.7551 -1.1265  0.9672
 3976TIP3    H211893   2.723   2.021   5.099  2.5870  2.8353 -0.4324
 3977TIP3   OH211894   2.278   3.508   1.738  0.3265  0.1098  0.0049
 3977TIP3    H111895   2.232   3.452   1.676 -3.2577 -0.1574  2.5711
 3977TIP3    H211896   2.251   3.597   1.715  1.1996  0.2645 -0.4478
 3978TIP3   OH211897   2.543   1.215   4.488 -0.2011 -0.9145  0.7749
 3978TIP3    H111898   2.633   1.220   4.520 -0.1260  0.6704  0.3770
 3978TIP3    H211899   2.549   1.162   4.408  0.7012  0.7105 -0.2803
 3979TIP3   OH211900   6.204   6.490   0.303 -0.5584  1.0949 -0.6048
 3979TIP3    H111901   6.255   6.483   0.222 -1.3753  0.5308 -1.0886
 3979TIP3    H211902   6.116   6.511   0.273 -0.9758  0.3699  0.1141
 3980TIP3   OH211903   1.370   3.576   3.598 -0.8643  0.2003  0.2489
 3980TIP3    H111904   1.424   3.593   3.675  1.1936 -1.7448 -0.6697
 3980TIP3    H211905   1.296   3.525   3.632 -0.5174  0.2197  1.0695
 3981TIP3   OH211906   6.429   1.884   0.066 -0.5773 -0.2686 -0.6143
 3981TIP3    H111907   6.361   1.929   0.117  1.5461  2.2719  0.2231
 3981TIP3    H211908   6.420   1.918  -0.023 -1.2654 -1.0658 -0.8680
 3982TIP3   OH211909   6.087   3.126   5.346  0.5526 -0.1284  0.1261
 3982TIP3    H111910   6.107   3.045   5.301  1.7804  0.0243  0.3477
 3982TIP3    H211911   6.026   3.101   5.415  0.1019 -0.6750 -0.4662
 3983TIP3   OH211912   0.615   4.927   0.987 -0.2867  0.1284  0.4243
 3983TIP3    H111913   0.685   4.919   1.052  0.4075  0.5353 -0.2690
 3983TIP3    H211914   0.566   4.846   0.995 -0.8160  0.5800  2.1589
 3984TIP3   OH211915   4.977   2.267   2.031 -0.2455  0.1889 -0.4174
 3984TIP3    H111916   4.976   2.249   1.937  0.1996 -2.6424  0.0212
 3984TIP3    H211917   5.061   2.311   2.046 -0.0626  0.1492 -1.2682
 3985TIP3   OH211918   5.206   1.521   2.922  0.0590  0.1547  0.2848
 3985TIP3    H111919   5.266   1.464   2.874  0.3209  0.2239  0.5297
 3985TIP3    H211920   5.180   1.587   2.858  0.3989  0.2398  0.2301
 3986TIP3   OH211921   1.123   1.627   1.233  0.3278 -0.0887  0.2214
 3986TIP3    H111922   1.032   1.613   1.259  0.4141  0.4773  0.8453
 3986TIP3    H211923   1.171   1.555   1.274 -0.2195 -2.3408 -2.6935
 3987TIP3   OH211924   2.707   2.556   3.488  0.0798 -0.0283  0.0411
 3987TIP3    H111925   2.786   2.596   3.453  0.5811 -0.6894  0.4129
 3987TIP3    H211926   2.723   2.462   3.484 -0.6187 -0.1644  0.2671
 3988TIP3   OH211927   6.042   2.375   2.831  0.3611 -0.2858 -0.0677
 3988TIP3    H111928   6.096   2.443   2.871 -2.6001  1.0350  2.0469
 3988TIP3    H211929   6.050   2.390   2.737  4.1056 -0.6703  0.0202
 3989TIP3   OH211930   5.807   2.623   3.852 -0.1053  0.3326 -0.1063
 3989TIP3    H111931   5.878   2.558   3.846  0.0525  0.5741 -0.8762
 3989TIP3    H211932   5.752   2.605   3.777 -0.6764  0.3826  0.2957
 3990TIP3   OH211933   6.761   5.085   3.311  0.8409 -0.5995 -0.0579
 3990TIP3    H111934   6.672   5.102   3.282  1.3114  1.1081 -0.5775
 3990TIP3    H211935   6.754   5.006   3.365 -1.1853  0.2135  0.9485
 3991TIP3   OH211936   4.027   4.870   0.734 -0.1054 -0.4210  0.2415
 3991TIP3    H111937   3.996   4.872   0.824  2.3046  1.3286  1.1388
 3991TIP3    H211938   3.997   4.953   0.697 -0.2416 -0.6910 -0.2655
 3992TIP3   OH211939   0.660   0.199   2.041 -0.0168 -0.2032  0.1039
 3992TIP3    H111940   0.565   0.187   2.041 -0.0517  0.0706  0.3900
 3992TIP3    H211941   0.690   0.152   2.119  0.0852 -0.3177 -0.0049
 3993TIP3   OH211942   2.766   3.140   5.258  0.2660 -0.2866  0.2449
 3993TIP3    H111943   2.680   3.119   5.294  0.1747  0.3973  0.4302
 3993TIP3    H211944   2.820   3.063   5.277 -0.7269 -1.4466 -1.3201
 3994TIP3   OH211945   2.183   1.878   0.499  0.4203 -0.1183 -0.3370
 3994TIP3    H111946   2.174   1.838   0.412 -0.0689 -0.6593 -0.0415
 3994TIP3    H211947   2.185   1.804   0.560 -0.9757  0.2996  0.2584
 3995TIP3   OH211948   7.020   0.183   3.901  0.1047  0.1647 -0.0213
 3995TIP3    H111949   7.070   0.172   3.821  0.5012 -1.0189  0.3734
 3995TIP3    H211950   7.086   0.185   3.971 -0.2971  0.1207  0.3648
 3996TIP3   OH211951   5.047   3.936   1.683  0.2481 -0.1708  0.1560
 3996TIP3    H111952   5.028   3.843   1.671  0.2685 -0.0556 -0.8379
 3996TIP3    H211953   4.962   3.980   1.674  0.4009  0.0009 -0.4765
 3997TIP3   OH211954   5.028   6.692   2.164  0.0388 -0.8149  0.1445
 3997TIP3    H111955   5.005   6.765   2.106  2.0066 -0.6469 -0.5034
 3997TIP3    H211956   4.984   6.616   2.128 -2.0786  0.0214  0.8458
 3998TIP3   OH211957   6.506   4.939   1.539  0.0344  0.1505  0.1797
 3998TIP3    H111958   6.584   4.966   1.491  0.1246  0.9587  0.7516
 3998TIP3    H211959   6.494   5.007   1.605 -0.9131 -0.1889  0.3736
 3999TIP3   OH211960   5.158   6.640   2.420 -0.0407  0.4507 -0.1563
 3999TIP3    H111961   5.112   6.691   2.353 -0.8306 -0.7677 -0.5838
 3999TIP3    H211962   5.091   6.581   2.455  0.9165 -0.5102  0.1047
 4000TIP3   OH211963   4.364   1.077   1.966  0.3325  0.6491  0.7026
 4000TIP3    H111964   4.271   1.083   1.985  0.4133  0.5942  1.1436
 4000TIP3    H211965   4.402   1.041   2.046  0.4770 -1.2535 -0.1669
 4001TIP3   OH211966   1.426   6.015   5.609 -0.6286  0.4316  0.0769
 4001TIP3    H111967   1.495   6.000   5.544 -0.0753  0.2976  0.6800
 4001TIP3    H211968   1.447   6.101   5.646  0.5974 -0.5648  1.8771
 4002TIP3   OH211969   5.549   5.333   4.468 -0.1403  0.2164  0.3203
 4002TIP3    H111970   5.588   5.341   4.381 -1.7097 -1.0122 -0.5565
 4002TIP3    H211971   5.582   5.249   4.501  0.9741  0.9843  1.2246
 4003TIP3   OH211972   3.533   1.692   2.765 -0.2046  0.3588 -0.1632
 4003TIP3    H111973   3.621   1.674   2.730 -0.3576 -0.4250 -0.1508
 4003TIP3    H211974   3.529   1.640   2.846 -1.0711 -0.4543 -0.7194
 4004TIP3   OH211975   4.218   6.246   2.041  0.0472 -0.2033 -0.4933
 4004TIP3    H111976   4.282   6.294   2.093 -0.3201 -0.2104 -0.0315
 4004TIP3    H211977   4.182   6.181   2.101 -0.8836  0.2483 -0.5399
 4005TIP3   OH211978   4.090   4.535   2.139 -0.1662 -0.1652  0.0160
 4005TIP3    H111979   4.012   4.560   2.090  0.3037 -0.6205 -0.9996
 4005TIP3    H211980   4.155   4.602   2.119 -0.3503  0.3427  1.0467
 4006TIP3   OH211981   2.480   6.115   4.223 -0.3372  0.0567  0.1432
 4006TIP3    H111982   2.495   6.037   4.277 -0.0041  0.4483  0.6341
 4006TIP3    H211983   2.394   6.146   4.250 -0.7338 -0.4737 -0.4853
 4007TIP3   OH211984   2.461   2.841   2.779 -0.2466  0.2769  0.1834
 4007TIP3    H111985   2.459   2.773   2.711 -4.0449 -0.5433  0.8552
 4007TIP3    H211986   2.508   2.801   2.852  2.6896  0.6670 -1.3795
 4008TIP3   OH211987   1.280   3.017   4.427 -0.0319  0.4369 -0.5056
 4008TIP3    H111988   1.214   2.988   4.490 -2.3701  1.6962 -2.1966
 4008TIP3    H211989   1.269   2.957   4.352  0.5518  0.8234 -0.9049
 4009TIP3   OH211990   1.241   2.127   0.027 -0.1395 -0.0767 -0.4521
 4009TIP3    H111991   1.166   2.134   0.085  2.0566 -1.0864  2.7934
 4009TIP3    H211992   1.312   2.171   0.074  1.9381 -1.4083 -2.1434
 4010TIP3   OH211993   0.426   4.589   2.773  0.6151  0.7318 -0.0685
 4010TIP3    H111994   0.404   4.654   2.839  0.3627  0.6456 -0.0658
 4010TIP3    H211995   0.462   4.516   2.822  1.0539  0.9318 -0.0852
 4011TIP3   OH211996   6.594   5.397   3.748  0.8168  0.2465  0.5807
 4011TIP3    H111997   6.611   5.307   3.778  0.4081  0.3600  1.1654
 4011TIP3    H211998   6.682   5.434   3.735  0.9937 -0.5583 -0.6758
 4012TIP3   OH211999   3.156   5.317   3.732 -0.3964  0.1974 -0.0009
 4012TIP3    H112000   3.090   5.358   3.789  0.5182  0.2254  1.0706
 4012TIP3    H212001   3.161   5.376   3.656  1.0112  2.2810  1.5732
 4013TIP3   OH212002   1.196   6.231   5.383 -0.1661  0.6240 -0.6633
 4013TIP3    H112003   1.254   6.266   5.451 -0.2955 -0.5415  0.0797
 4013TIP3    H212004   1.148   6.307   5.350  1.1562  1.4742 -0.6879
 4014TIP3   OH212005   4.057   5.363   2.763 -0.4026 -0.1611  0.4104
 4014TIP3    H112006   3.975   5.412   2.767  0.1893  0.8007  2.3164
 4014TIP3    H212007   4.031   5.273   2.742 -1.7980  0.3819 -0.2547
 4015TIP3   OH212008   2.343   2.549   4.250  0.1091 -0.3726 -0.1166
 4015TIP3    H112009   2.254   2.583   4.262  0.2388 -0.4691  1.3819
 4015TIP3    H212010   2.334   2.454   4.261  0.6705 -0.2192  2.3630
 4016TIP3   OH212011   2.362   0.029   4.900  0.3937  0.0120  0.0056
 4016TIP3    H112012   2.388   0.071   4.818 -0.8458 -1.1082 -0.9949
 4016TIP3    H212013   2.313   0.096   4.947  1.2668  0.7193 -0.0678
 4017TIP3   OH212014   4.918   2.480   5.347 -0.4411 -0.0571  0.0965
 4017TIP3    H112015   4.854   2.526   5.402  0.8049  1.1423  0.5950
 4017TIP3    H212016   4.864   2.429   5.286 -1.8761 -0.8010  1.8672
 4018TIP3   OH212017   0.920   6.706   5.709  0.0070  0.6814  0.8189
 4018TIP3    H112018   0.896   6.613   5.713  2.0123  0.1070  0.4013
 4018TIP3    H212019   1.015   6.706   5.705  0.0076  2.6815 -1.5852
 4019TIP3   OH212020   4.449   1.142   5.537 -0.2655 -0.3042  0.5659
 4019TIP3    H112021   4.524   1.095   5.572 -0.6582 -0.0749  1.7632
 4019TIP3    H212022   4.377   1.121   5.596 -0.8592  0.4121  0.1237
 4020TIP3   OH212023   4.194   4.780   2.093 -0.6795  0.2249 -0.1369
 4020TIP3    H112024   4.195   4.794   1.998 -0.8786  1.5931  0.0437
 4020TIP3    H212025   4.108   4.812   2.120 -1.1719 -1.4290  0.3479
 4021TIP3   OH212026   1.392   6.335   5.548 -0.1504 -0.0580  0.4127
 4021TIP3    H112027   1.391   6.271   5.619  0.2091 -0.7031 -0.1449
 4021TIP3    H212028   1.439   6.410   5.584  0.6643 -0.6561  0.6349
 4022TIP3   OH212029   4.020   6.630   2.644  0.4518  0.5702  0.0061
 4022TIP3    H112030   3.955   6.700   2.644 -0.9264 -0.5886  2.0979
 4022TIP3    H212031   4.101   6.672   2.673  0.6358  1.9531 -2.2540
 4023TIP3   OH212032   4.832   3.073   4.103  0.2334  0.2496  0.0137
 4023TIP3    H112033   4.856   3.157   4.062 -1.7142  0.1089 -1.5480
 4023TIP3    H212034   4.748   3.090   4.144 -0.2737 -0.9683 -0.4822
 4024TIP3   OH212035   2.435   1.833   5.719  0.5349 -0.3928 -0.6147
 4024TIP3    H112036   2.511   1.800   5.766 -0.3620 -0.5267  0.7953
 4024TIP3    H212037   2.361   1.785   5.756 -0.3676  0.5248 -1.1777
 4025TIP3   OH212038   6.359   4.270   3.963 -0.4466 -0.1907 -0.9768
 4025TIP3    H112039   6.345   4.282   4.057 -2.4956 -0.6521 -1.1783
 4025TIP3    H212040   6.289   4.210   3.935  0.1031 -0.0539 -2.7957
 4026TIP3   OH212041   1.947   5.572   0.295 -0.3464 -0.2804  0.2966
 4026TIP3    H112042   1.942   5.480   0.321 -2.1458 -0.3831 -0.2975
 4026TIP3    H212043   1.992   5.570   0.211  0.2629 -0.5299  0.6190
 4027TIP3   OH212044   2.270   2.767   1.664  0.4335 -0.1803 -1.1085
 4027TIP3    H112045   2.235   2.823   1.594  2.2552  0.0213 -1.9261
 4027TIP3    H212046   2.316   2.827   1.722  1.0680 -0.6415 -1.1279
 4028TIP3   OH212047  -0.010   2.326   4.476 -0.2448 -0.1787  0.3534
 4028TIP3    H112048   0.082   2.352   4.485 -0.3854 -0.3479  4.0124
 4028TIP3    H212049  -0.058   2.408   4.468  0.0817  0.0999  1.1214
 4029TIP3   OH212050   5.534   5.588   5.308  0.1703  0.2378 -0.5406
 4029TIP3    H112051   5.476   5.533   5.256  0.0730  0.3426 -0.5429
 4029TIP3    H212052   5.501   5.580   5.398  1.1702 -1.0468 -0.2520
 4030TIP3   OH212053   3.995   1.659   4.328  0.1047  0.2870  0.0740
 4030TIP3    H112054   4.010   1.590   4.393  0.8698 -0.7882 -1.2158
 4030TIP3    H212055   3.903   1.649   4.303  0.5169 -1.1014 -1.0046
 4031TIP3   OH212056   2.115   3.122   4.906 -0.0522  0.2685  0.0522
 4031TIP3    H112057   2.188   3.059   4.898 -0.5410 -0.3336  0.2260
 4031TIP3    H212058   2.063   3.109   4.827  1.4657  2.6297 -1.4527
 4032TIP3   OH212059   0.615   4.214   0.293 -0.1421  0.6727 -0.3186
 4032TIP3    H112060   0.649   4.149   0.232  0.2221  2.1370 -1.7608
 4032TIP3    H212061   0.665   4.200   0.374  1.6647  0.7113 -1.3775
 4033TIP3   OH212062   6.857   6.188   5.497  0.1990 -0.1021  0.6814
 4033TIP3    H112063   6.796   6.150   5.433 -1.4151  1.0657  1.4555
 4033TIP3    H212064   6.943   6.155   5.470 -0.3236  0.6788 -2.3549
 4034TIP3   OH212065   0.690   3.763   5.359  0.3171  0.0411  0.0913
 4034TIP3    H112066   0.767   3.777   5.414  1.1746 -0.0380 -1.0678
 4034TIP3    H212067   0.616   3.780   5.418  1.1852 -0.5432  1.4074
 4035TIP3   OH212068   3.620   4.302   3.896  0.2593 -0.7146 -0.4039
 4035TIP3    H112069   3.699   4.248   3.887  0.3255 -0.6251 -0.3510
 4035TIP3    H212070   3.597   4.325   3.806  0.7341 -0.0977 -0.3737
 4036TIP3   OH212071   6.838   3.557   4.768 -0.3277  0.2152 -0.7326
 4036TIP3    H112072   6.802   3.568   4.680 -2.1103  0.6050 -0.0108
 4036TIP3    H212073   6.899   3.630   4.779 -0.4601  0.4451 -1.4814
 4037TIP3   OH212074   4.292   6.304   4.654  0.0513  0.3048 -0.0352
 4037TIP3    H112075   4.385   6.284   4.649 -0.0163 -0.5695  1.7025
 4037TIP3    H212076   4.249   6.220   4.667 -0.8818  0.8196  0.3300
 4038TIP3   OH212077   7.204   5.333   4.887  0.3124  0.5637 -0.5735
 4038TIP3    H112078   7.146   5.404   4.916  0.0791  0.1187  0.0755
 4038TIP3    H212079   7.145   5.263   4.860  0.4201 -0.9565  2.6453
 4039TIP3   OH212080   1.544   2.029   2.538 -0.0450 -0.0019  0.4869
 4039TIP3    H112081   1.516   1.951   2.492  0.0431  0.3651 -0.2014
 4039TIP3    H212082   1.539   2.006   2.631  1.1192 -1.2283  0.2790
 4040TIP3   OH212083   5.835   0.765   3.147  0.2116  0.2441 -0.4357
 4040TIP3    H112084   5.871   0.844   3.187 -0.9195 -0.1082  1.4468
 4040TIP3    H212085   5.747   0.790   3.120  0.9067  0.4224 -2.6846
 4041TIP3   OH212086   7.100   2.996   3.807 -0.1251  0.3088 -0.6185
 4041TIP3    H112087   7.007   2.978   3.791 -0.3572  1.5851 -0.8376
 4041TIP3    H212088   7.109   2.996   3.902 -0.8059  2.1922 -0.5202
 4042TIP3   OH212089   3.060   4.457   4.558  0.3141 -0.0287 -0.0833
 4042TIP3    H112090   3.138   4.477   4.609  0.4743 -1.1029  0.1032
 4042TIP3    H212091   3.015   4.389   4.608 -0.4742  0.2175 -0.4499
 4043TIP3   OH212092   0.079   2.672   4.979  0.6809 -0.0321  0.1824
 4043TIP3    H112093   0.131   2.737   4.931  0.1512 -0.9819 -1.7708
 4043TIP3    H212094   0.042   2.616   4.911 -0.0829 -1.4924  1.7366
 4044TIP3   OH212095   3.957   4.611   0.857 -0.4582 -0.7566 -0.9052
 4044TIP3    H112096   4.032   4.607   0.797 -0.2193 -0.5666 -0.6222
 4044TIP3    H212097   3.993   4.648   0.937 -0.9956 -0.0984 -0.9671
 4045TIP3   OH212098   3.428   5.012   3.698 -0.0116  0.7951 -0.0864
 4045TIP3    H112099   3.429   5.103   3.726 -0.4000  0.5372  0.8207
 4045TIP3    H212100   3.463   4.964   3.773 -1.2112  0.0616  0.0197
 4046TIP3   OH212101   3.968   4.724   1.549  0.5512  0.0443  0.1190
 4046TIP3    H112102   3.955   4.630   1.537  0.5914  0.3486 -3.9315
 4046TIP3    H212103   3.880   4.758   1.564 -0.1402 -0.3806 -2.3861
 4047TIP3   OH212104   6.896   4.392   2.570  1.1201  0.0310  0.1217
 4047TIP3    H112105   6.839   4.321   2.539  0.8290  0.2317  0.1899
 4047TIP3    H212106   6.845   4.435   2.639  1.5447 -0.0750  0.5008
 4048TIP3   OH212107   2.528   0.603   5.309  0.3266 -0.1299 -0.3053
 4048TIP3    H112108   2.499   0.562   5.391 -0.5718  0.6798 -0.1968
 4048TIP3    H212109   2.574   0.683   5.337 -0.7202  0.5949 -0.5936
 4049TIP3   OH212110   3.266   0.324   1.576 -0.1773 -0.2521 -0.7906
 4049TIP3    H112111   3.272   0.243   1.525  0.0367  0.1167 -1.3536
 4049TIP3    H212112   3.352   0.364   1.568 -0.8634  1.0041 -2.1441
 4050TIP3   OH212113   4.758   3.872   4.307  0.5058  0.3522 -0.4505
 4050TIP3    H112114   4.723   3.920   4.232  0.8429 -0.0232 -0.8551
 4050TIP3    H212115   4.794   3.792   4.269 -0.8867 -0.6656  0.3294
 4051TIP3   OH212116   0.470   4.375   0.603 -0.4907  0.0566  0.4336
 4051TIP3    H112117   0.392   4.344   0.557 -0.5991  1.3572 -0.3207
 4051TIP3    H212118   0.436   4.426   0.676 -0.4066  1.3353 -0.3767
 4052TIP3   OH212119   3.922   0.106   1.424 -0.1431 -0.2335  0.2772
 4052TIP3    H112120   3.869   0.124   1.346 -0.5147  2.0896  1.0053
 4052TIP3    H212121   3.975   0.184   1.436  2.0336 -1.6809  0.7646
 4053TIP3   OH212122   0.088   2.088   1.675  0.0794  0.3169 -0.2049
 4053TIP3    H112123   0.095   1.996   1.650  2.6408  0.2432  0.4852
 4053TIP3    H212124   0.104   2.089   1.769 -0.3772  1.4366 -0.1211
 4054TIP3   OH212125   1.038   5.966   0.616  0.2144  0.2596 -0.1840
 4054TIP3    H112126   1.040   6.058   0.642  0.9223 -0.4537  2.5921
 4054TIP3    H212127   0.958   5.932   0.656  0.5861 -0.5942 -0.1444
 4055TIP3   OH212128   0.281   1.207   0.113  0.1992  0.2399 -0.8692
 4055TIP3    H112129   0.212   1.256   0.157  0.0092  0.4667 -1.4157
 4055TIP3    H212130   0.246   1.191   0.025 -0.1562 -1.6956 -0.4215
 4056TIP3   OH212131   5.030   2.048   0.892  0.1468  0.0673 -0.8524
 4056TIP3    H112132   4.999   2.021   0.805 -0.1498 -3.8600  0.2892
 4056TIP3    H212133   4.950   2.066   0.941  0.0876 -1.3627 -0.3950
 4057TIP3   OH212134   0.110   1.338   0.282  0.4898 -0.3764  0.3909
 4057TIP3    H112135   0.060   1.263   0.313  0.9501 -0.6541  0.4641
 4057TIP3    H212136   0.044   1.395   0.242 -0.0358 -0.2422  1.4188
 4058TIP3   OH212137   5.989   1.198   5.189  0.0096 -0.4756  0.5789
 4058TIP3    H112138   5.967   1.242   5.271 -1.8263  2.0746 -1.0901
 4058TIP3    H212139   6.085   1.192   5.189  0.2135  1.5965  1.9613
 4059TIP3   OH212140   2.916   6.405   5.668  0.1167 -0.2244  0.3495
 4059TIP3    H112141   2.833   6.400   5.622 -0.1303 -0.6098  0.8269
 4059TIP3    H212142   2.956   6.319   5.656  0.2089 -0.2125  0.5625
 4060TIP3   OH212143   0.627   6.742   4.788  0.1540 -0.3934 -0.6132
 4060TIP3    H112144   0.558   6.677   4.776 -0.0801  0.0082 -1.5706
 4060TIP3    H212145   0.668   6.748   4.701  0.8105  0.0204 -0.2761
 4061TIP3   OH212146   5.397   1.472   5.731 -0.1138 -0.4690  0.0143
 4061TIP3    H112147   5.350   1.420   5.796 -1.0356 -0.8776 -0.9570
 4061TIP3    H212148   5.430   1.407   5.668  0.9635 -0.0990  0.1708
 4062TIP3   OH212149   0.392   5.730   2.445  0.7810 -0.5516 -0.0969
 4062TIP3    H112150   0.332   5.668   2.486  0.1713  0.4945  0.6283
 4062TIP3    H212151   0.477   5.687   2.448  0.4934 -1.0656  1.0279
 4063TIP3   OH212152   6.620   5.913   5.529  0.2634 -0.2743  0.0745
 4063TIP3    H112153   6.707   5.925   5.566  0.7488  1.9169 -1.5651
 4063TIP3    H212154   6.560   5.924   5.603  1.2771  1.0401  0.7324
 4064TIP3   OH212155   3.343   0.133   1.819 -0.4134  0.5025  0.0468
 4064TIP3    H112156   3.318   0.205   1.761 -2.1414 -0.7691 -0.8783
 4064TIP3    H212157   3.416   0.091   1.774 -0.9034  0.3117 -0.5905
 4065TIP3   OH212158   3.031   1.260   2.804 -0.0490 -0.1598 -0.4922
 4065TIP3    H112159   2.978   1.256   2.724  1.3328 -0.5040 -1.4331
 4065TIP3    H212160   3.057   1.352   2.811 -2.0490  0.3767  0.9000
 4066TIP3   OH212161   3.304   4.025   2.477  0.3669 -0.4289  0.4560
 4066TIP3    H112162   3.319   4.099   2.417  1.8669 -1.3521 -0.3422
 4066TIP3    H212163   3.357   4.046   2.554 -2.8054  1.5804  2.3431
 4067TIP3   OH212164   0.798   5.901   0.731  0.2148  0.2405 -0.4037
 4067TIP3    H112165   0.774   5.836   0.797  2.3418  1.1557  1.4016
 4067TIP3    H212166   0.777   5.985   0.771 -1.2818  0.7789 -2.1817
 4068TIP3   OH212167   5.431   4.761   4.851  0.4020 -1.0247 -0.4237
 4068TIP3    H112168   5.441   4.686   4.910  0.1399 -1.1714 -0.5655
 4068TIP3    H212169   5.514   4.809   4.859 -0.2576 -0.0964  1.3478
 4069TIP3   OH212170   1.042   1.330   1.088 -0.3705  0.0389  0.0699
 4069TIP3    H112171   0.947   1.331   1.073 -0.1359 -0.1187 -1.6192
 4069TIP3    H212172   1.066   1.423   1.092 -0.4033  0.1018 -0.9751
 4070TIP3   OH212173   4.613   0.277   0.980  0.1682  0.0607 -0.3124
 4070TIP3    H112174   4.519   0.264   0.971  0.1161  0.5030 -0.4108
 4070TIP3    H212175   4.637   0.337   0.910  0.6314 -0.5096 -0.6621
 4071TIP3   OH212176   3.285   5.769   0.950 -0.3159  0.0340  0.5483
 4071TIP3    H112177   3.250   5.687   0.985  0.8799  0.2221  2.2655
 4071TIP3    H212178   3.211   5.807   0.901 -1.5155 -1.0759  1.4323
 4072TIP3   OH212179   6.668   0.181   1.490  0.6446 -0.3166  0.2771
 4072TIP3    H112180   6.690   0.108   1.432  0.7883 -0.4206  0.4599
 4072TIP3    H212181   6.741   0.242   1.481 -0.4070  0.7583 -1.3995
 4073TIP3   OH212182   5.759   0.691   2.886 -0.2426 -0.0248 -0.4138
 4073TIP3    H112183   5.823   0.630   2.849  0.7311  0.6185  0.1653
 4073TIP3    H212184   5.785   0.699   2.978 -0.6109  0.9389 -0.3871
 4074TIP3   OH212185   0.229   4.296   0.428  0.9204 -0.0328  0.0628
 4074TIP3    H112186   0.143   4.323   0.394 -0.2794 -4.5812 -1.2042
 4074TIP3    H212187   0.281   4.280   0.349  1.2670 -1.7868  0.6075
 4075TIP3   OH212188   2.279   2.372   2.069 -0.0078  0.0946  0.1687
 4075TIP3    H112189   2.322   2.305   2.123  0.1258  0.6143  0.7122
 4075TIP3    H212190   2.243   2.323   1.995  0.6182 -0.4967  0.2418
 4076TIP3   OH212191   6.081   4.559   2.324 -0.3400 -0.9250 -0.2371
 4076TIP3    H112192   6.066   4.521   2.238 -2.2731  1.3610 -1.0334
 4076TIP3    H212193   6.168   4.600   2.318 -1.4123  1.3035 -2.0492
 4077TIP3   OH212194   0.253   5.673   0.635  0.9055 -0.1553  1.2573
 4077TIP3    H112195   0.201   5.750   0.653 -0.0235 -0.5650  0.4149
 4077TIP3    H212196   0.321   5.674   0.702  0.8530  1.3247  1.3246
 4078TIP3   OH212197   1.759   6.510   2.747 -0.0198 -0.3333 -0.5658
 4078TIP3    H112198   1.762   6.572   2.674 -0.1872 -0.2134 -0.4718
 4078TIP3    H212199   1.676   6.464   2.735  0.2085 -0.7001 -0.7660
 4079TIP3   OH212200   4.315   2.522   1.561 -0.0973 -0.2660  0.2004
 4079TIP3    H112201   4.317   2.488   1.651  0.5728 -0.1879  0.2172
 4079TIP3    H212202   4.223   2.545   1.547  0.1294  1.8876  1.6818
 4080TIP3   OH212203   7.158   6.244   0.410  0.4764  0.2480 -0.1988
 4080TIP3    H112204   7.068   6.215   0.393  0.2039  0.7771  0.2803
 4080TIP3    H212205   7.206   6.223   0.330  0.7555 -3.1698  0.7079
 4081TIP3   OH212206   5.138   6.300   5.437 -0.4801 -0.1848  0.5758
 4081TIP3    H112207   5.162   6.367   5.501  0.1854  0.8906 -0.7423
 4081TIP3    H212208   5.044   6.289   5.449 -0.5103  0.5969  1.1848
 4082TIP3   OH212209   3.094   6.070   2.137 -0.3745 -0.2171 -0.4680
 4082TIP3    H112210   3.110   6.012   2.063 -0.0501 -0.8153  0.0622
 4082TIP3    H212211   3.148   6.147   2.120 -0.6295 -0.1650 -1.0626
 4083TIP3   OH212212   0.780   0.558   5.107  0.2156 -0.1311  0.3955
 4083TIP3    H112213   0.838   0.521   5.173 -2.1280 -0.5280  2.3903
 4083TIP3    H212214   0.777   0.492   5.038  0.4911 -1.1015  1.2780
 4084TIP3   OH212215   0.209   3.508   4.864  0.2665  0.5168  0.5227
 4084TIP3    H112216   0.303   3.522   4.874  0.1382  0.2318  2.4324
 4084TIP3    H212217   0.195   3.417   4.887 -0.1581 -0.3263 -2.6097
 4085TIP3   OH212218   2.673   6.650   3.310  0.2408 -0.0309 -1.0043
 4085TIP3    H112219   2.744   6.616   3.364 -0.6024 -0.3695 -0.0685
 4085TIP3    H212220   2.598   6.657   3.370 -1.1364 -1.7691 -2.4070
 4086TIP3   OH212221   2.936   3.643   4.441 -0.2309 -0.0143 -0.3266
 4086TIP3    H112222   2.864   3.665   4.382  0.4126  2.6369 -0.2780
 4086TIP3    H212223   2.895   3.630   4.526 -0.7907  0.1522 -0.5672
 4087TIP3   OH212224   0.081   2.069   3.579 -0.1252 -0.2717  0.3822
 4087TIP3    H112225   0.051   1.978   3.572  1.4780 -1.0059  2.4116
 4087TIP3    H212226   0.041   2.101   3.660  1.2984  0.0174  0.9868
 4088TIP3   OH212227   3.009   5.079   3.115  0.4546  0.2176  0.0166
 4088TIP3    H112228   2.995   5.150   3.052 -0.6434 -0.2129 -0.2446
 4088TIP3    H212229   2.973   5.112   3.197 -1.1141 -0.4384 -0.3730
 4089TIP3   OH212230   7.081   1.569   1.943  0.3712 -0.5139 -0.3461
 4089TIP3    H112231   7.175   1.552   1.950  0.4112 -0.4321 -0.6434
 4089TIP3    H212232   7.066   1.647   1.997  0.5764 -0.1892 -0.7556
 4090TIP3   OH212233   0.540   1.002   5.169 -0.0056  0.3741 -0.3032
 4090TIP3    H112234   0.613   1.057   5.200 -0.8527  0.8235  0.9831
 4090TIP3    H212235   0.552   0.919   5.216 -0.7176  0.7045  0.4886
 4091TIP3   OH212236   1.083   3.059   3.501 -0.7527  0.0338 -0.0195
 4091TIP3    H112237   1.019   3.129   3.516 -0.5584  0.1628  0.1982
 4091TIP3    H212238   1.083   3.009   3.582  0.1057  0.5789  0.3229
 4092TIP3   OH212239   0.013   4.395   2.686 -0.0411  0.6812  0.1875
 4092TIP3    H112240  -0.041   4.317   2.695  0.8302 -0.0026 -0.3735
 4092TIP3    H212241   0.083   4.383   2.750  0.2552  0.8738 -0.0993
 4093TIP3   OH212242   2.676   5.910   2.611 -0.1067  0.0631  0.4057
 4093TIP3    H112243   2.629   5.987   2.580 -0.3392  0.1792  1.0405
 4093TIP3    H212244   2.611   5.860   2.660 -0.0979 -0.8009 -0.4299
 4094TIP3   OH212245   4.356   5.979   5.441  0.2820 -0.4560 -0.8292
 4094TIP3    H112246   4.273   6.012   5.477 -0.1527 -0.1788 -2.0544
 4094TIP3    H212247   4.423   6.026   5.491 -0.2963 -0.4884 -0.0018
 4095TIP3   OH212248   6.197   2.581   2.917 -0.7305 -0.1610 -0.3109
 4095TIP3    H112249   6.243   2.665   2.929 -1.4047  0.1856 -0.0810
 4095TIP3    H212250   6.165   2.559   3.005 -3.7667  1.2546 -0.9234
 4096TIP3   OH212251   5.023   1.483   5.539 -0.1397 -0.0660 -1.1929
 4096TIP3    H112252   5.104   1.530   5.516 -0.8738  1.5711 -0.6113
 4096TIP3    H212253   5.053   1.402   5.580  1.2277  0.6762 -0.6515
 4097TIP3   OH212254   4.239   1.765   3.829  0.0849 -0.2112 -0.0809
 4097TIP3    H112255   4.320   1.736   3.788 -1.0738 -2.0369 -1.2089
 4097TIP3    H212256   4.193   1.814   3.759  0.2943  1.0410  0.6266
 4098TIP3   OH212257   5.722   6.683   2.641 -0.0188  0.2126  0.1092
 4098TIP3    H112258   5.696   6.709   2.729  2.3070  0.9121  0.6521
 4098TIP3    H212259   5.654   6.621   2.613 -1.1192  0.4321  2.1363
 4099TIP3   OH212260   4.196   0.567   1.091  0.1404  0.5555  0.1201
 4099TIP3    H112261   4.104   0.547   1.111  0.5789  0.1560  2.0050
 4099TIP3    H212262   4.224   0.495   1.034 -0.2437 -0.3841  1.0644
 4100TIP3   OH212263   5.276   0.325   4.828 -0.5720 -0.4248 -0.1771
 4100TIP3    H112264   5.267   0.319   4.733  0.8319  0.4055 -0.3886
 4100TIP3    H212265   5.351   0.269   4.849 -0.0792  0.3838  0.2789
 4101TIP3   OH212266   5.173   2.510   3.238  0.2761  0.3313 -0.8104
 4101TIP3    H112267   5.251   2.479   3.192  0.6319  0.3579 -0.2413
 4101TIP3    H212268   5.173   2.605   3.224 -0.4355  0.1647 -1.9819
 4102TIP3   OH212269   6.880   0.972   5.043  0.6684  0.5362  0.9540
 4102TIP3    H112270   6.934   1.040   5.083  3.1760 -0.8255  0.0769
 4102TIP3    H212271   6.871   0.999   4.952  0.2749  0.4986  0.9789
 4103TIP3   OH212272   5.956   4.186   1.993  0.1690 -0.4198  0.3402
 4103TIP3    H112273   5.982   4.228   1.911  0.4610  1.2341  1.2332
 4103TIP3    H212274   6.023   4.119   2.008 -0.1577 -1.0735 -0.9937
 4104TIP3   OH212275   1.851   5.753   1.728  0.3324 -0.0625  0.1148
 4104TIP3    H112276   1.899   5.692   1.671  0.4839  0.0470  0.1246
 4104TIP3    H212277   1.882   5.839   1.702  0.6676 -0.0314  0.6078
 4105TIP3   OH212278   2.648   0.808   5.035  1.3271  0.4029 -0.6876
 4105TIP3    H112279   2.676   0.813   4.943 -0.7914  2.2283 -1.3215
 4105TIP3    H212280   2.689   0.884   5.076  1.5321  0.1015 -0.3305
 4106TIP3   OH212281   3.724   1.008   5.257  0.5229 -0.2290 -0.0591
 4106TIP3    H112282   3.655   1.061   5.296  0.2127  1.8256 -3.0387
 4106TIP3    H212283   3.805   1.057   5.276  0.5210  0.0648 -0.7583
 4107TIP3   OH212284   3.798   5.135   1.119  0.1520 -0.6588 -0.4972
 4107TIP3    H112285   3.836   5.222   1.119  1.1657 -1.0828 -0.3450
 4107TIP3    H212286   3.845   5.089   1.190 -1.4494 -0.8708  0.4671
 4108TIP3   OH212287   5.427   2.617   3.296 -0.3552 -0.2879  0.5015
 4108TIP3    H112288   5.418   2.587   3.205  0.3534 -1.4593  0.7994
 4108TIP3    H212289   5.443   2.537   3.346 -0.9852  0.3178  1.7064
 4109TIP3   OH212290   5.307   2.961   3.897 -0.1285 -0.0915 -0.3455
 4109TIP3    H112291   5.286   3.006   3.979 -2.3140  0.5835 -1.1937
 4109TIP3    H212292   5.402   2.952   3.898  0.3378  3.3098  0.5740
 4110TIP3   OH212293   1.710   6.565   2.205  0.0721  0.4669 -0.2420
 4110TIP3    H112294   1.710   6.656   2.175  0.2138  0.7784  0.6558
 4110TIP3    H212295   1.798   6.551   2.238  0.3136 -0.2839 -1.1636
 4111TIP3   OH212296   3.437   2.635   2.696 -0.6444  0.6547 -0.3094
 4111TIP3    H112297   3.426   2.593   2.611 -1.4621  1.9170 -0.8371
 4111TIP3    H212298   3.468   2.564   2.753  0.0279 -0.1766 -1.6649
 4112TIP3   OH212299   1.536   1.839   3.464 -0.2801  0.7785 -0.1827
 4112TIP3    H112300   1.563   1.748   3.472  1.2385  1.3047  1.1473
 4112TIP3    H212301   1.458   1.836   3.409  0.6602 -1.1475 -1.5113
 4113TIP3   OH212302   2.793   1.567   3.105 -0.3116 -0.0731  0.3798
 4113TIP3    H112303   2.842   1.548   3.024  0.0656  1.4193  0.2307
 4113TIP3    H212304   2.746   1.486   3.123 -1.9144  0.1114 -2.3824
 4114TIP3   OH212305   3.181   5.140   2.602 -0.0784  0.1571  0.5732
 4114TIP3    H112306   3.119   5.067   2.596 -0.0433  0.0853  1.0056
 4114TIP3    H212307   3.131   5.209   2.648 -0.1200  0.4132  0.1466
 4115TIP3   OH212308   6.643   1.685   0.947  0.0722  0.1418 -0.0685
 4115TIP3    H112309   6.706   1.709   0.880  0.1954 -0.5287 -0.2043
 4115TIP3    H212310   6.691   1.625   1.004  0.5162  2.0247  1.6386
 4116TIP3   OH212311   3.369   6.352   1.223 -0.1318 -0.3741  0.2333
 4116TIP3    H112312   3.440   6.298   1.187 -0.7262 -1.1301  0.1630
 4116TIP3    H212313   3.385   6.439   1.187  0.6942 -0.5611  0.1232
 4117TIP3   OH212314   2.083   3.583   1.064 -0.7509  0.0814  0.2535
 4117TIP3    H112315   2.055   3.646   1.131 -0.3675  1.0047 -0.4246
 4117TIP3    H212316   2.124   3.512   1.113  0.1800  1.0786  0.9725
 4118TIP3   OH212317   2.158   2.165   0.573  0.0198 -0.4489 -0.2630
 4118TIP3    H112318   2.137   2.076   0.601  0.0395 -0.3357  0.1215
 4118TIP3    H212319   2.076   2.214   0.583 -0.2165 -0.6188 -1.2935
 4119TIP3   OH212320   3.847   4.319   2.984  0.0265  0.2076  0.2036
 4119TIP3    H112321   3.780   4.354   3.043  0.7623  1.4235  0.3501
 4119TIP3    H212322   3.839   4.371   2.905 -1.6850 -2.1328 -1.2882
 4120TIP3   OH212323   5.698   2.671   0.424  0.1949 -0.5263 -0.6272
 4120TIP3    H112324   5.780   2.683   0.471  1.3646  0.4204 -2.7793
 4120TIP3    H212325   5.723   2.634   0.340 -1.7359 -1.4517 -0.8508
 4121TIP3   OH212326   5.640   6.192   4.269 -0.3613  0.3611  0.4335
 4121TIP3    H112327   5.567   6.168   4.212 -1.7323  0.5786  2.0094
 4121TIP3    H212328   5.598   6.225   4.349  1.4711  0.4458  1.4183
 4122TIP3   OH212329   1.829   6.619   0.795  0.1674  0.1473 -0.3429
 4122TIP3    H112330   1.885   6.544   0.815 -0.2381  0.3285  1.6230
 4122TIP3    H212331   1.757   6.582   0.743  1.0972 -0.4161 -1.2585
 4123TIP3   OH212332   1.616   4.185   4.708  0.1327 -0.0932  0.0599
 4123TIP3    H112333   1.661   4.254   4.758  0.4180 -0.0685 -0.2310
 4123TIP3    H212334   1.572   4.231   4.637 -1.4284  0.0463  1.0710
 4124TIP3   OH212335   0.888   4.240   3.487 -0.1928 -0.1102  0.1660
 4124TIP3    H112336   0.809   4.200   3.522 -0.3609 -1.0025 -1.1480
 4124TIP3    H212337   0.955   4.172   3.493 -0.1347 -0.1647 -0.8445
 4125TIP3   OH212338   1.699   4.546   5.091 -0.3149 -0.1382 -0.1441
 4125TIP3    H112339   1.719   4.525   5.182 -3.5918  0.2972  0.7989
 4125TIP3    H212340   1.629   4.611   5.096  2.3183  3.3273 -3.0206
 4126TIP3   OH212341   7.027   2.416   2.378 -0.2943 -0.0670  0.3686
 4126TIP3    H112342   7.073   2.478   2.435 -0.7146  0.2263  0.3951
 4126TIP3    H212343   6.957   2.381   2.433 -0.4939 -0.0350  0.1364
 4127TIP3   OH212344   1.111   1.954   2.086 -0.4100 -0.2842 -0.6384
 4127TIP3    H112345   1.023   1.939   2.122 -0.5899 -0.2621 -1.0592
 4127TIP3    H212346   1.153   1.868   2.087 -0.1373 -0.1561  0.3242
 4128TIP3   OH212347   6.604   4.258   0.364 -0.3588  0.2669 -0.0306
 4128TIP3    H112348   6.672   4.195   0.388 -0.9432 -0.4159 -0.1539
 4128TIP3    H212349   6.560   4.277   0.447 -0.7228 -0.1321 -0.1303
 4129TIP3   OH212350   4.256   2.279   2.548  0.1766 -0.3665 -0.1077
 4129TIP3    H112351   4.167   2.312   2.536 -0.1326 -1.9445 -3.2043
 4129TIP3    H212352   4.247   2.213   2.617 -0.5021  1.1884  1.3570
 4130TIP3   OH212353   7.047   0.293   4.673  0.2649  0.4424 -0.4795
 4130TIP3    H112354   7.103   0.293   4.750 -0.6445  0.4383  0.2070
 4130TIP3    H212355   7.106   0.312   4.600  1.8573 -3.2824 -0.3743
 4131TIP3   OH212356   0.588   0.901   1.018  0.2077  0.0775  0.6542
 4131TIP3    H112357   0.675   0.873   1.047  0.7570 -0.5542 -1.3943
 4131TIP3    H212358   0.577   0.989   1.054  0.9292 -0.4982  2.3957
 4132TIP3   OH212359   2.415   3.154   0.914  0.6708 -0.0575  0.3931
 4132TIP3    H112360   2.428   3.246   0.936 -0.9802  0.0608  1.0141
 4132TIP3    H212361   2.484   3.135   0.850  0.4231  1.8851 -0.5388
 4133TIP3   OH212362   4.087   0.816   0.834 -0.5661 -0.2610 -0.5115
 4133TIP3    H112363   4.081   0.838   0.927  0.1343 -0.6697 -0.3613
 4133TIP3    H212364   4.176   0.844   0.809 -1.5268  2.0399 -1.6576
 4134TIP3   OH212365   0.580   1.942   3.415  0.1539 -0.1046 -0.2537
 4134TIP3    H112366   0.593   1.973   3.325 -0.5053  0.8117 -0.0529
 4134TIP3    H212367   0.486   1.928   3.422  0.2125 -0.2333  0.2748
 4135TIP3   OH212368   5.394   4.186   0.818  0.0832  0.2327 -0.3926
 4135TIP3    H112369   5.393   4.090   0.822 -0.8309  0.2783  1.6393
 4135TIP3    H212370   5.308   4.209   0.781 -0.4212  0.2727  0.7572
 4136TIP3   OH212371   4.970   0.396   2.304  0.2964 -0.3260  0.0058
 4136TIP3    H112372   4.976   0.466   2.239 -0.2397 -1.4817 -1.3717
 4136TIP3    H212373   5.035   0.332   2.276 -0.3824 -1.1308  0.2297
 4137TIP3   OH212374   1.848   3.361   3.693  0.0458 -0.5012 -0.0074
 4137TIP3    H112375   1.805   3.396   3.615  0.7828  0.3573 -0.0539
 4137TIP3    H212376   1.914   3.301   3.660  0.4537 -0.0302 -0.0660
 4138TIP3   OH212377   3.398   4.167   0.857  0.3345  0.0922 -0.2149
 4138TIP3    H112378   3.334   4.230   0.889  1.0046 -0.3532  2.2254
 4138TIP3    H212379   3.483   4.207   0.877  0.7807 -0.6332 -0.6178
 4139TIP3   OH212380   2.562   4.909   5.812  0.4033  0.1040  0.2259
 4139TIP3    H112381   2.570   4.969   5.737 -0.7785 -2.1137 -1.7930
 4139TIP3    H212382   2.631   4.937   5.872  0.4549  2.9070 -0.9912
 4140TIP3   OH212383   1.764   5.713   4.724 -0.0491 -0.0985 -0.3532
 4140TIP3    H112384   1.733   5.660   4.651 -1.6039 -0.1684  0.3320
 4140TIP3    H212385   1.817   5.782   4.683  0.2139 -0.9045 -1.4142
 4141TIP3   OH212386   0.482   5.155   4.018  0.2978  0.0521  0.2627
 4141TIP3    H112387   0.528   5.137   4.100  0.7712  0.2967  0.0527
 4141TIP3    H212388   0.530   5.227   3.978  0.0829 -0.0783 -0.2423
 4142TIP3   OH212389   3.770   4.004   1.913  0.0943  0.1381  0.5312
 4142TIP3    H112390   3.711   3.960   1.975 -0.3781  1.2189  0.8791
 4142TIP3    H212391   3.727   3.993   1.828  0.5002 -0.9307  0.4412
 4143TIP3   OH212392   6.875   0.130   4.519 -0.5235  0.3139  0.1651
 4143TIP3    H112393   6.916   0.190   4.581  0.0287  0.5687 -0.4369
 4143TIP3    H212394   6.914   0.152   4.435 -0.1098 -1.0874 -0.0294
 4144TIP3   OH212395   5.454   0.980   1.520 -0.2639  0.2951  0.0898
 4144TIP3    H112396   5.441   0.900   1.572  0.7190  0.7035  0.9996
 4144TIP3    H212397   5.548   0.982   1.504 -0.4018  0.8228 -0.6887
 4145TIP3   OH212398   2.137   1.895   0.884 -0.0011 -0.1223  0.1162
 4145TIP3    H112399   2.125   1.848   0.801 -1.1308  0.8410 -0.3060
 4145TIP3    H212400   2.048   1.911   0.915  0.4057  0.0347  1.2308
 4146TIP3   OH212401   0.766   6.211   0.120  0.3387  0.7285 -0.4237
 4146TIP3    H112402   0.737   6.289   0.166  0.4123  0.0097  0.9113
 4146TIP3    H212403   0.702   6.198   0.050 -0.4606  1.2086  0.2030
 4147TIP3   OH212404   4.549   3.605   3.787  0.6552 -0.5433  0.1055
 4147TIP3    H112405   4.596   3.654   3.855  0.1183 -0.8835  0.7353
 4147TIP3    H212406   4.456   3.622   3.805  0.4830  1.6660 -2.2652
 4148TIP3   OH212407   6.205   0.476   0.210  0.2240 -0.0376 -0.4399
 4148TIP3    H112408   6.218   0.383   0.224  0.8449 -0.0185 -0.8408
 4148TIP3    H212409   6.203   0.514   0.298 -0.4379 -0.4700 -0.2588
 4149TIP3   OH212410   5.357   5.642   1.748 -0.2619  0.3137  0.1472
 4149TIP3    H112411   5.358   5.732   1.715 -0.0122  1.0632  2.0274
 4149TIP3    H212412   5.357   5.653   1.843  0.1117 -1.6951  0.4039
 4150TIP3   OH212413   7.119   2.077   2.740  0.4077  0.5054  0.1045
 4150TIP3    H112414   7.104   2.066   2.647  2.2199  2.5859 -0.5457
 4150TIP3    H212415   7.148   1.991   2.771  0.9365  0.0747 -1.5149
 4151TIP3   OH212416   6.085   4.436   2.093 -0.4772  0.1106 -0.6412
 4151TIP3    H112417   6.168   4.387   2.093  0.6236  1.8794 -0.9538
 4151TIP3    H212418   6.020   4.374   2.060  1.0112 -0.8988 -1.8007
 4152TIP3   OH212419   6.471   3.977   5.096 -0.4824 -0.6179  0.3850
 4152TIP3    H112420   6.547   3.955   5.042  0.4068 -0.6636  1.6230
 4152TIP3    H212421   6.431   4.051   5.051  0.3926 -0.4801 -0.1960
 4153TIP3   OH212422   2.734   1.668   3.372 -0.3596  0.1963 -0.2119
 4153TIP3    H112423   2.729   1.759   3.345 -0.4975  0.8759  1.9142
 4153TIP3    H212424   2.736   1.618   3.290 -0.4546  2.0785 -1.4085
 4154TIP3   OH212425   1.481   1.436   1.544  0.2277 -0.0721 -0.7703
 4154TIP3    H112426   1.519   1.461   1.460  1.6228  0.9492  0.1119
 4154TIP3    H212427   1.531   1.359   1.571  2.2337  1.6499  0.6910
 4155TIP3   OH212428   3.068   1.982   0.884  0.1276 -0.3955 -0.1767
 4155TIP3    H112429   3.157   1.983   0.848  0.3064  0.1482  0.2565
 4155TIP3    H212430   3.058   2.069   0.923 -1.0007 -0.0448 -1.1876
 4156TIP3   OH212431   0.066   5.351   1.150  0.4650  0.8228 -0.0477
 4156TIP3    H112432   0.145   5.350   1.096 -0.8497  1.5807 -2.1150
 4156TIP3    H212433   0.098   5.367   1.239  2.6902  0.0668 -0.6383
 4157TIP3   OH212434   2.001   4.161   1.715 -0.4535 -0.0137  0.4635
 4157TIP3    H112435   1.954   4.150   1.798  0.8251  0.3084  1.2559
 4157TIP3    H212436   2.006   4.073   1.678  0.7297 -0.5201  1.7337
 4158TIP3   OH212437   4.180   3.231   1.926  0.1622  0.1396  0.6311
 4158TIP3    H112438   4.172   3.138   1.944  1.5217 -0.3092 -0.7743
 4158TIP3    H212439   4.226   3.267   2.002 -2.0821  0.0939  2.0911
 4159TIP3   OH212440   3.256   2.151   1.156  0.3952 -0.0236 -0.4736
 4159TIP3    H112441   3.219   2.169   1.069  1.8550  1.2485 -0.8792
 4159TIP3    H212442   3.340   2.197   1.156  0.0985  0.6515  1.8831
 4160TIP3   OH212443   0.703   1.421   5.822 -0.5398 -0.1115 -0.0136
 4160TIP3    H112444   0.629   1.476   5.849 -1.6094 -1.0676 -0.8745
 4160TIP3    H212445   0.686   1.336   5.863  0.4691 -0.1536  0.3474
 4161TIP3   OH212446   5.989   6.047   3.841  0.6832  0.4135 -0.4539
 4161TIP3    H112447   6.033   6.058   3.926  0.9084  1.3517 -0.6764
 4161TIP3    H212448   5.985   6.136   3.805 -0.4145  0.1789 -0.9360
 4162TIP3   OH212449   4.826   2.912   1.915  0.9449 -0.7401  0.1827
 4162TIP3    H112450   4.798   2.998   1.884  2.1499 -0.0619  0.9086
 4162TIP3    H212451   4.747   2.872   1.950  0.5610  0.5015  0.7838
 4163TIP3   OH212452   1.478   0.429   2.948  0.6021  0.0284 -0.5467
 4163TIP3    H112453   1.531   0.369   3.001  0.6033  0.3085 -0.2281
 4163TIP3    H212454   1.469   0.384   2.863  2.0479  0.3301 -0.8891
 4164TIP3   OH212455   5.608   3.393   1.450 -0.2516  0.5073  0.3931
 4164TIP3    H112456   5.639   3.482   1.467  1.5391  0.6838 -2.9073
 4164TIP3    H212457   5.679   3.352   1.400 -1.4699 -2.4578  0.8587
 4165TIP3   OH212458   4.483   3.995   3.389 -0.2641  0.1772 -0.0923
 4165TIP3    H112459   4.428   3.957   3.321 -0.6952  0.4785  0.0773
 4165TIP3    H212460   4.442   4.080   3.409  0.3830  0.5046 -0.1070
 4166TIP3   OH212461   2.438   1.431   2.969 -0.3520 -0.1116  0.0929
 4166TIP3    H112462   2.510   1.410   3.028 -1.3098  0.1748  1.4120
 4166TIP3    H212463   2.376   1.359   2.979  0.0116 -0.6947 -1.5285
 4167TIP3   OH212464   3.489   0.934   1.951  0.5909 -0.1029 -0.3444
 4167TIP3    H112465   3.529   0.943   2.038  0.5930 -0.9355 -0.2493
 4167TIP3    H212466   3.398   0.960   1.964  0.3919 -0.9894  0.0956
 4168TIP3   OH212467   6.358   3.221   0.321 -0.1304 -0.5133  0.7794
 4168TIP3    H112468   6.446   3.194   0.347 -0.1655  0.4551  1.9765
 4168TIP3    H212469   6.316   3.249   0.402 -1.9994 -2.1219  0.4493
 4169TIP3   OH212470   0.622   3.936   2.773  0.2919  0.2292  0.3417
 4169TIP3    H112471   0.646   3.868   2.836  0.1461  1.1554  1.4415
 4169TIP3    H212472   0.705   3.977   2.749  0.3294 -0.0118  0.0491
 4170TIP3   OH212473   5.510   1.963   3.801 -0.7504  0.2313 -0.3209
 4170TIP3    H112474   5.582   2.027   3.797  1.7572 -2.3803 -0.6041
 4170TIP3    H212475   5.486   1.949   3.710  1.8779 -2.3675 -0.7477
 4171TIP3   OH212476   4.136   0.608   4.563  0.4019  0.4128  0.0672
 4171TIP3    H112477   4.107   0.687   4.608 -1.3677  0.2624 -0.7134
 4171TIP3    H212478   4.205   0.573   4.618  1.2695  2.5107  0.4176
 4172TIP3   OH212479   6.613   5.966   3.451 -0.5010 -0.0161  0.5290
 4172TIP3    H112480   6.545   6.035   3.453 -1.1124 -0.6193  0.9489
 4172TIP3    H212481   6.694   6.014   3.434 -1.0818  0.6847 -0.3760
 4173TIP3   OH212482   0.125   2.328   0.968  0.0554 -0.0436  0.3237
 4173TIP3    H112483   0.166   2.413   0.954 -0.5144  0.2007  0.0935
 4173TIP3    H212484   0.036   2.349   0.996 -0.0457 -0.5659  0.4111
 4174TIP3   OH212485   0.900   5.364   4.931  0.4895  0.2923  0.2895
 4174TIP3    H112486   0.936   5.403   5.010 -0.1370 -1.1416  1.3335
 4174TIP3    H212487   0.862   5.437   4.883  1.0461  1.2184  1.2181
 4175TIP3   OH212488   0.083   0.725   3.653 -0.0797 -0.4399 -0.0600
 4175TIP3    H112489   0.031   0.700   3.577 -0.3054  0.8347 -0.3524
 4175TIP3    H212490   0.087   0.646   3.707 -2.2336 -0.6233 -0.0755
 4176TIP3   OH212491   6.733   0.977   5.637 -0.9638  0.0006 -0.4668
 4176TIP3    H112492   6.668   0.979   5.707  1.3804 -2.5697  2.0672
 4176TIP3    H212493   6.705   0.904   5.581 -0.5761 -0.7801  0.3338
 4177TIP3   OH212494   3.820   1.194   4.103 -0.2174  0.1777  0.9581
 4177TIP3    H112495   3.837   1.158   4.189  1.2748  1.2466  1.1534
 4177TIP3    H212496   3.771   1.275   4.120 -0.5913 -0.0052  0.7552
 4178TIP3   OH212497   5.075   6.131   2.641  0.1907 -0.0561 -0.2438
 4178TIP3    H112498   5.092   6.077   2.718  0.4864  0.9411  0.4094
 4178TIP3    H212499   5.022   6.075   2.585 -2.4566  0.1263  1.8878
 4179TIP3   OH212500   6.903   1.522   1.317  0.2607 -0.3699 -0.0225
 4179TIP3    H112501   6.908   1.614   1.345  2.5063 -0.3761 -0.2221
 4179TIP3    H212502   6.990   1.503   1.281 -0.0735 -2.6464  0.2191
 4180TIP3   OH212503   3.956   5.741   0.598 -0.3968  0.2977  0.0307
 4180TIP3    H112504   3.921   5.653   0.612 -0.6644  0.4054  0.0498
 4180TIP3    H212505   3.938   5.758   0.505 -0.7939  0.5254  0.1469
 4181TIP3   OH212506   6.589   4.729   0.793 -0.0416 -0.3689 -0.5096
 4181TIP3    H112507   6.547   4.804   0.750 -1.0051  1.1550  2.7615
 4181TIP3    H212508   6.682   4.738   0.770 -0.3430  0.9904 -1.3320
 4182TIP3   OH212509   2.798   0.930   0.415  0.3159  0.4361  0.0230
 4182TIP3    H112510   2.809   0.931   0.510 -1.0657 -0.6305  0.2242
 4182TIP3    H212511   2.845   0.851   0.386 -0.1860  0.1522 -0.0339
 4183TIP3   OH212512   4.304   1.974   4.991  0.8420 -0.0389  0.1121
 4183TIP3    H112513   4.219   1.930   4.995  1.1527 -0.8851 -1.4576
 4183TIP3    H212514   4.362   1.920   5.045  1.0821 -1.3045 -1.3384
 4184TIP3   OH212515   0.277   3.841   1.259  0.1347  0.1212 -1.0099
 4184TIP3    H112516   0.272   3.777   1.189  0.0421 -1.7296  0.5879
 4184TIP3    H212517   0.205   3.818   1.318 -0.1492  1.9687 -0.5632
 4185TIP3   OH212518   5.986   0.355   5.617  0.7611  0.1292  0.6498
 4185TIP3    H112519   6.073   0.376   5.583  0.7303  0.6015  0.8597
 4185TIP3    H212520   5.997   0.351   5.712  0.6845 -0.4295  0.6387
 4186TIP3   OH212521   2.752   6.554   4.999 -0.2482 -0.0231  0.2979
 4186TIP3    H112522   2.684   6.599   4.949  1.1835  0.1429 -1.5977
 4186TIP3    H212523   2.805   6.624   5.036  0.7233 -0.1033 -0.8785
 4187TIP3   OH212524   6.863   6.007   0.030 -0.0817  0.0135  0.0470
 4187TIP3    H112525   6.838   5.921   0.064 -1.1470  0.0782 -0.5335
 4187TIP3    H212526   6.930   5.988  -0.036 -1.5758 -0.5652 -1.3738
 4188TIP3   OH212527   6.307   3.748   4.834 -0.1384 -0.0107 -0.0485
 4188TIP3    H112528   6.243   3.778   4.770 -1.3790 -1.3814  0.4914
 4188TIP3    H212529   6.350   3.673   4.793  1.0013  0.7714 -0.3247
 4189TIP3   OH212530   2.750   4.849   4.704  0.1214  0.0791  0.0005
 4189TIP3    H112531   2.740   4.944   4.699 -4.5433 -0.1580  0.9379
 4189TIP3    H212532   2.777   4.823   4.616  0.7674  2.1345 -0.4707
 4190TIP3   OH212533   0.595   2.608   5.082 -0.4430  0.2828 -0.1112
 4190TIP3    H112534   0.641   2.581   5.162 -0.1707  3.5968  1.0084
 4190TIP3    H212535   0.504   2.617   5.109 -0.6634 -0.2233 -0.6652
 4191TIP3   OH212536   3.195   5.752   5.192  0.2330 -0.0685 -0.1318
 4191TIP3    H112537   3.107   5.788   5.203 -0.8061 -2.1312 -1.0325
 4191TIP3    H212538   3.187   5.661   5.221  1.8466 -0.5443 -1.0679
 4192TIP3   OH212539   3.471   4.653   4.269 -0.0944 -0.1506 -0.2343
 4192TIP3    H112540   3.501   4.642   4.179 -0.5103 -0.1323 -0.3757
 4192TIP3    H212541   3.481   4.746   4.288 -0.5608 -0.0571 -0.4567
 4193TIP3   OH212542   1.276   5.692   5.882 -0.3645  0.2226  0.4171
 4193TIP3    H112543   1.251   5.600   5.875  0.2511 -0.0418  1.4964
 4193TIP3    H212544   1.256   5.729   5.795 -0.0037 -1.0651 -0.2399
 4194TIP3   OH212545   1.201   5.726   1.736  0.0064  0.5390 -0.4912
 4194TIP3    H112546   1.257   5.798   1.766 -0.5081  0.3392  1.0168
 4194TIP3    H212547   1.112   5.762   1.739 -0.2635 -0.1548  0.3405
 4195TIP3   OH212548   0.560   1.436   0.238  0.3600  0.3612  0.2346
 4195TIP3    H112549   0.492   1.450   0.171 -0.4627  1.4395  1.2598
 4195TIP3    H212550   0.512   1.401   0.313  1.1019  0.2239  0.6494
 4196TIP3   OH212551   1.007   3.645   3.459  0.0218 -0.3833 -0.0294
 4196TIP3    H112552   0.924   3.618   3.419  0.0045  0.3048 -0.4715
 4196TIP3    H212553   0.986   3.662   3.550 -0.3509 -0.0865 -0.1691
 4197TIP3   OH212554   3.068   5.254   1.925 -0.2757 -0.2338 -0.6126
 4197TIP3    H112555   3.052   5.346   1.904 -0.2677 -0.1111 -0.0960
 4197TIP3    H212556   3.103   5.256   2.014 -1.6339 -0.8273 -0.0318
 4198TIP3   OH212557   6.713   4.307   1.736  0.1065 -0.2972 -0.1871
 4198TIP3    H112558   6.768   4.239   1.699  1.1899  0.0734  0.6765
 4198TIP3    H212559   6.714   4.378   1.672  1.2347 -0.0155  0.1266
 4199TIP3   OH212560   0.622   6.090   1.973 -0.1781  0.0691 -0.4392
 4199TIP3    H112561   0.580   6.080   1.888 -3.3203 -0.8517  1.0297
 4199TIP3    H212562   0.639   6.001   2.002 -1.3926  0.1965  0.8073
 4200TIP3   OH212563   6.093   6.644   3.653 -0.0891 -0.2306 -0.2913
 4200TIP3    H112564   6.165   6.602   3.605  0.5019 -1.8404  1.8400
 4200TIP3    H212565   6.014   6.611   3.611  0.4006 -0.2087 -1.2581
 4201TIP3   OH212566   5.591   0.907   4.900  0.6718  0.3754 -0.0046
 4201TIP3    H112567   5.610   0.867   4.815  0.9743 -0.3901  0.4138
 4201TIP3    H212568   5.509   0.865   4.928  0.2007  1.1244 -0.2163
 4202TIP3   OH212569   4.419   6.476   3.299 -0.7105  1.0394 -0.3881
 4202TIP3    H112570   4.395   6.554   3.350 -0.6372 -0.7986  2.6996
 4202TIP3    H212571   4.336   6.430   3.287 -0.4268  0.4613 -0.1421
 4203TIP3   OH212572   1.122   3.590   4.416  0.3364  0.4787 -0.1394
 4203TIP3    H112573   1.152   3.511   4.460  2.4110 -0.6159 -3.1659
 4203TIP3    H212574   1.028   3.595   4.436  0.2021 -2.5768  0.4542
 4204TIP3   OH212575   5.914   5.043   2.705  0.5039 -0.8304 -0.0285
 4204TIP3    H112576   5.999   5.081   2.683 -0.1742  0.7633 -0.0408
 4204TIP3    H212577   5.865   5.042   2.623 -0.8108  1.9114  0.5965
 4205TIP3   OH212578   6.754   3.147   1.707 -0.9040  0.1552 -0.3421
 4205TIP3    H112579   6.765   3.054   1.687  1.9932  0.5661 -1.1024
 4205TIP3    H212580   6.686   3.149   1.774 -0.8362 -2.5313 -0.0794
 4206TIP3   OH212581   6.817   0.599   3.361 -0.3073 -0.0984  0.5628
 4206TIP3    H112582   6.813   0.595   3.457  0.1996 -0.8249  0.5641
 4206TIP3    H212583   6.908   0.620   3.342 -0.4556  0.2598  0.2437
 4207TIP3   OH212584   2.882   4.396   3.968  0.0669 -0.3032  0.1836
 4207TIP3    H112585   2.827   4.347   3.906  1.1741 -0.9119 -0.3446
 4207TIP3    H212586   2.833   4.395   4.050 -0.9659 -0.3474 -0.4211
 4208TIP3   OH212587  -0.016   1.727   0.980 -0.4069  0.3865 -0.0908
 4208TIP3    H112588   0.078   1.712   0.970 -0.3704  1.2675 -1.2036
 4208TIP3    H212589  -0.041   1.668   1.051  1.1007  0.6170  0.6888
 4209TIP3   OH212590   5.979   3.494   3.466  0.3304  0.1545  0.4137
 4209TIP3    H112591   6.067   3.506   3.429 -0.2680 -0.7053 -1.4092
 4209TIP3    H212592   5.928   3.566   3.428 -0.5534 -1.3577 -1.4326
 4210TIP3   OH212593   4.682   1.578   1.223 -0.5386  0.1133  0.2815
 4210TIP3    H112594   4.777   1.580   1.227 -0.5651  0.8326  0.7289
 4210TIP3    H212595   4.661   1.494   1.182  0.2956  0.1602 -0.2582
 4211TIP3   OH212596   0.802   2.588   1.723  0.5030 -0.8522  0.3415
 4211TIP3    H112597   0.794   2.683   1.715 -2.2956 -0.9874  0.6507
 4211TIP3    H212598   0.743   2.552   1.657  2.7614 -2.4810 -0.9464
 4212TIP3   OH212599   0.239   5.898   3.188 -0.1883 -0.3026  0.7778
 4212TIP3    H112600   0.160   5.844   3.190 -0.9703  0.8208  1.3406
 4212TIP3    H212601   0.217   5.971   3.129  0.8187 -0.5380  0.0757
 4213TIP3   OH212602   1.309   4.761   0.763 -0.2257 -0.2017  0.4019
 4213TIP3    H112603   1.342   4.681   0.723 -0.1666 -0.9743  1.9426
 4213TIP3    H212604   1.258   4.731   0.839 -2.7096  1.0440 -0.6426
 4214TIP3   OH212605   1.347   6.453   3.446 -0.2566  0.7423 -0.1954
 4214TIP3    H112606   1.370   6.400   3.522  2.7594  1.4186 -0.5058
 4214TIP3    H212607   1.349   6.543   3.479 -2.9684  0.8797 -0.2189
 4215TIP3   OH212608   6.571   1.277   4.386 -0.0521  0.0319 -0.1722
 4215TIP3    H112609   6.553   1.358   4.339 -1.4870  0.1656  0.5393
 4215TIP3    H212610   6.553   1.208   4.322  0.9539  0.2607 -0.7108
 4216TIP3   OH212611   5.436   3.918   1.552  0.2075  0.7984 -0.2563
 4216TIP3    H112612   5.465   4.003   1.582  2.3794  0.3198 -0.7993
 4216TIP3    H212613   5.462   3.857   1.621  1.0934  0.2780 -1.0144
 4217TIP3   OH212614   6.817   4.410   3.414 -0.2122 -0.1263  0.2297
 4217TIP3    H112615   6.844   4.319   3.400 -3.3354 -1.1109 -0.1181
 4217TIP3    H212616   6.851   4.457   3.338 -0.0206 -1.3666 -0.4777
 4218TIP3   OH212617   2.607   3.977   5.194 -0.0748 -0.5071 -0.2465
 4218TIP3    H112618   2.650   4.060   5.171 -0.8533  0.2142  0.7636
 4218TIP3    H212619   2.620   3.969   5.288  1.3652 -2.3870 -0.5604
 4219TIP3   OH212620   3.883   5.751   5.673 -0.4324 -0.1429  0.0389
 4219TIP3    H112621   3.807   5.797   5.709 -0.0492  1.8558 -1.5006
 4219TIP3    H212622   3.874   5.761   5.579  1.7481  0.2017 -0.1755
 4220TIP3   OH212623   3.075   1.380   0.668  0.0325  0.2578  0.3444
 4220TIP3    H112624   3.031   1.336   0.741  0.0246 -1.2705 -0.5602
 4220TIP3    H212625   3.014   1.372   0.595  1.7676 -2.0335 -0.9717
 4221TIP3   OH212626   1.513   6.751   3.628 -0.1075  1.3790 -0.2911
 4221TIP3    H112627   1.468   6.687   3.683  1.4164 -0.6891 -1.3490
 4221TIP3    H212628   1.442   6.807   3.596 -1.3335  1.0886  1.6940
 4222TIP3   OH212629   0.106   5.482   5.703 -0.0318 -0.0855 -0.2931
 4222TIP3    H112630   0.057   5.405   5.676 -0.7502  0.3377 -0.2339
 4222TIP3    H212631   0.065   5.508   5.786 -0.0397  0.5629 -0.4929
 4223TIP3   OH212632   3.158   5.807   0.422 -1.1875  0.5034 -0.1693
 4223TIP3    H112633   3.151   5.721   0.464 -2.4611  0.0509 -1.2428
 4223TIP3    H212634   3.191   5.788   0.334  1.1034  1.4043  0.4351
 4224TIP3   OH212635   5.796   6.076   1.114 -0.1189 -0.2273  0.0279
 4224TIP3    H112636   5.841   6.074   1.198  1.2233  1.1084 -0.5996
 4224TIP3    H212637   5.806   5.988   1.079  1.3599 -0.1853  0.2735
 4225TIP3   OH212638   6.751   5.173   2.733 -0.4373  0.1195 -0.8920
 4225TIP3    H112639   6.775   5.193   2.823  0.2405  1.0543 -1.2556
 4225TIP3    H212640   6.793   5.089   2.715 -2.0856 -0.9893  0.2079
 4226TIP3   OH212641   3.983   0.913   5.585 -0.2772  0.2443  0.0629
 4226TIP3    H112642   4.026   0.976   5.642 -0.5313  0.3421  0.1443
 4226TIP3    H212643   3.890   0.927   5.599 -0.3352 -0.0488 -0.0293
 4227TIP3   OH212644   0.086   0.012   4.622  0.8669  0.4272 -0.4546
 4227TIP3    H112645   0.003  -0.034   4.614 -0.0021  1.8087  0.1127
 4227TIP3    H212646   0.094   0.030   4.716  1.4514  0.9134 -0.5909
 4228TIP3   OH212647   5.866   3.317   2.054 -0.0565 -0.2349 -0.4532
 4228TIP3    H112648   5.917   3.308   2.135 -1.5324 -0.0520  0.5268
 4228TIP3    H212649   5.855   3.227   2.024  3.6093 -0.1847 -2.5556
 4229TIP3   OH212650   1.729   6.205   0.056 -0.7086  0.5886 -0.1352
 4229TIP3    H112651   1.713   6.130   0.113 -0.6664  0.8763  0.2575
 4229TIP3    H212652   1.814   6.188   0.017 -0.6697  0.4650  0.0022
 4230TIP3   OH212653   6.744   4.047   4.505  0.1457  0.2766  0.2120
 4230TIP3    H112654   6.713   3.983   4.569  0.5152 -0.1328 -0.0134
 4230TIP3    H212655   6.745   3.999   4.422  0.5763  0.5309  0.0701
 4231TIP3   OH212656   5.909   2.067   5.775  0.6742 -0.2292 -0.3454
 4231TIP3    H112657   5.860   2.025   5.705  1.1828 -1.4760  0.0238
 4231TIP3    H212658   5.977   2.116   5.729  0.2424 -0.0162 -0.7725
 4232TIP3   OH212659   4.232   5.696   4.464  0.3515  0.0998 -0.2908
 4232TIP3    H112660   4.326   5.701   4.485  0.2063  2.2168  0.1010
 4232TIP3    H212661   4.221   5.758   4.392 -0.4203 -1.7728 -1.8727
 4233TIP3   OH212662   5.947   0.782   3.756  0.1566  0.0550 -0.5183
 4233TIP3    H112663   5.905   0.867   3.742  0.5709  0.5191  0.8521
 4233TIP3    H212664   6.019   0.780   3.694  0.3273  0.8469 -0.3541
 4234TIP3   OH212665   4.821   6.719   5.531 -0.5870 -0.1213 -0.6192
 4234TIP3    H112666   4.847   6.627   5.532 -1.8248 -0.4996  0.0625
 4234TIP3    H212667   4.727   6.717   5.511 -0.3990  1.0742 -1.7495
 4235TIP3   OH212668   2.607   4.556   5.738 -0.3300  0.1095  0.0779
 4235TIP3    H112669   2.629   4.620   5.670 -3.2802  1.4104  0.2294
 4235TIP3    H212670   2.656   4.478   5.712  1.3030  1.5660 -1.6082
 4236TIP3   OH212671   5.816   1.618   4.478  0.3972 -0.1265  0.7399
 4236TIP3    H112672   5.747   1.565   4.517  1.8141 -0.3933  2.9930
 4236TIP3    H212673   5.769   1.677   4.418 -1.5961 -1.3138  1.0609
 4237TIP3   OH212674   3.774   3.013   3.048  0.0695 -0.6023 -0.3052
 4237TIP3    H112675   3.783   3.041   3.139 -1.5970  2.1909 -0.8644
 4237TIP3    H212676   3.857   3.037   3.007 -0.0164  0.2780  0.0217
 4238TIP3   OH212677   4.283   6.714   1.410 -0.3886 -0.2491 -0.1495
 4238TIP3    H112678   4.375   6.717   1.434 -0.1347 -3.7717 -0.1627
 4238TIP3    H212679   4.239   6.680   1.489 -1.6524  1.0347 -0.2594
 4239TIP3   OH212680   5.996   4.659   1.043  0.0987 -0.6285 -0.3885
 4239TIP3    H112681   5.907   4.681   1.071  0.9081  2.7948 -0.0382
 4239TIP3    H212682   5.995   4.671   0.948  0.1322 -0.7968 -0.4096
 4240TIP3   OH212683   3.501   3.135   2.533  0.6369  0.5053  0.2587
 4240TIP3    H112684   3.472   3.056   2.578  2.6600 -0.1074  0.5928
 4240TIP3    H212685   3.436   3.148   2.464  0.6290 -1.9102 -0.2978
 4241TIP3   OH212686   3.765   2.688   4.957  0.1459 -0.5277  0.5082
 4241TIP3    H112687   3.836   2.654   4.903 -1.2741  0.1885 -1.9829
 4241TIP3    H212688   3.701   2.617   4.960 -1.0247  0.3703 -1.2614
 4242TIP3   OH212689   4.207   3.722   0.476  0.0868  0.0387  0.5381
 4242TIP3    H112690   4.198   3.627   0.470 -1.0369  0.2002 -1.5862
 4242TIP3    H212691   4.297   3.739   0.450 -0.2567 -0.3859 -1.0619
 4243TIP3   OH212692   1.714   4.436   3.666 -0.0530 -0.2156  0.2155
 4243TIP3    H112693   1.803   4.428   3.631 -0.2879 -0.1987 -0.3915
 4243TIP3    H212694   1.657   4.423   3.591 -0.6147 -1.7644  0.8612
 4244TIP3   OH212695   4.487   2.794   0.545 -0.3192  0.1173 -0.2705
 4244TIP3    H112696   4.438   2.848   0.483 -0.9706  0.4280  0.4995
 4244TIP3    H212697   4.534   2.856   0.600 -1.1357 -0.0775  0.6734
 4245TIP3   OH212698   2.352   5.071   1.241 -0.3141 -0.2121 -0.2445
 4245TIP3    H112699   2.326   5.163   1.236  0.6077  0.0759  0.0673
 4245TIP3    H212700   2.284   5.024   1.194 -0.8399  0.6240 -0.3313
 4246TIP3   OH212701   4.991   4.762   2.922 -0.3551  0.2486  0.1115
 4246TIP3    H112702   4.936   4.820   2.976  0.6227  0.1509  1.2456
 4246TIP3    H212703   4.940   4.749   2.842 -0.7428  2.4365 -0.0587
 4247TIP3   OH212704   2.726   4.973   3.416 -0.0092  0.1347 -0.3688
 4247TIP3    H112705   2.743   4.910   3.487 -0.3697 -1.4247 -1.5969
 4247TIP3    H212706   2.644   5.015   3.442 -0.5485 -0.9665 -0.1806
 4248TIP3   OH212707   3.779   6.588   5.309  0.3185  0.6261  0.0152
 4248TIP3    H112708   3.708   6.624   5.256  0.7697  1.7884  0.1844
 4248TIP3    H212709   3.749   6.500   5.332  0.2980 -0.0970 -2.5219
 4249TIP3   OH212710   6.267   3.367   1.312  0.0309  0.2696 -0.1095
 4249TIP3    H112711   6.194   3.415   1.273  0.6343  1.2185 -0.0926
 4249TIP3    H212712   6.226   3.292   1.355 -0.8934  0.5851 -0.4125
 4250TIP3   OH212713   0.680   5.724   1.204  0.9163 -0.8075  0.2226
 4250TIP3    H112714   0.666   5.805   1.253  0.6658  0.3048 -1.5864
 4250TIP3    H212715   0.597   5.708   1.158  1.7514 -0.6750 -1.3959
 4251TIP3   OH212716   2.355   5.572   0.809  0.7991 -0.1539  0.6568
 4251TIP3    H112717   2.336   5.486   0.771 -3.0068  0.1852  1.3739
 4251TIP3    H212718   2.351   5.558   0.903  0.3069  0.7473  0.7816
 4252TIP3   OH212719   3.253   2.516   4.505  0.0936 -0.4027 -0.5931
 4252TIP3    H112720   3.312   2.585   4.536  0.7850 -1.5420  0.7757
 4252TIP3    H212721   3.310   2.458   4.454 -0.4380 -0.0966 -1.5548
 4253TIP3   OH212722   7.092   4.803   0.736 -0.2891  0.1385 -0.1353
 4253TIP3    H112723   7.107   4.721   0.688 -1.1617 -0.8192  1.1749
 4253TIP3    H212724   7.163   4.860   0.707  1.0196 -1.4530 -0.2477
 4254TIP3   OH212725   7.137   2.363   5.061 -0.3444 -0.6422 -0.7385
 4254TIP3    H112726   7.204   2.431   5.049  2.5812 -3.0424  0.7711
 4254TIP3    H212727   7.074   2.402   5.121  0.5367  1.1667 -0.9256
 4255TIP3   OH212728   5.383   2.486   2.392 -0.2561 -0.2334  0.3133
 4255TIP3    H112729   5.466   2.509   2.434 -0.8384  0.4655  1.1073
 4255TIP3    H212730   5.399   2.503   2.299  0.2653  0.6218  0.5396
 4256TIP3   OH212731   6.068   4.632   0.772 -0.0227 -0.0425  0.2383
 4256TIP3    H112732   6.001   4.568   0.747 -0.0862  0.5390 -1.1656
 4256TIP3    H212733   6.043   4.712   0.725 -0.1628  1.1493  2.2553
 4257TIP3   OH212734   4.869   4.110   2.649  0.1624  0.1338  0.2209
 4257TIP3    H112735   4.943   4.170   2.647  0.2356  0.0269 -0.3579
 4257TIP3    H212736   4.903   4.030   2.691  0.0888  0.4558  0.9070
 4258TIP3   OH212737   3.795   0.843   5.032  0.0051 -0.1345 -0.1620
 4258TIP3    H112738   3.709   0.802   5.042  0.4941 -1.2233 -0.2047
 4258TIP3    H212739   3.810   0.889   5.115  0.1882 -1.5502  0.6187
 4259TIP3   OH212740   5.533   5.766   3.966  0.0283  0.2323  0.5382
 4259TIP3    H112741   5.517   5.731   3.879  1.3532  1.9490 -0.4680
 4259TIP3    H212742   5.459   5.824   3.982  0.2191  0.5936  0.1484
 4260TIP3   OH212743   0.010   4.918   3.606  0.1886 -0.4051 -0.0552
 4260TIP3    H112744   0.060   4.991   3.642 -0.0469 -0.2859  0.0303
 4260TIP3    H212745  -0.021   4.950   3.521 -1.8113  0.4272  0.9419
 4261TIP3   OH212746   3.273   5.998   2.982  0.1270 -0.0064  0.1077
 4261TIP3    H112747   3.195   6.000   3.037 -0.9263 -0.9091 -1.3093
 4261TIP3    H212748   3.327   5.928   3.019 -0.2926 -0.2088  0.3385
 4262TIP3   OH212749   3.013   0.242   3.219  0.1335 -0.2578 -0.1858
 4262TIP3    H112750   3.029   0.227   3.313  0.1874  0.9302  0.0140
 4262TIP3    H212751   3.099   0.266   3.185  0.6857 -3.1171 -1.1037
 4263TIP3   OH212752   2.423   0.346   4.592 -0.2515  0.6314 -0.2034
 4263TIP3    H112753   2.478   0.377   4.520  1.3885  2.8213  1.8531
 4263TIP3    H212754   2.469   0.270   4.627 -1.3349 -0.7939 -1.6609
 4264TIP3   OH212755   5.630   4.590   3.571 -0.8633  0.6913  1.1148
 4264TIP3    H112756   5.676   4.634   3.643 -0.1217 -1.2834  1.9229
 4264TIP3    H212757   5.541   4.577   3.604 -0.0494 -1.9024  2.5661
 4265TIP3   OH212758   0.471   3.536   2.419 -0.4855  0.2014  0.0916
 4265TIP3    H112759   0.521   3.510   2.341 -0.3734 -0.2154  0.2943
 4265TIP3    H212760   0.389   3.570   2.386  0.9654  3.5439 -0.4385
 4266TIP3   OH212761   2.970   0.986   1.915  0.1278  0.7305 -0.0104
 4266TIP3    H112762   2.991   1.067   1.869 -2.3565  0.8009 -1.1570
 4266TIP3    H212763   2.923   1.014   1.994  1.2085  0.4613  0.7483
 4267TIP3   OH212764   0.461   4.453   4.140  0.0937  0.0061  0.2586
 4267TIP3    H112765   0.482   4.403   4.061 -0.8122 -0.1606  0.1119
 4267TIP3    H212766   0.525   4.524   4.141  1.0054 -0.7932  0.1326
 4268TIP3   OH212767   4.336   6.286   1.802 -0.5516  0.0274  0.1334
 4268TIP3    H112768   4.283   6.252   1.730  0.5651  1.3654 -1.3906
 4268TIP3    H212769   4.273   6.324   1.863 -1.5113 -1.1081 -0.1128
 4269TIP3   OH212770   6.673   1.311   4.908  0.1497 -0.8657 -0.3550
 4269TIP3    H112771   6.608   1.251   4.871 -3.2583  2.9429 -1.3245
 4269TIP3    H212772   6.622   1.368   4.966  2.9049  1.5638 -0.0808
 4270TIP3   OH212773   4.828   3.762   5.061 -0.1145  0.1768  0.1532
 4270TIP3    H112774   4.866   3.703   4.996  0.2489 -0.3620  0.8340
 4270TIP3    H212775   4.873   3.845   5.049  1.3504 -0.4688  0.9884
 4271TIP3   OH212776   3.111   1.058   3.218  0.4091 -0.3388 -0.3538
 4271TIP3    H112777   3.029   1.049   3.169 -0.1259 -2.2921  0.7758
 4271TIP3    H212778   3.148   0.969   3.220  3.2354  0.6990 -1.8845
 4272TIP3   OH212779   4.421   4.173   5.159 -0.2635  0.3266  0.1770
 4272TIP3    H112780   4.403   4.170   5.065 -1.1901  1.4959  0.2891
 4272TIP3    H212781   4.513   4.151   5.167  0.5734  2.9305 -1.2781
 4273TIP3   OH212782   4.573   0.476   4.140 -0.0790 -0.3785 -0.5940
 4273TIP3    H112783   4.653   0.474   4.191  0.4272 -2.2305 -1.3901
 4273TIP3    H212784   4.552   0.384   4.124 -1.9280  0.0837 -1.0752
 4274TIP3   OH212785   3.066   3.613   1.438  0.2805  0.2526  0.2561
 4274TIP3    H112786   3.062   3.519   1.418 -1.3401  0.2083  0.6486
 4274TIP3    H212787   3.133   3.647   1.379 -0.7375 -0.7569 -1.6033
 4275TIP3   OH212788   5.006   3.175   0.914 -0.5766  0.1566 -0.2334
 4275TIP3    H112789   4.991   3.083   0.936 -2.1465  0.2333 -0.9044
 4275TIP3    H212790   5.041   3.214   0.994  2.2959 -1.4596 -0.5364
 4276TIP3   OH212791   7.103   2.200   1.537  0.5610 -0.2683  0.3829
 4276TIP3    H112792   7.160   2.175   1.609 -0.6195  0.4010  1.5909
 4276TIP3    H212793   7.104   2.296   1.538 -1.6278 -0.2022  1.3422
 4277TIP3   OH212794   3.368   1.735   2.145  0.4267 -0.0767  0.0608
 4277TIP3    H112795   3.292   1.767   2.096  1.3692 -1.4137 -2.4107
 4277TIP3    H212796   3.440   1.739   2.083  2.2130  0.2410  2.0564
 4278TIP3   OH212797   1.801   5.998   4.110 -0.0134 -0.2814 -0.0635
 4278TIP3    H112798   1.720   5.996   4.060  0.0057 -1.4537 -0.0842
 4278TIP3    H212799   1.870   5.990   4.045  0.0500 -0.8215  0.0646
 4279TIP3   OH212800   2.666   1.848   0.479  0.6178 -0.4149 -0.0725
 4279TIP3    H112801   2.663   1.760   0.514  2.2164 -0.3927  0.1792
 4279TIP3    H212802   2.639   1.904   0.551  1.1904 -0.5811  0.2751
 4280TIP3   OH212803   0.042   6.294   0.947  0.1313  0.5278 -0.2170
 4280TIP3    H112804   0.063   6.372   0.896  2.0722  0.1804 -0.0063
 4280TIP3    H212805  -0.014   6.242   0.889  0.6871  1.0366 -1.2354
 4281TIP3   OH212806   6.485   3.539   1.275  0.0474  0.0296  0.3567
 4281TIP3    H112807   6.412   3.481   1.298 -0.6320  1.1082  1.0361
 4281TIP3    H212808   6.443   3.619   1.243  0.9677  0.0694 -0.8240
 4282TIP3   OH212809   1.509   0.164   4.515  0.2927  0.0360 -0.0287
 4282TIP3    H112810   1.481   0.190   4.602  1.1989  0.0510  0.2670
 4282TIP3    H212811   1.603   0.148   4.523  0.2616 -0.6455 -0.8385
 4283TIP3   OH212812   1.452   0.979   3.816  0.4029 -0.4400 -0.0134
 4283TIP3    H112813   1.393   0.997   3.889 -1.4787 -1.8633 -1.0768
 4283TIP3    H212814   1.520   0.922   3.853  1.5481  1.6893  1.3600
 4284TIP3   OH212815   0.820   5.612   1.457 -0.0469 -0.8508  0.3497
 4284TIP3    H112816   0.753   5.546   1.477 -0.8357  0.4820  2.4866
 4284TIP3    H212817   0.813   5.626   1.363 -1.6016 -1.9755  0.2530
 4285TIP3   OH212818   2.856   4.860   3.120  0.0881  0.1617 -0.5499
 4285TIP3    H112819   2.927   4.925   3.118 -0.3171  0.6273 -0.2766
 4285TIP3    H212820   2.898   4.779   3.149  0.2079  0.8720  1.4423
 4286TIP3   OH212821   5.054   0.872   4.835  0.2497  0.2417  0.3692
 4286TIP3    H112822   5.113   0.821   4.781 -1.0101  0.4161 -1.2678
 4286TIP3    H212823   5.026   0.944   4.779 -0.5370  0.8703  1.5102
 4287TIP3   OH212824   3.755   3.453   3.995 -0.7204 -0.1569 -0.3880
 4287TIP3    H112825   3.724   3.413   3.913 -0.9107  1.5460 -1.1862
 4287TIP3    H212826   3.675   3.477   4.041 -0.6137  0.4812 -0.5288
 4288TIP3   OH212827   5.614   1.434   4.295  0.7804  0.1988 -0.5904
 4288TIP3    H112828   5.575   1.374   4.231  1.5438 -0.2957 -0.6089
 4288TIP3    H212829   5.549   1.503   4.306  0.2896 -0.1389 -1.2861
 4289TIP3   OH212830   4.142   6.617   1.622  0.2076 -0.2428 -0.7589
 4289TIP3    H112831   4.150   6.538   1.675  1.1911 -1.1253 -2.1772
 4289TIP3    H212832   4.047   6.632   1.616  0.0414 -0.7154  0.3383
 4290TIP3   OH212833   6.499   5.675   3.960 -0.0683  0.0035  0.0167
 4290TIP3    H112834   6.549   5.742   4.006  1.6708 -0.0914 -1.6283
 4290TIP3    H212835   6.409   5.709   3.959  0.5502  1.7391  0.2365
 4291TIP3   OH212836   5.922   5.660   4.447  0.0876 -0.5362 -0.5537
 4291TIP3    H112837   5.962   5.716   4.514  0.7031 -1.2047 -0.3579
 4291TIP3    H212838   5.911   5.717   4.371  1.7609 -0.4405 -0.7445
 4292TIP3   OH212839   1.164   0.820   4.929  0.5694  0.0725  0.4326
 4292TIP3    H112840   1.173   0.730   4.961  1.0327  0.4662  1.4676
 4292TIP3    H212841   1.071   0.841   4.941  0.7688  0.2724  1.7272
 4293TIP3   OH212842   6.686   2.651   2.198 -0.3040  0.5981 -0.2409
 4293TIP3    H112843   6.772   2.611   2.190 -0.5182 -0.9435  3.2989
 4293TIP3    H212844   6.704   2.744   2.212  0.9960  0.1320  1.7029
 4294TIP3   OH212845   4.423   1.661   1.601  0.1944  0.3797  0.2940
 4294TIP3    H112846   4.468   1.740   1.573  0.7658  0.2078  0.6872
 4294TIP3    H212847   4.476   1.589   1.565 -0.9380  0.1696 -0.9998
 4295TIP3   OH212848   6.767   6.372   2.798 -0.1693 -0.1221 -0.0534
 4295TIP3    H112849   6.724   6.389   2.882  2.5370 -1.1769  1.6507
 4295TIP3    H212850   6.704   6.317   2.750 -1.9258  0.7923  1.0745
 4296TIP3   OH212851   6.552   1.246   5.349 -0.1060  0.7524 -0.6923
 4296TIP3    H112852   6.530   1.322   5.403  0.8446  0.7741 -0.3294
 4296TIP3    H212853   6.644   1.257   5.328 -0.4058  0.6365 -2.1621
 4297TIP3   OH212854   3.302   1.140   5.143 -0.2836 -0.5279 -0.3474
 4297TIP3    H112855   3.365   1.069   5.135 -0.5486 -0.8149  0.0879
 4297TIP3    H212856   3.321   1.197   5.068  0.6393 -0.4789 -0.0796
 4298TIP3   OH212857   3.172   1.914   2.033  0.1337  0.3590  0.2385
 4298TIP3    H112858   3.221   1.937   1.954  0.5409 -0.4599  0.2420
 4298TIP3    H212859   3.155   1.998   2.075  1.6533  0.6763  0.2971
 4299TIP3   OH212860   2.219   1.190   4.870  0.4716  0.2334 -0.2709
 4299TIP3    H112861   2.187   1.104   4.899  0.9654 -0.0721 -0.6179
 4299TIP3    H212862   2.305   1.172   4.832  0.1764  0.7537 -1.1947
 4300TIP3   OH212863   6.517   2.656   1.796 -0.2171  0.3856  0.5247
 4300TIP3    H112864   6.509   2.694   1.883 -0.0638  0.5124  0.4848
 4300TIP3    H212865   6.526   2.731   1.738  2.8107  0.2880  0.7128
 4301TIP3   OH212866   1.638   6.063   3.328  0.2803 -0.1692 -0.7143
 4301TIP3    H112867   1.694   6.123   3.278  2.4161 -0.7303  0.8491
 4301TIP3    H212868   1.645   6.094   3.419  0.0965 -1.7743 -0.1178
 4302TIP3   OH212869   6.187   1.980   2.409 -0.2508  0.1739  0.4651
 4302TIP3    H112870   6.092   1.981   2.422 -0.3425  0.9372 -0.1907
 4302TIP3    H212871   6.199   1.997   2.316  0.5441  1.0599  0.7061
 4303TIP3   OH212872   3.855   3.650   4.327 -0.1369 -0.2793 -0.2840
 4303TIP3    H112873   3.883   3.614   4.410  0.1348 -0.6909 -0.5518
 4303TIP3    H212874   3.844   3.744   4.344 -0.1310 -0.3692  0.2224
 4304TIP3   OH212875   1.513   1.067   5.143  0.4630 -0.2661  0.5415
 4304TIP3    H112876   1.489   0.982   5.179  1.0127 -0.5613  0.2239
 4304TIP3    H212877   1.603   1.082   5.174  0.7312 -0.2577 -0.2155
 4305TIP3   OH212878   5.253   3.131   3.682  0.5096 -0.0209 -0.1468
 4305TIP3    H112879   5.344   3.159   3.679  0.1951  1.5343  2.0845
 4305TIP3    H212880   5.251   3.067   3.754 -0.2883  0.7044  0.5012
 4306TIP3   OH212881   3.647   3.517   2.375  0.7754  0.2847  0.1326
 4306TIP3    H112882   3.572   3.513   2.434  0.2869  0.6769 -0.4435
 4306TIP3    H212883   3.700   3.441   2.397 -0.2976 -0.5649 -0.1176
 4307TIP3   OH212884   6.209   1.745   5.067  0.9188 -0.1624  0.0657
 4307TIP3    H112885   6.274   1.815   5.070  0.9231 -0.1846  0.7241
 4307TIP3    H212886   6.149   1.770   4.997  0.9624  0.4626  0.2459
 4308TIP3   OH212887   5.202   6.143   4.688  0.3245 -0.2453 -0.2240
 4308TIP3    H112888   5.157   6.117   4.607  0.9026 -0.9828 -0.3149
 4308TIP3    H212889   5.293   6.116   4.675  0.4921 -0.0797  0.5506
 4309TIP3   OH212890   1.950   1.464   1.432  0.2835  0.1560 -0.7261
 4309TIP3    H112891   1.873   1.420   1.468  0.5647  0.9617  0.9175
 4309TIP3    H212892   1.919   1.505   1.351 -0.4866 -1.2346 -1.1803
 4310TIP3   OH212893   2.508   4.958   5.475  0.1406 -0.5836  0.6153
 4310TIP3    H112894   2.563   5.032   5.501 -0.4589  0.6243 -1.3494
 4310TIP3    H212895   2.536   4.886   5.532  0.9205  1.0601  2.4058
 4311TIP3   OH212896   6.663   0.098   5.237  0.5392 -0.0081 -0.3437
 4311TIP3    H112897   6.637   0.140   5.155  1.1500 -1.1252 -1.1388
 4311TIP3    H212898   6.636   0.160   5.305  1.5597  1.7647 -1.4603
 4312TIP3   OH212899   4.479   1.260   3.447 -0.4660 -0.2073  0.3618
 4312TIP3    H112900   4.461   1.205   3.371  1.4063 -0.8113  0.2837
 4312TIP3    H212901   4.505   1.198   3.515  0.7537  0.4840  0.5576
 4313TIP3   OH212902   6.152   2.913   1.877  0.1410 -0.2830 -0.2396
 4313TIP3    H112903   6.064   2.900   1.912  0.2839 -1.2755 -0.2191
 4313TIP3    H212904   6.209   2.868   1.939  0.6141 -0.0902 -0.5306
 4314TIP3   OH212905   2.716   4.117   0.224  0.4742  0.6749 -0.0788
 4314TIP3    H112906   2.635   4.118   0.275  0.0777 -1.2402 -0.5799
 4314TIP3    H212907   2.693   4.160   0.142  0.0287  0.3463 -0.1294
 4315TIP3   OH212908   3.891   6.308   0.207  0.3235  0.2651 -0.3438
 4315TIP3    H112909   3.959   6.276   0.266 -0.5329  1.7782  1.5754
 4315TIP3    H212910   3.842   6.230   0.181  0.9779 -0.4763  0.6262
 4316TIP3   OH212911   0.862   6.059   1.147 -0.0545 -0.0069  0.2463
 4316TIP3    H112912   0.831   6.075   1.237 -0.9657 -0.9374  0.1186
 4316TIP3    H212913   0.784   6.027   1.101  0.5886 -0.2577 -0.6854
 4317TIP3   OH212914   0.234   4.035   3.630  0.1603  0.0495 -0.2408
 4317TIP3    H112915   0.167   4.015   3.695  1.3128 -0.1124  0.9423
 4317TIP3    H212916   0.210   3.982   3.554 -1.6979  0.8925 -0.3084
 4318TIP3   OH212917   1.837   1.891   0.096  0.3884 -0.0755  0.1379
 4318TIP3    H112918   1.876   1.897   0.009  0.4286 -0.7529  0.1010
 4318TIP3    H212919   1.862   1.804   0.128 -1.8012 -0.9100 -0.2334
 4319TIP3   OH212920   5.054   0.576   1.883  0.2489 -0.4308 -0.3068
 4319TIP3    H112921   5.131   0.629   1.904  0.6374 -1.4822  1.0565
 4319TIP3    H212922   5.017   0.617   1.805 -0.0466  2.4015  1.2231
 4320TIP3   OH212923   5.492   1.748   1.564 -0.5131  0.3988 -0.3443
 4320TIP3    H112924   5.458   1.756   1.475 -0.3722  0.2679 -0.4106
 4320TIP3    H212925   5.476   1.657   1.588 -0.1980  0.3306 -0.3828
 4321TIP3   OH212926   2.658   4.114   2.415  0.2419 -0.4152  0.8049
 4321TIP3    H112927   2.750   4.089   2.408  0.9641  2.2082 -0.1059
 4321TIP3    H212928   2.620   4.093   2.330  0.5641  0.4936  0.4291
 4322TIP3   OH212929   5.402   5.197   3.177 -0.2464 -0.4909  0.3610
 4322TIP3    H112930   5.325   5.251   3.159  1.0391  0.6930 -1.9708
 4322TIP3    H212931   5.406   5.135   3.104  0.0805 -1.7132  1.3663
 4323TIP3   OH212932   0.282   4.775   3.671 -0.3540 -0.3551  0.5987
 4323TIP3    H112933   0.288   4.830   3.593 -2.2959 -0.6458  0.1876
 4323TIP3    H212934   0.317   4.829   3.742  0.5234  0.2738 -0.2771
 4324TIP3   OH212935   2.562   0.440   2.487 -0.0523  0.1161 -0.0202
 4324TIP3    H112936   2.646   0.414   2.449  1.3066  0.5566  2.4464
 4324TIP3    H212937   2.546   0.527   2.452  0.8234  0.2440 -0.1378
 4325TIP3   OH212938   2.299   4.541   0.333  0.2491 -0.0864  0.1429
 4325TIP3    H112939   2.299   4.461   0.281  0.6671  0.0053 -0.0038
 4325TIP3    H212940   2.372   4.530   0.394 -0.0798 -0.0816  0.5373
 4326TIP3   OH212941   4.666   4.012   4.112 -0.3343 -0.0770  0.2540
 4326TIP3    H112942   4.592   4.021   4.052 -0.7738  0.0989  0.8146
 4326TIP3    H212943   4.680   4.101   4.146 -0.0628 -0.1696  0.3851
 4327TIP3   OH212944   0.556   2.969   4.668  0.5276 -0.5403 -0.3411
 4327TIP3    H112945   0.528   2.885   4.631  1.1175 -0.3875 -1.1659
 4327TIP3    H212946   0.641   2.950   4.707  0.3651 -0.4664  0.0543
 4328TIP3   OH212947   1.484   1.658   1.806  0.0153 -0.0035  0.3421
 4328TIP3    H112948   1.438   1.718   1.864 -0.9575 -1.3847  1.0763
 4328TIP3    H212949   1.492   1.706   1.723 -1.3511  0.8787  0.6794
 4329TIP3   OH212950   1.913   5.796   1.106  0.8298 -0.0765 -0.4142
 4329TIP3    H112951   1.999   5.791   1.064  1.1814  1.4807  0.0379
 4329TIP3    H212952   1.901   5.889   1.125  0.3564 -0.5697  2.1737
 4330TIP3   OH212953   4.436   5.615   0.988  0.0183  0.1705 -0.2236
 4330TIP3    H112954   4.472   5.693   0.946 -0.7055  0.4279 -0.3858
 4330TIP3    H212955   4.448   5.631   1.082 -0.6071  0.7364 -0.2280
 4331TIP3   OH212956   3.196   4.679   4.156 -0.3684 -0.1085 -0.2737
 4331TIP3    H112957   3.271   4.650   4.209 -0.4554 -0.4340 -0.3268
 4331TIP3    H212958   3.184   4.609   4.092  0.0528  0.5222 -1.0574
 4332TIP3   OH212959   4.351   3.002   0.936  0.4282  0.3099 -0.2296
 4332TIP3    H112960   4.300   3.060   0.880  0.7601  0.2449 -0.6068
 4332TIP3    H212961   4.333   2.914   0.903  1.1298  0.3212 -0.6554
 4333TIP3   OH212962   2.233   2.130   2.947  0.1458  0.2040 -0.3295
 4333TIP3    H112963   2.325   2.156   2.957  0.4827 -0.8774 -0.5136
 4333TIP3    H212964   2.185   2.213   2.951  1.0800  0.7452  0.2576
 4334TIP3   OH212965   4.133   6.619   3.667  0.3970 -0.0058  0.2210
 4334TIP3    H112966   4.114   6.602   3.575 -1.1857  0.3827  0.4475
 4334TIP3    H212967   4.113   6.536   3.711 -1.3085  0.5217  0.5145
 4335TIP3   OH212968   5.172   4.462   3.730  0.3682 -0.0601  0.3588
 4335TIP3    H112969   5.164   4.556   3.714 -1.4588 -0.2913 -0.2097
 4335TIP3    H212970   5.084   4.434   3.755  0.8093 -1.6871  0.1861
 4336TIP3   OH212971   5.611   1.288   0.373  0.2060 -0.6119  0.3375
 4336TIP3    H112972   5.545   1.318   0.310  0.3718 -1.4458 -0.2587
 4336TIP3    H212973   5.564   1.278   0.455  0.2366  1.6319  0.6644
 4337TIP3   OH212974   2.622   2.398   5.771  0.3268 -0.4696  0.6559
 4337TIP3    H112975   2.618   2.487   5.738 -0.1503 -0.0169  1.8951
 4337TIP3    H212976   2.566   2.348   5.712  1.7150 -0.2693 -0.9191
 4338TIP3   OH212977   7.086   1.520   0.516  0.1869 -0.2678 -0.1912
 4338TIP3    H112978   7.154   1.460   0.546 -0.1766 -0.6501 -0.1280
 4338TIP3    H212979   7.051   1.480   0.437 -1.6412 -1.3518  1.0807
 4339TIP3   OH212980   5.968   6.296   3.262  0.0969 -0.0499  0.0853
 4339TIP3    H112981   5.957   6.232   3.192 -2.5035  1.4000 -0.9466
 4339TIP3    H212982   5.937   6.251   3.341 -2.7171  0.1282 -0.8031
 4340TIP3   OH212983   1.678   2.233   1.950 -0.0373 -0.2900 -0.2124
 4340TIP3    H112984   1.649   2.178   2.022 -0.8157  2.4700  1.7458
 4340TIP3    H212985   1.770   2.252   1.969 -0.1020  0.0369 -0.2232
 4341TIP3   OH212986   1.036   4.415   3.312  0.2471  0.5840 -0.2558
 4341TIP3    H112987   1.037   4.381   3.223  3.4723 -0.4193  0.0237
 4341TIP3    H212988   0.967   4.366   3.356  0.0459 -0.4649 -1.6836
 4342TIP3   OH212989   3.377   2.267   2.598 -0.1254 -0.3378  0.0562
 4342TIP3    H112990   3.384   2.191   2.656 -0.3044  0.0735  0.6245
 4342TIP3    H212991   3.358   2.340   2.657 -1.3746 -0.0926 -0.6377
 4343TIP3   OH212992   2.901   5.782   2.852  0.2796  0.4352 -0.1856
 4343TIP3    H112993   2.825   5.830   2.819  0.2138  0.1398 -0.4681
 4343TIP3    H212994   2.927   5.725   2.779  0.0069 -0.3840  0.3454
 4344TIP3   OH212995   6.437   6.017   0.006  0.1528  0.5876  0.4103
 4344TIP3    H112996   6.348   6.028   0.041 -0.4561  2.0396 -1.3879
 4344TIP3    H212997   6.440   5.926  -0.023 -0.5785  0.3884  0.9243
 4345TIP3   OH212998   1.095   4.124   0.661  0.1181 -0.0834  1.0917
 4345TIP3    H112999   1.128   4.146   0.573  0.1766  1.2377  1.4304
 4345TIP3    H213000   1.045   4.200   0.688 -0.1990 -0.6272  2.0798
 4346TIP3   OH213001   7.221   5.835   5.685 -0.0065 -0.5474 -0.5291
 4346TIP3    H113002   7.231   5.788   5.767 -1.0157  0.2565  0.0808
 4346TIP3    H213003   7.146   5.794   5.642 -0.1698 -0.2489 -0.5333
 4347TIP3   OH213004   0.184   6.540   5.794 -0.5344  0.6869 -0.2093
 4347TIP3    H113005   0.157   6.451   5.772 -0.5608  0.5539  0.3690
 4347TIP3    H213006   0.278   6.542   5.774 -0.5904  0.6115 -0.4830
 4348TIP3   OH213007   4.143   1.691   3.214 -0.2170  0.9852  0.1238
 4348TIP3    H113008   4.203   1.702   3.288  0.5462  0.9295 -0.4648
 4348TIP3    H213009   4.191   1.727   3.140 -0.7380  0.5226 -0.4463
 4349TIP3   OH213010   1.609   1.429   5.319 -0.6961 -0.1707  0.4572
 4349TIP3    H113011   1.551   1.361   5.351 -1.2251  0.0419 -0.0350
 4349TIP3    H213012   1.554   1.506   5.310  0.3536  1.0199  3.2146
 4350TIP3   OH213013   1.719   3.620   1.022 -0.0857  0.5801  0.6126
 4350TIP3    H113014   1.795   3.573   0.988 -1.4794 -0.7164 -0.9069
 4350TIP3    H213015   1.696   3.574   1.103  0.4233  0.6566  0.8035
 4351TIP3   OH213016   4.073   0.324   1.499  0.2560 -0.7919 -0.4978
 4351TIP3    H113017   4.125   0.295   1.574 -0.9693 -2.6306 -0.2961
 4351TIP3    H213018   4.055   0.416   1.516  1.8330 -0.5985  0.3524
 4352TIP3   OH213019   5.885   3.519   4.642 -0.4522 -0.0098  0.3449
 4352TIP3    H113020   5.908   3.568   4.720 -0.1060  1.1494 -0.4517
 4352TIP3    H213021   5.790   3.507   4.647 -0.2129 -1.7708  1.9283
 4353TIP3   OH213022   7.096   0.428   3.491  0.4132 -0.2715  0.2944
 4353TIP3    H113023   7.032   0.388   3.551  1.7660 -1.3778  1.0621
 4353TIP3    H213024   7.066   0.518   3.481 -0.6074 -0.4336  1.5574
 4354TIP3   OH213025   3.931   0.378   2.195 -0.1669 -0.3386 -0.5938
 4354TIP3    H113026   3.913   0.458   2.146  1.1371  0.8235  0.7539
 4354TIP3    H213027   4.025   0.383   2.216 -0.3413 -1.5773  0.6331
 4355TIP3   OH213028   0.873   1.702   0.040  0.9309  0.1935 -0.2766
 4355TIP3    H113029   0.837   1.615   0.025 -0.5144  0.8553 -0.8763
 4355TIP3    H213030   0.968   1.689   0.045  0.7546 -1.3624 -0.6308
 4356TIP3   OH213031   0.302   0.843   5.883  0.5342  0.0583  0.0377
 4356TIP3    H113032   0.360   0.918   5.890  0.2077  0.3396 -0.1954
 4356TIP3    H213033   0.235   0.870   5.819 -0.1372 -0.0680  0.6726
 4357TIP3   OH213034   4.752   0.330   5.383  0.4705 -0.0137  0.2920
 4357TIP3    H113035   4.762   0.242   5.419 -2.2206  0.8981  3.9177
 4357TIP3    H213036   4.823   0.381   5.423  1.5364 -0.2923 -1.1669
 4358TIP3   OH213037   3.806   5.873   2.836  0.8004 -0.2730  0.4727
 4358TIP3    H113038   3.725   5.824   2.821  0.0922  0.6516  1.0798
 4358TIP3    H213039   3.876   5.811   2.819 -0.0390 -1.0961 -0.0930
 4359TIP3   OH213040   4.560   6.495   3.057  0.0625  0.0566  0.6495
 4359TIP3    H113041   4.514   6.496   3.141 -0.4399  0.4013  0.3759
 4359TIP3    H213042   4.646   6.459   3.077  0.4473  1.3955  1.5776
 4360TIP3   OH213043   6.039   5.497   5.515  0.6263 -0.0503 -0.5514
 4360TIP3    H113044   5.976   5.441   5.559  0.3488  0.5363 -0.1948
 4360TIP3    H213045   5.998   5.584   5.515  1.3084  0.2765 -0.5667
 4361TIP3   OH213046   2.183   3.182   0.765 -0.7434  0.1987  0.3540
 4361TIP3    H113047   2.261   3.169   0.820 -0.1025  1.5318 -0.1976
 4361TIP3    H213048   2.114   3.136   0.812  0.1480 -0.1316  1.4101
 4362TIP3   OH213049   2.906   0.598   5.370 -0.2419  0.1447 -0.0521
 4362TIP3    H113050   2.915   0.561   5.282 -0.7740 -1.6505  0.5893
 4362TIP3    H213051   2.886   0.522   5.425 -0.2007  1.2689  1.5740
 4363TIP3   OH213052   6.160   3.787   4.585  0.8281  0.0685 -0.0640
 4363TIP3    H113053   6.144   3.850   4.514 -1.2218 -2.1736 -1.7479
 4363TIP3    H213054   6.220   3.723   4.547 -0.4811 -1.2896  0.0594
 4364TIP3   OH213055   4.834   0.466   0.939 -0.0926  0.1144 -0.3225
 4364TIP3    H113056   4.807   0.555   0.959 -3.2508 -1.0801  1.5493
 4364TIP3    H213057   4.929   0.465   0.954 -0.0911  2.9299  0.3397
 4365TIP3   OH213058   6.493   3.680   2.514 -0.1101  0.1796 -0.8041
 4365TIP3    H113059   6.521   3.608   2.571 -0.4653  0.8258  0.2144
 4365TIP3    H213060   6.571   3.735   2.505 -0.0391  0.0497 -0.9873
 4366TIP3   OH213061   6.009   4.604   3.070 -0.2361 -0.2000 -0.1120
 4366TIP3    H113062   5.937   4.646   3.118 -0.7825  2.5143 -2.9797
 4366TIP3    H213063   5.972   4.521   3.040 -1.3791  0.1259  0.3378
 4367TIP3   OH213064   2.641   5.424   1.451  0.1677  0.2882 -0.8935
 4367TIP3    H113065   2.587   5.362   1.501  0.7326 -0.0015 -0.6234
 4367TIP3    H213066   2.596   5.434   1.368 -2.0554  2.5581  0.4451
 4368TIP3   OH213067   5.451   4.994   4.027  0.2745 -0.4666  0.1041
 4368TIP3    H113068   5.450   4.995   4.123 -1.1068 -0.9816  0.1147
 4368TIP3    H213069   5.365   4.960   4.003  0.8737 -1.0310 -1.3159
 4369TIP3   OH213070   2.434   1.241   5.145 -0.1127  0.0153 -0.2018
 4369TIP3    H113071   2.442   1.188   5.066  1.6317 -0.6492  0.3686
 4369TIP3    H213072   2.520   1.235   5.187 -1.2817 -0.5564  2.3260
 4370TIP3   OH213073   0.049   3.152   4.334 -0.3075 -0.5378 -0.2433
 4370TIP3    H113074   0.035   3.184   4.423 -0.1035 -0.6142 -0.1820
 4370TIP3    H213075  -0.007   3.075   4.327 -3.6525  1.7961 -1.5908
 4371TIP3   OH213076   2.626   4.146   4.059 -0.4932  0.5157 -0.0290
 4371TIP3    H113077   2.646   4.193   3.978 -3.1974 -0.1877 -1.2090
 4371TIP3    H213078   2.533   4.163   4.074 -0.1194  0.4224  2.8376
 4372TIP3   OH213079   6.804   6.331   1.155 -0.2031  0.0527  0.1040
 4372TIP3    H113080   6.736   6.316   1.221 -0.6204 -0.8232 -0.5174
 4372TIP3    H213081   6.795   6.424   1.133 -3.8398 -0.7516 -2.7571
 4373TIP3   OH213082   0.269   1.657   1.250 -0.0342  0.1850  0.2907
 4373TIP3    H113083   0.252   1.631   1.160  0.2743  0.4782  0.1461
 4373TIP3    H213084   0.182   1.675   1.287 -0.1713 -0.0776  0.0976
 4374TIP3   OH213085   6.028   6.709   2.219  0.0713  0.0829  0.0875
 4374TIP3    H113086   6.006   6.693   2.127 -1.0999 -1.1652  0.5551
 4374TIP3    H213087   6.035   6.622   2.258 -2.1547  0.5637  1.7574
 4375TIP3   OH213088   1.812   2.495   1.800  0.5077  0.0078  0.4270
 4375TIP3    H113089   1.827   2.520   1.892  1.0065 -0.1527  0.3914
 4375TIP3    H213090   1.898   2.503   1.759 -0.1012  2.2280 -0.5557
 4376TIP3   OH213091   0.286   4.446   3.485 -0.0706 -0.7993 -0.6698
 4376TIP3    H113092   0.335   4.383   3.537  0.3195  0.9958  1.2729
 4376TIP3    H213093   0.207   4.463   3.537 -0.0919  0.4189 -1.0737
 4377TIP3   OH213094   5.381   0.405   1.813  0.0550  0.5091  0.2215
 4377TIP3    H113095   5.388   0.392   1.908  2.7006  0.8274  0.1597
 4377TIP3    H213096   5.363   0.318   1.778  1.4763 -0.0857  0.8920
 4378TIP3   OH213097   0.032   5.349   3.154  0.9441 -0.1859  0.1429
 4378TIP3    H113098   0.103   5.401   3.115  0.9628 -0.4432 -0.1714
 4378TIP3    H213099   0.077   5.278   3.200  0.9216  0.1095  0.6351
 4379TIP3   OH213100   6.717   2.099   4.903 -0.6760 -0.2619 -0.2496
 4379TIP3    H113101   6.772   2.041   4.956 -0.9838 -1.1118 -0.8369
 4379TIP3    H213102   6.699   2.174   4.960  0.9823 -0.0189 -0.0059
 4380TIP3   OH213103   6.853   4.711   5.653 -0.3880 -0.0970  0.5295
 4380TIP3    H113104   6.847   4.752   5.739 -0.3434  0.0946  0.4423
 4380TIP3    H213105   6.780   4.750   5.603 -0.3071 -0.0758  0.4271
 4381TIP3   OH213106   5.751   4.191   4.550 -0.0851 -0.9487  0.8347
 4381TIP3    H113107   5.669   4.141   4.542  0.4061 -1.6142 -0.2690
 4381TIP3    H213108   5.729   4.264   4.607 -1.8285 -0.3789 -0.4734
 4382TIP3   OH213109   4.887   5.679   3.634  0.0313  0.3556  0.5344
 4382TIP3    H113110   4.928   5.595   3.652  1.2435  1.1599  1.7040
 4382TIP3    H213111   4.795   5.667   3.660  0.0037 -0.8180 -0.0597
 4383TIP3   OH213112   6.111   1.285   5.855 -0.1528 -0.2407  0.1226
 4383TIP3    H113113   6.127   1.335   5.935  0.5626 -0.5669  0.1865
 4383TIP3    H213114   6.105   1.351   5.786  0.1591 -0.0281  0.2984
 4384TIP3   OH213115   3.720   2.698   0.965 -0.2167 -0.0190  0.5282
 4384TIP3    H113116   3.714   2.693   1.060 -1.0241  1.6808  0.6047
 4384TIP3    H213117   3.675   2.619   0.934  0.2943 -0.7319  1.5348
 4385TIP3   OH213118   0.192   2.725   3.953  0.1735  0.4924  0.3644
 4385TIP3    H113119   0.171   2.814   3.981  1.5586  1.2891 -0.9844
 4385TIP3    H213120   0.287   2.719   3.961 -0.0773 -1.7831  2.9144
 4386TIP3   OH213121   0.338   4.790   2.973  0.0457  0.1049 -0.0985
 4386TIP3    H113122   0.363   4.817   3.061  1.7904 -1.0277 -0.1873
 4386TIP3    H213123   0.271   4.723   2.986  1.8613 -1.7077  0.5554
 4387TIP3   OH213124   6.837   5.428   4.946  0.0355 -0.5953 -0.6600
 4387TIP3    H113125   6.893   5.489   4.994  0.2099  0.3231 -1.9950
 4387TIP3    H213126   6.847   5.452   4.854 -1.6471 -1.1740 -1.0276
 4388TIP3   OH213127   1.515   4.763   5.486  0.1487  0.5590  0.3710
 4388TIP3    H113128   1.471   4.716   5.414  0.2045 -0.3980  0.9404
 4388TIP3    H213129   1.537   4.848   5.449 -1.3298  0.7218 -0.2289
 4389TIP3   OH213130   0.770   2.892   5.172 -0.8248 -0.0528  0.3440
 4389TIP3    H113131   0.769   2.967   5.232  0.3884 -0.5128  0.9807
 4389TIP3    H213132   0.701   2.834   5.204 -1.4323  0.5532  0.1530
 4390TIP3   OH213133   0.270   5.375   0.977 -0.4881 -0.3096 -0.0079
 4390TIP3    H113134   0.306   5.443   1.034 -0.0999 -0.7422  0.2689
 4390TIP3    H213135   0.340   5.310   0.970 -1.3924 -1.4411  0.9969
 4391TIP3   OH213136   3.239   0.845   4.342 -0.0237 -0.4966  0.2715
 4391TIP3    H113137   3.315   0.886   4.384 -0.7473  0.1222  0.9977
 4391TIP3    H213138   3.168   0.855   4.406 -0.7033 -1.1195 -0.3763
 4392TIP3   OH213139   2.807   5.303   0.262 -0.3856  0.0882  0.1685
 4392TIP3    H113140   2.850   5.296   0.347 -1.2340 -0.9217  0.5401
 4392TIP3    H213141   2.779   5.394   0.256  1.1683  0.6009  0.2068
 4393TIP3   OH213142   0.367   3.640   2.659  0.7210  0.1463 -0.0455
 4393TIP3    H113143   0.393   3.600   2.742  1.6558  0.9742  0.0775
 4393TIP3    H213144   0.430   3.607   2.595  0.6351  0.3101 -0.2163
 4394TIP3   OH213145   5.114   2.170   5.189  0.1750  0.2992 -0.0211
 4394TIP3    H113146   5.086   2.212   5.107 -0.3602  1.1020  0.5496
 4394TIP3    H213147   5.145   2.243   5.243 -0.3427 -0.0942  0.8262
 4395TIP3   OH213148   0.657   2.486   5.668  0.0934 -0.0598 -0.2271
 4395TIP3    H113149   0.650   2.441   5.752 -0.9637 -1.1182 -0.8574
 4395TIP3    H213150   0.649   2.579   5.691 -1.6157 -0.3964  0.7274
 4396TIP3   OH213151   3.868   2.061   4.484 -0.1029  0.2488  0.3181
 4396TIP3    H113152   3.955   2.032   4.455  0.0240 -0.3913  1.2778
 4396TIP3    H213153   3.840   2.124   4.417  0.2757 -0.9587 -1.0252
 4397TIP3   OH213154   0.142   6.257   1.219 -0.3836  0.3347 -0.4000
 4397TIP3    H113155   0.221   6.299   1.255 -0.1073 -0.4924 -0.0080
 4397TIP3    H213156   0.127   6.302   1.136 -0.1904  1.3046  0.0696
 4398TIP3   OH213157   5.407   2.693   5.442 -0.2002 -0.4482 -0.1120
 4398TIP3    H113158   5.460   2.774   5.443 -0.2947 -0.3785 -0.5682
 4398TIP3    H213159   5.465   2.627   5.479 -0.0894 -0.1915  0.1826
 4399TIP3   OH213160   3.686   2.355   2.430 -0.4013 -0.2903 -0.2565
 4399TIP3    H113161   3.643   2.412   2.494  1.5687 -1.2156  2.0420
 4399TIP3    H213162   3.680   2.267   2.468  1.0399 -0.8432 -1.2129
 4400TIP3   OH213163   2.700   4.086   3.420  0.6992  0.1062 -0.8009
 4400TIP3    H113164   2.720   4.027   3.494  0.7941  0.1330 -0.8046
 4400TIP3    H213165   2.634   4.039   3.369  0.1393  0.3808 -0.3347
 4401TIP3   OH213166   5.791   2.637   5.029  1.2110  0.0484 -0.6358
 4401TIP3    H113167   5.884   2.618   5.013  2.1664  2.4873  1.3163
 4401TIP3    H213168   5.783   2.638   5.124 -1.2735 -1.7292 -0.7497
 4402TIP3   OH213169   5.521   0.076   2.236  0.1109  0.2238 -0.1892
 4402TIP3    H113170   5.447   0.022   2.263 -1.2282  2.0969  0.0722
 4402TIP3    H213171   5.493   0.116   2.154  1.8947 -1.0053 -1.4691
 4403TIP3   OH213172   5.376   5.861   5.398  0.0940  0.1692 -0.4586
 4403TIP3    H113173   5.324   5.828   5.324  1.1092  0.9880 -1.5975
 4403TIP3    H213174   5.382   5.787   5.458  0.1101 -0.8900 -1.7037
 4404TIP3   OH213175   6.935   2.483   1.250  0.2524  0.2447  0.1178
 4404TIP3    H113176   6.880   2.534   1.190  1.1407 -0.4229 -1.3283
 4404TIP3    H213177   6.874   2.423   1.294 -0.1859 -0.6951 -1.6733
 4405TIP3   OH213178   2.814   4.084   5.617 -0.2520  0.4993 -0.1220
 4405TIP3    H113179   2.827   4.171   5.654 -0.6623 -0.2254  1.9035
 4405TIP3    H213180   2.720   4.067   5.628 -0.2634 -0.0191 -0.9206
 4406TIP3   OH213181   6.853   5.854   2.642  0.1685  0.4454  0.2690
 4406TIP3    H113182   6.857   5.890   2.554 -3.0576  1.3238  0.3441
 4406TIP3    H213183   6.856   5.930   2.700  0.4329  0.0302  0.8145
 4407TIP3   OH213184   6.228   4.107   5.365 -0.7165  0.0235 -0.8544
 4407TIP3    H113185   6.300   4.166   5.341 -0.3200  0.2175  0.6766
 4407TIP3    H213186   6.179   4.156   5.431 -1.1888 -0.8227 -0.5749
 4408TIP3   OH213187   5.018   2.009   4.043  0.2874 -0.6965 -1.0265
 4408TIP3    H113188   5.104   1.980   4.012  1.5532  1.3104  0.3673
 4408TIP3    H213189   5.003   1.960   4.124  0.2727 -0.8089 -1.0971
 4409TIP3   OH213190   4.603   1.693   0.441 -0.3622  0.0160  0.1967
 4409TIP3    H113191   4.676   1.713   0.499  1.8085 -1.7207 -1.7397
 4409TIP3    H213192   4.600   1.598   0.438 -0.3286  0.0121 -2.4717
 4410TIP3   OH213193   1.353   1.881   0.854  0.0164 -0.3237  0.3161
 4410TIP3    H113194   1.321   1.957   0.805 -0.3396 -1.6776 -1.6926
 4410TIP3    H213195   1.282   1.859   0.913 -0.1574  0.4764  0.4205
 4411TIP3   OH213196   3.208   3.045   4.701 -0.3665  0.1158  0.2235
 4411TIP3    H113197   3.192   3.122   4.646  0.9098  0.4687  0.2995
 4411TIP3    H213198   3.302   3.048   4.719 -0.2322 -1.6455 -0.0223
 4412TIP3   OH213199   3.020   4.222   2.641 -0.4611  0.1047 -0.2629
 4412TIP3    H113200   2.946   4.280   2.624 -0.2630  0.8039  1.1396
 4412TIP3    H213201   3.088   4.251   2.580 -0.7487  0.5825 -0.3608
 4413TIP3   OH213202   1.065   1.954   5.363  0.8045 -0.0744 -0.5767
 4413TIP3    H113203   1.123   1.940   5.438  0.2157  0.1618 -0.0727
 4413TIP3    H213204   1.125   1.962   5.289  1.4833  1.0159  0.0563
 4414TIP3   OH213205   1.317   5.542   2.528  0.1146  0.3211  0.2258
 4414TIP3    H113206   1.283   5.469   2.580  0.6354 -0.4755 -0.5276
 4414TIP3    H213207   1.289   5.523   2.438 -1.0028  1.8207  0.2176
 4415TIP3   OH213208   2.909   1.446   1.849 -0.4135 -0.1852  0.3880
 4415TIP3    H113209   2.866   1.520   1.893  0.0136  0.8466 -0.8430
 4415TIP3    H213210   2.838   1.395   1.811 -0.6562  0.4623 -0.0473
 4416TIP3   OH213211   2.318   4.241   3.130 -0.1391 -0.2571  0.4928
 4416TIP3    H113212   2.391   4.293   3.096 -0.2067 -0.2282  0.3899
 4416TIP3    H213213   2.358   4.177   3.188  0.1480 -1.3776 -0.8994
 4417TIP3   OH213214   4.009   3.448   4.858  0.7914  0.1108  0.4654
 4417TIP3    H113215   3.979   3.449   4.949  0.9888  0.5342  0.5252
 4417TIP3    H213216   3.974   3.366   4.823  1.0132 -0.2252  1.0224
 4418TIP3   OH213217   0.300   6.759   4.232  0.6346  0.0102  0.1703
 4418TIP3    H113218   0.355   6.701   4.284  0.0119 -1.4083 -0.6790
 4418TIP3    H213219   0.214   6.716   4.230  0.4695  0.3214 -1.4778
 4419TIP3   OH213220   5.887   6.147   3.547 -0.1185 -0.1311  0.4189
 4419TIP3    H113221   5.877   6.053   3.561  0.8199 -0.2703  0.1953
 4419TIP3    H213222   5.971   6.168   3.589 -1.3987  1.0460  2.5960
 4420TIP3   OH213223   0.960   2.625   0.668  0.9665 -0.2315 -0.2776
 4420TIP3    H113224   0.911   2.545   0.690 -1.2593  1.2623  0.4821
 4420TIP3    H213225   0.995   2.656   0.752 -1.0262  1.3428  0.0266
 4421TIP3   OH213226   1.894   0.530   3.924 -0.2394 -0.3544  0.0939
 4421TIP3    H113227   1.951   0.599   3.957 -1.0333 -0.5501  1.9976
 4421TIP3    H213228   1.857   0.565   3.843  1.2921  0.4156 -0.2907
 4422TIP3   OH213229   6.906   3.058   2.272 -0.1496  0.0467 -0.3812
 4422TIP3    H113230   6.961   3.126   2.234  1.9227 -0.5650  1.3238
 4422TIP3    H213231   6.945   2.976   2.241 -1.4949 -0.4186 -0.9257
 4423TIP3   OH213232   5.386   0.125   4.080 -0.3127 -0.5688 -0.1382
 4423TIP3    H113233   5.404   0.035   4.053  0.0245 -0.4660 -0.2719
 4423TIP3    H213234   5.291   0.135   4.072 -0.3845 -0.9958  0.1449
 4424TIP3   OH213235   1.702   2.282   0.107 -0.1282  0.2739  0.0414
 4424TIP3    H113236   1.613   2.255   0.127  0.5890 -0.6721  2.2415
 4424TIP3    H213237   1.693   2.358   0.051 -2.2947 -0.4544 -0.6769
 4425TIP3   OH213238   6.866   1.352   3.148 -0.1951  0.3992 -0.0649
 4425TIP3    H113239   6.785   1.399   3.169  0.1202  0.4051  1.2104
 4425TIP3    H213240   6.888   1.381   3.060 -1.9475 -0.1171 -0.7205
 4426TIP3   OH213241   0.262   5.792   4.552  0.3558  0.3128 -0.6743
 4426TIP3    H113242   0.241   5.723   4.489  0.1372 -0.6945  0.4586
 4426TIP3    H213243   0.301   5.746   4.626  0.4268  1.4399  0.0194
 4427TIP3   OH213244   1.254   6.124   3.914  0.2364  0.4440  0.0473
 4427TIP3    H113245   1.178   6.066   3.907  0.0606  0.8280 -1.6893
 4427TIP3    H213246   1.320   6.071   3.957  0.0906 -1.1089 -1.5158
 4428TIP3   OH213247   3.507   0.830   2.472 -0.0620 -0.0649 -0.1644
 4428TIP3    H113248   3.422   0.864   2.498 -0.1308  1.3136 -2.0015
 4428TIP3    H213249   3.490   0.739   2.448 -1.0157  0.1804 -0.4547
 4429TIP3   OH213250   6.063   0.763   0.394  0.6835  0.2300  0.0018
 4429TIP3    H113251   6.072   0.814   0.474  2.0352  1.7786 -1.0480
 4429TIP3    H213252   6.107   0.680   0.413 -0.1199  0.0607  1.2311
 4430TIP3   OH213253   1.232   5.901   4.928  0.2699 -0.4691  0.0903
 4430TIP3    H113254   1.244   5.995   4.913 -0.2947 -0.3278  0.4862
 4430TIP3    H213255   1.208   5.894   5.020  0.9027 -1.0637  0.2181
 4431TIP3   OH213256   3.047   1.607   4.452 -1.1201  0.2551  0.2393
 4431TIP3    H113257   3.117   1.554   4.413  1.0302  2.3019  1.0551
 4431TIP3    H213258   2.984   1.618   4.381 -0.3088 -1.1076 -0.7615
 4432TIP3   OH213259   1.474   4.329   4.491  0.2630  0.2044 -0.3363
 4432TIP3    H113260   1.399   4.327   4.551  0.8435  0.0895  0.3925
 4432TIP3    H213261   1.441   4.288   4.410 -0.4541  0.1468 -0.0190
 4433TIP3   OH213262   2.402   2.512   0.564 -0.1208 -0.4439 -0.2720
 4433TIP3    H113263   2.411   2.548   0.652 -0.9596  1.3585 -0.8796
 4433TIP3    H213264   2.310   2.527   0.542  0.4508  0.6898 -2.0763
 4434TIP3   OH213265   3.577   0.303   1.666 -0.4156 -0.2266  0.0280
 4434TIP3    H113266   3.595   0.397   1.660 -0.0455 -0.3140 -0.2135
 4434TIP3    H213267   3.632   0.272   1.738  0.2246 -0.4480 -0.5542
 4435TIP3   OH213268   2.615   4.924   4.229 -0.7480  0.2784 -0.2472
 4435TIP3    H113269   2.649   5.011   4.251  1.1794 -0.2479 -0.9636
 4435TIP3    H213270   2.604   4.926   4.134 -0.0891 -0.4539 -0.3447
 4436TIP3   OH213271   0.521   0.221   4.371  0.5759 -0.1595  0.0688
 4436TIP3    H113272   0.453   0.154   4.381 -0.4897  1.2215  4.8724
 4436TIP3    H213273   0.473   0.301   4.350  1.2392  0.0564 -0.6459
 4437TIP3   OH213274   5.195   2.814   5.364 -0.7943 -0.2864 -0.0114
 4437TIP3    H113275   5.227   2.904   5.371 -0.4282 -0.4083 -0.1212
 4437TIP3    H213276   5.269   2.760   5.391 -0.5511 -0.6139 -1.3062
 4438TIP3   OH213277   2.202   4.400   3.343 -0.0887  0.4124  1.0930
 4438TIP3    H113278   2.265   4.369   3.278 -0.2949  1.6473  0.2859
 4438TIP3    H213279   2.257   4.430   3.416  0.1109 -3.0635  2.5679
 4439TIP3   OH213280   1.239   2.697   1.760  0.0921 -0.5450  0.7321
 4439TIP3    H113281   1.193   2.679   1.842  1.7503 -0.8276  1.6452
 4439TIP3    H213282   1.237   2.613   1.713 -1.1551 -0.2943  0.2953
 4440TIP3   OH213283   4.579   5.702   2.836  0.7783 -0.4933 -0.8486
 4440TIP3    H113284   4.494   5.743   2.853  1.6779  1.0088  0.3063
 4440TIP3    H213285   4.614   5.682   2.923  2.5063  0.9026 -1.1614
 4441TIP3   OH213286   3.415   6.498   5.454 -0.1074  0.4834 -0.3646
 4441TIP3    H113287   3.493   6.519   5.506 -1.1934  1.2303  1.0343
 4441TIP3    H213288   3.420   6.403   5.442 -1.3212 -0.2891  3.8299
 4442TIP3   OH213289   3.282   4.166   4.210  0.3376 -0.4343  0.4514
 4442TIP3    H113290   3.270   4.239   4.271 -1.4635  0.0523 -0.4127
 4442TIP3    H213291   3.194   4.128   4.200  1.2345 -2.7797  0.9134
 4443TIP3   OH213292   4.772   3.140   3.700  0.1770 -0.2137  0.2829
 4443TIP3    H113293   4.703   3.098   3.648  2.4096 -2.9539 -0.6792
 4443TIP3    H213294   4.768   3.097   3.785  0.2415  0.1474  0.4718
 4444TIP3   OH213295   4.113   1.079   1.015 -0.0536 -0.1155 -0.2428
 4444TIP3    H113296   4.068   1.011   1.067 -1.1393 -0.2751 -1.3456
 4444TIP3    H213297   4.194   1.037   0.987  0.8696  0.1693  1.7656
 4445TIP3   OH213298   6.425   2.445   3.756  0.0051 -0.8470  0.8422
 4445TIP3    H113299   6.376   2.373   3.796 -0.7991  0.5268  2.4172
 4445TIP3    H213300   6.448   2.412   3.669 -0.2693 -3.0236  1.5362
 4446TIP3   OH213301   5.990   4.601   1.382  0.3890 -0.1719 -0.2165
 4446TIP3    H113302   5.905   4.567   1.355  0.1480  1.9128 -2.4488
 4446TIP3    H213303   6.054   4.542   1.342 -0.0294  0.6241 -2.1612
 4447TIP3   OH213304   5.474   4.647   5.241 -0.4401 -0.1817 -0.1936
 4447TIP3    H113305   5.490   4.711   5.311  2.2310 -1.7693  0.7895
 4447TIP3    H213306   5.542   4.664   5.177  0.0383 -1.7004 -0.1249
 4448TIP3   OH213307   6.878   3.000   0.737  0.1480  0.1655  0.4395
 4448TIP3    H113308   6.948   2.973   0.795 -1.3453 -0.7383  1.9195
 4448TIP3    H213309   6.878   3.096   0.741  2.6563  0.3314 -1.3644
 4449TIP3   OH213310   6.659   4.893   0.433 -0.1484 -0.7826 -0.1850
 4449TIP3    H113311   6.726   4.825   0.441  2.3910  1.5769  0.2836
 4449TIP3    H213312   6.693   4.952   0.366 -1.6343  0.6601  0.2581
 4450TIP3   OH213313   2.424   0.092   5.244 -0.0133  0.3460 -0.3306
 4450TIP3    H113314   2.374   0.047   5.312  0.2923  0.3841 -0.0817
 4450TIP3    H213315   2.375   0.074   5.164  0.8669 -1.6489 -0.4894
 4451TIP3   OH213316   2.218   3.754   5.613 -0.3283  0.7812  0.7495
 4451TIP3    H113317   2.178   3.809   5.546 -0.9473  1.0303  1.3192
 4451TIP3    H213318   2.265   3.814   5.670  2.9544  0.3334 -1.2243
 4452TIP3   OH213319   4.162   2.734   2.984 -0.3894 -0.4814 -0.2057
 4452TIP3    H113320   4.114   2.754   2.904 -1.0274 -1.0933  0.0174
 4452TIP3    H213321   4.191   2.820   3.017 -1.5049 -0.0825 -0.2280
 4453TIP3   OH213322   1.771   5.894   1.451 -0.5173 -0.1602  0.2699
 4453TIP3    H113323   1.697   5.955   1.455 -0.5351 -0.2223  1.5173
 4453TIP3    H213324   1.730   5.807   1.443 -0.5148 -0.0814 -0.7145
 4454TIP3   OH213325   3.916   3.983   0.547 -0.4105 -0.5367 -0.3513
 4454TIP3    H113326   3.944   4.035   0.471  1.0817 -0.7264  0.0395
 4454TIP3    H213327   3.906   4.048   0.617 -0.4984 -0.5352 -0.3644
 4455TIP3   OH213328   6.840   1.426   2.063  0.2194 -0.2349  0.1062
 4455TIP3    H113329   6.923   1.380   2.052 -0.9659 -1.9871 -2.3483
 4455TIP3    H213330   6.861   1.518   2.046  2.0116 -0.2800  1.7433
 4456TIP3   OH213331   4.842   1.955   2.117  0.9895 -0.0374  0.2542
 4456TIP3    H113332   4.841   1.998   2.203  0.8913  1.2961 -0.3914
 4456TIP3    H213333   4.835   1.862   2.137 -2.1020  0.3560  1.6130
 4457TIP3   OH213334   2.200   2.762   0.805  0.1373  0.2089 -0.1955
 4457TIP3    H113335   2.281   2.712   0.811 -0.3583 -0.6241 -0.3374
 4457TIP3    H213336   2.221   2.836   0.748  0.4613 -0.6735 -1.2409
 4458TIP3   OH213337   3.097   2.475   5.473  0.0940  0.3733  0.5259
 4458TIP3    H113338   3.058   2.413   5.534  0.2890  0.9993  1.2897
 4458TIP3    H213339   3.153   2.530   5.526  2.3599 -0.7369 -0.5903
 4459TIP3   OH213340   5.115   1.947   2.718  0.5616 -0.7218  0.1732
 4459TIP3    H113341   5.056   2.022   2.723 -0.0843 -1.2626  0.8543
 4459TIP3    H213342   5.197   1.979   2.756  1.1658  0.4201 -1.9281
 4460TIP3   OH213343   6.613   5.269   4.430 -0.0648 -0.6458 -0.8625
 4460TIP3    H113344   6.549   5.331   4.396 -1.2549 -0.5048  1.4269
 4460TIP3    H213345   6.563   5.210   4.487  1.6363 -1.2964  0.0592
 4461TIP3   OH213346   1.551   5.424   4.176 -0.7976  0.2169 -0.0967
 4461TIP3    H113347   1.639   5.452   4.150 -0.8157 -1.2930 -1.9888
 4461TIP3    H213348   1.564   5.339   4.218 -1.0792  1.4205  2.6256
 4462TIP3   OH213349   4.232   0.182   1.677  0.0712  0.2793  0.5523
 4462TIP3    H113350   4.223   0.088   1.658 -0.3433  0.5926 -0.9362
 4462TIP3    H213351   4.326   0.196   1.685  0.0952 -0.4361  1.8776
 4463TIP3   OH213352   6.299   5.844   4.786  0.5397  0.1877  0.4418
 4463TIP3    H113353   6.255   5.759   4.776  1.7538 -0.2065 -2.6210
 4463TIP3    H213354   6.265   5.879   4.868 -1.9732 -2.1097  0.5245
 4464TIP3   OH213355   0.922   5.827   0.371 -0.2158 -0.6158 -0.3148
 4464TIP3    H113356   0.972   5.893   0.419 -0.7298 -0.3264 -0.1784
 4464TIP3    H213357   0.832   5.859   0.371 -0.3101 -0.8504 -1.0552
 4465TIP3   OH213358   3.912   3.718   0.018  0.2277  0.6552 -0.6146
 4465TIP3    H113359   3.906   3.701   0.112 -0.3576  0.9155 -0.6015
 4465TIP3    H213360   3.922   3.813   0.012 -1.0756  0.7971 -0.8589
 4466TIP3   OH213361   1.405   6.183   4.787  0.4271 -0.1299 -0.5448
 4466TIP3    H113362   1.461   6.247   4.743  1.1330 -1.6910 -1.9913
 4466TIP3    H213363   1.337   6.162   4.723 -0.0283 -0.5468  0.0597
 4467TIP3   OH213364   2.592   1.544   2.699  0.3255  0.1644 -0.4562
 4467TIP3    H113365   2.673   1.496   2.681 -0.1189 -0.7640 -0.0640
 4467TIP3    H213366   2.596   1.566   2.792 -0.1255 -0.3973 -0.2965
 4468TIP3   OH213367   0.629   5.020   4.623  0.4450  0.0238  0.3343
 4468TIP3    H113368   0.715   5.046   4.656  1.6987 -2.8846 -0.2960
 4468TIP3    H213369   0.568   5.046   4.692  1.8214  2.0422  0.8587
 4469TIP3   OH213370   3.331   6.482   0.607 -0.1387 -0.1746 -0.2022
 4469TIP3    H113371   3.287   6.488   0.692 -1.1515  2.9298 -0.8321
 4469TIP3    H213372   3.420   6.515   0.624 -0.6023  1.2780 -0.4491
 4470TIP3   OH213373   3.738   4.520   0.455  0.2007 -0.5032  0.6855
 4470TIP3    H113374   3.756   4.576   0.379 -0.5147 -0.9498  0.1691
 4470TIP3    H213375   3.760   4.574   0.531 -1.3012  0.8218  0.2302
 4471TIP3   OH213376   6.791   5.200   1.938  0.0351  0.0907  0.6204
 4471TIP3    H113377   6.787   5.112   1.900 -1.6989 -0.2777  1.5209
 4471TIP3    H213378   6.744   5.255   1.875  0.6529  0.2669  0.3138
 4472TIP3   OH213379   0.904   4.691   2.361  0.0933 -0.2789 -0.0453
 4472TIP3    H113380   0.978   4.680   2.422  0.0870  0.2005  0.0571
 4472TIP3    H213381   0.846   4.753   2.406  0.4181  0.6258 -0.8291
 4473TIP3   OH213382   3.869   1.521   0.847 -0.5924  0.0816 -0.1310
 4473TIP3    H113383   3.888   1.580   0.920 -1.4724 -0.4496  0.5513
 4473TIP3    H213384   3.918   1.441   0.868 -2.7097 -0.9642  1.1752
 4474TIP3   OH213385   0.655   4.166   0.599 -0.4368  0.1106 -0.2871
 4474TIP3    H113386   0.739   4.207   0.576  0.3076 -0.4859  1.2510
 4474TIP3    H213387   0.592   4.238   0.600  0.4897  0.9339  0.6405
 4475TIP3   OH213388   3.995   2.419   4.105  0.2676 -0.7119 -0.3625
 4475TIP3    H113389   3.978   2.335   4.064 -0.2091 -0.3509 -0.9204
 4475TIP3    H213390   3.921   2.474   4.080 -1.6346 -1.2486  3.3500
 4476TIP3   OH213391   4.128   6.279   3.018 -0.6577  0.2162 -0.6651
 4476TIP3    H113392   4.087   6.233   3.091  0.0059 -1.3201 -1.2291
 4476TIP3    H213393   4.056   6.299   2.958 -0.9891  0.1762 -0.2803
 4477TIP3   OH213394   0.752   1.163   1.693 -0.0106  0.2697  0.5033
 4477TIP3    H113395   0.660   1.158   1.667  0.0543  1.2607  0.0232
 4477TIP3    H213396   0.752   1.136   1.785 -0.6179 -0.7920  0.2056
 4478TIP3   OH213397   3.616   5.230   0.134  0.0949  0.5224 -0.4975
 4478TIP3    H113398   3.584   5.191   0.053  0.5761  0.6528 -0.7530
 4478TIP3    H213399   3.677   5.166   0.170 -2.1175 -0.7870  1.1967
 4479TIP3   OH213400   4.584   0.566   5.661  0.4585  0.1951  0.2502
 4479TIP3    H113401   4.677   0.588   5.671  0.1196  1.0612  2.0118
 4479TIP3    H213402   4.555   0.545   5.750 -0.2226 -3.7306 -0.7281
 4480TIP3   OH213403   2.437   0.336   1.626 -0.0144  0.4576 -0.0906
 4480TIP3    H113404   2.413   0.358   1.536  0.3174  0.9573 -0.0646
 4480TIP3    H213405   2.511   0.276   1.617  0.1434  0.6599 -0.1521
 4481TIP3   OH213406   4.456   0.356   4.471  0.0261  0.4242  0.6174
 4481TIP3    H113407   4.528   0.356   4.534 -0.6678 -0.3379  1.4421
 4481TIP3    H213408   4.499   0.358   4.385  1.0259  0.0627  1.0948
 4482TIP3   OH213409   0.715   1.569   1.475 -0.0856 -0.4445  0.4926
 4482TIP3    H113410   0.677   1.511   1.541  1.8458 -1.7310  0.5280
 4482TIP3    H213411   0.648   1.574   1.406 -1.1359 -0.9927  1.4328
 4483TIP3   OH213412   3.967   4.564   5.752 -0.4257 -0.1954 -0.8424
 4483TIP3    H113413   3.901   4.498   5.774 -0.3886  0.7343  2.6692
 4483TIP3    H213414   4.051   4.520   5.765 -0.3824 -0.1466 -0.9508
 4484TIP3   OH213415   5.056   6.364   3.193 -0.0683  0.4066 -0.3607
 4484TIP3    H113416   5.080   6.295   3.131  0.5891  1.2718 -1.0887
 4484TIP3    H213417   5.114   6.350   3.268  0.4463  0.4948 -0.7375
 4485TIP3   OH213418   1.220   1.538   5.764  0.0690  0.4789 -0.2888
 4485TIP3    H113419   1.170   1.489   5.829 -3.7162  1.4073 -2.2213
 4485TIP3    H213420   1.311   1.522   5.786 -0.9725 -0.2385  4.4357
 4486TIP3   OH213421   3.655   0.286   4.535 -0.3875 -0.2137  0.1012
 4486TIP3    H113422   3.606   0.359   4.575  1.8481  2.1698 -1.2317
 4486TIP3    H213423   3.675   0.229   4.609  2.3366  3.2653  2.4339
 4487TIP3   OH213424   3.017   5.480   4.591  0.3163 -0.1563  0.3702
 4487TIP3    H113425   3.079   5.519   4.529  0.9689  2.2368  2.3490
 4487TIP3    H213426   3.072   5.433   4.653  0.1667  1.2795  1.6575
 4488TIP3   OH213427   0.688   5.691   2.639 -0.2618 -0.6364  0.3585
 4488TIP3    H113428   0.711   5.601   2.616  1.0889 -0.2237  0.0181
 4488TIP3    H213429   0.663   5.686   2.732 -0.5871 -1.4166  0.2390
 4489TIP3   OH213430   0.333   5.635   3.150  0.0584  0.2509 -0.4789
 4489TIP3    H113431   0.310   5.593   3.067 -0.4879  1.8203 -1.1733
 4489TIP3    H213432   0.307   5.726   3.138  1.5325  0.8907  0.7988
 4490TIP3   OH213433   5.440   4.572   2.761  0.0778 -0.3469  0.1715
 4490TIP3    H113434   5.503   4.616   2.817 -0.1132 -2.6668  2.3440
 4490TIP3    H213435   5.358   4.619   2.776  0.1698 -0.5516  1.3793
 4491TIP3   OH213436   7.183   2.959   2.086  0.3714 -0.9476 -0.4400
 4491TIP3    H113437   7.131   2.911   2.021 -2.5098  2.3510 -0.8781
 4491TIP3    H213438   7.157   2.923   2.170 -0.5506 -1.2401 -0.8368
 4492TIP3   OH213439   6.491   6.429   4.067 -1.0180 -0.4369 -0.2899
 4492TIP3    H113440   6.439   6.469   4.137 -0.3161 -1.9959  1.2043
 4492TIP3    H213441   6.430   6.423   3.993 -1.8296  1.1257  0.2152
 4493TIP3   OH213442   5.399   0.294   5.128  0.1768  0.1960 -0.0076
 4493TIP3    H113443   5.448   0.218   5.097 -0.6755 -0.0953 -0.6756
 4493TIP3    H213444   5.464   0.349   5.171  0.5604 -1.6903  2.0115
 4494TIP3   OH213445   6.660   5.437   4.070 -0.4057  0.0181  0.1750
 4494TIP3    H113446   6.704   5.492   4.135  0.7150  1.3038 -1.5622
 4494TIP3    H213447   6.614   5.500   4.014  0.1652 -0.8708 -1.3450
 4495TIP3   OH213448   5.814   1.799   0.207  0.0819 -0.1564  0.4917
 4495TIP3    H113449   5.740   1.798   0.147  1.3601 -0.8613 -1.1582
 4495TIP3    H213450   5.782   1.758   0.287 -1.3433 -0.2631 -0.1176
 4496TIP3   OH213451   5.832   4.480   5.582 -0.1050  0.3469 -0.5293
 4496TIP3    H113452   5.861   4.389   5.595 -1.4960 -0.3215 -1.7920
 4496TIP3    H213453   5.738   4.473   5.564 -0.2124  2.0430 -0.7846
 4497TIP3   OH213454   3.167   0.255   4.912 -0.4921 -0.2471 -0.4215
 4497TIP3    H113455   3.112   0.294   4.845  1.3586  1.4372 -1.0678
 4497TIP3    H213456   3.123   0.275   4.995 -1.1340  0.5560 -0.9471
 4498TIP3   OH213457   1.306   1.489   4.745 -0.0582 -0.1583  0.5876
 4498TIP3    H113458   1.299   1.566   4.802 -0.6450 -0.6843  1.2397
 4498TIP3    H213459   1.223   1.485   4.699  0.0593 -0.2753  0.3841
 4499TIP3   OH213460   1.353   0.776   3.575 -0.0354  0.0443 -0.0773
 4499TIP3    H113461   1.374   0.840   3.643  0.8484 -0.4487  0.1381
 4499TIP3    H213462   1.437   0.735   3.555 -0.4035 -0.2935 -0.9848
 4500TIP3   OH213463   0.003   6.652   1.870 -0.5074 -0.4274  0.2037
 4500TIP3    H113464  -0.028   6.735   1.906 -1.3614 -0.2111 -0.9840
 4500TIP3    H213465   0.078   6.676   1.814 -1.5543 -0.2580 -1.1772
 4501TIP3   OH213466   5.737   3.143   2.418 -0.3526 -0.1015 -0.4102
 4501TIP3    H113467   5.831   3.158   2.414 -0.3634  0.0244 -0.2188
 4501TIP3    H213468   5.717   3.140   2.512 -0.6330  0.5059 -0.4468
 4502TIP3   OH213469   5.300   6.771   1.320  0.6141 -0.3752 -0.5546
 4502TIP3    H113470   5.291   6.843   1.381 -1.3187 -0.6352 -0.4804
 4502TIP3    H213471   5.372   6.718   1.356  1.6764  1.1676 -0.3110
 4503TIP3   OH213472   3.895   0.010   5.768  0.2132 -0.3618  0.4151
 4503TIP3    H113473   3.848   0.054   5.839  1.2517 -0.3940  1.1486
 4503TIP3    H213474   3.988   0.018   5.793  0.5757 -0.5757 -0.8233
 4504TIP3   OH213475   3.999   0.576   1.369 -0.2628  0.7313  0.0263
 4504TIP3    H113476   3.951   0.542   1.294 -0.3108  0.2662  0.2691
 4504TIP3    H213477   3.932   0.608   1.429 -0.3855 -1.3994  1.1015
 4505TIP3   OH213478   1.884   2.586   2.787 -0.4521 -0.1222 -0.3701
 4505TIP3    H113479   1.825   2.514   2.766  1.0625 -1.3594 -0.5399
 4505TIP3    H213480   1.910   2.623   2.702 -1.1823  0.6176 -0.2865
 4506TIP3   OH213481   0.152   1.449   5.122 -0.2464 -0.0327 -0.2064
 4506TIP3    H113482   0.107   1.401   5.191  0.2196 -1.3545 -0.7985
 4506TIP3    H213483   0.195   1.522   5.167 -1.1975  0.0198  0.6604
 4507TIP3   OH213484   3.554   6.149   1.135  0.2680  0.1049 -0.4214
 4507TIP3    H113485   3.562   6.182   1.046  1.5241  0.9275 -0.0309
 4507TIP3    H213486   3.526   6.058   1.125  2.6860 -0.5658 -1.7503
 4508TIP3   OH213487   4.073   0.450   4.877  0.0411 -0.5257 -0.2574
 4508TIP3    H113488   4.152   0.475   4.829  0.3933 -1.2490 -0.0582
 4508TIP3    H213489   4.067   0.514   4.948  0.8022 -0.8324  0.0994
 4509TIP3   OH213490   3.654   5.838   5.811 -0.1085  0.1005  0.3458
 4509TIP3    H113491   3.590   5.769   5.792  0.5892 -0.1508 -1.2526
 4509TIP3    H213492   3.701   5.807   5.888 -0.5768 -0.6695  0.3297
 4510TIP3   OH213493   3.151   6.540   2.019 -0.2026  0.1478 -0.0951
 4510TIP3    H113494   3.159   6.561   2.112 -2.3334 -0.2077  0.2311
 4510TIP3    H213495   3.193   6.613   1.974 -0.0617  0.8465  1.1252
 4511TIP3   OH213496   2.305   1.865   3.820 -0.7858 -0.3971 -1.0987
 4511TIP3    H113497   2.292   1.802   3.749  0.5401 -1.1906 -0.6631
 4511TIP3    H213498   2.391   1.903   3.803 -1.3314  0.9206 -1.0486
 4512TIP3   OH213499   1.714   3.656   3.424 -0.2037 -0.8345  0.6736
 4512TIP3    H113500   1.662   3.603   3.485 -2.8453  0.0941 -0.6176
 4512TIP3    H213501   1.654   3.675   3.353  2.2699 -0.4673 -1.4422
 4513TIP3   OH213502   2.123   5.111   2.483 -0.1256  0.1424  0.1259
 4513TIP3    H113503   2.131   5.019   2.460  0.3235  0.2390 -0.0994
 4513TIP3    H213504   2.087   5.153   2.405  2.3435  0.6456 -0.8247
 4514TIP3   OH213505   4.964   5.988   0.742  0.2502 -0.4914  0.2969
 4514TIP3    H113506   5.007   6.071   0.764  0.5957 -0.2443 -1.2197
 4514TIP3    H213507   4.877   5.995   0.783  1.1405 -0.4686  2.3202
 4515TIP3   OH213508   0.320   6.412   5.431  0.2679 -0.1324 -0.3177
 4515TIP3    H113509   0.261   6.357   5.482  0.4432 -0.3221 -0.3174
 4515TIP3    H213510   0.268   6.490   5.410 -0.0208 -0.3471 -0.4141
 4516TIP3   OH213511   4.838   2.903   1.489 -0.0795 -0.2158  0.4230
 4516TIP3    H113512   4.760   2.936   1.534  0.0037 -0.7825  0.9991
 4516TIP3    H213513   4.837   2.947   1.404 -0.4858  0.5366  0.8024
 4517TIP3   OH213514   6.220   4.875   0.952  0.1373  0.2509 -0.1129
 4517TIP3    H113515   6.137   4.871   0.905 -0.1510 -0.4482  0.4533
 4517TIP3    H213516   6.202   4.837   1.037  1.4229 -1.4665 -0.5537
 4518TIP3   OH213517   4.182   3.245   5.421 -0.6727 -0.6759 -0.1202
 4518TIP3    H113518   4.106   3.277   5.373 -0.3570 -1.4069 -1.1286
 4518TIP3    H213519   4.145   3.182   5.483 -1.0620  0.1564  0.5222
 4519TIP3   OH213520   0.238   2.388   3.294  0.2087 -0.3158  0.4758
 4519TIP3    H113521   0.260   2.318   3.355 -1.1859 -1.4611 -0.2687
 4519TIP3    H213522   0.275   2.360   3.210 -1.9480 -1.1561 -0.2624
 4520TIP3   OH213523   3.773   6.322   5.360 -0.4918  0.4217 -0.5160
 4520TIP3    H113524   3.770   6.283   5.447 -3.2709  1.5188 -0.0072
 4520TIP3    H213525   3.768   6.248   5.300  0.0458 -0.2739  0.2691
 4521TIP3   OH213526   4.354   3.094   1.180 -0.1467 -0.1766  0.2204
 4521TIP3    H113527   4.363   3.060   1.091 -0.4280  0.3432 -0.0140
 4521TIP3    H213528   4.424   3.051   1.230 -0.5155 -1.1106 -0.0521
 4522TIP3   OH213529   0.699   5.296   4.438 -0.1626 -0.2646  0.3337
 4522TIP3    H113530   0.739   5.381   4.421  1.3161 -1.2456 -1.4803
 4522TIP3    H213531   0.655   5.306   4.523 -0.4007  2.3932 -0.0224
 4523TIP3   OH213532   6.164   4.060   1.244  0.4654  0.0158  0.1555
 4523TIP3    H113533   6.219   4.097   1.313  0.4410 -0.9389  0.6907
 4523TIP3    H213534   6.104   4.001   1.289 -0.3390  0.2711 -0.5440
 4524TIP3   OH213535   5.692   5.691   2.767  0.0388 -0.0678 -0.2520
 4524TIP3    H113536   5.681   5.785   2.754  0.4624 -0.2068 -1.7400
 4524TIP3    H213537   5.779   5.681   2.805 -0.2558  0.1650  0.5136
 4525TIP3   OH213538   3.138   0.849   5.840 -0.0415 -0.3111  0.0331
 4525TIP3    H113539   3.089   0.792   5.900  0.1151  0.0127  0.4676
 4525TIP3    H213540   3.226   0.811   5.838  0.6026  0.9477  1.7637
 4526TIP3   OH213541   5.049   3.214   5.515 -0.7073  0.6658  0.1513
 4526TIP3    H113542   5.005   3.297   5.502 -1.0881  0.4059 -0.2555
 4526TIP3    H213543   4.981   3.155   5.548 -0.7936  0.1383 -0.9214
 4527TIP3   OH213544   1.572   5.943   3.931 -0.5212 -0.1542  0.0704
 4527TIP3    H113545   1.495   5.921   3.984 -1.5187 -0.2679 -1.3683
 4527TIP3    H213546   1.541   5.939   3.841  1.2584 -0.4809 -0.5719
 4528TIP3   OH213547   6.637   5.866   0.364  0.4396 -0.4146 -0.3288
 4528TIP3    H113548   6.593   5.782   0.356 -0.2897 -0.4960  2.9096
 4528TIP3    H213549   6.730   5.844   0.367  0.2505 -1.1899  0.6209
 4529TIP3   OH213550   4.102   1.804   0.454 -0.2078 -0.4853  0.0225
 4529TIP3    H113551   4.144   1.826   0.371  1.2435 -0.9626  0.6060
 4529TIP3    H213552   4.165   1.748   0.499 -2.7351 -4.0591 -0.4192
 4530TIP3   OH213553   4.370   5.353   3.428  0.7133  0.0663 -0.8762
 4530TIP3    H113554   4.462   5.340   3.452  0.9268  1.2024 -1.0213
 4530TIP3    H213555   4.321   5.330   3.507  1.2239  0.9571 -0.2897
 4531TIP3   OH213556   5.413   4.990   5.599  0.2676 -0.4741 -0.5725
 4531TIP3    H113557   5.404   5.009   5.506  0.0082  1.5837 -0.1779
 4531TIP3    H213558   5.507   4.996   5.616  0.2952 -0.6498 -0.6652
 4532TIP3   OH213559   6.651   2.932   2.192 -0.7121  0.3863  0.8342
 4532TIP3    H113560   6.613   2.967   2.273 -2.1319  0.9431 -0.0361
 4532TIP3    H213561   6.729   2.986   2.177 -2.2354  2.4972  0.1336
 4533TIP3   OH213562   5.754   5.473   1.874 -0.1593 -0.1925 -0.0156
 4533TIP3    H113563   5.706   5.390   1.878 -1.1814  0.4175  0.8561
 4533TIP3    H213564   5.741   5.504   1.784  0.9355 -1.3601 -0.6017
 4534TIP3   OH213565   3.371   0.254   4.714 -0.0638 -0.1518  0.3190
 4534TIP3    H113566   3.305   0.259   4.782  1.2170  0.6243  1.5377
 4534TIP3    H213567   3.392   0.160   4.708 -1.2736 -0.4134 -0.1242
 4535TIP3   OH213568   1.024   6.573   4.183  0.6554  0.0630  0.7142
 4535TIP3    H113569   0.945   6.541   4.140 -0.3032  1.0443  1.6746
 4535TIP3    H213570   1.071   6.620   4.114 -0.7329  1.4088  0.6215
 4536TIP3   OH213571   6.480   6.456   4.819  0.0993 -0.1189 -0.4336
 4536TIP3    H113572   6.494   6.407   4.738 -0.1303  0.4622 -0.8267
 4536TIP3    H213573   6.568   6.477   4.850  0.2861 -2.0903  0.5695
 4537TIP3   OH213574   4.483   5.980   5.768 -0.3763  0.3506 -0.1853
 4537TIP3    H113575   4.559   5.946   5.721 -0.4494  0.3565 -0.3095
 4537TIP3    H213576   4.487   6.075   5.755  0.4864  0.5205  1.1426
 4538TIP3   OH213577   0.642   0.522   1.032  0.3270  0.2286  0.7567
 4538TIP3    H113578   0.693   0.588   0.986  2.4534 -0.4740  1.9927
 4538TIP3    H213579   0.590   0.571   1.095  1.4477  0.7713  1.2686
 4539TIP3   OH213580   2.051   6.223   3.926 -0.3234  0.1350  0.3568
 4539TIP3    H113581   2.077   6.136   3.956  0.3716  0.5284  0.9183
 4539TIP3    H213582   2.088   6.230   3.838  1.4864  0.6585  1.1118
 4540TIP3   OH213583   0.405   3.571   1.772  0.6774  0.6873  0.0472
 4540TIP3    H113584   0.492   3.578   1.735  0.5892 -0.2161 -0.3587
 4540TIP3    H213585   0.379   3.662   1.791  2.7558  0.8400  2.7067
 4541TIP3   OH213586   0.440   2.999   3.031 -0.1325  0.3823 -0.2784
 4541TIP3    H113587   0.466   2.919   2.985 -0.6818 -0.6484  1.1203
 4541TIP3    H213588   0.522   3.039   3.058  0.1531 -1.2526  1.4885
 4542TIP3   OH213589   5.434   3.692   1.383 -0.1711  0.1338 -0.3091
 4542TIP3    H113590   5.394   3.770   1.422  0.2040 -0.2122  0.8278
 4542TIP3    H213591   5.524   3.692   1.416 -0.4209 -1.2421  0.4701
 4543TIP3   OH213592   6.217   2.115   3.576  0.6979 -0.3721  0.1243
 4543TIP3    H113593   6.227   2.106   3.671 -1.4903  0.9374  0.5685
 4543TIP3    H213594   6.190   2.028   3.547  1.2902 -0.7624  0.7072
 4544TIP3   OH213595   4.223   4.297   4.875 -0.3725  0.4657 -0.5507
 4544TIP3    H113596   4.297   4.244   4.904 -0.7427  1.4509  2.5265
 4544TIP3    H213597   4.258   4.386   4.869 -1.4947  1.2845  2.6530
 4545TIP3   OH213598   2.747   0.215   3.579 -0.1677  0.0642 -0.2656
 4545TIP3    H113599   2.790   0.131   3.560 -1.5024 -0.3459 -1.6927
 4545TIP3    H213600   2.771   0.271   3.505  0.1482  0.7245  0.3320
 4546TIP3   OH213601   5.113   6.478   5.236  0.1821  0.0737 -0.4548
 4546TIP3    H113602   5.035   6.485   5.182 -0.2646 -0.1130  0.1618
 4546TIP3    H213603   5.096   6.403   5.293  0.0394  1.1259  0.9311
 4547TIP3   OH213604   6.841   0.842   0.622 -0.0130  0.7402  0.3187
 4547TIP3    H113605   6.787   0.789   0.681 -0.8320 -0.1994 -1.1996
 4547TIP3    H213606   6.877   0.779   0.560 -2.8995  2.0686 -2.9910
 4548TIP3   OH213607   6.691   5.377   5.277  0.1426 -0.9481  0.2937
 4548TIP3    H113608   6.672   5.382   5.183  1.3443  1.4706  0.1185
 4548TIP3    H213609   6.634   5.442   5.317  0.9250 -0.6720  0.9971
 4549TIP3   OH213610   1.990   0.569   1.402 -0.5651 -0.0321 -0.3172
 4549TIP3    H113611   1.921   0.610   1.455 -1.6532 -2.0228 -0.0789
 4549TIP3    H213612   1.968   0.593   1.312 -3.0378 -2.4776 -0.4915
 4550TIP3   OH213613   3.415   6.115   3.736  0.1787 -0.1172  0.3862
 4550TIP3    H113614   3.463   6.045   3.693  0.0917 -0.5432  0.9675
 4550TIP3    H213615   3.328   6.078   3.754  0.1974  0.0656  0.8741
 4551TIP3   OH213616   0.161   4.942   2.651 -0.1309  0.0239  0.2925
 4551TIP3    H113617   0.112   4.885   2.711 -1.9024 -0.1120 -1.2002
 4551TIP3    H213618   0.094   4.984   2.598  1.3205  1.2000 -0.6882
 4552TIP3   OH213619   0.119   3.001   5.105 -0.1044  0.3263 -0.2067
 4552TIP3    H113620   0.181   3.069   5.130  0.1881 -0.6824  2.0003
 4552TIP3    H213621   0.147   2.974   5.018  0.1768  2.5305 -0.8628
 4553TIP3   OH213622   6.364   4.431   4.204 -0.0470 -0.8230 -0.3047
 4553TIP3    H113623   6.318   4.514   4.193  0.3131 -0.6750 -0.7509
 4553TIP3    H213624   6.457   4.455   4.202  0.0540 -1.1528  0.2736
 4554TIP3   OH213625   3.804   5.549   1.799  0.0096 -0.1366 -0.0748
 4554TIP3    H113626   3.746   5.476   1.778  0.8543 -0.6698 -0.6549
 4554TIP3    H213627   3.819   5.592   1.715 -0.4833  0.7173  0.2672
 4555TIP3   OH213628   1.053   4.598   0.752 -0.1908  0.8067  0.6664
 4555TIP3    H113629   1.012   4.657   0.814  1.1283  2.6163 -0.0744
 4555TIP3    H213630   1.069   4.652   0.674  2.6588  0.0196  0.5767
 4556TIP3   OH213631   2.258   1.459   0.586 -0.1987 -0.3349 -0.4114
 4556TIP3    H113632   2.272   1.402   0.662 -0.0801 -0.4411 -0.5133
 4556TIP3    H213633   2.340   1.454   0.536 -0.4762 -0.7026 -0.8364
 4557TIP3   OH213634   5.581   1.428   2.455  0.5438  0.4015 -0.2271
 4557TIP3    H113635   5.664   1.387   2.476 -0.0157 -0.6502 -0.0110
 4557TIP3    H213636   5.560   1.481   2.532  0.5422 -0.1048  0.1233
 4558TIP3   OH213637   4.635   2.650   3.897  0.5931  0.3026  0.3801
 4558TIP3    H113638   4.656   2.582   3.961  1.0535  0.6825  0.6438
 4558TIP3    H213639   4.560   2.696   3.935 -0.5835 -0.8816 -0.4316
 4559TIP3   OH213640   1.237   5.341   2.336  0.6987  0.3950 -0.2723
 4559TIP3    H113641   1.277   5.254   2.343  0.3857  0.3494  1.2369
 4559TIP3    H213642   1.158   5.336   2.390 -0.4283  1.0243 -1.7916
 4560TIP3   OH213643   5.023   4.747   0.363 -0.0325  0.3751  0.5648
 4560TIP3    H113644   5.090   4.747   0.431  0.3679 -0.1999  0.1816
 4560TIP3    H213645   4.960   4.813   0.391  0.9173  1.2591  0.7050
 4561TIP3   OH213646   6.546   5.750   0.056  0.1498  0.6093 -0.2587
 4561TIP3    H113647   6.639   5.732   0.065  0.4917  1.1867 -2.1594
 4561TIP3    H213648   6.513   5.754   0.146  1.9664  0.5135  0.4447
 4562TIP3   OH213649   4.977   2.942   3.126  0.1221 -0.3975  0.3930
 4562TIP3    H113650   5.000   2.860   3.083 -0.1595 -0.4417  0.3212
 4562TIP3    H213651   5.013   2.935   3.214 -1.3938 -1.3504  0.9800
 4563TIP3   OH213652   0.170   0.378   2.983  0.6569 -0.2343 -0.5582
 4563TIP3    H113653   0.237   0.437   2.950  0.3416 -0.3729 -1.4648
 4563TIP3    H213654   0.116   0.434   3.040  0.0255  0.5212 -1.8434
 4564TIP3   OH213655   0.662   0.708   3.489  0.3505 -0.3478  0.3115
 4564TIP3    H113656   0.723   0.747   3.428  0.3584  0.5593  0.8836
 4564TIP3    H213657   0.633   0.780   3.544 -0.5527 -0.9269  0.6257
 4565TIP3   OH213658   3.954   0.288   3.462  0.6860 -0.5954 -0.1704
 4565TIP3    H113659   3.955   0.312   3.555  0.3432  0.7045 -0.4821
 4565TIP3    H213660   3.888   0.219   3.456 -0.1447  0.1311  0.3729
 4566TIP3   OH213661   5.737   6.532   5.400 -0.6655 -0.0960 -0.2127
 4566TIP3    H113662   5.703   6.582   5.326  0.1754 -1.0526 -1.2799
 4566TIP3    H213663   5.818   6.576   5.424 -3.0292  3.0026  3.2012
 4567TIP3   OH213664   1.299   6.716   2.097 -0.5571  0.3481  0.4992
 4567TIP3    H113665   1.316   6.629   2.060  2.5890  0.8335  0.5164
 4567TIP3    H213666   1.223   6.748   2.049  1.9494  0.0873 -4.1956
 4568TIP3   OH213667   1.697   5.679   3.615  0.6999  0.4866  0.7459
 4568TIP3    H113668   1.606   5.682   3.645  0.9723  1.3155  1.5303
 4568TIP3    H213669   1.697   5.733   3.536  0.5822  0.8270  0.9726
 4569TIP3   OH213670   1.952   3.126   2.052  0.3711 -0.4498 -0.1281
 4569TIP3    H113671   1.967   3.204   2.000  1.6547 -0.9505 -0.5454
 4569TIP3    H213672   1.871   3.089   2.018  1.0769 -0.6618 -1.6669
 4570TIP3   OH213673   4.016   3.466   3.891  0.7475  0.5530 -0.1736
 4570TIP3    H113674   4.066   3.416   3.956  0.4783  0.2009 -0.2302
 4570TIP3    H213675   3.926   3.461   3.922  0.3219 -1.1439 -1.4813
 4571TIP3   OH213676   6.386   1.922   0.985  1.0461 -0.0617 -0.0341
 4571TIP3    H113677   6.366   1.941   0.893  0.2631 -2.9034 -0.5680
 4571TIP3    H213678   6.449   1.850   0.981  2.3038  0.8703  1.7058
 4572TIP3   OH213679   5.723   1.707   2.179  0.0196 -0.4182  0.3224
 4572TIP3    H113680   5.739   1.795   2.214 -1.3383  0.5182 -1.2179
 4572TIP3    H213681   5.720   1.720   2.084 -2.1137 -1.7592  0.1361
 4573TIP3   OH213682   6.494   1.626   3.353  0.0852  0.5941  0.6912
 4573TIP3    H113683   6.434   1.576   3.298 -3.1192  3.8450  0.8603
 4573TIP3    H213684   6.551   1.671   3.291  1.9454 -1.8750  0.4945
 4574TIP3   OH213685   5.538   4.711   4.509  0.5441  0.6396  0.3858
 4574TIP3    H113686   5.465   4.759   4.470  0.7426  0.8963  0.3272
 4574TIP3    H213687   5.500   4.668   4.586  0.3031  0.6721  0.2852
 4575TIP3   OH213688   0.492   2.775   4.461 -0.2660  0.2554 -0.0258
 4575TIP3    H113689   0.564   2.826   4.426  0.1818 -0.6649 -0.4788
 4575TIP3    H213690   0.437   2.754   4.385 -0.2828 -0.1872  0.1036
 4576TIP3   OH213691   3.971   1.545   4.982 -0.1647 -0.1509  0.3010
 4576TIP3    H113692   3.887   1.526   4.942 -0.4121 -0.8187  1.1146
 4576TIP3    H213693   3.961   1.520   5.074  1.2489 -1.2951  0.1821
 4577TIP3   OH213694   3.428   5.729   3.293 -0.2612  0.3263  0.1832
 4577TIP3    H113695   3.446   5.789   3.366 -0.0815 -0.6510  0.9603
 4577TIP3    H213696   3.349   5.682   3.319 -1.3887  1.3821 -1.1821
 4578TIP3   OH213697   5.377   3.197   3.289  0.1678  0.2932  0.0693
 4578TIP3    H113698   5.295   3.148   3.286  0.3510 -0.2679  2.6200
 4578TIP3    H213699   5.433   3.154   3.225 -1.0058 -0.2712 -0.6085
 4579TIP3   OH213700   4.983   1.622   1.216 -0.1734 -0.2610 -0.0074
 4579TIP3    H113701   4.987   1.662   1.129 -1.1559  0.4113  0.2524
 4579TIP3    H213702   5.022   1.535   1.203 -0.9633 -0.4503 -1.2747
 4580TIP3   OH213703   0.722   4.754   4.558  0.3738 -0.2089 -0.1925
 4580TIP3    H113704   0.664   4.697   4.507 -0.4746 -0.7964  1.3618
 4580TIP3    H213705   0.669   4.832   4.576  0.3505 -0.3810  0.5093
 4581TIP3   OH213706   3.765   0.896   3.290 -0.0837 -0.7638 -0.3698
 4581TIP3    H113707   3.694   0.832   3.288 -1.2182  0.4714 -2.1272
 4581TIP3    H213708   3.830   0.857   3.348 -3.0587 -1.0143  3.1905
 4582TIP3   OH213709   7.167   3.080   4.080 -0.7027  0.4362 -0.0098
 4582TIP3    H113710   7.111   3.154   4.056 -0.4654  0.7512  0.3829
 4582TIP3    H213711   7.243   3.120   4.122 -0.1654  0.0113 -0.5691
 4583TIP3   OH213712   1.193   0.964   4.247 -0.1343 -0.3605  0.3003
 4583TIP3    H113713   1.159   1.047   4.281 -0.9706 -1.3881  2.1038
 4583TIP3    H213714   1.284   0.961   4.275 -0.6951 -0.9958  2.1658
 4584TIP3   OH213715   3.938   4.438   3.635  0.3646  0.1393 -0.7199
 4584TIP3    H113716   3.885   4.467   3.709 -0.7292 -0.5211 -1.2140
 4584TIP3    H213717   4.013   4.395   3.674  0.4642  0.9518  0.0027
 4585TIP3   OH213718   2.032   4.952   3.362  0.3658  0.4064 -0.1894
 4585TIP3    H113719   2.012   4.860   3.379  0.1960  0.8828  2.7417
 4585TIP3    H213720   2.117   4.951   3.318  1.9288 -1.1381  2.6079
 4586TIP3   OH213721   1.028   5.244   2.478 -0.0077 -0.0646 -0.1791
 4586TIP3    H113722   0.952   5.301   2.489  1.1714  1.6936 -0.7669
 4586TIP3    H213723   1.015   5.202   2.393  1.1016  2.6344 -1.8005
 4587TIP3   OH213724   1.806   1.893   5.457 -0.4737 -0.5616 -0.0050
 4587TIP3    H113725   1.779   1.931   5.373  2.2809 -0.7274 -1.0946
 4587TIP3    H213726   1.816   1.800   5.438  0.2858 -0.5771  0.4336
 4588TIP3   OH213727   0.388   2.283   5.156 -0.8622  0.1260  0.8310
 4588TIP3    H113728   0.383   2.272   5.061  3.3580 -0.5357  0.4785
 4588TIP3    H213729   0.357   2.199   5.191  1.5511 -1.3541 -0.3081
 4589TIP3   OH213730   6.823   6.091   4.647  0.0683  0.5030 -0.1895
 4589TIP3    H113731   6.811   6.180   4.614  1.0174  1.0440  0.8492
 4589TIP3    H213732   6.852   6.103   4.738 -2.7823 -0.8807  1.0555
 4590TIP3   OH213733   6.131   2.448   1.622  0.2104  0.0107 -0.3378
 4590TIP3    H113734   6.113   2.433   1.715  0.2359  1.8070 -0.0081
 4590TIP3    H213735   6.226   2.445   1.614  0.2305  0.2750 -0.2143
 4591TIP3   OH213736   4.701   1.953   4.249 -0.3481  0.1960 -0.0970
 4591TIP3    H113737   4.795   1.941   4.264 -0.1214  0.4074 -1.2843
 4591TIP3    H213738   4.681   1.896   4.175 -1.7081 -1.8295  1.6903
 4592TIP3   OH213739   2.924   2.071   3.902 -0.0416  0.3049  0.1172
 4592TIP3    H113740   2.865   2.136   3.940  0.7980  0.2523  1.5702
 4592TIP3    H213741   3.012   2.104   3.920  0.3895 -0.5177 -0.4148
 4593TIP3   OH213742   4.125   1.698   4.687  0.3644  0.7723 -0.1351
 4593TIP3    H113743   4.217   1.695   4.659 -0.2830  0.5156 -2.4081
 4593TIP3    H213744   4.107   1.609   4.717  1.0079  0.9898  0.9662
 4594TIP3   OH213745   1.424   6.580   4.099  0.1804 -0.0799  0.1428
 4594TIP3    H113746   1.351   6.634   4.068  1.5267  0.9084 -1.4080
 4594TIP3    H213747   1.399   6.491   4.075 -1.0866  0.0591  0.8187
 4595TIP3   OH213748   1.325   3.639   1.399 -0.4665 -0.4720  0.5612
 4595TIP3    H113749   1.403   3.591   1.370 -0.6495 -0.3634 -0.1296
 4595TIP3    H213750   1.324   3.718   1.345 -0.7461 -0.1961  0.9654
 4596TIP3   OH213751   7.129   3.344   5.392  0.5770  0.2372 -0.1706
 4596TIP3    H113752   7.172   3.270   5.437 -1.2180 -1.1724 -0.6489
 4596TIP3    H213753   7.036   3.324   5.396  0.1126  1.9021 -1.3766
 4597TIP3   OH213754   1.919   6.226   5.818 -0.0357  0.2879 -0.4956
 4597TIP3    H113755   1.867   6.305   5.823 -0.8384 -0.2693  0.2033
 4597TIP3    H213756   1.909   6.196   5.727  1.8571  1.9981 -1.3545
 4598TIP3   OH213757   0.600   4.682   3.548  0.1787 -0.1401  0.4420
 4598TIP3    H113758   0.690   4.671   3.580  0.5563  0.6278 -0.3193
 4598TIP3    H213759   0.547   4.628   3.607  1.2596 -1.5026  0.2426
 4599TIP3   OH213760   2.809   2.014   0.036  0.2827  0.3922  0.0823
 4599TIP3    H113761   2.890   1.962   0.037  3.0809  4.3292  0.0304
 4599TIP3    H213762   2.800   2.046   0.125  0.1577  1.8347 -0.4266
 4600TIP3   OH213763   6.552   5.939   2.476 -0.3669 -0.2285  0.3138
 4600TIP3    H113764   6.546   5.880   2.551 -4.8919  0.5314  0.8309
 4600TIP3    H213765   6.521   5.887   2.402 -1.8478  0.6745  0.2591
 4601TIP3   OH213766   0.021   3.703   1.885 -0.4410 -0.2978  0.2919
 4601TIP3    H113767   0.099   3.749   1.855 -0.4870 -1.1463 -1.2276
 4601TIP3    H213768   0.055   3.632   1.939 -0.1312 -0.7806 -0.5223
 4602TIP3   OH213769   1.391   0.038   2.941  0.3763 -0.0625  0.3791
 4602TIP3    H113770   1.397   0.092   2.862  1.1057 -0.0960  0.4082
 4602TIP3    H213771   1.390  -0.052   2.909 -0.1059 -0.0603  0.3729
 4603TIP3   OH213772   5.690   3.222   4.823 -0.0572 -0.0829 -0.1200
 4603TIP3    H113773   5.666   3.135   4.854 -1.6447 -0.1641 -1.4767
 4603TIP3    H213774   5.721   3.209   4.734  0.8233  0.6119  0.0647
 4604TIP3   OH213775   2.847   5.442   0.754  0.3003 -0.0637  0.5929
 4604TIP3    H113776   2.843   5.521   0.808 -2.3698 -0.5302  1.2183
 4604TIP3    H213777   2.826   5.371   0.814  0.8586 -1.0492 -0.3390
 4605TIP3   OH213778   6.026   5.681   2.229  0.5291  0.5625  0.3067
 4605TIP3    H113779   6.017   5.675   2.134 -2.5209  0.3494  0.5167
 4605TIP3    H213780   6.023   5.591   2.259 -0.1669  0.7177  0.7079
 4606TIP3   OH213781   1.662   3.980   2.176  0.4999 -0.8198  0.1389
 4606TIP3    H113782   1.708   3.898   2.195 -2.0650 -1.9006  2.3139
 4606TIP3    H213783   1.661   4.027   2.259  1.3332  1.1935 -0.9191
 4607TIP3   OH213784   6.947   6.413   3.106 -0.0674  0.0370  0.3081
 4607TIP3    H113785   7.025   6.396   3.053 -1.1576  0.2877 -1.4961
 4607TIP3    H213786   6.975   6.476   3.172  1.0480  0.8507 -0.8984
 4608TIP3   OH213787   5.997   0.292   4.057 -0.0890 -0.0951  0.0555
 4608TIP3    H113788   6.091   0.305   4.062  0.0071  1.7561 -3.4626
 4608TIP3    H213789   5.960   0.381   4.063 -1.1194 -0.1441 -3.2758
 4609TIP3   OH213790   3.626   6.560   4.136  0.0509  0.3392  0.1450
 4609TIP3    H113791   3.687   6.505   4.184 -0.9434 -1.0092 -0.0765
 4609TIP3    H213792   3.669   6.646   4.132  1.1838 -0.1391  1.3737
 4610TIP3   OH213793   6.626   6.690   5.094  0.7523  0.6616 -0.2505
 4610TIP3    H113794   6.654   6.728   5.010  0.6706 -1.1967 -1.1812
 4610TIP3    H213795   6.653   6.598   5.088  1.9774  0.7925  2.3583
 4611TIP3   OH213796   0.400   3.800   3.173 -0.6274 -0.2010  0.0579
 4611TIP3    H113797   0.462   3.785   3.245 -1.0050  0.1506  0.4661
 4611TIP3    H213798   0.404   3.894   3.157 -0.6726 -0.2525 -0.2663
 4612TIP3   OH213799   5.585   2.970   3.981 -0.0755 -0.0796 -0.0953
 4612TIP3    H113800   5.661   2.914   3.997  1.2392  1.2583 -1.3426
 4612TIP3    H213801   5.552   2.992   4.069 -0.6778 -2.7530  0.4348
 4613TIP3   OH213802   4.297   3.305   2.911 -0.0268  0.6694 -0.4305
 4613TIP3    H113803   4.239   3.322   2.985  0.3156  0.8455 -0.2002
 4613TIP3    H213804   4.324   3.392   2.881  1.0848  0.5744  0.2375
 4614TIP3   OH213805   4.156   3.657   4.774  0.0021  0.2767 -0.2697
 4614TIP3    H113806   4.236   3.672   4.825 -0.2904  0.3585  0.1672
 4614TIP3    H213807   4.125   3.571   4.804  0.5048 -0.2584 -1.2158
 4615TIP3   OH213808   6.892   5.509   1.888  0.5041  0.0341 -0.4750
 4615TIP3    H113809   6.960   5.457   1.846 -0.3556 -0.4977 -1.2365
 4615TIP3    H213810   6.866   5.458   1.964  1.2326  0.4382  0.0603
 4616TIP3   OH213811   5.899   5.866   4.983  0.1388  0.1150 -0.5585
 4616TIP3    H113812   5.815   5.832   4.953  0.2606  0.3169 -1.1408
 4616TIP3    H213813   5.886   5.961   4.991  0.2624  0.1271 -0.4821
 4617TIP3   OH213814   5.641   5.502   1.627 -0.3354 -0.1168 -0.2077
 4617TIP3    H113815   5.550   5.499   1.598 -0.5781 -0.8951  0.6037
 4617TIP3    H213816   5.664   5.595   1.624 -1.0431  0.0482 -0.7562
 4618TIP3   OH213817   4.219   5.704   2.401  0.4322 -0.0280  0.3829
 4618TIP3    H113818   4.185   5.647   2.470  1.1560 -0.9065  0.0232
 4618TIP3    H213819   4.272   5.768   2.448  0.6650 -0.4303  0.6727
 4619TIP3   OH213820   5.217   4.407   0.073  0.5712  0.0303  0.0737
 4619TIP3    H113821   5.197   4.434  -0.017  1.0774  0.4636  0.0883
 4619TIP3    H213822   5.239   4.314   0.066 -2.5954 -0.8496  0.2238
 4620TIP3   OH213823   0.648   4.454   4.469  0.1312 -0.9457  0.5111
 4620TIP3    H113824   0.569   4.508   4.468 -1.4804 -3.1485 -0.9809
 4620TIP3    H213825   0.632   4.389   4.536  0.9068 -1.1351  0.5221
 4621TIP3   OH213826   4.510   0.169   2.300 -0.2176  0.0575  0.3725
 4621TIP3    H113827   4.507   0.215   2.384  0.5947  1.0376 -0.1043
 4621TIP3    H213828   4.580   0.214   2.252  0.0617 -1.1872 -0.4175
 4622TIP3   OH213829   3.135   2.736   1.472 -0.0645 -0.0593 -0.0342
 4622TIP3    H113830   3.179   2.816   1.503 -0.6599  0.0771  0.4724
 4622TIP3    H213831   3.185   2.665   1.512 -0.5442  0.1064  0.8970
 4623TIP3   OH213832   3.110   4.282   2.950  0.4420 -0.2199 -0.1498
 4623TIP3    H113833   3.028   4.259   2.994  1.1894 -2.5863  0.1649
 4623TIP3    H213834   3.102   4.242   2.863  1.4090 -0.8701  0.0441
 4624TIP3   OH213835   5.185   2.582   1.561 -0.3475  0.1988 -0.0591
 4624TIP3    H113836   5.090   2.594   1.551 -0.2036  0.1142 -1.8524
 4624TIP3    H213837   5.224   2.655   1.513  0.4996 -0.0358  0.2553
 4625TIP3   OH213838   3.849   2.068   3.699 -0.3737  0.0158  0.5234
 4625TIP3    H113839   3.879   1.981   3.726 -0.9484 -0.0765  0.8624
 4625TIP3    H213840   3.767   2.052   3.653 -0.2947  0.3481  0.2599
 4626TIP3   OH213841   4.905   0.549   4.912  0.1803  0.3051 -0.6538
 4626TIP3    H113842   4.897   0.480   4.846  1.8347 -0.3732 -0.1927
 4626TIP3    H213843   4.928   0.628   4.861  0.6678 -0.0381 -0.9805
 4627TIP3   OH213844   2.814   4.834   4.442 -0.2369  0.1669  0.4637
 4627TIP3    H113845   2.736   4.825   4.388 -0.5463 -0.9441  1.0613
 4627TIP3    H213846   2.880   4.873   4.384 -1.2496  1.2509 -0.0113
 4628TIP3   OH213847   5.484   2.259   4.862  0.2487 -0.5123 -0.7399
 4628TIP3    H113848   5.545   2.324   4.827  1.2574 -0.7866  0.4335
 4628TIP3    H213849   5.539   2.199   4.912 -0.9785 -0.8086  0.3073
 4629TIP3   OH213850   0.991   0.124   3.337  0.1658  0.0228  0.5468
 4629TIP3    H113851   0.993   0.049   3.278  1.2144 -0.8243  1.6121
 4629TIP3    H213852   0.902   0.124   3.372  0.6499 -1.8633  1.9056
 4630TIP3   OH213853   6.923   4.952   2.653 -0.5665 -0.6821 -0.1720
 4630TIP3    H113854   6.945   4.867   2.615 -1.2639  0.0111 -2.2803
 4630TIP3    H213855   6.938   5.014   2.582  0.0047  1.0036  1.3384
 4631TIP3   OH213856   4.352   0.236   2.576 -0.1514  0.2764 -0.3011
 4631TIP3    H113857   4.425   0.297   2.568 -0.5434  0.9449  1.0811
 4631TIP3    H213858   4.284   0.284   2.622 -0.7018 -1.0079  0.2903
 4632TIP3   OH213859   2.373   4.113   1.599 -0.3331  0.2524 -0.5447
 4632TIP3    H113860   2.406   4.120   1.509  0.1924 -0.7757 -0.4467
 4632TIP3    H213861   2.359   4.204   1.626 -0.0267  0.5976 -1.4950
 4633TIP3   OH213862   5.042   2.866   0.251  0.0601 -0.4579  0.5740
 4633TIP3    H113863   4.998   2.941   0.211 -0.2221 -0.5973  0.6196
 4633TIP3    H213864   5.102   2.835   0.183  2.4096  1.6067  1.5535
 4634TIP3   OH213865   1.826   5.534   4.159  0.1998  0.1939  0.1206
 4634TIP3    H113866   1.811   5.624   4.187 -0.9027 -0.2556  1.0806
 4634TIP3    H213867   1.912   5.511   4.193 -0.1760  0.3937  1.2500
 4635TIP3   OH213868   0.062   0.824   1.979 -0.2823 -0.1885 -0.2667
 4635TIP3    H113869   0.043   0.766   2.052 -1.1782  0.3394 -0.0714
 4635TIP3    H213870   0.094   0.766   1.910 -1.3254 -0.9413 -0.1395
 4636TIP3   OH213871   3.082   2.102   2.202 -0.2226 -0.0430  0.2752
 4636TIP3    H113872   3.059   2.192   2.227 -0.6807  0.3158 -1.3199
 4636TIP3    H213873   3.039   2.047   2.268 -2.2284  0.8179 -0.2428
 4637TIP3   OH213874   2.513   4.103   0.413 -0.1640  0.2823 -0.1553
 4637TIP3    H113875   2.534   4.168   0.480  3.8411 -0.6329 -0.2349
 4637TIP3    H213876   2.520   4.019   0.459  0.6230 -0.2765 -1.2570
 4638TIP3   OH213877   1.827   5.052   5.390  0.2484  0.3691 -0.3197
 4638TIP3    H113878   1.920   5.075   5.384  0.3179  0.0456 -0.5446
 4638TIP3    H213879   1.812   5.034   5.483  0.1313  1.5471 -0.1001
 4639TIP3   OH213880   0.182   5.953   0.596 -0.0265 -0.2200 -0.0381
 4639TIP3    H113881   0.147   5.930   0.682 -0.0085  1.3051  0.4067
 4639TIP3    H213882   0.212   6.043   0.606  1.5188 -0.5709 -1.1820
 4640TIP3   OH213883   7.161   1.528   1.167 -0.4518  0.1442 -0.1813
 4640TIP3    H113884   7.241   1.478   1.185 -1.2869 -1.0663  0.3509
 4640TIP3    H213885   7.116   1.477   1.099 -1.3667  0.1172  0.4326
 4641TIP3   OH213886   2.629   5.712   4.039  0.0872  0.1218  0.4041
 4641TIP3    H113887   2.613   5.656   4.114  0.5656  0.2221  0.5833
 4641TIP3    H213888   2.557   5.693   3.979 -0.0950 -0.2227  0.7305
 4642TIP3   OH213889   6.087   5.208   2.439  0.4649  0.2025 -0.1989
 4642TIP3    H113890   6.151   5.177   2.375  1.8816  1.6792  0.3994
 4642TIP3    H213891   6.113   5.166   2.521 -1.6516 -2.0859 -0.5945
 4643TIP3   OH213892   0.481   6.450   5.208 -0.1383 -0.1415  0.3832
 4643TIP3    H113893   0.561   6.442   5.260 -0.4334  0.5350  0.9614
 4643TIP3    H213894   0.411   6.452   5.273 -0.7058 -1.5222 -0.1444
 4644TIP3   OH213895   2.070   2.828   5.364  0.1792 -0.8636  0.0033
 4644TIP3    H113896   2.058   2.899   5.301  0.2347 -0.4288  0.4830
 4644TIP3    H213897   2.109   2.757   5.312 -0.0930 -0.6336 -0.5261
 4645TIP3   OH213898   4.192   2.957   4.028 -1.0929 -0.7838 -0.4516
 4645TIP3    H113899   4.287   2.968   4.021 -1.1717  0.8568  0.6769
 4645TIP3    H213900   4.156   3.028   3.975 -1.6469  0.5044  1.5427
 4646TIP3   OH213901   3.080   3.037   5.022  0.2160  0.2382 -0.0655
 4646TIP3    H113902   3.107   2.957   5.065  1.6034  0.7771  0.1088
 4646TIP3    H213903   3.037   3.008   4.942 -2.1856 -0.7760  1.4793
 4647TIP3   OH213904   4.499   1.783   1.174 -0.1567 -0.0322  0.4271
 4647TIP3    H113905   4.519   1.856   1.232  0.8571 -1.1277  1.5319
 4647TIP3    H213906   4.570   1.720   1.189 -0.0337 -0.5213 -1.7689
 4648TIP3   OH213907   1.912   1.708   3.732  0.2483 -0.2542 -0.0874
 4648TIP3    H113908   1.844   1.727   3.796 -1.2515 -2.8161 -0.7965
 4648TIP3    H213909   1.988   1.683   3.785 -0.3021 -0.2980  0.7013
 4649TIP3   OH213910   0.930   5.033   5.589  0.2990  0.8522  0.3095
 4649TIP3    H113911   0.975   5.109   5.551  0.8032  0.2459 -0.3386
 4649TIP3    H213912   1.000   4.969   5.602 -0.3698 -0.1520 -0.8189
 4650TIP3   OH213913   4.466   0.560   2.098  0.2982  0.0100  0.0897
 4650TIP3    H113914   4.453   0.582   2.191  1.1611 -1.3225  0.5569
 4650TIP3    H213915   4.444   0.640   2.051  1.1892  1.1573  1.5481
 4651TIP3   OH213916   2.212   5.293   3.433 -0.3459 -0.6252  0.3567
 4651TIP3    H113917   2.277   5.223   3.437  0.0822 -0.2790 -0.3804
 4651TIP3    H213918   2.144   5.259   3.375 -0.1062 -0.4076 -0.0538
 4652TIP3   OH213919   0.986   2.267   2.717  0.2850  0.1274  0.6457
 4652TIP3    H113920   0.986   2.292   2.809  0.7079  1.5107  0.2927
 4652TIP3    H213921   0.987   2.171   2.718 -2.1803  0.0391  2.0726
 4653TIP3   OH213922   3.494   3.331   4.812 -0.2589  0.2241  0.4280
 4653TIP3    H113923   3.403   3.361   4.818 -0.2533  0.5939 -1.0033
 4653TIP3    H213924   3.487   3.238   4.790 -0.2887  0.2937  0.1446
 4654TIP3   OH213925   6.455   5.557   2.002 -0.6357 -0.0079  0.2767
 4654TIP3    H113926   6.374   5.548   1.951 -0.5510  0.8430 -0.0251
 4654TIP3    H213927   6.487   5.644   1.981 -0.7508  0.4952  1.9980
 4655TIP3   OH213928   4.431   6.480   0.394 -0.0550  0.2709  0.0865
 4655TIP3    H113929   4.469   6.543   0.455  2.5721  0.2653 -1.3981
 4655TIP3    H213930   4.438   6.395   0.439  1.6117  0.3031 -0.0315
 4656TIP3   OH213931   4.170   6.119   4.127 -0.1936 -0.0239 -0.6569
 4656TIP3    H113932   4.258   6.157   4.127 -0.7535  1.3762  0.6504
 4656TIP3    H213933   4.166   6.068   4.209 -0.1966 -1.1269 -1.3247
 4657TIP3   OH213934   0.273   3.643   1.039 -0.5318  0.1164 -0.6817
 4657TIP3    H113935   0.221   3.645   0.959  0.3151 -1.1800 -1.2893
 4657TIP3    H213936   0.244   3.564   1.085  1.3808 -1.0720 -1.4055
 4658TIP3   OH213937   3.139   0.639   0.634  0.2191  0.2031 -0.2619
 4658TIP3    H113938   3.167   0.589   0.557 -2.2016  1.4562 -2.0729
 4658TIP3    H213939   3.177   0.726   0.621  0.1831  0.2910  0.2078
 4659TIP3   OH213940   2.465   4.663   2.079  0.1487  0.0523  0.1774
 4659TIP3    H113941   2.452   4.581   2.127  1.2310 -0.3066 -0.1201
 4659TIP3    H213942   2.485   4.727   2.148 -0.8613  0.1216  0.4257
 4660TIP3   OH213943   6.806   0.047   0.781 -0.2569 -0.0943 -0.0427
 4660TIP3    H113944   6.862  -0.020   0.818  1.6073  0.9353 -0.8901
 4660TIP3    H213945   6.854   0.129   0.793 -0.4877  0.5618 -2.8165
 4661TIP3   OH213946   5.170   6.499   5.615  0.2084  0.0559  0.0953
 4661TIP3    H113947   5.101   6.503   5.681  1.1110  2.1419  0.9975
 4661TIP3    H213948   5.251   6.495   5.666  0.8621  0.2077 -0.9134
 4662TIP3   OH213949   5.583   6.305   1.862  0.0550 -0.4106 -0.9223
 4662TIP3    H113950   5.544   6.279   1.945  0.5626  0.7600 -0.2935
 4662TIP3    H213951   5.677   6.305   1.879  0.2505 -1.5176 -1.9125
 4663TIP3   OH213952   7.135   1.322   2.160  0.0356 -0.0501 -0.5307
 4663TIP3    H113953   7.194   1.394   2.180 -0.6577  0.4420 -0.2017
 4663TIP3    H213954   7.136   1.267   2.239  1.1038 -0.7954 -1.0443
 4664TIP3   OH213955   0.149   2.057   3.318  0.2949 -0.6107 -0.0264
 4664TIP3    H113956   0.136   2.080   3.410 -1.0131 -0.6167 -0.1799
 4664TIP3    H213957   0.229   2.102   3.292 -1.3672  2.7331  0.0842
 4665TIP3   OH213958   5.317   3.356   1.054 -0.0543  0.7880 -0.9809
 4665TIP3    H113959   5.268   3.295   1.110 -0.7957  0.3043 -2.1102
 4665TIP3    H213960   5.357   3.417   1.115 -1.0718  0.4583  0.0695
 4666TIP3   OH213961   1.978   1.973   4.368 -0.2945 -0.0929 -0.4854
 4666TIP3    H113962   1.927   1.899   4.403 -0.7304  0.7081  0.6275
 4666TIP3    H213963   2.069   1.952   4.390 -0.2102 -1.0600 -1.6243
 4667TIP3   OH213964   4.887   6.681   0.304 -0.1539 -0.4188 -0.9839
 4667TIP3    H113965   4.866   6.773   0.322  0.4043 -0.0840 -1.9830
 4667TIP3    H213966   4.815   6.632   0.343 -1.1745  0.5184 -1.6402
 4668TIP3   OH213967   1.346   6.046   3.545 -0.6551 -0.1152  0.2528
 4668TIP3    H113968   1.351   6.013   3.455  0.3581  1.2224 -0.2297
 4668TIP3    H213969   1.436   6.074   3.564 -1.3086  1.7009  0.8431
 4669TIP3   OH213970   0.642   2.582   3.522 -0.7257  0.3838  0.2987
 4669TIP3    H113971   0.638   2.649   3.453  0.1383 -0.7333 -0.8747
 4669TIP3    H213972   0.600   2.505   3.484 -2.2181  0.3652  1.8351
 4670TIP3   OH213973   3.122   2.201   2.521  0.0386  0.8086 -0.0840
 4670TIP3    H113974   3.211   2.224   2.547  0.0816  2.9067 -1.7516
 4670TIP3    H213975   3.067   2.237   2.590  0.4269  0.7742  0.2473
 4671TIP3   OH213976   2.367   1.784   1.292 -0.5075 -0.5026 -0.4271
 4671TIP3    H113977   2.283   1.818   1.322  0.6622  1.6885  0.5762
 4671TIP3    H213978   2.367   1.692   1.319 -1.7938 -0.0443  1.2637
 4672TIP3   OH213979   0.226   2.839   3.073 -0.7587  0.3169 -0.3576
 4672TIP3    H113980   0.195   2.815   2.986 -1.7226 -0.5546  0.2012
 4672TIP3    H213981   0.286   2.912   3.058 -0.6567 -0.0342 -1.7730
 4673TIP3   OH213982   6.705   1.958   2.701 -0.1439  0.2346 -0.8357
 4673TIP3    H113983   6.618   1.974   2.737 -0.0460  0.0409 -0.5060
 4673TIP3    H213984   6.761   1.950   2.778  0.2118  0.6190 -1.0537
 4674TIP3   OH213985   5.940   3.080   0.108  0.3017 -0.7606  0.8531
 4674TIP3    H113986   5.973   3.137   0.038 -4.2814 -0.2912 -1.3073
 4674TIP3    H213987   5.901   3.140   0.172 -0.9003 -1.3006  0.6606
 4675TIP3   OH213988   4.016   6.740   1.868 -0.0995  0.0766 -0.1946
 4675TIP3    H113989   4.049   6.809   1.810 -0.5379  0.9908  0.6224
 4675TIP3    H213990   3.968   6.681   1.810 -0.4295  0.9115 -0.7826
 4676TIP3   OH213991   4.984   5.441   4.460 -0.4459 -0.1230 -0.4812
 4676TIP3    H113992   5.059   5.500   4.466 -0.0907 -0.6348  0.3891
 4676TIP3    H213993   5.019   5.356   4.487 -1.8644  0.1063  2.5180
 4677TIP3   OH213994   1.589   6.547   0.686 -0.0045  0.3232  0.2613
 4677TIP3    H113995   1.518   6.601   0.719  0.6095  1.8571 -0.7984
 4677TIP3    H213996   1.546   6.481   0.631 -0.6559  0.7195  0.2875
 4678TIP3   OH213997   5.372   1.876   4.570  0.4713 -0.5046  0.3186
 4678TIP3    H113998   5.465   1.890   4.556 -0.0407  2.7044 -0.6193
 4678TIP3    H213999   5.362   1.873   4.665  1.4658 -0.6303  0.4307
 4679TIP3   OH214000   5.346   6.502   0.895  0.5127 -0.5542  0.3146
 4679TIP3    H114001   5.354   6.520   0.802  0.7281 -0.4363  0.3567
 4679TIP3    H214002   5.375   6.582   0.938  0.6685 -0.7021  0.4876
 4680TIP3   OH214003   1.154   1.682   0.364  0.1560  0.7433  0.5110
 4680TIP3    H114004   1.117   1.735   0.434 -0.2127  0.4224  0.5622
 4680TIP3    H214005   1.218   1.624   0.408  1.6535  2.1315  0.2623
 4681TIP3   OH214006   0.253   1.315   2.243  0.3728  0.2621  1.0035
 4681TIP3    H114007   0.283   1.369   2.315 -0.6900  1.6120  0.4879
 4681TIP3    H214008   0.285   1.360   2.164 -0.8745  0.4047  0.5523
 4682TIP3   OH214009   6.086   3.102   4.696  0.3605  0.3698  0.0935
 4682TIP3    H114010   6.119   3.117   4.607 -0.5668  0.2068 -0.2903
 4682TIP3    H214011   6.070   3.008   4.700 -0.4513  0.5027  0.1187
 4683TIP3   OH214012   6.592   2.952   5.598 -0.4397 -0.3246  0.3466
 4683TIP3    H114013   6.514   2.942   5.544 -0.7773 -1.5594  1.0242
 4683TIP3    H214014   6.663   2.911   5.548  0.0624  1.7281 -0.7553
 4684TIP3   OH214015   3.545   1.765   1.942  0.7998 -0.1362 -0.0282
 4684TIP3    H114016   3.525   1.795   1.853  0.5167  0.3916  0.2145
 4684TIP3    H214017   3.632   1.800   1.960 -0.4406  2.5847  1.1343
 4685TIP3   OH214018   7.185   5.854   3.175 -0.0511  0.3015  0.3649
 4685TIP3    H114019   7.127   5.782   3.200 -0.4877  0.2494 -0.7264
 4685TIP3    H214020   7.126   5.919   3.137  0.6773 -0.1088 -1.5582
 4686TIP3   OH214021   3.657   1.456   5.446  0.1442 -0.1801 -0.2043
 4686TIP3    H114022   3.595   1.528   5.441 -2.0243 -1.9779 -0.6972
 4686TIP3    H214023   3.726   1.479   5.384 -1.2184  0.8144 -1.4093
 4687TIP3   OH214024   2.261   6.377   0.700  0.0168 -0.4152 -0.1984
 4687TIP3    H114025   2.169   6.386   0.723  0.7590 -0.2533  3.1556
 4687TIP3    H214026   2.260   6.355   0.607 -3.3148  0.8109 -0.5914
 4688TIP3   OH214027   4.181   1.398   4.296 -0.5087 -0.6573  0.1297
 4688TIP3    H114028   4.217   1.311   4.312  3.7346  1.0508  1.1633
 4688TIP3    H214029   4.111   1.408   4.362  1.9720 -1.7465  3.1758
 4689TIP3   OH214030   1.772   2.992   4.930  0.1764  0.0182 -0.1916
 4689TIP3    H114031   1.781   3.077   4.973 -0.3564 -0.3066  0.5888
 4689TIP3    H214032   1.805   3.007   4.842 -0.0450  1.0770 -0.1181
 4690TIP3   OH214033   4.755   5.280   5.029  0.5662 -0.1060  0.0253
 4690TIP3    H114034   4.725   5.242   5.111 -0.5646 -1.5095 -0.9915
 4690TIP3    H214035   4.840   5.237   5.013  0.8525  0.2682  0.5051
 4691TIP3   OH214036   4.013   4.163   5.002 -0.5170  0.0360 -0.5004
 4691TIP3    H114037   4.057   4.192   5.082 -2.6273  2.0990 -0.0066
 4691TIP3    H214038   4.076   4.185   4.932  1.1204 -1.2961  0.4752
 4692TIP3   OH214039   3.104   4.545   2.091 -0.4819  0.2580 -0.1850
 4692TIP3    H114040   3.100   4.514   2.000  0.1694  0.5260 -0.3129
 4692TIP3    H214041   3.191   4.520   2.121 -0.1773  1.3677 -0.0809
 4693TIP3   OH214042   4.733   2.474   5.049  0.9104  0.3442  0.1450
 4693TIP3    H114043   4.665   2.431   5.101  1.8645 -0.5644  0.6708
 4693TIP3    H214044   4.717   2.568   5.062  0.0235  0.1448  0.5903
 4694TIP3   OH214045   5.714   0.163   2.426 -0.8120 -0.3891 -0.3109
 4694TIP3    H114046   5.670   0.140   2.345 -0.5122  0.9604 -0.8800
 4694TIP3    H214047   5.667   0.114   2.494 -3.5201  1.3251 -0.7992
 4695TIP3   OH214048   0.119   3.706   5.071 -0.4856  0.2693 -0.3125
 4695TIP3    H114049   0.088   3.626   5.027 -1.4363  0.2072  0.4445
 4695TIP3    H214050   0.067   3.776   5.032 -2.1328  0.0896  1.4125
 4696TIP3   OH214051   7.228   1.714   5.750  0.3635  0.0176 -0.5418
 4696TIP3    H114052   7.161   1.775   5.719 -0.0291  0.4438  1.0607
 4696TIP3    H214053   7.204   1.696   5.840  0.8378 -2.0547 -0.7941
 4697TIP3   OH214054   5.908   4.922   4.946 -0.0749 -0.2010 -0.2513
 4697TIP3    H114055   5.919   5.011   4.979 -0.0447 -0.0720 -0.6109
 4697TIP3    H214056   5.996   4.896   4.918 -0.3989  0.2997 -1.7755
 4698TIP3   OH214057   2.045   6.327   0.472  0.0996  0.2735  0.4033
 4698TIP3    H114058   2.015   6.338   0.382  1.1356  0.5360  0.0866
 4698TIP3    H214059   2.126   6.278   0.465 -0.3341 -0.6020  1.2725
 4699TIP3   OH214060   2.126   2.383   2.954  1.2290  0.1861 -0.2547
 4699TIP3    H114061   2.053   2.441   2.973 -1.7936 -1.9472 -4.0235
 4699TIP3    H214062   2.176   2.428   2.885 -0.2735 -0.8888 -2.1311
 4700TIP3   OH214063   6.809   6.818   0.364 -0.2218 -0.0670 -0.2906
 4700TIP3    H114064   6.778   6.813   0.274 -1.1416 -1.7403  0.0679
 4700TIP3    H214065   6.791   6.731   0.400  0.4893  0.4402  1.3946
 4701TIP3   OH214066   5.780   2.767   5.801  0.5119  1.0951 -0.1037
 4701TIP3    H114067   5.720   2.790   5.872 -1.0029 -4.2579  0.8235
 4701TIP3    H214068   5.858   2.732   5.846  0.0932 -1.1039 -0.9597
 4702TIP3   OH214069   4.422   3.135   5.017 -0.1266  0.0309 -0.1328
 4702TIP3    H114070   4.387   3.051   4.986 -0.3496  0.4305 -0.9914
 4702TIP3    H214071   4.390   3.143   5.106  1.4887 -1.7094  0.6958
 4703TIP3   OH214072   0.744   5.236   3.697 -0.4572 -1.0336  0.1726
 4703TIP3    H114073   0.814   5.173   3.680 -0.8192 -1.6900  1.0331
 4703TIP3    H214074   0.774   5.285   3.774 -0.3815 -0.4477 -0.2226
 4704TIP3   OH214075   4.298   3.324   4.840 -0.4144 -0.0055 -0.3882
 4704TIP3    H114076   4.204   3.319   4.855 -0.2546 -0.4903  0.5083
 4704TIP3    H214077   4.330   3.236   4.857  0.0121 -0.2196 -2.1560
 4705TIP3   OH214078   0.083   1.371   2.997  0.1429 -0.1900 -0.1851
 4705TIP3    H114079   0.149   1.331   2.940 -0.8031  0.0679 -1.5176
 4705TIP3    H214080   0.128   1.385   3.080  1.1952 -1.7848 -0.4460
 4706TIP3   OH214081   3.191   0.186   3.992  0.3271  0.2090  0.4031
 4706TIP3    H114082   3.195   0.265   4.046  0.6201  0.2413  0.3384
 4706TIP3    H214083   3.108   0.145   4.015 -0.7706  1.5338 -0.9836
 4707TIP3   OH214084   1.853   6.088   1.094 -0.2497 -0.0151  0.0039
 4707TIP3    H114085   1.838   6.121   1.182 -1.4341  1.3814 -0.6855
 4707TIP3    H214086   1.767   6.060   1.063  0.0928 -0.1945 -0.8305
 4708TIP3   OH214087   2.439   6.588   0.621  0.5263  0.1236  0.9491
 4708TIP3    H114088   2.397   6.669   0.651 -0.1810  0.2384 -0.3065
 4708TIP3    H214089   2.389   6.518   0.663  0.5611  0.3076  1.3071
 4709TIP3   OH214090   6.010   4.432   4.209 -0.5424 -0.6573 -0.4216
 4709TIP3    H114091   6.008   4.523   4.177  0.3363 -0.2840  0.5214
 4709TIP3    H214092   5.922   4.417   4.244  0.3413  1.2965  3.1603
 4710TIP3   OH214093   5.942   2.036   0.171 -0.3057  0.4606  0.1785
 4710TIP3    H114094   5.907   1.947   0.164  0.0392  0.4117 -1.2663
 4710TIP3    H214095   5.865   2.091   0.186 -0.6428  0.0404  0.0202
 4711TIP3   OH214096   4.853   2.299   3.781 -0.7171  0.2685  0.1399
 4711TIP3    H114097   4.863   2.290   3.875  1.2830 -2.5133 -0.2000
 4711TIP3    H214098   4.790   2.232   3.756  0.9198 -1.0453 -0.7165
 4712TIP3   OH214099   3.617   6.814   3.075 -0.0248 -0.5010 -0.4860
 4712TIP3    H114100   3.596   6.774   2.991  1.4556  0.0110 -1.1366
 4712TIP3    H214101   3.561   6.769   3.138 -2.2819  0.1426 -1.9320
 4713TIP3   OH214102   2.703   1.967   2.299 -0.2617 -0.9765 -0.0338
 4713TIP3    H114103   2.724   2.059   2.316  1.0340 -1.0741 -1.0124
 4713TIP3    H214104   2.787   1.925   2.286 -0.8958 -2.0944 -0.6546
 4714TIP3   OH214105   6.974   6.640   4.894  0.4574  0.5456 -0.0315
 4714TIP3    H114106   7.040   6.705   4.915 -0.8347  1.5890  0.9745
 4714TIP3    H214107   6.891   6.682   4.916 -0.4405 -1.3178  0.3547
 4715TIP3   OH214108   0.751   6.156   5.303 -0.3665  0.0681 -0.3472
 4715TIP3    H114109   0.724   6.246   5.322 -0.2403 -0.0395  0.3747
 4715TIP3    H214110   0.794   6.126   5.383 -0.5124 -0.6768 -0.5350
 4716TIP3   OH214111   1.959   5.267   2.670  0.2620 -0.4902  0.0417
 4716TIP3    H114112   1.953   5.353   2.628  0.7438 -0.2280  0.5038
 4716TIP3    H214113   2.048   5.238   2.651 -0.1097 -1.1956 -0.6911
 4717TIP3   OH214114   4.469   0.261   0.739  0.1049 -0.0498 -0.2056
 4717TIP3    H114115   4.447   0.355   0.740  0.8409  0.1322 -0.3312
 4717TIP3    H214116   4.392   0.218   0.775  0.1774  0.7061  0.9108
 4718TIP3   OH214117   6.762   1.150   0.939  0.3809 -0.5396  0.4401
 4718TIP3    H114118   6.689   1.212   0.932 -0.6530 -1.7701 -0.0929
 4718TIP3    H214119   6.735   1.089   1.007  0.4821 -1.5660 -0.4249
 4719TIP3   OH214120   4.071   1.385   2.661 -0.2487 -0.6411  0.0140
 4719TIP3    H114121   4.021   1.461   2.692 -0.0566 -0.4357 -0.1725
 4719TIP3    H214122   4.018   1.349   2.590 -0.2780 -0.6029  0.0163
 4720TIP3   OH214123   0.653   5.203   0.805 -0.3858  0.0474  0.0140
 4720TIP3    H114124   0.649   5.266   0.733  3.3143 -0.6251 -0.9871
 4720TIP3    H214125   0.724   5.233   0.860  1.4242 -2.9929 -0.4113
 4721TIP3   OH214126   4.159   2.789   0.059  0.4134  0.1194 -0.0393
 4721TIP3    H114127   4.234   2.806   0.001  1.0828 -0.9380  0.4812
 4721TIP3    H214128   4.199   2.766   0.143 -0.3168 -3.8104 -0.5745
 4722TIP3   OH214129   6.953   3.265   0.797 -0.4757  0.4106  0.1191
 4722TIP3    H114130   6.955   3.296   0.887  0.7671  0.4548  0.0839
 4722TIP3    H214131   7.036   3.295   0.759 -0.8025  0.0390 -0.9190
 4723TIP3   OH214132   5.710   4.176   2.412  0.5461  0.0865  0.0831
 4723TIP3    H114133   5.631   4.169   2.357  1.1980 -0.3046 -0.8289
 4723TIP3    H214134   5.688   4.242   2.477 -1.1768 -1.2300  0.9433
 4724TIP3   OH214135   0.475   3.194   1.044  0.1360  0.7611 -0.1762
 4724TIP3    H114136   0.513   3.224   1.127 -0.4653 -0.8194  0.7215
 4724TIP3    H214137   0.481   3.099   1.047 -0.7866  0.6227 -1.5191
 4725TIP3   OH214138   2.922   5.064   0.072  0.8708  0.7964 -0.3950
 4725TIP3    H114139   2.992   5.085   0.133  0.6282  2.7682 -0.7204
 4725TIP3    H214140   2.855   5.131   0.088 -0.1303  0.0601 -1.3367
 4726TIP3   OH214141   0.851   0.899   3.574  0.4832  0.2366 -0.0167
 4726TIP3    H114142   0.825   0.931   3.660 -1.9581  0.8175 -0.9006
 4726TIP3    H214143   0.915   0.830   3.592  0.0134  0.3401  2.2567
 4727TIP3   OH214144   1.381   3.940   1.882  0.1173  0.3479 -0.1522
 4727TIP3    H114145   1.471   3.915   1.901 -0.7505 -2.0574  1.2702
 4727TIP3    H214146   1.346   3.972   1.965 -0.8215 -0.4304 -0.2300
 4728TIP3   OH214147   4.533   1.332   4.747 -1.0876 -0.1776  0.4651
 4728TIP3    H114148   4.511   1.300   4.659  0.5999  0.1033 -0.0787
 4728TIP3    H214149   4.628   1.327   4.752 -0.9515  2.1125  1.3815
 4729TIP3   OH214150   4.443   3.708   4.355 -0.4844 -0.4920  0.6928
 4729TIP3    H114151   4.407   3.793   4.330  2.0083 -0.1724 -2.3983
 4729TIP3    H214152   4.380   3.645   4.320  0.8233  0.0877 -3.2850
 4730TIP3   OH214153   6.940   3.913   3.478 -0.3278  0.1161 -0.5239
 4730TIP3    H114154   6.861   3.860   3.478 -0.2412 -0.1176 -2.5103
 4730TIP3    H214155   6.969   3.914   3.569 -3.1961  1.1730  0.4625
 4731TIP3   OH214156   5.511   5.042   2.956 -0.3425  0.2953  0.2600
 4731TIP3    H114157   5.538   5.058   2.866 -2.4588  0.3392 -0.4172
 4731TIP3    H214158   5.544   4.954   2.975  1.5803  0.9233  0.0876
 4732TIP3   OH214159   3.325   2.542   1.589 -0.0311  0.1771 -0.0099
 4732TIP3    H114160   3.414   2.549   1.623 -0.1674  1.4291  0.1551
 4732TIP3    H214161   3.335   2.501   1.504  0.5234 -1.1904  0.6849
 4733TIP3   OH214162   3.401   2.141   1.520 -0.4802  0.5727  0.2156
 4733TIP3    H114163   3.486   2.098   1.530 -0.1813  1.2735  0.7241
 4733TIP3    H214164   3.354   2.085   1.458  0.6202  0.5763 -0.6673
 4734TIP3   OH214165   1.394   1.943   3.716  0.2319  0.0412 -0.2754
 4734TIP3    H114166   1.384   2.036   3.696 -1.0331 -0.1334 -0.5831
 4734TIP3    H214167   1.424   1.903   3.635  1.2508  0.2433 -0.0057
 4735TIP3   OH214168   4.548   1.538   5.337 -0.3439  0.2764 -0.2033
 4735TIP3    H114169   4.568   1.471   5.403  0.6526 -2.1510 -2.7511
 4735TIP3    H214170   4.463   1.512   5.302  1.5977 -2.1999 -3.7714
 4736TIP3   OH214171   4.264   3.524   4.234 -0.3603  0.2351  0.0624
 4736TIP3    H114172   4.262   3.436   4.196 -0.9474  0.6260 -0.8619
 4736TIP3    H214173   4.173   3.554   4.229 -0.3590  0.5012  1.3442
 4737TIP3   OH214174   5.531   6.182   2.483  0.3656  0.4299  0.1294
 4737TIP3    H114175   5.436   6.189   2.498  0.3699  1.2369 -0.1732
 4737TIP3    H214176   5.565   6.143   2.564 -0.1282  0.8479  0.5448
 4738TIP3   OH214177   1.223   3.359   2.527 -0.4799  0.0282  0.3083
 4738TIP3    H114178   1.172   3.356   2.446 -0.0173 -0.6527  0.0339
 4738TIP3    H214179   1.310   3.329   2.502 -0.6779 -1.4672  1.3081
 4739TIP3   OH214180   1.304   1.680   3.757 -0.3849  0.3943 -0.4018
 4739TIP3    H114181   1.335   1.659   3.845 -2.3323 -0.3549  0.1577
 4739TIP3    H214182   1.358   1.754   3.730  0.7493  0.1755  1.1108
 4740TIP3   OH214183   0.282   3.103   0.465  0.5605 -0.0355 -0.3892
 4740TIP3    H114184   0.362   3.154   0.456  0.7105  0.1548  1.5974
 4740TIP3    H214185   0.292   3.056   0.548 -0.6551 -1.3617 -0.9432
 4741TIP3   OH214186   0.897   5.605   5.324 -0.2243 -0.4335  0.6105
 4741TIP3    H114187   0.959   5.569   5.260  0.4712  1.2017  0.2985
 4741TIP3    H214188   0.952   5.632   5.398 -0.8865 -1.2203  1.4059
 4742TIP3   OH214189   1.395   4.168   3.045  0.0991  0.5035  0.0609
 4742TIP3    H114190   1.353   4.169   2.959  0.8944 -1.8142 -0.4430
 4742TIP3    H214191   1.469   4.228   3.037 -0.9685  1.8227 -0.2019
 4743TIP3   OH214192   6.475   6.651   0.081 -0.7344  0.5557  0.5636
 4743TIP3    H114193   6.523   6.570   0.097  0.6132  1.2865  0.3394
 4743TIP3    H214194   6.384   6.629   0.099 -0.4252 -1.0750  0.2570
 4744TIP3   OH214195   5.623   1.091   2.431 -1.0897  0.2343 -0.4743
 4744TIP3    H114196   5.692   1.075   2.495 -1.6763 -2.9074 -0.4520
 4744TIP3    H214197   5.670   1.119   2.352  0.0315 -0.0455  0.0694
 4745TIP3   OH214198   7.067   0.903   4.228 -0.5437  0.0078  0.2674
 4745TIP3    H114199   7.088   0.811   4.219  0.1957  0.1941  0.0713
 4745TIP3    H214200   6.985   0.914   4.180 -0.8604 -0.6254  0.6572
 4746TIP3   OH214201   1.800   1.869   2.467  0.5232 -0.2521  0.6259
 4746TIP3    H114202   1.724   1.875   2.524  1.6000 -0.2292  2.1413
 4746TIP3    H214203   1.845   1.789   2.495  1.6600  0.3492  0.5939
 4747TIP3   OH214204   4.693   2.225   5.735 -0.4602 -0.2097 -0.3401
 4747TIP3    H114205   4.707   2.254   5.825  0.7156 -0.8735 -0.2879
 4747TIP3    H214206   4.658   2.136   5.743  0.2432 -0.5152 -0.5216
 4748TIP3   OH214207   6.292   5.314   3.182 -0.4628  0.4192 -0.3567
 4748TIP3    H114208   6.282   5.330   3.088  2.0360  1.2993 -0.5495
 4748TIP3    H214209   6.305   5.402   3.219  1.6223 -0.1360  0.3348
 4749TIP3   OH214210   3.670   2.534   0.200 -0.2134  0.1359  0.4554
 4749TIP3    H114211   3.684   2.551   0.107  0.6909 -3.7672 -0.3001
 4749TIP3    H214212   3.604   2.464   0.202  1.1468 -1.1903  2.5781
 4750TIP3   OH214213   2.589   2.904   2.291 -0.1121  0.2937 -0.0691
 4750TIP3    H114214   2.593   2.910   2.195 -0.1597  0.0470 -0.0873
 4750TIP3    H214215   2.571   2.811   2.308  2.3124 -0.1994  0.2450
 4751TIP3   OH214216   3.444   4.010   0.614  0.2149  0.4892  0.0763
 4751TIP3    H114217   3.450   4.086   0.671 -1.7468 -0.3397  1.5190
 4751TIP3    H214218   3.368   4.028   0.559  0.5044  0.1178 -0.4528
 4752TIP3   OH214219   3.561   2.287   0.240 -0.0702  0.5183  0.4370
 4752TIP3    H114220   3.633   2.265   0.299 -0.1441 -0.0016  0.3384
 4752TIP3    H214221   3.483   2.280   0.294 -0.1084  0.3650  0.3634
 4753TIP3   OH214222   3.444   2.817   3.845 -0.2768  0.5559  0.2754
 4753TIP3    H114223   3.470   2.743   3.900  0.9099  1.2718  0.7155
 4753TIP3    H214224   3.489   2.801   3.762 -0.7122  0.3522  0.0743
 4754TIP3   OH214225   2.856   6.297   5.052 -0.1315 -0.2603  0.6545
 4754TIP3    H114226   2.924   6.296   4.984  1.0779 -0.4598  1.8281
 4754TIP3    H214227   2.800   6.371   5.028  0.0768 -0.5147 -0.7262
 4755TIP3   OH214228   3.968   5.721   1.083  0.4349  0.3484 -0.1576
 4755TIP3    H114229   3.889   5.772   1.103 -1.1324 -1.9802 -0.0232
 4755TIP3    H214230   3.991   5.748   0.994 -1.4456 -0.0003 -0.7983
 4756TIP3   OH214231   0.324   6.751   4.747 -0.0703  0.5662 -0.2166
 4756TIP3    H114232   0.319   6.736   4.841 -0.9666 -1.2895 -0.5071
 4756TIP3    H214233   0.374   6.832   4.738  0.8748  0.2717  1.8115
 4757TIP3   OH214234   4.368   2.168   1.075  0.3767 -0.3037 -0.4465
 4757TIP3    H114235   4.325   2.254   1.077 -0.0787 -0.5393  0.3685
 4757TIP3    H214236   4.407   2.163   0.988  0.8198  0.9325 -0.3471
 4758TIP3   OH214237   4.109   0.052   0.991 -0.3779  0.8081  1.0676
 4758TIP3    H114238   4.139   0.107   1.064  0.4737  1.7088  0.0674
 4758TIP3    H214239   4.186   0.040   0.936 -0.1494 -2.5405  1.8765
 4759TIP3   OH214240   3.481   6.691   3.810 -0.1137  0.2731  0.0991
 4759TIP3    H114241   3.554   6.629   3.809 -0.2847  0.0672  0.2541
 4759TIP3    H214242   3.522   6.776   3.795  0.2744  0.2717  1.0726
 4760TIP3   OH214243   2.035   4.189   3.331 -0.8370  0.3256  0.1171
 4760TIP3    H114244   2.097   4.261   3.326 -1.0674  0.4536 -1.5789
 4760TIP3    H214245   2.089   4.110   3.334 -0.5900  0.5249  0.9840
 4761TIP3   OH214246   5.688   4.465   1.206  0.8151  0.7419  0.4403
 4761TIP3    H114247   5.643   4.471   1.122  1.7871  3.4258  0.0048
 4761TIP3    H214248   5.621   4.486   1.271  0.4931  0.5016  0.1881
 4762TIP3   OH214249   5.578   0.089   0.798  0.0666 -0.5479  0.0068
 4762TIP3    H114250   5.619   0.043   0.725 -1.6087 -1.4843 -0.3886
 4762TIP3    H214251   5.507   0.032   0.825 -1.4927  1.3580  0.1342
 4763TIP3   OH214252   4.085   3.221   0.823 -0.5808  0.3967 -0.0035
 4763TIP3    H114253   3.991   3.235   0.837 -0.4400  1.1022  0.2688
 4763TIP3    H214254   4.092   3.128   0.803 -1.1410 -0.0967  1.8224
 4764TIP3   OH214255   2.698   0.809   5.342  0.0675  0.0279  0.5071
 4764TIP3    H114256   2.740   0.874   5.287  0.3020  0.7198  1.4822
 4764TIP3    H214257   2.769   0.749   5.368  0.3368  0.7687  1.5453
 4765TIP3   OH214258   6.719   0.990   1.147  0.0554  0.0513  0.1062
 4765TIP3    H114259   6.768   0.907   1.149 -0.4347 -0.2614 -0.4837
 4765TIP3    H214260   6.700   1.009   1.239  0.0301 -0.5809  0.2344
 4766TIP3   OH214261   3.029   4.700   5.647  0.9805  0.4668 -0.3377
 4766TIP3    H114262   3.009   4.734   5.734  0.1023 -0.2376 -0.2410
 4766TIP3    H214263   3.089   4.626   5.663  0.1758 -0.1809 -0.2452
 4767TIP3   OH214264   1.843   3.988   3.244  0.3644  0.3156 -0.3519
 4767TIP3    H114265   1.764   3.942   3.272  1.1990 -0.3576  1.0166
 4767TIP3    H214266   1.903   3.919   3.218  0.5626  0.8151 -1.2508
 4768TIP3   OH214267   2.046   6.562   3.889 -0.5516  0.2819  0.3495
 4768TIP3    H114268   2.135   6.584   3.918 -0.1669  0.2147 -0.7051
 4768TIP3    H214269   2.059   6.508   3.811 -1.5076  1.1794 -0.4737
 4769TIP3   OH214270   4.445   5.413   3.092 -0.0195  0.6231  0.1145
 4769TIP3    H114271   4.489   5.497   3.079 -0.0922  0.4914 -1.0888
 4769TIP3    H214272   4.355   5.428   3.063 -0.0909  0.1887  0.1046
 4770TIP3   OH214273   7.031   0.957   4.497  0.3435  0.0143 -0.0944
 4770TIP3    H114274   6.960   0.903   4.531  1.3662 -0.1686  1.9099
 4770TIP3    H214275   7.050   0.920   4.411 -0.0089 -1.8757  0.5841
 4771TIP3   OH214276   0.568   0.722   5.261 -0.4357  0.3655  0.2834
 4771TIP3    H114277   0.548   0.634   5.293  1.2113  0.6316  2.2314
 4771TIP3    H214278   0.659   0.718   5.234  0.6312  2.1207  3.2079
 4772TIP3   OH214279   1.108   5.512   0.772 -0.1142 -0.3738 -0.4087
 4772TIP3    H114280   1.113   5.596   0.818  1.6385  0.5869 -2.2011
 4772TIP3    H214281   1.162   5.453   0.826 -0.2432  0.0113  0.1552
 4773TIP3   OH214282   3.828   3.993   4.887  0.2925 -0.5615  0.0956
 4773TIP3    H114283   3.910   4.035   4.911 -0.1452  0.1282  0.4286
 4773TIP3    H214284   3.854   3.913   4.841  1.1527 -0.8982  1.1293
 4774TIP3   OH214285   0.657   5.634   3.518 -0.1655  0.3456  0.0306
 4774TIP3    H114286   0.722   5.704   3.511 -0.0523  0.4151  1.3913
 4774TIP3    H214287   0.574   5.675   3.495  0.1831  0.3969 -1.1802
 4775TIP3   OH214288   1.245   6.371   5.052 -0.1648 -0.1916  0.1836
 4775TIP3    H114289   1.317   6.392   5.112  0.9220 -0.9608 -0.8081
 4775TIP3    H214290   1.199   6.454   5.040  0.2905  0.2204  1.1869
 4776TIP3   OH214291   2.741   4.290   4.826  0.1570  0.1189  0.8449
 4776TIP3    H114292   2.673   4.297   4.760 -0.5453 -3.3179  1.0038
 4776TIP3    H214293   2.819   4.261   4.778  0.4487  0.3707  1.1561
 4777TIP3   OH214294   0.507   5.815   2.954  0.2538 -0.2275  0.2929
 4777TIP3    H114295   0.504   5.910   2.967  2.8337  0.2331 -1.8194
 4777TIP3    H214296   0.431   5.796   2.899  0.9722  1.0077 -1.1797
 4778TIP3   OH214297   5.035   3.239   4.773 -0.4943  0.6146  0.4774
 4778TIP3    H114298   5.023   3.247   4.868  0.1636  2.1622  0.4616
 4778TIP3    H214299   4.977   3.305   4.736  0.0315  0.7407 -0.1375
 4779TIP3   OH214300   2.140   3.428   1.490  0.0135  0.0788  0.3496
 4779TIP3    H114301   2.203   3.484   1.444 -0.2450 -0.7935 -1.1483
 4779TIP3    H214302   2.058   3.477   1.490  0.1193  0.2541  0.2296
 4780TIP3   OH214303   6.626   3.275   4.589 -0.2202  0.0678 -0.5861
 4780TIP3    H114304   6.589   3.331   4.521  0.0001  0.9746  0.0210
 4780TIP3    H214305   6.692   3.223   4.544 -0.7270 -0.0140 -1.2468
 4781TIP3   OH214306   2.369   6.073   5.866 -0.3615 -0.4180 -0.0432
 4781TIP3    H114307   2.333   6.097   5.780 -0.0875  1.3701  0.2995
 4781TIP3    H214308   2.420   6.150   5.893  0.4491 -1.3737  1.2437
 4782TIP3   OH214309   5.564   1.274   5.536  0.0100  0.0303 -0.4087
 4782TIP3    H114310   5.638   1.227   5.574  0.4265  0.5226 -0.6036
 4782TIP3    H214311   5.503   1.204   5.510  0.2796 -0.3642  0.0001
 4783TIP3   OH214312   5.290   1.059   4.820 -0.1631 -0.3665 -0.1376
 4783TIP3    H114313   5.288   0.967   4.848  1.0911 -0.7662 -1.2773
 4783TIP3    H214314   5.287   1.109   4.902 -1.6546 -1.3761  0.4729
 4784TIP3   OH214315   0.439   3.368   5.121 -0.0511  0.2322 -0.0970
 4784TIP3    H114316   0.502   3.303   5.154 -1.3162 -0.5734  0.8193
 4784TIP3    H214317   0.475   3.395   5.037 -0.0870 -2.6077 -1.1254
 4785TIP3   OH214318   0.944   1.043   3.072 -0.1300  0.4238 -0.1622
 4785TIP3    H114319   0.982   1.065   2.987  0.1159 -0.5978 -0.3282
 4785TIP3    H214320   1.017   1.043   3.133  0.2189 -1.6308 -0.4988
 4786TIP3   OH214321   2.796   5.185   2.172 -0.0613 -0.5886 -0.1168
 4786TIP3    H114322   2.779   5.190   2.078  1.3399 -0.4630 -0.3810
 4786TIP3    H214323   2.877   5.235   2.185  0.4810 -1.6829  0.9488
 4787TIP3   OH214324   0.406   0.868   2.520 -0.2367 -0.0519 -0.1733
 4787TIP3    H114325   0.426   0.855   2.428  2.1448 -1.9396  0.5049
 4787TIP3    H214326   0.466   0.937   2.548 -1.8936  1.4896 -0.2737
 4788TIP3   OH214327   1.065   3.052   0.984 -0.0648 -0.2306 -0.0797
 4788TIP3    H114328   0.996   3.103   1.027 -0.7524 -0.4860 -0.8405
 4788TIP3    H214329   1.080   2.978   1.043 -1.4816 -0.9460 -0.5624
 4789TIP3   OH214330   5.920   2.043   2.760  0.3786  0.3514  0.3856
 4789TIP3    H114331   5.919   2.023   2.854  1.0955  2.3281  0.8695
 4789TIP3    H214332   5.893   2.135   2.756  1.3632  0.6009 -1.2438
 4790TIP3   OH214333   3.190   1.154   2.405 -0.4623  0.0812 -0.8427
 4790TIP3    H114334   3.166   1.120   2.320  0.1639 -1.5997 -0.3830
 4790TIP3    H214335   3.233   1.081   2.450  0.1164  1.2078  0.5449
 4791TIP3   OH214336   4.473   4.631   0.576  0.3784  0.4617  0.8193
 4791TIP3    H114337   4.554   4.617   0.526 -0.1415 -0.1177  0.1246
 4791TIP3    H214338   4.495   4.701   0.638  1.6575 -0.2608  1.2093
 4792TIP3   OH214339   2.203   3.998   3.342  0.1716  0.5015 -0.2731
 4792TIP3    H114340   2.212   3.956   3.428  0.9390  1.1696 -0.0194
 4792TIP3    H214341   2.291   3.997   3.305 -0.1632  0.1627 -1.0941
 4793TIP3   OH214342   5.333   0.569   0.839  0.0673  0.0764 -0.0239
 4793TIP3    H114343   5.417   0.610   0.820  0.4258 -1.4600 -2.2180
 4793TIP3    H214344   5.290   0.563   0.753 -0.9232 -1.9458  0.5521
 4794TIP3   OH214345   5.986   4.279   2.343 -0.2938 -0.9349 -0.1552
 4794TIP3    H114346   5.895   4.256   2.362 -0.5571 -0.9096 -1.2937
 4794TIP3    H214347   5.980   4.344   2.273  0.4984  1.5251  1.9278
 4795TIP3   OH214348   1.232   3.166   3.966  0.3218 -0.0565 -0.0222
 4795TIP3    H114349   1.288   3.092   3.990  1.0825  0.4722 -0.1451
 4795TIP3    H214350   1.230   3.221   4.045  0.1255  0.0238 -0.0825
 4796TIP3   OH214351   1.817   5.011   5.657  0.0302 -0.1436 -0.6980
 4796TIP3    H114352   1.850   5.072   5.723  0.8075 -1.5612  0.2740
 4796TIP3    H214353   1.722   5.015   5.667  0.0204  1.3793 -1.1266
 4797TIP3   OH214354   7.185   3.618   2.295  0.1766 -0.3016 -0.0032
 4797TIP3    H114355   7.256   3.583   2.349  1.9261  1.1866 -1.1988
 4797TIP3    H214356   7.118   3.645   2.358  2.3114  1.7927  1.5924
 4798TIP3   OH214357   4.493   5.729   4.051 -0.1319  0.0502  0.1809
 4798TIP3    H114358   4.504   5.720   4.145  0.0128  0.9419  0.2559
 4798TIP3    H214359   4.542   5.656   4.014  0.3322  0.0533  0.7739
 4799TIP3   OH214360   5.609   2.164   1.545 -0.0684  0.0461 -0.4865
 4799TIP3    H114361   5.684   2.222   1.556  0.0375 -0.4810  1.9188
 4799TIP3    H214362   5.539   2.222   1.514  0.3818  1.2359  0.6208
 4800TIP3   OH214363   1.409   2.824   1.181  0.1659  0.0003  0.0224
 4800TIP3    H114364   1.471   2.833   1.109  0.8046  1.5845  0.7195
 4800TIP3    H214365   1.426   2.737   1.217 -0.8213 -1.2397 -2.2766
 4801TIP3   OH214366   4.302   2.581   5.157 -0.3844  0.3901 -0.2617
 4801TIP3    H114367   4.315   2.584   5.062 -2.4029 -0.1555 -0.5808
 4801TIP3    H214368   4.213   2.548   5.169  0.2205 -0.6494  1.8572
 4802TIP3   OH214369   7.191   1.037   0.650 -0.0771 -0.4683  0.0054
 4802TIP3    H114370   7.174   0.947   0.623  1.0821 -0.9174  0.7108
 4802TIP3    H214371   7.118   1.058   0.709 -0.8954 -0.5749 -0.9448
 4803TIP3   OH214372   2.067   2.668   5.679  0.1856 -0.4557  0.2251
 4803TIP3    H114373   2.141   2.632   5.631  2.3908  0.3095  2.8455
 4803TIP3    H214374   2.056   2.756   5.643  0.2331 -0.7286 -0.4718
 4804TIP3   OH214375   4.067   4.197   2.719  0.2418  0.1540  0.3337
 4804TIP3    H114376   4.020   4.245   2.650  0.0939 -0.7377 -0.2025
 4804TIP3    H214377   4.129   4.261   2.754  0.6019  0.5074 -0.9085
 4805TIP3   OH214378   1.760   0.461   4.988  0.0828 -0.2661 -0.5520
 4805TIP3    H114379   1.666   0.444   4.987  0.0593 -0.1734 -0.0331
 4805TIP3    H214380   1.775   0.520   4.914 -0.7760  2.3816  1.2623
 4806TIP3   OH214381   3.836   2.855   4.412 -0.1278  0.0690 -0.0842
 4806TIP3    H114382   3.916   2.884   4.368 -0.1953  1.2460  0.5327
 4806TIP3    H214383   3.862   2.777   4.460  0.6685  0.4620  0.1392
 4807TIP3   OH214384   6.443   4.292   5.388  0.0492 -0.1657  0.4421
 4807TIP3    H114385   6.417   4.298   5.480 -1.8748 -0.8199 -0.0141
 4807TIP3    H214386   6.502   4.216   5.385  0.0125 -0.2259  1.1193
 4808TIP3   OH214387   2.094   3.225   4.481 -0.0743  0.3142 -0.0160
 4808TIP3    H114388   2.044   3.241   4.400  0.2587  1.0704 -0.0794
 4808TIP3    H214389   2.075   3.301   4.536 -0.2751 -0.1843  0.6125
 4809TIP3   OH214390   0.244   6.129   3.029 -0.6640  0.0481  0.2717
 4809TIP3    H114391   0.222   6.192   2.960 -1.1131 -1.9316 -1.5125
 4809TIP3    H214392   0.335   6.106   3.013 -0.7223 -0.3092  0.4473
 4810TIP3   OH214393   3.538   4.671   2.882 -0.2669 -0.6576  0.1494
 4810TIP3    H114394   3.512   4.753   2.923 -0.7691 -0.4047 -0.6600
 4810TIP3    H214395   3.629   4.686   2.854 -0.6757 -0.0150 -0.8861
 4811TIP3   OH214396   2.159   2.673   2.867 -0.0979  0.1542 -0.2588
 4811TIP3    H114397   2.240   2.627   2.843 -0.2976 -1.2869  1.5636
 4811TIP3    H214398   2.093   2.638   2.807  0.0996 -0.7758  0.0385
 4812TIP3   OH214399   2.229   3.537   3.768 -0.0807 -0.1883  0.2550
 4812TIP3    H114400   2.171   3.461   3.776 -0.6852  0.4627  3.3033
 4812TIP3    H214401   2.300   3.519   3.831  1.3029  0.5154 -1.0553
 4813TIP3   OH214402   0.473   0.934   1.792  0.0008  0.1904  0.7564
 4813TIP3    H114403   0.550   0.904   1.839 -0.0869 -1.5046 -0.0874
 4813TIP3    H214404   0.416   0.857   1.787 -0.4163  0.5552 -1.2239
 4814TIP3   OH214405   3.514   2.169   5.218 -0.2622  0.1812  0.6278
 4814TIP3    H114406   3.422   2.190   5.229 -0.5108  0.0126 -0.9099
 4814TIP3    H214407   3.520   2.075   5.237  0.0969  0.6503  3.2643
 4815TIP3   OH214408   6.449   4.652   5.534  0.2312  0.7504 -0.0624
 4815TIP3    H114409   6.422   4.648   5.442  0.8742 -1.3418 -0.2139
 4815TIP3    H214410   6.367   4.664   5.582 -0.5743 -1.4180 -0.7597
 4816TIP3   OH214411   6.817   2.745   5.511  0.0181  0.5156  0.2534
 4816TIP3    H114412   6.852   2.827   5.477 -0.7506  0.5594 -0.4544
 4816TIP3    H214413   6.800   2.692   5.433 -3.0214  1.1160  0.3746
 4817TIP3   OH214414   1.311   6.676   5.435 -0.0636 -0.2149  0.3901
 4817TIP3    H114415   1.234   6.623   5.412 -1.0738  0.7065  1.5291
 4817TIP3    H214416   1.354   6.627   5.505 -1.3947  0.7455  1.9440
 4818TIP3   OH214417   3.564   0.136   5.375 -0.2419  0.1840  0.6505
 4818TIP3    H114418   3.494   0.075   5.399  0.2384 -1.1553 -1.1213
 4818TIP3    H214419   3.645   0.091   5.397  0.1268  0.1310 -0.7020
 4819TIP3   OH214420   1.265   0.882   2.234 -0.1946 -0.4748  0.1684
 4819TIP3    H114421   1.221   0.964   2.259  0.2912  0.1838 -1.0518
 4819TIP3    H214422   1.207   0.813   2.266 -2.4576  0.3513 -1.7979
 4820TIP3   OH214423   6.433   5.412   0.166  0.2050 -0.0700  0.6925
 4820TIP3    H114424   6.364   5.361   0.210  1.0704 -1.4840  0.4853
 4820TIP3    H214425   6.385   5.473   0.110 -0.9011 -1.0999  0.4566
 4821TIP3   OH214426   4.827   1.766   2.727 -0.5566  0.4081  0.8542
 4821TIP3    H114427   4.776   1.689   2.753  0.3547 -0.1790  0.9599
 4821TIP3    H214428   4.917   1.745   2.753 -0.3715  1.7323  1.3519
 4822TIP3   OH214429   1.847   5.463   4.792 -0.2515  0.5950 -0.0417
 4822TIP3    H114430   1.910   5.467   4.864  1.6818  1.0503 -1.6769
 4822TIP3    H214431   1.809   5.551   4.789 -2.8148 -0.2666  2.3894
 4823TIP3   OH214432   5.093   5.665   2.725  0.5084 -0.2264 -0.3523
 4823TIP3    H114433   5.028   5.727   2.758  0.0475 -1.0151  0.2666
 4823TIP3    H214434   5.162   5.720   2.687 -0.3342  0.6257 -0.6707
 4824TIP3   OH214435   3.756   6.251   0.524 -0.7251  0.0817 -0.0274
 4824TIP3    H114436   3.836   6.257   0.471 -0.8037  1.7741  0.0055
 4824TIP3    H214437   3.748   6.157   0.543  0.7035 -0.2504 -0.8548
 4825TIP3   OH214438   0.891   0.445   2.756  0.5327  0.4899  0.0873
 4825TIP3    H114439   0.859   0.487   2.676  2.2265 -1.2533 -1.6036
 4825TIP3    H214440   0.818   0.390   2.785 -0.1162  1.1772 -0.2045
 4826TIP3   OH214441   0.508   3.921   0.411 -0.4196 -0.3257  0.2786
 4826TIP3    H114442   0.523   4.007   0.371  0.0064 -0.1474  0.8024
 4826TIP3    H214443   0.515   3.937   0.505  1.9472 -1.3174  0.3343
 4827TIP3   OH214444   1.879   1.409   1.982  0.1987  0.2628  0.2252
 4827TIP3    H114445   1.820   1.440   1.914  1.0099  0.7619 -0.2687
 4827TIP3    H214446   1.967   1.419   1.944  0.6280 -0.0342  1.1099
 4828TIP3   OH214447   3.990   1.015   2.839  0.4917  0.1110 -0.2909
 4828TIP3    H114448   4.077   1.035   2.802  0.1938  1.9445 -0.1123
 4828TIP3    H214449   3.998   1.037   2.932  0.2385 -1.1076  0.0242
 4829TIP3   OH214450   7.074   6.165   2.121  0.3367 -0.1852  0.1674
 4829TIP3    H114451   7.156   6.207   2.094  0.0984 -0.6348 -1.3196
 4829TIP3    H214452   7.065   6.090   2.062 -0.8152 -0.5195  0.7502
 4830TIP3   OH214453   5.288   1.623   1.824 -0.0411  0.7712 -0.5586
 4830TIP3    H114454   5.275   1.569   1.746  0.0775  0.3583 -0.2947
 4830TIP3    H214455   5.382   1.636   1.829  0.1370 -0.6524  0.4669
 4831TIP3   OH214456   0.086   3.596   5.358  0.3523  0.9021 -0.2230
 4831TIP3    H114457   0.117   3.527   5.417  0.6329  2.1559  1.1369
 4831TIP3    H214458  -0.009   3.590   5.363  0.3710  0.2898 -0.5108
 4832TIP3   OH214459   6.749   2.648   4.377  0.4609  0.4409  0.2563
 4832TIP3    H114460   6.671   2.593   4.385  0.3840  0.7140  1.5315
 4832TIP3    H214461   6.718   2.737   4.388  0.6302  0.7763 -1.5388
 4833TIP3   OH214462   2.592   2.809   1.933 -0.5497  0.1402 -0.1389
 4833TIP3    H114463   2.522   2.751   1.964 -0.8282  0.5884  0.0812
 4833TIP3    H214464   2.547   2.882   1.891 -0.3181  1.5057  1.8453
 4834TIP3   OH214465   5.164   5.654   4.456 -0.4224  0.3588  0.0306
 4834TIP3    H114466   5.158   5.704   4.375  1.5098 -0.3295 -0.5952
 4834TIP3    H214467   5.204   5.713   4.519  0.4996  0.0782 -0.2849
 4835TIP3   OH214468   3.759   0.519   0.852 -0.2333 -0.4328 -0.1979
 4835TIP3    H114469   3.676   0.505   0.899 -0.6901  0.6507 -0.6427
 4835TIP3    H214470   3.738   0.500   0.761  0.8702 -3.3764  0.0534
 4836TIP3   OH214471   5.218   5.206   5.465  0.3852 -0.6497  0.3192
 4836TIP3    H114472   5.211   5.200   5.370  0.4589 -0.6222  0.3121
 4836TIP3    H214473   5.155   5.141   5.498  0.3149 -0.6147  0.2525
 4837TIP3   OH214474   0.924   0.298   0.204 -0.2151  0.7106  0.0330
 4837TIP3    H114475   0.952   0.231   0.267 -0.8792  0.8033  0.4405
 4837TIP3    H214476   0.903   0.374   0.259  0.3306  1.1824 -0.4084
 4838TIP3   OH214477   3.165   6.022   2.510 -0.5567 -0.7978 -0.7015
 4838TIP3    H114478   3.090   6.081   2.513  0.7519  0.9974 -1.3797
 4838TIP3    H214479   3.190   6.009   2.601 -0.6438  0.0343 -0.5525
 4839TIP3   OH214480   3.022   3.194   0.040 -0.2409 -0.0266 -0.8936
 4839TIP3    H114481   2.970   3.267   0.007 -0.5250  0.2052  0.0550
 4839TIP3    H214482   3.112   3.226   0.038 -0.3954  0.4774 -0.1757
 4840TIP3   OH214483   0.491   2.655   3.748  0.0360  0.4827  0.5022
 4840TIP3    H114484   0.485   2.746   3.717  0.6178  0.5843  0.6824
 4840TIP3    H214485   0.546   2.611   3.683 -1.7241 -0.2048 -0.6043
 4841TIP3   OH214486   0.486   5.675   5.284 -0.0390 -0.0348  0.0999
 4841TIP3    H114487   0.561   5.725   5.252 -0.7102  1.4616  0.7337
 4841TIP3    H214488   0.437   5.652   5.205  0.7584 -0.4740 -0.2695
 4842TIP3   OH214489   3.119   4.205   3.257  0.0753  0.2113 -0.2164
 4842TIP3    H114490   3.195   4.262   3.245 -0.8385  1.0842 -2.3816
 4842TIP3    H214491   3.130   4.136   3.191 -0.3894 -0.4019  0.3292
 4843TIP3   OH214492   7.035   4.184   2.701  0.0700  0.0491 -0.2789
 4843TIP3    H114493   6.965   4.141   2.750  0.9274 -0.1600  0.8067
 4843TIP3    H214494   6.994   4.262   2.663 -1.0744 -0.7946 -0.8151
 4844TIP3   OH214495   4.963   0.637   1.633 -0.1915 -0.4898 -0.1939
 4844TIP3    H114496   4.915   0.706   1.589  1.7391  2.2938  1.7568
 4844TIP3    H214497   5.017   0.597   1.565 -0.7034  0.4907 -1.1920
 4845TIP3   OH214498   3.422   5.080   4.964 -0.2009  0.4239  0.2310
 4845TIP3    H114499   3.421   5.165   4.920  0.1202  0.6691  0.6882
 4845TIP3    H214500   3.424   5.102   5.057  3.3743 -0.0181  0.3891
 4846TIP3   OH214501   3.111   0.782   1.870 -0.1364 -0.1401  0.5329
 4846TIP3    H114502   3.077   0.870   1.880  0.6443  0.1481  0.7273
 4846TIP3    H214503   3.048   0.738   1.812  0.0656  0.8762 -0.4806
 4847TIP3   OH214504   3.118   0.503   3.524 -0.7404  0.2277  0.3034
 4847TIP3    H114505   3.077   0.491   3.610  0.2374 -2.5565  0.4904
 4847TIP3    H214506   3.189   0.565   3.538 -1.3122  0.6843  1.2333
 4848TIP3   OH214507   2.526   6.095   0.623  0.0729  0.0556  0.1179
 4848TIP3    H114508   2.584   6.021   0.642  0.9637 -0.3554 -3.5205
 4848TIP3    H214509   2.450   6.056   0.580  0.1182  1.1155 -0.9822
 4849TIP3   OH214510   0.222   4.377   5.174  0.0764  0.4148  0.3649
 4849TIP3    H114511   0.137   4.334   5.164  0.9136 -1.6087  1.2443
 4849TIP3    H214512   0.228   4.397   5.268  1.3344 -1.3764  0.7396
 4850TIP3   OH214513   5.613   2.838   1.815 -0.3703 -0.7689  0.4180
 4850TIP3    H114514   5.601   2.812   1.906  0.0864 -2.2521  0.0909
 4850TIP3    H214515   5.533   2.809   1.771 -1.0991  0.9733  0.5159
 4851TIP3   OH214516   5.055   2.839   1.787  0.6088  0.0174  0.1737
 4851TIP3    H114517   4.979   2.854   1.844  1.4068 -0.9458  1.5254
 4851TIP3    H214518   5.057   2.917   1.731 -0.0721  1.1363  1.6134
 4852TIP3   OH214519   0.620   1.824   4.045 -0.4939  0.1646  0.3863
 4852TIP3    H114520   0.615   1.904   3.994  2.7570  0.0139 -0.3791
 4852TIP3    H214521   0.675   1.766   3.993 -0.2521 -1.4399  2.3282
 4853TIP3   OH214522   5.814   1.971   5.171  0.3536  0.2629 -0.1904
 4853TIP3    H114523   5.747   1.983   5.238 -0.4518  0.0323 -0.9355
 4853TIP3    H214524   5.876   2.043   5.186 -0.0833  0.5070  0.4826
 4854TIP3   OH214525   1.750   3.985   1.517  0.3219 -0.3706  0.2813
 4854TIP3    H114526   1.747   4.069   1.472  0.9311 -0.5636 -0.1251
 4854TIP3    H214527   1.680   3.990   1.582 -1.2039 -0.4387 -1.2797
 4855TIP3   OH214528   1.636   4.049   4.255  0.2055  0.3554 -0.6434
 4855TIP3    H114529   1.646   4.133   4.210  0.3210  1.5305  1.4478
 4855TIP3    H214530   1.691   3.989   4.206  0.8190  1.7183 -1.6840
 4856TIP3   OH214531   3.463   4.580   4.537  0.1445  0.1000  0.4481
 4856TIP3    H114532   3.450   4.599   4.444 -1.5354  0.1197  0.6492
 4856TIP3    H214533   3.521   4.504   4.539  0.7871  0.5542 -0.5880
 4857TIP3   OH214534   6.837   2.063   3.139 -0.1350 -0.2620 -0.3833
 4857TIP3    H114535   6.867   1.992   3.196 -0.5344 -0.7327 -0.7541
 4857TIP3    H214536   6.873   2.041   3.053 -1.8477 -1.0572 -0.9338
 4858TIP3   OH214537   0.625   3.626   1.224 -0.1007 -1.3040  1.0474
 4858TIP3    H114538   0.643   3.597   1.134 -1.2768 -2.1685  1.0596
 4858TIP3    H214539   0.533   3.652   1.222  1.0216  3.5444  0.8088
 4859TIP3   OH214540   1.255   3.491   2.226 -0.1598  0.1819 -0.3036
 4859TIP3    H114541   1.269   3.397   2.240 -0.1417  0.3956  1.3382
 4859TIP3    H214542   1.315   3.514   2.156 -0.4331 -1.1002 -0.9932
 4860TIP3   OH214543   3.747   1.203   2.298 -0.6326 -0.7986  0.4169
 4860TIP3    H114544   3.720   1.140   2.232 -0.3667 -1.2031  0.6930
 4860TIP3    H214545   3.841   1.189   2.308 -0.6908 -0.8249  0.9638
 4861TIP3   OH214546   6.946   3.647   2.999  0.1608  0.0271 -0.1404
 4861TIP3    H114547   6.979   3.576   3.054  0.0816  0.0202 -0.1025
 4861TIP3    H214548   7.021   3.706   2.989  1.0551 -1.3614 -2.3605
 4862TIP3   OH214549   0.232   2.198   2.274  0.3911 -0.4792  0.0265
 4862TIP3    H114550   0.240   2.281   2.320 -3.2164  0.1438 -0.1625
 4862TIP3    H214551   0.247   2.220   2.182  0.7579 -0.3420  0.1145
 4863TIP3   OH214552   6.861   2.143   4.305 -0.0652 -0.1842 -0.0851
 4863TIP3    H114553   6.892   2.184   4.224 -0.2892  0.3464  0.0958
 4863TIP3    H214554   6.770   2.172   4.313 -0.4048 -1.1788 -0.2566
 4864TIP3   OH214555   1.399   0.652   4.057  0.0573  0.0675 -0.5903
 4864TIP3    H114556   1.441   0.737   4.066 -0.0144 -0.0186  0.6719
 4864TIP3    H214557   1.449   0.607   3.989  0.3525  0.9509 -0.9649
 4865TIP3   OH214558   6.437   1.245   3.854  0.1822  0.4815  0.0018
 4865TIP3    H114559   6.384   1.284   3.923 -0.9064 -0.5488 -0.2352
 4865TIP3    H214560   6.510   1.307   3.843 -0.6653  1.6499  0.7050
 4866TIP3   OH214561   6.241   3.745   0.274  0.4695 -0.0323 -0.3634
 4866TIP3    H114562   6.268   3.697   0.196 -1.9466  0.9635 -1.9300
 4866TIP3    H214563   6.150   3.768   0.257 -0.1480  0.2374  2.7912
 4867TIP3   OH214564   0.114   1.643   3.887 -0.2354 -0.1190  0.2165
 4867TIP3    H114565   0.049   1.573   3.889 -0.4336  0.0550  2.1055
 4867TIP3    H214566   0.198   1.598   3.900 -0.3269 -0.0575  1.0689
 4868TIP3   OH214567   2.059   0.667   0.522 -0.3638  0.3852  0.1257
 4868TIP3    H114568   2.082   0.575   0.534 -0.7180  0.0209 -1.7519
 4868TIP3    H214569   1.965   0.666   0.505 -0.4210  1.1392  0.3510
 4869TIP3   OH214570   0.192   4.130   4.949  0.5717 -0.1926 -0.1922
 4869TIP3    H114571   0.144   4.212   4.938 -0.3685 -0.6104  0.6733
 4869TIP3    H214572   0.134   4.063   4.912  0.2831 -0.7545  1.2217
 4870TIP3   OH214573   0.387   5.449   5.684 -0.0890 -0.2057 -0.7975
 4870TIP3    H114574   0.298   5.481   5.666 -0.3024 -1.1464 -1.5270
 4870TIP3    H214575   0.403   5.385   5.614  1.7170  0.9901 -1.5408
 4871TIP3   OH214576   2.887   2.204   5.339  0.3287 -0.5715  0.5039
 4871TIP3    H114577   2.884   2.300   5.338  1.6636 -0.5075 -0.6504
 4871TIP3    H214578   2.797   2.177   5.318  0.5579  0.4972 -2.2859
 4872TIP3   OH214579   4.034   2.580   1.532 -0.0103 -0.4734  0.1126
 4872TIP3    H114580   3.989   2.541   1.458 -0.4662 -0.6459  0.4736
 4872TIP3    H214581   4.023   2.675   1.520 -2.1659 -0.5278  1.1962
 4873TIP3   OH214582   3.414   0.066   4.298  0.0125  0.3100  0.2960
 4873TIP3    H114583   3.443   0.022   4.218 -0.3253  0.2091  0.2283
 4873TIP3    H214584   3.458   0.018   4.369 -1.2235 -0.8747  0.2995
 4874TIP3   OH214585   4.674   5.183   0.442 -0.3767  0.4220  0.2846
 4874TIP3    H114586   4.759   5.153   0.410 -0.9963 -1.1543  0.0363
 4874TIP3    H214587   4.692   5.270   0.478  1.6438 -0.4597  1.5919
 4875TIP3   OH214588   6.673   4.852   5.499  0.7346 -0.8514  0.2485
 4875TIP3    H114589   6.596   4.797   5.509 -0.7653  1.1200  0.2320
 4875TIP3    H214590   6.683   4.862   5.404 -0.8329  1.1803  0.2126
 4876TIP3   OH214591   6.465   1.653   3.937  0.8247  0.8740  0.3070
 4876TIP3    H114592   6.429   1.724   3.989  0.9696  0.9684  0.2797
 4876TIP3    H214593   6.389   1.613   3.895  0.8051  1.4636 -0.2427
 4877TIP3   OH214594   6.515   1.171   2.560  0.1807  0.2479  0.1195
 4877TIP3    H114595   6.433   1.204   2.596  0.5009  0.5138  0.6147
 4877TIP3    H214596   6.581   1.235   2.587  0.4396  0.4291 -0.9076
 4878TIP3   OH214597   6.317   2.715   3.845 -0.3417 -0.4563  0.3349
 4878TIP3    H114598   6.279   2.731   3.758  0.2926  0.1571  0.1553
 4878TIP3    H214599   6.373   2.639   3.833 -0.6369 -0.6762  0.3318
 4879TIP3   OH214600   2.208   0.581   2.587  0.0516 -0.6048 -0.1167
 4879TIP3    H114601   2.243   0.663   2.622 -1.7302  0.0804  0.1507
 4879TIP3    H214602   2.250   0.571   2.501  0.1446  0.7022 -0.2353
 4880TIP3   OH214603   0.772   0.123   1.562 -0.1678  0.0394  0.1389
 4880TIP3    H114604   0.766   0.125   1.657  0.9062  1.7946  0.2182
 4880TIP3    H214605   0.862   0.095   1.544 -0.0565  0.6667 -0.3170
 4881TIP3   OH214606   6.477   0.744   3.760  0.2720  0.1674 -0.5773
 4881TIP3    H114607   6.492   0.657   3.724 -1.5000 -0.3763 -0.1098
 4881TIP3    H214608   6.461   0.799   3.683  1.6205  0.1698 -0.8895
 4882TIP3   OH214609   4.319   3.887   3.210  0.1706 -0.0900  0.2815
 4882TIP3    H114610   4.314   3.969   3.161 -0.2885 -0.6223 -0.5755
 4882TIP3    H214611   4.228   3.859   3.219  0.3582 -0.7492  0.1543
 4883TIP3   OH214612   0.094   4.243   2.046 -0.3007  0.4121 -0.2698
 4883TIP3    H114613   0.008   4.284   2.038 -0.0381  1.0373  0.0035
 4883TIP3    H214614   0.120   4.261   2.137 -0.9102 -1.8301  0.4105
 4884TIP3   OH214615   6.219   0.092   5.573  0.0199  0.0527 -0.1277
 4884TIP3    H114616   6.285   0.025   5.589 -0.8047 -1.0271 -1.0178
 4884TIP3    H214617   6.248   0.135   5.492 -0.3675 -0.4643 -0.5540
 4885TIP3   OH214618   4.045   5.866   4.930 -0.2781  0.0347 -0.1892
 4885TIP3    H114619   3.962   5.892   4.890 -0.6674 -0.4047  0.3171
 4885TIP3    H214620   4.088   5.812   4.863  0.0947  1.1458 -0.8644
 4886TIP3   OH214621   6.066   5.352   1.381  0.4281 -0.0515 -0.3322
 4886TIP3    H114622   6.000   5.409   1.339 -0.4035  0.6531  1.8175
 4886TIP3    H214623   6.039   5.264   1.358 -1.4347  0.2162  0.6769
 4887TIP3   OH214624   4.019   4.901   0.188  0.2564 -0.5406  0.3299
 4887TIP3    H114625   4.112   4.915   0.168  0.4350  3.1907  2.8217
 4887TIP3    H214626   4.019   4.838   0.260  0.7311 -1.3880 -0.3936
 4888TIP3   OH214627   1.224   0.581   0.163  0.0803  0.2934 -0.2904
 4888TIP3    H114628   1.171   0.503   0.148 -0.9661  0.5777  1.6135
 4888TIP3    H214629   1.308   0.547   0.194  1.6437 -0.2137 -4.5003
 4889TIP3   OH214630   0.234   2.943   4.518  0.0461 -0.0872 -0.2360
 4889TIP3    H114631   0.300   3.012   4.509 -1.2004  0.9559 -2.2364
 4889TIP3    H214632   0.251   2.884   4.445 -0.4482 -0.5008 -0.0263
 4890TIP3   OH214633   5.040   2.202   2.323  0.2609 -0.0190 -0.4047
 4890TIP3    H114634   5.027   2.263   2.250 -0.2705 -1.4366 -1.5501
 4890TIP3    H214635   5.102   2.246   2.380 -0.4397  1.7858 -0.9486
 4891TIP3   OH214636   5.478   5.819   0.924 -0.4020 -0.1929  0.2499
 4891TIP3    H114637   5.480   5.768   0.843  0.0072 -0.3900  0.3819
 4891TIP3    H214638   5.507   5.907   0.897 -1.8100  0.1809 -0.1144
 4892TIP3   OH214639   4.321   2.878   3.328 -0.1456 -0.2727  0.1600
 4892TIP3    H114640   4.316   2.864   3.233  0.3160 -0.4080  0.1575
 4892TIP3    H214641   4.377   2.808   3.360  1.1798  0.8152  0.2991
 4893TIP3   OH214642   1.350   2.877   3.167 -0.0345 -0.0071 -0.3838
 4893TIP3    H114643   1.289   2.811   3.133  1.5075 -1.0851 -1.1951
 4893TIP3    H214644   1.300   2.958   3.165 -1.5489 -0.8891 -0.6887
 4894TIP3   OH214645   3.755   4.054   4.159  0.2806  0.0082 -0.5531
 4894TIP3    H114646   3.749   4.016   4.071 -0.2488 -0.1619 -0.4457
 4894TIP3    H214647   3.702   4.133   4.155 -0.7290 -0.6283 -0.0589
 4895TIP3   OH214648   2.583   1.496   1.365 -0.8353 -0.2390 -0.6336
 4895TIP3    H114649   2.506   1.462   1.319 -1.2557  0.4535 -0.4542
 4895TIP3    H214650   2.642   1.524   1.295 -1.0855 -0.0333 -0.7636
 4896TIP3   OH214651   6.051   1.578   2.654 -0.2521 -0.4612  0.2742
 4896TIP3    H114652   6.022   1.648   2.596  1.3563  1.8489  2.0770
 4896TIP3    H214653   6.088   1.512   2.596 -1.5907  0.2312 -1.4782
 4897TIP3   OH214654   3.163   5.159   4.425 -0.2041  0.5042  0.1517
 4897TIP3    H114655   3.255   5.138   4.442 -0.5639  0.1646  1.8955
 4897TIP3    H214656   3.116   5.123   4.501 -1.8900 -0.1113 -1.1111
 4898TIP3   OH214657   6.278   3.331   3.300 -0.0507  0.0874 -0.7559
 4898TIP3    H114658   6.312   3.315   3.388 -2.0540  1.5885  0.3866
 4898TIP3    H214659   6.248   3.422   3.303 -0.8310 -0.0606 -2.7736
 4899TIP3   OH214660   3.955   1.260   0.870  0.7070  0.7204  0.4605
 4899TIP3    H114661   3.885   1.195   0.863  1.0456  0.3923  0.1418
 4899TIP3    H214662   4.007   1.231   0.945  1.1132  0.3776  0.0484
 4900TIP3   OH214663   6.343   4.352   3.186  0.4197  0.3338  0.4780
 4900TIP3    H114664   6.342   4.390   3.098 -2.1101 -0.3548  0.1264
 4900TIP3    H214665   6.426   4.306   3.192  1.1476  1.3579 -1.1074
 4901TIP3   OH214666   0.177   2.854   0.149 -0.1678 -0.6932  0.6198
 4901TIP3    H114667   0.173   2.864   0.054 -1.0237 -1.0993  0.6041
 4901TIP3    H214668   0.130   2.930   0.183  0.4983 -0.3291  0.7327
 4902TIP3   OH214669   2.532   0.886   0.328 -0.2505 -0.0072  0.3991
 4902TIP3    H114670   2.556   0.966   0.375 -0.6879 -0.2463  1.0439
 4902TIP3    H214671   2.615   0.851   0.295  0.3225 -0.7083  2.4206
 4903TIP3   OH214672   2.051   0.368   4.350  0.1823  0.0562 -0.4963
 4903TIP3    H114673   2.031   0.392   4.441  3.1269 -0.8430  0.5292
 4903TIP3    H214674   2.146   0.355   4.350 -0.0453 -2.6549 -3.0645
 4904TIP3   OH214675   4.667   5.428   4.562 -0.1124 -0.3152 -0.5804
 4904TIP3    H114676   4.757   5.445   4.589  0.1161  0.9537 -2.0521
 4904TIP3    H214677   4.625   5.395   4.641  0.6206  2.8359  1.3029
 4905TIP3   OH214678   7.069   5.429   2.827 -0.4181  0.2901  0.5789
 4905TIP3    H114679   7.122   5.355   2.798 -1.3100 -0.3836  0.6209
 4905TIP3    H214680   7.081   5.496   2.760 -1.4083 -0.7514 -0.6851
 4906TIP3   OH214681   3.542   2.887   1.719  0.4923  0.3525  0.4769
 4906TIP3    H114682   3.492   2.869   1.798 -1.5183  2.0187 -0.3385
 4906TIP3    H214683   3.531   2.981   1.704  0.4593  0.0197 -1.9874
 4907TIP3   OH214684   6.244   5.932   4.445  0.2244 -0.0676 -0.6003
 4907TIP3    H114685   6.167   5.936   4.388 -0.3483  0.0620  0.1762
 4907TIP3    H214686   6.281   6.020   4.442 -0.5113  0.2690  0.1948
 4908TIP3   OH214687   6.820   4.380   5.167  0.5470 -0.0159  0.2018
 4908TIP3    H114688   6.845   4.452   5.109 -2.3187  1.5501  0.7484
 4908TIP3    H214689   6.815   4.419   5.254  0.0961 -1.1666  0.7133
 4909TIP3   OH214690   4.594   5.684   5.823  0.3286 -0.0981 -0.2538
 4909TIP3    H114691   4.586   5.621   5.895  0.1749  0.7830  0.5213
 4909TIP3    H214692   4.505   5.698   5.793  0.2037  0.7888  0.5029
 4910TIP3   OH214693  -0.025   1.822   2.877 -0.0052  0.1405  0.3141
 4910TIP3    H114694  -0.006   1.741   2.830 -0.2821  0.9326 -1.2367
 4910TIP3    H214695   0.061   1.856   2.902  0.2121  0.1400 -0.4049
 4911TIP3   OH214696   4.853   5.931   2.522  0.6058  0.1523  0.2315
 4911TIP3    H114697   4.776   5.987   2.518  0.1475 -0.5288 -0.8807
 4911TIP3    H214698   4.862   5.895   2.433  3.6965  2.1852 -0.4464
 4912TIP3   OH214699   2.462   0.178   2.106  0.0676  0.4979 -0.7536
 4912TIP3    H114700   2.405   0.220   2.169 -1.3538 -0.4729 -1.3323
 4912TIP3    H214701   2.484   0.247   2.043 -0.4234  0.8981 -0.4904
 4913TIP3   OH214702   1.735   4.811   0.345 -0.5429 -0.1383 -0.2549
 4913TIP3    H114703   1.762   4.746   0.281  0.9385  0.2777 -0.1003
 4913TIP3    H214704   1.765   4.894   0.309 -1.4251  0.3352  0.0725
 4914TIP3   OH214705   6.616   6.442   2.447  0.0415 -0.2077 -0.0514
 4914TIP3    H114706   6.570   6.526   2.449  1.5262  0.6398  0.5785
 4914TIP3    H214707   6.697   6.458   2.496 -0.5052 -2.5513  1.8159
 4915TIP3   OH214708   7.133   1.715   1.597  0.4432  0.0649 -0.8843
 4915TIP3    H114709   7.073   1.643   1.614  1.0281  0.2141  2.2350
 4915TIP3    H214710   7.076   1.792   1.590  0.0432 -0.2751 -1.5252
 4916TIP3   OH214711   2.029   6.218   5.239  0.0486 -0.5138 -0.9805
 4916TIP3    H114712   2.055   6.197   5.329 -0.3031 -1.4290 -1.0800
 4916TIP3    H214713   2.022   6.313   5.237  0.4395 -0.4623 -0.1434
 4917TIP3   OH214714   4.912   4.961   3.086  0.4699  0.1625 -0.2407
 4917TIP3    H114715   4.941   5.048   3.059  0.4598 -0.1692 -1.3725
 4917TIP3    H214716   4.870   4.975   3.171 -0.3054  1.4035 -0.8004
 4918TIP3   OH214717   0.356   1.389   2.472  0.1809 -0.0381  0.3992
 4918TIP3    H114718   0.325   1.313   2.522  2.1902  0.3018  2.3366
 4918TIP3    H214719   0.322   1.464   2.520  0.1325  0.3083 -0.1742
 4919TIP3   OH214720   3.609   3.548   0.797  0.0300 -0.3018  0.3607
 4919TIP3    H114721   3.558   3.608   0.741  0.0043 -1.1084 -0.5155
 4919TIP3    H214722   3.692   3.592   0.811 -0.0416  0.0043 -0.1652
 4920TIP3   OH214723   1.914   1.757   3.147  0.8654 -0.2599  0.2562
 4920TIP3    H114724   1.854   1.735   3.075 -0.8970 -0.1383  1.6129
 4920TIP3    H214725   1.989   1.798   3.104 -0.0547 -0.3367 -1.5248
 4921TIP3   OH214726   3.135   4.873   5.097 -0.5654  0.0330 -0.2356
 4921TIP3    H114727   3.086   4.823   5.031  0.7146 -0.7631 -0.6327
 4921TIP3    H214728   3.119   4.965   5.074 -1.2183 -0.2137 -0.8269
 4922TIP3   OH214729   1.157   5.395   0.523  0.6060 -0.7128  0.1280
 4922TIP3    H114730   1.159   5.451   0.600  0.8252 -0.5518  0.0079
 4922TIP3    H214731   1.081   5.424   0.473  0.6356 -0.6209  0.1372
 4923TIP3   OH214732   5.881   0.788   2.052  1.0065 -0.0806 -0.3621
 4923TIP3    H114733   5.855   0.835   2.131  1.8963  0.9471 -0.6628
 4923TIP3    H214734   5.816   0.813   1.986  0.1369 -1.1086  0.0807
 4924TIP3   OH214735   1.626   4.621   2.512  0.3192 -0.7099  0.2933
 4924TIP3    H114736   1.574   4.613   2.592  1.1573  1.0413  1.0709
 4924TIP3    H214737   1.561   4.635   2.443 -0.3359  0.4012  1.0866
 4925TIP3   OH214738   3.917   0.260   0.969 -0.2172  0.4455  0.3405
 4925TIP3    H114739   3.952   0.179   1.004 -0.6107 -0.2047 -0.7020
 4925TIP3    H214740   3.822   0.254   0.982 -0.4807 -0.2202 -1.5332
 4926TIP3   OH214741   2.242   5.312   2.689 -0.1003  0.6358 -0.2281
 4926TIP3    H114742   2.248   5.237   2.631 -1.9808 -0.8288  1.3457
 4926TIP3    H214743   2.306   5.374   2.654  2.1637 -1.9757 -1.1493
 4927TIP3   OH214744   1.815   0.957   4.274  0.0683  0.0534  0.6337
 4927TIP3    H114745   1.877   0.921   4.337  0.8480 -0.4823 -0.4107
 4927TIP3    H214746   1.816   1.052   4.290 -0.8895 -0.1883  2.4039
 4928TIP3   OH214747   2.791   2.469   2.514 -0.2847  0.1203  0.5273
 4928TIP3    H114748   2.865   2.530   2.509 -0.9669  0.9135 -0.2297
 4928TIP3    H214749   2.782   2.450   2.608 -0.7682  2.1037  0.9219
 4929TIP3   OH214750   4.402   2.534   4.559 -0.0081 -0.8848 -0.2177
 4929TIP3    H114751   4.399   2.487   4.476  1.2265  1.4106 -1.6757
 4929TIP3    H214752   4.473   2.492   4.609  2.4224  0.4898 -2.2838
 4930TIP3   OH214753   0.444   5.114   4.808  0.6670  0.4462 -0.3958
 4930TIP3    H114754   0.365   5.167   4.800  1.5725  1.9181  0.0375
 4930TIP3    H214755   0.413   5.027   4.835 -0.9515  0.3859 -2.2586
 4931TIP3   OH214756   6.162   3.310   2.206  0.7324 -0.4101  0.3651
 4931TIP3    H114757   6.157   3.279   2.115  2.5057 -1.1191  0.4645
 4931TIP3    H214758   6.122   3.240   2.257  0.9738 -0.6349  0.2469
 4932TIP3   OH214759   5.221   3.209   5.747 -0.2320 -0.1571  0.0641
 4932TIP3    H114760   5.189   3.133   5.795 -0.9707  0.2775  0.2757
 4932TIP3    H214761   5.170   3.210   5.666  0.0255 -0.0877 -0.0985
 4933TIP3   OH214762   1.612   5.087   1.308  0.2245 -0.0032  0.2332
 4933TIP3    H114763   1.651   5.022   1.249  1.2694  0.4787  0.3597
 4933TIP3    H214764   1.666   5.165   1.296  2.0698 -0.5716  3.5625
 4934TIP3   OH214765   1.160   4.457   5.345 -0.0693 -0.7329 -0.9629
 4934TIP3    H114766   1.068   4.458   5.371  0.3705 -0.2446  0.6659
 4934TIP3    H214767   1.163   4.510   5.266 -1.0041  0.2667 -0.3510
 4935TIP3   OH214768   5.502   4.460   5.856  0.2789 -0.2093  0.1749
 4935TIP3    H114769   5.519   4.462   5.762 -0.2127 -1.5579  0.0403
 4935TIP3    H214770   5.542   4.541   5.889  0.3750  0.3337 -1.1928
 4936TIP3   OH214771   0.843   3.444   1.246 -0.0501  0.3146  0.4296
 4936TIP3    H114772   0.921   3.493   1.272 -0.0635  0.4582  0.2063
 4936TIP3    H214773   0.771   3.506   1.257 -0.3184 -0.2223  1.9027
 4937TIP3   OH214774   2.897   1.945   3.667  0.2871 -0.3042  0.5107
 4937TIP3    H114775   2.965   1.881   3.689  0.4119 -0.0464  0.8823
 4937TIP3    H214776   2.890   2.001   3.744  0.2501  0.1980  0.1513
 4938TIP3   OH214777   1.207   0.674   2.574  0.3753  0.6354  0.0268
 4938TIP3    H114778   1.172   0.605   2.519  2.3207 -1.5236  1.3151
 4938TIP3    H214779   1.299   0.682   2.546  1.1189  0.2080  2.1554
 4939TIP3   OH214780   6.018   0.668   4.020 -0.1131  0.4631 -0.1722
 4939TIP3    H114781   6.080   0.609   3.976  0.7947  0.5432  0.9464
 4939TIP3    H214782   5.975   0.715   3.949  1.3330  0.6165 -0.9847
 4940TIP3   OH214783   3.518   5.002   0.413  0.1526 -0.2414 -0.1831
 4940TIP3    H114784   3.483   5.055   0.341  0.2817 -2.0208 -1.6310
 4940TIP3    H214785   3.446   4.997   0.476 -0.9370 -0.8317 -1.4305
 4941TIP3   OH214786   6.659   2.005   0.261 -0.3368  0.5657 -0.4298
 4941TIP3    H114787   6.584   1.961   0.222 -0.5578  2.1549 -1.9270
 4941TIP3    H214788   6.623   2.051   0.338 -0.4548 -0.3511  0.0753
 4942TIP3   OH214789   5.033   1.989   3.453 -0.8122 -0.2312 -0.6141
 4942TIP3    H114790   5.028   2.084   3.457  1.8458 -0.0464 -0.2737
 4942TIP3    H214791   4.993   1.960   3.536 -0.4873  0.6427 -0.1388
 4943TIP3   OH214792   5.921   6.238   4.316  0.0407 -0.7043 -0.2378
 4943TIP3    H114793   5.828   6.226   4.298  0.0085 -0.1161 -0.4710
 4943TIP3    H214794   5.941   6.172   4.383 -0.5998 -0.6680 -0.0059
 4944TIP3   OH214795   1.998   3.266   4.221  0.1890 -0.0069 -0.1189
 4944TIP3    H114796   1.905   3.255   4.242  0.2587  0.1191  0.2460
 4944TIP3    H214797   2.009   3.214   4.141 -0.4567  0.9158 -0.8291
 4945TIP3   OH214798   6.148   1.301   0.652  0.4773 -0.5775  0.2542
 4945TIP3    H114799   6.073   1.338   0.606  0.2509  1.2101  1.9407
 4945TIP3    H214800   6.221   1.358   0.629  0.3913  0.2472  1.9175
 4946TIP3   OH214801   3.331   2.266   3.289  0.3571 -0.0804  0.4549
 4946TIP3    H114802   3.398   2.210   3.249 -0.3815  0.0070 -0.9777
 4946TIP3    H214803   3.275   2.205   3.337  1.1272 -0.2241  1.1764
 4947TIP3   OH214804   6.852   6.474   4.175 -0.0450  0.5901  0.4958
 4947TIP3    H114805   6.872   6.504   4.264 -0.0328 -1.4049  1.2265
 4947TIP3    H214806   6.930   6.425   4.148  0.1907  1.6786 -0.8779
 4948TIP3   OH214807   3.183   5.412   4.810 -0.3399 -0.0060 -0.0093
 4948TIP3    H114808   3.268   5.457   4.816 -0.1087 -0.3750 -0.4588
 4948TIP3    H214809   3.135   5.443   4.887 -0.0849  0.7971 -0.1631
 4949TIP3   OH214810   0.888   1.082   5.307  0.4662 -0.1280 -0.6274
 4949TIP3    H114811   0.922   1.009   5.256 -2.0211 -0.4682 -1.9914
 4949TIP3    H214812   0.877   1.048   5.395 -0.0311 -1.2066 -1.0969
 4950TIP3   OH214813   6.709   4.087   1.074 -0.8616  0.1093  0.2292
 4950TIP3    H114814   6.766   4.103   1.149  0.2703  0.5626 -0.6934
 4950TIP3    H214815   6.656   4.011   1.099  0.8654 -0.9785  0.7303
 4951TIP3   OH214816   6.117   1.655   0.231 -0.0421 -0.5700 -0.6041
 4951TIP3    H114817   6.047   1.686   0.173  1.5198  0.6347 -1.9481
 4951TIP3    H214818   6.078   1.584   0.280 -1.7906 -0.8979 -2.3556
 4952TIP3   OH214819   1.425   1.879   0.507 -0.2311 -0.5751 -0.2825
 4952TIP3    H114820   1.371   1.944   0.551  1.5699  0.5186  0.4274
 4952TIP3    H214821   1.402   1.887   0.414 -2.1834 -1.0718  0.1254
 4953TIP3   OH214822   3.591   0.995   0.478  0.2329  0.0079 -0.1497
 4953TIP3    H114823   3.562   1.079   0.442 -0.7182 -0.6229 -0.9054
 4953TIP3    H214824   3.636   0.952   0.405  1.0208  0.0028  0.3355
 4954TIP3   OH214825   3.172   4.540   0.035  0.1512 -0.0971  0.0810
 4954TIP3    H114826   3.166   4.607   0.103 -0.4491  0.5890 -0.6313
 4954TIP3    H214827   3.212   4.465   0.079  0.3135  0.5297  1.0379
 4955TIP3   OH214828   4.140   3.303   4.049 -0.0133  0.9333  0.0632
 4955TIP3    H114829   4.074   3.248   4.092  0.9172 -0.6458 -0.4747
 4955TIP3    H214830   4.212   3.243   4.028  0.9505  2.3203 -0.7360
 4956TIP3   OH214831   3.890   3.978   2.904 -0.6740 -0.5402  0.5678
 4956TIP3    H114832   3.896   4.071   2.883  0.8258 -0.5033  1.0402
 4956TIP3    H214833   3.840   3.940   2.832 -1.2155  0.5994  0.3190
 4957TIP3   OH214834   2.660   2.606   1.372  0.5084 -0.0341  0.0416
 4957TIP3    H114835   2.681   2.628   1.463  2.1930  0.2250 -0.3667
 4957TIP3    H214836   2.678   2.512   1.365  0.1027 -0.1142  0.0374
 4958TIP3   OH214837   6.914   0.714   3.013 -0.3388  0.0230 -0.0336
 4958TIP3    H114838   6.946   0.636   3.058 -3.4154 -2.2220 -1.3423
 4958TIP3    H214839   6.823   0.722   3.042 -0.4878  2.4311 -0.9209
 4959TIP3   OH214840   1.148   4.686   3.340  0.6494  0.5468  0.1145
 4959TIP3    H114841   1.119   4.730   3.261  2.9665 -0.1722 -1.2102
 4959TIP3    H214842   1.125   4.594   3.326 -1.7377  0.7852  1.7172
 4960TIP3   OH214843   3.314   4.705   2.023 -0.0081  0.2132  0.3993
 4960TIP3    H114844   3.245   4.761   2.059 -0.7132  0.3672 -1.1129
 4960TIP3    H214845   3.339   4.648   2.096 -1.7542  0.1349  0.9842
 4961TIP3   OH214846   3.426   4.115   4.996 -0.1897  0.6240  0.0427
 4961TIP3    H114847   3.445   4.080   4.909 -0.8275 -0.9570  0.4904
 4961TIP3    H214848   3.503   4.167   5.019  0.2126  0.6253 -1.2392
 4962TIP3   OH214849   1.709   2.959   1.977  0.0684 -0.1178  0.3241
 4962TIP3    H114850   1.666   2.896   1.919 -0.5762 -0.1429  0.8268
 4962TIP3    H214851   1.657   2.958   2.058 -0.1265  1.2664  0.2441
 4963TIP3   OH214852   0.195   0.365   2.423 -0.4872 -0.3377 -0.4521
 4963TIP3    H114853   0.175   0.455   2.450  0.6304 -0.6106  1.3977
 4963TIP3    H214854   0.140   0.311   2.479 -1.6425 -0.8397 -2.0020
 4964TIP3   OH214855   6.342   2.919   2.603  0.4696 -0.3189  0.0013
 4964TIP3    H114856   6.433   2.898   2.625 -0.2917 -1.4305  2.5378
 4964TIP3    H214857   6.298   2.835   2.598 -0.8204  0.2539  0.9633
 4965TIP3   OH214858   4.330   4.154   3.094  0.6896  0.1710 -0.2556
 4965TIP3    H114859   4.246   4.165   3.049 -0.4399 -0.6928  1.5244
 4965TIP3    H214860   4.329   4.220   3.164  1.0692 -0.4294  0.3378
 4966TIP3   OH214861   1.384   5.102   4.805  0.3029 -0.5768 -0.1490
 4966TIP3    H114862   1.459   5.138   4.756  0.5011 -1.1035 -0.2359
 4966TIP3    H214863   1.359   5.024   4.756  0.8967 -1.4667  0.9311
 4967TIP3   OH214864   1.318   2.293   5.060  0.6532  0.0872 -0.2795
 4967TIP3    H114865   1.406   2.267   5.088  0.1408  0.2640  1.6547
 4967TIP3    H214866   1.312   2.386   5.082 -0.1667 -0.0359  0.0601
 4968TIP3   OH214867   4.169   0.352   2.351 -1.1286 -0.0672 -1.1236
 4968TIP3    H114868   4.261   0.327   2.337 -0.9895  1.2629 -3.1435
 4968TIP3    H214869   4.155   0.344   2.445  1.5938  1.3599 -0.5089
 4969TIP3   OH214870   3.912   1.801   5.747 -0.1199  0.0268 -0.1798
 4969TIP3    H114871   3.931   1.732   5.684  1.4397 -2.4120  2.6912
 4969TIP3    H214872   3.979   1.868   5.732  0.7776 -0.9350 -0.5493
 4970TIP3   OH214873   4.521   5.717   3.260 -0.1349 -0.0506  0.3193
 4970TIP3    H114874   4.470   5.772   3.200 -1.5091 -1.5593  0.0209
 4970TIP3    H214875   4.587   5.675   3.204  0.6704  0.9529  0.4813
 4971TIP3   OH214876   6.229   4.692   5.713 -0.4428 -0.5551 -0.0292
 4971TIP3    H114877   6.185   4.680   5.797 -0.1313 -1.4991  0.0168
 4971TIP3    H214878   6.186   4.767   5.673 -0.4329  0.0596  1.0806
 4972TIP3   OH214879   6.455   2.732   0.066 -0.1607  0.0087  0.0117
 4972TIP3    H114880   6.485   2.670  -0.001  0.4133 -0.2109  0.4524
 4972TIP3    H214881   6.409   2.677   0.129 -2.1505  0.4419 -1.0036
 4973TIP3   OH214882   5.735   2.523   0.880 -0.1469 -0.0267 -0.0707
 4973TIP3    H114883   5.802   2.532   0.812  0.3428  0.9697  0.5360
 4973TIP3    H214884   5.783   2.528   0.962 -0.9465  0.5022  0.3701
 4974TIP3   OH214885   6.329   5.115   2.323 -0.0189 -0.2130 -0.7727
 4974TIP3    H114886   6.422   5.096   2.338 -0.1066 -0.6384 -0.7583
 4974TIP3    H214887   6.303   5.054   2.254 -0.5588 -0.8486 -0.0239
 4975TIP3   OH214888   0.199   4.087   3.205 -0.0658 -0.1297 -0.0399
 4975TIP3    H114889   0.293   4.103   3.205 -0.0144  1.5345  5.5626
 4975TIP3    H214890   0.183   4.034   3.282 -3.8327  0.2727 -0.3292
 4976TIP3   OH214891   1.987   3.185   1.467 -0.3855  0.0071 -0.4298
 4976TIP3    H114892   2.048   3.253   1.493  0.5979 -0.8162 -0.5236
 4976TIP3    H214893   1.903   3.213   1.502  0.8861 -1.3509  4.4492
 4977TIP3   OH214894   4.611   5.872   4.896 -0.2371  0.5886  0.2460
 4977TIP3    H114895   4.648   5.893   4.810  2.1561  2.2258  1.5468
 4977TIP3    H214896   4.524   5.914   4.895 -0.3781  0.3418 -1.4328
 4978TIP3   OH214897   2.079   4.017   4.745 -0.2998 -0.8595  0.3848
 4978TIP3    H114898   2.121   4.020   4.659 -1.9561  0.4460 -0.4324
 4978TIP3    H214899   2.152   4.027   4.807  0.6806  0.9639 -0.9714
 4979TIP3   OH214900   4.244   1.769   5.663 -0.5052  0.1925  0.0204
 4979TIP3    H114901   4.230   1.682   5.624  0.1509 -0.4035  1.0645
 4979TIP3    H214902   4.296   1.816   5.599  0.3443 -0.6808  0.0513
 4980TIP3   OH214903   0.235   5.780   1.628 -0.1465  0.4038  0.1074
 4980TIP3    H114904   0.225   5.751   1.718 -1.6495 -1.9718 -0.7259
 4980TIP3    H214905   0.318   5.743   1.599  0.4026  1.2799  0.5109
 4981TIP3   OH214906   0.901   5.020   0.603  0.2676  0.1346 -0.8482
 4981TIP3    H114907   0.853   4.937   0.606  3.9957 -2.3100 -1.4628
 4981TIP3    H214908   0.864   5.066   0.528  0.0508 -2.4277 -2.4551
 4982TIP3   OH214909  -0.002   1.114   5.874  0.2814 -0.0862  0.4780
 4982TIP3    H114910   0.054   1.191   5.882 -0.1584  0.5326 -1.6425
 4982TIP3    H214911   0.047   1.054   5.817 -0.6227 -0.0720 -0.3550
 4983TIP3   OH214912   3.565   1.494   1.655  0.1081 -0.3178  0.1313
 4983TIP3    H114913   3.537   1.552   1.584 -1.0242 -0.2619  0.6092
 4983TIP3    H214914   3.654   1.524   1.675 -0.0874  0.6067 -0.2956
 4984TIP3   OH214915   3.938   1.833   4.121  0.4635  0.1726  0.3101
 4984TIP3    H114916   3.889   1.801   4.045 -1.3811 -1.8894  2.2272
 4984TIP3    H214917   3.970   1.754   4.164 -1.3065  0.9566  3.3893
 4985TIP3   OH214918   5.833   2.562   1.796  0.3429  0.4083  0.3088
 4985TIP3    H114919   5.749   2.546   1.839 -0.0222 -0.7908 -0.7674
 4985TIP3    H214920   5.813   2.622   1.725  0.4510  0.3476  0.2268
 4986TIP3   OH214921   5.672   6.253   0.275  0.7289 -0.2221  0.1017
 4986TIP3    H114922   5.622   6.283   0.199  0.5782 -1.3148 -0.2508
 4986TIP3    H214923   5.632   6.169   0.298  1.0640 -0.1201  1.1195
 4987TIP3   OH214924   2.608   0.028   2.878 -0.6801 -0.0840 -0.1745
 4987TIP3    H114925   2.535   0.074   2.919 -1.2262  0.2148 -1.4377
 4987TIP3    H214926   2.686   0.077   2.905 -1.0174  0.0608  0.5443
 4988TIP3   OH214927   3.595   4.582   3.981  0.5675 -0.2432  0.2292
 4988TIP3    H114928   3.690   4.583   3.968  0.5761 -0.9866  0.2223
 4988TIP3    H214929   3.569   4.492   3.962 -0.1123 -0.0965  0.4466
 4989TIP3   OH214930   5.805   4.860   5.898 -0.0669 -0.0308  0.1491
 4989TIP3    H114931   5.722   4.893   5.864  0.0330 -0.0517 -0.1135
 4989TIP3    H214932   5.851   4.826   5.822  1.3660  2.4423 -0.1818
 4990TIP3   OH214933   4.693   0.258   0.066  0.1436  0.0799  0.0078
 4990TIP3    H114934   4.754   0.326   0.095  0.5276  0.1252 -0.8676
 4990TIP3    H214935   4.651   0.228   0.146  0.0488  1.2723  0.4259
 4991TIP3   OH214936   0.189   3.497   0.565 -0.1471  0.6174  0.4939
 4991TIP3    H114937   0.273   3.455   0.549 -0.2392  0.4069  0.5613
 4991TIP3    H214938   0.212   3.584   0.598  0.0874 -0.1865  2.6379
 4992TIP3   OH214939   2.964   2.217   1.767 -0.6406 -0.2277  0.0385
 4992TIP3    H114940   2.989   2.275   1.839 -1.5332 -0.1190  0.2748
 4992TIP3    H214941   3.045   2.203   1.718  0.5436 -2.2043  2.3594
 4993TIP3   OH214942   5.064   1.462   3.146  0.4269 -0.3198 -0.7446
 4993TIP3    H114943   5.110   1.525   3.090  0.8631 -0.4384 -0.5241
 4993TIP3    H214944   5.009   1.516   3.203 -1.0607 -0.2439 -2.1665
 4994TIP3   OH214945   1.695   3.769   5.696 -0.2819  0.1190  0.5151
 4994TIP3    H114946   1.760   3.705   5.727  0.2437  0.5425  0.2981
 4994TIP3    H214947   1.736   3.854   5.710 -0.2055  0.3509 -0.8974
 4995TIP3   OH214948   2.893   0.257   1.458  0.6758  0.2948 -0.0007
 4995TIP3    H114949   2.965   0.290   1.404  0.4715  0.7170 -0.0195
 4995TIP3    H214950   2.828   0.328   1.458  0.5311  0.1664  0.5317
 4996TIP3   OH214951   6.202   0.535   5.715 -0.1807  0.4520 -0.0182
 4996TIP3    H114952   6.252   0.465   5.757  0.3973  1.3538  0.8269
 4996TIP3    H214953   6.164   0.585   5.787 -1.0479  0.6905 -0.6214
 4997TIP3   OH214954   4.957   5.504   2.896  0.1556 -0.6123 -0.4587
 4997TIP3    H114955   5.035   5.539   2.853  0.7932  1.8794  2.4069
 4997TIP3    H214956   4.990   5.462   2.975 -1.3574  1.8272  1.6193
 4998TIP3   OH214957   5.092   4.496   3.021 -0.2778 -0.7220 -0.5971
 4998TIP3    H114958   5.076   4.581   2.979 -0.8046 -0.6310 -0.2200
 4998TIP3    H214959   5.024   4.489   3.088  0.0479 -1.2373 -0.3128
 4999TIP3   OH214960   0.610   2.915   0.865  0.2589  0.0339  0.0445
 4999TIP3    H114961   0.568   2.928   0.951 -3.1017  1.6049 -1.6521
 4999TIP3    H214962   0.644   2.826   0.869 -0.6183 -0.2927  2.6862
 5000TIP3   OH214963   0.603   6.004   4.147 -0.6106 -0.2975  0.1291
 5000TIP3    H114964   0.599   6.005   4.243  0.7220  1.8372  0.2305
 5000TIP3    H214965   0.662   5.932   4.126 -2.3346 -1.9708  0.7728
 5001TIP3   OH214966   4.414   0.641   5.014  0.6254  0.4406  0.2798
 5001TIP3    H114967   4.478   0.665   5.082 -0.4104  2.0141  0.7637
 5001TIP3    H214968   4.417   0.546   5.011  1.6893  0.4019  1.5627
 5002TIP3   OH214969   2.623   6.642   4.759  0.0187  0.4703  0.4527
 5002TIP3    H114970   2.661   6.721   4.722  1.2025  0.0862  0.7753
 5002TIP3    H214971   2.696   6.579   4.759 -0.7670 -0.4602  0.6396
 5003TIP3   OH214972   2.519   5.084   0.674 -0.0140  0.3567 -0.7392
 5003TIP3    H114973   2.514   5.029   0.596 -0.1654 -0.2773 -0.2936
 5003TIP3    H214974   2.470   5.163   0.651 -0.7843 -0.1836 -1.0000
 5004TIP3   OH214975   5.822   2.737   2.640 -0.2445  0.1067  0.4670
 5004TIP3    H114976   5.768   2.659   2.628 -0.0626  0.1891 -1.1049
 5004TIP3    H214977   5.886   2.734   2.568  1.4511  0.3471  1.8914
 5005TIP3   OH214978   5.261   2.805   0.945 -0.8697 -0.9734 -0.0228
 5005TIP3    H114979   5.273   2.872   0.878  0.7292 -1.2216 -0.0164
 5005TIP3    H214980   5.332   2.742   0.931 -0.7894 -1.3019  1.5639
 5006TIP3   OH214981   3.878   0.941   1.526  0.6334  0.0227 -0.5781
 5006TIP3    H114982   3.847   0.947   1.436  0.3604  1.0763 -0.4296
 5006TIP3    H214983   3.806   0.900   1.574  0.8058 -0.6006 -0.8393
 5007TIP3   OH214984   4.203   2.260   1.813  0.3513 -0.4724  0.0042
 5007TIP3    H114985   4.174   2.208   1.888 -1.2230 -1.0504 -0.9595
 5007TIP3    H214986   4.290   2.291   1.839  0.0839 -1.0768  1.8438
 5008TIP3   OH214987   6.059   5.830   1.250  0.5490 -0.0943  0.3748
 5008TIP3    H114988   5.969   5.818   1.221  0.2866  0.6738  0.8454
 5008TIP3    H214989   6.096   5.893   1.188  0.5736  0.0542  0.5384
 5009TIP3   OH214990   5.880   1.827   3.252 -0.1417  0.4193 -0.1867
 5009TIP3    H114991   5.851   1.746   3.209  0.1865 -0.9356  1.9943
 5009TIP3    H214992   5.806   1.887   3.241 -0.8357 -0.5281 -0.9396
 5010TIP3   OH214993   6.099   1.256   2.496  0.2110  0.0101 -0.1837
 5010TIP3    H114994   6.139   1.327   2.547  0.2604  0.5650 -0.9749
 5010TIP3    H214995   6.142   1.177   2.528  1.3123  0.5043 -0.4000
 5011TIP3   OH214996   6.032   1.510   4.347 -0.5079  0.5219 -0.0166
 5011TIP3    H114997   5.961   1.536   4.407 -1.0700 -1.1326  0.1099
 5011TIP3    H214998   5.990   1.449   4.286  0.2550  1.5161 -1.6048
 5012TIP3   OH214999   3.754   2.210   4.248 -0.2793 -0.7351 -0.4287
 5012TIP3    H115000   3.693   2.222   4.176 -0.3374 -1.7681 -0.5675
 5012TIP3    H215001   3.838   2.191   4.206 -0.5724 -2.5889 -0.2561
 5013TIP3   OH215002   1.237   5.142   5.825 -0.0824  0.2376  0.6548
 5013TIP3    H115003   1.264   5.229   5.798  0.2606 -0.2549 -0.6467
 5013TIP3    H215004   1.151   5.129   5.785 -0.9516  0.6224  2.2864
 5014TIP3   OH215005   4.891   3.673   2.472 -0.1174  0.1256  0.3958
 5014TIP3    H115006   4.801   3.665   2.504 -0.3302  0.4276 -0.1096
 5014TIP3    H215007   4.937   3.600   2.511 -0.2421  0.7753  1.7959
 5015TIP3   OH215008   4.761   4.435   2.017  0.7568 -0.9490  0.1091
 5015TIP3    H115009   4.666   4.448   2.020  0.5504 -1.8060 -1.6244
 5015TIP3    H215010   4.775   4.353   2.064  0.7738 -0.4022  1.1054
 5016TIP3   OH215011   5.339   2.154   3.580  0.2857  0.2719  0.2677
 5016TIP3    H115012   5.244   2.163   3.576  0.3603  0.7559 -0.8309
 5016TIP3    H215013   5.363   2.182   3.668 -0.4405  1.7090  0.0354
 5017TIP3   OH215014   4.805   0.009  -0.002 -0.1146  0.3599 -0.2287
 5017TIP3    H115015   4.818   0.103   0.006 -2.6329  1.2166 -3.7418
 5017TIP3    H215016   4.718  -0.007   0.035 -0.0101 -0.4874 -0.3218
 5018TIP3   OH215017   2.078   4.288   4.667 -0.0101 -0.2548  0.1858
 5018TIP3    H115018   2.075   4.339   4.748 -0.2746 -0.0988  0.0778
 5018TIP3    H215019   2.090   4.198   4.697  2.7320  0.0808  0.3072
 5019TIP3   OH215020   3.485   2.693   0.499  0.1036 -0.3364 -0.1492
 5019TIP3    H115021   3.442   2.743   0.568 -1.1724 -0.9675 -0.4654
 5019TIP3    H215022   3.578   2.693   0.523 -0.0919  0.8728  0.6554
 5020TIP3   OH215023   6.960   1.520   3.779 -0.3724 -0.3542  0.2112
 5020TIP3    H115024   7.029   1.472   3.825 -0.4686  0.0561  0.8011
 5020TIP3    H215025   6.945   1.598   3.833  0.1302  0.6049 -0.9935
 5021TIP3   OH215026   6.768   3.435   0.065  0.4031  0.2587  0.0968
 5021TIP3    H115027   6.724   3.420   0.149  0.0767 -1.1909 -0.2954
 5021TIP3    H215028   6.855   3.395   0.077  0.8115  1.1360  0.1324
 5022TIP3   OH215029   2.412   1.502   5.917  0.3835 -0.1185 -0.3736
 5022TIP3    H115030   2.416   1.406   5.915 -1.1948 -0.2081 -0.4614
 5022TIP3    H215031   2.438   1.528   5.828  0.9021 -0.4631 -0.3249
 5023TIP3   OH215032   3.857   6.656   1.657 -0.1294 -0.2052  0.5030
 5023TIP3    H115033   3.774   6.655   1.705 -0.6623  1.4600 -0.3173
 5023TIP3    H215034   3.836   6.696   1.573  1.4934  0.2129  0.2581
 5024TIP3   OH215035   0.252   3.155   5.754 -0.0027 -0.0840  0.4851
 5024TIP3    H115036   0.333   3.166   5.802 -0.0649  0.7446  0.4006
 5024TIP3    H215037   0.242   3.060   5.745  1.3115 -0.1829 -0.1073
 5025TIP3   OH215038   6.914   0.771   2.079  0.5121 -0.1591  0.8462
 5025TIP3    H115039   6.930   0.864   2.091  0.1306 -0.1038  0.9290
 5025TIP3    H215040   6.918   0.734   2.168  2.0626 -0.4521  0.6817
 5026TIP3   OH215041   3.808   3.839   5.763 -0.4062 -0.1059  0.0838
 5026TIP3    H115042   3.896   3.813   5.790  0.2256  0.4100 -1.3287
 5026TIP3    H215043   3.788   3.916   5.816  0.2837  0.1654 -0.0404
 5027TIP3   OH215044   4.953   5.166   0.361 -0.2195 -0.3030 -0.6155
 5027TIP3    H115045   4.995   5.124   0.285  0.5966  0.0024 -0.3405
 5027TIP3    H215046   4.995   5.252   0.368 -1.3279  0.2694 -0.6989
 5028TIP3   OH215047   5.053   5.865   3.515 -0.2699 -0.5542  0.3685
 5028TIP3    H115048   4.995   5.800   3.555  0.1744 -0.9930  0.3089
 5028TIP3    H215049   5.084   5.917   3.589 -0.8648 -0.2085  0.3820
 5029TIP3   OH215050   1.444   2.003   5.281 -0.1187 -0.8076 -0.4095
 5029TIP3    H115051   1.535   1.982   5.261 -0.0423 -1.0438  0.1681
 5029TIP3    H215052   1.445   2.029   5.374 -0.7990 -1.7969 -0.1104
 5030TIP3   OH215053   1.793   1.108   5.214  0.7181 -0.6931 -0.2334
 5030TIP3    H115054   1.879   1.142   5.191  0.1275  0.2106 -1.1396
 5030TIP3    H215055   1.788   1.121   5.309  1.0953  0.3889 -0.3457
 5031TIP3   OH215056   3.929   4.865   3.910 -0.4800 -0.4235 -0.2066
 5031TIP3    H115057   3.880   4.898   3.985  0.5304  1.1088 -0.1877
 5031TIP3    H215058   4.011   4.833   3.947  0.4451  1.2379 -0.7149
 5032TIP3   OH215059   4.405   5.389   5.311 -0.3485 -0.1854  0.0944
 5032TIP3    H115060   4.383   5.482   5.320 -0.4991 -0.3418  1.5211
 5032TIP3    H215061   4.474   5.374   5.376 -1.0192 -1.2851  0.5767
 5033TIP3   OH215062   4.481   2.175   0.089  0.1419  0.2064  0.5299
 5033TIP3    H115063   4.410   2.215   0.138 -0.8983 -1.7885  0.7716
 5033TIP3    H215064   4.437   2.121   0.023  1.3314 -2.0938  1.4953
 5034TIP3   OH215065   2.247   6.742   3.605 -0.2317  0.1933 -0.5942
 5034TIP3    H115066   2.191   6.818   3.626 -0.4914 -0.0172 -0.5172
 5034TIP3    H215067   2.197   6.667   3.637  0.5417  0.0820  0.3760
 5035TIP3   OH215068   0.506   1.849   3.112 -0.5684  0.1706  0.2518
 5035TIP3    H115069   0.601   1.857   3.110 -0.5339 -0.1438 -1.9521
 5035TIP3    H215070   0.474   1.939   3.107 -0.3701  0.2198 -0.1594
 5036TIP3   OH215071   2.895   5.004   3.833  0.1354  0.4319  0.6318
 5036TIP3    H115072   2.814   5.052   3.814 -0.5033 -0.9235 -0.2665
 5036TIP3    H215073   2.892   4.987   3.927 -0.3171  0.9139  0.7101
 5037TIP3   OH215074   3.014   0.496   4.964 -0.2161 -0.3515 -1.0218
 5037TIP3    H115075   3.031   0.427   5.028  0.5430 -0.9371 -1.8215
 5037TIP3    H215076   2.935   0.540   4.996 -0.3235 -1.1562 -0.1383
 5038TIP3   OH215077   2.872   6.171   1.646 -0.0144 -0.5221  0.0097
 5038TIP3    H115078   2.932   6.230   1.602  2.3088 -2.5338  0.2898
 5038TIP3    H215079   2.824   6.128   1.575  0.3035 -0.3425 -0.3151
 5039TIP3   OH215080   3.842   4.264   2.221  0.0646  0.3394  0.6040
 5039TIP3    H115081   3.918   4.296   2.268 -0.5478  2.4442  0.2472
 5039TIP3    H215082   3.862   4.279   2.128  0.0162 -0.9782  0.3465
 5040TIP3   OH215083   5.869   3.298   5.250 -0.1691 -0.0030  0.1200
 5040TIP3    H115084   5.957   3.312   5.285  0.3969  0.8843 -1.5454
 5040TIP3    H215085   5.867   3.207   5.223  0.2861  0.0100  0.0408
 5041TIP3   OH215086   2.285   0.855   3.730 -0.1875 -0.1209  0.4971
 5041TIP3    H115087   2.272   0.949   3.742 -0.9737 -0.3719  1.7398
 5041TIP3    H215088   2.370   0.837   3.772 -0.7809 -0.2161  1.6980
 5042TIP3   OH215089   6.076   0.080   1.071 -0.3223 -0.1505  0.3768
 5042TIP3    H115090   5.981   0.070   1.073 -0.4283  0.8562  1.4612
 5042TIP3    H215091   6.095   0.145   1.138  0.8942  1.5931 -1.5290
 5043TIP3   OH215092   2.570   5.781   2.841 -0.6950 -0.1579 -0.3075
 5043TIP3    H115093   2.614   5.696   2.833 -0.9769 -0.2256 -1.3015
 5043TIP3    H215094   2.562   5.796   2.935 -0.4733 -1.1492 -0.1260
 5044TIP3   OH215095   3.415   2.995   5.114 -0.3552  0.1462  0.1415
 5044TIP3    H115096   3.499   2.964   5.148  0.7012  1.0728 -1.4595
 5044TIP3    H215097   3.362   2.916   5.103  0.7529 -0.5958  0.0162
 5045TIP3   OH215098   0.195   2.725   0.938 -0.0540 -0.7494 -0.7834
 5045TIP3    H115099   0.151   2.760   1.016  0.6855  1.5907 -1.3287
 5045TIP3    H215100   0.125   2.687   0.885 -0.6757 -1.6321  0.6249
 5046TIP3   OH215101   3.433   5.803   3.934 -0.1433  0.1964  0.0692
 5046TIP3    H115102   3.340   5.814   3.912  0.1873 -0.5528 -1.8929
 5046TIP3    H215103   3.465   5.892   3.946 -1.6176  0.4411  3.4494
 5047TIP3   OH215104   2.887   2.011   4.705  0.1958  0.3741  0.1595
 5047TIP3    H115105   2.800   2.011   4.747  0.2323  0.9856  0.2483
 5047TIP3    H215106   2.874   1.964   4.623  0.0691 -0.6456  0.7475
 5048TIP3   OH215107   4.681   6.450   3.903 -0.3127  0.2499 -0.4699
 5048TIP3    H115108   4.706   6.531   3.948  1.1857 -0.2965 -0.2433
 5048TIP3    H215109   4.605   6.418   3.952  0.7143  0.1551  1.1448
 5049TIP3   OH215110   5.403   1.322   0.891 -0.7492 -0.3808 -0.2968
 5049TIP3    H115111   5.346   1.247   0.907 -2.2682  0.8552  0.3165
 5049TIP3    H215112   5.344   1.397   0.885  0.7634  0.8788 -0.1927
 5050TIP3   OH215113   6.878   2.833   1.317 -0.2810 -0.0597 -0.2251
 5050TIP3    H115114   6.841   2.765   1.261 -1.3630 -0.6237  1.1108
 5050TIP3    H215115   6.848   2.916   1.277 -0.3656 -0.4143 -0.9142
 5051TIP3   OH215116   0.939   6.539   1.591  0.7283  0.5369  0.0138
 5051TIP3    H115117   0.971   6.472   1.530  0.7037  0.6201 -0.0903
 5051TIP3    H215118   0.853   6.563   1.557  0.1723 -0.3033  0.7770
 5052TIP3   OH215119   3.692   1.612   0.148 -0.5461  0.3816  0.5990
 5052TIP3    H115120   3.647   1.636   0.067 -0.7545  2.7242  1.3291
 5052TIP3    H215121   3.639   1.653   0.217  1.9604  2.2013  1.5846
 5053TIP3   OH215122   3.060   2.992   3.725 -0.0616  0.2128 -0.7413
 5053TIP3    H115123   2.981   2.941   3.707 -0.6142 -0.0494  1.9940
 5053TIP3    H215124   3.122   2.928   3.758 -0.7287  1.1396  2.6435
 5054TIP3   OH215125   0.482   5.386   2.391  0.6231 -0.0849  0.0455
 5054TIP3    H115126   0.535   5.321   2.345 -0.3809 -0.7369 -0.2321
 5054TIP3    H215127   0.422   5.334   2.445 -0.2894  0.5925 -0.2831
 5055TIP3   OH215128   6.261   2.275   0.489 -0.2641  0.5019  0.2413
 5055TIP3    H115129   6.221   2.218   0.554  1.4144 -0.4648  0.4684
 5055TIP3    H215130   6.266   2.361   0.532 -1.4543  0.4948  0.4285
 5056TIP3   OH215131   3.290   6.660   5.268 -0.0825 -0.1252 -0.4602
 5056TIP3    H115132   3.235   6.602   5.215 -2.8921  1.4955  0.4541
 5056TIP3    H215133   3.327   6.604   5.336 -0.2960 -1.3491 -1.3240
 5057TIP3   OH215134   6.541   3.207   2.374 -0.0739  0.3311  0.6118
 5057TIP3    H115135   6.537   3.173   2.463  0.1778  0.8656  0.8264
 5057TIP3    H215136   6.594   3.286   2.380  2.7542 -1.3164 -0.5416
 5058TIP3   OH215137   5.203   1.847   0.752 -0.3690  0.2069  0.0671
 5058TIP3    H115138   5.283   1.809   0.790  0.9124  0.8423 -1.8436
 5058TIP3    H215139   5.171   1.779   0.693 -0.1595  0.6716 -0.5843
 5059TIP3   OH215140   6.333   2.213   1.400  0.3410  0.5477 -0.1297
 5059TIP3    H115141   6.240   2.224   1.417  0.0205 -0.8354 -0.8719
 5059TIP3    H215142   6.338   2.140   1.339  1.9630  0.0773  0.5151
 5060TIP3   OH215143   2.424   0.906   0.758 -0.0930 -0.4593  0.1277
 5060TIP3    H115144   2.349   0.900   0.818 -0.0453 -2.7709  0.0275
 5060TIP3    H215145   2.500   0.889   0.813  0.2090  0.1793 -0.0882
 5061TIP3   OH215146   2.588   6.200   1.806  0.1502  0.0534 -0.2881
 5061TIP3    H115147   2.520   6.218   1.741  1.3259  0.1838 -1.5406
 5061TIP3    H215148   2.668   6.189   1.754  1.0854 -0.1199  1.1317
 5062TIP3   OH215149   7.115   4.904   4.640  0.6433  0.6286 -0.0123
 5062TIP3    H115150   7.125   4.873   4.730 -0.5254 -2.8216 -0.8973
 5062TIP3    H215151   7.203   4.898   4.603  0.8359  0.4830  0.4627
 5063TIP3   OH215152   3.541   4.256   4.152  0.1256 -0.7299  0.5666
 5063TIP3    H115153   3.549   4.279   4.060 -0.4528 -1.0965  0.4272
 5063TIP3    H215154   3.456   4.214   4.160 -0.4782  0.5972  1.5362
 5064TIP3   OH215155   4.778   2.206   3.059  0.2055 -0.6759  0.3403
 5064TIP3    H115156   4.714   2.221   3.128  0.4253 -1.6638  0.7845
 5064TIP3    H215157   4.863   2.219   3.102  0.3356 -0.9090  0.1595
 5065TIP3   OH215158   4.884   1.577   2.501 -0.4617 -0.5147 -0.0493
 5065TIP3    H115159   4.898   1.605   2.410  0.8236  1.0384  0.5737
 5065TIP3    H215160   4.793   1.548   2.504 -1.2797  1.7350 -1.2727
 5066TIP3   OH215161   3.296   5.292   1.475 -0.1143  0.0984 -0.4456
 5066TIP3    H115162   3.261   5.379   1.494  2.6834  0.9231  1.4865
 5066TIP3    H215163   3.243   5.233   1.530 -0.8958  0.7791 -0.4444
 5067TIP3   OH215164   0.310   5.083   2.836  0.2768  0.4336  0.4770
 5067TIP3    H115165   0.259   5.015   2.792 -0.0541  0.5352  0.7007
 5067TIP3    H215166   0.356   5.037   2.906 -0.5432  0.5670  1.1132
 5068TIP3   OH215167   5.456   6.320   4.454  0.2166  0.1433 -0.1812
 5068TIP3    H115168   5.362   6.337   4.453 -0.1512 -1.5931  0.8434
 5068TIP3    H215169   5.467   6.248   4.516  2.0372 -0.6721 -1.3484
 5069TIP3   OH215170   2.772   3.399   4.283  0.0216  0.5315 -0.0903
 5069TIP3    H115171   2.805   3.462   4.219  0.7063 -0.0094 -0.2834
 5069TIP3    H215172   2.681   3.384   4.257  0.0165  1.0315 -0.3675
 5070TIP3   OH215173   1.731   2.642   0.138  0.9302 -0.3431  0.1059
 5070TIP3    H115174   1.721   2.578   0.068 -0.9965 -0.3302  0.3234
 5070TIP3    H215175   1.722   2.591   0.219  2.7077 -0.2892  0.3758
 5071TIP3   OH215176   0.148   4.616   2.205 -0.2609  0.3409  0.1652
 5071TIP3    H115177   0.110   4.560   2.273 -1.4719  0.4890 -0.3621
 5071TIP3    H215178   0.169   4.698   2.250 -0.4081  0.1946  0.5079
 5072TIP3   OH215179   2.704   6.548   2.888  0.2097 -0.2733  0.4894
 5072TIP3    H115180   2.742   6.509   2.966 -1.7158 -0.3526  1.4644
 5072TIP3    H215181   2.616   6.576   2.916  0.5115  2.3253 -0.8711
 5073TIP3   OH215182   1.850   1.431   0.259  0.4617 -0.3640 -0.3106
 5073TIP3    H115183   1.847   1.340   0.229  0.6715 -0.2911 -0.5575
 5073TIP3    H215184   1.915   1.431   0.329  1.0685 -0.2461 -0.8673
 5074TIP3   OH215185   6.358   6.584   5.280 -0.3825  0.6790  0.2429
 5074TIP3    H115186   6.396   6.531   5.210  0.7872  1.1008  0.5335
 5074TIP3    H215187   6.288   6.633   5.238 -2.1699 -1.7445  0.1511
 5075TIP3   OH215188   1.964   5.668   3.038 -0.4925 -0.4681 -0.1627
 5075TIP3    H115189   1.937   5.706   3.121 -0.0292  0.2462 -0.3304
 5075TIP3    H215190   2.054   5.699   3.025 -1.1834  1.0343 -1.8299
 5076TIP3   OH215191   4.256   1.103   5.759  0.2987  0.4116  0.5786
 5076TIP3    H115192   4.176   1.146   5.788  1.0254  1.1400  1.5778
 5076TIP3    H215193   4.282   1.048   5.832  0.4387 -0.2216  0.0615
 5077TIP3   OH215194   5.440   0.653   1.260  0.1652  0.1910 -0.0396
 5077TIP3    H115195   5.411   0.662   1.350  0.7491  0.6547  0.1072
 5077TIP3    H215196   5.528   0.691   1.259  0.3514 -0.2348 -0.6988
 5078TIP3   OH215197   4.549   1.374   5.053 -0.3499  0.5254 -0.0659
 5078TIP3    H115198   4.640   1.373   5.083 -0.7084  1.3749  1.0947
 5078TIP3    H215199   4.499   1.338   5.126 -1.2340  2.6297  0.4294
 5079TIP3   OH215200   2.856   5.972   3.812 -0.1016 -0.1407  0.3344
 5079TIP3    H115201   2.813   5.935   3.734 -0.2261 -0.3763  0.5142
 5079TIP3    H215202   2.786   5.981   3.876 -0.2645  1.2757 -0.0054
 5080TIP3   OH215203   2.128   3.832   2.053 -0.2985  0.3406 -0.4133
 5080TIP3    H115204   2.198   3.867   1.998 -0.7776  1.0929 -0.5579
 5080TIP3    H215205   2.154   3.854   2.142  0.1830 -0.3522 -0.3736
 5081TIP3   OH215206   0.954   3.929   0.335  0.3305 -0.2015  0.0610
 5081TIP3    H115207   0.938   3.842   0.372  0.1764 -0.7679 -1.3141
 5081TIP3    H215208   0.869   3.958   0.302  0.9013 -0.7833 -2.0743
 5082TIP3   OH215209   0.270   0.914   3.605  0.7491 -0.2543  0.0811
 5082TIP3    H115210   0.200   0.869   3.652 -0.1279  2.2457  1.3343
 5082TIP3    H215211   0.236   0.928   3.517 -0.4047  1.0248  0.7089
 5083TIP3   OH215212   3.871   4.566   5.244 -0.1843 -0.2144  0.2044
 5083TIP3    H115213   3.834   4.493   5.294 -1.0438  0.0016 -0.1174
 5083TIP3    H215214   3.859   4.642   5.301  1.0227 -0.3545  0.6905
 5084TIP3   OH215215   2.597   3.928   3.019 -0.2032 -0.2299  0.2894
 5084TIP3    H115216   2.693   3.932   3.022 -0.1550 -1.2028  0.2168
 5084TIP3    H215217   2.578   3.886   2.935 -0.7226  0.6651 -0.0523
 5085TIP3   OH215218   6.440   4.958   0.592 -0.1082  0.2783 -0.5165
 5085TIP3    H115219   6.381   4.892   0.555 -1.6398  2.4714 -2.2406
 5085TIP3    H215220   6.519   4.953   0.539  0.3021 -0.9552  0.1682
 5086TIP3   OH215221   7.073   2.918   4.282  0.1878 -0.6422  0.5937
 5086TIP3    H115222   7.010   2.855   4.246 -1.5039  0.4503  1.5182
 5086TIP3    H215223   7.106   2.965   4.206 -0.4933 -0.8811  0.1436
 5087TIP3   OH215224   0.621   5.480   0.986  0.0816  0.3209  0.0484
 5087TIP3    H115225   0.712   5.461   1.007 -0.5906 -2.3024  1.0377
 5087TIP3    H215226   0.579   5.493   1.070 -0.6958  0.1163 -0.2963
 5088TIP3   OH215227   6.697   4.472   2.763  0.3702 -0.4462  0.0957
 5088TIP3    H115228   6.639   4.470   2.687 -0.2781  0.4611  0.5382
 5088TIP3    H215229   6.642   4.442   2.836 -0.4019  2.7160  0.9947
 5089TIP3   OH215230   4.854   5.459   0.208 -0.0426 -0.4475  0.4376
 5089TIP3    H115231   4.810   5.522   0.150 -2.5755 -1.6363  0.9007
 5089TIP3    H215232   4.933   5.434   0.161 -1.6062 -0.8115 -2.2422
 5090TIP3   OH215233   2.603   5.001   1.844  0.3179  0.3508  0.5133
 5090TIP3    H115234   2.539   4.992   1.915 -0.4432  0.1328 -0.1830
 5090TIP3    H215235   2.629   5.093   1.847  1.6526 -0.0365  2.1965
 5091TIP3   OH215236   3.312   1.927   3.090 -0.1351  0.9817  0.5621
 5091TIP3    H115237   3.308   1.932   3.185  2.0324 -2.3431  1.0055
 5091TIP3    H215238   3.307   1.834   3.070 -2.4821  1.6299 -2.8180
 5092TIP3   OH215239   4.553   4.723   1.552 -0.6140  0.0120 -0.1378
 5092TIP3    H115240   4.587   4.718   1.463 -0.6806 -0.4354 -0.1413
 5092TIP3    H215241   4.625   4.760   1.603 -0.6082  0.3553 -0.3945
 5093TIP3   OH215242   5.149   0.224   0.119  0.4253 -0.0726  0.4757
 5093TIP3    H115243   5.136   0.196   0.210  0.6969  0.2644  0.6181
 5093TIP3    H215244   5.148   0.142   0.069 -1.2910 -0.1613  0.5892
 5094TIP3   OH215245   4.092   0.217   0.067 -0.4956 -0.3421  0.0827
 5094TIP3    H115246   4.117   0.218   0.159  0.7186  1.0641 -0.2177
 5094TIP3    H215247   4.143   0.146   0.028 -0.8249 -0.7761  0.4323
 5095TIP3   OH215248   2.581   3.450   3.538 -0.7637 -0.7310 -0.0880
 5095TIP3    H115249   2.623   3.510   3.477 -0.1924 -1.8911 -0.8773
 5095TIP3    H215250   2.537   3.386   3.482 -0.8634 -1.3880  0.7144
 5096TIP3   OH215251   1.672   5.741   2.097  0.2728 -0.5883 -0.1875
 5096TIP3    H115252   1.616   5.712   2.169 -0.7198  0.3162 -0.5811
 5096TIP3    H215253   1.760   5.739   2.134 -0.2658  0.3771  1.2365
 5097TIP3   OH215254   2.313   5.510   5.387 -0.1389  0.0424 -0.0438
 5097TIP3    H115255   2.217   5.510   5.387 -0.1518  0.8870 -0.4348
 5097TIP3    H215256   2.336   5.602   5.401  0.5787  0.2386 -2.1406
 5098TIP3   OH215257   4.616   6.434   3.480 -0.0058 -0.0705  0.1560
 5098TIP3    H115258   4.551   6.449   3.412 -1.6254  0.2563  1.7196
 5098TIP3    H215259   4.700   6.442   3.435 -0.9902 -1.9739 -2.2268
 5099TIP3   OH215260   2.825   0.650   3.310 -0.0350 -0.3504  0.0290
 5099TIP3    H115261   2.813   0.710   3.384 -0.0013 -0.7354  0.3491
 5099TIP3    H215262   2.790   0.698   3.235 -3.1735 -1.1851  0.8077
 5100TIP3   OH215263   2.563   6.164   3.713  0.1475 -0.2890  0.8195
 5100TIP3    H115264   2.614   6.241   3.736 -0.2877  1.0460 -2.2773
 5100TIP3    H215265   2.555   6.116   3.796  1.0307  2.5713  2.7248
 5101TIP3   OH215266   0.160   1.076   2.278  0.0198  0.3762  0.1564
 5101TIP3    H115267   0.196   1.165   2.283  3.7352 -1.0315  2.1708
 5101TIP3    H215268   0.198   1.040   2.197  0.0943  0.0192  0.3496
 5102TIP3   OH215269   4.549   5.954   1.561  0.3094 -0.4993 -0.9293
 5102TIP3    H115270   4.575   5.863   1.578  1.6167 -0.8278 -4.0202
 5102TIP3    H215271   4.465   5.947   1.517 -1.2325  0.0824  1.7440
 5103TIP3   OH215272   5.115   1.426   3.911  0.0928  0.1942  0.4914
 5103TIP3    H115273   5.162   1.418   3.827 -1.9660 -0.1638 -0.6954
 5103TIP3    H215274   5.147   1.508   3.949  0.4783  0.7938 -1.0523
 5104TIP3   OH215275   6.559   2.276   4.057  0.1248  0.5421 -0.5055
 5104TIP3    H115276   6.606   2.310   3.981  1.6806 -0.6017 -0.1107
 5104TIP3    H215277   6.601   2.191   4.075 -0.1055  0.8427  1.7047
 5105TIP3   OH215278   6.025   4.697   2.028  0.1133 -0.1830  0.7054
 5105TIP3    H115279   6.065   4.615   2.058  1.1154  0.6459  1.7252
 5105TIP3    H215280   5.940   4.671   1.993  0.8289 -1.7805  0.0822
 5106TIP3   OH215281   5.951   1.657   5.209 -0.3833  0.0290 -0.0671
 5106TIP3    H115282   5.932   1.568   5.180  1.7608 -0.2133 -0.9308
 5106TIP3    H215283   6.024   1.685   5.154 -0.4912  2.0239  0.7358
 5107TIP3   OH215284   2.194   6.155   2.362 -0.3628 -0.7249  0.1441
 5107TIP3    H115285   2.125   6.159   2.427 -1.4923 -0.8556 -0.9981
 5107TIP3    H215286   2.160   6.204   2.287  2.0481  1.9532  0.6145
 5108TIP3   OH215287   5.491   5.675   2.229  0.3547  0.6791  0.0604
 5108TIP3    H115288   5.462   5.750   2.177 -1.2176  0.1385  0.1009
 5108TIP3    H215289   5.585   5.687   2.238  0.1752  2.5280 -0.1171
 5109TIP3   OH215290   3.050   5.799   0.780  0.3272 -0.2148  0.0100
 5109TIP3    H115291   2.995   5.783   0.857  1.9220 -0.1398  1.2155
 5109TIP3    H215292   3.041   5.719   0.728  1.5955 -1.6329  1.8158
 5110TIP3   OH215293   3.870   3.317   4.217  0.2541  0.3528  0.4684
 5110TIP3    H115294   3.845   3.391   4.161 -1.0537 -1.2402 -1.2016
 5110TIP3    H215295   3.798   3.308   4.279  0.8644  1.0242  1.2995
 5111TIP3   OH215296   2.049   5.764   5.200  0.8415  0.1017  0.0701
 5111TIP3    H115297   2.003   5.815   5.134 -0.7899 -0.8872  0.3829
 5111TIP3    H215298   2.140   5.760   5.169  0.4951  1.1717 -1.1486
 5112TIP3   OH215299   1.620   2.768   5.747  0.2874  0.3093 -0.2140
 5112TIP3    H115300   1.664   2.826   5.684  0.5689  0.9639  0.5790
 5112TIP3    H215301   1.539   2.742   5.702 -0.7954  2.8039  0.0958
 5113TIP3   OH215302   7.000   3.405   1.044 -0.1142  0.6452 -0.8466
 5113TIP3    H115303   7.040   3.486   1.077 -0.5518  0.6481 -0.3030
 5113TIP3    H215304   6.910   3.429   1.024 -0.3476  0.2085 -0.3325
 5114TIP3   OH215305   5.732   5.156   1.876 -0.1059  0.1694 -0.1662
 5114TIP3    H115306   5.801   5.133   1.813  0.2104  0.9570 -0.1239
 5114TIP3    H215307   5.694   5.073   1.902  0.3569 -0.2272 -0.7330
 5115TIP3   OH215308   0.649   4.202   1.491 -0.1433  0.2941  0.3333
 5115TIP3    H115309   0.559   4.233   1.493 -0.2252  0.0323  0.7610
 5115TIP3    H215310   0.689   4.237   1.571 -0.2581 -0.7365  0.8587
 5116TIP3   OH215311   1.482   3.426   0.154 -0.2981  0.0942  0.0169
 5116TIP3    H115312   1.494   3.402   0.246 -2.1433  2.6275  1.0126
 5116TIP3    H215313   1.388   3.424   0.139 -0.0550 -0.1430 -1.8174
 5117TIP3   OH215314   4.207   5.449   5.665 -0.2975 -0.2294 -0.5400
 5117TIP3    H115315   4.114   5.430   5.651  0.0047 -0.9680 -1.6964
 5117TIP3    H215316   4.213   5.544   5.663 -1.4492  0.0244  2.5912
 5118TIP3   OH215317   5.919   6.099   1.362  0.5578  0.3831 -0.1110
 5118TIP3    H115318   6.012   6.123   1.362  1.0507 -1.0346  2.8834
 5118TIP3    H215319   5.879   6.160   1.423 -0.2139  0.1322 -0.3619
 5119TIP3   OH215320   0.445   0.592   2.067 -0.0048  0.3982 -0.4978
 5119TIP3    H115321   0.408   0.513   2.106  0.8097  0.7797  1.1194
 5119TIP3    H215322   0.510   0.559   2.004 -0.6830 -0.2158 -0.8954
 5120TIP3   OH215323   1.705   3.422   2.159 -0.2734  0.5672  0.6097
 5120TIP3    H115324   1.795   3.429   2.128 -0.7343 -0.3454 -1.0278
 5120TIP3    H215325   1.695   3.330   2.183 -1.3971  0.1365 -1.3580
 5121TIP3   OH215326   1.654   4.822   4.381 -0.0922  0.2938 -0.3256
 5121TIP3    H115327   1.600   4.877   4.437 -0.0778  0.8776 -0.8795
 5121TIP3    H215328   1.640   4.733   4.414 -0.2087  0.6105  0.4921
 5122TIP3   OH215329   2.682   0.345   0.255  0.5298 -0.0158  0.2786
 5122TIP3    H115330   2.724   0.350   0.341 -0.2608 -0.8464  0.7234
 5122TIP3    H215331   2.614   0.412   0.257 -0.0251 -0.5738  0.6182
 5123TIP3   OH215332   4.326   6.572   0.963  0.1501  0.5429  0.4538
 5123TIP3    H115333   4.257   6.628   0.927 -0.7807 -0.8697 -0.0302
 5123TIP3    H215334   4.408   6.613   0.934 -0.5395  0.7644 -1.2584
 5124TIP3   OH215335   5.065   5.419   0.413 -0.0515  0.2032  0.2181
 5124TIP3    H115336   5.105   5.505   0.406 -0.8546  0.5873  0.1917
 5124TIP3    H215337   4.973   5.434   0.392  0.0987 -0.9380 -1.3876
 5125TIP3   OH215338   3.371   1.623   0.215 -0.3204  0.0843  0.3245
 5125TIP3    H115339   3.392   1.562   0.145  0.6546  0.2860  0.4322
 5125TIP3    H215340   3.335   1.568   0.285 -1.4146 -0.0990 -0.3620
 5126TIP3   OH215341   7.061   5.519   3.830 -0.0486 -0.5885 -0.4010
 5126TIP3    H115342   7.018   5.451   3.882 -1.3890 -0.9125 -1.8516
 5126TIP3    H215343   6.993   5.549   3.769  0.2266  2.6330  0.6603
 5127TIP3   OH215344   1.718   3.963   3.617  0.3813  0.0164  0.1135
 5127TIP3    H115345   1.769   4.044   3.628 -2.4311  2.3478 -2.3302
 5127TIP3    H215346   1.758   3.920   3.542 -1.2082  2.0156 -2.0280
 5128TIP3   OH215347   5.855   1.055   4.252  0.0090 -0.4550  0.0154
 5128TIP3    H115348   5.851   0.978   4.195 -1.5317 -0.6186  0.3111
 5128TIP3    H215349   5.883   1.021   4.337  1.6193 -0.3158 -0.4346
 5129TIP3   OH215350   5.536   3.031   5.159 -0.4231  0.0800 -0.1071
 5129TIP3    H115351   5.630   3.016   5.174 -0.4787 -0.9132 -0.6307
 5129TIP3    H215352   5.533   3.076   5.075 -0.4086  0.1140 -0.0891
 5130TIP3   OH215353   0.633   5.682   3.167 -0.1377 -0.0260  0.6243
 5130TIP3    H115354   0.564   5.618   3.187 -1.1736  0.4332 -1.2834
 5130TIP3    H215355   0.590   5.746   3.111  1.3152  1.4813  1.1652
 5131TIP3   OH215356   1.075   4.856   1.215 -0.1274  0.4611  0.2511
 5131TIP3    H115357   1.096   4.931   1.271  0.0132  0.1660  0.5893
 5131TIP3    H215358   0.981   4.842   1.228 -0.3676  1.2034 -0.5707
 5132TIP3   OH215359   6.622   4.843   5.218  0.2061  0.0534 -0.7338
 5132TIP3    H115360   6.584   4.790   5.148  0.2398 -0.7723 -0.1448
 5132TIP3    H215361   6.567   4.921   5.222 -1.1257 -0.8796 -0.2544
 5133TIP3   OH215362   3.692   4.661   1.147  0.2134 -0.6849  0.5221
 5133TIP3    H115363   3.673   4.750   1.118  0.4005 -1.1573 -1.1472
 5133TIP3    H215364   3.628   4.643   1.216 -1.2769 -0.0357 -0.6571
 5134TIP3   OH215365   0.348   5.161   2.144  0.1641  0.0521  0.1210
 5134TIP3    H115366   0.388   5.173   2.058 -0.6649  0.3498 -0.2399
 5134TIP3    H215367   0.365   5.070   2.167  2.5839  0.6166  0.8016
 5135TIP3   OH215368   0.211   6.529   3.110  0.2934  0.2104  0.5672
 5135TIP3    H115369   0.284   6.501   3.166  1.6617  1.2970 -0.6062
 5135TIP3    H215370   0.198   6.621   3.133  0.5916  0.5501 -0.5558
 5136TIP3   OH215371   3.645   5.770   3.134  0.4063 -0.1956 -0.0490
 5136TIP3    H115372   3.563   5.761   3.182  0.4094  0.6950  0.1410
 5136TIP3    H215373   3.619   5.784   3.043  0.3155  0.8096  0.1219
 5137TIP3   OH215374   3.379   0.491   0.644 -0.1821  0.0110  0.3799
 5137TIP3    H115375   3.408   0.554   0.578  0.3187  0.0252  0.6101
 5137TIP3    H215376   3.350   0.415   0.593 -4.1973  1.6575 -0.1598
 5138TIP3   OH215377   0.740   2.963   3.226  0.3510 -0.4003  0.3343
 5138TIP3    H115378   0.681   2.899   3.266  0.0426 -0.8561 -0.7832
 5138TIP3    H215379   0.722   2.954   3.132  0.1745  1.4490  0.1642
 5139TIP3   OH215380   1.151   2.735   2.025 -0.1141  0.8648 -0.1086
 5139TIP3    H115381   1.214   2.788   2.074 -0.3938  1.0704  0.0336
 5139TIP3    H215382   1.163   2.646   2.059 -0.2028  0.9806  0.2294
 5140TIP3   OH215383   0.703   0.062   3.081  0.2339 -0.1126 -0.1009
 5140TIP3    H115384   0.612   0.038   3.062 -0.4158  1.0520  1.3131
 5140TIP3    H215385   0.706   0.070   3.176  1.3863  1.4760 -0.2351
 5141TIP3   OH215386   6.004   2.905   4.959  0.2937 -0.1810  0.5654
 5141TIP3    H115387   6.012   2.874   5.049  0.4174  1.0382  0.9906
 5141TIP3    H215388   6.051   2.989   4.958  0.6426 -0.3685 -0.7325
 5142TIP3   OH215389   6.991   2.741   3.908 -0.2130  0.2595 -0.4957
 5142TIP3    H115390   6.926   2.728   3.839  1.4776 -0.6183 -2.0094
 5142TIP3    H215391   6.955   2.695   3.984 -1.3878 -0.1262 -1.2602
 5143TIP3   OH215392   5.160   3.240   2.706  0.6297  0.0263  0.3235
 5143TIP3    H115393   5.155   3.203   2.794 -1.2637  0.1278  0.3154
 5143TIP3    H215394   5.092   3.194   2.657 -0.0593  1.6781 -0.3775
 5144TIP3   OH215395   5.046   3.820   1.249 -0.4126 -0.3522  0.6178
 5144TIP3    H115396   5.097   3.902   1.250  0.5112 -0.8084 -1.9473
 5144TIP3    H215397   4.955   3.849   1.247 -0.0932  0.7764 -2.2533
 5145TIP3   OH215398   3.115   1.985   5.830 -0.3129  0.0728 -0.0664
 5145TIP3    H115399   3.200   1.985   5.784  1.1981  0.0810  2.5283
 5145TIP3    H215400   3.080   2.073   5.814 -0.5371 -0.3766 -2.2986
 5146TIP3   OH215401   0.497   1.140   2.089  0.3714 -0.3371 -0.2633
 5146TIP3    H115402   0.488   1.144   2.184 -0.6739  1.8872 -0.4110
 5146TIP3    H215403   0.409   1.119   2.057  0.5985 -0.5314 -0.7848
 5147TIP3   OH215404   5.662   6.285   5.568  0.2458  0.0627 -0.2611
 5147TIP3    H115405   5.589   6.231   5.536 -0.4098  0.6945  0.1301
 5147TIP3    H215406   5.675   6.351   5.500  0.4026 -0.0041 -0.2961
 5148TIP3   OH215407   5.133   5.918   1.902  0.1640 -0.4330  0.0272
 5148TIP3    H115408   5.147   6.012   1.915 -2.2806 -0.0267  0.2367
 5148TIP3    H215409   5.187   5.896   1.826  0.5647  1.1969 -0.2051
 5149TIP3   OH215410   3.454   2.414   4.362 -0.1999  0.2870 -0.3019
 5149TIP3    H115411   3.522   2.362   4.405  0.2308  0.9171 -0.2084
 5149TIP3    H215412   3.502   2.474   4.306 -0.7618 -1.4983 -2.9036
 5150TIP3   OH215413   5.897   6.656   1.240 -0.1977 -0.4939  0.3977
 5150TIP3    H115414   5.873   6.748   1.227  1.8378 -0.0582 -0.8616
 5150TIP3    H215415   5.848   6.608   1.174 -0.5825 -0.1843  0.4583
 5151TIP3   OH215416   3.125   4.779   4.553 -0.1900 -0.3252 -0.1053
 5151TIP3    H115417   3.055   4.721   4.524 -0.5698 -0.1825  0.5150
 5151TIP3    H215418   3.183   4.722   4.604  0.7341 -0.6858 -1.4783
 5152TIP3   OH215419   3.608   6.332   1.829 -0.0312 -0.6175  0.6975
 5152TIP3    H115420   3.567   6.356   1.912  1.2455 -1.2993  1.5526
 5152TIP3    H215421   3.635   6.416   1.791 -0.1196 -0.3316  1.2462
 5153TIP3   OH215422   2.222   2.543   4.906 -0.3443  0.1320  0.1708
 5153TIP3    H115423   2.303   2.513   4.864  0.5228 -1.3482  2.6498
 5153TIP3    H215424   2.156   2.478   4.880 -0.0075 -0.3222  0.4227
 5154TIP3   OH215425   2.229   1.594   0.027  0.1567 -0.3200  0.0142
 5154TIP3    H115426   2.238   1.581  -0.067 -1.4474 -2.0972  0.0351
 5154TIP3    H215427   2.302   1.544   0.065  1.5290  1.3860 -0.2641
 5155TIP3   OH215428   3.428   0.901   5.168  0.7639  0.0222  0.2212
 5155TIP3    H115429   3.399   0.843   5.239 -0.7912  0.5685  0.0759
 5155TIP3    H215430   3.473   0.843   5.107 -2.2083 -1.4783 -0.7793
 5156TIP3   OH215431   3.612   6.441   5.058 -0.4343 -0.7563 -0.1772
 5156TIP3    H115432   3.639   6.529   5.031 -1.4312 -0.5985 -0.7138
 5156TIP3    H215433   3.692   6.401   5.093  0.4608 -0.2804 -1.5889
 5157TIP3   OH215434   1.172   5.093   5.075 -0.0829  0.0196 -0.4823
 5157TIP3    H115435   1.174   5.034   5.151 -1.7155  0.1544 -0.2982
 5157TIP3    H215436   1.107   5.053   5.016  1.8835 -0.6463 -2.3121
 5158TIP3   OH215437   6.376   2.649   5.451  0.2804  0.3570 -0.1981
 5158TIP3    H115438   6.406   2.568   5.409 -1.1067  1.2745 -3.2182
 5158TIP3    H215439   6.427   2.654   5.532  0.6152 -3.3595 -0.0027
 5159TIP3   OH215440   3.977   2.357   1.707 -0.0457 -0.2821 -1.1500
 5159TIP3    H115441   3.995   2.449   1.685 -0.4629  0.2730  0.6512
 5159TIP3    H215442   4.063   2.320   1.727 -0.0081  0.1136 -0.5406
 5160TIP3   OH215443   1.388   5.662   0.725  0.0841  0.8782  0.3348
 5160TIP3    H115444   1.416   5.574   0.700  1.9040  1.3439  0.6174
 5160TIP3    H215445   1.352   5.700   0.645 -0.8553 -0.1461  0.2433
 5161TIP3   OH215446   4.437   5.964   0.598  0.9131  0.2430  0.1592
 5161TIP3    H115447   4.491   5.907   0.545  0.5246 -2.8058  2.7672
 5161TIP3    H215448   4.353   5.918   0.607  0.2618  1.5937  1.7177
 5162TIP3   OH215449   1.080   4.973   3.809  0.2775  0.0189  0.1937
 5162TIP3    H115450   1.114   4.974   3.720 -0.8746 -2.0436 -0.3225
 5162TIP3    H215451   1.094   4.883   3.839  2.0619  1.0039  2.7148
 5163TIP3   OH215452   4.907   0.346   1.318 -0.4725 -0.7423  0.4644
 5163TIP3    H115453   5.002   0.355   1.308 -0.3538  0.5239  2.2590
 5163TIP3    H215454   4.872   0.430   1.291 -0.6666  0.2943  3.4861
 5164TIP3   OH215455   5.957   0.794   5.674  0.0591 -0.4609  0.2803
 5164TIP3    H115456   6.001   0.877   5.657 -1.4766  0.7749  1.9226
 5164TIP3    H215457   5.912   0.774   5.592  1.2833 -0.2291 -0.4638
 5165TIP3   OH215458   6.478   3.604   0.843  0.1941 -0.2869  0.1937
 5165TIP3    H115459   6.436   3.578   0.926 -0.2862 -0.7167 -0.1776
 5165TIP3    H215460   6.407   3.640   0.791  0.5783  0.3803  0.1204
 5166TIP3   OH215461   0.854   5.461   2.511 -0.1236  0.1979 -0.5650
 5166TIP3    H115462   0.892   5.450   2.598  0.6208 -0.7402 -0.9927
 5166TIP3    H215463   0.910   5.525   2.467  0.7565 -0.8737 -1.0509
 5167TIP3   OH215464   0.737   1.101   1.956 -0.0433  0.7999 -0.1322
 5167TIP3    H115465   0.789   1.021   1.966  0.7183  1.2108 -0.7008
 5167TIP3    H215466   0.657   1.084   2.006 -1.8304 -1.9777 -3.5055
 5168TIP3   OH215467   5.587   2.560   1.516  0.4099  0.4769 -0.1329
 5168TIP3    H115468   5.674   2.533   1.545  0.2429 -1.7460 -1.4690
 5168TIP3    H215469   5.600   2.593   1.427 -0.1608 -0.3815 -0.5485
 5169TIP3   OH215470   1.638   4.478   0.118  0.2443 -0.0327 -0.1869
 5169TIP3    H115471   1.684   4.470   0.202  0.7470  2.8775 -0.0979
 5169TIP3    H215472   1.584   4.399   0.114  0.2718 -0.3501  2.8166
 5170TIP3   OH215473   4.155   0.171   5.135  0.1009  0.4572 -0.4427
 5170TIP3    H115474   4.089   0.223   5.182  1.7596  1.9499  0.3527
 5170TIP3    H215475   4.220   0.236   5.107  3.7533 -1.3534  2.9453
 5171TIP3   OH215476   4.532   1.209   4.268 -0.3300  0.1504 -0.1714
 5171TIP3    H115477   4.498   1.289   4.227 -3.4389 -0.2555  1.3070
 5171TIP3    H215478   4.522   1.142   4.201  1.9947  0.8618 -1.3099
 5172TIP3   OH215479   2.471   0.754   0.559 -0.3047  0.2762  0.0987
 5172TIP3    H115480   2.446   0.820   0.623 -2.6981  1.9632 -2.3483
 5172TIP3    H215481   2.512   0.804   0.488  1.8924 -1.4633  0.0677
 5173TIP3   OH215482   2.618   5.006   1.506  0.2302  0.2811 -0.3795
 5173TIP3    H115483   2.561   4.953   1.562  0.5342  0.0939 -0.2424
 5173TIP3    H215484   2.602   5.096   1.534  1.4909  0.0882  1.0612
 5174TIP3   OH215485   4.766   1.018   5.366  0.2580  0.2631 -0.2292
 5174TIP3    H115486   4.737   1.034   5.277 -0.5974 -1.3333 -0.2637
 5174TIP3    H215487   4.749   1.101   5.412  0.3098  0.9516 -1.4271
 5175TIP3   OH215488   2.743   6.283   0.428 -0.7711  0.1874  0.4838
 5175TIP3    H115489   2.765   6.370   0.462 -0.7719  0.6565 -0.6738
 5175TIP3    H215490   2.735   6.229   0.506  3.2879  0.2131  1.1582
 5176TIP3   OH215491   5.347   3.070   5.382  0.3429  0.4224  0.0575
 5176TIP3    H115492   5.413   3.080   5.314  1.2911  0.0327  0.8835
 5176TIP3    H215493   5.384   3.116   5.458 -0.0217 -0.3714  0.7336
 5177TIP3   OH215494   2.301   4.675   4.771 -0.0524 -0.2275  0.3246
 5177TIP3    H115495   2.208   4.698   4.773  0.1348  0.7705 -1.0890
 5177TIP3    H215496   2.320   4.646   4.860 -1.5726  0.1351  0.7992
 5178TIP3   OH215497   1.939   2.275   2.023  0.2513  0.0649  0.5175
 5178TIP3    H115498   2.006   2.255   1.958 -1.9600  0.8721 -2.2105
 5178TIP3    H215499   1.942   2.370   2.031  1.7338 -0.1050  3.1750
 5179TIP3   OH215500   6.651   3.977   1.569  0.0908 -0.0181 -0.1135
 5179TIP3    H115501   6.606   3.924   1.503  2.1034  0.7420 -2.2362
 5179TIP3    H215502   6.581   4.028   1.611 -1.2673 -0.4043 -1.7994
 5180TIP3   OH215503   5.141   6.598   1.890 -0.2714  0.3070  0.0294
 5180TIP3    H115504   5.209   6.625   1.951  1.5268  1.4817 -2.3103
 5180TIP3    H215505   5.178   6.521   1.845 -0.8606  0.4016 -0.6443
 5181TIP3   OH215506   3.280   3.597   2.997  0.2499  0.1713  0.0659
 5181TIP3    H115507   3.274   3.571   3.089 -0.7130  2.1631  0.6292
 5181TIP3    H215508   3.203   3.652   2.983 -0.5696 -1.4223 -2.4308
 5182TIP3   OH215509   5.670   3.202   4.523  0.7153  0.2839  0.2637
 5182TIP3    H115510   5.651   3.295   4.537  0.7959  0.1675  1.2028
 5182TIP3    H215511   5.590   3.157   4.550  1.0346  0.0226  0.8018
 5183TIP3   OH215512   7.102   1.449   2.436  0.4911  0.4451 -0.3620
 5183TIP3    H115513   7.073   1.361   2.461  0.3837  0.6622  0.2990
 5183TIP3    H215514   7.190   1.456   2.472  0.6566  0.4654 -0.7660
 5184TIP3   OH215515   3.787   2.610   3.990  0.2546 -0.0639 -0.1907
 5184TIP3    H115516   3.824   2.688   3.949  2.3060 -1.0758 -0.3556
 5184TIP3    H215517   3.707   2.641   4.033 -0.4287  1.5976 -2.4784
 5185TIP3   OH215518   1.280   1.345   3.892 -0.4147 -0.0937 -0.0920
 5185TIP3    H115519   1.350   1.328   3.955  0.1420 -0.4117 -0.7824
 5185TIP3    H215520   1.200   1.350   3.946 -0.0503 -1.0214  0.5655
 5186TIP3   OH215521   4.939   0.615   1.210 -0.5062 -0.2389  0.6014
 5186TIP3    H115522   4.843   0.617   1.208 -0.5202 -0.7080  0.5371
 5186TIP3    H215523   4.966   0.679   1.144 -0.7260  2.1685  2.7226
 5187TIP3   OH215524   4.238   2.092   3.920  0.3800 -0.0890  0.5125
 5187TIP3    H115525   4.216   2.081   4.013 -0.4195 -0.1524  0.3240
 5187TIP3    H215526   4.262   2.005   3.890  0.8568 -0.0287  0.7101
 5188TIP3   OH215527   1.906   4.977   2.015  0.4993 -0.2639 -0.2349
 5188TIP3    H115528   1.983   4.977   1.958  0.6648 -1.7203 -0.0349
 5188TIP3    H215529   1.840   4.927   1.966 -0.8065  2.0445 -0.9858
 5189TIP3   OH215530   6.432   5.253   5.092 -0.0982 -0.1649 -0.2162
 5189TIP3    H115531   6.353   5.272   5.142  0.1871 -0.0513  0.1900
 5189TIP3    H215532   6.461   5.338   5.059  0.5544 -0.0371  0.6767
 5190TIP3   OH215533   3.451   3.608   1.437 -0.0797 -0.0237 -0.1710
 5190TIP3    H115534   3.525   3.547   1.446  1.0618  1.3702  0.2709
 5190TIP3    H215535   3.462   3.645   1.349 -0.6457 -0.2866 -0.3549
 5191TIP3   OH215536   1.138   6.245   5.766  0.0333 -0.1216 -0.2435
 5191TIP3    H115537   1.056   6.218   5.807 -0.1159  1.3956  0.5481
 5191TIP3    H215538   1.112   6.308   5.699  0.4719 -0.5628 -0.8409
 5192TIP3   OH215539   6.380   4.035   2.534  0.0586 -0.1154  0.2958
 5192TIP3    H115540   6.354   3.995   2.616 -0.3623  1.3340  0.9021
 5192TIP3    H215541   6.335   4.119   2.533  1.9931  0.9806 -0.2463
 5193TIP3   OH215542   4.768   6.427   0.298  0.2332 -0.1612  0.4941
 5193TIP3    H115543   4.688   6.434   0.245 -0.6706 -0.0827  1.8149
 5193TIP3    H215544   4.830   6.381   0.242 -0.4186  0.6155 -0.9185
 5194TIP3   OH215545   1.199   0.327   0.074 -0.5535  0.6755  0.1966
 5194TIP3    H115546   1.207   0.233   0.057  0.9470  0.8098 -0.0009
 5194TIP3    H215547   1.123   0.354   0.023 -0.8108 -0.3700  0.0009
 5195TIP3   OH215548   4.817   1.066   4.875  0.5117  0.0831  0.1132
 5195TIP3    H115549   4.825   1.162   4.880 -1.9196  0.3364  0.2782
 5195TIP3    H215550   4.877   1.034   4.943  0.3318  1.5579  1.0296
 5196TIP3   OH215551   2.396   5.826   0.811 -0.7837 -0.3777  0.5850
 5196TIP3    H115552   2.396   5.860   0.721  2.3891  0.8623  0.9219
 5196TIP3    H215553   2.385   5.732   0.801 -0.7239 -0.2326 -1.0876
 5197TIP3   OH215554   5.274   4.481   1.430  0.4627  0.3834  0.4813
 5197TIP3    H115555   5.228   4.544   1.375  0.0829  0.3029  0.7006
 5197TIP3    H215556   5.239   4.497   1.518 -0.1394 -0.5783  0.4398
 5198TIP3   OH215557   6.217   4.496   3.873  0.2588  0.5694  0.1878
 5198TIP3    H115558   6.288   4.552   3.904 -0.0257 -0.1790  2.3627
 5198TIP3    H215559   6.235   4.411   3.912 -0.5699 -0.2657 -1.1655
 5199TIP3   OH215560   2.456   0.711   2.979 -0.1180  0.0798  0.1468
 5199TIP3    H115561   2.411   0.629   3.001  2.3195 -1.6627 -0.8981
 5199TIP3    H215562   2.442   0.722   2.885  0.4354  0.3085  0.0914
 5200TIP3   OH215563   6.838   3.600   3.597 -0.2992 -0.0690  0.1509
 5200TIP3    H115564   6.813   3.629   3.510  1.8299 -0.8753 -0.7968
 5200TIP3    H215565   6.800   3.513   3.606 -0.0496 -0.2168 -0.2109
 5201TIP3   OH215566   2.199   6.458   4.548 -0.7597  0.0699  0.8796
 5201TIP3    H115567   2.140   6.423   4.615  1.2015 -2.5320  1.4461
 5201TIP3    H215568   2.244   6.531   4.592 -1.5076  0.2250  1.4081
 5202TIP3   OH215569   5.949   5.661   1.981 -0.9269 -0.4132 -0.4488
 5202TIP3    H115570   5.898   5.600   1.929  0.2703  0.2768 -2.5413
 5202TIP3    H215571   5.919   5.748   1.954  0.3213 -0.0213 -0.6481
 5203TIP3   OH215572   2.217   0.002   5.421  0.1182 -0.2108 -0.5085
 5203TIP3    H115573   2.122  -0.007   5.409  0.0059  1.2399 -0.8329
 5203TIP3    H215574   2.227   0.031   5.511  0.0413  2.0682 -1.1630
 5204TIP3   OH215575   3.047   0.946   2.838 -0.4537  0.1639  0.3568
 5204TIP3    H115576   2.955   0.951   2.811  0.0851  1.6277 -1.4211
 5204TIP3    H215577   3.054   1.007   2.912 -0.7620  0.6145  0.0156
 5205TIP3   OH215578   2.134   5.620   1.940 -0.3829 -0.1044 -0.2056
 5205TIP3    H115579   2.107   5.703   1.980  1.3070 -0.5068  2.0078
 5205TIP3    H215580   2.195   5.646   1.871  0.1571  0.5333  0.4859
 5206TIP3   OH215581   2.028   4.397   4.420  0.0469 -0.2579  0.2867
 5206TIP3    H115582   1.933   4.410   4.425  0.0117  0.4556 -1.3097
 5206TIP3    H215583   2.054   4.372   4.508 -1.5731 -0.0913  0.8497
 5207TIP3   OH215584   3.389   3.562   4.157 -0.0217 -0.0661 -0.2361
 5207TIP3    H115585   3.322   3.496   4.138 -0.1248  0.3958 -1.5998
 5207TIP3    H215586   3.416   3.594   4.070 -0.7131  2.4037  0.3784
 5208TIP3   OH215587   3.313   3.404   3.842  0.1374 -0.2946 -0.2564
 5208TIP3    H115588   3.368   3.480   3.857 -0.9305  0.4289  0.1275
 5208TIP3    H215589   3.368   3.329   3.865  1.6815  0.2451 -2.0094
 5209TIP3   OH215590   3.587   0.690   3.004 -0.0261 -0.2278  0.1870
 5209TIP3    H115591   3.568   0.783   3.013 -0.2531 -0.3212  0.6710
 5209TIP3    H215592   3.636   0.667   3.083 -0.8745 -0.7499  0.5709
 5210TIP3   OH215593   2.288   4.204   2.467 -0.0673 -0.0334  0.2427
 5210TIP3    H115594   2.341   4.281   2.485  2.1458 -1.0738 -1.3715
 5210TIP3    H215595   2.281   4.202   2.371 -0.6759 -1.4479  0.2993
 5211TIP3   OH215596   2.569   1.182   2.156 -0.1471 -0.2539 -0.6674
 5211TIP3    H115597   2.643   1.220   2.204 -0.8725 -1.5503  1.6215
 5211TIP3    H215598   2.568   1.229   2.073  0.9290  2.4379  0.7228
 5212TIP3   OH215599   0.492   0.526   0.135  0.2647  0.2319 -0.0236
 5212TIP3    H115600   0.557   0.544   0.204  0.8346 -1.1153 -0.1813
 5212TIP3    H215601   0.477   0.611   0.094  1.1813  0.7549  0.6788
 5213TIP3   OH215602   6.338   5.817   1.765 -0.1437  0.0349 -0.0026
 5213TIP3    H115603   6.417   5.868   1.781 -0.2874  0.4182 -0.4632
 5213TIP3    H215604   6.367   5.744   1.710 -0.2982  0.8509 -1.2208
 5214TIP3   OH215605   3.763   0.074   3.450  0.3931 -0.1434 -0.3582
 5214TIP3    H115606   3.688   0.133   3.456  0.7306  0.1371  2.5047
 5214TIP3    H215607   3.784   0.071   3.357 -2.4149  0.6864 -1.1277
 5215TIP3   OH215608   1.703   0.118   0.328  0.3159 -1.0959 -0.5480
 5215TIP3    H115609   1.633   0.154   0.274  2.2735  1.2015 -1.7513
 5215TIP3    H215610   1.683   0.024   0.333 -1.9501 -0.7859 -2.1627
 5216TIP3   OH215611   4.202   2.274   2.236  0.1959 -0.0611  0.3247
 5216TIP3    H115612   4.129   2.329   2.209 -0.3192 -0.4284  0.9637
 5216TIP3    H215613   4.244   2.322   2.307  1.1169  0.5588 -0.5989
 5217TIP3   OH215614   6.590   4.927   1.015  0.0226  0.5015  0.0643
 5217TIP3    H115615   6.542   4.916   1.097  0.4652 -1.8602  0.0711
 5217TIP3    H215616   6.542   4.874   0.951  1.0769  0.2980 -0.5864
 5218TIP3   OH215617   6.806   1.205   1.508  0.1061  0.2529  0.0651
 5218TIP3    H115618   6.749   1.138   1.472 -1.1035  0.1896  1.9539
 5218TIP3    H215619   6.749   1.281   1.521  0.8734  0.8008  0.3016
 5219TIP3   OH215620   1.068   3.894  -0.003 -0.2707 -0.0271 -0.3082
 5219TIP3    H115621   1.143   3.843   0.025  0.3469  1.4278  0.8268
 5219TIP3    H215622   1.011   3.898   0.074 -1.0915 -0.3690 -0.8853
 5220TIP3   OH215623   7.202   4.486   4.462  0.2831  0.3877 -0.6506
 5220TIP3    H115624   7.141   4.531   4.520  1.5453  2.9014 -1.1192
 5220TIP3    H215625   7.173   4.510   4.374  0.2894 -0.7376 -0.9728
 5221TIP3   OH215626   4.321   1.924   3.314 -0.4622  0.7214  0.7740
 5221TIP3    H115627   4.296   1.839   3.350  0.2344  0.3720  0.4505
 5221TIP3    H215628   4.402   1.907   3.266 -0.1895  1.6151  0.8993
 5222TIP3   OH215629   5.607   3.227   1.684 -0.1019  0.1725 -0.4118
 5222TIP3    H115630   5.599   3.287   1.610 -0.4438  0.5371 -0.0898
 5222TIP3    H215631   5.648   3.280   1.753  0.4145 -0.2258 -0.4105
 5223TIP3   OH215632   5.646   0.954   3.044  0.3780  0.0526 -0.2319
 5223TIP3    H115633   5.563   0.967   3.089  0.6129 -0.2160  0.2873
 5223TIP3    H215634   5.629   0.983   2.954 -0.9847 -2.2806 -0.7918
 5224TIP3   OH215635   4.716   5.022   2.295 -0.3284  0.0336  0.4034
 5224TIP3    H115636   4.717   5.097   2.354  0.2556 -0.6951  1.3513
 5224TIP3    H215637   4.801   4.981   2.306  0.5906  0.9662 -2.4421
 5225TIP3   OH215638   0.789   0.720   0.593 -0.3299  0.4782  0.1881
 5225TIP3    H115639   0.883   0.733   0.583 -0.4056 -0.1053 -1.9073
 5225TIP3    H215640   0.756   0.804   0.625  1.0989  0.0240  3.1878
 5226TIP3   OH215641   4.998   4.504   0.230  0.5627 -0.3750 -0.0693
 5226TIP3    H115642   5.078   4.484   0.181  1.5060  0.9988  0.8398
 5226TIP3    H215643   4.999   4.599   0.240 -0.3811 -0.4789  1.3184
 5227TIP3   OH215644   6.630   1.975   2.001  0.2178 -0.7588 -0.0940
 5227TIP3    H115645   6.566   2.037   1.966  1.8332 -0.2306 -2.3137
 5227TIP3    H215646   6.603   1.962   2.092  0.7332  4.6270  1.1895
 5228TIP3   OH215647   3.296   5.395   0.640 -0.0299 -0.2730  0.2991
 5228TIP3    H115648   3.248   5.394   0.723  1.7007  0.6062  1.3462
 5228TIP3    H215649   3.359   5.324   0.648 -0.4534 -0.7783 -0.6662
 5229TIP3   OH215650   2.512   4.671   2.621 -0.3298 -0.0710  0.5696
 5229TIP3    H115651   2.561   4.659   2.539  0.1048 -1.2948  0.9818
 5229TIP3    H215652   2.513   4.765   2.637  0.1304  0.1162 -0.4980
 5230TIP3   OH215653   5.522   0.779   3.732 -0.3287  0.1687  0.2841
 5230TIP3    H115654   5.557   0.838   3.799  2.3152 -2.2274  1.2374
 5230TIP3    H215655   5.572   0.799   3.653  0.5732 -0.6569  0.6094
 5231TIP3   OH215656   0.225   4.647   4.005 -0.3645 -0.1555 -0.1016
 5231TIP3    H115657   0.207   4.572   4.061 -2.1075  0.3667  0.1159
 5231TIP3    H215658   0.320   4.650   3.998 -0.1902 -1.3648  1.2641
 5232TIP3   OH215659   1.962   4.539   5.800 -0.3840  0.3683  0.0138
 5232TIP3    H115660   1.954   4.453   5.759 -1.0989 -0.3975  1.6843
 5232TIP3    H215661   1.875   4.558   5.834 -0.6531  2.4944 -1.6541
 5233TIP3   OH215662   1.896   6.721   1.631 -0.5476 -0.4076  0.1218
 5233TIP3    H115663   1.822   6.679   1.675 -0.0150 -1.1360  0.3483
 5233TIP3    H215664   1.867   6.735   1.541 -0.5081 -1.9214 -0.1558
 5234TIP3   OH215665   5.586   1.576   1.827 -0.3451 -0.2621 -0.8231
 5234TIP3    H115666   5.538   1.543   1.752  1.5357 -0.0355 -2.1944
 5234TIP3    H215667   5.665   1.616   1.790  0.5787 -0.0088  1.2581
 5235TIP3   OH215668   1.395   4.578   0.325  0.2797  0.0401  0.0576
 5235TIP3    H115669   1.452   4.526   0.268 -0.5945 -0.9971  0.0950
 5235TIP3    H215670   1.393   4.664   0.285  1.3945 -0.0790 -0.2744
 5236TIP3   OH215671   2.601   3.341   3.795  0.5262  0.5844  0.3514
 5236TIP3    H115672   2.535   3.381   3.852 -0.7601 -0.4233 -0.3809
 5236TIP3    H215673   2.595   3.389   3.713  0.0121 -0.1254 -0.0374
 5237TIP3   OH215674   0.565   6.672   0.775 -0.1242 -0.2006 -0.0180
 5237TIP3    H115675   0.620   6.727   0.831  2.5005 -1.4298 -1.2113
 5237TIP3    H215676   0.511   6.621   0.836 -0.0389  1.1247  1.2027
 5238TIP3   OH215677   5.445   6.726   1.041 -0.3221 -0.7154 -0.3897
 5238TIP3    H115678   5.506   6.771   1.099 -0.5205 -0.4080 -0.4151
 5238TIP3    H215679   5.366   6.780   1.044 -1.0325 -1.7869  0.6142
 5239TIP3   OH215680   4.539   2.018   2.386  0.2744  0.7620 -0.2690
 5239TIP3    H115681   4.484   2.080   2.339 -0.5046 -0.0456 -0.4630
 5239TIP3    H215682   4.626   2.057   2.385 -0.0545  1.5134 -0.9944
 5240TIP3   OH215683   4.622   1.774   2.539  0.1999  0.1783  0.2140
 5240TIP3    H115684   4.691   1.778   2.605 -1.1907  1.2245  1.7018
 5240TIP3    H215685   4.636   1.853   2.486  1.3424 -0.6829 -0.8152
 5241TIP3   OH215686   3.804   3.296   1.672 -0.5689 -0.0550 -0.8481
 5241TIP3    H115687   3.815   3.337   1.758 -1.8426 -3.6458  1.2580
 5241TIP3    H215688   3.865   3.223   1.672  2.0276  1.8111 -4.6485
 5242TIP3   OH215689   4.332   5.193   1.652  0.2450 -0.0601 -0.3196
 5242TIP3    H115690   4.343   5.154   1.739 -0.4845 -1.8084 -0.9460
 5242TIP3    H215691   4.247   5.237   1.657  0.5186  0.4245  0.0562
 5243TIP3   OH215692   5.554   1.809   0.605 -0.3378  1.1793 -0.1694
 5243TIP3    H115693   5.520   1.765   0.684 -1.4992  0.6387 -0.9451
 5243TIP3    H215694   5.622   1.867   0.638  1.3846 -1.2684  0.9113
 5244TIP3   OH215695   2.559   5.922   4.423  0.6192  0.5336  0.3969
 5244TIP3    H115696   2.649   5.889   4.423  0.8871  1.2289  1.3873
 5244TIP3    H215697   2.562   5.999   4.480 -0.9254 -0.2837  1.6337
 5245TIP3   OH215698   1.363   2.120   5.782 -0.3083 -0.4326 -0.2633
 5245TIP3    H115699   1.345   2.212   5.802 -0.0432 -0.1953 -1.0455
 5245TIP3    H215700   1.395   2.082   5.864  1.1165  0.5787 -0.3036
 5246TIP3   OH215701   6.354   4.248   3.540 -1.1046  0.4267 -0.0494
 5246TIP3    H115702   6.290   4.273   3.474 -1.1164  0.9821  0.1664
 5246TIP3    H215703   6.400   4.330   3.562  1.5801 -0.3658 -2.1711
 5247TIP3   OH215704   0.726   6.489   0.266 -0.0837  0.3794  0.0025
 5247TIP3    H115705   0.635   6.467   0.286 -0.4311  1.4555 -0.3364
 5247TIP3    H215706   0.773   6.476   0.348 -0.3988 -0.8801 -0.0014
 5248TIP3   OH215707   6.278   6.474   0.038 -0.1642  0.0681  0.4304
 5248TIP3    H115708   6.200   6.430   0.004 -0.1433 -0.4373  1.0374
 5248TIP3    H215709   6.350   6.437  -0.013 -0.0127 -1.4234  1.6640
 5249TIP3   OH215710   5.703   4.789   5.137  0.1799  0.4486 -0.1851
 5249TIP3    H115711   5.687   4.880   5.162 -1.5602  0.6191 -1.6512
 5249TIP3    H215712   5.770   4.794   5.069  0.6545  0.5347  0.2785
 5250TIP3   OH215713   1.810   1.499   4.132  0.2585  0.3730  0.1396
 5250TIP3    H115714   1.843   1.412   4.110 -2.5125 -0.4011 -1.3602
 5250TIP3    H215715   1.793   1.494   4.226 -0.5227 -0.9727 -0.0468
 5251TIP3   OH215716   1.678   1.075   4.845 -0.3812 -0.9296  0.0648
 5251TIP3    H115717   1.642   0.992   4.877 -1.2399 -0.3800  0.5598
 5251TIP3    H215718   1.602   1.133   4.838  0.4121  0.3551  1.4030
 5252TIP3   OH215719   0.364   6.052   4.651 -0.1078  0.1982  0.2965
 5252TIP3    H115720   0.342   5.977   4.596  0.5035  0.2752 -0.0567
 5252TIP3    H215721   0.294   6.055   4.716  0.4076 -1.3251  0.9672
 5253TIP3   OH215722   6.746   6.732   5.349 -0.5818  0.6256  0.3669
 5253TIP3    H115723   6.797   6.651   5.346  0.9901  1.4929  1.7986
 5253TIP3    H215724   6.699   6.734   5.265  0.6608 -0.9141 -0.4259
 5254TIP3   OH215725   2.828   3.747   5.795  0.6200  0.4162  0.3357
 5254TIP3    H115726   2.873   3.774   5.715 -0.0633 -0.5135 -0.3812
 5254TIP3    H215727   2.759   3.688   5.765  0.4051 -0.0119  1.6257
 5255TIP3   OH215728   0.680   4.157   5.678  0.3967  0.3252  0.0764
 5255TIP3    H115729   0.698   4.200   5.594  1.0747  1.1449  0.6291
 5255TIP3    H215730   0.764   4.160   5.724  0.3977 -1.3492  0.2500
 5256TIP3   OH215731   2.149   2.929   4.141 -0.3149  0.3827 -0.2651
 5256TIP3    H115732   2.089   2.985   4.091 -1.1365  0.2418  0.5397
 5256TIP3    H215733   2.220   2.910   4.080 -1.2406  0.3054 -1.3493
 5257TIP3   OH215734   0.742   1.652   0.286 -0.0698 -0.2392  0.1268
 5257TIP3    H115735   0.775   1.653   0.197  0.3445 -0.3391  0.2774
 5257TIP3    H215736   0.677   1.582   0.287  0.8168 -1.0886  0.2173
 5258TIP3   OH215737   3.408   5.099   2.797 -0.4172 -0.3785  0.0243
 5258TIP3    H115738   3.321   5.115   2.760  0.0755 -0.4835 -1.2087
 5258TIP3    H215739   3.392   5.042   2.872 -1.9105  3.1162  2.6486
 5259TIP3   OH215740   5.832   1.616   0.835 -0.8700  0.0743  0.2323
 5259TIP3    H115741   5.760   1.561   0.865 -0.1233  0.0048  1.9945
 5259TIP3    H215742   5.833   1.604   0.740 -2.4598 -0.7803  0.2901
 5260TIP3   OH215743   0.029   4.014   0.247 -0.0660 -0.0090  0.0745
 5260TIP3    H115744   0.099   4.011   0.181 -0.2325  0.1475 -0.1155
 5260TIP3    H215745   0.034   3.931   0.293 -0.3261 -0.3780 -0.5397
 5261TIP3   OH215746   6.998   6.122   5.089 -0.6651 -0.1853 -0.2896
 5261TIP3    H115747   7.046   6.094   5.011  1.0189  0.9729  0.2522
 5261TIP3    H215748   7.011   6.217   5.092 -0.8389 -0.1840  1.2888
 5262TIP3   OH215749   5.240   1.290   5.189 -0.5531 -0.0595  0.3294
 5262TIP3    H115750   5.259   1.367   5.243 -0.8833 -0.3900  0.9195
 5262TIP3    H215751   5.172   1.243   5.237  0.0016 -0.9915  0.2168
 5263TIP3   OH215752   0.788   6.461   5.016 -0.0853 -0.1687 -0.3214
 5263TIP3    H115753   0.762   6.474   5.108  0.7642  0.0530 -0.0952
 5263TIP3    H215754   0.875   6.500   5.011  0.6946 -1.8528 -0.7430
 5264TIP3   OH215755   2.609   5.347   5.257 -0.0148  0.1421 -0.5753
 5264TIP3    H115756   2.613   5.282   5.187  2.3935 -0.2395 -0.1760
 5264TIP3    H215757   2.657   5.422   5.222  0.4853  0.2699  0.3494
 5265TIP3   OH215758   3.114   1.419   3.478  0.3496  0.0637  0.1909
 5265TIP3    H115759   3.120   1.491   3.415 -0.6377  0.3039  0.3519
 5265TIP3    H215760   3.056   1.355   3.437 -0.8784  0.5343  1.1244
 5266TIP3   OH215761   2.895   4.372   3.514  0.2397 -0.2071 -0.3571
 5266TIP3    H115762   2.939   4.287   3.517 -1.2036 -0.9421  0.9643
 5266TIP3    H215763   2.960   4.433   3.548  0.8292 -0.9954 -0.0275
 5267TIP3   OH215764   5.387   6.474   1.761  0.4346  0.2813 -0.3655
 5267TIP3    H115765   5.451   6.419   1.807  0.1870  1.1557  1.1106
 5267TIP3    H215766   5.410   6.563   1.786 -2.5091  0.5624  1.9029
 5268TIP3   OH215767   2.181   0.153   1.291 -0.6197  0.2180  0.3448
 5268TIP3    H115768   2.234   0.227   1.323 -0.4969 -0.6173  2.2214
 5268TIP3    H215769   2.242   0.079   1.292 -1.2648 -0.3108  0.4599
 5269TIP3   OH215770   3.610   5.894   5.306 -0.0382 -0.1818 -0.0994
 5269TIP3    H115771   3.564   5.858   5.230  0.3226 -0.3008 -0.2646
 5269TIP3    H215772   3.541   5.934   5.359 -0.2713  0.0365 -0.5651
 5270TIP3   OH215773   3.768   0.970   4.553 -0.3986 -0.4328  0.0657
 5270TIP3    H115774   3.725   0.953   4.469  0.1595  1.0141 -0.5516
 5270TIP3    H215775   3.819   0.891   4.570 -0.5750 -0.7801 -0.9271
 5271TIP3   OH215776   6.116   4.080   4.832  0.0268 -0.0114 -0.1114
 5271TIP3    H115777   6.183   4.014   4.850 -0.5132 -0.4207  0.4601
 5271TIP3    H215778   6.101   4.074   4.737  1.2082  0.4985 -0.3422
 5272TIP3   OH215779   5.185   0.842   1.451 -0.1209  0.3745 -0.1534
 5272TIP3    H115780   5.092   0.857   1.468 -0.3647  0.1706 -1.2209
 5272TIP3    H215781   5.223   0.826   1.537 -1.3069 -0.7220  0.2072
 5273TIP3   OH215782   1.005   5.153   3.483  0.5079 -0.1800  0.2245
 5273TIP3    H115783   1.049   5.217   3.538  3.2029 -1.0200 -0.7801
 5273TIP3    H215784   1.043   5.069   3.510 -0.7632 -1.0069 -0.4882
 5274TIP3   OH215785   3.206   5.641   2.621 -0.6769 -0.4558 -0.0208
 5274TIP3    H115786   3.293   5.603   2.616 -0.2374  0.5133  0.1452
 5274TIP3    H215787   3.219   5.729   2.657 -1.6392 -0.0233 -0.6818
 5275TIP3   OH215788   3.269   6.289   5.819  0.5872 -0.3271 -0.1418
 5275TIP3    H115789   3.176   6.270   5.822 -0.3154  3.2883  0.0637
 5275TIP3    H215790   3.298   6.257   5.734 -1.1901 -0.2683 -0.8029
 5276TIP3   OH215791   6.725   6.513   1.892  0.1608  0.1253  0.4720
 5276TIP3    H115792   6.804   6.554   1.858  0.8618 -1.6650 -0.1989
 5276TIP3    H215793   6.755   6.458   1.965 -0.5687 -0.0106  0.6839
 5277TIP3   OH215794   6.009   0.198   0.414 -0.1788 -0.0127 -0.0907
 5277TIP3    H115795   6.058   0.244   0.483 -0.0844 -1.7648  1.0742
 5277TIP3    H215796   5.936   0.257   0.393  0.7918  1.3418  0.2193
 5278TIP3   OH215797   3.089   0.964   5.093 -0.7663 -0.0526 -0.2353
 5278TIP3    H115798   3.106   0.876   5.125 -0.7784  0.0112 -0.0532
 5278TIP3    H215799   3.163   1.016   5.124  0.1904 -0.3753 -1.8962
 5279TIP3   OH215800   7.112   2.227   1.899  0.3267 -0.3895  0.2450
 5279TIP3    H115801   7.054   2.181   1.838 -1.1529  0.2645  1.0933
 5279TIP3    H215802   7.053   2.281   1.952  1.6409 -0.3233  1.7224
 5280TIP3   OH215803   0.524   5.459   5.419 -0.4381  0.0201 -0.0828
 5280TIP3    H115804   0.538   5.539   5.367  2.1271  0.9554  1.8076
 5280TIP3    H215805   0.486   5.491   5.501 -1.9545 -1.0954 -0.3167
 5281TIP3   OH215806   2.765   3.772   4.816  0.1982  0.3921  0.1736
 5281TIP3    H115807   2.707   3.738   4.884  0.5995 -0.0554  0.3015
 5281TIP3    H215808   2.707   3.800   4.746 -0.1367 -0.7882 -0.0386
 5282TIP3   OH215809   0.846   3.332   3.208  0.1400 -0.4273 -0.0750
 5282TIP3    H115810   0.885   3.388   3.141 -2.1774 -0.3473 -1.4914
 5282TIP3    H215811   0.911   3.263   3.223  1.2974  0.3203 -1.3904
 5283TIP3   OH215812   2.144   3.161   3.512 -0.3531  0.2794 -0.1750
 5283TIP3    H115813   2.055   3.126   3.524 -0.9028  1.8180  0.4600
 5283TIP3    H215814   2.136   3.222   3.439  0.1856  0.4345 -0.1095
 5284TIP3   OH215815   4.662   3.740   3.973 -0.4941 -0.3151 -0.1029
 5284TIP3    H115816   4.735   3.802   3.970 -1.4788  0.9164  0.2430
 5284TIP3    H215817   4.658   3.712   4.065  0.8972 -2.1227 -0.5457
 5285TIP3   OH215818   4.466   3.439   1.801 -0.2232 -0.4347  0.1449
 5285TIP3    H115819   4.501   3.440   1.712  0.2067 -0.2248  0.3108
 5285TIP3    H215820   4.469   3.348   1.828 -0.5761 -0.5312 -0.1418
 5286TIP3   OH215821   2.781   2.025   1.854  0.7617 -0.2831 -0.5224
 5286TIP3    H115822   2.833   2.088   1.803  0.1592 -0.7385 -1.7376
 5286TIP3    H215823   2.843   1.955   1.875  1.3821  0.5707  0.6503
 5287TIP3   OH215824   2.144   1.783   1.598 -0.2895 -0.5736  0.6463
 5287TIP3    H115825   2.205   1.712   1.579  0.7209  0.4299  0.0137
 5287TIP3    H215826   2.060   1.739   1.614 -0.6619 -1.7888 -3.4463
 5288TIP3   OH215827   0.357   6.371   4.600 -0.0507 -0.1213  0.3379
 5288TIP3    H115828   0.324   6.300   4.545 -1.5806  0.7402  0.0909
 5288TIP3    H215829   0.418   6.329   4.660  2.8082 -0.9377 -2.8576
 5289TIP3   OH215830   1.663   6.488   1.351 -0.5181 -0.2694  0.1307
 5289TIP3    H115831   1.696   6.574   1.379 -0.0215 -0.8085  1.2582
 5289TIP3    H215832   1.671   6.433   1.429  1.6951 -2.0759 -1.2797
 5290TIP3   OH215833   5.304   4.894   5.088  0.0094  0.7440  0.1734
 5290TIP3    H115834   5.239   4.828   5.111  2.0184 -1.3720  0.0774
 5290TIP3    H215835   5.348   4.859   5.011  1.2823  2.1143  0.2318
 5291TIP3   OH215836   0.448   1.485   0.639 -0.4683 -0.0342  0.1248
 5291TIP3    H115837   0.432   1.567   0.591  0.9151  0.4785  0.4812
 5291TIP3    H215838   0.434   1.416   0.574  0.2983  0.5926 -0.7293
 5292TIP3   OH215839   3.734   3.734   5.143  0.1726  0.2692 -0.2237
 5292TIP3    H115840   3.691   3.749   5.228  0.8835 -0.3694  0.2577
 5292TIP3    H215841   3.823   3.766   5.155  0.3381 -0.0233 -0.6666
 5293TIP3   OH215842   3.470   1.737   0.467  0.6952  0.0156 -0.3895
 5293TIP3    H115843   3.424   1.698   0.392  0.6991  1.1267 -0.9927
 5293TIP3    H215844   3.487   1.827   0.440  0.1709  0.6156  1.1803
 5294TIP3   OH215845   5.326   4.536   4.708 -0.2329 -0.0894  0.2788
 5294TIP3    H115846   5.288   4.618   4.678  1.8423  0.9320  0.2933
 5294TIP3    H215847   5.365   4.558   4.793  3.0925 -0.1979 -1.1049
 5295TIP3   OH215848   2.733   0.446   4.801  0.5272  0.5043  0.2882
 5295TIP3    H115849   2.661   0.498   4.766  0.9713  0.4619 -0.7146
 5295TIP3    H215850   2.805   0.508   4.813  0.4726  0.4641  0.8693
 5296TIP3   OH215851   1.365   3.043   1.315  0.1802 -0.2993  0.4949
 5296TIP3    H115852   1.371   2.972   1.252  0.0114  0.1274 -0.0074
 5296TIP3    H215853   1.340   3.001   1.397  0.1807 -0.8280  0.2233
 5297TIP3   OH215854   6.911   5.555   0.347  0.0119 -0.2282  0.5470
 5297TIP3    H115855   6.860   5.501   0.286  0.3054 -0.9896  0.9553
 5297TIP3    H215856   6.872   5.538   0.433  0.9601 -0.8632  0.8731
 5298TIP3   OH215857   6.723   5.184   1.570  0.1514  0.7783  0.1868
 5298TIP3    H115858   6.713   5.122   1.498  0.6046  1.3175 -0.3511
 5298TIP3    H215859   6.799   5.152   1.619 -0.3640  0.2198  0.6230
 5299TIP3   OH215860   1.215   6.298   1.289 -0.1741 -0.6204  0.4155
 5299TIP3    H115861   1.271   6.261   1.220  0.5859 -0.7883  1.1035
 5299TIP3    H215862   1.239   6.390   1.291 -0.1668 -0.6236  0.4733
 5300TIP3   OH215863   6.991   2.099   4.664 -0.3329  0.2535 -0.0881
 5300TIP3    H115864   7.076   2.098   4.621  0.1675 -0.3281  0.8706
 5300TIP3    H215865   7.011   2.108   4.757 -1.3698  1.1947  0.0693
 5301TIP3   OH215866   2.950   3.822   0.463 -0.3995 -0.0725 -0.3925
 5301TIP3    H115867   2.879   3.766   0.430  0.0491 -0.7108 -0.3031
 5301TIP3    H215868   2.965   3.886   0.393 -1.5055  0.4870 -0.1331
 5302TIP3   OH215869   0.310   4.054   5.586 -0.7342  0.2292 -0.2890
 5302TIP3    H115870   0.323   4.134   5.638 -1.7051  0.4727 -0.4077
 5302TIP3    H215871   0.233   4.012   5.625 -1.8275  0.7028 -1.8733
 5303TIP3   OH215872   3.340   0.133   0.029  0.1483  0.1664  0.4099
 5303TIP3    H115873   3.352   0.221   0.065 -0.9288  0.2379  0.6325
 5303TIP3    H215874   3.300   0.084   0.101 -0.4900 -0.1361 -0.1466
 5304TIP3   OH215875   6.843   4.563   3.174  0.3487 -0.1265 -0.0179
 5304TIP3    H115876   6.872   4.591   3.087  1.3580  1.7754  0.8625
 5304TIP3    H215877   6.748   4.561   3.168  0.1774  3.3103 -0.3360
 5305TIP3   OH215878   0.833   3.645   1.943  0.3018 -0.3835 -0.1826
 5305TIP3    H115879   0.771   3.640   2.015 -0.0661  0.3266 -0.4363
 5305TIP3    H215880   0.870   3.557   1.937 -1.0769 -0.9816 -0.3721
 5306TIP3   OH215881   5.321   0.904   2.919  0.3322 -0.1762 -0.4079
 5306TIP3    H115882   5.359   0.973   2.865  1.7521 -0.1427  0.5930
 5306TIP3    H215883   5.387   0.834   2.920 -0.6749 -1.1653 -0.6216
 5307TIP3   OH215884   4.193   5.024   1.208  0.1890 -0.5753 -0.2283
 5307TIP3    H115885   4.263   4.968   1.243 -1.3143 -1.5606  1.3111
 5307TIP3    H215886   4.150   5.060   1.285 -0.6913  0.4139 -1.1628
 5308TIP3   OH215887   3.252   3.068   1.279  0.4485  0.8382  0.2265
 5308TIP3    H115888   3.309   3.104   1.347 -0.0042  0.9431  0.5539
 5308TIP3    H215889   3.169   3.114   1.289 -0.6672 -1.2764  1.6358
 5309TIP3   OH215890   4.644   2.113   1.994  0.2782 -0.2902  0.2016
 5309TIP3    H115891   4.726   2.076   2.028  0.0400 -0.4931  0.5669
 5309TIP3    H215892   4.590   2.036   1.974 -0.2303 -0.1419  0.9894
 5310TIP3   OH215893   5.228   0.095   0.987  0.2990  0.2307 -0.3438
 5310TIP3    H115894   5.207   0.068   1.076  2.4258 -4.6056 -0.9659
 5310TIP3    H215895   5.151   0.068   0.936  0.5580 -0.4969 -0.3677
 5311TIP3   OH215896   0.586   4.592   2.226  0.0920  0.1399 -0.2621
 5311TIP3    H115897   0.650   4.608   2.156  1.5894 -1.7665  0.5899
 5311TIP3    H215898   0.507   4.565   2.180 -0.1743  2.4594 -1.3413
 5312TIP3   OH215899   1.635   5.663   1.460 -0.0944  0.9766  0.2270
 5312TIP3    H115900   1.721   5.624   1.477  0.8445  2.8771  0.0848
 5312TIP3    H215901   1.578   5.626   1.528  0.8191 -0.3307  0.3125
 5313TIP3   OH215902   1.806   4.633   3.110 -0.3061  0.2548 -0.2396
 5313TIP3    H115903   1.779   4.589   3.030 -1.0147 -0.4392  0.3585
 5313TIP3    H215904   1.835   4.720   3.082  0.0341 -0.1971 -1.3087
 5314TIP3   OH215905   0.671   5.271   5.571  0.1487 -0.3395  0.4447
 5314TIP3    H115906   0.617   5.287   5.494  0.4478 -1.1941  0.0437
 5314TIP3    H215907   0.758   5.304   5.547  1.0587 -3.3519 -0.8075
 5315TIP3   OH215908   1.885   0.701   3.412  0.7427  0.1669  0.1763
 5315TIP3    H115909   1.901   0.632   3.477  0.8355 -0.2715 -0.3118
 5315TIP3    H215910   1.910   0.662   3.329  0.7720  0.7850 -0.1081
 5316TIP3   OH215911   4.272   0.148   4.779 -0.0953 -0.0391  0.1084
 5316TIP3    H115912   4.180   0.143   4.802 -0.0523 -0.5103  0.1914
 5316TIP3    H215913   4.273   0.173   4.687 -0.2611  2.3428  0.7046
 5317TIP3   OH215914   4.811   0.474   4.292 -0.0540  0.4200  0.4461
 5317TIP3    H115915   4.817   0.549   4.233 -1.5581  0.4082  0.2454
 5317TIP3    H215916   4.874   0.494   4.362  0.0563  1.5432  0.0477
 5318TIP3   OH215917   1.823   5.480   1.848 -0.1379 -0.1124  0.0548
 5318TIP3    H115918   1.825   5.489   1.753 -0.7750 -1.5582 -0.1308
 5318TIP3    H215919   1.906   5.519   1.878  0.5091 -0.4870 -1.1710
 5319TIP3   OH215920   4.582   2.299   2.707 -0.0148 -0.7553 -0.5949
 5319TIP3    H115921   4.627   2.221   2.739  1.1937 -0.2307 -0.9809
 5319TIP3    H215922   4.612   2.309   2.617 -0.0645  0.2231 -0.5163
 5320TIP3   OH215923   0.014   6.713   5.670 -0.1861  0.1945  0.0396
 5320TIP3    H115924  -0.071   6.670   5.676  0.5321 -1.4248 -0.6411
 5320TIP3    H215925   0.067   6.671   5.739  0.8124 -0.7596 -1.2562
 5321TIP3   OH215926   0.114   4.459   4.164 -0.5236 -0.2290 -0.3888
 5321TIP3    H115927   0.020   4.452   4.183 -0.2820 -1.8268  0.3415
 5321TIP3    H215928   0.157   4.449   4.249  0.3196  0.6558 -0.6909
 5322TIP3   OH215929   3.157   5.109   1.664 -0.1317 -0.4522  0.0001
 5322TIP3    H115930   3.124   5.181   1.719  1.8529 -0.1510  0.8557
 5322TIP3    H215931   3.079   5.077   1.619 -1.1608  1.9853 -0.1264
 5323TIP3   OH215932   7.017   6.797   4.119  0.6461 -1.0474  0.0432
 5323TIP3    H115933   7.031   6.814   4.212 -0.6913  1.4793 -0.1354
 5323TIP3    H215934   6.936   6.746   4.117  1.0713 -1.7508  0.2674
 5324TIP3   OH215935   0.052   4.689   1.549 -0.1066 -0.5550 -0.1892
 5324TIP3    H115936   0.042   4.628   1.622  0.2984  0.3453  0.6358
 5324TIP3    H215937   0.131   4.660   1.504  0.0803 -0.6440  0.1954
 5325TIP3   OH215938   3.696   5.560   3.559 -0.0352  0.3098 -0.0715
 5325TIP3    H115939   3.766   5.625   3.552 -0.3931  0.9916  1.9800
 5325TIP3    H215940   3.741   5.478   3.576  0.3352  1.1236  3.6748
 5326TIP3   OH215941   3.146   4.468   3.594 -0.5775  0.1038 -0.2713
 5326TIP3    H115942   3.165   4.459   3.688 -1.0381 -0.9495 -0.2683
 5326TIP3    H215943   3.103   4.554   3.587 -0.2842  0.3156  0.4364
 5327TIP3   OH215944   6.473   6.835   5.348  0.3264 -0.5543  0.1388
 5327TIP3    H115945   6.422   6.756   5.329  0.0600 -0.3879  0.1509
 5327TIP3    H215946   6.560   6.803   5.373  0.9710 -0.7683 -2.1745
 5328TIP3   OH215947   2.037   0.762   3.998 -0.0324 -0.4717  0.0590
 5328TIP3    H115948   1.974   0.825   3.963  0.2060 -0.6094 -0.6305
 5328TIP3    H215949   2.118   0.812   4.010  0.0300 -0.5401 -0.0690
 5329TIP3   OH215950   2.273   0.467   0.890 -0.2963 -0.3158 -0.0203
 5329TIP3    H115951   2.264   0.522   0.968  0.8477 -0.0811 -0.0448
 5329TIP3    H215952   2.356   0.421   0.902  0.8902  1.1452 -1.9352
 5330TIP3   OH215953   0.556   2.753   5.354  0.0941  0.3667  0.8751
 5330TIP3    H115954   0.481   2.723   5.304  0.8933  1.4230 -1.0505
 5330TIP3    H215955   0.614   2.678   5.358 -0.6190 -0.1682  1.5478
 5331TIP3   OH215956   6.800   1.645   5.866 -0.0252  0.2606 -0.2381
 5331TIP3    H115957   6.877   1.702   5.874  1.3342 -1.6449  0.9542
 5331TIP3    H215958   6.825   1.580   5.800 -0.8793  0.0141 -0.3278
 5332TIP3   OH215959   6.176   1.039   0.515 -0.4779 -0.2603 -0.9463
 5332TIP3    H115960   6.083   1.018   0.526 -0.2518 -0.7429  0.2265
 5332TIP3    H215961   6.194   1.104   0.584  0.7141 -2.3901  0.8891
 5333TIP3   OH215962   2.147   3.649   2.860 -0.4307 -0.0288  0.7703
 5333TIP3    H115963   2.202   3.678   2.932  1.6165 -0.8450 -0.3805
 5333TIP3    H215964   2.129   3.729   2.810 -1.3745  0.4417  1.8349
 5334TIP3   OH215965   5.045   6.382   4.643 -0.6498 -0.0860  0.0551
 5334TIP3    H115966   5.051   6.431   4.560  2.0455  0.3541  0.4299
 5334TIP3    H215967   5.109   6.311   4.634 -0.7114 -0.3578  1.5542
 5335TIP3   OH215968   5.987   3.563   2.306 -0.4813 -0.1370  0.1546
 5335TIP3    H115969   6.031   3.592   2.386  0.6128 -0.6602 -0.2462
 5335TIP3    H215970   6.050   3.506   2.263 -0.5780  1.0305 -1.6610
 5336TIP3   OH215971   6.219   2.540   0.581 -0.1814  0.1018 -0.3183
 5336TIP3    H115972   6.206   2.594   0.659 -1.1206 -0.1074 -0.3154
 5336TIP3    H215973   6.140   2.554   0.529  0.0647 -0.4143 -0.8405
 5337TIP3   OH215974   4.591   5.867   3.469 -0.1001 -0.1037 -0.4729
 5337TIP3    H115975   4.556   5.803   3.407  1.8058 -0.7841 -0.9247
 5337TIP3    H215976   4.611   5.816   3.548 -0.7200  0.3962  0.0204
 5338TIP3   OH215977   6.108   0.223   4.997 -0.0176  0.0238 -0.4333
 5338TIP3    H115978   6.084   0.304   5.042 -1.8186 -0.4062 -0.5228
 5338TIP3    H215979   6.128   0.162   5.068 -0.7568 -0.0431 -0.2711
 5339TIP3   OH215980   6.086   3.193   4.947  0.0350  0.3015 -0.2704
 5339TIP3    H115981   6.079   3.187   4.851  0.4561  1.0632 -0.3656
 5339TIP3    H215982   6.111   3.284   4.962 -1.1610  0.5028  0.6413
 5340TIP3   OH215983   2.343   5.956   2.010 -0.2237  0.1771  0.1202
 5340TIP3    H115984   2.394   5.944   2.090 -1.0607  0.4695  0.7070
 5340TIP3    H215985   2.375   5.888   1.951  1.0876  0.5805  0.3457
 5341TIP3   OH215986   5.984   1.933   1.985  0.7084  0.4799 -0.3300
 5341TIP3    H115987   6.034   1.909   2.063 -0.2601 -1.6864 -0.3060
 5341TIP3    H215988   5.952   2.021   2.004 -1.0282 -0.6217  2.6158
 5342TIP3   OH215989   3.014   0.855   2.326  0.1769  1.0733 -0.2936
 5342TIP3    H115990   2.958   0.914   2.275  2.3420  2.9833 -0.5897
 5342TIP3    H215991   2.955   0.819   2.393 -1.6172  2.2047 -1.1746
 5343TIP3   OH215992   0.594   3.283   2.283 -0.2716  0.0967  0.1400
 5343TIP3    H115993   0.682   3.288   2.321 -0.2151 -1.3562  0.2409
 5343TIP3    H215994   0.604   3.317   2.194  0.3145  0.2625  0.2670
 5344TIP3   OH215995   1.499   3.483   4.360 -0.3117  0.0331  0.4483
 5344TIP3    H115996   1.445   3.404   4.360 -0.1318 -0.1150  2.1408
 5344TIP3    H215997   1.447   3.547   4.311 -1.9203 -0.1748  1.8078
 5345TIP3   OH215998   2.780   4.770   2.778 -0.1392  0.3060 -0.3645
 5345TIP3    H115999   2.801   4.702   2.714 -2.1989  0.3362 -1.1332
 5345TIP3    H216000   2.727   4.833   2.729  0.4448  1.7041  0.7332
 5346TIP3   OH216001   1.496   1.817   3.118  0.1721  0.1765  0.3104
 5346TIP3    H116002   1.455   1.904   3.127  0.4905  0.3484  0.1057
 5346TIP3    H216003   1.516   1.810   3.025  1.2265  0.3762  0.5067
 5347TIP3   OH216004   1.705   3.887   0.596 -0.6313 -0.0423 -0.3204
 5347TIP3    H116005   1.761   3.813   0.571  0.5252  0.7721 -0.2380
 5347TIP3    H216006   1.714   3.948   0.523 -2.6904 -0.5405 -1.0532
 5348TIP3   OH216007   6.336   3.349   3.562  1.0344 -0.1416 -0.0427
 5348TIP3    H116008   6.315   3.434   3.600 -1.4326 -0.3582 -0.6953
 5348TIP3    H216009   6.296   3.285   3.621  0.4156 -0.6633 -0.9838
 5349TIP3   OH216010   6.235   1.801   1.637 -0.1487 -0.0010 -0.3464
 5349TIP3    H116011   6.208   1.877   1.586 -0.5885 -0.3293 -0.6136
 5349TIP3    H216012   6.331   1.804   1.637 -0.0898 -0.6405 -2.1953
 5350TIP3   OH216013   3.654   1.525   0.518 -0.3713  0.1774  0.2717
 5350TIP3    H116014   3.588   1.595   0.507 -1.3342 -0.4562  1.6905
 5350TIP3    H216015   3.738   1.571   0.519 -0.9381  1.2369  0.4731
 5351TIP3   OH216016   5.882   1.589   2.368 -0.0741  0.2685  0.0817
 5351TIP3    H116017   5.827   1.587   2.290 -1.0016 -1.6594  0.7022
 5351TIP3    H216018   5.853   1.513   2.419  2.6075 -0.3535  0.8516
 5352TIP3   OH216019   2.276   5.992   1.689 -0.6358  0.0503 -0.3326
 5352TIP3    H116020   2.184   5.970   1.676 -0.9768  0.1393  1.6189
 5352TIP3    H216021   2.275   6.070   1.744  0.6214  1.4602 -2.2078
 5353TIP3   OH216022   3.701   3.837   3.485 -0.1291 -0.3096 -0.2532
 5353TIP3    H116023   3.609   3.859   3.499 -0.1893 -0.8696  0.2788
 5353TIP3    H216024   3.730   3.898   3.418 -0.1644  1.6175  1.4019
 5354TIP3   OH216025   2.320   0.645   5.674 -0.6194 -0.1194 -0.4970
 5354TIP3    H116026   2.305   0.551   5.683 -1.0121 -0.0515 -0.4414
 5354TIP3    H216027   2.393   0.652   5.612  0.8871 -0.5272  1.1371
 5355TIP3   OH216028   6.254   6.257   2.467  0.4049  0.3287  0.1939
 5355TIP3    H116029   6.205   6.187   2.425  0.8655 -0.8501  1.5458
 5355TIP3    H216030   6.306   6.296   2.396 -0.9158  0.2560 -0.8451
 5356TIP3   OH216031   1.382   1.432   3.662  0.0847 -0.6015 -0.2908
 5356TIP3    H116032   1.350   1.521   3.679 -0.0446 -0.3631 -1.6690
 5356TIP3    H216033   1.341   1.379   3.730  0.7827  0.4974  1.0573
 5357TIP3   OH216034   0.905   3.614   4.628 -0.3112 -0.2532 -0.3693
 5357TIP3    H116035   0.966   3.581   4.693 -1.6464  0.1964  1.1812
 5357TIP3    H216036   0.897   3.708   4.648 -2.8657 -0.6099  0.7334
 5358TIP3   OH216037   6.183   3.656   2.476  0.2572  0.0972  0.0137
 5358TIP3    H116038   6.164   3.594   2.547 -0.2907 -0.6753 -0.7829
 5358TIP3    H216039   6.136   3.735   2.500 -1.4082 -0.7310 -0.3211
 5359TIP3   OH216040   1.267   4.414   1.978  0.0973  0.2937  0.0622
 5359TIP3    H116041   1.348   4.463   1.969 -0.3537  0.7541 -1.9480
 5359TIP3    H216042   1.265   4.356   1.901 -0.3332 -1.4820  1.3480
 5360TIP3   OH216043   1.496   1.204   5.848 -0.3865  0.0955 -0.1324
 5360TIP3    H116044   1.573   1.258   5.859 -0.3297  0.3010 -1.4423
 5360TIP3    H216045   1.445   1.247   5.779 -1.8622  0.1676  0.9464
 5361TIP3   OH216046   6.467   3.201   5.402 -0.8179  0.2057  0.4102
 5361TIP3    H116047   6.432   3.243   5.480  1.2186  0.5507  1.1985
 5361TIP3    H216048   6.525   3.267   5.363  0.6509 -1.0230  0.4036
 5362TIP3   OH216049   5.514   1.314   5.147  0.0751  0.1556  0.1888
 5362TIP3    H116050   5.490   1.331   5.056  0.7760 -0.1748 -0.0723
 5362TIP3    H216051   5.434   1.282   5.188  0.1371 -1.3121 -0.7513
 5363TIP3   OH216052   3.312   1.948   0.790  0.4437 -0.0665 -0.0251
 5363TIP3    H116053   3.320   1.856   0.763  0.9267  0.1542 -0.6583
 5363TIP3    H216054   3.375   1.994   0.735  0.0805  0.6704  0.1738
 5364TIP3   OH216055   1.325   3.325   3.029  0.3158 -0.2426 -0.2782
 5364TIP3    H116056   1.373   3.354   2.951 -1.5396  0.5942 -1.1892
 5364TIP3    H216057   1.292   3.238   3.005  0.7604 -0.5108  0.0678
 5365TIP3   OH216058   1.343   3.854   3.456 -0.0410  0.0911  0.2058
 5365TIP3    H116059   1.316   3.836   3.365 -0.5755 -0.2622  0.4287
 5365TIP3    H216060   1.341   3.768   3.498 -1.6980  0.5024  1.0481
 5366TIP3   OH216061   2.051   5.310   1.061 -0.2150 -0.3355 -0.3348
 5366TIP3    H116062   1.992   5.386   1.054  0.0792 -0.1714 -1.2145
 5366TIP3    H216063   2.022   5.252   0.990 -1.0831 -1.5179  0.9383
 5367TIP3   OH216064   4.452   1.417   0.012  0.5932  0.3965 -0.0902
 5367TIP3    H116065   4.367   1.449   0.042 -0.2224 -2.5970  1.2593
 5367TIP3    H216066   4.509   1.494   0.012 -1.4971  2.0574  1.3872
 5368TIP3   OH216067   6.824   3.698   0.659 -0.2468  0.5910 -0.5018
 5368TIP3    H116068   6.906   3.692   0.708  0.4575 -0.2754 -1.7373
 5368TIP3    H216069   6.795   3.788   0.672  0.2747  0.5740  0.9311
 5369TIP3   OH216070   2.414   1.121   1.413 -0.1780 -0.0670 -0.1136
 5369TIP3    H116071   2.327   1.104   1.450  0.1344 -1.3405  0.0564
 5369TIP3    H216072   2.447   1.194   1.464 -0.2224 -1.0549  1.3830
 5370TIP3   OH216073   2.889   1.595   3.603  0.4189  0.0453  0.1874
 5370TIP3    H116074   2.956   1.539   3.563  0.1184 -0.1369 -0.0656
 5370TIP3    H216075   2.839   1.628   3.529 -0.5511 -0.8080  0.4461
 5371TIP3   OH216076   1.834   1.795   4.727 -0.0412 -0.2626  0.4848
 5371TIP3    H116077   1.746   1.813   4.692  0.3839 -0.4302 -0.7197
 5371TIP3    H216078   1.879   1.880   4.723 -0.9313  0.4802  3.6247
 5372TIP3   OH216079   5.533   0.778   0.345  0.3223  0.3042  0.0546
 5372TIP3    H116080   5.498   0.739   0.265 -0.8955  0.4984  0.4658
 5372TIP3    H216081   5.528   0.708   0.410 -1.2800  0.9112  0.6366
 5373TIP3   OH216082   1.983   1.089   2.844  0.1516  0.6551  0.0613
 5373TIP3    H116083   1.906   1.052   2.801  0.3709  1.3949 -1.0028
 5373TIP3    H216084   1.947   1.137   2.919 -0.4264  0.9313 -0.3864
 5374TIP3   OH216085   6.535   4.446   2.296 -0.1402  0.4850 -0.1677
 5374TIP3    H116086   6.554   4.510   2.364 -1.5906  1.0485 -0.2443
 5374TIP3    H216087   6.477   4.492   2.235 -3.0892 -1.4745  0.9232
 5375TIP3   OH216088   3.824   3.059   3.309 -0.4356  0.2307  0.1250
 5375TIP3    H116089   3.762   3.131   3.316 -2.7142 -1.7271  1.6210
 5375TIP3    H216090   3.859   3.047   3.397 -0.1224 -0.5332 -0.0881
 5376TIP3   OH216091   2.314   4.005   2.750  0.4060  0.8035  0.1382
 5376TIP3    H116092   2.226   3.971   2.766 -0.6125  3.3805  0.4671
 5376TIP3    H216093   2.321   4.010   2.654  0.0764  0.8899  0.1184
 5377TIP3   OH216094   1.198   4.092   3.792  0.4255 -0.0387  0.0276
 5377TIP3    H116095   1.166   4.081   3.702  0.0500 -1.4595  0.3024
 5377TIP3    H216096   1.293   4.087   3.784  0.3706 -0.9136 -0.2236
 5378TIP3   OH216097   4.986   6.567   2.801 -0.3247  0.0749  0.3868
 5378TIP3    H116098   4.977   6.502   2.732 -0.4486  1.1881 -0.6674
 5378TIP3    H216099   5.080   6.584   2.806  0.0507 -2.0893  2.5153
 5379TIP3   OH216100   1.250   1.299   2.493  0.0968  0.2601  0.3294
 5379TIP3    H116101   1.291   1.385   2.484 -1.2183  0.8553 -0.3030
 5379TIP3    H216102   1.223   1.295   2.585 -0.7964  1.0003  0.1139
 5380TIP3   OH216103   2.639   4.607   0.877  0.1253  0.0848  0.3295
 5380TIP3    H116104   2.616   4.662   0.951 -0.2355 -0.2217  0.4533
 5380TIP3    H216105   2.567   4.619   0.815 -1.0020 -1.7355  1.1881
 5381TIP3   OH216106   5.171   6.368   1.080 -0.3650  0.2061  0.3619
 5381TIP3    H116107   5.218   6.432   1.027  0.6736 -0.8846 -0.0768
 5381TIP3    H216108   5.117   6.320   1.018  2.9331 -2.9778 -0.3746
 5382TIP3   OH216109   2.004   6.594   4.957  0.7028 -0.0086 -0.7921
 5382TIP3    H116110   1.916   6.632   4.955  0.9403  0.5183 -1.2761
 5382TIP3    H216111   2.062   6.666   4.982  1.1525 -0.0330 -1.7245
 5383TIP3   OH216112   6.567   3.585   0.538  1.1349 -0.3189 -0.5534
 5383TIP3    H116113   6.620   3.663   0.520 -1.8295  1.6373 -1.6072
 5383TIP3    H216114   6.580   3.569   0.632  2.0874  1.2498 -0.3637
 5384TIP3   OH216115   4.048   2.922   5.783 -0.3902  0.5483  0.4032
 5384TIP3    H116116   4.131   2.905   5.738 -0.1519  1.2584  0.5654
 5384TIP3    H216117   4.021   2.836   5.816  0.8047  0.4654  1.2407
 5385TIP3   OH216118   1.164   1.075   3.566 -0.1420  0.1003 -0.3227
 5385TIP3    H116119   1.135   1.102   3.653  0.5227  1.0518 -0.3898
 5385TIP3    H216120   1.138   0.983   3.561  1.9528 -0.7279  1.8452
 5386TIP3   OH216121   6.906   3.024   2.966 -0.2258  0.2238  0.4595
 5386TIP3    H116122   6.999   2.999   2.973 -0.4411 -0.8566 -0.2429
 5386TIP3    H216123   6.905   3.118   2.982  1.1877  0.5297 -1.0068
 5387TIP3   OH216124   7.216   4.303   0.258  0.2691  0.0350  0.4745
 5387TIP3    H116125   7.241   4.212   0.240 -0.0128 -0.0546  0.5451
 5387TIP3    H216126   7.121   4.304   0.248  0.1417  0.0646  1.6115
 5388TIP3   OH216127   1.667   3.599   2.953 -0.2246  0.2363  0.8328
 5388TIP3    H116128   1.640   3.673   3.007  0.6852  0.0518  1.5754
 5388TIP3    H216129   1.734   3.554   3.005  0.6061 -0.0194 -0.3905
 5389TIP3   OH216130   7.158   4.196   1.812 -0.4316  0.4942 -0.7580
 5389TIP3    H116131   7.227   4.150   1.859 -0.7397 -0.0222 -0.8033
 5389TIP3    H216132   7.121   4.256   1.877 -0.2192  0.4723 -0.6165
 5390TIP3   OH216133   6.830   5.344   0.733 -0.0550  0.3895 -0.2050
 5390TIP3    H116134   6.748   5.294   0.728 -0.6448  1.3473 -0.3146
 5390TIP3    H216135   6.868   5.318   0.817  0.5756 -1.5995 -1.0346
 5391TIP3   OH216136   3.651   0.879   1.648  0.5378  1.0840 -0.8337
 5391TIP3    H116137   3.646   0.805   1.709 -0.4242  1.5257 -0.3599
 5391TIP3    H216138   3.565   0.921   1.654  1.1883  2.4544 -0.8397
 5392TIP3   OH216139   3.004   2.972   2.271 -0.2877  0.0624  0.2041
 5392TIP3    H116140   2.968   3.054   2.237 -0.0133 -0.2041 -0.7724
 5392TIP3    H216141   2.934   2.935   2.323 -1.8318 -0.8777 -2.3601
 5393TIP3   OH216142   5.494   2.212   0.654 -0.4398 -0.3901 -1.0776
 5393TIP3    H116143   5.520   2.189   0.743 -0.7247  1.4271 -0.4722
 5393TIP3    H216144   5.415   2.161   0.638  0.5053 -1.9516 -0.9197
 5394TIP3   OH216145   6.994   0.176   4.266 -0.2692 -0.1449  0.1591
 5394TIP3    H116146   7.003   0.081   4.264  0.5195 -0.1168  1.4943
 5394TIP3    H216147   7.059   0.207   4.203 -1.8842 -0.5167 -1.8026
 5395TIP3   OH216148   5.630   5.670   0.659 -0.5668 -0.2330  0.2078
 5395TIP3    H116149   5.554   5.670   0.601 -0.0749 -0.6081 -0.4477
 5395TIP3    H216150   5.662   5.580   0.658  0.2958  0.0665 -0.0704
 5396TIP3   OH216151   0.792   3.600   5.678 -0.1011  0.5478 -0.1098
 5396TIP3    H116152   0.740   3.545   5.738 -0.5658  0.2308 -0.7884
 5396TIP3    H216153   0.786   3.555   5.594  1.3409  0.4838 -0.1921
 5397TIP3   OH216154   5.068   1.714   3.950 -0.0927  0.1357 -0.5103
 5397TIP3    H116155   5.159   1.742   3.960 -0.1622  0.4741 -0.7968
 5397TIP3    H216156   5.023   1.791   3.917 -0.6274  0.1853  0.2919
 5398TIP3   OH216157   5.060   1.390   4.477  0.4583  0.3450  0.1351
 5398TIP3    H116158   5.094   1.382   4.388  0.2946 -0.2042  0.1192
 5398TIP3    H216159   5.070   1.302   4.514  2.9970  1.1249  1.5596
 5399TIP3   OH216160   4.576   6.774   5.426  0.4714 -0.4254  0.2115
 5399TIP3    H116161   4.562   6.837   5.355 -0.3193 -1.4781 -0.5911
 5399TIP3    H216162   4.488   6.755   5.458  0.5820 -2.0066 -0.3521
 5400TIP3   OH216163   6.747   1.103   2.470  0.3247 -0.0894 -0.0612
 5400TIP3    H116164   6.655   1.125   2.458  0.0075 -0.3653  1.6315
 5400TIP3    H216165   6.768   1.046   2.395 -1.5838 -2.0468  0.7909
 5401TIP3   OH216166   0.840   2.514   3.320 -0.2039  0.0888 -0.1958
 5401TIP3    H116167   0.763   2.495   3.374 -0.2751 -0.7015 -0.5593
 5401TIP3    H216168   0.889   2.579   3.370 -0.4401 -0.3771  0.6561
 5402TIP3   OH216169   5.886   5.370   0.351 -0.3810 -0.4519 -0.0417
 5402TIP3    H116170   5.815   5.423   0.316  0.6129 -0.8479 -2.9674
 5402TIP3    H216171   5.846   5.285   0.369 -1.2427  0.2127  1.3035
 5403TIP3   OH216172   0.505   3.026   5.653 -0.2949 -0.6539 -0.4747
 5403TIP3    H116173   0.491   3.023   5.748  0.5918  1.4968 -0.2141
 5403TIP3    H216174   0.460   2.949   5.619 -1.6116 -0.8446  1.5706
 5404TIP3   OH216175   1.339   2.979   3.459  0.6895 -0.1398 -0.7640
 5404TIP3    H116176   1.250   3.014   3.452  0.8581  0.8036  1.1178
 5404TIP3    H216177   1.335   2.895   3.413 -0.2337  1.4078 -3.7584
 5405TIP3   OH216178   0.626   2.690   1.313  0.0689 -0.1931  0.1114
 5405TIP3    H116179   0.630   2.626   1.384  0.0902 -0.2106  0.0945
 5405TIP3    H216180   0.533   2.696   1.291  0.2452 -1.7260 -1.2585
 5406TIP3   OH216181   0.644   4.147   1.199 -0.3505  0.2945 -0.6934
 5406TIP3    H116182   0.687   4.160   1.284 -1.8480  2.5092 -0.1873
 5406TIP3    H216183   0.713   4.168   1.135  1.1212 -2.4353 -0.1850
 5407TIP3   OH216184   6.685   6.314   3.085  0.2436  0.3805  0.2628
 5407TIP3    H116185   6.772   6.341   3.113  0.3496  1.2781 -0.8758
 5407TIP3    H216186   6.627   6.383   3.118 -0.0534 -0.2150  1.0202
 5408TIP3   OH216187   1.854   2.257   2.602  0.0258  0.2600 -0.0740
 5408TIP3    H116188   1.832   2.222   2.516 -0.7974  1.3781 -0.3400
 5408TIP3    H216189   1.934   2.308   2.588 -0.0590  0.3698 -0.1555
 5409TIP3   OH216190   0.826   4.528   0.335 -0.4291 -0.3811  0.2325
 5409TIP3    H116191   0.879   4.507   0.257 -0.8967 -0.8001  0.0225
 5409TIP3    H216192   0.739   4.546   0.301 -0.4043  0.4025  0.5720
 5410TIP3   OH216193   5.999   1.426   1.031  0.0845 -0.6919  0.0335
 5410TIP3    H116194   5.974   1.504   0.981  1.0798 -0.5049 -0.1909
 5410TIP3    H216195   6.079   1.395   0.988 -0.0496 -1.5801  0.4008
 5411TIP3   OH216196   5.787   3.731   0.762 -0.2720  0.8202  0.0224
 5411TIP3    H116197   5.870   3.695   0.731 -0.4380  0.8147 -0.4254
 5411TIP3    H216198   5.726   3.716   0.690 -0.5931  1.0853  0.2350
 5412TIP3   OH216199   3.351   1.383   0.720 -0.6512 -0.2794  0.0762
 5412TIP3    H116200   3.373   1.306   0.772  1.8189 -0.4905 -1.1191
 5412TIP3    H216201   3.255   1.385   0.718 -0.8063 -3.2800  0.2014
 5413TIP3   OH216202   1.035   1.711   0.778 -0.4011 -0.1274 -0.1952
 5413TIP3    H116203   1.074   1.652   0.714 -2.4284 -1.0667 -0.6362
 5413TIP3    H216204   0.941   1.707   0.761 -0.9101  0.5101  2.0800
 5414TIP3   OH216205   4.342   0.056   0.225 -0.0137 -0.0935 -0.0210
 5414TIP3    H116206   4.324  -0.003   0.299  0.1048  1.0870  0.9874
 5414TIP3    H216207   4.313   0.142   0.256  0.7036  0.5566 -1.1004
 5415TIP3   OH216208   5.860   5.772   5.779 -0.2756 -0.0340  0.2646
 5415TIP3    H116209   5.825   5.858   5.802  0.2069 -0.2141  1.8081
 5415TIP3    H216210   5.816   5.748   5.698 -1.3885  1.0990  0.5192
 5416TIP3   OH216211   3.251   3.601   2.237  0.0612  0.0071 -0.4117
 5416TIP3    H116212   3.266   3.681   2.287  0.4891 -0.1521 -0.2790
 5416TIP3    H216213   3.296   3.615   2.153  1.9547 -0.8917  0.3924
 5417TIP3   OH216214   3.011   6.245   0.664 -0.0959 -0.1747  0.0838
 5417TIP3    H116215   3.078   6.220   0.728 -0.6708  0.9964  1.1846
 5417TIP3    H216216   2.964   6.317   0.705 -0.7306  0.3753 -1.5250
 5418TIP3   OH216217   3.468   2.757   5.302 -0.0422  0.3565 -0.1033
 5418TIP3    H116218   3.547   2.783   5.254  0.4993  0.0451  0.5988
 5418TIP3    H216219   3.478   2.798   5.388 -0.0553 -0.6472  0.3987
 5419TIP3   OH216220   4.907   2.977   1.237  0.3206  0.0406 -0.7483
 5419TIP3    H116221   4.844   3.021   1.180  1.7499  1.1354 -1.5717
 5419TIP3    H216222   4.953   2.916   1.178 -1.2523 -2.2770  0.2580
 5420TIP3   OH216223   6.635   0.108   3.392  0.1454  0.5596  0.4627
 5420TIP3    H116224   6.560   0.050   3.380 -0.4458  1.6511 -1.5621
 5420TIP3    H216225   6.662   0.093   3.482 -1.6361 -0.8819  0.8271
 5421TIP3   OH216226   5.587   4.224   1.046 -0.8380  0.3124  0.1494
 5421TIP3    H116227   5.546   4.209   0.961 -1.0809 -0.0051  0.3236
 5421TIP3    H216228   5.516   4.250   1.104 -0.4439  2.2629 -0.1469
 5422TIP3   OH216229   6.313   3.537   0.446  0.5517 -0.1925  0.0198
 5422TIP3    H116230   6.293   3.598   0.375 -1.9193 -0.8630  0.0581
 5422TIP3    H216231   6.404   3.556   0.469  0.4482  2.1592 -1.2172
 5423TIP3   OH216232   6.780   1.107   3.220 -0.1517  0.1404 -0.3009
 5423TIP3    H116233   6.764   1.053   3.143  1.4794 -1.1846  0.2204
 5423TIP3    H216234   6.821   1.186   3.186  1.0919 -0.6784 -0.7822
 5424TIP3   OH216235   1.905   4.570   4.885 -0.1987  0.0114 -0.1630
 5424TIP3    H116236   1.964   4.498   4.864 -0.4188  0.1062 -1.1233
 5424TIP3    H216237   1.876   4.552   4.975 -2.8836 -2.9523 -1.4525
 5425TIP3   OH216238   0.992   4.479   3.618 -0.9180  0.1609  0.5442
 5425TIP3    H116239   0.904   4.464   3.652 -0.6057 -1.5639  0.6789
 5425TIP3    H216240   1.008   4.406   3.559  0.4966  0.3425  0.6751
 5426TIP3   OH216241   5.800   1.642   3.911  0.0364 -0.0331 -0.0880
 5426TIP3    H116242   5.788   1.553   3.877 -0.1118 -0.1862  0.3613
 5426TIP3    H216243   5.878   1.636   3.967  0.2103  0.1913 -0.3066
 5427TIP3   OH216244   7.024   3.836   1.950 -0.6490 -0.4828  0.1237
 5427TIP3    H116245   7.102   3.792   1.916 -0.3818  0.2694 -0.2662
 5427TIP3    H216246   6.965   3.840   1.875 -1.0600 -1.0438  0.4162
 5428TIP3   OH216247   3.398   4.857   0.956  0.0919  0.2539 -0.0078
 5428TIP3    H116248   3.370   4.947   0.939  0.5014  0.5440  0.8391
 5428TIP3    H216249   3.493   4.859   0.943  0.5878  0.7050  3.0525
 5429TIP3   OH216250   5.505   1.529   3.844  0.2350  0.4028  0.6088
 5429TIP3    H116251   5.594   1.517   3.878 -0.4663 -1.6158  1.9462
 5429TIP3    H216252   5.448   1.505   3.917 -1.4076  0.5335 -0.5760
 5430TIP3   OH216253   0.979   0.867   1.001 -0.0605  0.1042  0.4448
 5430TIP3    H116254   1.042   0.939   0.996 -1.0377  0.9244 -0.7060
 5430TIP3    H216255   0.912   0.898   1.062 -0.6568  0.3182 -0.3113
 5431TIP3   OH216256   2.211   5.475   5.778 -0.2030  0.6076  0.6509
 5431TIP3    H116257   2.170   5.447   5.859 -2.9011  2.3288  0.0124
 5431TIP3    H216258   2.139   5.514   5.727  1.9229  2.1858 -1.3544
 5432TIP3   OH216259   5.511   0.327   5.381 -0.3744 -0.3175 -0.4293
 5432TIP3    H116260   5.593   0.324   5.430 -0.3320 -0.9161 -0.5359
 5432TIP3    H216261   5.492   0.236   5.360 -1.5559 -0.2915  0.4099
 5433TIP3   OH216262   0.080   1.409   3.617 -0.3803  0.3949  0.1998
 5433TIP3    H116263   0.133   1.460   3.678 -1.0317  0.4943  0.6882
 5433TIP3    H216264   0.041   1.474   3.559  0.1428  0.3099 -0.2516
 5434TIP3   OH216265   1.174   5.313   4.845 -0.1862  0.4142  0.0150
 5434TIP3    H116266   1.169   5.263   4.927  0.4175 -0.8594 -0.7004
 5434TIP3    H216267   1.244   5.271   4.795 -0.0143  1.6624 -0.8446
 5435TIP3   OH216268   0.631   1.645   5.459  0.5812 -0.5876  0.1293
 5435TIP3    H116269   0.663   1.725   5.500  0.5051  0.1095 -1.1398
 5435TIP3    H216270   0.580   1.675   5.384 -1.6891 -1.7082  1.1125
 5436TIP3   OH216271   2.873   0.437   2.066 -0.0034 -0.2089 -0.1322
 5436TIP3    H116272   2.806   0.457   2.001  1.0058  0.6436 -0.9507
 5436TIP3    H216273   2.912   0.356   2.036 -0.3104 -0.4348  0.0669
 5437TIP3   OH216274   5.824   6.406   2.843 -0.0722 -0.3490  0.0696
 5437TIP3    H116275   5.788   6.466   2.777 -0.6098  0.0615  0.7195
 5437TIP3    H216276   5.839   6.324   2.796 -0.6634 -0.1285 -0.5186
 5438TIP3   OH216277   4.767   2.247   1.349 -0.1563  0.1225 -0.1613
 5438TIP3    H116278   4.680   2.270   1.380 -0.9560  0.6320 -2.5874
 5438TIP3    H216279   4.826   2.307   1.395 -1.4562  2.0491 -0.8637
 5439TIP3   OH216280   0.233   6.201   0.356 -0.2319  0.5493  0.7492
 5439TIP3    H116281   0.265   6.117   0.391  0.7407  0.7171  0.3101
 5439TIP3    H216282   0.184   6.240   0.428 -2.3971 -1.2599  0.3488
 5440TIP3   OH216283   2.053   3.722   4.555  0.1695  0.2821  0.0069
 5440TIP3    H116284   2.004   3.748   4.633  0.2737 -1.2991  0.6291
 5440TIP3    H216285   1.987   3.716   4.486 -0.3058 -0.4904  0.5180
 5441TIP3   OH216286   2.849   2.829   3.760  0.5596 -0.1100 -0.4089
 5441TIP3    H116287   2.850   2.750   3.814  1.5359 -0.7333 -1.3227
 5441TIP3    H216288   2.764   2.826   3.716  1.3860 -1.7912 -2.0363
 5442TIP3   OH216289   5.034   6.234   1.747  0.0001 -0.0647 -0.1710
 5442TIP3    H116290   5.035   6.323   1.712  1.1032 -0.3601 -0.9710
 5442TIP3    H216291   5.001   6.181   1.675  1.2077 -0.5376 -0.4037
 5443TIP3   OH216292   2.588   2.530   0.051  0.5565 -0.4248  0.0817
 5443TIP3    H116293   2.565   2.442   0.019  0.9512 -0.2639 -0.6764
 5443TIP3    H216294   2.517   2.552   0.112 -1.0105 -0.1921 -1.7142
 5444TIP3   OH216295   5.564   3.431   3.315  0.2042  0.1058  0.2025
 5444TIP3    H116296   5.502   3.358   3.315  1.4510 -0.9967 -0.6327
 5444TIP3    H216297   5.535   3.487   3.243  1.0093 -1.1737 -1.1601
 5445TIP3   OH216298   1.528   5.835   4.368 -0.0538 -0.3927  0.4499
 5445TIP3    H116299   1.571   5.768   4.421  1.4415 -0.4021 -0.6999
 5445TIP3    H216300   1.506   5.790   4.286  0.9867  0.4873 -0.3428
 5446TIP3   OH216301   4.500   5.141   3.704  0.0332 -0.2748 -0.0118
 5446TIP3    H116302   4.588   5.134   3.668 -0.2095  0.8604 -0.8962
 5446TIP3    H216303   4.443   5.142   3.627 -0.6590  0.0706  0.4983
 5447TIP3   OH216304   0.483   4.730   1.106  0.5248 -0.0304 -0.5922
 5447TIP3    H116305   0.518   4.669   1.171  3.1619  2.2254  0.3059
 5447TIP3    H216306   0.441   4.799   1.158 -0.7146 -0.0743 -1.4950
 5448TIP3   OH216307   6.711   2.390   5.617 -0.6864 -0.7640 -0.2749
 5448TIP3    H116308   6.768   2.372   5.693 -0.8697 -2.2457 -0.4512
 5448TIP3    H216309   6.626   2.410   5.656 -1.0864 -2.6785 -0.0682
 5449TIP3   OH216310   2.967   5.394   3.424  0.1231 -0.2851 -0.2972
 5449TIP3    H116311   3.055   5.378   3.458  0.2329 -0.4680 -0.6569
 5449TIP3    H216312   2.943   5.312   3.381  0.0763  0.0058 -0.8411
 5450TIP3   OH216313   1.971   0.259   5.679 -0.6849  0.1443  0.9672
 5450TIP3    H116314   1.976   0.274   5.584 -2.9066 -1.4883  0.4990
 5450TIP3    H216315   1.988   0.345   5.718  3.1138  0.3397 -0.7031
 5451TIP3   OH216316   1.102   5.537   0.158 -0.1262 -0.2849  0.4677
 5451TIP3    H116317   1.119   5.511   0.067 -0.6362 -1.5377  0.7137
 5451TIP3    H216318   1.187   5.570   0.189  0.2810 -0.6796 -0.1931
 5452TIP3   OH216319   6.942   3.820   5.101  0.1927 -0.9334  0.5922
 5452TIP3    H116320   6.974   3.842   5.013  0.4090  2.1275  1.3374
 5452TIP3    H216321   6.963   3.727   5.111  0.0486 -1.4254 -2.6137
 5453TIP3   OH216322   0.402   3.401   0.445 -0.1570 -0.2566 -0.4407
 5453TIP3    H116323   0.459   3.329   0.474 -0.8687 -0.5595  0.2441
 5453TIP3    H216324   0.406   3.397   0.349 -0.1671 -1.2060 -0.4120
 5454TIP3   OH216325   1.978   2.378   5.200  0.5263  0.4044  0.2828
 5454TIP3    H116326   1.929   2.423   5.268 -0.6042  1.2365 -1.0143
 5454TIP3    H216327   1.921   2.381   5.123  1.6658 -0.6584 -0.6630
 5455TIP3   OH216328   2.296   4.317   0.142  0.1961 -0.4426 -0.4238
 5455TIP3    H116329   2.362   4.367   0.094  1.2549 -1.7831 -0.4350
 5455TIP3    H216330   2.233   4.289   0.074  0.2505 -0.1320 -0.6036
 5456TIP3   OH216331   1.466   5.933   1.678  0.2549  0.5002 -0.3036
 5456TIP3    H116332   1.516   5.866   1.724 -1.2421  0.6543  1.7050
 5456TIP3    H216333   1.500   5.932   1.589  1.0973 -2.1047 -0.0394
 5457TIP3   OH216334   1.580   3.047   3.144  0.3865  0.2152  0.1332
 5457TIP3    H116335   1.600   3.065   3.052  0.0905  1.0576  0.2249
 5457TIP3    H216336   1.513   2.979   3.141  1.4979 -0.9101 -0.2230
 5458TIP3   OH216337   0.187   1.243   2.624 -0.0359  0.6108  0.2457
 5458TIP3    H116338   0.164   1.151   2.618  0.6645  0.4470  0.0357
 5458TIP3    H216339   0.208   1.258   2.716 -0.3851  0.6190  0.3243
 5459TIP3   OH216340   1.601   3.210   2.691 -0.1655  0.0464 -0.3077
 5459TIP3    H116341   1.573   3.119   2.692  1.7439 -0.6153  2.3731
 5459TIP3    H216342   1.696   3.206   2.675 -0.1951  1.6384 -1.0830
 5460TIP3   OH216343   1.454   4.163   2.083 -0.1896  0.4553 -0.7443
 5460TIP3    H116344   1.479   4.208   2.002  0.4864  2.1604  0.3788
 5460TIP3    H216345   1.536   4.126   2.117 -0.3091  0.5372 -0.3622
 5461TIP3   OH216346   2.395   5.549   1.081 -0.5339  0.0807 -1.0148
 5461TIP3    H116347   2.366   5.520   1.167  1.5153 -0.7982 -0.5624
 5461TIP3    H216348   2.443   5.630   1.097 -1.6243  0.8545 -1.5776
 5462TIP3   OH216349   0.465   0.158   0.476  0.0659 -0.4873  0.1845
 5462TIP3    H116350   0.550   0.132   0.440  0.5634  0.3346  0.7183
 5462TIP3    H216351   0.406   0.160   0.401  0.8294  0.1898 -0.4039
 5463TIP3   OH216352   2.777   4.892   5.253 -0.5548  0.1776 -0.4223
 5463TIP3    H116353   2.777   4.983   5.225  0.4229  0.1000 -0.6893
 5463TIP3    H216354   2.868   4.863   5.244 -0.8570 -0.8352 -0.3785
 5464TIP3   OH216355   6.110   1.673   1.838 -0.0109  0.5867 -0.0733
 5464TIP3    H116356   6.172   1.717   1.779  0.1938  1.2879  0.6419
 5464TIP3    H216357   6.090   1.739   1.904 -0.1886 -0.2033  0.6719
 5465TIP3   OH216358   3.735   2.708   2.967  0.4055 -0.6269 -0.3285
 5465TIP3    H116359   3.749   2.693   2.873  2.5908  3.0391 -0.7758
 5465TIP3    H216360   3.732   2.804   2.975 -2.6684 -0.8063  3.0509
 5466TIP3   OH216361   6.394   3.740   3.136  0.0395 -0.3522 -0.0647
 5466TIP3    H116362   6.424   3.677   3.070  0.8061  1.6739 -1.7696
 5466TIP3    H216363   6.302   3.720   3.149  0.0763 -1.3027 -1.1514
 5467TIP3   OH216364   3.609   0.591   4.281  0.1446  0.1299 -0.1175
 5467TIP3    H116365   3.575   0.638   4.356 -0.0417  0.8025 -0.6149
 5467TIP3    H216366   3.676   0.532   4.317  1.6618  2.0260  0.3155
 5468TIP3   OH216367   1.548   6.343   4.306 -0.4357  0.3986 -0.0213
 5468TIP3    H116368   1.640   6.315   4.307 -0.1851  1.0652 -1.4261
 5468TIP3    H216369   1.499   6.263   4.285 -0.0472  0.2897 -0.5424
 5469TIP3   OH216370   5.492   0.111   4.522 -0.2607 -0.1881  0.5511
 5469TIP3    H116371   5.482   0.098   4.616 -1.2275  0.5529  0.5643
 5469TIP3    H216372   5.535   0.196   4.513 -0.2220 -0.2289  0.3253
 5470TIP3   OH216373   2.283   4.070   4.933 -0.1556  0.1516 -0.2049
 5470TIP3    H116374   2.293   3.976   4.948 -2.7837 -0.2758 -0.5623
 5470TIP3    H216375   2.275   4.108   5.020 -1.4283 -0.3429 -0.0768
 5471TIP3   OH216376   5.093   5.205   3.461  0.2171 -0.4915  0.1083
 5471TIP3    H116377   5.061   5.268   3.396  1.4608 -0.0413 -0.0903
 5471TIP3    H216378   5.106   5.124   3.413 -0.5658 -0.6749  0.1860
 5472TIP3   OH216379   2.451   1.505   1.079 -0.1697  0.4021  0.1672
 5472TIP3    H116380   2.403   1.585   1.058 -0.1449  0.1598 -0.8596
 5472TIP3    H216381   2.420   1.441   1.014  1.1201  0.0765 -0.1475
 5473TIP3   OH216382   2.265   3.620   4.392 -0.0073  0.1821 -0.0989
 5473TIP3    H116383   2.274   3.691   4.329 -1.7657 -0.3358 -0.9905
 5473TIP3    H216384   2.216   3.659   4.465  3.7980  1.3975  2.1101
 5474TIP3   OH216385   1.453   1.689   0.692 -0.7623 -0.4750 -0.2901
 5474TIP3    H116386   1.456   1.744   0.614 -0.2067 -0.3322 -0.1700
 5474TIP3    H216387   1.416   1.745   0.760  2.0949  0.6157  0.5031
 5475TIP3   OH216388   0.413   5.085   5.406  0.3738 -0.2188  0.0185
 5475TIP3    H116389   0.480   5.017   5.396  1.8505  1.2746 -0.7731
 5475TIP3    H216390   0.393   5.112   5.316 -0.6061  0.0260  0.2980
 5476TIP3   OH216391   4.350   3.667   2.992  0.1498 -0.9044  0.1629
 5476TIP3    H116392   4.418   3.677   2.925  1.1054 -1.8189  0.9740
 5476TIP3    H216393   4.378   3.723   3.064 -1.0351  0.3146 -0.2880
 5477TIP3   OH216394   6.506   1.433   4.152 -0.4103 -0.0811 -0.1601
 5477TIP3    H116395   6.413   1.436   4.130 -0.9456 -0.3550  1.8740
 5477TIP3    H216396   6.548   1.488   4.085 -2.0666  0.3974 -0.8679
 5478TIP3   OH216397   3.608   5.681   0.185  0.5526  0.1536  0.2213
 5478TIP3    H116398   3.575   5.768   0.209  2.6923  0.8303  0.9331
 5478TIP3    H216399   3.683   5.698   0.130  0.2369 -1.3097 -0.7250
 5479TIP3   OH216400   5.197   3.124   4.161  0.0740  0.0822  0.2037
 5479TIP3    H116401   5.151   3.063   4.219  0.4334  0.8617  1.3265
 5479TIP3    H216402   5.130   3.188   4.137 -0.7657 -1.5691 -2.3022
 5480TIP3   OH216403   7.041   3.208   2.081 -0.5079  0.2489 -0.5283
 5480TIP3    H116404   6.957   3.197   2.036 -0.1556 -0.6102 -1.0118
 5480TIP3    H216405   7.091   3.130   2.056  0.5793  0.9447 -0.5587
 5481TIP3   OH216406   5.453   3.962   2.030  0.7176 -0.1588 -0.2512
 5481TIP3    H116407   5.429   4.042   1.984 -0.5750 -0.1284  0.4108
 5481TIP3    H216408   5.386   3.898   2.004  1.0522 -0.6697  0.1268
 5482TIP3   OH216409   0.471   3.486   3.914  0.0530  0.0048 -0.0384
 5482TIP3    H116410   0.470   3.523   3.826  0.7814  0.8007  0.2796
 5482TIP3    H216411   0.406   3.416   3.911 -0.1819  0.2536 -1.1071
 5483TIP3   OH216412   0.201   4.940   5.657  0.0515 -0.0968  0.1949
 5483TIP3    H116413   0.122   4.985   5.626  0.5434  0.6471 -0.0021
 5483TIP3    H216414   0.178   4.911   5.745 -1.2044 -1.8459 -0.6391
 5484TIP3   OH216415   5.670   0.800   1.251  0.0956 -0.7484  0.2529
 5484TIP3    H116416   5.739   0.862   1.274 -2.0003  2.4596 -1.3759
 5484TIP3    H216417   5.703   0.754   1.174 -0.1079  2.0079 -1.5964
 5485TIP3   OH216418   6.402   1.560   1.593 -0.1053  0.1396 -0.0630
 5485TIP3    H116419   6.328   1.620   1.586 -1.3687 -1.4032 -0.6064
 5485TIP3    H216420   6.428   1.565   1.685 -0.5553  1.0753  0.0264
 5486TIP3   OH216421   6.017   0.397   0.657 -0.2561 -0.3554 -0.1435
 5486TIP3    H116422   5.924   0.419   0.654  0.4244  3.1009 -0.0224
 5486TIP3    H216423   6.039   0.394   0.750 -0.0687 -0.1737 -0.1800
 5487TIP3   OH216424   0.645   6.197   2.749  0.4194  0.8125  0.3017
 5487TIP3    H116425   0.717   6.259   2.764  1.6126 -0.4888  0.1743
 5487TIP3    H216426   0.674   6.145   2.674 -0.8705  0.5535 -0.0295
 5488TIP3   OH216427   0.448   4.629   4.396  0.2581  0.5215  0.1841
 5488TIP3    H116428   0.421   4.711   4.438 -1.7353  0.7499 -1.4217
 5488TIP3    H216429   0.479   4.655   4.310 -4.3274 -0.5676 -2.0940
 5489TIP3   OH216430   4.769   2.324   2.176 -0.1401 -0.0626  0.5150
 5489TIP3    H116431   4.713   2.253   2.146  0.4373 -0.6362  0.7818
 5489TIP3    H216432   4.851   2.312   2.128  0.0122  0.3391  0.6686
 5490TIP3   OH216433   2.098   4.567   0.661 -0.0140  0.3206  0.4124
 5490TIP3    H116434   2.079   4.623   0.736 -1.0328 -0.1195  0.4975
 5490TIP3    H216435   2.046   4.605   0.589  0.1567  0.1372  0.1917
 5491TIP3   OH216436   5.169   0.903   3.540  0.1883 -0.6363  0.3285
 5491TIP3    H116437   5.202   0.838   3.603  0.3982 -0.9278 -0.0736
 5491TIP3    H216438   5.113   0.852   3.481 -0.6756 -0.2111  0.7701
 5492TIP3   OH216439   4.343   2.916   0.326 -0.2179 -0.0592  0.0693
 5492TIP3    H116440   4.380   2.828   0.332 -0.6758 -0.1359  2.6722
 5492TIP3    H216441   4.250   2.905   0.346 -0.6919  0.8092 -1.4644
 5493TIP3   OH216442   2.743   3.803   2.647  0.3375  0.0477 -0.5355
 5493TIP3    H116443   2.774   3.894   2.642  0.7366  0.0290  1.0536
 5493TIP3    H216444   2.662   3.807   2.697  1.3858 -0.6519  1.3197
 5494TIP3   OH216445   5.226   6.046   1.087 -0.3529 -0.1689  0.2038
 5494TIP3    H116446   5.290   6.117   1.083  1.9375 -2.0911  0.9252
 5494TIP3    H216447   5.153   6.078   1.034 -0.1629  3.3753  1.7735
 5495TIP3   OH216448   4.619   6.688   0.898 -0.3960 -0.7108  0.3278
 5495TIP3    H116449   4.693   6.644   0.939 -0.4288  0.1164  1.3102
 5495TIP3    H216450   4.660   6.751   0.838 -0.3332 -1.2062 -0.1568
 5496TIP3   OH216451   6.511   5.274   0.468  0.0110  0.1790  0.0782
 5496TIP3    H116452   6.533   5.210   0.535  2.8411  2.1357  1.1867
 5496TIP3    H216453   6.463   5.343   0.515  1.0467  1.0418 -0.0958
 5497TIP3   OH216454   4.957   0.763   2.612 -0.3107 -0.0821  0.1284
 5497TIP3    H116455   4.904   0.686   2.590  1.4447 -1.2885 -0.0568
 5497TIP3    H216456   5.010   0.778   2.533  0.8395  0.0315  0.9049
 5498TIP3   OH216457   5.097   0.462   5.519  0.3783 -0.4130  0.4167
 5498TIP3    H116458   5.109   0.441   5.426  0.7480 -0.8628  0.5644
 5498TIP3    H216459   5.168   0.416   5.564 -0.5226 -1.2315  1.0560
 5499TIP3   OH216460   3.695   6.403   1.378  0.6502  0.8079 -0.0989
 5499TIP3    H116461   3.699   6.340   1.306 -0.4140  1.4387 -0.7473
 5499TIP3    H216462   3.718   6.353   1.456 -0.5544 -0.4820 -0.5318
 5500TIP3   OH216463   5.868   1.367   4.171 -0.0183 -0.0406 -0.1258
 5500TIP3    H116464   5.782   1.394   4.201  0.4237  0.7265  0.4846
 5500TIP3    H216465   5.852   1.291   4.115 -1.1445  0.5043 -0.5614
 5501TIP3   OH216466   0.602   5.435   1.439 -0.4282 -0.3418  0.1379
 5501TIP3    H116467   0.546   5.460   1.365  0.5367 -2.3855 -1.3944
 5501TIP3    H216468   0.542   5.397   1.503 -1.0948 -0.0615 -0.3088
 5502TIP3   OH216469   5.905   4.438   3.821 -0.4093 -0.1696  0.0015
 5502TIP3    H116470   5.905   4.360   3.766  0.9641  0.2222 -0.6007
 5502TIP3    H216471   5.828   4.428   3.876 -1.2074 -1.1230 -1.2196
 5503TIP3   OH216472   5.330   5.440   2.287 -0.0682 -0.1968  0.3298
 5503TIP3    H116473   5.395   5.494   2.244  0.9575 -1.1664  0.6146
 5503TIP3    H216474   5.325   5.475   2.376  1.2658 -1.0948  0.7888
 5504TIP3   OH216475   3.933   0.762   0.428 -0.1172 -0.5795 -0.3004
 5504TIP3    H116476   3.969   0.677   0.404 -0.4107 -0.7140 -0.2660
 5504TIP3    H216477   4.002   0.825   0.406  0.1420 -0.8382 -0.2204
 5505TIP3   OH216478   0.756   3.148   4.508 -0.2955 -0.4086 -0.4665
 5505TIP3    H116479   0.835   3.169   4.459  0.0266 -1.3394 -0.3637
 5505TIP3    H216480   0.728   3.062   4.474 -0.2205 -0.9457  0.7708
 5506TIP3   OH216481   5.409   5.066   4.306  0.0138  0.3678  0.0511
 5506TIP3    H116482   5.497   5.038   4.282 -0.0174 -0.1324  0.5010
 5506TIP3    H216483   5.395   5.148   4.258  0.7535  0.4914  0.0477
 5507TIP3   OH216484   2.934   5.592   2.666  0.0817 -0.0673 -0.4770
 5507TIP3    H116485   2.873   5.577   2.593  2.0330 -1.3255 -1.9572
 5507TIP3    H216486   3.012   5.629   2.625  0.9280  0.0167  1.1173
 5508TIP3   OH216487   3.718   5.277   4.037 -0.8047  0.2091 -0.0304
 5508TIP3    H116488   3.796   5.286   3.982 -2.0126  2.0145 -1.5713
 5508TIP3    H216489   3.698   5.183   4.035  1.1272 -0.2488  0.1860
 5509TIP3   OH216490   4.803   0.220   2.821  0.3045 -0.0117 -0.0159
 5509TIP3    H116491   4.812   0.313   2.841  0.2616 -0.2254  1.0806
 5509TIP3    H216492   4.787   0.179   2.906 -0.2159 -0.9570 -0.5514
 5510TIP3   OH216493   0.665   3.806   3.021 -0.0768  0.1715  0.8791
 5510TIP3    H116494   0.737   3.839   3.075  0.2683  0.9675 -0.0338
 5510TIP3    H216495   0.588   3.811   3.078  0.2389  1.2104  1.2358
 5511TIP3   OH216496   3.682   0.463   0.551 -0.5848 -0.7331 -0.8333
 5511TIP3    H116497   3.709   0.479   0.461  3.1986  1.3617  0.4762
 5511TIP3    H216498   3.675   0.368   0.557  0.6733 -1.0276 -2.9299
 5512TIP3   OH216499   3.339   4.177   1.309  0.7701 -0.5616  0.3517
 5512TIP3    H116500   3.312   4.119   1.238 -1.5609 -0.2393  0.8838
 5512TIP3    H216501   3.261   4.229   1.328  2.0895  1.1282  1.4726
 5513TIP3   OH216502   6.835   2.328   4.597 -0.0829 -0.3838  0.2213
 5513TIP3    H116503   6.848   2.245   4.645  1.0839  0.0045  0.6132
 5513TIP3    H216504   6.866   2.395   4.658  0.6418  0.1900 -0.7613
 5514TIP3   OH216505   6.232   1.879   3.964  0.2487 -0.2999  0.2295
 5514TIP3    H116506   6.288   1.884   4.042 -1.1027  0.0349  1.2249
 5514TIP3    H216507   6.288   1.910   3.893  1.1620  0.5680  1.2747
 5515TIP3   OH216508   5.513   6.246   3.876  0.1427 -0.5476  0.2952
 5515TIP3    H116509   5.600   6.268   3.908  0.2814 -0.4934 -0.1112
 5515TIP3    H216510   5.528   6.181   3.808 -0.2662 -1.9698  1.5060
 5516TIP3   OH216511   6.065   1.454   1.669  0.0591 -0.0679 -0.8329
 5516TIP3    H116512   6.117   1.517   1.719  1.3462 -2.1571  0.6304
 5516TIP3    H216513   5.976   1.464   1.704  0.5882 -0.2190  0.6384
 5517TIP3   OH216514   2.694   6.635   3.640  0.1796 -0.2555  0.5107
 5517TIP3    H116515   2.776   6.594   3.610  0.4431 -0.1527  1.0693
 5517TIP3    H216516   2.627   6.602   3.580  0.7902  0.4702 -0.6142
 5518TIP3   OH216517   2.847   4.986   1.096  0.2986 -0.9274  0.3515
 5518TIP3    H116518   2.896   5.008   1.176 -1.4455  0.4389  1.1178
 5518TIP3    H216519   2.757   4.970   1.127 -0.5153  0.0337 -1.3638
 5519TIP3   OH216520   5.271   6.322   2.542 -0.2895 -0.7843  0.1261
 5519TIP3    H116521   5.319   6.359   2.616  0.6250  0.2450 -0.9507
 5519TIP3    H216522   5.181   6.316   2.574 -0.2172  1.0714  0.8344
 5520TIP3   OH216523   4.825   2.599   3.135 -0.3997 -0.1870  0.2162
 5520TIP3    H116524   4.808   2.536   3.064 -2.4377  0.7563 -0.2125
 5520TIP3    H216525   4.791   2.556   3.214 -0.5642 -0.1781  0.1515
 5521TIP3   OH216526   1.720   0.501   3.189 -0.3869  0.0985 -0.1583
 5521TIP3    H116527   1.749   0.457   3.109  0.4521  1.0281 -0.3856
 5521TIP3    H216528   1.698   0.590   3.161  4.3898  2.0773  1.2197
 5522TIP3   OH216529   5.435   1.293   4.128 -0.4380  0.0964 -0.2002
 5522TIP3    H116530   5.380   1.220   4.098  2.1517 -2.0325 -0.1805
 5522TIP3    H216531   5.443   1.350   4.052 -1.3883 -0.3402 -0.6476
 5523TIP3   OH216532   1.447   2.125   3.123 -0.3007  0.9282 -0.0651
 5523TIP3    H116533   1.525   2.131   3.178 -0.2306  0.3527 -0.0936
 5523TIP3    H216534   1.379   2.172   3.173 -0.2750  0.2920  0.5885
 5524TIP3   OH216535   5.847   1.001   5.355  0.3175 -0.2874  0.5377
 5524TIP3    H116536   5.892   1.070   5.307 -1.9838 -0.5140 -2.1782
 5524TIP3    H216537   5.879   0.920   5.315  2.0701 -0.8640  2.8688
 5525TIP3   OH216538   1.295   5.171   4.495 -0.1444  0.5319 -0.2144
 5525TIP3    H116539   1.272   5.087   4.456 -1.5884  1.0626 -0.5664
 5525TIP3    H216540   1.223   5.230   4.470 -0.8441  1.0765  2.6273
 5526TIP3   OH216541   0.034   6.151   1.516 -0.0549  0.0383  0.2874
 5526TIP3    H116542   0.119   6.165   1.559  0.0674  1.6436 -0.3920
 5526TIP3    H216543  -0.029   6.148   1.588  0.5725 -1.3787  0.8131
 5527TIP3   OH216544   6.224   0.850   4.816 -0.2079 -0.1166  0.5827
 5527TIP3    H116545   6.241   0.763   4.780 -0.6903 -0.3481  0.9134
 5527TIP3    H216546   6.272   0.909   4.758  0.9285 -0.6788  0.9250
 5528TIP3   OH216547   3.462   2.518   3.843  0.3863  0.0865  0.1644
 5528TIP3    H116548   3.551   2.486   3.829  1.1243  1.3702  1.6532
 5528TIP3    H216549   3.460   2.545   3.935 -1.9065 -0.9690  0.4965
 5529TIP3   OH216550   2.890   4.438   1.846  0.5777  0.0387  0.2325
 5529TIP3    H116551   2.853   4.526   1.857  1.2788  0.4494 -0.6257
 5529TIP3    H216552   2.981   4.453   1.821  1.0867 -0.9532  1.4045
 5530TIP3   OH216553   5.307   3.523   0.832 -0.3433  0.7800  0.3032
 5530TIP3    H116554   5.275   3.514   0.922 -0.3402  1.1581  0.3429
 5530TIP3    H216555   5.258   3.458   0.782 -0.2798  0.5030  0.5957
 5531TIP3   OH216556   3.027   6.616   0.355  0.1908  0.4679 -0.1413
 5531TIP3    H116557   3.042   6.654   0.442  1.4573 -0.6837  0.1823
 5531TIP3    H216558   3.057   6.526   0.364  0.1557  0.2847 -1.7343
 5532TIP3   OH216559   5.468   1.452   1.624  0.0880 -0.2196  0.0414
 5532TIP3    H116560   5.518   1.385   1.577  0.3462  0.9376 -1.4396
 5532TIP3    H216561   5.387   1.460   1.574 -1.9850 -2.4495  2.7055
 5533TIP3   OH216562   1.340   5.928   4.084 -0.2339 -0.4925  0.0385
 5533TIP3    H116563   1.314   5.845   4.125  0.3229 -0.9036 -0.4253
 5533TIP3    H216564   1.324   5.994   4.151  0.5613 -1.1393  0.8803
 5534TIP3   OH216565   5.668   6.595   4.106  0.2015  0.1384  0.1899
 5534TIP3    H116566   5.684   6.687   4.086  1.1553 -0.1211 -0.2551
 5534TIP3    H216567   5.667   6.591   4.202  0.7253  0.5175  0.2131
 5535TIP3   OH216568   2.718   3.710   0.365 -0.6331  0.4408 -0.3195
 5535TIP3    H116569   2.682   3.622   0.374  0.4741  0.0062 -0.0171
 5535TIP3    H216570   2.656   3.766   0.413 -1.9364  0.0183 -1.4290
 5536TIP3   OH216571   4.247   0.729   2.715 -0.3276 -0.3318  0.6484
 5536TIP3    H116572   4.211   0.676   2.787 -3.0654 -2.5234 -2.0373
 5536TIP3    H216573   4.171   0.752   2.662  1.6520 -0.5631 -2.5900
 5537TIP3   OH216574   2.829   4.006   3.184  0.3802 -0.6240  0.3875
 5537TIP3    H116575   2.918   3.977   3.201  1.0194  1.4971  0.9932
 5537TIP3    H216576   2.800   4.044   3.268  0.5294  2.5649 -0.8642
 5538TIP3   OH216577   1.046   1.231   4.097 -0.4321  0.3595 -0.2074
 5538TIP3    H116578   0.995   1.313   4.095 -0.4520  0.3398 -2.0263
 5538TIP3    H216579   1.058   1.213   4.190 -3.1705  0.7314  0.3049
 5539TIP3   OH216580   7.189   5.749   2.192 -1.0211 -0.2910  0.4382
 5539TIP3    H116581   7.277   5.713   2.180 -0.4995  1.0812 -0.0229
 5539TIP3    H216582   7.180   5.763   2.286 -0.2985  0.6174  0.3830
 5540TIP3   OH216583   6.060   1.426   3.226  0.3947 -0.0958 -0.4438
 5540TIP3    H116584   6.018   1.509   3.250  0.6797  0.1340 -0.7261
 5540TIP3    H216585   6.011   1.396   3.149  2.8755  1.9468 -3.0138
 5541TIP3   OH216586   6.108   0.397   4.764  0.2226 -0.1249  0.1413
 5541TIP3    H116587   6.095   0.341   4.840 -0.7489 -0.7380 -0.4585
 5541TIP3    H216588   6.093   0.340   4.688 -0.6276  0.8730 -0.4836
 5542TIP3   OH216589   0.486   1.521   0.911 -0.1916 -0.4562  0.0609
 5542TIP3    H116590   0.471   1.486   0.823 -1.2874  0.1497 -0.0187
 5542TIP3    H216591   0.524   1.448   0.960 -0.5443 -1.1289 -0.6383
 5543TIP3   OH216592   6.807   4.361   5.737 -0.5231  0.3554 -0.1188
 5543TIP3    H116593   6.750   4.434   5.711 -0.4448  1.1507  1.7883
 5543TIP3    H216594   6.891   4.382   5.695 -0.7801  0.8153 -0.4220
 5544TIP3   OH216595   1.370   3.204   0.927  0.0074 -0.1162 -0.0114
 5544TIP3    H116596   1.354   3.110   0.922 -1.1583  0.0402  0.3844
 5544TIP3    H216597   1.307   3.235   0.992  1.9190  0.6096  1.6089
 5545TIP3   OH216598   4.272   5.291   4.592 -0.6332 -0.1620 -0.0018
 5545TIP3    H116599   4.326   5.299   4.671 -1.0819 -2.3963  0.6141
 5545TIP3    H216600   4.297   5.206   4.555 -1.9683 -0.1169 -1.0763
 5546TIP3   OH216601   5.286   4.114   1.873  0.0935  0.5878  0.2022
 5546TIP3    H116602   5.360   4.128   1.815  0.4418  0.7783  0.6865
 5546TIP3    H216603   5.243   4.199   1.879  0.7878  0.8824  1.2057
 5547TIP3   OH216604   2.488   1.836   3.488  0.3176  0.3917  0.0438
 5547TIP3    H116605   2.537   1.899   3.435  0.1262  0.9419  0.5051
 5547TIP3    H216606   2.396   1.859   3.474  0.2975  1.5070  1.7336
 5548TIP3   OH216607   1.608   5.220   3.487  0.0798  0.3145  0.2386
 5548TIP3    H116608   1.653   5.304   3.481 -2.2434  1.6738  0.7273
 5548TIP3    H216609   1.674   5.159   3.520  2.1625  1.6253 -1.3251
 5549TIP3   OH216610   4.150   5.395   3.021  0.0628 -0.0347 -0.1678
 5549TIP3    H116611   4.140   5.406   2.926 -0.3170 -0.0228 -0.1252
 5549TIP3    H216612   4.070   5.351   3.049  0.7499 -1.2516 -0.0518
 5550TIP3   OH216613   7.048   4.321   2.029 -0.1751 -0.3140  0.0045
 5550TIP3    H116614   7.016   4.239   2.066 -0.6270  0.2468  0.8776
 5550TIP3    H216615   6.989   4.388   2.063  0.5146  0.4494 -0.2564
 5551TIP3   OH216616   0.752   1.681   4.911 -0.2176  0.0983  0.3229
 5551TIP3    H116617   0.706   1.610   4.868 -1.7130 -0.3403  2.5064
 5551TIP3    H216618   0.834   1.642   4.941 -0.5948 -0.4528  0.6517
 5552TIP3   OH216619   1.960   1.651   0.127  0.2543  0.7347  0.2076
 5552TIP3    H116620   1.906   1.579   0.159 -2.5678  1.7329 -1.8477
 5552TIP3    H216621   2.013   1.613   0.057  0.5542  0.2132  0.7064
 5553TIP3   OH216622   3.775   0.618   1.547 -0.2536  0.2483  0.4760
 5553TIP3    H116623   3.775   0.560   1.623  1.3992  0.6316  0.7944
 5553TIP3    H216624   3.686   0.652   1.543 -0.4006  0.1295  2.1602
 5554TIP3   OH216625   4.104   1.129   2.051  0.0040 -0.0140 -0.0189
 5554TIP3    H116626   4.058   1.132   1.967  0.7961 -0.7092 -0.4970
 5554TIP3    H216627   4.091   1.216   2.089 -0.1807  0.3814 -0.9580
 5555TIP3   OH216628   1.665   6.033   0.304 -0.2587 -1.1350  0.3432
 5555TIP3    H116629   1.700   5.949   0.276 -1.4856 -1.8746  0.9179
 5555TIP3    H216630   1.577   6.012   0.338 -0.5150  0.3443  0.6692
 5556TIP3   OH216631   1.480   4.246   0.177 -0.1947 -0.5853  0.5971
 5556TIP3    H116632   1.472   4.210   0.265 -0.0002 -1.7107  0.1761
 5556TIP3    H216633   1.400   4.217   0.132 -0.9732  1.1774  0.7937
 5557TIP3   OH216634   0.789   3.681   2.618 -0.2928 -0.4273  0.6543
 5557TIP3    H116635   0.789   3.652   2.709 -0.5650  1.1477  1.1893
 5557TIP3    H216636   0.842   3.761   2.618 -1.0293  0.0933 -0.3996
 5558TIP3   OH216637   1.824   5.027   3.515 -0.0584 -0.2114  0.4961
 5558TIP3    H116638   1.810   4.948   3.567 -1.0558  0.7001  1.6727
 5558TIP3    H216639   1.900   5.007   3.460  0.2139 -1.6760  1.3626
 5559TIP3   OH216640   6.867   6.506   5.346  0.2593  0.2668  0.6174
 5559TIP3    H116641   6.794   6.447   5.328 -0.1654  1.1017 -0.4449
 5559TIP3    H216642   6.936   6.476   5.287  0.5213 -0.0175  1.0573
 5560TIP3   OH216643   0.692   3.267   4.745  0.0509  0.2472 -0.0380
 5560TIP3    H116644   0.743   3.221   4.679  3.4507  1.1498  1.6673
 5560TIP3    H216645   0.693   3.358   4.717  1.3443  0.6049  1.0280
 5561TIP3   OH216646   1.406   0.035   3.880  0.4352 -0.2877  0.2094
 5561TIP3    H116647   1.494   0.072   3.870 -0.1267  0.7978 -1.2036
 5561TIP3    H216648   1.386  -0.002   3.793 -0.6467 -0.1642  0.3922
 5562TIP3   OH216649   4.228   2.955   1.880 -0.0435 -0.5180 -0.5197
 5562TIP3    H116650   4.232   2.916   1.793 -2.4857 -3.3881  0.4909
 5562TIP3    H216651   4.239   2.882   1.940 -0.8158  0.9788  1.5683
 5563TIP3   OH216652   0.729   4.435   5.139 -0.1006 -0.2407  0.3557
 5563TIP3    H116653   0.653   4.458   5.193 -0.8533  0.8186 -1.0734
 5563TIP3    H216654   0.693   4.380   5.070  0.9489 -2.0699  1.2016
 5564TIP3   OH216655   1.238   0.097   3.448  0.6186  0.4224 -0.2619
 5564TIP3    H116656   1.149   0.083   3.415  0.7959 -1.0134 -0.2108
 5564TIP3    H216657   1.282   0.145   3.379 -0.0830  0.7917 -0.4623
 5565TIP3   OH216658   4.897   6.719   1.310 -0.2029 -0.0800 -0.2174
 5565TIP3    H116659   4.886   6.772   1.232  1.1290  0.3052 -0.1644
 5565TIP3    H216660   4.833   6.648   1.300 -0.9128  0.6482 -1.0368
 5566TIP3   OH216661   1.832   4.328   5.632  0.6685  0.1365 -0.3734
 5566TIP3    H116662   1.764   4.388   5.600  0.9642 -0.2447 -1.8229
 5566TIP3    H216663   1.788   4.277   5.699  0.4829  2.1177  1.1071
 5567TIP3   OH216664   6.213   3.462   3.856 -0.1478 -0.1436 -0.3130
 5567TIP3    H116665   6.256   3.382   3.886  1.7774  0.5186 -1.0824
 5567TIP3    H216666   6.168   3.437   3.775 -0.6356 -0.7136  0.1314
 5568TIP3   OH216667   2.388   2.604   1.958  0.2514  0.4399  0.0784
 5568TIP3    H116668   2.324   2.545   1.997  0.4423  1.0193  1.3039
 5568TIP3    H216669   2.372   2.598   1.864 -1.2700  0.2111  0.3365
 5569TIP3   OH216670   4.339   4.588   2.553 -0.3656  0.5183 -0.3790
 5569TIP3    H116671   4.385   4.513   2.590 -0.4339  0.1288 -1.0654
 5569TIP3    H216672   4.408   4.654   2.538 -0.4225  0.9079  0.9630
 5570TIP3   OH216673   6.894   2.725   2.464  0.1472  0.1075 -0.1144
 5570TIP3    H116674   6.856   2.638   2.453  1.6666 -0.8357  1.5811
 5570TIP3    H216675   6.820   2.779   2.494 -0.4755 -0.9890  0.3923
 5571TIP3   OH216676   6.782   6.596   2.642  0.1342  0.0926  0.1940
 5571TIP3    H116677   6.736   6.629   2.719 -1.2274  0.6603 -0.8254
 5571TIP3    H216678   6.830   6.520   2.674  0.7052  1.0962  1.8895
 5572TIP3   OH216679   2.874   4.035   0.884  0.6537 -0.0262  0.1168
 5572TIP3    H116680   2.928   3.972   0.834 -0.5148 -0.8207 -0.1792
 5572TIP3    H216681   2.878   4.115   0.832 -0.7401 -0.9087 -1.4509
 5573TIP3   OH216682   5.658   1.136   0.743 -0.2619  0.1824 -0.1785
 5573TIP3    H116683   5.620   1.128   0.830  0.1612  0.0453 -0.0049
 5573TIP3    H216684   5.697   1.051   0.725 -1.3907 -0.1826 -1.0093
 5574TIP3   OH216685   5.070   5.945   2.241 -0.4554 -0.2765 -0.6528
 5574TIP3    H116686   5.110   5.865   2.276  0.2711  0.1467 -0.4829
 5574TIP3    H216687   5.115   6.016   2.288 -1.2141  0.2248 -0.6756
 5575TIP3   OH216688   6.683   1.998   4.143 -0.1210  0.3632  0.0400
 5575TIP3    H116689   6.656   2.050   4.219 -1.7089  1.4183 -1.1850
 5575TIP3    H216690   6.779   1.995   4.149 -0.1828  0.7893  1.8318
 5576TIP3   OH216691   7.219   5.089   2.484  0.6297  0.1954 -0.4989
 5576TIP3    H116692   7.127   5.088   2.457  0.0176  0.0564  1.4033
 5576TIP3    H216693   7.264   5.139   2.416 -0.8170  0.1046 -1.5695
 5577TIP3   OH216694   4.887   4.965   2.688  0.0308 -0.5733  0.2473
 5577TIP3    H116695   4.860   5.044   2.642 -0.7466 -1.2430 -0.5046
 5577TIP3    H216696   4.856   4.977   2.778  1.1304  0.5418  0.5013
 5578TIP3   OH216697   4.355   5.185   1.003 -0.2013 -0.3029  0.2129
 5578TIP3    H116698   4.268   5.173   1.040 -0.4138 -0.4727 -0.3403
 5578TIP3    H216699   4.415   5.157   1.073 -0.5670  0.4679  0.8397
 5579TIP3   OH216700   4.457   2.977   2.648 -0.7180  0.1776  0.4511
 5579TIP3    H116701   4.410   3.060   2.657 -0.4236  0.2490  1.4815
 5579TIP3    H216702   4.390   2.910   2.661 -0.4715  0.2782  2.6536
 5580TIP3   OH216703   3.249   3.464   5.129 -0.6505  0.2338 -0.0638
 5580TIP3    H116704   3.224   3.421   5.211 -0.7360  0.3532 -0.0271
 5580TIP3    H216705   3.225   3.401   5.061 -0.2753 -0.0039  0.0233
 5581TIP3   OH216706   5.303   6.149   1.868 -0.4399  0.0700 -0.0064
 5581TIP3    H116707   5.228   6.202   1.840 -0.7126 -0.1392  0.3156
 5581TIP3    H216708   5.354   6.208   1.923 -0.2749  0.2645 -0.3588
 5582TIP3   OH216709   6.420   3.235   2.981 -0.0467  0.1117 -0.0403
 5582TIP3    H116710   6.470   3.206   3.057  0.1665  0.7402  0.0596
 5582TIP3    H216711   6.385   3.321   3.006 -1.3111 -0.3715 -0.0465
 5583TIP3   OH216712   0.473   4.106   3.767 -0.8750  0.6120  0.0034
 5583TIP3    H116713   0.393   4.061   3.740 -1.4729  1.7939 -0.2989
 5583TIP3    H216714   0.446   4.198   3.775  0.3704  0.9679  0.2599
 5584TIP3   OH216715   5.109   1.634   4.951  0.0135 -0.1816  0.4019
 5584TIP3    H116716   5.202   1.625   4.975  0.5422  1.4265 -0.8185
 5584TIP3    H216717   5.073   1.694   5.017  0.1724  0.1586  0.1868
 5585TIP3   OH216718   0.202   6.735   2.258  0.1950 -0.2282 -0.0783
 5585TIP3    H116719   0.272   6.761   2.318  2.2305 -2.4463 -1.3081
 5585TIP3    H216720   0.166   6.818   2.226  2.7252  1.0559  0.1381
 5586TIP3   OH216721   4.194   4.148   2.130 -0.2994 -0.6269  0.1453
 5586TIP3    H116722   4.134   4.075   2.144 -1.2978 -0.1353 -1.3428
 5586TIP3    H216723   4.163   4.217   2.188 -0.4357 -0.7922  0.2687
 5587TIP3   OH216724   3.793   6.170   1.987 -0.3853  0.2057  0.7464
 5587TIP3    H116725   3.779   6.085   1.946 -2.4947 -0.0680  1.8933
 5587TIP3    H216726   3.822   6.227   1.916 -0.3993 -1.1002 -0.3310
 5588TIP3   OH216727   5.798   0.860   0.287 -0.4135 -0.2914 -0.5188
 5588TIP3    H116728   5.725   0.858   0.349  1.1537  1.3332  1.4853
 5588TIP3    H216729   5.804   0.951   0.260 -0.1042 -0.7116 -1.9241
 5589TIP3   OH216730   6.275   3.277   0.585 -0.8754  0.7149  0.5088
 5589TIP3    H116731   6.290   3.296   0.678  0.6046 -0.3422  0.5171
 5589TIP3    H216732   6.287   3.362   0.541 -0.7289  1.0528  1.1889
 5590TIP3   OH216733   1.797   3.077   5.324  0.6565 -0.1442 -0.0852
 5590TIP3    H116734   1.855   3.149   5.350  1.1949 -0.4790 -0.3482
 5590TIP3    H216735   1.792   3.084   5.228  1.2474 -0.8589 -0.1747
 5591TIP3   OH216736   1.517   3.604   2.161 -0.2772  0.2975 -0.3213
 5591TIP3    H116737   1.588   3.542   2.174 -1.5545 -1.2529 -0.4029
 5591TIP3    H216738   1.547   3.684   2.203  0.5004 -1.0695  1.8990
 5592TIP3   OH216739   3.465   0.949   3.023 -0.7250  0.0577 -0.7320
 5592TIP3    H116740   3.484   1.041   3.003 -0.1819 -0.5013 -2.9919
 5592TIP3    H216741   3.373   0.949   3.049 -1.0740  1.0845 -1.8885
 5593TIP3   OH216742   3.708   4.735   5.740  0.0327  0.0086  0.0916
 5593TIP3    H116743   3.676   4.693   5.660  1.6167  0.4532 -0.8270
 5593TIP3    H216744   3.788   4.688   5.761 -0.1207  0.2027  1.1799
 5594TIP3   OH216745   1.655   1.928   2.062 -0.1907 -0.1256 -0.1716
 5594TIP3    H116746   1.678   1.892   1.977  0.6468 -0.9427  0.3815
 5594TIP3    H216747   1.737   1.964   2.096 -0.2472 -0.8693  0.7841
 5595TIP3   OH216748   4.755   5.045   1.844 -0.3644  0.8214 -0.5055
 5595TIP3    H116749   4.782   4.966   1.797  0.3658  1.1057 -0.5738
 5595TIP3    H216750   4.684   5.081   1.791  1.2010  1.7644 -2.0565
 5596TIP3   OH216751   5.054   0.914   5.102 -0.0927 -0.1725  0.3051
 5596TIP3    H116752   5.045   0.829   5.145  0.6500 -0.6947 -0.5310
 5596TIP3    H216753   5.034   0.896   5.010  1.6286  0.1878 -0.1869
 5597TIP3   OH216754   6.734   5.387   2.551  0.2761 -0.6525  0.1915
 5597TIP3    H116755   6.818   5.408   2.511 -0.0788 -0.5974 -0.5419
 5597TIP3    H216756   6.756   5.329   2.624  0.9150 -0.9757 -0.2489
 5598TIP3   OH216757   3.204   5.572   4.081  0.0275 -0.4493  0.6344
 5598TIP3    H116758   3.208   5.546   3.989 -0.2262 -2.2008  1.0768
 5598TIP3    H216759   3.113   5.597   4.094  0.3082  0.8932  0.1618
 5599TIP3   OH216760   6.434   5.102   0.239  0.0014  0.0239 -0.2103
 5599TIP3    H116761   6.472   5.159   0.306  0.8251  0.7070 -1.2449
 5599TIP3    H216762   6.485   5.118   0.160 -0.3536 -1.4619 -0.7866
 5600TIP3   OH216763   0.193   0.312   3.697  0.1354  0.3731 -0.0957
 5600TIP3    H116764   0.151   0.385   3.743 -1.8119  0.3899 -1.7620
 5600TIP3    H216765   0.204   0.343   3.607  1.9080 -0.4050 -0.1963
 5601TIP3   OH216766   7.085   1.385   0.942 -0.0060  0.0872  0.2361
 5601TIP3    H116767   7.019   1.355   0.879  0.2403  0.4329 -0.1950
 5601TIP3    H216768   7.144   1.310   0.952  0.7602  0.5003 -1.0406
 5602TIP3   OH216769   2.203   1.891   3.458 -0.0707 -0.1486  0.6020
 5602TIP3    H116770   2.183   1.821   3.396  0.6324  1.2189 -1.2738
 5602TIP3    H216771   2.139   1.880   3.529  0.2376 -2.8452  0.5698
 5603TIP3   OH216772   6.928   1.861   4.530 -0.4870 -0.1663  0.5232
 5603TIP3    H116773   6.928   1.942   4.582  0.7276  1.3012 -1.6301
 5603TIP3    H216774   6.840   1.856   4.493 -0.4220  0.4630  0.2674
 5604TIP3   OH216775   0.384   3.307   1.827  0.5210  0.2914 -0.0115
 5604TIP3    H116776   0.382   3.395   1.790 -0.8406  0.3578  0.1818
 5604TIP3    H216777   0.329   3.313   1.905 -1.5125 -1.2520 -1.2424
 5605TIP3   OH216778   4.615   3.796   0.991 -0.5211 -0.5343  0.0131
 5605TIP3    H116779   4.683   3.729   1.000 -1.0600 -0.9820  0.9501
 5605TIP3    H216780   4.589   3.792   0.899 -0.1045 -1.1839 -0.0810
 5606TIP3   OH216781   7.108   5.827   3.792  0.2201 -0.3545 -0.4561
 5606TIP3    H116782   7.069   5.758   3.738 -1.2717  0.1464 -0.0608
 5606TIP3    H216783   7.078   5.807   3.881 -0.0704  0.6863 -0.3068
 5607TIP3   OH216784   6.272   2.733   5.177  0.4750  0.2087 -0.3078
 5607TIP3    H116785   6.327   2.661   5.207 -0.6867 -1.4307 -1.8812
 5607TIP3    H216786   6.295   2.743   5.084  0.4584  1.7447 -0.1708
 5608TIP3   OH216787   2.688   1.727   1.001 -0.4264  0.0726  0.1905
 5608TIP3    H116788   2.635   1.648   0.992 -2.0097  1.2434 -1.5739
 5608TIP3    H216789   2.691   1.744   1.095 -0.9753 -1.4640  0.5058
 5609TIP3   OH216790   1.396   3.496   5.141 -0.2858  0.0990 -0.0516
 5609TIP3    H116791   1.307   3.532   5.143 -1.1377 -1.6567 -1.9894
 5609TIP3    H216792   1.407   3.453   5.226 -1.0155  0.9138  0.4679
 5610TIP3   OH216793   1.186   4.346   3.969  0.4829 -0.3441  0.2584
 5610TIP3    H116794   1.093   4.369   3.977  0.9025  1.3210  0.7991
 5610TIP3    H216795   1.186   4.264   3.921 -1.2481 -0.0029 -0.4157
 5611TIP3   OH216796   0.870   0.323   5.305  0.5773 -0.5811 -0.1760
 5611TIP3    H116797   0.788   0.326   5.354  0.7815 -0.8742  0.1889
 5611TIP3    H216798   0.934   0.290   5.367  1.3382  1.1741  0.0200
 5612TIP3   OH216799   3.879   3.713   0.691 -0.6970  0.7713  0.0083
 5612TIP3    H116800   3.923   3.761   0.621 -0.7432 -0.5607 -0.9845
 5612TIP3    H216801   3.913   3.624   0.684 -1.9832  0.2045  0.5613
 5613TIP3   OH216802   2.767   3.932   3.638 -0.2765 -0.3549 -0.1214
 5613TIP3    H116803   2.836   3.959   3.699  0.1402 -1.3331 -0.1378
 5613TIP3    H216804   2.685   3.951   3.683  0.0235 -1.9900  1.1778
 5614TIP3   OH216805   6.573   0.139   0.657 -0.3713  0.1282  0.1507
 5614TIP3    H116806   6.669   0.137   0.658 -0.3671 -1.2178 -0.8187
 5614TIP3    H216807   6.551   0.232   0.666  1.0074  0.3957  0.9597
 5615TIP3   OH216808   5.610   5.235   2.389  0.1075 -0.0624  0.6488
 5615TIP3    H116809   5.536   5.268   2.440 -0.0918 -1.6061  1.4093
 5615TIP3    H216810   5.576   5.225   2.300 -0.3516  0.0231  0.8124
 5616TIP3   OH216811   0.525   3.041   5.323 -0.0278  0.8786  0.3446
 5616TIP3    H116812   0.495   3.011   5.238 -0.2526  2.6942 -0.2575
 5616TIP3    H216813   0.502   2.970   5.383 -2.4853  0.7398 -0.6282
 5617TIP3   OH216814   1.544   1.800   4.595  0.3876 -0.3767  0.0577
 5617TIP3    H116815   1.581   1.886   4.572  1.5463 -0.9990 -0.4754
 5617TIP3    H216816   1.499   1.815   4.678 -0.9517  1.1547 -0.8676
 5618TIP3   OH216817   0.024   4.354   1.048 -0.2512  0.1516  0.4208
 5618TIP3    H116818   0.111   4.366   1.086 -0.6484  3.5714  0.5856
 5618TIP3    H216819   0.030   4.392   0.960 -1.7020  1.1170  0.6925
 5619TIP3   OH216820   2.539   2.263   0.237 -0.2533  0.7340  0.4121
 5619TIP3    H116821   2.472   2.211   0.280 -0.4909 -0.4124 -1.2544
 5619TIP3    H216822   2.622   2.228   0.271 -0.3666 -1.6101 -1.5239
 5620TIP3   OH216823   0.464   2.698   0.616  0.3713 -0.1584 -0.4775
 5620TIP3    H116824   0.559   2.708   0.624  0.4173  0.2850 -1.3767
 5620TIP3    H216825   0.429   2.785   0.636  0.2938  0.1403 -1.7782
 5621TIP3   OH216826   2.505   4.214   2.058  0.1804 -0.0847 -0.1607
 5621TIP3    H116827   2.593   4.230   2.026 -0.0759 -0.7263 -1.2296
 5621TIP3    H216828   2.507   4.124   2.091 -0.0775 -0.1170 -0.2279
 5622TIP3   OH216829   6.248   4.827   4.542  0.0090  0.3118 -0.6177
 5622TIP3    H116830   6.155   4.825   4.568 -0.4457 -1.3629 -2.1554
 5622TIP3    H216831   6.279   4.738   4.558  1.6219  1.0505  0.6379
 5623TIP3   OH216832   6.691   2.301   3.221 -0.3114 -0.5664 -0.1877
 5623TIP3    H116833   6.748   2.363   3.266 -1.2457 -0.6849  1.2665
 5623TIP3    H216834   6.748   2.227   3.199  0.7698  0.6757 -1.7689
 5624TIP3   OH216835   3.490   0.280   3.272  0.3787  0.4977 -0.3274
 5624TIP3    H116836   3.479   0.297   3.365  0.7654  1.3607 -0.4310
 5624TIP3    H216837   3.479   0.365   3.230  2.0316  0.4753 -0.8916
 5625TIP3   OH216838   4.932   2.895   2.818 -0.8333 -0.0665  0.5936
 5625TIP3    H116839   4.846   2.862   2.791 -0.9437  0.6830  0.0233
 5625TIP3    H216840   4.982   2.816   2.839 -1.5303 -0.5276  0.5437
 5626TIP3   OH216841   2.986   5.391   2.275  0.2659 -0.0123  0.1489
 5626TIP3    H116842   3.025   5.436   2.349  0.3969  0.0523  0.0418
 5626TIP3    H216843   2.920   5.451   2.241  1.1480  0.5437 -0.6281
 5627TIP3   OH216844   2.490   3.522   0.683 -0.2558  0.3917  0.9253
 5627TIP3    H116845   2.428   3.589   0.653 -0.8614  0.1381  1.5830
 5627TIP3    H216846   2.450   3.485   0.762  0.5938  0.0107  1.1947
 5628TIP3   OH216847   0.565   1.996   5.779 -0.0686 -0.6735 -0.4104
 5628TIP3    H116848   0.534   1.963   5.864  1.0797  0.9014  0.6634
 5628TIP3    H216849   0.497   1.969   5.717 -3.2030  1.7827  1.6546
 5629TIP3   OH216850   3.164   6.203   1.142  0.3699  0.6905  0.3241
 5629TIP3    H116851   3.207   6.179   1.060 -2.4345  1.4954 -1.5161
 5629TIP3    H216852   3.215   6.277   1.175 -0.5065  2.8654 -2.7572
 5630TIP3   OH216853   6.860   4.725   0.856  0.1889  0.2681  0.4165
 5630TIP3    H116854   6.951   4.754   0.842  0.5572 -0.9147  0.3055
 5630TIP3    H216855   6.864   4.630   0.853 -0.9704  0.1837  1.0194
 5631TIP3   OH216856   3.543   3.583   3.501 -0.1624 -0.1599  0.2260
 5631TIP3    H116857   3.575   3.599   3.412  1.3371 -0.8268  0.6170
 5631TIP3    H216858   3.526   3.671   3.535  0.8655  0.2196 -0.1725
 5632TIP3   OH216859   0.372   4.940   1.255  0.7316  0.8100 -0.0229
 5632TIP3    H116860   0.352   5.033   1.253 -0.3471  0.5844 -0.3395
 5632TIP3    H216861   0.430   4.929   1.331  0.2906  1.6197  0.4354
 5633TIP3   OH216862   6.462   3.128   2.113 -0.1225  0.6740  0.0473
 5633TIP3    H116863   6.378   3.087   2.134 -0.2668  1.6754  1.5563
 5633TIP3    H216864   6.494   3.161   2.196  1.5455  0.7538 -0.5951
 5634TIP3   OH216865   1.046   1.759   5.830 -0.1380  0.0475  0.2645
 5634TIP3    H116866   1.043   1.828   5.764  0.9438  0.9445  1.1160
 5634TIP3    H216867   1.105   1.694   5.794  0.1517  0.3576  0.1728
 5635TIP3   OH216868   0.709   2.929   1.449 -0.6151  0.0895 -0.6505
 5635TIP3    H116869   0.783   2.954   1.394  1.8091 -1.1825  1.8330
 5635TIP3    H216870   0.673   2.852   1.406 -0.3137  0.5101 -1.6974
 5636TIP3   OH216871   1.859   2.684   3.352  0.0725 -0.0870  0.5000
 5636TIP3    H116872   1.879   2.603   3.400  0.2622 -0.5906 -0.4132
 5636TIP3    H216873   1.860   2.659   3.260  4.5155  1.7373 -0.2242
 5637TIP3   OH216874   7.200   2.083   4.120 -0.2216 -0.1577 -0.3306
 5637TIP3    H116875   7.126   2.101   4.177  0.3475  0.4624  0.2266
 5637TIP3    H216876   7.193   1.989   4.101  0.0714 -0.5912  1.4910
 5638TIP3   OH216877   6.309   2.178   3.828  0.0800 -0.2499  0.1127
 5638TIP3    H116878   6.311   2.178   3.924  1.0263 -1.0686  0.1118
 5638TIP3    H216879   6.379   2.118   3.803 -0.2185 -0.1144 -1.0972
 5639TIP3   OH216880   1.965   2.362   0.550 -0.5270 -0.1889  0.1538
 5639TIP3    H116881   1.997   2.451   0.537  0.3790 -0.0987  2.4428
 5639TIP3    H216882   1.885   2.357   0.499 -0.1160  1.6310 -0.7507
 5640TIP3   OH216883   5.992   1.320   3.675  0.3923 -0.3256 -0.0799
 5640TIP3    H116884   6.044   1.261   3.730  2.7493  0.1172 -1.6773
 5640TIP3    H216885   6.054   1.387   3.646 -1.4155  1.0389 -1.0449
 5641TIP3   OH216886   2.118   6.622   5.707 -0.2544 -0.1421 -0.3223
 5641TIP3    H116887   2.043   6.586   5.660 -0.8215 -0.5744  0.8703
 5641TIP3    H216888   2.130   6.563   5.782  1.2066 -0.0139 -0.4363
 5642TIP3   OH216889   2.993   4.584   0.399 -0.0842 -0.0090  0.2623
 5642TIP3    H116890   3.055   4.596   0.471  1.8397 -1.0821 -1.1102
 5642TIP3    H216891   2.995   4.490   0.381 -2.3877 -0.1359  0.3333
 5643TIP3   OH216892   1.186   2.071   5.151 -0.2357 -0.0729  0.0978
 5643TIP3    H116893   1.201   2.153   5.105  0.2587 -0.4670 -0.4718
 5643TIP3    H216894   1.272   2.027   5.149 -0.2658 -0.1971  1.1988
 5644TIP3   OH216895   4.128   1.248   0.039 -0.1393 -0.4023 -0.1058
 5644TIP3    H116896   4.210   1.266   0.084 -0.0036 -0.2411 -0.4136
 5644TIP3    H216897   4.064   1.305   0.081 -0.0132 -0.2518 -0.1161
 5645TIP3   OH216898   5.201   2.362   0.187 -0.0817 -0.5483 -0.2443
 5645TIP3    H116899   5.231   2.435   0.241  1.3417 -1.1019 -0.2506
 5645TIP3    H216900   5.179   2.294   0.251 -1.0544 -0.2556 -0.2554
 5646TIP3   OH216901   1.741   5.567   5.049  0.4474 -0.2095 -0.3864
 5646TIP3    H116902   1.833   5.583   5.028  0.6346  0.1717  0.6611
 5646TIP3    H216903   1.743   5.522   5.134 -0.1949 -3.2002 -1.8213
 5647TIP3   OH216904   5.510   3.139   3.044 -0.0897  0.8920 -0.4047
 5647TIP3    H116905   5.439   3.083   3.014 -0.1185  0.8524 -0.2609
 5647TIP3    H216906   5.587   3.110   2.994  0.0725  0.1963  0.2477
 5648TIP3   OH216907   4.506   1.740   3.750  0.3341  0.3997 -0.5092
 5648TIP3    H116908   4.555   1.814   3.715  0.5371  0.2362 -0.5703
 5648TIP3    H216909   4.529   1.666   3.693 -1.0990  0.6334 -1.4259
 5649TIP3   OH216910   4.062   3.382   2.559 -0.5614  0.1017  0.3406
 5649TIP3    H116911   4.021   3.305   2.519 -0.8321  0.1736  0.4776
 5649TIP3    H216912   4.024   3.457   2.512  0.9709  0.1141 -0.9866
 5650TIP3   OH216913   0.703   2.801   5.696 -0.5966 -0.2090 -0.1970
 5650TIP3    H116914   0.753   2.836   5.770 -0.5537  2.8672 -1.5670
 5650TIP3    H216915   0.624   2.855   5.693 -2.3997 -2.6772 -0.2597
 5651TIP3   OH216916   5.743   4.629   1.992  0.2810 -0.0107 -0.3137
 5651TIP3    H116917   5.734   4.545   2.037 -0.1990  0.4256  0.4259
 5651TIP3    H216918   5.709   4.693   2.054 -0.4533  0.6064 -1.3176
 5652TIP3   OH216919   5.053   6.472   1.311 -0.3635 -0.6268 -0.4229
 5652TIP3    H116920   5.030   6.559   1.277 -0.1724  0.4328  1.9782
 5652TIP3    H216921   5.091   6.427   1.236 -0.5418  1.3372 -1.7769
 5653TIP3   OH216922   6.326   4.513   0.760  0.0917  0.2926 -0.0677
 5653TIP3    H116923   6.237   4.546   0.752  0.4872  1.5265  0.3803
 5653TIP3    H216924   6.369   4.573   0.821  1.0919 -0.5733  0.1208
 5654TIP3   OH216925   3.899   6.403   2.540  0.2908  0.2305 -0.0227
 5654TIP3    H116926   3.936   6.385   2.453  0.1226  0.6466 -0.1819
 5654TIP3    H216927   3.939   6.486   2.566 -0.0139  0.3384  0.1004
 5655TIP3   OH216928   6.706   4.275   2.147  0.0176 -0.3680  0.3014
 5655TIP3    H116929   6.747   4.203   2.195  2.7091  1.4824  1.0290
 5655TIP3    H216930   6.651   4.318   2.212 -1.1222 -1.3440  0.0222
 5656TIP3   OH216931   6.776   0.663   4.317  0.4168  0.5407 -0.0364
 5656TIP3    H116932   6.717   0.609   4.371 -0.4055  0.0269 -1.3836
 5656TIP3    H216933   6.733   0.749   4.314  0.4561  0.5660  0.1224
 5657TIP3   OH216934   6.597   1.401   3.086  0.1833 -0.0895 -0.6994
 5657TIP3    H116935   6.591   1.458   3.009 -0.2923 -0.0592 -0.6460
 5657TIP3    H216936   6.520   1.424   3.139  0.3460 -0.3177 -0.3582
 5658TIP3   OH216937   4.863   6.750   3.857  0.8307 -0.0084 -0.2607
 5658TIP3    H116938   4.860   6.845   3.841 -2.3278 -0.0142 -0.4563
 5658TIP3    H216939   4.880   6.712   3.771  0.8229  0.3678 -0.4338
 5659TIP3   OH216940   0.597   3.212   3.731 -0.1020  0.4365  0.3187
 5659TIP3    H116941   0.512   3.209   3.774 -0.0502 -0.2865  0.3871
 5659TIP3    H216942   0.657   3.172   3.793  0.3837  1.3914  0.4695
 5660TIP3   OH216943   2.268   4.433   5.285  0.1072  0.5778 -0.3252
 5660TIP3    H116944   2.363   4.429   5.297  0.0534  1.1428  0.3513
 5660TIP3    H216945   2.256   4.495   5.212  0.2599  0.3947 -0.5080
 5661TIP3   OH216946   0.916   0.590   4.760  0.5184 -0.1236  0.4216
 5661TIP3    H116947   0.999   0.543   4.772  0.6862  0.0722  0.0421
 5661TIP3    H216948   0.849   0.525   4.778  0.7397 -0.7407 -0.8892
 5662TIP3   OH216949   5.600   4.499   2.369 -0.2204  0.1670  0.1556
 5662TIP3    H116950   5.571   4.444   2.296 -0.5942 -0.1410  0.5287
 5662TIP3    H216951   5.543   4.576   2.366 -0.2132  0.1703  0.0993
 5663TIP3   OH216952   7.150   2.717   1.042 -0.4042 -0.0612  0.1068
 5663TIP3    H116953   7.142   2.666   1.123  0.5202 -1.8268 -0.8316
 5663TIP3    H216954   7.156   2.650   0.974  3.1879  1.1810 -1.0189
 5664TIP3   OH216955   7.088   2.525   2.950 -0.2664  0.1583 -0.1462
 5664TIP3    H116956   7.107   2.431   2.948  0.8289  0.3527  0.6254
 5664TIP3    H216957   7.109   2.555   2.861  1.0987 -0.0152  0.1015
 5665TIP3   OH216958   4.605   4.707   2.570 -0.0219  0.6022 -0.5334
 5665TIP3    H116959   4.640   4.655   2.497  0.9745  0.5444 -0.0244
 5665TIP3    H216960   4.633   4.796   2.550  0.9351  0.4731  0.1607
 5666TIP3   OH216961   3.533   3.817   2.703 -0.0360 -0.0488 -0.1404
 5666TIP3    H116962   3.521   3.906   2.737 -1.8512 -0.4293  0.3112
 5666TIP3    H216963   3.589   3.829   2.627  0.2944  1.4043  0.2840
 5667TIP3   OH216964   0.678   5.365   2.012  0.0547 -0.3495  0.6347
 5667TIP3    H116965   0.663   5.288   1.957 -1.2488  1.3834 -1.6245
 5667TIP3    H216966   0.772   5.381   2.004  0.2724 -1.4247  0.7945
 5668TIP3   OH216967   4.938   4.140   3.047 -0.2141  0.3233 -0.2496
 5668TIP3    H116968   4.965   4.048   3.048  0.7270  0.5713  1.2363
 5668TIP3    H216969   4.845   4.137   3.071  0.3275 -0.1729  2.0865
 5669TIP3   OH216970   2.351   3.498   5.612 -0.9255  0.0668 -0.0847
 5669TIP3    H116971   2.296   3.577   5.611 -3.0217 -1.2782  1.2296
 5669TIP3    H216972   2.370   3.483   5.705 -0.2203 -0.7828 -0.3510
 5670TIP3   OH216973   5.871   6.419   5.068 -0.0321  0.7390  0.3167
 5670TIP3    H116974   5.848   6.350   5.005  0.9764 -1.2181  1.9446
 5670TIP3    H216975   5.788   6.441   5.110 -0.2925  0.0559  0.1816
 5671TIP3   OH216976   1.176   6.099   0.105 -0.6190 -0.1376  0.0456
 5671TIP3    H116977   1.152   6.016   0.147  0.5615  0.1549  1.3744
 5671TIP3    H216978   1.152   6.166   0.169  0.9554  0.3413  0.1681
 5672TIP3   OH216979   5.425   5.915   3.392 -0.0026  0.2068  0.1761
 5672TIP3    H116980   5.350   5.917   3.332  0.6641  0.4856 -0.6803
 5672TIP3    H216981   5.476   5.839   3.363  0.9326  1.0195 -0.4100
 5673TIP3   OH216982   2.448   5.791   1.800  0.2592  0.0042  0.0001
 5673TIP3    H116983   2.401   5.855   1.746  0.7744  0.6715  0.3318
 5673TIP3    H216984   2.458   5.714   1.744  0.0889  0.4030 -0.5788
 5674TIP3   OH216985   7.028   6.676   2.341 -0.1640 -0.0364 -0.4072
 5674TIP3    H116986   6.979   6.594   2.345  0.0727 -0.2046  3.8108
 5674TIP3    H216987   7.120   6.649   2.345  0.0332  0.4183 -1.5845
 5675TIP3   OH216988   4.243   0.281   0.348  0.0311 -0.0845 -0.1103
 5675TIP3    H116989   4.167   0.264   0.403  1.3512 -3.8006  0.8858
 5675TIP3    H216990   4.276   0.366   0.377 -1.5910 -0.0949  2.0274
 5676TIP3   OH216991   5.371   5.273   2.555  0.2382 -0.7742  0.1824
 5676TIP3    H116992   5.311   5.347   2.549  0.1833 -0.7868  0.5574
 5676TIP3    H216993   5.324   5.201   2.514 -0.5788 -1.1408  1.6890
 5677TIP3   OH216994   7.020   3.463   3.181  0.5672 -0.4813  0.5313
 5677TIP3    H116995   7.073   3.485   3.258  2.5229 -0.4453 -0.7566
 5677TIP3    H216996   7.063   3.386   3.143  0.6865  0.4862 -1.4354
 5678TIP3   OH216997   2.774   6.458   2.629 -0.2207 -0.0884 -0.7995
 5678TIP3    H116998   2.772   6.448   2.724  0.7511  2.5424 -0.4088
 5678TIP3    H216999   2.686   6.486   2.605 -0.3897 -0.4879 -0.6481
 5679TIP3   OH217000   1.404   2.966   3.724  0.1925  0.1200  0.0224
 5679TIP3    H117001   1.395   2.989   3.632 -1.8488  2.1894  0.6212
 5679TIP3    H217002   1.322   2.922   3.746  0.8560 -0.7791  0.7492
 5680TIP3   OH217003   2.912   6.158  -0.002 -0.3382  0.2676  0.2776
 5680TIP3    H117004   2.928   6.065   0.016 -0.9426  0.5572  2.5864
 5680TIP3    H217005   2.934   6.202   0.079 -0.5212  2.1125 -0.6352
 5681TIP3   OH217006   4.966   3.892   2.834 -0.1023 -0.3012  0.1160
 5681TIP3    H117007   4.993   3.874   2.924  1.6546 -0.1800 -0.3605
 5681TIP3    H217008   4.871   3.875   2.834 -0.0098 -1.0269  1.7848
 5682TIP3   OH217009   2.164   1.320   5.108 -0.0844  0.2091 -0.7440
 5682TIP3    H117010   2.171   1.292   5.016  2.3451  1.6844 -1.1021
 5682TIP3    H217011   2.252   1.305   5.144 -0.3466  1.8196  0.6714
 5683TIP3   OH217012   2.176   2.964   5.597  0.0688 -0.0617  0.0024
 5683TIP3    H117013   2.254   3.011   5.567 -0.1306  0.3764  0.1591
 5683TIP3    H217014   2.121   2.955   5.519 -0.5673  1.3052  0.2626
 5684TIP3   OH217015   1.145   2.083   3.536 -0.0786 -0.2475  0.2383
 5684TIP3    H117016   1.135   2.027   3.613 -1.0946 -1.6364 -0.8654
 5684TIP3    H217017   1.055   2.099   3.506  0.3026  0.3451 -0.6201
 5685TIP3   OH217018   0.309   4.181   0.926 -0.3086  0.0908 -0.1686
 5685TIP3    H117019   0.384   4.151   0.976  0.4350  0.4585 -1.0386
 5685TIP3    H217020   0.339   4.183   0.836 -2.2074 -2.4740 -0.9706
 5686TIP3   OH217021   5.599   4.337   4.732  0.4269 -0.3208 -0.3546
 5686TIP3    H117022   5.526   4.398   4.743  0.3395 -0.5405  0.3355
 5686TIP3    H217023   5.558   4.250   4.733  0.7197 -0.4594  0.3496
 5687TIP3   OH217024   4.112   4.505   0.237  0.4132  0.2744  0.1836
 5687TIP3    H117025   4.030   4.457   0.225  0.6796  0.1978 -1.6020
 5687TIP3    H217026   4.085   4.590   0.270 -0.1986 -0.4645  1.6721
 5688TIP3   OH217027   3.697   6.500   5.855 -0.2108 -0.2346 -0.1879
 5688TIP3    H117028   3.645   6.569   5.898 -0.9739 -1.9612  1.8297
 5688TIP3    H217029   3.704   6.431   5.921  1.2542 -1.7598 -1.8440
 5689TIP3   OH217030   5.018   2.939   4.264  0.1127 -0.3138 -0.6273
 5689TIP3    H117031   4.952   2.966   4.201 -0.1810 -0.3102 -0.3212
 5689TIP3    H217032   4.968   2.908   4.339  0.4101 -2.2849 -1.1839
 5690TIP3   OH217033   4.636   6.694   4.245  0.0984 -0.1526  0.2945
 5690TIP3    H117034   4.715   6.663   4.289 -1.4138  0.4811  3.7343
 5690TIP3    H217035   4.600   6.615   4.204  1.2642 -0.9340  0.6934
 5691TIP3   OH217036   6.827   3.014   3.764  0.6783 -0.2972  0.3347
 5691TIP3    H117037   6.772   2.981   3.693  0.3442 -1.9324  1.2927
 5691TIP3    H217038   6.766   3.060   3.822  0.4727 -1.1853  0.8473
 5692TIP3   OH217039   3.350   3.710   5.345 -0.2886  0.0909 -0.1927
 5692TIP3    H117040   3.323   3.687   5.434 -0.7416 -1.8348 -0.7678
 5692TIP3    H217041   3.413   3.642   5.321 -0.7505  0.1255 -1.5987
 5693TIP3   OH217042   3.492   2.553   5.030  0.0233 -0.3391 -0.0875
 5693TIP3    H117043   3.490   2.648   5.022  0.6473  0.2090  3.8982
 5693TIP3    H217044   3.401   2.526   5.019 -0.6382  1.1256  1.3657
 5694TIP3   OH217045   2.009   1.051   2.244 -0.7499 -0.1970 -0.2331
 5694TIP3    H117046   1.971   1.135   2.269 -0.1814 -0.5235  1.9769
 5694TIP3    H217047   2.099   1.055   2.277 -1.1718 -2.2162  1.3495
 5695TIP3   OH217048   2.942   2.654   3.332 -0.1255 -0.1271 -0.0407
 5695TIP3    H117049   2.915   2.681   3.244  0.3493 -0.1518 -0.1964
 5695TIP3    H217050   2.982   2.732   3.370 -0.8577  0.0535  0.3757
 5696TIP3   OH217051   1.277   1.625   5.488  0.0894  0.2918 -0.1290
 5696TIP3    H117052   1.361   1.667   5.467 -0.2005  2.1542  2.1038
 5696TIP3    H217053   1.274   1.623   5.583 -2.3291  0.0932 -0.1543
 5697TIP3   OH217054   1.522   0.930   5.846  0.6076  0.7274  0.5899
 5697TIP3    H117055   1.618   0.940   5.842  0.5021  1.9451  0.6062
 5697TIP3    H217056   1.490   1.020   5.853 -0.4984  0.2782  1.5525
 5698TIP3   OH217057   3.986   6.747   5.749 -0.2191 -0.0895 -0.0662
 5698TIP3    H117058   3.995   6.651   5.747 -1.4171 -0.3051  1.7933
 5698TIP3    H217059   3.942   6.764   5.832  0.3128  2.1294 -0.1949
 5699TIP3   OH217060   6.958   4.181   1.587  0.2114 -0.2567 -0.1526
 5699TIP3    H117061   6.986   4.134   1.665  0.9458  2.5306  1.4350
 5699TIP3    H217062   7.033   4.235   1.563 -0.5057  0.0284 -1.9210
 5700TIP3   OH217063   4.130   3.164   1.312  0.2016  0.2322  0.2808
 5700TIP3    H117064   4.137   3.260   1.318  1.4804  0.1032  1.3331
 5700TIP3    H217065   4.210   3.137   1.268  0.0403 -0.3845  0.3668
 5701TIP3   OH217066   1.548   1.188   1.639 -0.2016 -0.1522  0.0412
 5701TIP3    H117067   1.485   1.122   1.609 -0.2470 -1.0983  2.0162
 5701TIP3    H217068   1.546   1.181   1.735  0.2862  2.3049  0.2926
 5702TIP3   OH217069   5.696   2.644   3.352  0.2836  0.1629  0.1523
 5702TIP3    H117070   5.773   2.642   3.294 -0.1143 -0.1601 -0.3679
 5702TIP3    H217071   5.622   2.657   3.293 -0.0792  0.3380  0.6423
 5703TIP3   OH217072   1.575   2.931   0.570 -0.8830 -0.1105 -0.6317
 5703TIP3    H117073   1.592   2.902   0.480  1.4581 -0.0054 -0.2758
 5703TIP3    H217074   1.590   2.854   0.624  3.2052  0.9978  0.1075
 5704TIP3   OH217075   2.426   2.225   5.688  0.0863 -0.4129 -0.5268
 5704TIP3    H117076   2.497   2.166   5.666  0.1405 -0.9555  1.0138
 5704TIP3    H217077   2.383   2.185   5.764 -2.5419 -0.6686 -2.0005
 5705TIP3   OH217078   5.306   5.467   3.953 -0.2591  0.1886 -0.1352
 5705TIP3    H117079   5.266   5.553   3.964  0.1543  0.3512  0.1351
 5705TIP3    H217080   5.364   5.477   3.878  0.7092  0.5011  0.6274
 5706TIP3   OH217081   6.811   2.736   5.855 -0.4747 -0.6081 -0.2601
 5706TIP3    H117082   6.811   2.776   5.768 -1.7904  0.0808  0.0208
 5706TIP3    H217083   6.882   2.780   5.902 -0.3524 -0.3295 -0.6981
 5707TIP3   OH217084   6.537   2.379   0.319  0.3769  0.3118 -0.3740
 5707TIP3    H117085   6.487   2.424   0.251  0.4218 -0.4368 -0.9172
 5707TIP3    H217086   6.487   2.299   0.336  0.2229  0.6066  0.6704
 5708TIP3   OH217087   6.945   5.111   2.441 -0.3555 -0.1970  0.4808
 5708TIP3    H117088   6.946   5.203   2.466  3.1887  0.0661 -0.0602
 5708TIP3    H217089   6.896   5.108   2.359  0.6341  1.4808 -0.2026
 5709TIP3   OH217090   4.922   4.892   2.044 -0.4160 -0.1475 -0.5640
 5709TIP3    H117091   4.853   4.916   1.982 -0.6317  1.3948  0.2310
 5709TIP3    H217092   4.992   4.955   2.029 -0.4828  0.2686  0.7625
 5710TIP3   OH217093   6.816   2.740   0.407  0.4124  0.1635  0.3437
 5710TIP3    H117094   6.861   2.819   0.377  1.8402 -0.8280 -0.1634
 5710TIP3    H217095   6.863   2.714   0.486  0.2127 -0.4183  0.2772
 5711TIP3   OH217096   5.132   2.721   3.059  0.1858  0.0728 -0.4764
 5711TIP3    H117097   5.085   2.673   2.991 -0.1341  1.0671 -0.9789
 5711TIP3    H217098   5.225   2.701   3.044  0.0142 -0.9181 -0.2462
 5712TIP3   OH217099   5.957   6.557   4.229  0.0399  0.4337 -0.3133
 5712TIP3    H117100   5.909   6.476   4.248  2.7978 -0.8153  2.1721
 5712TIP3    H217101   5.974   6.553   4.135  0.1874 -2.0161 -0.2491
 5713TIP3   OH217102   3.454   2.899   2.698  0.7906 -0.4919 -0.2426
 5713TIP3    H117103   3.466   2.804   2.701 -0.7954 -0.7186  2.2512
 5713TIP3    H217104   3.500   2.931   2.775 -0.9555  0.3931  0.4853
 5714TIP3   OH217105   5.741   1.187   3.994 -0.4635 -0.2291  0.2646
 5714TIP3    H117106   5.745   1.119   3.926 -0.4721 -0.1960  0.2310
 5714TIP3    H217107   5.751   1.139   4.076  1.1735 -0.0998  0.1665
 5715TIP3   OH217108   1.262   0.764   1.084  0.1053 -0.0755  0.2802
 5715TIP3    H117109   1.239   0.854   1.061 -1.2474 -0.7211 -1.0653
 5715TIP3    H217110   1.216   0.710   1.019  0.2359 -1.7718  1.5277
 5716TIP3   OH217111   1.645   2.744   4.803  0.8304  0.1205 -0.3488
 5716TIP3    H117112   1.660   2.816   4.864  0.1469  1.3066 -1.5186
 5716TIP3    H217113   1.572   2.695   4.841  0.4302  0.8257 -0.1915
 5717TIP3   OH217114   0.974   5.312   0.274  0.2571  0.7478 -0.5440
 5717TIP3    H117115   0.944   5.363   0.198  1.0105 -0.3364 -1.6039
 5717TIP3    H217116   1.069   5.313   0.267  0.3679  1.2029  0.7959
 5718TIP3   OH217117   1.934   5.066   4.922  0.8260 -0.4117 -0.6249
 5718TIP3    H117118   2.003   5.103   4.866  2.6747 -0.8390  1.2178
 5718TIP3    H217119   1.904   4.988   4.875  1.0232  0.2134 -1.8351
 5719TIP3   OH217120   7.085   1.201   0.036  0.0016 -0.3301 -0.2038
 5719TIP3    H117121   7.085   1.152   0.118 -1.6895  0.9148  0.5992
 5719TIP3    H217122   7.087   1.293   0.063  0.5313  0.0965 -1.6047
 5720TIP3   OH217123   5.679   2.556   2.918  0.4900  0.2530  0.5261
 5720TIP3    H117124   5.610   2.606   2.873 -1.2313 -1.0402  1.6145
 5720TIP3    H217125   5.744   2.539   2.850 -1.2966 -0.3342 -1.1287
 5721TIP3   OH217126   1.931   0.299   4.074 -0.6715 -0.5490  0.4050
 5721TIP3    H117127   1.980   0.320   4.153 -0.9036 -0.0561  0.4227
 5721TIP3    H217128   1.925   0.382   4.027 -1.3732 -0.6287  0.3419
 5722TIP3   OH217129   5.802   5.124   0.450 -0.3172  0.0327 -0.3909
 5722TIP3    H117130   5.835   5.161   0.531 -0.5507  0.8807 -0.6726
 5722TIP3    H217131   5.713   5.097   0.470  0.2695 -1.6143  0.1756
 5723TIP3   OH217132   4.133   5.703   5.359  0.6188 -0.1001 -0.0910
 5723TIP3    H117133   4.042   5.724   5.337  0.5932 -0.7498 -0.6571
 5723TIP3    H217134   4.164   5.651   5.285  1.4883  0.1942  0.0551
 5724TIP3   OH217135   3.345   4.663   2.442 -0.7324  0.2483 -0.1760
 5724TIP3    H117136   3.363   4.621   2.526 -0.3690  0.7722  0.0135
 5724TIP3    H217137   3.351   4.757   2.461 -2.9489  0.4602 -0.2504
 5725TIP3   OH217138   5.837   5.187   1.137 -0.4956 -0.1930  0.0357
 5725TIP3    H117139   5.886   5.159   1.214 -1.7117  0.5922  1.1235
 5725TIP3    H217140   5.897   5.170   1.064  0.1799 -2.2177  0.9733
 5726TIP3   OH217141   6.909   3.276   4.713  0.1499 -0.0974 -0.5169
 5726TIP3    H117142   6.971   3.237   4.775 -0.0721  1.0758  0.4779
 5726TIP3    H217143   6.891   3.363   4.749  0.9666  1.1224 -2.8537
 5727TIP3   OH217144   6.880   3.282   5.439  0.6038  1.0817 -0.0903
 5727TIP3    H117145   6.807   3.323   5.392  1.1455  0.1047 -1.8809
 5727TIP3    H217146   6.840   3.243   5.517 -0.4578  2.1243 -0.0925
 5728TIP3   OH217147   2.819   5.265   5.439 -0.2788 -0.2788  0.0980
 5728TIP3    H117148   2.762   5.321   5.387  2.4598  0.8474 -1.8860
 5728TIP3    H217149   2.850   5.321   5.510  0.2302 -0.1524 -0.2235
 5729TIP3   OH217150   3.194   1.282   0.063 -0.0839 -0.0025  0.3566
 5729TIP3    H117151   3.182   1.370   0.029  0.7158  0.2654  0.7693
 5729TIP3    H217152   3.282   1.281   0.099 -0.0880 -0.9686  0.3655
 5730TIP3   OH217153   3.900   6.763   1.390 -0.2831  0.4631  0.0863
 5730TIP3    H117154   3.918   6.790   1.300 -2.3072  2.3315  0.1582
 5730TIP3    H217155   3.940   6.831   1.444 -0.3975  0.1780  0.5390
 5731TIP3   OH217156   1.586   2.571   4.022 -0.1433  0.4086  0.4071
 5731TIP3    H117157   1.571   2.479   4.001 -1.7203  0.6207  0.4246
 5731TIP3    H217158   1.532   2.586   4.100 -1.1971  1.7243 -0.5367
 5732TIP3   OH217159   2.773   0.992   2.788 -0.1333 -0.5686  0.1370
 5732TIP3    H117160   2.695   0.961   2.835 -0.8023 -0.8157 -1.0848
 5732TIP3    H217161   2.759   1.085   2.775 -0.3726 -0.6672 -0.3361
 5733TIP3   OH217162   4.520   2.717   3.521  0.2328  0.2151  0.1830
 5733TIP3    H117163   4.451   2.694   3.584  0.5784 -0.4239  0.3347
 5733TIP3    H217164   4.602   2.694   3.565  0.4581 -0.6352 -0.6463
 5734TIP3   OH217165   5.182   2.485   1.075  0.8586 -0.0058 -0.6367
 5734TIP3    H117166   5.148   2.574   1.066  0.0789 -0.2593 -0.2817
 5734TIP3    H217167   5.104   2.429   1.069  1.0180 -0.5405  1.5517
 5735TIP3   OH217168   2.381   2.699   2.562 -0.0691  0.3924 -0.4699
 5735TIP3    H117169   2.337   2.781   2.539 -0.1653 -0.4423 -3.7530
 5735TIP3    H217170   2.452   2.692   2.498 -0.7138 -2.5604 -0.9975
 5736TIP3   OH217171   2.811   0.712   2.483 -0.0688  0.1445 -0.1778
 5736TIP3    H117172   2.825   0.622   2.454  0.3182 -0.0518  0.5830
 5736TIP3    H217173   2.761   0.704   2.564 -1.7751  0.7058 -1.1187
 5737TIP3   OH217174   0.098   4.829   0.517 -0.1850  0.0282 -0.7316
 5737TIP3    H117175   0.089   4.733   0.512  0.8762 -0.1706  0.5562
 5737TIP3    H217176   0.154   4.843   0.593 -0.1670  1.6838 -1.0284
 5738TIP3   OH217177   2.769   4.168   5.094 -0.4392 -0.0380  0.5737
 5738TIP3    H117178   2.847   4.219   5.115 -1.0192  1.7641 -1.2441
 5738TIP3    H217179   2.789   4.127   5.010 -0.9870 -0.5822  0.7035
 5739TIP3   OH217180   2.656   3.238   5.548 -0.1308  0.4666  0.3112
 5739TIP3    H117181   2.609   3.157   5.528  0.8001 -0.3666  1.3618
 5739TIP3    H217182   2.729   3.239   5.487  0.3276  0.0648  0.8354
 5740TIP3   OH217183   1.430   6.261   1.512  0.2349 -0.0684  0.2340
 5740TIP3    H117184   1.438   6.354   1.532  0.7217 -0.1323  0.3553
 5740TIP3    H217185   1.339   6.250   1.485 -0.2266  0.1784  1.6170
 5741TIP3   OH217186   3.320   3.497   1.648  0.2588 -0.9176  0.0472
 5741TIP3    H117187   3.370   3.529   1.723 -0.6093  0.2503  0.1648
 5741TIP3    H217188   3.353   3.547   1.573  0.1966 -1.1073 -0.1087
 5742TIP3   OH217189   0.334   4.121   1.972  0.0820 -0.7723  0.4296
 5742TIP3    H117190   0.245   4.146   1.995  0.8642  1.7798  0.9913
 5742TIP3    H217191   0.383   4.130   2.053  0.9976 -1.3860 -0.0443
 5743TIP3   OH217192   6.141   3.293   0.879  0.1281 -0.1008 -0.1800
 5743TIP3    H117193   6.219   3.238   0.875 -0.0917 -0.4898  0.7532
 5743TIP3    H217194   6.097   3.268   0.960 -0.1494  1.2359  0.1108
 5744TIP3   OH217195   6.354   1.485   1.871 -0.4542  0.6046  0.1720
 5744TIP3    H117196   6.431   1.436   1.904 -0.1839  0.6220 -0.4306
 5744TIP3    H217197   6.322   1.531   1.948 -0.5104 -0.2558  0.6822
 5745TIP3   OH217198   3.400   5.271   1.178  0.0637  0.2095  0.0021
 5745TIP3    H117199   3.344   5.288   1.254 -3.1497 -1.9898 -1.6613
 5745TIP3    H217200   3.440   5.186   1.196  1.8586  1.1120  0.5259
 5746TIP3   OH217201   2.096   2.892   2.025 -0.3162 -0.0867  0.4563
 5746TIP3    H117202   2.071   2.984   2.023  0.5516  0.1416 -0.7618
 5746TIP3    H217203   2.181   2.889   1.980  0.1233 -1.3423  1.3039
 5747TIP3   OH217204   3.755   3.332   2.097  0.0425 -0.3982  0.3412
 5747TIP3    H117205   3.746   3.242   2.067 -2.2080  0.6424 -2.5870
 5747TIP3    H217206   3.815   3.372   2.034  0.9448  0.2235  1.5501
 5748TIP3   OH217207   2.445   2.233   0.652  0.4085 -0.5402 -0.2200
 5748TIP3    H117208   2.370   2.190   0.610  1.4171 -0.3314 -2.3810
 5748TIP3    H217209   2.423   2.327   0.647 -0.7382 -0.5880  2.3940
 5749TIP3   OH217210   2.506   1.336   0.516  0.3098 -0.5337 -0.2062
 5749TIP3    H117211   2.542   1.262   0.566 -0.1479 -0.5527  0.0930
 5749TIP3    H217212   2.583   1.388   0.494  0.5360 -0.5917  0.4106
 5750TIP3   OH217213   0.326   5.928   0.371  0.1828  0.4538  0.4676
 5750TIP3    H117214   0.303   5.861   0.307  1.8136 -0.6136  0.9471
 5750TIP3    H217215   0.268   5.911   0.446  0.7036 -0.5568  0.6555
 5751TIP3   OH217216   6.932   0.337   5.486  0.1276  0.1713 -0.0669
 5751TIP3    H117217   6.907   0.269   5.549 -1.3812 -0.2474 -1.0504
 5751TIP3    H217218   6.979   0.289   5.417 -2.5274 -0.3227 -1.7007
 5752TIP3   OH217219   4.262   6.541   2.964  0.1497  0.4314 -0.1678
 5752TIP3    H117220   4.233   6.577   2.880 -0.7790  1.2384  0.4912
 5752TIP3    H217221   4.329   6.603   2.995  0.3622  0.2296 -0.2166
 5753TIP3   OH217222   1.146   3.682   2.403  0.2521 -0.2077  0.1225
 5753TIP3    H117223   1.205   3.723   2.466 -0.8491 -1.2829  1.9324
 5753TIP3    H217224   1.202   3.623   2.352  1.2264  0.9720 -0.2324
 5754TIP3   OH217225   4.019   3.060   2.939 -0.2190  0.0726  0.1388
 5754TIP3    H117226   4.040   3.023   2.853 -0.1777 -0.8424  0.5376
 5754TIP3    H217227   4.090   3.123   2.955  0.9153 -1.2209  0.3873
 5755TIP3   OH217228   4.477   3.108   5.534 -0.3408  0.2573  0.3220
 5755TIP3    H117229   4.553   3.126   5.590  0.2078  0.2660 -0.4079
 5755TIP3    H217230   4.416   3.178   5.554 -0.2823  0.0919  1.1317
 5756TIP3   OH217231   5.568   6.204   3.167 -0.2424 -0.4604 -0.4215
 5756TIP3    H117232   5.623   6.276   3.137  1.3283 -1.0524  0.8925
 5756TIP3    H217233   5.551   6.225   3.259  0.4982 -1.8937  0.0612
 5757TIP3   OH217234   4.265   5.549   0.546  0.0598  0.0386  0.1876
 5757TIP3    H117235   4.258   5.527   0.639  0.2112  0.0113  0.1936
 5757TIP3    H217236   4.180   5.584   0.523  0.5340  1.6355  0.7598
 5758TIP3   OH217237   6.795   1.707   3.181  0.0794 -0.7758 -0.2187
 5758TIP3    H117238   6.839   1.649   3.119 -0.6395 -1.7835  0.1887
 5758TIP3    H217239   6.708   1.722   3.144  0.1726 -0.1583 -0.1958
 5759TIP3   OH217240   5.061   1.959   4.873 -0.1927 -0.2059  0.3176
 5759TIP3    H117241   5.020   1.912   4.945  0.5078 -1.0607  0.1603
 5759TIP3    H217242   5.146   1.919   4.862 -0.7284 -0.9029 -1.7664
 5760TIP3   OH217243   5.264   1.839   3.619 -0.3064 -0.0261  0.1913
 5760TIP3    H117244   5.212   1.866   3.544 -1.4636 -0.6837  0.7115
 5760TIP3    H217245   5.261   1.743   3.617  2.6183 -0.1791 -0.8970
 5761TIP3   OH217246   2.321   1.382   2.228  0.4542  0.2265  0.1388
 5761TIP3    H117247   2.380   1.338   2.290 -2.5776 -1.0941  2.3248
 5761TIP3    H217248   2.290   1.313   2.171 -1.9295 -0.0085  1.5858
 5762TIP3   OH217249   6.506   5.945   5.792 -0.0856  0.3279  0.1789
 5762TIP3    H117250   6.521   6.007   5.864 -0.2753  0.3110  0.2319
 5762TIP3    H217251   6.454   5.875   5.831  3.3129 -1.9199  1.2309
 5763TIP3   OH217252   0.898   3.109   0.077 -0.4935 -0.0871 -0.9143
 5763TIP3    H117253   0.906   3.029   0.024 -0.5300  0.8934 -2.4846
 5763TIP3    H217254   0.808   3.106   0.109 -0.1377 -1.2485  0.0646
 5764TIP3   OH217255   0.086   0.946   0.915 -0.0739  0.1188 -0.2929
 5764TIP3    H117256   0.179   0.924   0.911 -0.1140  0.1463 -2.1259
 5764TIP3    H217257   0.084   1.039   0.939  0.4207  0.3602 -1.1410
 5765TIP3   OH217258   5.570   3.270   2.203 -0.0968  0.1499  0.0167
 5765TIP3    H117259   5.644   3.315   2.162 -0.3352  0.3623 -0.1815
 5765TIP3    H217260   5.605   3.237   2.286  0.8591 -1.6986 -1.0442
 5766TIP3   OH217261   0.329   2.631   4.713  0.0100 -0.3032  0.5926
 5766TIP3    H117262   0.383   2.553   4.706 -0.1678 -0.5028  1.3069
 5766TIP3    H217263   0.281   2.635   4.630  0.9613 -0.2290  0.0333
 5767TIP3   OH217264   0.664   0.340   2.841  0.0241  0.1554 -0.5946
 5767TIP3    H117265   0.642   0.272   2.778  0.3117  0.2517 -0.8038
 5767TIP3    H217266   0.594   0.404   2.833 -1.4842 -1.1568  1.2016
 5768TIP3   OH217267   6.069   6.657   0.962  0.4809 -0.3552  0.3213
 5768TIP3    H117268   6.113   6.656   1.048  0.7063 -0.5791  0.2059
 5768TIP3    H217269   6.140   6.643   0.899  0.4969  1.0508  0.0138
 5769TIP3   OH217270   5.348   2.976   2.908 -0.1178 -0.1435  0.4148
 5769TIP3    H117271   5.370   2.981   2.815 -1.2339  1.3734  0.1973
 5769TIP3    H217272   5.313   2.887   2.919  0.6491 -0.5762 -0.4526
 5770TIP3   OH217273   2.007   0.161   3.814 -0.0153  0.0091 -0.3215
 5770TIP3    H117274   2.027   0.136   3.905  0.6458 -1.6725 -0.8771
 5770TIP3    H217275   2.058   0.241   3.799 -0.6674  0.6949  0.9709
 5771TIP3   OH217276   4.950   0.296   1.861 -0.1198 -0.6340 -0.0152
 5771TIP3    H117277   5.013   0.364   1.886  1.6427 -1.5225 -1.7437
 5771TIP3    H217278   4.909   0.329   1.781 -1.7836 -0.1553  0.9857
 5772TIP3   OH217279   4.902   2.015   0.651  0.8083  0.2360 -0.3592
 5772TIP3    H117280   4.816   1.975   0.639  0.3086  0.7304  1.3573
 5772TIP3    H217281   4.904   2.087   0.588  0.0834  0.0388 -0.6221
 5773TIP3   OH217282   2.975   5.894   1.047  0.3999  0.7603 -0.4135
 5773TIP3    H117283   2.997   5.987   1.041  2.1733  0.4318  0.4307
 5773TIP3    H217284   3.017   5.865   1.128 -2.1943 -0.2622  0.6557
 5774TIP3   OH217285   6.623   6.159   2.687  0.6457  0.8312 -0.5545
 5774TIP3    H117286   6.652   6.099   2.619  1.1658  0.2270  0.1827
 5774TIP3    H217287   6.528   6.144   2.693  0.9046 -0.6301  0.2700
 5775TIP3   OH217288   6.146   6.675   5.147  0.3157 -0.0181 -0.1642
 5775TIP3    H117289   6.188   6.632   5.073  0.6305 -0.0276  0.0222
 5775TIP3    H217290   6.160   6.769   5.132 -3.0705  0.3436 -2.2916
 5776TIP3   OH217291   4.466   3.896   5.049  0.2386 -0.5036  0.3252
 5776TIP3    H117292   4.521   3.876   4.973  0.0850 -1.0747  0.3612
 5776TIP3    H217293   4.527   3.931   5.114  0.0250  2.4001 -0.9151
 5777TIP3   OH217294   5.209   3.948   1.039  0.1896  0.4626  0.2929
 5777TIP3    H117295   5.130   3.903   1.009 -0.4430  0.8129  1.3431
 5777TIP3    H217296   5.176   4.013   1.102  1.3623  0.2033  1.2082
 5778TIP3   OH217297   3.834   1.481   5.812  0.0604 -0.4155 -0.6728
 5778TIP3    H117298   3.799   1.498   5.899 -0.4109  1.4292 -1.1869
 5778TIP3    H217299   3.917   1.527   5.809  0.6946 -1.5233 -0.7975
 5779TIP3   OH217300   6.363   2.586   3.391 -0.0742 -0.2007  0.5196
 5779TIP3    H117301   6.432   2.610   3.329 -0.3986  0.3145  0.3562
 5779TIP3    H217302   6.350   2.492   3.377  0.8218 -0.3758  0.7844
 5780TIP3   OH217303   6.584   0.425   1.592  0.1317  0.2907  0.0472
 5780TIP3    H117304   6.616   0.434   1.502  1.6149 -0.5279  0.4620
 5780TIP3    H217305   6.650   0.467   1.646 -0.3003 -0.0121  0.8336
 5781TIP3   OH217306   2.527   4.539   0.506 -1.1998 -0.7252  0.0768
 5781TIP3    H117307   2.594   4.573   0.446 -2.9163  0.2030 -1.4231
 5781TIP3    H217308   2.502   4.614   0.559  1.7798 -1.9554  3.6888
 5782TIP3   OH217309   2.663   0.574   1.918 -0.1970 -0.0890  0.6980
 5782TIP3    H117310   2.723   0.636   1.959  1.1502 -0.4954 -0.5888
 5782TIP3    H217311   2.592   0.629   1.883  0.8514  0.7335 -0.2073
 5783TIP3   OH217312   5.121   2.924   5.792 -0.1597 -0.1194  0.2707
 5783TIP3    H117313   5.117   2.857   5.723  0.4001 -0.4678  0.5690
 5783TIP3    H217314   5.143   2.875   5.871 -0.6302  0.3037  0.6632
 5784TIP3   OH217315   2.460   6.617   2.952 -0.8906 -0.0468  0.2083
 5784TIP3    H117316   2.425   6.529   2.937 -2.3510  0.3165  1.2569
 5784TIP3    H217317   2.393   6.661   3.005 -0.8809  2.1626 -1.4337
 5785TIP3   OH217318   4.663   0.224   2.585 -0.1333  0.5368  0.0889
 5785TIP3    H117319   4.713   0.240   2.665 -0.9337  2.3899  0.2616
 5785TIP3    H217320   4.726   0.184   2.525  1.1891  1.5035  0.7745
 5786TIP3   OH217321   0.759   2.445   0.771  0.3838  0.4790 -0.2362
 5786TIP3    H117322   0.733   2.517   0.829  1.8162 -0.7709  2.1319
 5786TIP3    H217323   0.756   2.367   0.827  2.7247 -0.6812 -1.5630
 5787TIP3   OH217324   3.364   1.896   5.695 -0.0421  0.6204  0.3599
 5787TIP3    H117325   3.336   1.846   5.618 -1.9933  0.6108  1.0271
 5787TIP3    H217326   3.436   1.950   5.663 -0.0240 -0.2530 -1.1730
 5788TIP3   OH217327   3.372   1.942   4.119 -0.0396 -0.0820 -0.2334
 5788TIP3    H117328   3.301   2.006   4.120  1.3485  1.5033 -0.2493
 5788TIP3    H217329   3.392   1.930   4.026 -1.7889 -2.3623 -0.4285
 5789TIP3   OH217330   2.646   5.975   4.002 -0.1323 -0.1038  0.5580
 5789TIP3    H117331   2.658   5.882   4.021  1.8621 -0.1770 -0.7629
 5789TIP3    H217332   2.594   6.008   4.076 -0.5135 -2.1453  1.2751
 5790TIP3   OH217333   4.468   0.579   3.654 -0.0173  0.3225  0.1702
 5790TIP3    H117334   4.466   0.603   3.746  0.0496  2.2225 -0.2750
 5790TIP3    H217335   4.545   0.523   3.645  2.2115  3.0431  0.6978
 5791TIP3   OH217336   6.133   1.051   0.071  0.1225  0.0291 -0.2786
 5791TIP3    H117337   6.054   1.101   0.053  1.5111  1.9758 -1.2295
 5791TIP3    H217338   6.165   1.024  -0.015  0.8329 -0.1828  0.0413
 5792TIP3   OH217339   3.232   0.052   0.275  0.2554 -0.3313 -0.1685
 5792TIP3    H117340   3.259  -0.037   0.295 -1.4887 -0.7284  0.5845
 5792TIP3    H217341   3.137   0.049   0.274  0.1464  0.8751 -3.2569
 5793TIP3   OH217342   5.854   5.126   5.513 -0.2424 -0.2249  0.0156
 5793TIP3    H117343   5.818   5.214   5.503 -1.8797 -0.8312  0.2450
 5793TIP3    H217344   5.933   5.126   5.460 -1.9221  0.4368 -2.6770
 5794TIP3   OH217345   2.010  -0.004   3.602  0.0011  0.1441 -0.3634
 5794TIP3    H117346   2.059   0.047   3.537 -1.6191  0.1409 -1.6615
 5794TIP3    H217347   1.988   0.059   3.671  0.0525  0.6396 -0.7913
 5795TIP3   OH217348   7.159   3.736   0.402 -0.2321 -0.1973 -0.3217
 5795TIP3    H117349   7.178   3.718   0.310 -0.3407  2.1970 -0.8792
 5795TIP3    H217350   7.075   3.695   0.418 -1.8149  1.9959 -2.2850
 5796TIP3   OH217351   5.340   5.850   0.303  0.1263  0.0259  0.4234
 5796TIP3    H117352   5.246   5.839   0.313  0.1822 -0.9256  0.0635
 5796TIP3    H217353   5.351   5.895   0.219 -0.0559  1.5937  1.2105
 5797TIP3   OH217354   6.480   0.098   0.222  0.4134  0.0002 -0.0145
 5797TIP3    H117355   6.389   0.104   0.195  0.2980  1.3648  0.6242
 5797TIP3    H217356   6.509   0.012   0.189 -0.8071 -0.0444 -1.0424
 5798TIP3   OH217357   5.805   3.022   3.268 -0.1911 -0.1516  0.0113
 5798TIP3    H117358   5.728   2.970   3.288  0.2578 -0.4463  1.0964
 5798TIP3    H217359   5.874   2.985   3.324  1.1840 -0.9949 -2.1172
 5799TIP3   OH217360   5.142   5.277   4.621  0.6762 -0.1483  0.2481
 5799TIP3    H117361   5.167   5.193   4.658 -0.4483 -1.0546 -0.9657
 5799TIP3    H217362   5.225   5.325   4.612  1.1577 -0.4949  2.3484
 5800TIP3   OH217363   1.251   5.383   2.755 -0.3832 -0.4436  0.1751
 5800TIP3    H117364   1.254   5.426   2.840  0.4859 -1.1449  0.5122
 5800TIP3    H217365   1.161   5.354   2.745 -0.6196  0.1369  0.6016
 5801TIP3   OH217366   3.612   5.508   1.199 -0.4097  0.0676 -0.2722
 5801TIP3    H117367   3.611   5.475   1.109  0.0979  1.2414 -0.7254
 5801TIP3    H217368   3.584   5.433   1.252 -2.2127 -0.2076 -1.5303
 5802TIP3   OH217369   1.952   0.325   1.518 -0.1303  0.3054 -0.3892
 5802TIP3    H117370   2.008   0.328   1.596 -1.0681  0.9432  0.2796
 5802TIP3    H217371   1.970   0.408   1.474  1.0038 -0.3958 -1.3189
 5803TIP3   OH217372   3.087   2.554   3.922 -0.2783 -0.5470  0.7558
 5803TIP3    H117373   3.129   2.619   3.867  2.6429 -1.3296  1.8855
 5803TIP3    H217374   3.041   2.497   3.861 -0.7755  1.0818 -0.4458
 5804TIP3   OH217375   4.198   6.667   4.088  0.3759 -0.2899  0.4366
 5804TIP3    H117376   4.248   6.689   4.009 -0.4533  0.1536  0.0186
 5804TIP3    H217377   4.132   6.605   4.058  0.7587 -0.9913  1.0160
 5805TIP3   OH217378   6.349   0.735   0.128 -0.6562 -0.2452 -0.2599
 5805TIP3    H117379   6.362   0.766   0.217 -0.2206  1.5169 -0.8965
 5805TIP3    H217380   6.294   0.657   0.137 -3.0015  1.4655  1.3639
 5806TIP3   OH217381   4.750   3.633   3.170  0.1359 -0.0730 -0.1040
 5806TIP3    H117382   4.666   3.605   3.207  0.9638  0.0673  2.0470
 5806TIP3    H217383   4.805   3.651   3.247  1.3211  2.3849 -1.3913
 5807TIP3   OH217384   4.715   6.505   1.499  0.0029 -0.4702 -0.5659
 5807TIP3    H117385   4.798   6.501   1.545  1.8723 -2.2343 -3.7260
 5807TIP3    H217386   4.655   6.451   1.552  1.2670 -0.3886  1.0052
 5808TIP3   OH217387   4.447   0.652   4.444 -0.3829  0.3537  0.0333
 5808TIP3    H117388   4.520   0.617   4.495 -0.1740  0.3450 -0.2752
 5808TIP3    H217389   4.372   0.599   4.472 -0.1537 -0.0507 -0.1080
 5809TIP3   OH217390   2.921   5.958   1.850  0.3093 -0.2929 -0.0830
 5809TIP3    H117391   2.853   5.896   1.823  0.0504 -0.0373 -0.0290
 5809TIP3    H217392   2.927   6.021   1.778  0.7491 -0.5226 -0.2489
 5810TIP3   OH217393   4.851   2.542   2.326 -0.3941 -0.1039  0.0407
 5810TIP3    H117394   4.812   2.474   2.272 -0.5481 -0.5578  0.7167
 5810TIP3    H217395   4.842   2.622   2.274 -0.0677 -0.6160 -0.8234
 5811TIP3   OH217396   1.144   0.725   3.899  0.3589  0.0739 -0.4579
 5811TIP3    H117397   1.086   0.759   3.967  2.3395  1.6629  0.5368
 5811TIP3    H217398   1.211   0.675   3.947  0.9888  0.0354 -1.3569
 5812TIP3   OH217399   1.502   4.482   1.073 -0.2004 -0.3490 -0.5942
 5812TIP3    H117400   1.497   4.485   0.978 -3.7567  0.2942 -0.4964
 5812TIP3    H217401   1.482   4.571   1.102 -2.6469 -1.2489  0.7411
 5813TIP3   OH217402   5.662   0.957   5.562 -0.5455  0.0167 -0.0439
 5813TIP3    H117403   5.576   0.968   5.521 -0.7957 -0.0113  0.4695
 5813TIP3    H217404   5.724   0.978   5.492 -0.9622 -0.2930 -0.5214
 5814TIP3   OH217405   1.034   3.840   5.325 -0.5015 -0.9283  0.0059
 5814TIP3    H117406   1.122   3.847   5.287 -1.2176 -1.0041 -1.7485
 5814TIP3    H217407   1.006   3.931   5.335 -1.3079 -0.8663 -2.1982
 5815TIP3   OH217408   3.647   0.198   0.995  0.0465 -0.2919  0.0262
 5815TIP3    H117409   3.625   0.122   0.941  0.7109 -0.1218 -0.5094
 5815TIP3    H217410   3.575   0.260   0.981  0.0094 -0.4182 -0.3454
 5816TIP3   OH217411   2.506   4.491   4.207  0.4651 -0.4656 -0.1714
 5816TIP3    H117412   2.494   4.508   4.114  0.2070 -0.7130 -0.1850
 5816TIP3    H217413   2.496   4.577   4.249 -0.9209 -0.5704 -0.2257
 5817TIP3   OH217414   6.610   4.727   2.906  0.2174  0.0513  0.2106
 5817TIP3    H117415   6.692   4.777   2.905 -0.9830  2.1234  0.5712
 5817TIP3    H217416   6.603   4.692   2.817  1.6099 -0.3808  0.2472
 5818TIP3   OH217417   4.367   5.354   4.039  0.0073 -0.3862  0.4233
 5818TIP3    H117418   4.463   5.358   4.040  0.1694 -2.6867  1.0149
 5818TIP3    H217419   4.343   5.326   4.127 -1.2372  0.1863  0.2917
 5819TIP3   OH217420   3.950   0.521   2.466 -0.0647 -0.4348  0.0972
 5819TIP3    H117421   3.860   0.502   2.493 -0.0463 -0.2943  0.2554
 5819TIP3    H217422   3.964   0.463   2.391 -0.8464  0.7103 -0.9804
 5820TIP3   OH217423   3.371   1.331   2.060 -0.6214  0.0844  0.1865
 5820TIP3    H117424   3.439   1.399   2.059 -0.8258  0.2881 -0.1534
 5820TIP3    H217425   3.289   1.379   2.050 -0.5979 -0.3794 -3.5738
 5821TIP3   OH217426   0.636   5.986   2.539 -0.1561  0.3923 -0.0528
 5821TIP3    H117427   0.661   5.964   2.449  0.3484  0.1519  0.1405
 5821TIP3    H217428   0.648   5.905   2.588 -0.0705  0.6155  0.3030
 5822TIP3   OH217429   4.914   6.473   2.083 -0.1915 -0.1823 -0.1043
 5822TIP3    H117430   4.938   6.491   1.992 -0.6833  1.0524 -0.0052
 5822TIP3    H217431   4.820   6.455   2.080 -0.5845  1.5461  0.3386
 5823TIP3   OH217432   0.329   2.011   4.233  0.5563 -0.3289  0.2444
 5823TIP3    H117433   0.406   2.055   4.269 -1.1285  1.7788  1.5459
 5823TIP3    H217434   0.267   2.009   4.305 -0.5274 -2.3235 -0.6532
 5824TIP3   OH217435   2.907   0.817   0.039  0.5218 -0.0200 -0.2950
 5824TIP3    H117436   2.824   0.800   0.082  1.1449 -0.3363  0.8208
 5824TIP3    H217437   2.891   0.896  -0.013 -0.1696  0.5626  0.7714
 5825TIP3   OH217438   4.205   4.025   2.472 -0.2310 -0.2035  0.0972
 5825TIP3    H117439   4.218   3.982   2.557  1.5500 -2.3874 -1.1807
 5825TIP3    H217440   4.251   4.109   2.482 -1.1032  0.1469  1.6356
 5826TIP3   OH217441   5.606   5.055   4.623 -0.2858 -0.7396 -0.0591
 5826TIP3    H117442   5.686   5.108   4.624 -1.2274  0.7047  0.8114
 5826TIP3    H217443   5.634   4.969   4.656  1.0295 -0.4637 -0.3961
 5827TIP3   OH217444   3.546   0.057   4.917 -0.3497  0.1630 -0.5612
 5827TIP3    H117445   3.618   0.109   4.880 -0.0116  0.3916  0.3833
 5827TIP3    H217446   3.502   0.117   4.976  1.3029 -1.1257  2.1578
 5828TIP3   OH217447   0.645   1.218   3.645  0.4053  0.3160 -0.0100
 5828TIP3    H117448   0.582   1.147   3.630 -0.2657  0.8746  0.1024
 5828TIP3    H217449   0.627   1.247   3.734  1.2420  0.0797  0.2437
 5829TIP3   OH217450   4.042   1.948   0.951 -0.4350 -0.4994 -0.2642
 5829TIP3    H117451   4.029   2.041   0.968 -0.1712 -0.6112  0.5651
 5829TIP3    H217452   4.087   1.945   0.867 -0.4352  0.1209 -0.2901
 5830TIP3   OH217453   5.442   1.797   1.296 -0.0154  0.7194  0.3512
 5830TIP3    H117454   5.501   1.848   1.241  0.8566  0.9268  1.4353
 5830TIP3    H217455   5.469   1.706   1.285 -2.4385  0.2043 -2.6436
 5831TIP3   OH217456   5.607   2.906   5.455 -0.7343  0.2903 -0.2621
 5831TIP3    H117457   5.688   2.870   5.493 -1.4366 -0.9058  0.1372
 5831TIP3    H217458   5.627   2.915   5.361 -0.2451 -0.3250 -0.2251
 5832TIP3   OH217459   5.537   2.074   5.715 -0.0614 -0.1673  0.5223
 5832TIP3    H117460   5.510   1.984   5.697 -0.6759 -0.4069  2.3806
 5832TIP3    H217461   5.554   2.075   5.810  0.6538  1.4973  0.4118
 5833TIP3   OH217462   3.680   2.317   1.469  0.2801 -0.5016  0.6703
 5833TIP3    H117463   3.646   2.388   1.414  1.1335 -0.6505 -0.0742
 5833TIP3    H217464   3.721   2.256   1.407  0.5201 -1.1017  1.4009
 5834TIP3   OH217465   2.542   5.149   4.849  0.3466  0.1738  0.4070
 5834TIP3    H117466   2.476   5.218   4.852 -0.1576 -0.2446 -0.6120
 5834TIP3    H217467   2.541   5.119   4.758  2.1826  0.3848  0.2884
 5835TIP3   OH217468   0.301   2.500   4.231 -0.0725  0.0176 -0.0205
 5835TIP3    H117469   0.331   2.429   4.175 -0.9087  0.9771 -1.7878
 5835TIP3    H217470   0.250   2.457   4.299 -2.2996 -1.0480 -2.1852
 5836TIP3   OH217471   3.392   3.088   0.831  0.0848  0.2783  0.1309
 5836TIP3    H117472   3.416   3.092   0.924  1.8320  0.0041 -0.2732
 5836TIP3    H217473   3.431   3.167   0.793 -0.8302  0.5192 -0.3467
 5837TIP3   OH217474   7.044   3.351   3.522 -0.2146  0.0658 -0.0810
 5837TIP3    H117475   7.035   3.294   3.446 -2.5408  1.7309 -1.1982
 5837TIP3    H217476   7.071   3.435   3.486  2.2057  0.0211  1.4135
 5838TIP3   OH217477   4.360   4.535   1.549 -0.0598 -0.6505 -0.2901
 5838TIP3    H117478   4.340   4.503   1.461  0.1811  0.8783 -0.9224
 5838TIP3    H217479   4.398   4.621   1.536 -0.6373 -0.0987  1.3442
 5839TIP3   OH217480   0.595   5.412   3.978 -0.1638  0.1671 -0.4793
 5839TIP3    H117481   0.627   5.450   3.896  0.1174 -0.0709 -0.4806
 5839TIP3    H217482   0.663   5.434   4.042 -0.1045 -0.1491 -0.4351
 5840TIP3   OH217483   6.722   3.495   1.119 -0.1718  0.7601  0.5724
 5840TIP3    H117484   6.656   3.534   1.175 -2.3183 -0.1632 -1.1791
 5840TIP3    H217485   6.704   3.401   1.122  0.6029  0.5601 -0.5151
 5841TIP3   OH217486   6.557   1.314   1.542 -0.9388  0.0116 -0.5924
 5841TIP3    H117487   6.489   1.246   1.545 -2.8613  1.8106 -0.7749
 5841TIP3    H217488   6.510   1.395   1.563  0.9611  1.5025 -1.7895
 5842TIP3   OH217489   6.559   3.023   1.878 -0.1145 -0.4306  0.1710
 5842TIP3    H117490   6.522   3.061   1.957  1.2310 -1.0180  1.1210
 5842TIP3    H217491   6.520   2.935   1.873 -1.3314  0.1214 -0.6721
 5843TIP3   OH217492   6.890   6.300   4.483  0.0154 -0.7833 -0.1930
 5843TIP3    H117493   6.982   6.278   4.468  0.4068  0.1740  0.6727
 5843TIP3    H217494   6.878   6.385   4.441  0.1704  0.1904  1.6042
 5844TIP3   OH217495   5.957   4.836   1.559  0.2583 -0.1429  0.4114
 5844TIP3    H117496   5.974   4.760   1.503  0.0801 -1.1606  1.6897
 5844TIP3    H217497   5.890   4.806   1.621 -0.1350  1.2025  0.6713
 5845TIP3   OH217498   4.568   5.621   4.983 -0.7780  0.2068  0.3386
 5845TIP3    H117499   4.588   5.713   4.967  0.2357  0.6478  3.4901
 5845TIP3    H217500   4.514   5.621   5.061  1.2052 -1.9114  1.8674
 5846TIP3   OH217501   2.830   2.668   1.925  0.0357 -0.2115 -0.2178
 5846TIP3    H117502   2.797   2.589   1.882  1.2415 -0.9638  0.1967
 5846TIP3    H217503   2.761   2.733   1.912 -0.9612 -1.3190 -0.6009
 5847TIP3   OH217504   6.489   2.805   1.375 -0.3398 -0.3059 -0.2186
 5847TIP3    H117505   6.495   2.847   1.461 -1.3546 -0.6140  0.0149
 5847TIP3    H217506   6.465   2.714   1.395 -0.3502 -0.4358 -0.8144
 5848TIP3   OH217507   0.718   0.417   3.393 -0.1726 -0.5860 -0.7148
 5848TIP3    H117508   0.695   0.400   3.302 -0.0075  0.6137 -0.9978
 5848TIP3    H217509   0.800   0.466   3.388  1.1698 -2.5929  0.1862
 5849TIP3   OH217510  -0.006   2.167   3.827 -0.4677  0.1480  0.6382
 5849TIP3    H117511   0.015   2.249   3.782 -1.7561 -0.0207 -0.3264
 5849TIP3    H217512   0.052   2.166   3.903  1.5259  0.6249 -0.8010
 5850TIP3   OH217513   5.940   2.425   2.306 -0.2427 -0.2459  0.9187
 5850TIP3    H117514   5.971   2.393   2.221  0.3321 -1.5094  1.5674
 5850TIP3    H217515   5.845   2.428   2.297 -0.1193  1.1184 -0.2489
 5851TIP3   OH217516   6.249   2.044   5.773 -0.1655  0.0586  0.5917
 5851TIP3    H117517   6.310   2.021   5.703 -0.3420  3.1451 -0.7065
 5851TIP3    H217518   6.303   2.048   5.852  0.6064 -0.5815  0.1109
 5852TIP3   OH217519   1.622   0.731   3.803  0.1214  0.1333 -0.7361
 5852TIP3    H117520   1.571   0.650   3.811 -1.5223  1.2206  0.2505
 5852TIP3    H217521   1.638   0.740   3.709 -1.5528 -0.2316 -1.0853
 5853TIP3   OH217522   1.369   5.542   1.001  0.1835 -0.2822 -0.3623
 5853TIP3    H117523   1.397   5.563   0.912  2.9156 -1.6344  0.0772
 5853TIP3    H217524   1.437   5.579   1.057  0.6752 -2.8716  0.8878
 5854TIP3   OH217525   3.725   1.048   5.743 -0.1614  0.2803 -0.5256
 5854TIP3    H117526   3.736   1.116   5.677 -1.4680  0.3262 -0.7219
 5854TIP3    H217527   3.636   1.061   5.776  0.3227  0.0108  0.9674
 5855TIP3   OH217528   5.660   0.701   4.699  0.4027 -0.0591 -0.1253
 5855TIP3    H117529   5.584   0.649   4.674  1.1733 -1.2900  0.0004
 5855TIP3    H217530   5.722   0.638   4.733  1.4086  0.9468 -0.0236
 5856TIP3   OH217531   2.221   5.805   3.302  0.3970  0.5550 -0.3495
 5856TIP3    H117532   2.156   5.758   3.354  0.0108  1.1989 -0.2403
 5856TIP3    H217533   2.299   5.806   3.356  0.1041  0.9064  0.0763
 5857TIP3   OH217534   2.746   1.892   4.047 -0.0147 -0.0281  0.2309
 5857TIP3    H117535   2.820   1.949   4.025 -1.2264  1.0096 -1.4181
 5857TIP3    H217536   2.705   1.935   4.123  0.5119 -0.0822  0.5493
 5858TIP3   OH217537   0.229   6.101   1.902 -0.3566 -0.0173  0.1019
 5858TIP3    H117538   0.206   6.173   1.961  0.5191 -1.1498  1.9271
 5858TIP3    H217539   0.273   6.037   1.959 -0.3130 -1.5974 -1.6192
 5859TIP3   OH217540   2.276   3.824   1.169 -0.4244  0.1038  0.3631
 5859TIP3    H117541   2.314   3.756   1.114  2.1659  1.2409  0.6303
 5859TIP3    H217542   2.255   3.895   1.108 -1.2601 -0.1409  0.3531
 5860TIP3   OH217543   1.837   4.815   1.362  0.0566  0.3297 -0.3271
 5860TIP3    H117544   1.878   4.730   1.343 -2.8833 -1.6169  1.1589
 5860TIP3    H217545   1.811   4.848   1.276 -1.5737 -1.9345 -0.8031
 5861TIP3   OH217546   2.504   3.103   2.767  0.3350 -0.2581  0.2997
 5861TIP3    H117547   2.535   3.116   2.677  2.6219 -1.8723  0.7718
 5861TIP3    H217548   2.495   3.008   2.776 -0.8561 -0.0638  1.5015
 5862TIP3   OH217549   3.584   1.986   4.329 -0.7418 -0.4186  0.0804
 5862TIP3    H117550   3.550   1.982   4.240  0.7263 -1.8515 -0.4736
 5862TIP3    H217551   3.645   2.060   4.329 -0.3231 -0.7622 -0.2710
 5863TIP3   OH217552   2.541   5.086   4.555 -0.4533 -0.2718  0.0285
 5863TIP3    H117553   2.486   5.108   4.480 -0.6091  0.2968  0.3095
 5863TIP3    H217554   2.536   4.990   4.561  0.5796 -0.4608 -1.4715
 5864TIP3   OH217555   3.819   3.952   3.262  0.1092 -0.1583 -0.0993
 5864TIP3    H117556   3.829   3.874   3.206 -2.4413  0.2148 -1.1976
 5864TIP3    H217557   3.891   3.945   3.325  0.6633 -2.7627 -0.8857
 5865TIP3   OH217558   7.157   2.103   4.949 -0.3335  0.1441 -0.5174
 5865TIP3    H117559   7.153   2.192   4.982 -0.1110 -0.6666  1.9056
 5865TIP3    H217560   7.079   2.060   4.985  0.4209 -1.0550 -0.2361
 5866TIP3   OH217561   2.314   5.817   5.889 -0.4782 -0.3290 -0.0646
 5866TIP3    H117562   2.340   5.908   5.902  0.0415 -0.3075 -1.1547
 5866TIP3    H217563   2.394   5.772   5.863 -0.5518 -1.2936  1.3082
 5867TIP3   OH217564   6.394   5.237   4.600 -0.5298  0.1588 -0.2373
 5867TIP3    H117565   6.315   5.226   4.654 -0.8043  1.6124 -0.2782
 5867TIP3    H217566   6.444   5.305   4.646 -0.5545  1.1026 -1.5548
 5868TIP3   OH217567   1.079   0.101   0.353  0.2979 -0.2498 -0.2302
 5868TIP3    H117568   1.132   0.135   0.425 -0.3785  0.9863 -0.2835
 5868TIP3    H217569   1.042   0.020   0.387  1.9293 -0.9742 -0.0833
 5869TIP3   OH217570   2.005   3.544   4.074  0.1444 -0.0488 -0.2004
 5869TIP3    H117571   1.950   3.493   4.134  0.0009  0.5642  0.2013
 5869TIP3    H217572   2.016   3.487   3.997 -0.6630 -0.3718 -0.0923
 5870TIP3   OH217573   1.435   6.490   3.016  0.8129  0.2201 -0.2386
 5870TIP3    H117574   1.413   6.448   3.100  0.2078  1.8254  0.4491
 5870TIP3    H217575   1.352   6.492   2.968  1.5101 -2.3538 -1.7198
 5871TIP3   OH217576   2.927   2.795   0.093  0.3127  0.2874 -0.1966
 5871TIP3    H117577   2.989   2.805   0.166  2.1924  0.4914 -1.7304
 5871TIP3    H217578   2.911   2.701   0.088  2.3559 -0.0809 -1.1436
 5872TIP3   OH217579   1.295   1.032   0.736  0.0080 -0.1733  0.5363
 5872TIP3    H117580   1.357   0.970   0.773 -1.2567 -1.3019  0.8696
 5872TIP3    H217581   1.291   1.103   0.799 -0.4375 -1.0053  1.4741
 5873TIP3   OH217582   5.663   5.038   3.571 -0.2078 -0.0853  0.0016
 5873TIP3    H117583   5.611   5.075   3.642 -1.5927 -0.3099 -0.8756
 5873TIP3    H217584   5.640   5.091   3.495  2.6353  1.3774  0.0096
 5874TIP3   OH217585   4.401   2.644   1.793 -0.0089 -0.5822  0.2269
 5874TIP3    H117586   4.474   2.657   1.732 -0.9876  2.1549 -0.4636
 5874TIP3    H217587   4.432   2.681   1.876 -0.0535 -0.8893  0.3837
 5875TIP3   OH217588   6.876   0.015   5.079  0.4971  0.2188 -0.6290
 5875TIP3    H117589   6.878   0.105   5.048  2.2823 -0.1971 -1.8522
 5875TIP3    H217590   6.814   0.016   5.152  1.4930  2.6970  0.2703
 5876TIP3   OH217591   0.475   4.309   5.046 -0.1273  0.2328  0.5307
 5876TIP3    H117592   0.450   4.366   4.973 -2.0334 -0.2856  0.7182
 5876TIP3    H217593   0.406   4.321   5.111  0.4123 -0.9099  1.3482
 5877TIP3   OH217594   3.499   0.792   5.724  0.4000 -0.3691 -0.0946
 5877TIP3    H117595   3.536   0.793   5.812 -0.7185  0.2521  0.3959
 5877TIP3    H217596   3.436   0.864   5.724  1.1105  0.3070 -1.7414
 5878TIP3   OH217597   1.745   1.453   5.076 -0.1077  0.2412  0.3045
 5878TIP3    H117598   1.697   1.507   5.014  0.7503 -0.7454 -1.2648
 5878TIP3    H217599   1.680   1.430   5.143 -0.6944  2.4579  0.5839
 5879TIP3   OH217600   5.707   5.877   4.744 -0.6823  0.0110  0.8032
 5879TIP3    H117601   5.767   5.947   4.770  0.6040 -0.4172 -0.8392
 5879TIP3    H217602   5.627   5.922   4.717  0.3948  0.9596 -0.9883
 5880TIP3   OH217603   2.969   5.429   5.626  0.5391 -0.1341 -0.2258
 5880TIP3    H117604   2.968   5.386   5.712  0.1193 -2.5902 -1.3828
 5880TIP3    H217605   3.061   5.435   5.602  0.6298  0.1551  0.1798
 5881TIP3   OH217606   2.371   4.345   5.895  0.3001  0.2308  0.1839
 5881TIP3    H117607   2.356   4.438   5.876 -0.0458  0.2091  0.3584
 5881TIP3    H217608   2.315   4.299   5.833 -0.0740  0.1470  0.5797
 5882TIP3   OH217609   3.937   4.395   2.551  0.0073 -0.1913  0.1849
 5882TIP3    H117610   3.983   4.477   2.567 -2.1006  1.0034  0.5717
 5882TIP3    H217611   3.904   4.403   2.461 -0.2288 -0.5959  0.2320
 5883TIP3   OH217612   1.430   1.085   2.448  0.0786 -0.2518 -0.5075
 5883TIP3    H117613   1.460   1.093   2.357  0.0559 -1.0924 -0.6006
 5883TIP3    H217614   1.356   1.145   2.454  0.9675  0.8927 -0.6371
 5884TIP3   OH217615   0.673   0.530   1.901 -0.3576  0.3265 -0.3665
 5884TIP3    H117616   0.738   0.480   1.951 -1.5101  2.9046  4.2272
 5884TIP3    H217617   0.725   0.587   1.845  1.2616  0.1978  0.9388
 5885TIP3   OH217618   1.162   1.731   4.815  0.1811 -0.6968  0.1289
 5885TIP3    H117619   1.126   1.808   4.770  0.6992 -0.8200 -0.4902
 5885TIP3    H217620   1.095   1.710   4.881  0.3843  0.7718  0.8689
 5886TIP3   OH217621   5.931   6.730   4.727 -0.1691 -0.1713 -0.1887
 5886TIP3    H117622   5.880   6.785   4.668 -0.6210 -0.2181  0.1519
 5886TIP3    H217623   5.975   6.791   4.786  0.0493 -0.1377 -0.3857
 5887TIP3   OH217624   0.112   5.606   0.412  0.0389  0.1929  0.1003
 5887TIP3    H117625   0.172   5.609   0.487 -0.2685 -0.9741  0.4255
 5887TIP3    H217626   0.051   5.535   0.434  0.2213 -0.4888 -1.4679
 5888TIP3   OH217627   6.362   3.393   4.511  0.3223 -0.4445 -0.0421
 5888TIP3    H117628   6.272   3.394   4.546 -1.0189  0.6113 -3.1308
 5888TIP3    H217629   6.371   3.306   4.471 -0.7198  0.5306 -2.6460
 5889TIP3   OH217630   6.865   3.292   4.198 -0.7017 -0.1938 -0.3844
 5889TIP3    H117631   6.913   3.299   4.281 -1.9826 -1.7130  0.5402
 5889TIP3    H217632   6.934   3.287   4.132  0.3623  3.1473  0.2871
 5890TIP3   OH217633   6.807   6.276   0.685 -0.2036  0.3189  0.4207
 5890TIP3    H117634   6.865   6.302   0.756 -1.0202 -0.6451  1.4782
 5890TIP3    H217635   6.853   6.204   0.642  0.8132  1.6274 -0.8020
 5891TIP3   OH217636   6.159   1.573   2.888 -0.2647  0.0343  0.4179
 5891TIP3    H117637   6.136   1.591   2.796  0.0005  3.1524  0.8706
 5891TIP3    H217638   6.078   1.539   2.926 -1.1809  1.1860 -0.4089
 5892TIP3   OH217639   1.633   1.600   3.379 -0.3570 -0.0156 -0.3031
 5892TIP3    H117640   1.598   1.572   3.295  0.4905  0.3463 -0.7901
 5892TIP3    H217641   1.672   1.520   3.417 -0.8766 -0.2117 -0.1801
 5893TIP3   OH217642   6.054   1.116   1.053  0.3154 -0.3593 -0.5830
 5893TIP3    H117643   5.987   1.182   1.036 -1.6068 -2.1804 -0.4989
 5893TIP3    H217644   6.135   1.156   1.022 -0.7236  2.0294 -0.4843
 5894TIP3   OH217645   0.796   4.855   2.545 -0.0415 -0.7463 -0.3297
 5894TIP3    H117646   0.720   4.914   2.544  0.7948  0.3834  0.5889
 5894TIP3    H217647   0.858   4.897   2.604  0.6561 -2.4822  0.2337
 5895TIP3   OH217648   1.938   0.142   2.914  1.1276 -0.1921 -0.2343
 5895TIP3    H117649   1.973   0.231   2.927 -1.2551  0.7640  0.0486
 5895TIP3    H217650   1.846   0.149   2.938  0.8721 -2.7713 -0.2504
 5896TIP3   OH217651   3.065   5.926   3.158 -0.0533 -0.2886  0.2013
 5896TIP3    H117652   3.124   5.967   3.221  0.6835 -0.3544 -0.4450
 5896TIP3    H217653   2.989   5.985   3.155 -0.0967 -0.2779  1.1288
 5897TIP3   OH217654   4.934   2.291   1.112 -0.1242  0.0382  0.1293
 5897TIP3    H117655   4.888   2.283   1.196 -0.8347  1.8651 -0.0379
 5897TIP3    H217656   4.876   2.248   1.049  0.7543 -1.9908  0.6445
 5898TIP3   OH217657   6.019   3.577   4.397  0.3474 -0.3722 -0.1459
 5898TIP3    H117658   5.952   3.559   4.463 -1.8425  0.8628 -1.9136
 5898TIP3    H217659   6.015   3.502   4.338 -0.8120  0.5259 -1.2540
 5899TIP3   OH217660   1.961   6.027   1.602  0.5321 -0.8065  0.0870
 5899TIP3    H117661   1.891   5.989   1.550 -0.3349 -0.9949  1.3255
 5899TIP3    H217662   2.014   6.077   1.540 -1.4990  0.4716 -0.7033
 5900TIP3   OH217663   6.465   2.432   1.172  0.7821  0.0832  0.2214
 5900TIP3    H117664   6.446   2.492   1.100  1.3679 -2.4967 -2.2287
 5900TIP3    H217665   6.466   2.345   1.133  2.8063 -1.3397  3.0294
 5901TIP3   OH217666   1.922   5.467   0.845  0.0029  0.1043 -1.0589
 5901TIP3    H117667   1.940   5.544   0.791  0.8689 -0.5593 -1.7498
 5901TIP3    H217668   1.965   5.395   0.799 -2.4163 -1.1734 -1.5137
 5902TIP3   OH217669   1.908   3.393   1.956 -0.3529  0.0070  0.2182
 5902TIP3    H117670   1.832   3.433   1.913  0.1877  1.1271  0.2700
 5902TIP3    H217671   1.973   3.463   1.960  0.9192 -1.1113 -0.3869
 5903TIP3   OH217672   3.379   3.121   0.540  0.2056 -0.1089  0.2400
 5903TIP3    H117673   3.296   3.159   0.512 -0.0339 -1.2706 -0.7360
 5903TIP3    H217674   3.365   3.099   0.633  0.2936  1.9235  0.7747
 5904TIP3   OH217675   0.873   4.673   3.765  0.2939  0.4593 -0.2270
 5904TIP3    H117676   0.916   4.620   3.698 -1.7290 -3.4611  1.2758
 5904TIP3    H217677   0.928   4.663   3.843 -0.4524  0.0441  0.2496
 5905TIP3   OH217678   0.109   2.249   5.548 -0.3169 -0.9475 -0.4041
 5905TIP3    H117679   0.116   2.187   5.474  0.3081 -0.5174 -0.7138
 5905TIP3    H217680   0.165   2.212   5.616 -0.0779 -0.8127 -0.5268
 5906TIP3   OH217681   1.014   5.671   5.576  0.1247  0.2603 -0.6457
 5906TIP3    H117682   1.009   5.636   5.665  0.1277  1.3719 -0.1928
 5906TIP3    H217683   1.078   5.742   5.581 -0.4449  0.8477 -1.3579
 5907TIP3   OH217684   3.131   3.745   4.238 -0.2503  0.7271  0.8643
 5907TIP3    H117685   3.079   3.723   4.315 -1.2847  0.3687  0.0857
 5907TIP3    H217686   3.193   3.672   4.229 -2.0409 -0.7221 -0.2829
 5908TIP3   OH217687   0.039   3.262   5.647 -0.0709 -0.0781  0.0441
 5908TIP3    H117688   0.119   3.212   5.664  0.5787  1.0729  0.5420
 5908TIP3    H217689   0.016   3.300   5.732  0.5487  1.9739 -0.6420
 5909TIP3   OH217690   0.023   4.501   1.779 -0.5847 -0.3098 -0.4340
 5909TIP3    H117691   0.032   4.545   1.864  0.8683  0.5789 -1.0132
 5909TIP3    H217692   0.106   4.454   1.768  0.3661  1.6896 -2.4821
 5910TIP3   OH217693   3.962   2.185   1.470 -0.1450  0.5180  0.1680
 5910TIP3    H117694   4.010   2.119   1.520 -1.6427  0.3585  1.4672
 5910TIP3    H217695   3.963   2.262   1.527  0.2736  1.1484 -0.6735
 5911TIP3   OH217696   0.270   1.642   5.304 -0.5538 -0.2100 -0.0694
 5911TIP3    H117697   0.311   1.568   5.349 -0.7099 -0.2863 -0.0506
 5911TIP3    H217698   0.189   1.658   5.352 -0.6986 -0.2623 -0.2932
 5912TIP3   OH217699   3.069   4.923   2.099  0.5620 -0.5921 -0.1700
 5912TIP3    H117700   3.051   4.848   2.156 -3.0914  1.0296  1.0840
 5912TIP3    H217701   3.107   4.989   2.156  0.8612 -0.3805 -0.6018
 5913TIP3   OH217702   1.585   5.334   5.166 -0.1783 -0.1302  0.1373
 5913TIP3    H117703   1.540   5.417   5.149 -0.0999 -0.1310 -0.0787
 5913TIP3    H217704   1.518   5.267   5.152 -0.8659 -0.0216  2.4327
 5914TIP3   OH217705   2.191   0.276   0.035 -0.3864 -0.0723 -0.3649
 5914TIP3    H117706   2.205   0.262  -0.059  2.5256  0.6505 -0.1301
 5914TIP3    H217707   2.223   0.196   0.076  2.1392  1.1211  0.1588
 5915TIP3   OH217708   2.010   1.073   3.542  0.1848  0.3995 -0.1046
 5915TIP3    H117709   2.037   1.154   3.586  0.3117 -0.4343  1.4407
 5915TIP3    H217710   2.052   1.004   3.593 -0.7778 -0.6956 -0.7530
 5916TIP3   OH217711   3.555   6.207   0.871  0.3493 -0.3525  0.3696
 5916TIP3    H117712   3.514   6.193   0.786  0.3436 -1.0070  0.4760
 5916TIP3    H217713   3.571   6.302   0.874 -0.9214 -0.1142  0.2363
 5917TIP3   OH217714   4.258   5.887   1.477 -0.0377  0.5583 -0.3797
 5917TIP3    H117715   4.163   5.886   1.469 -0.0539 -1.4802 -0.5232
 5917TIP3    H217716   4.289   5.906   1.388 -0.3165 -0.3742 -0.6848
 5918TIP3   OH217717   6.038   4.683   3.660 -0.1925  0.1041  0.3112
 5918TIP3    H117718   5.978   4.757   3.663 -0.2254  0.0734  0.4736
 5918TIP3    H217719   6.102   4.705   3.592 -1.4847 -0.7132 -1.2179
 5919TIP3   OH217720   1.484   0.449   4.966  0.4782  0.5441  0.3287
 5919TIP3    H117721   1.415   0.515   4.968 -0.6691 -0.6064 -0.1384
 5919TIP3    H217722   1.479   0.407   5.052  0.8089  0.6642  0.4077
 5920TIP3   OH217723   1.196   3.711   3.860  0.3685  0.5340 -0.0227
 5920TIP3    H117724   1.283   3.750   3.858  0.6468 -0.0403 -3.0202
 5920TIP3    H217725   1.188   3.675   3.949  1.8049  3.4247  1.4191
 5921TIP3   OH217726   6.485   2.132   1.607 -0.6252 -0.3799  0.0584
 5921TIP3    H117727   6.426   2.168   1.540 -0.5949  0.8704  0.6775
 5921TIP3    H217728   6.567   2.179   1.595 -0.2052 -1.0759  0.1482
 5922TIP3   OH217729   6.464   2.165   1.927 -0.1067 -0.3462  0.1973
 5922TIP3    H117730   6.486   2.170   1.834 -2.3405  0.1367 -0.3753
 5922TIP3    H217731   6.392   2.228   1.938  1.6605  1.4329  2.7811
 5923TIP3   OH217732   3.534   5.560   3.841  0.2495  0.4624  0.1358
 5923TIP3    H117733   3.594   5.552   3.766  0.1151  2.1783 -0.1855
 5923TIP3    H217734   3.539   5.652   3.865 -1.5231  0.4208  0.7363
 5924TIP3   OH217735   0.857   0.505   5.552  0.2835 -0.0198 -0.0391
 5924TIP3    H117736   0.862   0.512   5.647  1.9474 -1.4998  0.0356
 5924TIP3    H217737   0.764   0.512   5.532  0.0009  1.4209  1.5800
 5925TIP3   OH217738   4.037   2.621   4.890  0.2178 -0.1776  0.0113
 5925TIP3    H117739   4.041   2.615   4.986 -0.3447  1.6898  0.2037
 5925TIP3    H217740   4.108   2.565   4.859  0.5791 -0.6037  1.5369
 5926TIP3   OH217741   0.567   6.395   5.577  0.3413  0.1158  0.2434
 5926TIP3    H117742   0.492   6.373   5.521  1.1131 -1.2188 -0.3024
 5926TIP3    H217743   0.627   6.442   5.519  1.5090 -1.9870 -0.3330
 5927TIP3   OH217744   4.169   2.281   4.577 -0.1903 -0.0485 -0.1185
 5927TIP3    H117745   4.220   2.208   4.543 -1.0144 -1.0532  0.7081
 5927TIP3    H217746   4.138   2.327   4.499 -0.9505 -1.5132 -0.7349
 5928TIP3   OH217747   7.137   0.228   1.348 -0.0230  0.6055  0.1245
 5928TIP3    H117748   7.106   0.285   1.419 -0.5876 -0.1927  0.5394
 5928TIP3    H217749   7.229   0.211   1.369 -0.5401 -0.7766  1.4960
 5929TIP3   OH217750   6.197   0.984   4.049  0.0058 -0.6776  0.3894
 5929TIP3    H117751   6.126   1.035   4.088  0.6394  0.2949  0.2940
 5929TIP3    H217752   6.227   0.927   4.120  0.4426  0.3270  1.0370
 5930TIP3   OH217753   4.532   0.132   4.872 -0.0430 -0.0354  0.2510
 5930TIP3    H117754   4.441   0.130   4.842  0.0700  1.4162 -0.2734
 5930TIP3    H217755   4.576   0.187   4.808  1.1096 -0.3254  0.7826
 5931TIP3   OH217756   4.060   2.031   5.671  0.7584 -0.1891  0.9011
 5931TIP3    H117757   4.017   2.023   5.586  3.3189  2.0370 -0.7924
 5931TIP3    H217758   4.009   2.098   5.718  1.9150  2.0853 -0.8880
 5932TIP3   OH217759   4.755   5.996   5.630 -0.1827  0.0164 -0.0414
 5932TIP3    H117760   4.833   6.048   5.613 -0.0074 -0.2154  0.0635
 5932TIP3    H217761   4.785   5.905   5.632 -0.5190 -0.1093 -0.4262
 5933TIP3   OH217762   3.625   3.229   5.592 -0.4753  0.1036 -0.3140
 5933TIP3    H117763   3.680   3.164   5.549  0.8959  0.7871  0.3553
 5933TIP3    H217764   3.665   3.313   5.571 -1.9573  0.7418 -0.7780
 5934TIP3   OH217765   1.287   3.858   3.188  0.2949  0.2338 -0.3163
 5934TIP3    H117766   1.204   3.897   3.161  0.7061  0.1269 -1.8391
 5934TIP3    H217767   1.333   3.840   3.106  2.3261  1.3247  0.5182
 5935TIP3   OH217768   4.546   1.986   5.707  0.1766  0.0475  0.4191
 5935TIP3    H117769   4.532   1.904   5.659 -1.2563  0.3264  0.3325
 5935TIP3    H217770   4.522   1.965   5.798 -1.7751  0.7525  0.1135
 5936TIP3   OH217771   3.223   6.422   3.156 -0.3337  0.2552  0.5969
 5936TIP3    H117772   3.244   6.452   3.067 -1.0103 -0.5667  0.1371
 5936TIP3    H217773   3.174   6.341   3.142 -1.8185  0.9290  1.6873
 5937TIP3   OH217774   6.642   0.205   1.215 -0.2691  0.3623 -0.7652
 5937TIP3    H117775   6.600   0.288   1.192 -1.2281 -0.7562 -3.4676
 5937TIP3    H217776   6.736   0.223   1.207 -0.4458  1.3032 -0.8478
 5938TIP3   OH217777   2.950   1.235   2.054 -1.2105  0.4172  0.0710
 5938TIP3    H117778   2.897   1.231   1.975  0.5682  0.1645 -1.1506
 5938TIP3    H217779   3.034   1.270   2.025  0.0181 -1.1702  1.5552
 5939TIP3   OH217780   4.644   1.249   3.899  0.8668 -0.6951  0.9791
 5939TIP3    H117781   4.699   1.274   3.825 -0.8887 -0.5725 -0.3491
 5939TIP3    H217782   4.613   1.161   3.879 -2.3914  0.5698 -0.2785
 5940TIP3   OH217783   0.169   1.140   3.182  0.1396 -0.3373 -0.1825
 5940TIP3    H117784   0.117   1.119   3.259 -2.6873  2.5523 -1.1147
 5940TIP3    H217785   0.215   1.221   3.204  3.1706 -1.9235 -0.0101
 5941TIP3   OH217786   6.018   3.904   2.544 -0.0767  0.3310  0.8076
 5941TIP3    H117787   6.051   3.948   2.465 -0.1923  1.6324  1.4553
 5941TIP3    H217788   5.924   3.923   2.544 -0.7976 -2.5873 -0.5400
 5942TIP3   OH217789   6.256   6.287   0.488  0.0847  0.3745 -0.2522
 5942TIP3    H117790   6.313   6.238   0.429  1.1746  1.6653 -0.3421
 5942TIP3    H217791   6.225   6.361   0.435 -0.3453  0.5864  0.2843
 5943TIP3   OH217792   1.093   0.285   4.165 -0.5285 -0.4243 -0.4973
 5943TIP3    H117793   1.120   0.236   4.087 -1.9167 -0.5806 -0.9114
 5943TIP3    H217794   1.169   0.284   4.222  1.1466  1.1401 -2.5374
 5944TIP3   OH217795   2.038   3.089   2.325 -0.0325 -0.1563  0.3316
 5944TIP3    H117796   2.020   3.139   2.245 -2.2173  0.3015  1.0511
 5944TIP3    H217797   1.952   3.061   2.356  0.8047 -0.7039  2.2925
 5945TIP3   OH217798   5.766   4.797   3.713  0.3347  0.7458 -0.2663
 5945TIP3    H117799   5.767   4.811   3.808  1.0936  0.0854 -0.1696
 5945TIP3    H217800   5.761   4.886   3.676  1.1100  1.0711  0.3783
 5946TIP3   OH217801   6.272   5.193   5.844 -0.5855  0.0167  0.1701
 5946TIP3    H117802   6.344   5.135   5.821 -0.4445  0.9479 -1.9951
 5946TIP3    H217803   6.202   5.169   5.783 -1.6736 -0.0058  1.3883
 5947TIP3   OH217804   3.102   2.554   2.494  0.0894 -0.3888  0.1080
 5947TIP3    H117805   3.194   2.528   2.500 -0.0559 -0.8417  0.3900
 5947TIP3    H217806   3.105   2.641   2.454  0.7558  0.3182  1.5901
 5948TIP3   OH217807   0.495   1.779   5.281 -0.4299 -0.3444 -0.4283
 5948TIP3    H117808   0.542   1.789   5.198 -1.1532 -0.1113 -0.8177
 5948TIP3    H217809   0.409   1.747   5.256 -0.9732  0.6232  0.1663
 5949TIP3   OH217810   5.777   2.281   2.763  0.1751  0.0470  0.5397
 5949TIP3    H117811   5.722   2.339   2.709  0.4532 -1.4229 -1.4578
 5949TIP3    H217812   5.852   2.334   2.787  1.1013  0.2571 -2.4001
 5950TIP3   OH217813   1.716   1.472   1.766 -0.1187  0.1232  0.3163
 5950TIP3    H117814   1.692   1.506   1.680 -0.2469  2.8090  1.3102
 5950TIP3    H217815   1.644   1.500   1.824 -0.0093 -1.5626  1.3318
 5951TIP3   OH217816   5.827   6.789   1.554  0.1538  0.5289 -0.1814
 5951TIP3    H117817   5.890   6.741   1.501  0.7972  1.1281  0.0300
 5951TIP3    H217818   5.852   6.771   1.644 -1.4992 -1.2395 -0.0219
 5952TIP3   OH217819   4.274   4.134   3.607 -0.5724  0.1794  0.4341
 5952TIP3    H117820   4.316   4.050   3.624  1.7892  0.9478 -1.2544
 5952TIP3    H217821   4.205   4.114   3.544  0.1651 -0.4557 -0.1847
 5953TIP3   OH217822   5.859   5.282   2.796  0.1697 -0.4800  0.0062
 5953TIP3    H117823   5.818   5.344   2.735  1.2497  0.1755 -0.0701
 5953TIP3    H217824   5.865   5.200   2.747  1.0710  0.0511 -0.7891
 5954TIP3   OH217825   0.315   3.830   1.891  0.2455 -0.0841 -0.2025
 5954TIP3    H117826   0.410   3.845   1.886  0.0689  0.8539 -0.9016
 5954TIP3    H217827   0.280   3.909   1.932 -0.2958 -0.1517 -0.5197
 5955TIP3   OH217828   0.992   0.134   2.548 -0.4649 -0.2525  0.3283
 5955TIP3    H117829   0.945   0.059   2.583  0.9917 -0.7027  1.3871
 5955TIP3    H217830   1.068   0.144   2.605  0.2381  1.0233 -0.7756
 5956TIP3   OH217831   6.449   4.927   3.023 -0.2036  0.1158 -0.4555
 5956TIP3    H117832   6.514   4.898   2.960  0.0458 -1.2252  0.3623
 5956TIP3    H217833   6.388   4.853   3.031 -0.6794  0.5615  0.2733
 5957TIP3   OH217834   1.156   0.920   4.643  0.1992 -0.1290  0.2466
 5957TIP3    H117835   1.140   0.895   4.734  2.2878  1.9268  1.2841
 5957TIP3    H217836   1.116   1.007   4.636  3.7482  1.7038  0.6501
 5958TIP3   OH217837   4.392   5.726   1.648  0.2002 -0.2975  0.5487
 5958TIP3    H117838   4.317   5.694   1.698  0.4338  1.7673  2.3809
 5958TIP3    H217839   4.357   5.799   1.596  0.3393 -1.3158 -1.0677
 5959TIP3   OH217840   5.238   4.670   4.425 -0.2593 -0.0819  0.4272
 5959TIP3    H117841   5.176   4.716   4.482 -1.5155 -0.9421 -0.1897
 5959TIP3    H217842   5.197   4.585   4.409  0.7665 -0.4118 -0.5867
 5960TIP3   OH217843   1.737   0.951   0.314  0.3205  0.6065  0.2126
 5960TIP3    H117844   1.745   0.876   0.373  3.9390  0.5329 -0.1262
 5960TIP3    H217845   1.762   0.917   0.229 -0.4217  1.6989 -0.4661
 5961TIP3   OH217846   4.728   0.714   0.963  0.3566 -0.2166  0.4526
 5961TIP3    H117847   4.633   0.704   0.961  0.4646 -1.2744 -0.7595
 5961TIP3    H217848   4.745   0.790   0.907  0.2359 -0.2921  0.3097
 5962TIP3   OH217849   5.319   4.616   0.211 -0.2600 -0.5312 -0.4979
 5962TIP3    H117850   5.266   4.538   0.196 -0.0042 -0.6883 -0.5876
 5962TIP3    H217851   5.320   4.661   0.127 -0.0511 -0.6528 -0.5610
 5963TIP3   OH217852   0.463   6.135   0.790 -0.2535  0.4088  0.0991
 5963TIP3    H117853   0.548   6.151   0.749 -1.4157  0.3501 -2.5769
 5963TIP3    H217854   0.472   6.051   0.834  1.2046  0.6517  0.2989
 5964TIP3   OH217855   4.264   1.138   4.301  0.0372  0.1782 -0.4894
 5964TIP3    H117856   4.325   1.139   4.227  0.7870  0.7218  0.1135
 5964TIP3    H217857   4.210   1.060   4.287  0.9069 -0.3449 -1.0101
 5965TIP3   OH217858   4.846   0.854   1.908  0.5175 -0.2231  0.0624
 5965TIP3    H117859   4.928   0.904   1.898  1.1192 -0.8508  1.6031
 5965TIP3    H217860   4.793   0.908   1.966  0.9565 -1.0879  1.2962
 5966TIP3   OH217861   5.689   6.676   2.062 -0.3899  0.0945  0.2775
 5966TIP3    H117862   5.709   6.750   2.119 -1.9879  1.9809 -1.4194
 5966TIP3    H217863   5.746   6.606   2.092  3.7426  2.9327 -0.0039
 5967TIP3   OH217864   5.419   0.813   2.374  0.3493  0.3279 -0.4687
 5967TIP3    H117865   5.420   0.884   2.310  0.2731 -2.2264 -3.5212
 5967TIP3    H217866   5.326   0.794   2.388  0.3418 -1.0803 -2.0856
 5968TIP3   OH217867   5.010   2.992   5.056  0.2608  0.1842  0.2567
 5968TIP3    H117868   4.917   3.013   5.068  0.4392  0.5546  1.0271
 5968TIP3    H217869   5.029   3.017   4.965 -0.6720 -0.9728 -0.2811
 5969TIP3   OH217870   6.917   1.861   4.969 -0.1928 -0.1138  0.4217
 5969TIP3    H117871   6.977   1.827   4.902 -0.1860 -0.8471  0.7878
 5969TIP3    H217872   6.896   1.785   5.023 -1.4133  0.1423  0.3380
 5970TIP3   OH217873   7.053   0.820   0.942  0.7439  0.5922 -0.1140
 5970TIP3    H117874   7.140   0.840   0.976  0.9420  1.5423 -1.1332
 5970TIP3    H217875   7.062   0.825   0.847 -0.1660 -0.4393 -0.2728
 5971TIP3   OH217876   6.235   5.767   3.979 -0.8186  0.9774 -0.1059
 5971TIP3    H117877   6.270   5.843   4.026  1.0639  1.6158 -2.3790
 5971TIP3    H217878   6.149   5.797   3.948 -0.5166  1.8554 -0.1415
 5972TIP3   OH217879   0.743   2.408   2.674 -0.3038 -0.0259  0.3114
 5972TIP3    H117880   0.826   2.360   2.669  0.3823  1.1555 -0.3820
 5972TIP3    H217881   0.682   2.357   2.622  0.2014 -0.5243  0.2020
 5973TIP3   OH217882   5.394   6.701   2.525 -0.4546 -0.3103  0.4550
 5973TIP3    H117883   5.326   6.672   2.464  0.1793  0.9724 -0.9386
 5973TIP3    H217884   5.450   6.624   2.538  0.8705 -0.0150 -2.6771
 5974TIP3   OH217885   5.529   0.552   2.343  0.3050  0.1444  0.1181
 5974TIP3    H117886   5.514   0.499   2.422  0.8129  0.2438  0.2851
 5974TIP3    H217887   5.532   0.642   2.376 -1.7370  0.4286 -0.3082
 5975TIP3   OH217888   6.161   1.674   1.339 -0.1077 -0.2163  0.1173
 5975TIP3    H117889   6.169   1.770   1.339  2.4262 -0.3700  0.0294
 5975TIP3    H217890   6.150   1.651   1.247 -1.5121 -0.0036  0.2066
 5976TIP3   OH217891   3.697   1.595   4.433  0.0438 -0.9914 -0.3801
 5976TIP3    H117892   3.665   1.684   4.451  0.9773 -0.7799  0.2762
 5976TIP3    H217893   3.698   1.552   4.519  2.3267 -0.7091 -0.2133
 5977TIP3   OH217894   4.429   1.677   0.827 -0.1068  0.5263 -0.6816
 5977TIP3    H117895   4.376   1.716   0.897 -0.6013  0.1565 -0.8476
 5977TIP3    H217896   4.519   1.683   0.860 -0.3486  0.1802  0.0693
 5978TIP3   OH217897   5.901   1.721   2.843 -0.0680  0.0879 -0.7261
 5978TIP3    H117898   5.822   1.667   2.852  1.1431 -1.6668  0.0345
 5978TIP3    H217899   5.931   1.704   2.754 -0.4898  0.7033 -0.9928
 5979TIP3   OH217900   5.755   6.325   4.006  0.6873 -0.3214  0.8472
 5979TIP3    H117901   5.745   6.292   4.096 -0.6322 -1.6942  0.2334
 5979TIP3    H217902   5.738   6.419   4.014  0.4945 -0.4316  2.0328
 5980TIP3   OH217903   6.953   4.189   3.350  0.5212  0.5237 -0.0434
 5980TIP3    H117904   6.929   4.150   3.266 -1.4228 -1.8865  1.5011
 5980TIP3    H217905   6.941   4.119   3.414  1.5091  2.3726  2.3291
 5981TIP3   OH217906   4.262   1.595   5.234 -0.0947 -0.5451 -0.0075
 5981TIP3    H117907   4.285   1.559   5.320 -0.1413 -2.7649 -0.8607
 5981TIP3    H217908   4.177   1.637   5.248 -0.6472 -1.8705  0.8142
 5982TIP3   OH217909   5.892   0.907   2.753  0.0353  0.3555  0.1020
 5982TIP3    H117910   5.834   0.841   2.792 -0.4129  0.3754 -0.5146
 5982TIP3    H217911   5.938   0.946   2.828 -0.5987  0.1986  0.5842
 5983TIP3   OH217912   4.856   3.308   3.320  0.2299  0.4162  0.3066
 5983TIP3    H117913   4.920   3.303   3.249 -0.0140 -0.9401  0.1565
 5983TIP3    H217914   4.808   3.226   3.314 -0.6681  0.8572  1.2326
 5984TIP3   OH217915   6.425   5.625   1.605  0.4376  0.0095  0.2656
 5984TIP3    H117916   6.510   5.653   1.569  0.9063 -1.0978  0.4534
 5984TIP3    H217917   6.389   5.567   1.538  1.1394 -1.7652  1.3354
 5985TIP3   OH217918   1.121   2.617   0.878  0.1095  0.2972  0.0582
 5985TIP3    H117919   1.125   2.698   0.928  0.2882  1.6522 -2.0714
 5985TIP3    H217920   1.203   2.616   0.827  0.2730 -1.3998  0.2900
 5986TIP3   OH217921   5.937   4.643   4.952 -0.4659  0.1730 -0.5189
 5986TIP3    H117922   5.943   4.593   5.034  1.2252  0.8486 -0.1942
 5986TIP3    H217923   5.949   4.734   4.979  1.0557  0.3265 -1.6155
 5987TIP3   OH217924   4.316   5.503   4.891 -0.4325  0.0555 -0.4932
 5987TIP3    H117925   4.256   5.442   4.933  0.9170 -0.0927  1.3248
 5987TIP3    H217926   4.401   5.460   4.895  0.2214  1.2565 -0.8896
 5988TIP3   OH217927   5.919   5.640   0.126  0.2647  0.2750 -0.3539
 5988TIP3    H117928   5.916   5.635   0.222 -1.7060  0.6430 -0.3557
 5988TIP3    H217929   5.878   5.558   0.097 -0.7797  0.9645 -0.8519
 5989TIP3   OH217930   1.556   0.494   1.767 -0.0197  0.0264 -0.0966
 5989TIP3    H117931   1.637   0.472   1.813 -0.1336  2.4320  1.4641
 5989TIP3    H217932   1.530   0.578   1.804 -2.8466 -0.2956 -1.1042
 5990TIP3   OH217933   5.923   6.583   3.955  0.6622  0.3592 -0.2240
 5990TIP3    H117934   5.838   6.615   3.986  1.0676 -0.3840  1.7887
 5990TIP3    H217935   5.946   6.644   3.884 -1.0260  1.2399 -0.0865
 5991TIP3   OH217936   2.265   5.591   2.855 -0.1103  0.7681  0.1748
 5991TIP3    H117937   2.328   5.543   2.801 -0.1649 -0.3884  1.1091
 5991TIP3    H217938   2.193   5.611   2.795 -0.0048 -0.1483 -0.2800
 5992TIP3   OH217939   1.826   3.693   4.370  0.1061 -0.0957 -0.1492
 5992TIP3    H117940   1.823   3.781   4.332  2.1612 -0.0273 -0.2699
 5992TIP3    H217941   1.764   3.642   4.318  0.4058  0.8078 -1.4390
 5993TIP3   OH217942   5.712   1.651   5.574  0.1827 -0.2296  0.2664
 5993TIP3    H117943   5.710   1.597   5.494 -1.3314  1.0160 -0.5699
 5993TIP3    H217944   5.779   1.717   5.556  0.1626 -0.2220  0.2201
 5994TIP3   OH217945   3.861   2.319   3.605 -0.1034 -0.2343  0.4582
 5994TIP3    H117946   3.857   2.232   3.644 -1.8160 -0.2031  0.3963
 5994TIP3    H217947   3.954   2.343   3.609  0.3487 -1.9460  0.7042
 5995TIP3   OH217948   3.008   3.837   0.752  0.2377  0.0615 -0.3847
 5995TIP3    H117949   3.078   3.901   0.744 -0.4662  1.0221  0.7014
 5995TIP3    H217950   2.977   3.823   0.663 -0.3392  2.1332 -0.5612
 5996TIP3   OH217951   2.134   3.794   4.084  0.2073  0.2668  0.2776
 5996TIP3    H117952   2.103   3.704   4.076 -1.0577  0.7135 -0.2760
 5996TIP3    H217953   2.063   3.839   4.129 -0.2053  1.4434 -1.4433
 5997TIP3   OH217954   5.239   2.724   0.118 -0.2652 -0.1353  0.0146
 5997TIP3    H117955   5.271   2.649   0.068 -0.4438  0.5926 -1.2341
 5997TIP3    H217956   5.266   2.707   0.208 -0.2050 -1.6357 -0.2695
 5998TIP3   OH217957   1.382   6.553   1.259 -0.1839 -0.1328 -0.4344
 5998TIP3    H117958   1.412   6.583   1.173 -0.7863 -0.2390 -0.6908
 5998TIP3    H217959   1.460   6.519   1.302 -0.0191 -0.7759 -1.2374
 5999TIP3   OH217960   3.183   0.362   1.831 -0.4344  0.6588  0.0125
 5999TIP3    H117961   3.187   0.386   1.738  1.5012  0.1040 -0.0828
 5999TIP3    H217962   3.177   0.267   1.832 -2.1596  0.7327  0.4774
 6000TIP3   OH217963   2.232   5.455   4.654 -0.1475 -0.0319  0.0500
 6000TIP3    H117964   2.275   5.488   4.575 -0.0365 -2.3863 -0.9532
 6000TIP3    H217965   2.141   5.441   4.626 -0.0468 -1.1126  0.2535
 6001TIP3   OH217966   0.502   1.808   1.272 -0.0383  0.3940  0.5225
 6001TIP3    H117967   0.518   1.714   1.265  0.0576  0.4525 -0.0486
 6001TIP3    H217968   0.407   1.817   1.265  0.0805  0.4868 -1.1958
 6002TIP3   OH217969   0.758   5.184   0.404  0.4350  0.1724 -0.3791
 6002TIP3    H117970   0.724   5.125   0.338  0.3901  0.6914 -0.8245
 6002TIP3    H217971   0.813   5.246   0.356  1.6703 -0.3855  0.2721
 6003TIP3   OH217972   5.558   4.817   3.427  0.5472  0.4522  0.2231
 6003TIP3    H117973   5.573   4.730   3.464  1.3142  0.6982  0.5094
 6003TIP3    H217974   5.600   4.877   3.489 -0.4384  1.0706  0.3074
 6004TIP3   OH217975   0.630   5.341   3.484 -0.0886 -0.1882 -0.4452
 6004TIP3    H117976   0.685   5.323   3.560 -2.4856  1.9348  1.9730
 6004TIP3    H217977   0.644   5.434   3.466 -0.3939 -0.4117 -1.9531
 6005TIP3   OH217978   2.320   0.204   3.235 -0.5263  0.1332 -0.4503
 6005TIP3    H117979   2.282   0.261   3.169  1.3506  0.3930 -1.3500
 6005TIP3    H217980   2.299   0.246   3.318  1.8207  2.8972 -1.1031
 6006TIP3   OH217981   1.642   3.596   3.818  0.1393 -0.0853  0.2234
 6006TIP3    H117982   1.696   3.594   3.897  0.1440  0.4738  0.2384
 6006TIP3    H217983   1.670   3.520   3.768 -0.6327 -1.0995  1.2639
 6007TIP3   OH217984   0.650   5.122   4.242 -0.1479  0.1241  0.3698
 6007TIP3    H117985   0.654   5.192   4.308  0.8745  0.5547 -0.1331
 6007TIP3    H217986   0.695   5.048   4.282 -2.0884 -0.6356  1.3042
 6008TIP3   OH217987   3.032   2.379   2.290  0.3321 -0.2266  0.0623
 6008TIP3    H117988   2.995   2.456   2.248 -1.2093 -1.0672 -0.1672
 6008TIP3    H217989   3.087   2.415   2.360  0.1690  1.0822 -0.4510
 6009TIP3   OH217990   5.719   4.044   3.481 -0.2743 -0.6524 -0.5149
 6009TIP3    H117991   5.711   4.010   3.392 -0.1948  1.6284 -1.4621
 6009TIP3    H217992   5.633   4.080   3.501  0.5044  1.5886 -0.9242
 6010TIP3   OH217993   6.340   1.451   3.192  0.1836  0.0581 -0.1666
 6010TIP3    H117994   6.246   1.436   3.185  0.1645  0.8479 -2.0789
 6010TIP3    H217995   6.367   1.398   3.267 -1.8412  0.1446  0.6989
 6011TIP3   OH217996   6.004   2.972   0.641 -0.0996 -0.1026  0.2038
 6011TIP3    H117997   5.994   3.036   0.570 -1.5685 -0.0413  0.4362
 6011TIP3    H217998   6.063   3.015   0.704  1.2801 -0.1900 -0.9791
 6012TIP3   OH217999   0.406   2.812   5.562 -0.3660 -0.2842 -0.1447
 6012TIP3    H118000   0.328   2.769   5.526  0.3078 -2.7821  1.2066
 6012TIP3    H218001   0.479   2.771   5.516  0.3134 -0.6830  1.2591
 6013TIP3   OH218002   0.374   1.768   5.593  0.1926  0.8808  0.7419
 6013TIP3    H118003   0.461   1.732   5.576  0.3372  0.0738  2.8908
 6013TIP3    H218004   0.337   1.784   5.507  3.2273  3.1569 -0.3022
 6014TIP3   OH218005   6.530   1.049   2.082  0.1108 -0.4362  0.2244
 6014TIP3    H118006   6.485   1.011   2.158 -3.0224  2.0963 -0.1386
 6014TIP3    H218007   6.589   1.114   2.120 -0.6938  0.1046  0.5990
 6015TIP3   OH218008   4.363   3.526   2.721  0.3232  0.0504 -0.2409
 6015TIP3    H118009   4.279   3.555   2.756 -0.2526 -1.0896 -0.6290
 6015TIP3    H218010   4.386   3.592   2.655 -1.5605 -0.9339 -1.9882
 6016TIP3   OH218011   1.000   3.088   3.235 -0.1648 -0.3308 -0.8277
 6016TIP3    H118012   1.032   3.102   3.324 -1.2138  0.1417 -0.5174
 6016TIP3    H218013   0.929   3.024   3.244 -0.3579 -0.1904 -1.3102
 6017TIP3   OH218014   4.732   2.041   4.913 -0.5157 -0.2320  0.1680
 6017TIP3    H118015   4.789   2.008   4.844 -0.7995  0.1724 -0.2726
 6017TIP3    H218016   4.644   2.031   4.878 -0.7627 -1.3298  1.0510
 6018TIP3   OH218017   4.061   0.901   5.167 -0.3322  0.6261  0.4413
 6018TIP3    H118018   4.145   0.882   5.210 -0.1012  0.9751  0.1507
 6018TIP3    H218019   4.041   0.821   5.118 -1.0449 -0.1119  1.8896
 6019TIP3   OH218020   1.203   1.971   5.618 -0.6310  0.0192  0.0847
 6019TIP3    H118021   1.128   1.975   5.678  0.0058  0.0909  0.8973
 6019TIP3    H218022   1.276   2.007   5.669  0.3698 -1.7208 -0.0306
 6020TIP3   OH218023   5.287   0.988   0.847 -0.1894  0.1242 -0.0088
 6020TIP3    H118024   5.263   1.035   0.767  1.1348 -0.5335 -0.8243
 6020TIP3    H218025   5.259   1.046   0.918  1.9158  2.5151 -0.9681
 6021TIP3   OH218026   4.574   4.237   0.833 -0.2032  0.7612  0.0307
 6021TIP3    H118027   4.517   4.199   0.765  0.4807 -1.0297  0.4002
 6021TIP3    H218028   4.515   4.291   0.886 -1.8647 -1.7369  0.9546
 6022TIP3   OH218029   1.036   0.289   5.587 -0.1076  0.1690 -0.0190
 6022TIP3    H118030   0.953   0.337   5.581 -0.8732 -1.1474 -0.3705
 6022TIP3    H218031   1.091   0.343   5.644 -1.6224  0.4847  1.2149
 6023TIP3   OH218032   5.475   3.626   2.302  0.4308 -0.0887 -0.1354
 6023TIP3    H118033   5.405   3.691   2.306 -0.0236 -0.6097  0.8274
 6023TIP3    H218034   5.544   3.667   2.250 -0.3022  0.7146 -0.4835
 6024TIP3   OH218035   6.085   3.187   1.405  0.3846 -0.1012 -0.2123
 6024TIP3    H118036   6.031   3.246   1.457  1.3018  1.5212 -1.0331
 6024TIP3    H218037   6.086   3.105   1.455 -1.3034  0.4114  0.7230
 6025TIP3   OH218038   0.911   3.855   1.670 -0.0689 -0.0567 -0.4552
 6025TIP3    H118039   0.978   3.882   1.607 -0.9164 -1.9141 -2.2610
 6025TIP3    H218040   0.961   3.825   1.746  1.0415  0.9658 -0.7514
 6026TIP3   OH218041   1.109   4.181   5.167 -0.1162 -0.2662 -0.1270
 6026TIP3    H118042   1.140   4.145   5.250  0.5216 -0.3168 -0.3754
 6026TIP3    H218043   1.018   4.154   5.161  0.2692 -1.6726 -0.1911
 6027TIP3   OH218044   6.010   2.272   4.441  0.3405  0.5405  0.3126
 6027TIP3    H118045   5.952   2.287   4.366  0.7114  0.4785  0.0081
 6027TIP3    H218046   5.989   2.183   4.469  1.5637 -0.1810 -0.9523
 6028TIP3   OH218047   6.285   6.586   4.935  0.2829 -0.2184 -0.3424
 6028TIP3    H118048   6.217   6.555   4.876 -0.5032 -2.1837  1.4596
 6028TIP3    H218049   6.362   6.533   4.913  0.3051 -0.1857 -0.3440
 6029TIP3   OH218050   5.132   4.195   5.373 -0.1821 -0.7590 -0.6564
 6029TIP3    H118051   5.142   4.277   5.421 -1.5997 -0.6684 -0.4800
 6029TIP3    H218052   5.204   4.140   5.403  1.4095  0.7593 -1.5245
 6030TIP3   OH218053   0.756   4.770   0.614  0.4565  0.3323  0.6328
 6030TIP3    H118054   0.834   4.717   0.601  0.1037  0.2749 -1.5495
 6030TIP3    H218055   0.702   4.719   0.674  0.5883 -1.3178 -0.5910
 6031TIP3   OH218056   5.720   2.270   3.603  0.4218  0.0833 -0.4512
 6031TIP3    H118057   5.810   2.281   3.572  0.4084  0.8869 -0.2335
 6031TIP3    H218058   5.726   2.204   3.672  0.8457  0.1197 -0.4497
 6032TIP3   OH218059   5.152   1.126   0.382 -0.6488 -0.9603  0.1809
 6032TIP3    H118060   5.115   1.150   0.297 -3.1440 -0.9776  1.2025
 6032TIP3    H218061   5.102   1.050   0.410  1.6065 -2.3370  0.7539
 6033TIP3   OH218062   5.102   4.064   4.209  0.4866 -0.5591 -0.0351
 6033TIP3    H118063   5.036   4.104   4.152  0.5960 -1.1749 -0.6126
 6033TIP3    H218064   5.116   3.977   4.172  1.4814 -0.5144  0.1919
 6034TIP3   OH218065   3.564   6.131   2.578 -0.2952 -0.0850  0.2317
 6034TIP3    H118066   3.504   6.113   2.650  0.4086 -0.8368  0.6486
 6034TIP3    H218067   3.522   6.093   2.501  0.3206 -2.0008  0.7849
 6035TIP3   OH218068   2.798   0.764   2.057  0.3641  0.2117  0.0769
 6035TIP3    H118069   2.881   0.754   2.103  0.2239  1.1781  0.5509
 6035TIP3    H218070   2.764   0.849   2.085  0.0457  0.6197 -1.4260
 6036TIP3   OH218071   1.592   0.822   4.893  0.0017  0.2451  0.6306
 6036TIP3    H118072   1.516   0.777   4.855 -1.1220  1.9631  0.7633
 6036TIP3    H218073   1.571   0.832   4.985  1.2315 -0.8564  1.0747
 6037TIP3   OH218074   3.060   0.963   1.205  0.1375 -0.0594  0.1124
 6037TIP3    H118075   3.138   1.004   1.242  1.1079 -1.8565  0.1435
 6037TIP3    H218076   3.090   0.879   1.171 -1.4781 -0.1175 -1.3305
 6038TIP3   OH218077   1.793   2.183   5.592 -0.0549  0.3730 -0.4054
 6038TIP3    H118078   1.805   2.270   5.628 -1.5974 -0.3908  2.1937
 6038TIP3    H218079   1.869   2.170   5.534  0.6198  3.0740 -0.2403
 6039TIP3   OH218080   1.151   2.850   3.772  0.2501  0.5052  1.2579
 6039TIP3    H118081   1.056   2.851   3.760  0.3423 -2.0333 -0.5120
 6039TIP3    H218082   1.165   2.795   3.848  0.3037 -0.6221  0.4633
 6040TIP3   OH218083   0.292   4.570   2.485 -0.1219 -0.8637  0.1869
 6040TIP3    H118084   0.304   4.488   2.436  0.7221 -2.0721  2.2584
 6040TIP3    H218085   0.198   4.572   2.506 -0.3023 -0.8434 -0.5991
 6041TIP3   OH218086   0.503   3.385   0.774  0.1721  0.0659  0.5488
 6041TIP3    H118087   0.559   3.311   0.796 -1.4326 -1.1681  0.6121
 6041TIP3    H218088   0.418   3.365   0.814 -0.1585  2.2299  1.1035
 6042TIP3   OH218089   5.045   1.065   2.839 -0.0756  0.2054  0.5339
 6042TIP3    H118090   5.030   1.160   2.844 -2.0225 -0.0247 -0.1761
 6042TIP3    H218091   5.079   1.052   2.750  1.9196  0.4012  1.2213
 6043TIP3   OH218092   3.800   6.424   3.927  0.4175 -0.2728 -0.4561
 6043TIP3    H118093   3.724   6.444   3.982 -0.2180 -0.5366 -1.2208
 6043TIP3    H218094   3.808   6.499   3.868  0.4296 -0.4768 -0.7185
 6044TIP3   OH218095   6.150   0.009   4.153  0.3208  0.3203  0.1365
 6044TIP3    H118096   6.242   0.004   4.178  0.9029  0.3497 -1.8187
 6044TIP3    H218097   6.103   0.022   4.235  1.7781 -2.5784  1.5941
 6045TIP3   OH218098   5.934   2.867   4.708  0.0590  0.3789 -0.3750
 6045TIP3    H118099   5.920   2.882   4.801 -1.0488 -0.0693 -0.4587
 6045TIP3    H218100   5.942   2.772   4.699  1.5712  0.4984 -0.5702
 6046TIP3   OH218101   2.853   2.526   0.084  0.3481 -0.5026 -0.1974
 6046TIP3    H118102   2.875   2.448   0.135  2.2024  0.0503 -0.0963
 6046TIP3    H218103   2.763   2.510   0.054  0.2288 -2.0904  0.8843
 6047TIP3   OH218104   6.533   2.710   3.184  0.0516  0.2608  0.0895
 6047TIP3    H118105   6.543   2.630   3.132 -1.3935 -0.6987  1.2387
 6047TIP3    H218106   6.589   2.773   3.139 -0.0085 -0.9231 -1.7978
 6048TIP3   OH218107   5.938   2.152   4.822  0.6678 -0.5517  0.4925
 6048TIP3    H118108   6.019   2.137   4.775  1.3247  1.2448  0.9695
 6048TIP3    H218109   5.963   2.148   4.915  0.1605 -0.3113  0.6463
 6049TIP3   OH218110   6.877   6.496   3.485  0.2451  0.8337  0.0304
 6049TIP3    H118111   6.857   6.568   3.545 -1.1303 -0.5177  1.2756
 6049TIP3    H218112   6.969   6.476   3.501 -0.1689  0.2861  2.0019
 6050TIP3   OH218113   2.851   2.965   5.828 -0.1305  0.4019 -0.2168
 6050TIP3    H118114   2.762   2.957   5.793 -0.3794  0.2019  0.4391
 6050TIP3    H218115   2.840   3.015   5.909  0.3277  0.1875 -0.0187
 6051TIP3   OH218116   3.884   3.665   3.610  0.5788  0.4362 -0.5192
 6051TIP3    H118117   3.819   3.711   3.557 -1.2307  0.4899  1.6058
 6051TIP3    H218118   3.952   3.731   3.627  0.4238  0.8566 -1.4885
 6052TIP3   OH218119   0.479   6.455   1.239  0.6786  0.5702 -0.1650
 6052TIP3    H118120   0.547   6.503   1.287  1.8335 -1.9602  0.9073
 6052TIP3    H218121   0.441   6.396   1.304 -1.2337  0.5470 -1.2316
 6053TIP3   OH218122   1.789   3.866   1.059 -0.2323 -0.2091  0.4673
 6053TIP3    H118123   1.830   3.841   1.142  1.4375 -1.2664 -0.6059
 6053TIP3    H218124   1.747   3.786   1.029  0.1798 -0.1645 -0.2479
 6054TIP3   OH218125   2.837   0.640   0.311 -0.2649  0.1072 -0.0339
 6054TIP3    H118126   2.771   0.602   0.370  0.8345  0.1946  1.2994
 6054TIP3    H218127   2.901   0.571   0.297  0.4702  0.6792  0.4283
 6055TIP3   OH218128   7.183   5.683   4.164  0.3032  0.2319  0.3839
 6055TIP3    H118129   7.101   5.711   4.122  0.1625  0.3288  0.7207
 6055TIP3    H218130   7.211   5.608   4.112  1.0194  1.3569 -0.9247
 6056TIP3   OH218131   4.489   3.676   1.196 -0.4656 -0.0801  0.0557
 6056TIP3    H118132   4.478   3.604   1.135 -1.0582 -0.3632  0.4873
 6056TIP3    H218133   4.515   3.750   1.142 -0.5547 -0.4381 -0.4809
 6057TIP3   OH218134   1.315   5.218   2.004  0.3262  0.2043 -0.1417
 6057TIP3    H118135   1.367   5.175   1.937  2.3919  2.4217 -0.0865
 6057TIP3    H218136   1.283   5.298   1.963 -2.8906 -0.8840 -0.0518
 6058TIP3   OH218137   6.151   6.756   5.605 -0.2551  0.4645 -0.4181
 6058TIP3    H118138   6.139   6.668   5.641 -2.3640  0.7592 -0.2531
 6058TIP3    H218139   6.239   6.781   5.631 -0.0613 -1.1183  0.5947
 6059TIP3   OH218140   1.094   5.752   3.299  0.2349 -0.4213 -0.1304
 6059TIP3    H118141   1.159   5.726   3.365 -1.4374  0.3810  1.9584
 6059TIP3    H218142   1.067   5.840   3.326 -1.8342 -0.8004 -0.8077
 6060TIP3   OH218143   6.444   0.399   4.813 -0.5218 -0.0597  0.2762
 6060TIP3    H118144   6.408   0.310   4.807 -2.2928  0.6239  0.1789
 6060TIP3    H218145   6.539   0.386   4.812 -0.7309 -1.9113 -0.2292
 6061TIP3   OH218146   6.186   0.316   2.650 -0.7401  0.4264 -0.4368
 6061TIP3    H118147   6.093   0.336   2.658 -0.3684  2.1037  0.2675
 6061TIP3    H218148   6.215   0.296   2.739 -0.3671  0.2222 -0.6012
 6062TIP3   OH218149   4.048   5.270   5.457 -0.5405  0.7130  0.8520
 6062TIP3    H118150   4.141   5.256   5.443 -0.6367 -0.7825  1.5089
 6062TIP3    H218151   4.018   5.313   5.377  0.5336  0.3535  0.2279
 6063TIP3   OH218152   1.201   3.783   0.687 -0.7943 -0.4012 -0.2337
 6063TIP3    H118153   1.121   3.834   0.697  0.9610  2.0214  3.9914
 6063TIP3    H218154   1.247   3.825   0.614 -1.2634  1.4533  0.4787
 6064TIP3   OH218155   6.599   4.164   3.183  0.0072  0.3347 -0.6296
 6064TIP3    H118156   6.564   4.099   3.121  2.0407 -2.9756  1.3955
 6064TIP3    H218157   6.687   4.133   3.202  0.0545  2.1315  2.6811
 6065TIP3   OH218158   4.465   3.140   1.857  0.1429  0.1281  0.7770
 6065TIP3    H118159   4.476   3.102   1.944 -3.6617  0.9304  1.7685
 6065TIP3    H218160   4.371   3.143   1.843  0.5497  0.5196 -3.2355
 6066TIP3   OH218161   4.205   4.871   5.347  0.3017 -0.4421 -0.1953
 6066TIP3    H118162   4.247   4.894   5.430 -0.6027  2.8086 -0.5035
 6066TIP3    H218163   4.126   4.823   5.373  0.0958  0.4262  0.8611
 6067TIP3   OH218164   0.639   3.253   1.262  0.1982  0.1769  0.1235
 6067TIP3    H118165   0.626   3.187   1.329 -1.2032 -0.1229 -0.4202
 6067TIP3    H218166   0.730   3.281   1.273  0.7450 -1.6422  0.5205
 6068TIP3   OH218167   5.392   3.473   2.521 -0.2734 -0.0123 -0.8684
 6068TIP3    H118168   5.484   3.450   2.537 -0.3386 -0.8565 -1.6447
 6068TIP3    H218169   5.395   3.529   2.443 -0.5266 -1.1732 -1.7357
 6069TIP3   OH218170   3.392   1.141   1.088  0.1120 -0.2553 -0.1542
 6069TIP3    H118171   3.459   1.181   1.033  0.0054 -0.3047 -0.3223
 6069TIP3    H218172   3.440   1.103   1.162  0.1039  1.1661  0.6074
 6070TIP3   OH218173   6.392   5.148   1.311  0.3267  0.8010  0.4184
 6070TIP3    H118174   6.452   5.198   1.255 -0.2308  1.0039  0.0031
 6070TIP3    H218175   6.316   5.131   1.256  1.1678 -2.0245 -0.0524
 6071TIP3   OH218176   4.967   2.288   0.557  0.1758  0.1903  0.1841
 6071TIP3    H118177   4.895   2.346   0.532  0.7781  0.7008 -0.4119
 6071TIP3    H218178   4.993   2.319   0.644 -0.6745 -0.3558  0.6468
 6072TIP3   OH218179   5.730   0.197   1.544 -0.2428 -0.0096  0.4143
 6072TIP3    H118180   5.732   0.178   1.450  2.3650  0.3666  0.3113
 6072TIP3    H218181   5.666   0.268   1.553 -0.1557  0.3132 -1.1620
 6073TIP3   OH218182   0.350   3.766   2.280  0.1377 -0.2766 -0.4165
 6073TIP3    H118183   0.391   3.813   2.352 -0.2567 -0.5415 -0.0112
 6073TIP3    H218184   0.256   3.781   2.292 -0.1588 -2.5181  0.7483
 6074TIP3   OH218185   3.258   6.646   5.673  0.0359 -0.0924 -0.0037
 6074TIP3    H118186   3.301   6.583   5.615 -0.1713  0.1937 -0.4713
 6074TIP3    H218187   3.168   6.652   5.640  0.4329  1.5276 -0.8683
 6075TIP3   OH218188   2.426   2.074   4.780  0.0588  0.4347 -0.2445
 6075TIP3    H118189   2.366   2.009   4.818  2.3176 -0.8326  1.4189
 6075TIP3    H218190   2.425   2.146   4.842  0.4228  0.3107 -0.0948
 6076TIP3   OH218191   1.392   4.550   1.476  0.2603 -0.1712  0.0092
 6076TIP3    H118192   1.331   4.569   1.547  1.2719  1.4906  0.4999
 6076TIP3    H218193   1.347   4.578   1.397  0.2406  0.7946  0.3425
 6077TIP3   OH218194   3.812   2.249   1.239 -0.0287  0.4530  0.3660
 6077TIP3    H118195   3.864   2.224   1.316 -0.7645 -2.9054 -0.0432
 6077TIP3    H218196   3.864   2.220   1.164 -1.1328 -0.2054 -0.1714
 6078TIP3   OH218197   3.469   4.307   3.245 -0.2688 -0.1504  0.0093
 6078TIP3    H118198   3.564   4.306   3.243 -0.2684  0.0151 -1.4407
 6078TIP3    H218199   3.446   4.376   3.307  0.5729  0.2787 -0.1451
 6079TIP3   OH218200   7.044   5.646   2.666 -0.0609  0.2724 -0.3901
 6079TIP3    H118201   7.122   5.667   2.615  0.5185  2.5164  1.2876
 6079TIP3    H218202   6.987   5.721   2.656 -0.4400  0.2446  1.2569
 6080TIP3   OH218203   6.197   5.295   0.711  0.4014 -0.7893 -0.0238
 6080TIP3    H118204   6.190   5.377   0.759  1.7225 -0.0893 -0.9607
 6080TIP3    H218205   6.247   5.237   0.769 -0.5932 -0.9892  0.6666
 6081TIP3   OH218206   1.337   0.473   3.439  0.5755 -0.2325 -0.1734
 6081TIP3    H118207   1.276   0.524   3.387 -0.1233 -1.3613 -0.4965
 6081TIP3    H218208   1.330   0.509   3.527  0.3959  0.4812 -0.4751
 6082TIP3   OH218209   1.334   3.892   0.921  0.2107 -0.2596  0.4095
 6082TIP3    H118210   1.270   3.850   0.863 -0.0825 -1.2940  1.4293
 6082TIP3    H218211   1.418   3.882   0.877 -0.0411 -0.8127  0.0513
 6083TIP3   OH218212   1.832   2.828   0.892  0.1871 -0.6552  0.4215
 6083TIP3    H118213   1.847   2.923   0.899  1.3283 -0.5468 -2.0357
 6083TIP3    H218214   1.872   2.791   0.970  0.1812  0.8578  1.1772
 6084TIP3   OH218215   4.078   1.671   1.320 -0.1170  0.9239 -0.3454
 6084TIP3    H118216   4.013   1.720   1.270 -0.1391  3.6287  2.0485
 6084TIP3    H218217   4.027   1.605   1.368 -0.3474 -0.2904 -2.1817
 6085TIP3   OH218218   6.304   5.613   5.082 -0.0439 -0.0146  0.6955
 6085TIP3    H118219   6.269   5.640   4.997 -1.2161 -0.0485  1.1468
 6085TIP3    H218220   6.260   5.670   5.145  1.3219  0.4821  1.2497
 6086TIP3   OH218221   4.146   3.921   4.239 -0.0749 -0.2834  0.1085
 6086TIP3    H118222   4.107   3.854   4.182 -1.7355 -1.2454  2.2519
 6086TIP3    H218223   4.168   3.874   4.319  1.4276  1.1951  0.5975
 6087TIP3   OH218224   3.233   5.363   2.151 -0.2278 -0.0388  0.5498
 6087TIP3    H118225   3.149   5.355   2.198  0.1446 -1.4766  1.0303
 6087TIP3    H218226   3.299   5.365   2.220  0.1611  0.8344  0.1630
 6088TIP3   OH218227   6.193   2.707   2.191  0.3188  0.5173  0.0240
 6088TIP3    H118228   6.114   2.710   2.246 -0.1020 -1.2070 -0.4028
 6088TIP3    H218229   6.233   2.623   2.212  0.5624  0.1613 -1.7083
 6089TIP3   OH218230   7.219   2.667   5.516 -0.0567 -0.3527 -0.7866
 6089TIP3    H118231   7.222   2.708   5.429  1.0576 -1.3958 -1.2619
 6089TIP3    H218232   7.152   2.717   5.563 -0.3180  0.5657 -2.0686
 6090TIP3   OH218233   3.461   1.881   2.404 -0.3163  0.3123 -0.4601
 6090TIP3    H118234   3.429   1.858   2.317 -0.2663 -0.1710 -0.3544
 6090TIP3    H218235   3.399   1.840   2.464 -0.6125  1.0303 -0.2703
 6091TIP3   OH218236   6.226   4.121   2.973  0.3484 -0.0987  0.8673
 6091TIP3    H118237   6.165   4.192   2.955  0.5282  0.0403  0.7924
 6091TIP3    H218238   6.219   4.063   2.898 -0.6461 -0.7688  1.4642
 6092TIP3   OH218239   3.612   3.901   2.112  0.4362  0.3583 -0.0574
 6092TIP3    H118240   3.517   3.912   2.126  0.2468  1.3942 -1.8523
 6092TIP3    H218241   3.625   3.807   2.106 -0.6746  0.2329 -0.8694
 6093TIP3   OH218242   2.595   2.996   3.054  0.4354 -0.2566 -0.5952
 6093TIP3    H118243   2.677   2.983   3.007  0.0786 -0.6500 -1.1363
 6093TIP3    H218244   2.583   3.091   3.057 -0.2872 -0.2178 -2.6912
 6094TIP3   OH218245   7.076   2.855   5.768 -0.0372 -0.3773 -0.3834
 6094TIP3    H118246   7.144   2.885   5.827  0.2671 -0.0799 -0.8765
 6094TIP3    H218247   7.057   2.930   5.712 -0.2168 -0.6934 -0.7554
 6095TIP3   OH218248   1.496   3.020   5.820 -0.7450 -0.4071 -0.5078
 6095TIP3    H118249   1.570   3.029   5.879 -0.7467  0.4392 -0.6164
 6095TIP3    H218250   1.498   2.929   5.792  0.0659 -0.4674 -0.2712
 6096TIP3   OH218251  -0.005   1.163   4.809  0.1824 -0.2544  0.2852
 6096TIP3    H118252   0.089   1.175   4.825  0.2696 -1.1761  0.4901
 6096TIP3    H218253  -0.012   1.074   4.774 -0.5637 -0.0140 -0.1786
 6097TIP3   OH218254   0.200   5.226   4.739 -1.1206 -0.4292 -0.0039
 6097TIP3    H118255   0.147   5.288   4.789 -1.3122  0.3789 -1.1721
 6097TIP3    H218256   0.151   5.143   4.743 -1.0075 -0.4480  1.3203
 6098TIP3   OH218257   5.558   1.777   3.975 -0.3016  0.3772 -0.1892
 6098TIP3    H118258   5.528   1.843   3.913 -0.4166 -0.6387 -1.2585
 6098TIP3    H218259   5.638   1.741   3.935 -0.0175  0.1431  0.5701
 6099TIP3   OH218260   0.680   6.606   2.800 -0.2520  0.2976  0.0963
 6099TIP3    H118261   0.610   6.545   2.777 -0.3569  0.6607 -0.5806
 6099TIP3    H218262   0.742   6.599   2.727  0.5800 -0.2399  0.8216
 6100TIP3   OH218263   2.566   2.653   2.953  0.1470 -0.5372  0.5122
 6100TIP3    H118264   2.614   2.692   3.026 -0.2674 -1.5091  1.3308
 6100TIP3    H218265   2.511   2.586   2.994 -1.0994 -0.1886 -0.5241
 6101TIP3   OH218266   1.198   2.755   2.777  0.1555  0.8149  0.2077
 6101TIP3    H118267   1.249   2.703   2.714  1.4536  1.7564  0.4350
 6101TIP3    H218268   1.117   2.706   2.788  0.3967  0.0148 -1.2908
 6102TIP3   OH218269   6.400   4.323   4.457 -0.4292 -0.3158  0.0918
 6102TIP3    H118270   6.493   4.342   4.466 -0.3184 -0.0232 -1.4761
 6102TIP3    H218271   6.385   4.321   4.363 -1.4727 -2.9703  0.2193
 6103TIP3   OH218272   6.504   5.438   1.181  0.0828 -0.0802 -0.0135
 6103TIP3    H118273   6.431   5.498   1.168  0.7468  0.5651 -0.8032
 6103TIP3    H218274   6.524   5.404   1.094 -1.3488 -2.7666  0.5923
 6104TIP3   OH218275   4.205   6.754   4.811  0.5024  0.1237 -0.9659
 6104TIP3    H118276   4.187   6.663   4.831 -1.8952  0.6938 -0.3088
 6104TIP3    H218277   4.236   6.752   4.720  0.1758 -1.3063 -1.0740
 6105TIP3   OH218278   0.595   6.393   1.659 -0.2163 -0.5996 -0.1894
 6105TIP3    H118279   0.631   6.463   1.713 -0.9608  0.7937 -1.4363
 6105TIP3    H218280   0.597   6.427   1.570 -3.3295 -0.9202 -0.4965
 6106TIP3   OH218281   1.743   1.921   3.312  0.1479  0.1328  0.1014
 6106TIP3    H118282   1.669   1.903   3.370 -1.6017  2.1065 -1.3396
 6106TIP3    H218283   1.720   1.878   3.229  0.6205  0.7225 -0.3529
 6107TIP3   OH218284   3.290   3.427   1.031 -0.0142 -0.4424  0.0785
 6107TIP3    H118285   3.352   3.478   1.082 -0.0101  0.7451 -1.0551
 6107TIP3    H218286   3.207   3.435   1.078 -0.0120  0.6328 -0.0789
 6108TIP3   OH218287   6.875   2.536   3.289  0.0922  0.0747  0.1721
 6108TIP3    H118288   6.950   2.484   3.319  0.1417 -0.4910 -0.9215
 6108TIP3    H218289   6.887   2.621   3.333  1.5675  0.1191 -0.2557
 6109TIP3   OH218290   3.424   3.148   2.133  0.1459 -0.0381  0.1109
 6109TIP3    H118291   3.418   3.231   2.085 -0.5288 -0.7650 -1.1115
 6109TIP3    H218292   3.350   3.150   2.194  0.1001  0.2307  0.0460
 6110TIP3   OH218293   6.256   4.767   5.177  0.1319 -0.2283  0.0077
 6110TIP3    H118294   6.321   4.697   5.166 -2.1674 -2.6583  0.6404
 6110TIP3    H218295   6.186   4.726   5.227 -1.2097  2.7289  0.7545
 6111TIP3   OH218296   4.127   3.763   5.656  0.0869 -0.1971  0.0081
 6111TIP3    H118297   4.138   3.690   5.717  2.6635 -0.5707 -0.7856
 6111TIP3    H218298   4.215   3.797   5.643 -0.7183  1.4632 -1.6064
 6112TIP3   OH218299   5.637   2.364   1.197  0.0105 -0.6288  0.2789
 6112TIP3    H118300   5.566   2.381   1.135  0.3185  1.0747  0.3323
 6112TIP3    H218301   5.594   2.326   1.274 -0.7732 -0.1260  0.1014
 6113TIP3   OH218302   4.550   4.036   4.438 -0.0344  0.4850  0.2189
 6113TIP3    H118303   4.575   3.953   4.397  0.3023 -0.2938  1.8975
 6113TIP3    H218304   4.476   4.067   4.386  0.7125 -0.1409 -1.2928
 6114TIP3   OH218305   3.631   3.390   1.466 -0.1153 -0.5327  0.0220
 6114TIP3    H118306   3.681   3.360   1.390 -1.4121 -1.4026 -0.5409
 6114TIP3    H218307   3.687   3.372   1.541  1.4968  0.9968 -0.7520
 6115TIP3   OH218308   4.346   1.720   0.568  0.3654  0.4927  0.0522
 6115TIP3    H118309   4.420   1.738   0.510 -0.0581  0.8732 -0.3711
 6115TIP3    H218310   4.387   1.697   0.652  0.9814 -0.1616 -0.4149
 6116TIP3   OH218311   3.549   1.341   3.457 -0.0790 -0.0950 -0.2760
 6116TIP3    H118312   3.531   1.250   3.478 -0.3493  0.0605  0.1775
 6116TIP3    H218313   3.640   1.355   3.484 -0.6692  0.3384  1.6812
 6117TIP3   OH218314   0.016   2.549   3.359  0.0741 -0.5127 -0.3149
 6117TIP3    H118315   0.102   2.509   3.361 -0.2114 -1.1243  1.2903
 6117TIP3    H218316  -0.045   2.476   3.357 -0.4232 -0.0972 -0.6471
 6118TIP3   OH218317   2.009   0.454   4.611 -0.3099  0.3850  0.5851
 6118TIP3    H118318   1.925   0.489   4.641 -0.8253 -0.1108 -0.2259
 6118TIP3    H218319   2.070   0.526   4.621 -0.8073  0.7257  1.2857
 6119TIP3   OH218320   4.986   1.926   1.809 -0.2249  0.2948 -0.0179
 6119TIP3    H118321   4.931   1.897   1.737 -0.8666  1.1132  0.1205
 6119TIP3    H218322   4.930   1.918   1.887  0.3339 -0.2291  0.3407
 6120TIP3   OH218323   5.016   0.117   0.337 -0.1184  0.3222 -0.3297
 6120TIP3    H118324   4.927   0.142   0.312 -0.7032 -0.1654  1.1709
 6120TIP3    H218325   5.020   0.134   0.431  0.4562 -2.1910  0.1836
 6121TIP3   OH218326   4.122   3.128   4.941 -0.6016 -0.2893 -0.8844
 6121TIP3    H118327   4.181   3.054   4.954 -1.0841 -0.9208 -2.1234
 6121TIP3    H218328   4.076   3.108   4.859 -0.5584  1.4914 -1.3896
 6122TIP3   OH218329   1.080   6.475   5.339  0.3179  0.4199  0.9597
 6122TIP3    H118330   1.105   6.527   5.262  0.1119  1.0539  1.3052
 6122TIP3    H218331   0.985   6.464   5.329  0.5724 -1.2612  0.0792
 6123TIP3   OH218332   2.684   2.085   1.182  0.9808  0.2844  0.3368
 6123TIP3    H118333   2.744   2.154   1.156  0.0897  0.4670 -1.3716
 6123TIP3    H218334   2.599   2.113   1.148  0.8528 -2.3452 -1.8323
 6124TIP3   OH218335   4.734   3.137   1.816 -0.1304 -0.6110 -0.2270
 6124TIP3    H118336   4.773   3.210   1.768  0.1488  0.6413  1.7901
 6124TIP3    H218337   4.640   3.144   1.797 -0.0265 -0.1547 -0.6011
 6125TIP3   OH218338   5.081   5.713   0.379 -0.2651  0.2192  0.9110
 6125TIP3    H118339   5.042   5.708   0.292  0.1845 -2.6098  0.7753
 6125TIP3    H218340   5.010   5.744   0.436 -1.8696 -1.8317  0.1664
 6126TIP3   OH218341   5.086   1.588   3.568  0.4705 -0.2983 -0.1380
 6126TIP3    H118342   5.080   1.510   3.623  0.3247  0.0552  0.3539
 6126TIP3    H218343   5.078   1.555   3.479 -1.4845 -0.6628  0.1280
 6127TIP3   OH218344   4.671   3.448   2.680 -0.0171 -0.1166  0.6549
 6127TIP3    H118345   4.700   3.357   2.686  0.4021  0.0933  2.2252
 6127TIP3    H218346   4.681   3.482   2.768  0.7269  1.7394 -0.0901
 6128TIP3   OH218347   0.851   5.123   4.739  0.8242 -0.3518  0.0017
 6128TIP3    H118348   0.876   5.195   4.797  1.8482 -1.0932  0.5027
 6128TIP3    H218349   0.889   5.045   4.779 -1.0143 -1.3303 -0.0610
 6129TIP3   OH218350   6.999   0.541   1.127  0.4228 -0.3807  0.1960
 6129TIP3    H118351   6.941   0.491   1.070  0.4052  0.8290 -0.8935
 6129TIP3    H218352   7.078   0.554   1.075  1.7857 -2.1023  1.7029
 6130TIP3   OH218353   5.764   0.797   5.868  0.4802 -0.1404 -0.6487
 6130TIP3    H118354   5.717   0.879   5.861 -1.9640 -1.3843  0.1797
 6130TIP3    H218355   5.845   0.811   5.818 -0.5506  2.2341 -1.7698
 6131TIP3   OH218356   5.020   0.752   3.351  0.2768 -0.3054  0.2714
 6131TIP3    H118357   5.064   0.682   3.302  1.0648  0.2110  0.2274
 6131TIP3    H218358   4.931   0.719   3.364  0.3897 -0.9602 -0.4812
 6132TIP3   OH218359   1.984   4.838   2.497  0.2363 -0.2469  0.4306
 6132TIP3    H118360   2.076   4.811   2.496  0.6913  1.2207  0.1817
 6132TIP3    H218361   1.961   4.846   2.405  0.9332  2.6556  0.3948
 6133TIP3   OH218362   3.056   2.891   3.411  0.1172  0.4354 -0.4075
 6133TIP3    H118363   3.116   2.831   3.455 -0.6608 -0.8564 -1.0211
 6133TIP3    H218364   3.061   2.972   3.461  0.3785 -0.4956  1.1466
 6134TIP3   OH218365   2.306   0.879   4.050  0.0237  0.0310 -0.4624
 6134TIP3    H118366   2.394   0.846   4.067 -0.6700 -1.8568 -0.3117
 6134TIP3    H218367   2.309   0.970   4.077  1.1988 -0.6803  2.0844
 6135TIP3   OH218368   4.471   3.191   0.479  0.0144 -0.1408 -0.4230
 6135TIP3    H118369   4.431   3.145   0.406 -0.3583  0.9232 -0.9119
 6135TIP3    H218370   4.561   3.159   0.481 -0.2059 -0.8044 -0.8077
 6136TIP3   OH218371   5.230   3.488   4.948 -0.1518 -0.1540  0.2252
 6136TIP3    H118372   5.279   3.420   4.901  1.1412  0.4934  0.5674
 6136TIP3    H218373   5.163   3.441   4.997 -0.1972 -1.0353 -0.6737
 6137TIP3   OH218374   3.219   0.900   2.516 -0.1817  0.3639  0.0922
 6137TIP3    H118375   3.188   0.841   2.584  1.3230 -0.6101 -0.0149
 6137TIP3    H218376   3.167   0.877   2.439 -1.1455  0.7380  0.6070
 6138TIP3   OH218377   3.063   4.429   5.760 -0.2866  0.2964  0.6405
 6138TIP3    H118378   3.077   4.488   5.833 -0.2786  2.7369 -1.2279
 6138TIP3    H218379   3.144   4.378   5.754  0.3998  1.2952  1.2274
 6139TIP3   OH218380   4.590   4.994   0.192  0.2883  0.6486  0.6763
 6139TIP3    H118381   4.571   5.082   0.160 -2.2636 -0.9866 -2.8293
 6139TIP3    H218382   4.659   4.961   0.134  0.4813 -0.0743  1.2887
 6140TIP3   OH218383   5.136   3.067   1.589  0.4129  0.2538 -0.1878
 6140TIP3    H118384   5.192   3.145   1.589  1.2293 -0.2526 -2.3508
 6140TIP3    H218385   5.055   3.097   1.547 -0.4883  0.6417  1.7178
 6141TIP3   OH218386   2.330   4.638   5.031  0.2668  0.1035  0.0731
 6141TIP3    H118387   2.244   4.646   5.073  0.3614 -1.0811  0.5237
 6141TIP3    H218388   2.391   4.676   5.094  0.7644 -3.9500  2.3772
 6142TIP3   OH218389   2.155   3.903   3.588  0.2508  0.4195 -0.2612
 6142TIP3    H118390   2.076   3.849   3.578  1.0604 -0.7902 -0.2806
 6142TIP3    H218391   2.157   3.927   3.680  0.4344 -0.4675 -0.0291
 6143TIP3   OH218392   4.707   4.266   5.593 -0.3685 -0.4119 -0.6841
 6143TIP3    H118393   4.690   4.342   5.537  1.7937 -0.1186 -1.0240
 6143TIP3    H218394   4.794   4.236   5.567  0.0002 -1.2899  1.3810
 6144TIP3   OH218395   2.131   2.284   4.819 -0.0382 -0.2984  0.2604
 6144TIP3    H118396   2.123   2.282   4.724  0.3434  1.3548  0.1621
 6144TIP3    H218397   2.052   2.240   4.851 -2.3955  2.7928 -0.7965
 6145TIP3   OH218398   1.009   2.521   1.529  0.2271 -0.1955  0.0910
 6145TIP3    H118399   0.962   2.443   1.499 -0.7523  0.4826 -0.2099
 6145TIP3    H218400   0.951   2.561   1.594  0.3770  0.6495 -0.2726
 6146TIP3   OH218401   0.183   6.234   5.152 -0.3947 -0.1120  0.8365
 6146TIP3    H118402   0.156   6.145   5.175 -1.7073  0.1543  0.4319
 6146TIP3    H218403   0.236   6.224   5.074  0.2287 -0.6168  1.3207
 6147TIP3   OH218404   3.188   3.738   0.139 -0.3982 -0.2954 -0.0790
 6147TIP3    H118405   3.254   3.674   0.166 -0.0168 -0.4138 -1.2363
 6147TIP3    H218406   3.141   3.759   0.219  0.4221 -0.9322  0.5912
 6148TIP3   OH218407   2.319   6.543   3.828  0.3663 -0.1384  0.2458
 6148TIP3    H118408   2.364   6.627   3.818  1.8382 -0.8495  0.5669
 6148TIP3    H218409   2.388   6.482   3.854 -0.3461 -1.7822 -1.4615
 6149TIP3   OH218410   4.396   4.396   0.985 -0.7553  0.3059 -0.4664
 6149TIP3    H118411   4.461   4.466   0.987  1.3930 -1.5882  1.3708
 6149TIP3    H218412   4.329   4.424   1.047  0.3027  0.5559  0.5863
 6150TIP3   OH218413   4.323   0.293   2.052 -0.0198 -0.2655  0.0394
 6150TIP3    H118414   4.377   0.366   2.084 -1.3490  0.8945 -0.2406
 6150TIP3    H218415   4.386   0.225   2.030  1.2518  0.6452  0.6991
 6151TIP3   OH218416   3.680   5.125   4.756  0.0762 -0.1350 -0.6221
 6151TIP3    H118417   3.710   5.105   4.667  0.3481  2.6921 -1.2482
 6151TIP3    H218418   3.585   5.136   4.747 -0.1358 -1.4951 -0.1937
 6152TIP3   OH218419   0.270   5.987   4.335  0.1174  0.3337 -0.2872
 6152TIP3    H118420   0.250   5.958   4.246  1.3337 -0.3670 -0.3579
 6152TIP3    H218421   0.263   5.908   4.388  0.1210  0.6043  0.1185
 6153TIP3   OH218422   5.902   3.946   5.560  0.0285  0.9305 -0.1799
 6153TIP3    H118423   5.847   3.996   5.620  0.1579 -1.1896  1.8619
 6153TIP3    H218424   5.949   3.885   5.617  0.3767 -1.0308 -2.4326
 6154TIP3   OH218425   1.455   1.552   3.153 -0.5913  0.3967 -0.4698
 6154TIP3    H118426   1.452   1.645   3.131 -1.0842  0.7414  0.9794
 6154TIP3    H218427   1.365   1.530   3.177  0.0259  0.2720  1.9573
 6155TIP3   OH218428   6.434   1.566   1.241  0.2009  0.6202  0.5008
 6155TIP3    H118429   6.514   1.617   1.232  1.0747 -0.6616  0.8448
 6155TIP3    H218430   6.374   1.623   1.289  0.6978  1.7975 -0.2403
 6156TIP3   OH218431   6.864   5.758   2.976 -0.0835  0.0056  0.4067
 6156TIP3    H118432   6.926   5.780   2.907 -0.4076  0.1449  0.1638
 6156TIP3    H218433   6.830   5.672   2.951  2.2976 -1.5831  2.1029
 6157TIP3   OH218434   3.794   2.356   2.105 -0.7952 -0.8432 -1.0729
 6157TIP3    H118435   3.744   2.276   2.116  1.7915 -2.9805 -3.4140
 6157TIP3    H218436   3.760   2.394   2.023 -0.2588 -0.9581 -1.3488
 6158TIP3   OH218437   2.062   0.274   2.445  0.4375 -0.0332 -0.0003
 6158TIP3    H118438   2.022   0.219   2.378 -0.6738  0.1653  0.4648
 6158TIP3    H218439   2.085   0.213   2.516 -1.4353  0.1349  0.8120
 6159TIP3   OH218440   0.575   1.414   4.924  0.0158  0.1659  0.1904
 6159TIP3    H118441   0.566   1.420   5.019 -2.5247  1.6710 -0.0699
 6159TIP3    H218442   0.491   1.441   4.890  0.9624 -0.0356 -2.5447
 6160TIP3   OH218443   4.704   6.739   3.478  0.3898  0.1523 -0.0788
 6160TIP3    H118444   4.679   6.708   3.565 -0.5344 -1.0357 -0.7370
 6160TIP3    H218445   4.633   6.710   3.421  0.6743  1.4606 -1.1408
 6161TIP3   OH218446   3.220   6.059   5.630  0.0520 -0.2601 -0.1334
 6161TIP3    H118447   3.246   6.003   5.703  1.7580  0.6296 -0.0248
 6161TIP3    H218448   3.219   6.001   5.554 -1.0808 -1.0409  0.4457
 6162TIP3   OH218449   3.641   5.587   5.176  0.6819 -0.0461 -0.2978
 6162TIP3    H118450   3.657   5.556   5.087 -0.1073  0.4441 -0.6228
 6162TIP3    H218451   3.715   5.643   5.196  0.7838 -0.0321 -0.7057
 6163TIP3   OH218452   7.017   5.131   1.283 -0.5488  0.0309 -0.4816
 6163TIP3    H118453   6.967   5.055   1.254  2.6119 -2.2395 -0.4359
 6163TIP3    H218454   7.075   5.151   1.210  0.5778  0.6234  0.5528
 6164TIP3   OH218455   5.530   3.461   3.621 -0.3711  0.0069  0.0651
 6164TIP3    H118456   5.558   3.543   3.660  0.8565 -0.4831  0.2628
 6164TIP3    H218457   5.459   3.485   3.561 -1.2508  0.9584  1.4490
 6165TIP3   OH218458   5.074   0.934   4.549 -0.1972  0.2618  0.2523
 6165TIP3    H118459   5.136   0.861   4.556  0.4634  0.8720  1.0455
 6165TIP3    H218460   4.995   0.895   4.511  0.8464 -0.4223 -1.3346
 6166TIP3   OH218461   0.054   1.590   2.172 -0.3051  0.4642 -0.2890
 6166TIP3    H118462   0.059   1.598   2.267  1.7704  2.5462 -0.4686
 6166TIP3    H218463  -0.020   1.644   2.147 -0.6243  0.2184  0.1079
 6167TIP3   OH218464   0.820   4.471   2.920  0.4183 -0.0671  0.2922
 6167TIP3    H118465   0.777   4.467   3.006 -0.4067 -0.2701 -0.1125
 6167TIP3    H218466   0.817   4.563   2.895 -2.7365 -0.4024 -1.1247
 6168TIP3   OH218467   5.875   4.062   3.898  0.8897  0.4047 -0.3398
 6168TIP3    H118468   5.868   4.041   3.805 -0.7447  1.6084 -0.5331
 6168TIP3    H218469   5.955   4.115   3.904  1.2342 -0.0260 -0.9785
 6169TIP3   OH218470   3.128   0.187   4.265 -0.2804  0.5795 -0.1492
 6169TIP3    H118471   3.081   0.125   4.209  1.0883 -0.3652 -0.3009
 6169TIP3    H218472   3.220   0.166   4.251  0.1304  0.8073  1.8895
 6170TIP3   OH218473   1.951   2.902   3.181 -0.5574 -0.3534  0.2072
 6170TIP3    H118474   1.934   2.819   3.136  0.1027  0.3937 -1.5344
 6170TIP3    H218475   1.945   2.881   3.274 -1.1317 -2.1821 -0.2011
 6171TIP3   OH218476   3.276   5.452   4.353  0.1045  0.3799 -1.1363
 6171TIP3    H118477   3.214   5.475   4.283 -1.5779 -0.6146 -0.0627
 6171TIP3    H218478   3.265   5.357   4.363  0.2660  0.5083  0.4906
 6172TIP3   OH218479   3.226   5.848   4.160 -0.2272 -0.7260 -0.5079
 6172TIP3    H118480   3.254   5.872   4.249 -1.5463 -1.4721  0.1397
 6172TIP3    H218481   3.281   5.772   4.138  2.0519  1.0912 -1.4907
 6173TIP3   OH218482   5.487   6.100   5.436  0.5006 -0.1086 -0.4870
 6173TIP3    H118483   5.475   6.006   5.422 -0.2818  0.2414 -2.4474
 6173TIP3    H218484   5.435   6.142   5.368  1.0791  1.7576  0.1492
 6174TIP3   OH218485   2.320   2.888   3.940 -0.1880  0.3503  0.3615
 6174TIP3    H118486   2.297   2.840   3.861 -0.1717 -0.3810  0.7957
 6174TIP3    H218487   2.360   2.969   3.908 -0.2755  0.1071 -0.3765
 6175TIP3   OH218488   4.369   0.894   4.564  0.4407  0.1361  0.2107
 6175TIP3    H118489   4.415   0.862   4.642 -0.9737 -1.6542  0.3671
 6175TIP3    H218490   4.369   0.821   4.503 -0.6152  0.6806 -0.4879
 6176TIP3   OH218491   1.277   1.500   4.175  0.3637 -0.0865  0.5534
 6176TIP3    H118492   1.371   1.507   4.161  0.2660  0.3504  0.0801
 6176TIP3    H218493   1.268   1.437   4.247  1.0167 -0.0356  0.6866
 6177TIP3   OH218494   5.180   1.862   1.336  0.1867  0.4301 -0.7760
 6177TIP3    H118495   5.267   1.825   1.351  0.2387  1.1069  0.7104
 6177TIP3    H218496   5.170   1.861   1.240  1.3068 -0.8064 -0.9140
 6178TIP3   OH218497   3.970   5.661   2.267 -0.1546 -0.6048  0.0650
 6178TIP3    H118498   4.046   5.714   2.292 -1.4967  1.8785 -0.7670
 6178TIP3    H218499   3.914   5.661   2.344  0.8137 -2.8977  0.8701
 6179TIP3   OH218500   5.470   0.836   1.042  0.4457 -0.3065 -0.3166
 6179TIP3    H118501   5.405   0.906   1.039  0.7910  0.1232  1.1861
 6179TIP3    H218502   5.440   0.778   1.112  0.4806 -1.3417 -1.1502
 6180TIP3   OH218503   7.188   6.127   3.000 -0.2591 -0.0062  0.3132
 6180TIP3    H118504   7.177   6.219   3.024  1.2169  0.2719  0.0344
 6180TIP3    H218505   7.281   6.110   3.012 -0.1233 -0.8868 -1.5630
 6181TIP3   OH218506   6.554   2.431   4.673  0.0849 -0.1511  0.1379
 6181TIP3    H118507   6.649   2.420   4.676  0.2408  1.0738  0.6321
 6181TIP3    H218508   6.536   2.494   4.743 -0.9129  0.7028 -0.8516
 6182TIP3   OH218509   3.525   0.680   1.845  0.1484  0.1027  0.4162
 6182TIP3    H118510   3.520   0.757   1.900  0.0406 -0.2670  0.9348
 6182TIP3    H218511   3.468   0.616   1.888  2.6312 -1.3478  1.7502
 6183TIP3   OH218512   3.871   4.967   1.335 -0.2403  0.3168 -0.0811
 6183TIP3    H118513   3.816   4.915   1.393 -1.0593  1.0636 -0.1774
 6183TIP3    H218514   3.960   4.935   1.351 -0.5122  0.1649  1.2131
 6184TIP3   OH218515   4.904   1.629   3.346 -0.0438 -0.1011 -0.3537
 6184TIP3    H118516   4.871   1.634   3.436  1.4195  0.4630  0.1684
 6184TIP3    H218517   4.835   1.581   3.298 -1.5060  0.8478  0.7294
 6185TIP3   OH218518   7.154   5.565   3.547  0.7041  0.4275 -0.2021
 6185TIP3    H118519   7.155   5.479   3.505 -0.5840  0.2291  0.1365
 6185TIP3    H218520   7.155   5.546   3.641 -0.2318  0.7436 -0.1156
 6186TIP3   OH218521   4.871   6.330   5.493  0.2667 -0.1529 -0.3094
 6186TIP3    H118522   4.827   6.305   5.574  1.1381 -0.8319 -0.0302
 6186TIP3    H218523   4.807   6.384   5.446 -0.4929 -0.3193  0.5174
 6187TIP3   OH218524   5.644   5.701   1.231 -0.3275 -0.5536  0.6077
 6187TIP3    H118525   5.608   5.751   1.304 -0.3361 -2.1113  1.7052
 6187TIP3    H218526   5.569   5.684   1.174 -0.4819 -0.0950  0.6670
 6188TIP3   OH218527   1.723   2.664   1.352  0.0972 -0.3119  0.8436
 6188TIP3    H118528   1.753   2.711   1.430  0.0730  0.5026  0.3765
 6188TIP3    H218529   1.628   2.656   1.364 -0.0346  0.6006  0.4974
 6189TIP3   OH218530   4.289   2.190   0.318  0.4733 -0.6050 -0.3052
 6189TIP3    H118531   4.278   2.096   0.306 -1.2278 -0.6899  1.4232
 6189TIP3    H218532   4.347   2.199   0.394  0.5680 -0.2557 -0.4139
 6190TIP3   OH218533   0.701   0.044   3.911 -0.4193  0.3154 -0.2109
 6190TIP3    H118534   0.674  -0.048   3.921 -0.5414  0.4698  1.0967
 6190TIP3    H218535   0.794   0.043   3.931 -0.2422  0.3649 -1.0012
 6191TIP3   OH218536   6.607   3.687   2.930  0.1101 -0.1474 -0.0026
 6191TIP3    H118537   6.667   3.739   2.877 -0.2388 -0.3184 -0.5816
 6191TIP3    H218538   6.661   3.618   2.968  0.5783  0.6443  0.7913
 6192TIP3   OH218539   3.800   1.980   5.107  0.2674  0.7573 -0.1858
 6192TIP3    H118540   3.889   2.004   5.136 -0.4196  2.3212  0.7781
 6192TIP3    H218541   3.808   1.973   5.012  1.6786 -0.3498 -0.0236
 6193TIP3   OH218542   1.474   4.789   0.176 -0.1907 -0.1004  0.4266
 6193TIP3    H118543   1.442   4.878   0.158 -1.0741 -0.3925  0.4843
 6193TIP3    H218544   1.558   4.802   0.219 -0.1337  0.7014  0.0885
 6194TIP3   OH218545   1.318   3.478   1.097 -0.0419  0.5679  0.5484
 6194TIP3    H118546   1.339   3.485   1.004  1.7199 -1.5597  0.7050
 6194TIP3    H218547   1.390   3.522   1.142  0.1948 -0.2297  0.9579
 6195TIP3   OH218548   2.983   2.479   0.980  0.2728 -0.1664  0.5995
 6195TIP3    H118549   3.022   2.563   1.006 -1.8129  0.5556  1.6314
 6195TIP3    H218550   2.921   2.503   0.910  0.2171 -0.9783  0.3660
 6196TIP3   OH218551   4.877   3.462   3.788  0.6936  0.1863  0.2440
 6196TIP3    H118552   4.897   3.546   3.830 -0.3123  0.8521 -0.5730
 6196TIP3    H218553   4.824   3.485   3.711  0.2912 -1.2040  0.0759
 6197TIP3   OH218554   3.660   6.441   4.737 -0.0877  0.1587  0.4706
 6197TIP3    H118555   3.731   6.488   4.781 -0.9794  0.7488  1.3143
 6197TIP3    H218556   3.582   6.494   4.752 -1.0536 -1.3521  1.0633
 6198TIP3   OH218557   3.473   6.528   3.505  0.1861  0.1542 -0.5578
 6198TIP3    H118558   3.449   6.576   3.425 -0.9611 -0.6298 -0.7139
 6198TIP3    H218559   3.557   6.487   3.484  0.2511  0.5473 -1.0974
 6199TIP3   OH218560   5.635   0.687   0.852  0.5130  0.0749  0.7809
 6199TIP3    H118561   5.700   0.646   0.909 -0.4924  0.3774  2.2077
 6199TIP3    H218562   5.568   0.720   0.913 -0.6770  0.2774 -0.5989
 6200TIP3   OH218563   2.132   4.965   3.026 -0.0060 -0.0279 -0.3682
 6200TIP3    H118564   2.158   4.983   3.116  0.8546 -2.4601 -0.0467
 6200TIP3    H218565   2.041   4.934   3.033 -0.0055 -0.0249 -0.3498
 6201TIP3   OH218566   3.401   4.182   2.251  0.3584  0.8551 -0.0579
 6201TIP3    H118567   3.399   4.099   2.204  1.7874 -0.6396  2.3193
 6201TIP3    H218568   3.466   4.235   2.204  2.1750 -0.8146  0.4378
 6202TIP3   OH218569   2.623   3.665   3.360  0.2777 -0.0434 -0.4618
 6202TIP3    H118570   2.588   3.731   3.420 -1.9891 -0.9762 -0.6361
 6202TIP3    H218571   2.685   3.713   3.306  0.5840  1.3626  1.0465
 6203TIP3   OH218572   2.626   4.329   3.546  0.2708 -0.2331 -0.3328
 6203TIP3    H118573   2.710   4.368   3.572 -0.0677 -0.0031  0.4567
 6203TIP3    H218574   2.650   4.256   3.489  1.0487 -0.6335  0.4874
 6204TIP3   OH218575   2.019   5.062   0.431 -0.0671 -0.3847  0.1608
 6204TIP3    H118576   2.044   4.984   0.481  0.3937  0.1354  0.7668
 6204TIP3    H218577   1.980   5.028   0.351 -0.0316 -1.2382  0.4940
 6205TIP3   OH218578   4.669   0.872   3.013 -0.5039  0.0116 -0.1459
 6205TIP3    H118579   4.631   0.874   3.101 -0.8068  1.6831 -0.2900
 6205TIP3    H218580   4.623   0.800   2.969 -1.8353  0.4957  0.4145
 6206TIP3   OH218581   6.614   3.399   3.548  0.3436 -0.4175  0.6079
 6206TIP3    H118582   6.532   3.403   3.499  0.2132 -0.8432  0.7879
 6206TIP3    H218583   6.593   3.437   3.633  0.4403 -0.1430  0.5092
 6207TIP3   OH218584   1.946   0.523   2.424  0.2723  0.1428  0.4879
 6207TIP3    H118585   1.986   0.442   2.455 -0.2069 -0.4929 -0.5149
 6207TIP3    H218586   1.917   0.504   2.335 -3.0928  0.2450  1.4155
 6208TIP3   OH218587   4.949   1.417   0.028 -0.1679  0.4560  0.5320
 6208TIP3    H118588   4.857   1.396   0.045 -0.4376  0.7559 -0.4461
 6208TIP3    H218589   4.974   1.476   0.099 -0.4363 -0.3885  1.3506
 6209TIP3   OH218590   6.256   5.762   0.163 -0.2828  0.1587 -0.0313
 6209TIP3    H118591   6.195   5.829   0.131  0.5612  0.3540 -1.3155
 6209TIP3    H218592   6.222   5.680   0.127 -0.0226  0.2138 -0.4073
 6210TIP3   OH218593   4.621   3.295   2.250  0.0787  0.3104  0.2537
 6210TIP3    H118594   4.584   3.367   2.301  0.4839  1.1301 -0.6023
 6210TIP3    H218595   4.652   3.233   2.316 -1.7063  0.1553  1.0081
 6211TIP3   OH218596   0.939   1.327   1.505 -0.4530 -0.3816 -0.2230
 6211TIP3    H118597   0.942   1.299   1.597  0.2642  0.4919  0.0357
 6211TIP3    H218598   0.876   1.399   1.504  2.4124  2.3792  0.4454
 6212TIP3   OH218599   6.678   2.506   0.788  0.2236  0.1505  0.4659
 6212TIP3    H118600   6.676   2.453   0.708  0.3299 -0.1110  0.6366
 6212TIP3    H218601   6.690   2.596   0.757  1.3315 -0.0633  0.2316
 6213TIP3   OH218602   2.010   2.209   3.460 -0.0409  0.2343 -0.0806
 6213TIP3    H118603   1.996   2.168   3.375  0.8844 -0.5724  0.1448
 6213TIP3    H218604   1.965   2.153   3.523  1.0343 -0.3534  0.1991
 6214TIP3   OH218605   1.736   3.506   1.767 -0.0035 -0.3320  0.4189
 6214TIP3    H118606   1.704   3.596   1.776  0.1458 -0.4535  2.5339
 6214TIP3    H218607   1.678   3.454   1.822  0.6783 -1.3530  0.1939
 6215TIP3   OH218608   2.591   0.716   3.577 -0.2469  0.3394 -0.0360
 6215TIP3    H118609   2.573   0.707   3.671  2.1103  1.0727  0.5405
 6215TIP3    H218610   2.575   0.629   3.541  0.2026 -0.3346  1.3157
 6216TIP3   OH218611   6.531   1.868   1.582 -0.0674 -0.5893  0.1619
 6216TIP3    H118612   6.596   1.831   1.642  1.3467  1.7182  0.1862
 6216TIP3    H218613   6.528   1.961   1.605  2.6910  1.1620 -4.9604
 6217TIP3   OH218614   3.996   1.846   1.813 -0.0414 -0.4035  0.1728
 6217TIP3    H118615   4.008   1.906   1.739  1.3493 -0.5980  0.2145
 6217TIP3    H218616   4.053   1.772   1.794  2.2364  0.5829  2.5148
 6218TIP3   OH218617   0.910   3.043   4.234 -0.4891  0.2160  0.1369
 6218TIP3    H118618   0.921   3.136   4.253 -1.1629  0.2762  0.2282
 6218TIP3    H218619   0.910   3.037   4.139 -2.5684  0.5767  0.0803
 6219TIP3   OH218620   4.355   5.574   1.324 -0.3344  0.8291  0.2233
 6219TIP3    H118621   4.445   5.568   1.358  0.3713 -0.1534 -1.6295
 6219TIP3    H218622   4.331   5.483   1.307 -2.1387  0.9856  1.7152
 6220TIP3   OH218623   4.204   6.298   2.713 -0.4338  0.8042 -0.3241
 6220TIP3    H118624   4.261   6.281   2.788 -2.4886 -1.7155  0.8339
 6220TIP3    H218625   4.240   6.377   2.673  0.9338  2.1530  3.1743
 6221TIP3   OH218626   6.438   2.876   2.881 -0.9025  0.0974  0.3196
 6221TIP3    H118627   6.484   2.943   2.831  1.2311  1.5905  3.8440
 6221TIP3    H218628   6.353   2.867   2.838  0.5271  1.4619 -3.1453
 6222TIP3   OH218629   1.698   0.720   2.974 -0.3917  0.9377 -0.3648
 6222TIP3    H118630   1.627   0.669   2.934 -0.3438  0.6507 -0.0836
 6222TIP3    H218631   1.653   0.785   3.029 -0.4233  0.1916  0.5030
 6223TIP3   OH218632   2.075   1.100   5.236 -0.0251  0.2318  0.1541
 6223TIP3    H118633   2.074   1.093   5.332 -0.1990  0.7720  0.1979
 6223TIP3    H218634   2.131   1.176   5.219  0.5666 -0.2805 -0.2038
 6224TIP3   OH218635   6.802   5.102   4.635 -0.4520 -0.1032  0.1757
 6224TIP3    H118636   6.779   5.054   4.556  0.9027 -0.9942  0.2828
 6224TIP3    H218637   6.818   5.192   4.606 -1.3539 -0.0921 -0.3074
 6225TIP3   OH218638   3.079   3.439   2.830  0.5937 -0.2928  0.0892
 6225TIP3    H118639   3.163   3.466   2.867  1.0390 -3.4584  1.8226
 6225TIP3    H218640   3.016   3.500   2.868  1.4713 -1.4073  3.8169
 6226TIP3   OH218641   3.352   5.872   2.678 -0.1291 -0.4091  0.2501
 6226TIP3    H118642   3.433   5.836   2.640  0.1702  1.1888 -0.6879
 6226TIP3    H218643   3.376   5.959   2.708 -1.6008  0.2345 -0.3782
 6227TIP3   OH218644   0.456   3.722   1.448  0.4522 -0.2969  0.1671
 6227TIP3    H118645   0.498   3.792   1.498 -0.6181  0.4270  0.1004
 6227TIP3    H218646   0.395   3.768   1.390  0.1442 -1.2574 -0.2862
 6228TIP3   OH218647   7.049   0.660   5.374 -0.0293 -0.5708  0.2773
 6228TIP3    H118648   7.032   0.752   5.390  2.7841  0.1856 -0.5205
 6228TIP3    H218649   7.066   0.622   5.460 -0.8259 -0.2652  0.5706
 6229TIP3   OH218650   6.091   1.058   5.719  0.0655  0.3930 -0.0418
 6229TIP3    H118651   6.170   1.086   5.672 -0.6665 -0.8081 -2.1116
 6229TIP3    H218652   6.077   1.126   5.785  1.9910  1.3902 -0.5778
 6230TIP3   OH218653   0.364   3.621   5.242 -0.3919  0.4090 -0.2649
 6230TIP3    H118654   0.446   3.653   5.279 -0.8559  2.0314 -0.5726
 6230TIP3    H218655   0.382   3.529   5.220  1.3840  0.7763 -0.4953
 6231TIP3   OH218656   5.114   3.599   0.570  0.1563  0.2111 -0.2823
 6231TIP3    H118657   5.072   3.539   0.632  0.3585  1.0916  0.7277
 6231TIP3    H218658   5.174   3.542   0.520  0.9833 -0.3194  1.2321
 6232TIP3   OH218659   0.510   4.789   4.878 -0.1360  0.1036 -0.2696
 6232TIP3    H118660   0.479   4.832   4.958 -0.5104 -1.4846  0.4814
 6232TIP3    H218661   0.599   4.760   4.899 -0.3132 -0.5099 -0.3241
 6233TIP3   OH218662   4.503   0.661   2.580  0.0990  0.1576 -0.3997
 6233TIP3    H118663   4.578   0.698   2.626  0.4740 -1.0052 -0.0402
 6233TIP3    H218664   4.432   0.664   2.644 -0.0022  0.7202 -0.5408
 6234TIP3   OH218665   6.583   2.179   5.472 -0.0470 -0.2039 -0.1733
 6234TIP3    H118666   6.612   2.185   5.381  0.5276  0.4493  0.0465
 6234TIP3    H218667   6.661   2.197   5.523 -0.5022  0.0425  0.4493
 6235TIP3   OH218668   2.198   5.441   3.084  0.0280 -0.3760  0.3300
 6235TIP3    H118669   2.179   5.351   3.056 -0.0175 -0.3793  0.3710
 6235TIP3    H218670   2.227   5.485   3.004 -1.2937 -0.0563 -0.0043
 6236TIP3   OH218671   3.904   2.608   4.488 -0.2555 -0.0128 -0.3203
 6236TIP3    H118672   3.842   2.550   4.534 -0.4544 -0.0743 -0.6639
 6236TIP3    H218673   3.964   2.548   4.444  1.4080  0.0087  1.7598
 6237TIP3   OH218674   4.713   0.095   0.308  0.0712 -0.6066  0.1166
 6237TIP3    H118675   4.709   0.063   0.398 -1.3788 -0.9084 -0.0306
 6237TIP3    H218676   4.701   0.017   0.254 -0.1546 -0.2794 -0.3135
 6238TIP3   OH218677   4.574   4.397   2.910  0.5723 -0.2235  0.6610
 6238TIP3    H118678   4.521   4.438   2.978  0.3143 -0.4828  0.6167
 6238TIP3    H218679   4.657   4.447   2.911 -0.1976  1.1371 -0.2560
 6239TIP3   OH218680   2.011   0.632   3.184  0.1032 -0.7121 -0.2863
 6239TIP3    H118681   1.984   0.704   3.127  1.1207  0.1063  0.2473
 6239TIP3    H218682   2.060   0.573   3.126 -0.5099 -0.8540 -0.6680
 6240TIP3   OH218683   5.387   2.265   3.836  0.1558 -0.0090  0.3823
 6240TIP3    H118684   5.473   2.238   3.867 -1.2704 -4.4530  1.1868
 6240TIP3    H218685   5.398   2.357   3.812  5.4111 -0.6487 -0.8953
 6241TIP3   OH218686   4.765   3.945   3.334  0.1076 -0.4886  0.1987
 6241TIP3    H118687   4.729   3.886   3.400 -0.6561  0.6255  0.8212
 6241TIP3    H218688   4.687   3.984   3.293  0.5770 -0.7578 -1.0058
 6242TIP3   OH218689   5.815   4.512   2.761  0.0173  0.3118  0.3276
 6242TIP3    H118690   5.827   4.499   2.667 -1.7930  0.0360  0.1060
 6242TIP3    H218691   5.810   4.607   2.771 -0.1096  0.3297  0.1039
 6243TIP3   OH218692   3.144   4.107   5.851 -0.5409  0.8651  0.0313
 6243TIP3    H118693   3.099   4.126   5.933 -0.9510  0.4407 -0.0859
 6243TIP3    H218694   3.199   4.183   5.835 -1.9076  1.8395 -0.2824
 6244TIP3   OH218695   5.774   1.118   0.232 -0.3211 -0.4644  0.2120
 6244TIP3    H118696   5.695   1.169   0.251 -0.8503 -0.7091 -1.1763
 6244TIP3    H218697   5.821   1.170   0.166  0.0116 -0.9337  0.0744
 6245TIP3   OH218698   2.691   5.156   3.716 -0.2244  0.1943  0.0428
 6245TIP3    H118699   2.668   5.234   3.767 -1.4054  0.1061 -0.3297
 6245TIP3    H218700   2.612   5.136   3.665  0.0496 -1.2407  0.1300
 6246TIP3   OH218701   6.048   1.771   4.268  0.1948  0.0190  0.3122
 6246TIP3    H118702   6.117   1.809   4.321  0.3348 -0.3107  0.3735
 6246TIP3    H218703   6.051   1.677   4.288 -0.8966  0.1174  1.0454
 6247TIP3   OH218704   2.821   0.170   3.023  0.1350 -0.3026 -0.2368
 6247TIP3    H118705   2.889   0.135   2.967  0.9885  0.2668  0.4179
 6247TIP3    H218706   2.866   0.192   3.105 -0.4638  1.6822 -0.3741
 6248TIP3   OH218707   5.495   0.264   3.193 -0.0808 -0.0906 -0.0063
 6248TIP3    H118708   5.586   0.243   3.214 -0.1797 -0.6195 -0.1144
 6248TIP3    H218709   5.444   0.225   3.264 -0.3367 -1.0047 -0.6808
 6249TIP3   OH218710   0.795   0.954   3.853  0.0086  0.5170  0.2140
 6249TIP3    H118711   0.796   0.883   3.917 -0.1106 -1.0990 -1.5126
 6249TIP3    H218712   0.703   0.962   3.828 -0.1943  2.2028  1.3037
 6250TIP3   OH218713   2.373   3.796   4.211  0.1954  0.0976 -0.3341
 6250TIP3    H118714   2.436   3.735   4.173 -0.1340 -1.5743  1.6012
 6250TIP3    H218715   2.306   3.806   4.144  0.8064 -0.8338 -1.1115
 6251TIP3   OH218716   5.971   0.401   2.858  0.6166 -0.2142  0.4532
 6251TIP3    H118717   5.941   0.310   2.866 -0.5717  0.2256  1.3282
 6251TIP3    H218718   5.946   0.442   2.941  0.3709  1.1139 -0.2473
 6252TIP3   OH218719   1.012   4.294   0.249  0.3419 -1.1395 -0.4588
 6252TIP3    H118720   0.967   4.278   0.166  2.2153 -1.0027 -1.5641
 6252TIP3    H218721   1.047   4.383   0.241  1.3723 -1.4839  0.0693
 6253TIP3   OH218722   5.860   1.418   5.076  0.1321  0.1308  0.2031
 6253TIP3    H118723   5.774   1.393   5.109 -0.1077 -0.3191 -0.7242
 6253TIP3    H218724   5.912   1.338   5.079  0.0663  0.0445 -0.5969
 6254TIP3   OH218725   2.613   4.963   1.240 -0.1029  0.2716 -0.1298
 6254TIP3    H118726   2.633   4.993   1.328 -1.3848 -1.2375  0.7273
 6254TIP3    H218727   2.528   5.003   1.219 -1.1799 -1.5918  0.4977
 6255TIP3   OH218728   3.493   3.207   3.123 -0.0034 -0.5580 -0.3772
 6255TIP3    H118729   3.502   3.278   3.060 -0.3013 -1.7426 -1.7976
 6255TIP3    H218730   3.549   3.233   3.196 -1.4224  1.9519 -0.0583
 6256TIP3   OH218731   4.614   0.631   3.900 -0.0659 -0.5720 -0.2120
 6256TIP3    H118732   4.690   0.689   3.897  0.0410 -0.7163 -0.2779
 6256TIP3    H218733   4.610   0.600   3.990  1.8676 -3.1123 -0.8831
 6257TIP3   OH218734   4.232   6.173   1.567 -0.0123 -0.4573  0.0945
 6257TIP3    H118735   4.245   6.087   1.526  0.7129 -0.6955  0.8150
 6257TIP3    H218736   4.215   6.232   1.493  2.2323 -0.6846 -0.6938
 6258TIP3   OH218737   5.146   0.861   3.969 -0.1468  0.3808 -0.4789
 6258TIP3    H118738   5.125   0.792   4.032  1.0575  1.6678  1.4349
 6258TIP3    H218739   5.196   0.817   3.901  0.8197 -0.6164  0.8276
 6259TIP3   OH218740   3.709   0.497   0.166 -0.1325 -0.4422 -0.3201
 6259TIP3    H118741   3.794   0.541   0.172 -0.5548  0.5670 -1.3490
 6259TIP3    H218742   3.727   0.406   0.189  1.2485 -0.2579 -0.5897
 6260TIP3   OH218743   1.048   0.875   5.218  0.0562  0.6184  0.6261
 6260TIP3    H118744   1.021   0.802   5.273  0.1177 -1.2189 -1.6299
 6260TIP3    H218745   1.141   0.860   5.201 -0.0483  0.9128 -0.2764
 6261TIP3   OH218746   2.363   0.589   4.700 -0.2358  0.5567  0.5271
 6261TIP3    H118747   2.456   0.610   4.692  0.4071 -1.6116  1.5522
 6261TIP3    H218748   2.354   0.504   4.658 -1.5576  0.2907  1.2888
 6262TIP3   OH218749   5.285   3.509   3.502  0.0627 -0.3851  0.3140
 6262TIP3    H118750   5.281   3.528   3.408  0.3145  1.4125  0.6326
 6262TIP3    H218751   5.212   3.449   3.518  0.3018 -1.0917 -1.0970
 6263TIP3   OH218752   2.389   6.512   4.759  0.9354 -0.1589  0.3719
 6263TIP3    H118753   2.351   6.527   4.846  0.0748  1.5066 -0.2477
 6263TIP3    H218754   2.470   6.562   4.760  0.7264  0.1841  0.0829
 6264TIP3   OH218755   0.502   0.905   3.006  0.0689 -0.0547  0.0103
 6264TIP3    H118756   0.510   0.991   2.964  0.9552  1.3271  2.7606
 6264TIP3    H218757   0.592   0.880   3.026 -0.3241 -0.4429  1.3826
 6265TIP3   OH218758   2.943   6.598   3.477 -0.2498 -0.0589 -0.6660
 6265TIP3    H118759   3.003   6.616   3.404 -0.1704  0.7854 -0.4043
 6265TIP3    H218760   2.966   6.510   3.506  0.6951  0.1579 -0.7298
 6266TIP3   OH218761   2.094   2.679   4.234 -0.3021  0.5921 -0.4115
 6266TIP3    H118762   2.091   2.772   4.212 -2.5701  1.0708  1.4622
 6266TIP3    H218763   2.005   2.659   4.265  0.8561 -1.4654  1.9326
 6267TIP3   OH218764   1.357   5.681   4.198 -0.1969 -0.2229 -0.3569
 6267TIP3    H118765   1.314   5.659   4.281  0.9138 -1.0865  0.0187
 6267TIP3    H218766   1.371   5.596   4.155 -1.0078  0.2322 -1.5796
 6268TIP3   OH218767   4.764   0.353   5.095  0.4139  0.2216 -0.5896
 6268TIP3    H118768   4.768   0.298   5.173  0.5296  0.0939 -0.6852
 6268TIP3    H218769   4.852   0.388   5.084  0.4054  0.2165 -0.6794
 6269TIP3   OH218770   0.254   6.249   0.648  0.4241 -0.1603  0.6894
 6269TIP3    H118771   0.219   6.296   0.724  0.0321  2.4682 -0.9696
 6269TIP3    H218772   0.334   6.208   0.679  0.4661  1.1629  2.4491
 6270TIP3   OH218773   1.676   1.331   0.516  0.0599  0.4202  0.3502
 6270TIP3    H118774   1.747   1.283   0.474  0.4246  0.8337  0.4813
 6270TIP3    H218775   1.658   1.404   0.456 -2.1335 -1.1806 -1.0647
 6271TIP3   OH218776   6.959   0.644   0.481  0.0390 -0.1778  0.0169
 6271TIP3    H118777   7.007   0.632   0.399  0.8077 -2.6317  0.7425
 6271TIP3    H218778   6.894   0.574   0.482 -1.0880  0.8262  0.7864
 6272TIP3   OH218779   3.473   5.207   4.326 -0.2356  0.2273 -0.1471
 6272TIP3    H118780   3.510   5.294   4.311 -1.2936  0.9223  1.0346
 6272TIP3    H218781   3.418   5.191   4.249  0.0840  0.5427 -0.4438
 6273TIP3   OH218782   6.286   1.882   0.364 -0.4724  0.3373  0.2684
 6273TIP3    H118783   6.222   1.939   0.407 -1.4586  2.9371 -3.9877
 6273TIP3    H218784   6.234   1.827   0.305  0.9265 -0.8143  0.0489
 6274TIP3   OH218785   1.030   2.911   5.497 -0.6142  0.0919 -0.2138
 6274TIP3    H118786   0.986   2.829   5.521 -0.7145 -0.3286 -1.6889
 6274TIP3    H218787   1.114   2.883   5.460 -0.7387  0.6250 -0.9175
 6275TIP3   OH218788   6.550   2.922   0.237  0.6250 -0.1461  0.6086
 6275TIP3    H118789   6.518   2.852   0.179  0.2039  1.8829 -1.7881
 6275TIP3    H218790   6.580   2.876   0.315 -1.2782 -2.8286 -0.0875
 6276TIP3   OH218791   0.367   3.252   3.434  0.5217 -0.3516  0.1395
 6276TIP3    H118792   0.452   3.245   3.390 -0.3862  0.3955 -1.8855
 6276TIP3    H218793   0.341   3.161   3.450  0.4246 -0.7307 -1.9283
 6277TIP3   OH218794   6.982   4.977   5.515  0.6349  0.4219  0.3841
 6277TIP3    H118795   6.895   4.955   5.549 -0.0509  1.5493 -0.5649
 6277TIP3    H218796   7.002   4.908   5.452  0.5696  0.0089  0.8067
 6278TIP3   OH218797   4.096   2.913   3.544 -0.0952 -0.3302 -0.2514
 6278TIP3    H118798   4.156   2.930   3.472 -0.1464  1.7200  0.1256
 6278TIP3    H218799   4.047   2.995   3.555 -0.2049 -0.6169  1.9842
 6279TIP3   OH218800   5.903   4.235   3.630  0.2048  0.4768  0.7668
 6279TIP3    H118801   5.954   4.253   3.551  1.0245 -0.6187  1.0101
 6279TIP3    H218802   5.819   4.202   3.597  0.4786  0.1864  0.3437
 6280TIP3   OH218803   1.937   1.415   5.248 -0.4883 -0.4469  0.4202
 6280TIP3    H118804   2.003   1.357   5.209 -0.0277  0.8911 -0.8928
 6280TIP3    H218805   1.871   1.426   5.179 -0.6768  0.3986  0.7202
 6281TIP3   OH218806   7.155   1.578   3.413 -0.5965  0.0669  0.7599
 6281TIP3    H118807   7.123   1.527   3.339  0.5044 -0.2985  0.5147
 6281TIP3    H218808   7.209   1.647   3.374 -1.1621  0.7543  1.1543
 6282TIP3   OH218809   2.950   0.425   2.799 -0.4237  0.1759  0.3064
 6282TIP3    H118810   2.862   0.404   2.829 -0.7667 -0.9570 -1.3539
 6282TIP3    H218811   2.966   0.514   2.831 -1.2877 -0.3985  2.4632
 6283TIP3   OH218812   0.637   4.119   2.997  0.1223 -0.4150 -0.2551
 6283TIP3    H118813   0.623   4.061   2.922 -0.2012 -0.6808  0.0068
 6283TIP3    H218814   0.725   4.099   3.027  0.3178 -0.1843 -0.6689
 6284TIP3   OH218815   3.554   6.205   4.676 -0.0880  0.1074 -0.3470
 6284TIP3    H118816   3.516   6.215   4.588 -1.4887  0.4972  0.2820
 6284TIP3    H218817   3.614   6.280   4.685 -1.2025  1.0243 -0.3525
 6285TIP3   OH218818   4.221   4.014   0.544  0.2675 -0.5970  0.2303
 6285TIP3    H118819   4.226   3.921   0.524 -1.0882 -0.5968 -0.1402
 6285TIP3    H218820   4.145   4.046   0.496  0.4092  0.5969  0.7568
 6286TIP3   OH218821   5.360   3.699   0.618 -0.0373  0.8633 -0.1526
 6286TIP3    H118822   5.279   3.648   0.617 -1.0599  2.4117 -0.3975
 6286TIP3    H218823   5.386   3.702   0.710  0.3392 -0.5118 -0.1975
 6287TIP3   OH218824   6.630   3.493   4.951 -0.4835 -0.3563 -0.2191
 6287TIP3    H118825   6.703   3.541   4.913  0.6094 -1.2685  0.6575
 6287TIP3    H218826   6.587   3.556   5.010  0.2759 -0.1281  0.0995
 6288TIP3   OH218827   0.963   3.418   1.977 -0.5363 -0.1597 -0.5720
 6288TIP3    H118828   0.993   3.342   1.927 -1.8575 -0.6451 -0.6710
 6288TIP3    H218829   1.011   3.412   2.059 -0.5214 -1.0340 -0.6295
 6289TIP3   OH218830   2.143   4.069   3.017 -0.1773  0.8500  0.0440
 6289TIP3    H118831   2.215   4.120   3.054  1.3736 -0.3326 -1.2127
 6289TIP3    H218832   2.091   4.043   3.093  0.4759  2.0694  0.9442
 6290TIP3   OH218833   5.165   6.180   1.437  0.6488  0.4227 -0.1168
 6290TIP3    H118834   5.097   6.204   1.375  3.3043  0.6136 -3.2272
 6290TIP3    H218835   5.207   6.264   1.461 -0.2621  0.3477  1.9912
 6291TIP3   OH218836   2.974   3.223   4.157  0.2610 -0.5053 -0.7633
 6291TIP3    H118837   2.932   3.179   4.084  0.3716  0.4126 -1.4042
 6291TIP3    H218838   2.901   3.257   4.209  0.1868 -0.4497 -0.9023
 6292TIP3   OH218839   2.092   0.050   3.280  0.2758 -0.5141 -0.2285
 6292TIP3    H118840   2.105  -0.044   3.294  0.3749 -0.9145 -2.5707
 6292TIP3    H218841   2.175   0.080   3.243 -0.7054 -0.2037 -2.3714
 6293TIP3   OH218842   2.085   4.494   2.529  0.0431 -0.3086 -0.4001
 6293TIP3    H118843   2.138   4.431   2.578 -0.0269 -0.9735 -1.1595
 6293TIP3    H218844   2.027   4.532   2.595  1.7331  0.7638  0.5341
 6294TIP3   OH218845   2.180   3.801   0.464  0.1353  0.1548  0.0041
 6294TIP3    H118846   2.251   3.772   0.521 -0.8411 -0.6824  0.8478
 6294TIP3    H218847   2.100   3.772   0.509 -0.7434  1.0662 -0.9070
 6295TIP3   OH218848   5.171   1.813   2.996 -0.1352  0.2774  0.5044
 6295TIP3    H118849   5.088   1.851   2.968  0.6759  1.3652 -0.5413
 6295TIP3    H218850   5.233   1.837   2.927  0.7827 -1.6131  0.6174
 6296TIP3   OH218851   6.344   5.705   0.695 -0.2346  0.1861 -0.3231
 6296TIP3    H118852   6.408   5.695   0.766 -1.4369 -0.3773  0.7102
 6296TIP3    H218853   6.275   5.642   0.716 -1.3692  1.1285 -1.1579
 6297TIP3   OH218854   1.157   1.759   1.007  0.1330  0.3541  0.4217
 6297TIP3    H118855   1.105   1.748   0.927 -1.1492  0.3321  1.2326
 6297TIP3    H218856   1.126   1.690   1.065  0.8151  0.5811  1.0626
 6298TIP3   OH218857   3.048   3.509   1.687 -0.3717 -0.6227  0.0850
 6298TIP3    H118858   3.131   3.461   1.693 -2.1738 -3.9356  1.0983
 6298TIP3    H218859   3.039   3.529   1.594  1.1332 -0.9622 -0.1711
 6299TIP3   OH218860   0.557   6.128   1.689 -0.2112 -0.0168 -0.1036
 6299TIP3    H118861   0.578   6.221   1.688  1.0732 -0.2840  0.0131
 6299TIP3    H218862   0.462   6.124   1.676 -0.3843  1.3305  0.6371
 6300TIP3   OH218863   3.503   4.510   5.864  0.3311 -0.3417  0.2369
 6300TIP3    H118864   3.584   4.485   5.820 -0.5689 -1.0678 -1.0802
 6300TIP3    H218865   3.520   4.494   5.957  1.3275 -1.5027 -0.1229
 6301TIP3   OH218866   0.961   5.874   1.454  0.2720 -0.1399 -0.2318
 6301TIP3    H118867   0.889   5.924   1.493 -0.2058 -0.1742 -1.0368
 6301TIP3    H218868   0.935   5.783   1.465 -0.4357 -0.1346 -1.6234
 6302TIP3   OH218869   3.186   1.904   3.345 -0.0639 -0.5704 -0.0209
 6302TIP3    H118870   3.134   1.824   3.352  0.1376 -0.8420 -1.3991
 6302TIP3    H218871   3.247   1.900   3.419 -1.2301 -0.7872  0.9808
 6303TIP3   OH218872   0.665   3.415   2.627 -0.3790 -0.0003  0.6138
 6303TIP3    H118873   0.611   3.449   2.556  0.0236 -0.5889  0.0276
 6303TIP3    H218874   0.682   3.492   2.682 -0.0424  0.6197 -0.3403
 6304TIP3   OH218875   6.192   3.024   2.928  0.0236 -0.2721  0.7675
 6304TIP3    H118876   6.130   3.087   2.966 -1.9220  0.2700 -2.8407
 6304TIP3    H218877   6.275   3.072   2.923 -0.2822  0.4280  2.0457
 6305TIP3   OH218878   5.059   2.652   0.624 -0.2140 -0.4519 -0.6481
 6305TIP3    H118879   5.018   2.644   0.711 -1.0802 -0.3664 -1.0403
 6305TIP3    H218880   5.074   2.746   0.614  1.9035 -0.6260  0.2979
 6306TIP3   OH218881   2.628   2.103   5.234 -0.2052 -0.2840 -0.1093
 6306TIP3    H118882   2.621   2.194   5.206 -0.9466 -0.6548 -1.1658
 6306TIP3    H218883   2.550   2.088   5.288  0.1287 -0.1814  0.4085
 6307TIP3   OH218884   0.414   6.600   3.835  0.3869  0.4071 -0.0058
 6307TIP3    H118885   0.377   6.607   3.746  2.4447 -1.1839 -1.0501
 6307TIP3    H218886   0.372   6.672   3.883  1.2818  3.1958 -3.0079
 6308TIP3   OH218887   6.417   0.589   3.369 -0.2960  0.4545 -0.2592
 6308TIP3    H118888   6.428   0.562   3.460 -1.2430  0.3853 -0.1538
 6308TIP3    H218889   6.418   0.507   3.319 -0.2186  0.4584 -0.2641
 6309TIP3   OH218890   1.440   2.222   0.457 -0.2607 -0.0465  0.6055
 6309TIP3    H118891   1.451   2.171   0.537 -1.7624 -2.3260 -0.5167
 6309TIP3    H218892   1.361   2.274   0.472  0.4459  0.8839  1.2101
 6310TIP3   OH218893   5.165   4.140   3.597 -0.8393  0.3627  0.1730
 6310TIP3    H118894   5.201   4.204   3.537 -2.8919  1.1807 -0.2821
 6310TIP3    H218895   5.074   4.129   3.569 -1.0793 -1.3291  1.4233
 6311TIP3   OH218896   3.333   2.734   4.823  0.1061 -0.2633  0.1097
 6311TIP3    H118897   3.341   2.825   4.851  1.7448  0.4061 -2.2914
 6311TIP3    H218898   3.282   2.738   4.742 -1.0503 -1.6932  0.7068
 6312TIP3   OH218899   5.169   1.160   4.608  0.4052 -0.1624  0.1991
 6312TIP3    H118900   5.224   1.124   4.678  0.9685 -1.0501 -0.6819
 6312TIP3    H218901   5.115   1.087   4.580  0.8764 -0.0935 -0.9493
 6313TIP3   OH218902   4.596   5.080   1.376  0.0839 -0.0847 -0.1921
 6313TIP3    H118903   4.523   5.136   1.351 -0.6327 -1.4939 -1.4382
 6313TIP3    H218904   4.670   5.112   1.325  0.2941  1.1398  0.8313
 6314TIP3   OH218905   5.137   0.574   1.424 -0.2254  0.6177  0.1398
 6314TIP3    H118906   5.147   0.524   1.343  0.3166 -0.4558  0.8554
 6314TIP3    H218907   5.148   0.665   1.397  1.9272  0.1545 -0.7113
 6315TIP3   OH218908   4.757   3.281   4.405 -0.0069 -0.1171 -0.2748
 6315TIP3    H118909   4.713   3.308   4.324 -0.7935 -1.7846 -0.4380
 6315TIP3    H218910   4.690   3.235   4.455  1.0144 -0.9093  0.4122
 6316TIP3   OH218911   5.688   3.894   4.329 -0.1893  0.7815  0.2468
 6316TIP3    H118912   5.671   3.977   4.286 -3.4110 -0.0654 -0.4261
 6316TIP3    H218913   5.634   3.897   4.408  2.1294  0.5222  1.9305
 6317TIP3   OH218914   4.949   1.021   3.333  0.0764 -0.2799  0.1729
 6317TIP3    H118915   4.960   1.049   3.242 -1.1523 -1.6488 -0.4346
 6317TIP3    H218916   4.997   0.939   3.339 -0.6819 -0.7062  0.4792
 6318TIP3   OH218917   2.073   0.633   1.895 -0.0251  0.0023 -0.0877
 6318TIP3    H118918   2.149   0.620   1.838  0.0125 -0.3276  0.0360
 6318TIP3    H218919   2.111   0.662   1.978  0.1037 -1.8525  0.5289
 6319TIP3   OH218920   6.641   0.283   4.599 -0.4932 -0.1895  0.4538
 6319TIP3    H118921   6.680   0.315   4.681  2.6753  0.8432 -1.3005
 6319TIP3    H218922   6.693   0.206   4.576 -0.8685 -0.0614 -0.9260
 6320TIP3   OH218923   6.997   2.235   3.570 -0.6456  0.1885  0.4690
 6320TIP3    H118924   6.996   2.139   3.562 -0.2022  0.3212 -1.9023
 6320TIP3    H218925   7.074   2.254   3.625 -1.5118 -0.8159  2.1254
 6321TIP3   OH218926   4.825   2.433   5.642 -0.0559  0.0940 -0.4031
 6321TIP3    H118927   4.795   2.349   5.676 -0.9575  0.2862 -0.7081
 6321TIP3    H218928   4.920   2.425   5.641 -0.0928 -0.6253  0.3332
 6322TIP3   OH218929   6.173   5.414   2.152  0.4512  0.0957  0.3839
 6322TIP3    H118930   6.194   5.433   2.060 -0.8576  1.2126  0.2990
 6322TIP3    H218931   6.104   5.348   2.147  0.3716  0.1665  0.5694
 6323TIP3   OH218932   2.441   2.467   3.879 -0.4916  0.1180 -0.2736
 6323TIP3    H118933   2.467   2.466   3.787 -0.5895  0.4288 -0.3066
 6323TIP3    H218934   2.353   2.504   3.879 -1.0557 -1.1627 -0.1917
 6324TIP3   OH218935   2.937   5.900   0.086  0.3814  0.0194  0.1846
 6324TIP3    H118936   2.993   5.837   0.132  1.0311 -0.1987 -0.8772
 6324TIP3    H218937   2.884   5.846   0.027 -0.0641  0.3411  0.2864
 6325TIP3   OH218938   0.039   0.739   1.204  0.1447  0.5134 -0.7514
 6325TIP3    H118939   0.024   0.827   1.240  0.7689  0.5167 -0.4808
 6325TIP3    H218940  -0.008   0.680   1.263 -0.4324  0.6785 -1.0409
 6326TIP3   OH218941   2.635   2.913   3.594  0.4716 -0.3106  0.3524
 6326TIP3    H118942   2.545   2.901   3.563  0.3491 -0.3318  0.7153
 6326TIP3    H218943   2.690   2.890   3.519  0.2121 -1.7109  0.5700
 6327TIP3   OH218944   2.767   1.400   1.049  0.1842 -0.4192 -0.0720
 6327TIP3    H118945   2.791   1.319   1.094  1.2076 -0.4738 -0.6792
 6327TIP3    H218946   2.789   1.469   1.111  0.4233 -0.5534 -0.0054
 6328TIP3   OH218947   0.176   5.770   3.559  0.1851  0.3837 -0.0148
 6328TIP3    H118948   0.177   5.861   3.532 -0.9984  0.4965  0.2550
 6328TIP3    H218949   0.087   5.740   3.538  1.3173 -1.5055 -2.7075
 6329TIP3   OH218950   4.771   5.969   2.978 -0.1969 -0.1701 -0.0181
 6329TIP3    H118951   4.688   6.017   2.967  0.3309  0.6890 -0.3856
 6329TIP3    H218952   4.753   5.905   3.046 -1.3519 -0.4302 -0.5368
 6330TIP3   OH218953   0.766   2.354   2.967  0.2248  0.4389 -0.2314
 6330TIP3    H118954   0.709   2.414   3.014  0.1270  0.4975 -0.4214
 6330TIP3    H218955   0.741   2.365   2.875 -1.9124 -2.0683 -0.0661
 6331TIP3   OH218956   3.371   0.884   1.572 -0.4688  0.3845 -0.6782
 6331TIP3    H118957   3.347   0.805   1.619 -0.0876  0.2564 -0.6926
 6331TIP3    H218958   3.291   0.911   1.527 -0.3736 -0.5126 -1.4260
 6332TIP3   OH218959   1.109   5.479   2.139 -0.2221 -0.3434 -0.0768
 6332TIP3    H118960   1.059   5.533   2.200 -2.2373 -1.6053 -0.5329
 6332TIP3    H218961   1.179   5.441   2.192 -0.5361  0.3984  0.8915
 6333TIP3   OH218962   6.698   1.961   4.613  0.4824  0.6920 -0.2290
 6333TIP3    H118963   6.618   1.909   4.619  1.1208 -0.3616 -0.7057
 6333TIP3    H218964   6.714   1.989   4.703  0.8502 -1.0608  0.2842
 6334TIP3   OH218965   5.172   2.360   2.495 -0.3158  0.0404 -0.2048
 6334TIP3    H118966   5.247   2.420   2.494  0.8958 -1.4077 -0.9718
 6334TIP3    H218967   5.202   2.285   2.547 -1.1260 -0.6850 -0.7620
 6335TIP3   OH218968   4.428   5.158   4.770 -0.0173  0.8693  0.3619
 6335TIP3    H118969   4.413   5.182   4.861  1.2940 -2.2020  1.5265
 6335TIP3    H218970   4.522   5.137   4.766 -0.3141 -0.3337 -1.3433
 6336TIP3   OH218971   1.447   4.967   0.925  0.2675 -0.7034 -0.1880
 6336TIP3    H118972   1.497   5.028   0.870 -0.9658  1.8445  1.3106
 6336TIP3    H218973   1.397   4.914   0.863  1.4999 -0.2932 -1.5754
 6337TIP3   OH218974   0.722   4.235   5.401  0.3283  0.3163 -0.4610
 6337TIP3    H118975   0.754   4.179   5.330  2.2204  0.9303 -0.1485
 6337TIP3    H218976   0.628   4.241   5.386  0.2032 -2.1617 -1.0470
 6338TIP3   OH218977   3.466   2.947   0.338 -0.0128  0.2493 -0.1371
 6338TIP3    H118978   3.452   3.025   0.391 -0.0033 -0.6692  1.2500
 6338TIP3    H218979   3.427   2.876   0.388  0.9868 -0.8301 -0.8284
 6339TIP3   OH218980   4.088   6.122   0.864 -0.0980  0.2380 -0.1272
 6339TIP3    H118981   3.999   6.119   0.898 -0.3943 -0.4012 -0.9401
 6339TIP3    H218982   4.136   6.178   0.927 -0.8773 -0.0250  0.7162
 6340TIP3   OH218983   5.634   2.633   1.252  0.0623  0.2967 -0.2073
 6340TIP3    H118984   5.635   2.543   1.220  1.3158 -0.1466  0.9501
 6340TIP3    H218985   5.554   2.671   1.217 -0.8322 -1.4779 -0.1865
 6341TIP3   OH218986   3.259   2.374   1.357  0.1427 -0.0029 -0.1502
 6341TIP3    H118987   3.326   2.306   1.347 -0.4570 -0.4099 -1.7746
 6341TIP3    H218988   3.177   2.326   1.359 -0.1920  0.5837  0.4022
 6342TIP3   OH218989   0.026   2.465   4.731  0.1024  0.1907  0.1126
 6342TIP3    H118990   0.090   2.395   4.736 -0.6158 -0.5744 -0.9159
 6342TIP3    H218991   0.061   2.526   4.666  0.3301  0.3702  0.4007
 6343TIP3   OH218992   5.324   1.001   1.275  0.3957 -0.9755  0.1523
 6343TIP3    H118993   5.415   1.014   1.300  0.1187  1.5153  0.1177
 6343TIP3    H218994   5.287   0.948   1.345  1.3013  0.0982  1.5059
 6344TIP3   OH218995   2.208   6.116   4.587  0.4102 -0.3910  0.1063
 6344TIP3    H118996   2.181   6.106   4.496 -0.5496 -1.2333  0.4581
 6344TIP3    H218997   2.142   6.173   4.626  0.3339 -0.7245  0.4739
 6345TIP3   OH218998   6.917   6.013   0.648  0.3748  0.0774 -0.2998
 6345TIP3    H118999   6.903   5.991   0.555 -0.5438 -0.1690 -0.1220
 6345TIP3    H219000   6.834   5.988   0.690  1.4815 -1.7100  0.9328
 6346TIP3   OH219001   0.430   5.888   0.939  0.9758  0.6169 -0.0460
 6346TIP3    H119002   0.454   5.817   0.880  0.3871  3.1976 -3.7275
 6346TIP3    H219003   0.349   5.858   0.980  0.7235 -0.8621 -1.4947
 6347TIP3   OH219004   6.086   0.058   2.533  0.0016 -0.4280 -0.1038
 6347TIP3    H119005   6.042   0.078   2.616 -0.0907 -0.7121 -0.0825
 6347TIP3    H219006   6.031   0.100   2.467  1.1554  1.5135  0.1174
 6348TIP3   OH219007   0.102   2.738   2.395  0.2020  0.1826 -0.2923
 6348TIP3    H119008   0.179   2.683   2.380  1.4246  1.9534 -0.8017
 6348TIP3    H219009   0.129   2.798   2.465 -0.6514  0.9438 -0.5952
 6349TIP3   OH219010   2.538   3.202   3.372  0.4464 -0.4108 -0.0223
 6349TIP3    H119011   2.616   3.147   3.364  0.2068 -0.6609 -0.7316
 6349TIP3    H219012   2.544   3.263   3.298  1.4398  1.5030  1.5316
 6350TIP3   OH219013   2.090   4.229   5.623  0.4607 -0.1541  0.1766
 6350TIP3    H119014   2.141   4.308   5.638 -0.4846 -0.0369  3.4918
 6350TIP3    H219015   2.000   4.259   5.619  0.2006 -0.9267  0.1364
 6351TIP3   OH219016   3.957   2.514   0.395  0.2679 -0.2870 -0.1965
 6351TIP3    H119017   4.033   2.467   0.362  0.5230  0.9090 -1.4263
 6351TIP3    H219018   3.902   2.528   0.317 -0.0650  0.9265  0.2307
 6352TIP3   OH219019   2.421   6.215   4.752  0.3135  0.3161  0.6192
 6352TIP3    H119020   2.380   6.298   4.777 -0.6816  0.0604 -0.1075
 6352TIP3    H219021   2.351   6.166   4.708  1.6756  0.2862 -1.6393
 6353TIP3   OH219022   4.486   6.220   4.190 -0.3740  0.0194  0.0464
 6353TIP3    H119023   4.514   6.186   4.105 -1.5778 -0.1485 -0.2982
 6353TIP3    H219024   4.480   6.143   4.246  0.2596  0.1097  0.2437
 6354TIP3   OH219025   0.037   2.740   1.633  0.5149  0.3846 -0.7563
 6354TIP3    H119026   0.126   2.768   1.616  0.2023  1.1674 -1.1348
 6354TIP3    H219027  -0.003   2.729   1.547  0.2542 -0.0122 -0.5938
 6355TIP3   OH219028   5.701   0.816   1.664  0.0484  0.2148 -0.2316
 6355TIP3    H119029   5.715   0.736   1.716  0.7201  0.8660  0.6260
 6355TIP3    H219030   5.683   0.884   1.729  1.4903  1.1720 -0.7658
 6356TIP3   OH219031   4.461   6.764   3.297 -0.3780 -0.7298 -0.2397
 6356TIP3    H119032   4.390   6.815   3.334  0.0227 -1.3015  1.4494
 6356TIP3    H219033   4.508   6.824   3.240  0.5728  1.1175  2.3057
 6357TIP3   OH219034   0.351   1.302   2.864 -0.0661  0.2230 -0.3984
 6357TIP3    H119035   0.396   1.384   2.847 -1.0225  0.6467 -0.9454
 6357TIP3    H219036   0.417   1.246   2.904  0.5280  1.3369  0.2096
 6358TIP3   OH219037   0.233   4.317   2.832 -0.2606 -0.1010  0.1959
 6358TIP3    H119038   0.284   4.377   2.888 -2.4550  1.2710  0.8385
 6358TIP3    H219039   0.288   4.239   2.826  1.4834  0.9080  1.6367
 6359TIP3   OH219040   5.091   3.448   4.100  0.2158  0.0145 -0.3231
 6359TIP3    H119041   5.174   3.458   4.053  0.0497  0.0354 -0.6161
 6359TIP3    H219042   5.107   3.488   4.186  0.0627  1.3585 -0.8901
 6360TIP3   OH219043   6.992   3.491   4.401 -0.0488 -0.2697 -0.5558
 6360TIP3    H119044   6.940   3.474   4.479 -0.6868 -2.1296 -1.3294
 6360TIP3    H219045   6.964   3.577   4.371 -0.4084  0.0900  0.7760
 6361TIP3   OH219046   2.642   5.821   5.082 -0.4507  0.0392 -0.7319
 6361TIP3    H119047   2.698   5.767   5.026  1.8992 -0.1644  1.6252
 6361TIP3    H219048   2.656   5.910   5.050  0.5154 -0.1162 -0.7661
 6362TIP3   OH219049   3.580   4.325   4.406 -0.2490  0.6228 -0.1288
 6362TIP3    H119050   3.586   4.302   4.314  0.6647 -2.0206  0.4998
 6362TIP3    H219051   3.488   4.310   4.429 -0.2322  0.1467 -0.3640
 6363TIP3   OH219052   0.446   2.906   2.512 -0.5842  0.0494  0.4222
 6363TIP3    H119053   0.406   2.847   2.448  1.0798  0.5018 -1.0997
 6363TIP3    H219054   0.415   2.993   2.487  2.3234  0.6020 -1.7194
 6364TIP3   OH219055   4.421   6.314   2.901  0.4708 -0.2992 -0.4336
 6364TIP3    H119056   4.497   6.364   2.930  1.2901 -1.6578 -0.1804
 6364TIP3    H219057   4.346   6.366   2.930  1.2695  1.4849 -1.4146
 6365TIP3   OH219058   1.968   0.502   0.846 -0.8777  0.8766 -0.1743
 6365TIP3    H119059   2.061   0.511   0.868 -0.5380 -0.5608 -0.8759
 6365TIP3    H219060   1.968   0.477   0.754 -1.7066 -2.4716  0.5712
 6366TIP3   OH219061   3.598   3.434   1.045  0.2584  0.5910 -0.1408
 6366TIP3    H119062   3.588   3.483   0.964 -0.9045 -0.4703 -0.6717
 6366TIP3    H219063   3.622   3.346   1.017  0.0261  0.2605  0.6711
 6367TIP3   OH219064   2.532   3.535   4.400  0.1899  0.3370 -0.5659
 6367TIP3    H119065   2.446   3.570   4.423 -0.7817 -1.8645 -0.6018
 6367TIP3    H219066   2.514   3.472   4.330  2.0149  0.6828 -1.4048
 6368TIP3   OH219067   0.376   1.783   3.760  0.0917  0.1431  0.2915
 6368TIP3    H119068   0.335   1.698   3.778 -1.8413  0.9831  0.0150
 6368TIP3    H219069   0.390   1.822   3.846 -0.2260  0.1108  0.3569
 6369TIP3   OH219070   4.513   3.068   2.115 -0.2054 -0.4536  0.2161
 6369TIP3    H119071   4.496   3.142   2.172  0.3579 -0.2061  0.0716
 6369TIP3    H219072   4.609   3.064   2.108 -0.2374 -1.0409  0.0278
 6370TIP3   OH219073   4.720   6.184   1.949 -0.0134  0.2707 -0.1920
 6370TIP3    H119074   4.722   6.128   1.872 -1.4064  0.1648 -0.1738
 6370TIP3    H219075   4.790   6.149   2.006  1.5234  0.8089 -1.6714
 6371TIP3   OH219076   0.829   1.355   2.849  0.2942 -0.2926  0.5597
 6371TIP3    H119077   0.762   1.424   2.856  0.5555  0.3258 -1.8997
 6371TIP3    H219078   0.894   1.378   2.916 -0.8450  0.3797  1.4801
 6372TIP3   OH219079   0.496   1.502   1.291  0.2109  0.0077  0.0161
 6372TIP3    H119080   0.468   1.418   1.328  0.2591 -0.7327 -1.5559
 6372TIP3    H219081   0.421   1.560   1.304  0.0211 -0.3947  0.7472
 6373TIP3   OH219082   5.301   0.966   4.299  0.4588  0.4480 -0.0216
 6373TIP3    H119083   5.311   1.040   4.240 -0.2772  0.0480 -0.6565
 6373TIP3    H219084   5.224   0.987   4.352 -1.6022 -1.1204 -2.1814
 6374TIP3   OH219085   0.326   2.122   3.844 -0.0164  0.3824  0.4382
 6374TIP3    H119086   0.318   2.047   3.903 -0.3313  0.1516  0.1028
 6374TIP3    H219087   0.299   2.089   3.758  0.7575  0.6315  0.0893
 6375TIP3   OH219088   4.762   3.809   5.346 -0.5304  0.0110  0.1278
 6375TIP3    H119089   4.763   3.757   5.266 -0.8250  0.7351 -0.3535
 6375TIP3    H219090   4.855   3.822   5.367 -0.2821  2.8447 -2.1332
 6376TIP3   OH219091   4.695   3.810   3.634 -0.3390 -0.0062  0.2899
 6376TIP3    H119092   4.779   3.852   3.649 -0.9525  0.9683  1.1137
 6376TIP3    H219093   4.688   3.745   3.704  0.1743 -0.8151 -0.3971
 6377TIP3   OH219094   1.699   3.929   2.828  0.1771 -0.0810  0.4243
 6377TIP3    H119095   1.751   4.008   2.834 -1.1030  0.6909  3.4223
 6377TIP3    H219096   1.757   3.859   2.858  0.9780 -0.1190 -1.1738
 6378TIP3   OH219097   6.687   5.735   1.534 -0.0938  0.3563  0.1682
 6378TIP3    H119098   6.770   5.763   1.495  1.0860 -0.6446  1.7811
 6378TIP3    H219099   6.703   5.644   1.560 -2.1827 -0.3137 -0.6789
 6379TIP3   OH219100   4.944   1.955   2.974 -0.2475  0.3123 -0.6597
 6379TIP3    H119101   4.905   1.965   3.061 -0.4934  0.6446 -0.8064
 6379TIP3    H219102   4.869   1.951   2.915 -0.0580  1.1330 -0.9671
 6380TIP3   OH219103   0.315   1.468   4.746 -0.1150 -0.1067 -0.8931
 6380TIP3    H119104   0.241   1.528   4.737  1.6500  2.4792  0.4687
 6380TIP3    H219105   0.283   1.399   4.804 -0.4620  3.0396  3.0430
 6381TIP3   OH219106   0.291   4.381   4.365  0.6339 -0.1820  0.2925
 6381TIP3    H119107   0.358   4.418   4.308  0.7617 -0.8006  0.0440
 6381TIP3    H219108   0.298   4.432   4.446  0.9448  0.2046  0.0263
 6382TIP3   OH219109   1.214   1.670   2.100 -0.0928  0.2085  0.2489
 6382TIP3    H119110   1.138   1.612   2.100  0.9046 -1.2066 -1.7794
 6382TIP3    H219111   1.282   1.621   2.145  0.1276  0.7575  0.5238
 6383TIP3   OH219112   4.538   0.748   0.685  0.0305  0.5440  0.3985
 6383TIP3    H119113   4.507   0.775   0.771  1.6709 -0.0632  1.2047
 6383TIP3    H219114   4.489   0.669   0.665 -0.3973  0.7212  0.7396
 6384TIP3   OH219115   4.720   3.597   4.228  0.5160  0.4381 -0.6739
 6384TIP3    H119116   4.727   3.503   4.209  2.4201  0.6623 -1.3584
 6384TIP3    H219117   4.641   3.606   4.281 -0.7609 -1.2842 -2.2056
 6385TIP3   OH219118   4.033   2.790   2.311  0.2851  0.2411 -0.1855
 6385TIP3    H119119   4.023   2.728   2.239  0.1000  0.5858 -0.4572
 6385TIP3    H219120   4.125   2.782   2.336  0.7098  1.1258 -1.3775
 6386TIP3   OH219121   3.854   5.829   0.850  0.6081  0.5355 -0.0692
 6386TIP3    H119122   3.811   5.749   0.878 -1.3843  1.3743 -0.5789
 6386TIP3    H219123   3.875   5.814   0.757  0.1172  0.6401 -0.1993
 6387TIP3   OH219124   4.922   1.094   1.010  0.7575  0.1731 -0.6967
 6387TIP3    H119125   5.017   1.100   1.017  0.8342 -0.2630 -1.3629
 6387TIP3    H219126   4.891   1.184   1.025  1.2082  0.1631  0.3966
 6388TIP3   OH219127   0.908   6.094   2.068 -0.6228 -0.0110 -0.4609
 6388TIP3    H119128   0.893   6.070   2.159 -0.2894 -2.3899 -0.9730
 6388TIP3    H219129   0.832   6.148   2.045 -0.3191  1.2826  1.4060
 6389TIP3   OH219130   2.771   1.950   3.430  0.4797 -0.1752 -0.3427
 6389TIP3    H119131   2.706   2.016   3.453 -0.3278 -0.5844 -1.3937
 6389TIP3    H219132   2.831   1.949   3.505  0.0818  1.1938  0.0351
 6390TIP3   OH219133   1.317   4.197   5.370  0.6240  0.0281  0.0632
 6390TIP3    H119134   1.286   4.285   5.393  1.1164  0.5032 -1.0024
 6390TIP3    H219135   1.407   4.211   5.339 -0.0362 -0.4869 -2.3118
 6391TIP3   OH219136   6.450   5.598   4.424 -0.0608 -0.2608  0.8077
 6391TIP3    H119137   6.398   5.657   4.369  0.3995  0.0471  0.6999
 6391TIP3    H219138   6.475   5.651   4.499  0.2732 -0.3527  0.7599
 6392TIP3   OH219139   1.650   6.686   1.747  0.7374  0.0098 -0.4810
 6392TIP3    H119140   1.634   6.630   1.823 -0.0715  1.2361  0.2767
 6392TIP3    H219141   1.575   6.746   1.745  1.2996  0.6998 -1.6016
 6393TIP3   OH219142   6.702   0.311   4.266  0.0039 -0.2478  0.2183
 6393TIP3    H119143   6.686   0.318   4.360  1.3287 -0.7146  0.4924
 6393TIP3    H219144   6.796   0.299   4.258 -0.1410 -0.6622 -1.1456
 6394TIP3   OH219145   0.163   0.158   2.045 -0.0597 -0.2019 -0.0059
 6394TIP3    H119146   0.148   0.151   1.950  1.1769  0.4078 -0.2694
 6394TIP3    H219147   0.135   0.246   2.068 -0.6938 -0.4700  0.2774
 6395TIP3   OH219148   1.834   3.807   4.127  0.3833 -0.4143 -0.1606
 6395TIP3    H119149   1.806   3.716   4.141 -1.6490  0.2910  0.8266
 6395TIP3    H219150   1.833   3.819   4.032  1.0466 -1.5091 -0.3189
 6396TIP3   OH219151   2.258   4.005   1.838  1.0242  0.4162  0.1471
 6396TIP3    H119152   2.303   4.021   1.754 -0.2220 -1.1914 -0.8902
 6396TIP3    H219153   2.191   4.074   1.841  1.0629  0.4760 -0.1947
 6397TIP3   OH219154   6.388   4.961   2.619 -0.4582  0.1214  0.2965
 6397TIP3    H119155   6.422   4.972   2.530 -0.8580  1.5510  0.3008
 6397TIP3    H219156   6.430   5.030   2.670  0.2808 -1.0957  1.4015
 6398TIP3   OH219157   6.197   4.048   3.236 -0.1160  0.5903 -0.2498
 6398TIP3    H119158   6.189   3.954   3.222  0.4595  0.6606 -1.1138
 6398TIP3    H219159   6.179   4.087   3.150 -2.1269  1.3915  0.4629
 6399TIP3   OH219160   6.439   1.322   5.797  0.1374 -0.0416 -0.4523
 6399TIP3    H119161   6.370   1.287   5.853  0.8688 -3.1031 -1.2716
 6399TIP3    H219162   6.514   1.334   5.856 -0.3026  0.7295 -0.0445
 6400TIP3   OH219163   3.253   5.746   0.165  0.1236  0.9429 -0.2271
 6400TIP3    H119164   3.177   5.716   0.115  0.4543 -3.4113  1.4322
 6400TIP3    H219165   3.322   5.755   0.100 -0.7494  0.6223 -1.2346
 6401TIP3   OH219166   3.272   1.733   3.913 -0.5365  0.0434 -0.0803
 6401TIP3    H119167   3.251   1.653   3.865  0.0537 -0.2132  0.0846
 6401TIP3    H219168   3.253   1.712   4.004 -0.9337  0.2869 -0.1011
 6402TIP3   OH219169   6.462   5.054   3.544  0.1353 -0.8003 -0.2158
 6402TIP3    H119170   6.466   5.070   3.450  2.0820  0.9190  0.0763
 6402TIP3    H219171   6.404   5.122   3.578  1.4346  0.2193  0.0552
 6403TIP3   OH219172   3.352   2.730   3.304  0.2509 -0.3307 -0.2738
 6403TIP3    H119173   3.363   2.825   3.303  2.6313 -0.5059  1.0153
 6403TIP3    H219174   3.316   2.709   3.217 -0.0399  1.7073 -0.6890
 6404TIP3   OH219175   6.373   0.689   4.468 -0.6149  0.0075 -0.1172
 6404TIP3    H119176   6.301   0.690   4.406 -0.6029  1.0984 -0.1312
 6404TIP3    H219177   6.337   0.647   4.546 -0.7047 -1.1395 -0.7536
 6405TIP3   OH219178   3.233   6.228   4.236 -0.2685  0.0806 -0.3971
 6405TIP3    H119179   3.203   6.161   4.174 -0.5764  0.7162 -0.9460
 6405TIP3    H219180   3.217   6.311   4.192  1.8759  0.4829 -0.5283
 6406TIP3   OH219181   6.151   6.548   3.214  0.2813 -0.3729  0.3818
 6406TIP3    H119182   6.103   6.466   3.219 -2.2596  0.9684 -0.3264
 6406TIP3    H219183   6.100   6.603   3.154  0.6470  2.4707  2.4326
 6407TIP3   OH219184   0.274   5.196   5.822 -0.2752 -0.2459  0.1607
 6407TIP3    H119185   0.294   5.267   5.761 -0.6546  0.4191  0.7891
 6407TIP3    H219186   0.279   5.116   5.769  1.5707  0.0974 -0.2561
 6408TIP3   OH219187   2.755   6.563   4.369  0.3434  0.4007 -0.2483
 6408TIP3    H119188   2.762   6.499   4.298 -2.1365 -0.1064 -0.1413
 6408TIP3    H219189   2.698   6.520   4.433  1.1231  1.5466  1.2574
 6409TIP3   OH219190  -0.001   0.991   1.299  0.3359 -0.2259 -0.3258
 6409TIP3    H119191  -0.004   1.071   1.248 -0.4144  0.6443  1.0091
 6409TIP3    H219192   0.023   1.020   1.387  2.3510 -1.7540 -0.3192
 6410TIP3   OH219193   5.537   3.782   4.525  0.2333 -0.7180 -0.6175
 6410TIP3    H119194   5.526   3.723   4.600  0.6654 -2.4820 -1.8794
 6410TIP3    H219195   5.451   3.786   4.484  0.2909 -0.7472 -0.7407
 6411TIP3   OH219196   0.488   0.441   5.622 -0.1195 -0.0306  0.5641
 6411TIP3    H119197   0.409   0.392   5.645  0.2987 -0.0264  2.1276
 6411TIP3    H219198   0.495   0.509   5.690  1.3117 -0.1382  0.5568
 6412TIP3   OH219199   5.531   0.572   0.523  0.0626  0.6983 -0.4392
 6412TIP3    H119200   5.472   0.497   0.531 -1.5092  1.8522 -0.7145
 6412TIP3    H219201   5.491   0.640   0.577  0.7904  1.7207 -1.1466
 6413TIP3   OH219202   5.815   3.754   2.749 -1.1047  0.4421  0.1622
 6413TIP3    H119203   5.778   3.809   2.680 -0.4982 -0.4721 -0.9260
 6413TIP3    H219204   5.750   3.756   2.819 -0.5785  3.5407  0.7273
 6414TIP3   OH219205   1.070   3.606   1.281 -0.3589 -0.3901  0.4491
 6414TIP3    H119206   1.133   3.664   1.239  0.0084 -1.0914  0.0049
 6414TIP3    H219207   1.112   3.520   1.279 -0.7861 -0.6270  1.3106
 6415TIP3   OH219208   1.208   6.052   1.565  0.0513  0.8754 -0.1113
 6415TIP3    H119209   1.137   5.994   1.535  1.0684 -0.5779  0.1456
 6415TIP3    H219210   1.271   5.992   1.605  0.5781  2.3359  1.3277
 6416TIP3   OH219211   5.014   2.083   1.476 -0.1095  0.7499  0.0170
 6416TIP3    H119212   4.962   2.160   1.499  0.7005  2.3240 -2.9413
 6416TIP3    H219213   4.951   2.021   1.438 -0.3897  1.0476  0.0013
 6417TIP3   OH219214   5.545   6.737   5.298  0.0606 -0.1484  0.0774
 6417TIP3    H119215   5.550   6.813   5.356 -0.5930 -0.2914  0.3391
 6417TIP3    H219216   5.460   6.697   5.319 -0.7930  0.5078 -1.8528
 6418TIP3   OH219217   4.013   1.330   2.248 -0.1385 -0.0840 -0.0531
 6418TIP3    H119218   4.018   1.249   2.299 -0.2670  0.1579  0.3472
 6418TIP3    H219219   3.989   1.397   2.312  0.2294  0.3180 -0.3309
 6419TIP3   OH219220   4.958   4.456   1.501  0.1887 -0.0937 -0.2166
 6419TIP3    H119221   4.984   4.405   1.578  0.3931 -1.6154 -1.2448
 6419TIP3    H219222   4.863   4.456   1.504  0.1936  0.5820  0.4631
 6420TIP3   OH219223   1.054   0.968   0.205  0.1018 -0.2987  0.8119
 6420TIP3    H119224   1.070   1.008   0.291 -2.7506  1.0301  0.8473
 6420TIP3    H219225   1.052   0.874   0.222 -0.4731 -0.0530  2.2337
 6421TIP3   OH219226   4.033   3.957   3.483  0.2608 -0.8886  0.6275
 6421TIP3    H119227   4.022   3.951   3.578 -1.5323 -0.4304  0.4769
 6421TIP3    H219228   4.078   3.875   3.459 -0.2091 -1.4969  1.7439
 6422TIP3   OH219229   6.450   1.948   3.727 -0.2942 -0.2728 -0.2302
 6422TIP3    H119230   6.532   1.907   3.755 -0.9348 -1.6454 -0.3049
 6422TIP3    H219231   6.477   2.008   3.657  0.4879 -1.8930 -1.3866
 6423TIP3   OH219232   1.170   6.397   4.327 -0.2558 -0.2288  0.6732
 6423TIP3    H119233   1.104   6.448   4.280  0.3291  0.0675  0.1760
 6423TIP3    H219234   1.230   6.366   4.260 -0.1741 -0.9414  1.0608
 6424TIP3   OH219235   7.173   0.068   0.733 -0.1478  0.4945  0.8664
 6424TIP3    H119236   7.248   0.093   0.679 -0.1646 -1.7891 -0.3067
 6424TIP3    H219237   7.159   0.144   0.790  1.9680  1.6590 -0.0371
 6425TIP3   OH219238   5.189   4.477   3.370  0.1654 -0.0162 -0.1752
 6425TIP3    H119239   5.099   4.451   3.388 -0.0112  1.5009  1.3665
 6425TIP3    H219240   5.232   4.396   3.341 -1.6369 -0.7908 -0.7884
 6426TIP3   OH219241   5.523   5.738   5.033  0.4461 -0.5616  0.6112
 6426TIP3    H119242   5.500   5.729   5.126 -0.9477 -2.3347  0.1566
 6426TIP3    H219243   5.444   5.773   4.992  0.7986 -0.4956 -0.0239
 6427TIP3   OH219244   6.034   0.781   0.095 -0.0340 -0.1302  0.5946
 6427TIP3    H119245   6.070   0.707   0.046 -0.4354 -1.2800  1.9672
 6427TIP3    H219246   6.104   0.846   0.094  1.0693 -1.2668  0.9234
 6428TIP3   OH219247   3.619   3.665   0.269 -0.0470  0.1801  0.1251
 6428TIP3    H119248   3.526   3.648   0.258  0.1159  0.3694 -1.9893
 6428TIP3    H219249   3.624   3.734   0.335 -1.4069  0.3203  0.1081
 6429TIP3   OH219250   0.515   3.255   4.269 -0.1908  0.0811  0.5051
 6429TIP3    H119251   0.574   3.229   4.198 -0.0327 -0.2925  0.7740
 6429TIP3    H219252   0.545   3.343   4.293  1.1980 -0.6393  1.5963
 6430TIP3   OH219253   4.612   0.505   1.167 -0.0105 -0.5760 -0.4738
 6430TIP3    H119254   4.538   0.555   1.132 -0.2361  0.0712  0.8328
 6430TIP3    H219255   4.656   0.470   1.090 -0.9767  0.0360 -1.3417
 6431TIP3   OH219256   2.138   0.069   1.582  0.3775 -0.3627  0.3417
 6431TIP3    H119257   2.075   0.131   1.618 -2.1189 -3.7876  2.4408
 6431TIP3    H219258   2.110   0.056   1.491 -1.6016 -1.2128  1.0111
 6432TIP3   OH219259   0.207   3.470   3.448 -0.7063 -0.1737 -0.5308
 6432TIP3    H119260   0.290   3.518   3.442 -0.4889 -0.2164  1.5438
 6432TIP3    H219261   0.228   3.382   3.415 -0.4897  0.3858 -1.9751
 6433TIP3   OH219262   1.867   1.601   0.631  0.0538  0.2857 -0.2524
 6433TIP3    H119263   1.804   1.647   0.576  0.0361  0.1319 -0.3618
 6433TIP3    H219264   1.896   1.527   0.578  0.4184  0.4253 -0.2472
 6434TIP3   OH219265   5.141   2.674   4.218 -0.0906  0.4867  0.0529
 6434TIP3    H119266   5.107   2.763   4.224 -1.7926 -0.0992 -0.5682
 6434TIP3    H219267   5.125   2.648   4.128 -2.0785 -1.3689  0.8508
 6435TIP3   OH219268   4.140   0.979   1.396  0.6699  0.6836 -0.1330
 6435TIP3    H119269   4.080   0.969   1.470  0.2258  1.8542 -0.3214
 6435TIP3    H219270   4.091   0.945   1.321  1.1099 -0.4772  0.0855
 6436TIP3   OH219271   4.511   3.124   4.432 -0.6101  0.4016 -0.6162
 6436TIP3    H119272   4.523   3.054   4.496  1.2359  0.7559 -0.5129
 6436TIP3    H219273   4.465   3.193   4.480 -0.5413  0.0906 -0.1011
 6437TIP3   OH219274   3.996   0.751   2.601 -0.6814 -0.0262 -0.3909
 6437TIP3    H119275   3.984   0.664   2.563 -0.9490  0.6436 -1.9300
 6437TIP3    H219276   3.934   0.807   2.553  0.0825  1.1654 -0.0417
 6438TIP3   OH219277   6.922   4.163   0.241  0.3746 -1.1480 -0.4203
 6438TIP3    H119278   6.884   4.140   0.156 -1.1257  0.1199 -0.1347
 6438TIP3    H219279   6.867   4.118   0.305  1.1992 -1.7039 -0.0934
 6439TIP3   OH219280   5.402   2.588   4.436  0.1241 -0.2927 -0.6023
 6439TIP3    H119281   5.481   2.543   4.406 -1.0804 -1.7373 -1.7914
 6439TIP3    H219282   5.431   2.640   4.511  2.0494 -1.3533 -0.5394
 6440TIP3   OH219283   7.157   3.417   1.318  0.4624  0.1228  0.0188
 6440TIP3    H119284   7.062   3.421   1.317  0.4643  0.3379 -1.9833
 6440TIP3    H219285   7.181   3.458   1.401 -1.1838 -0.5258  0.8702
 6441TIP3   OH219286   6.295   3.610   1.701 -0.6329 -0.2250  0.2954
 6441TIP3    H119287   6.285   3.696   1.742  0.8125  0.6006 -0.9566
 6441TIP3    H219288   6.270   3.624   1.609  0.6597 -0.8165 -0.1860
 6442TIP3   OH219289   5.208   1.613   4.569  0.1604  0.4419  0.4651
 6442TIP3    H119290   5.203   1.708   4.570  0.9959  0.4955  0.1877
 6442TIP3    H219291   5.117   1.584   4.561 -0.1162  1.2061  0.7996
 6443TIP3   OH219292   3.397   5.022   4.583 -0.1905  0.2709 -0.2567
 6443TIP3    H119293   3.369   4.974   4.661 -0.4023 -1.2929 -1.2522
 6443TIP3    H219294   3.410   5.111   4.613  0.2046 -0.3909  1.6866
 6444TIP3   OH219295   1.683   4.700   0.897  0.4530 -0.7720  0.3432
 6444TIP3    H119296   1.682   4.615   0.854  4.9435 -1.1115  0.3669
 6444TIP3    H219297   1.651   4.761   0.830  1.7861 -1.9842 -1.5078
 6445TIP3   OH219298   6.997   0.658   1.580  0.6994 -0.1623 -0.2171
 6445TIP3    H119299   7.075   0.714   1.569  0.1300  0.7215  0.1520
 6445TIP3    H219300   6.979   0.662   1.674 -1.1374  1.5340 -0.5764
 6446TIP3   OH219301   6.234   0.663   3.169 -0.9445  0.4935  0.0954
 6446TIP3    H119302   6.238   0.757   3.155  0.0950  0.3729 -0.4697
 6446TIP3    H219303   6.298   0.646   3.238  2.3249 -0.3281 -2.8949
 6447TIP3   OH219304   1.239   5.456   1.887  0.4801  0.0995  0.6315
 6447TIP3    H119305   1.257   5.509   1.809  0.1190 -0.7929 -0.0729
 6447TIP3    H219306   1.199   5.517   1.949 -0.9280  0.4344 -0.5516
 6448TIP3   OH219307   6.693   4.151   3.597 -0.5106 -0.1659  0.8806
 6448TIP3    H119308   6.681   4.158   3.502 -0.2425  2.0628  0.9765
 6448TIP3    H219309   6.622   4.093   3.626 -0.6096 -0.8596 -0.6484
 6449TIP3   OH219310   2.370   1.460   1.696  0.6515 -0.5138  0.6976
 6449TIP3    H119311   2.324   1.500   1.622 -0.0646 -2.2240  0.1581
 6449TIP3    H219312   2.396   1.533   1.751  0.3511  0.7420 -0.7652
 6450TIP3   OH219313   1.622   3.808   1.350 -0.1211  0.3036  0.2818
 6450TIP3    H119314   1.694   3.847   1.398 -0.0822  1.0305 -0.3383
 6450TIP3    H219315   1.553   3.875   1.351 -0.4138  0.0147  0.0209
 6451TIP3   OH219316   5.893   5.861   1.789  0.0758 -0.5692 -0.2579
 6451TIP3    H119317   5.935   5.942   1.758  0.8774 -0.6653  0.5499
 6451TIP3    H219318   5.812   5.856   1.739 -0.2494  1.0183  0.0634
 6452TIP3   OH219319   4.536   3.206   0.907 -0.0272 -0.0749  0.1005
 6452TIP3    H119320   4.550   3.153   0.828 -0.6783 -1.7224  1.0371
 6452TIP3    H219321   4.474   3.155   0.959 -0.5697  1.5721  1.1360
 6453TIP3   OH219322   5.901   5.751   5.497 -0.0720  0.2197  0.1315
 6453TIP3    H119323   5.826   5.807   5.519  0.0459  0.3346  0.2423
 6453TIP3    H219324   5.882   5.719   5.409  0.5010  1.5215 -0.5031
 6454TIP3   OH219325   2.501   1.696   5.033  0.5793 -0.0853  0.2527
 6454TIP3    H119326   2.414   1.677   4.998  0.5058  0.6559  0.0226
 6454TIP3    H219327   2.496   1.787   5.062  1.0069 -0.3176  1.0834
 6455TIP3   OH219328   3.464   2.046   0.594 -0.3275  0.1798  0.1903
 6455TIP3    H119329   3.543   1.995   0.611  0.2387  1.6881  2.7870
 6455TIP3    H219330   3.495   2.137   0.589 -1.9727  1.0926  3.5129
 6456TIP3   OH219331   4.393   5.138   1.910 -0.7324  0.0650 -0.4221
 6456TIP3    H119332   4.313   5.171   1.949 -0.8094 -0.5183 -0.0747
 6456TIP3    H219333   4.439   5.095   1.982  1.6959  3.5044  0.3777
 6457TIP3   OH219334   3.465   1.289   2.762  0.0727  0.2187 -0.3997
 6457TIP3    H119335   3.375   1.257   2.769 -0.1741  0.9831  0.1215
 6457TIP3    H219336   3.514   1.216   2.724 -0.7707 -0.1973 -0.7169
 6458TIP3   OH219337   3.695   3.705   3.827 -0.1092  0.9923 -0.1027
 6458TIP3    H119338   3.748   3.696   3.748 -1.0963  1.1823 -0.8049
 6458TIP3    H219339   3.704   3.621   3.872  0.9187  1.0804 -0.1097
 6459TIP3   OH219340   4.992   3.277   0.191  0.8604  0.1854  0.5954
 6459TIP3    H119341   4.956   3.229   0.117  1.6506  1.1753 -0.4685
 6459TIP3    H219342   5.016   3.363   0.155  3.7575 -0.1946  1.3107
 6460TIP3   OH219343   1.781   0.450   4.425 -0.0798 -0.1217 -0.1441
 6460TIP3    H119344   1.720   0.497   4.369 -0.9920  1.5113  2.0785
 6460TIP3    H219345   1.863   0.450   4.376 -0.8885  1.0210 -1.5788
 6461TIP3   OH219346   0.954   3.893   1.976 -0.4328  0.4726 -0.3287
 6461TIP3    H119347   1.042   3.854   1.978  0.5807  2.6135 -0.7771
 6461TIP3    H219348   0.896   3.819   1.959  1.2803 -0.9973 -0.0661
 6462TIP3   OH219349   5.705   3.930   5.781 -0.1678 -0.1024 -0.2738
 6462TIP3    H119350   5.679   4.020   5.797 -1.3729 -0.0742 -2.0654
 6462TIP3    H219351   5.623   3.883   5.767  0.5034 -1.0210 -1.3779
 6463TIP3   OH219352   1.284   2.478   3.375 -0.4712 -0.2967  0.3547
 6463TIP3    H119353   1.283   2.564   3.418 -0.9034  0.0990 -0.4170
 6463TIP3    H219354   1.252   2.496   3.286  1.0479 -0.9580 -0.3640
 6464TIP3   OH219355   4.647   4.848   4.163  0.0750 -0.2753 -0.0222
 6464TIP3    H119356   4.738   4.831   4.190  1.0734  0.0495 -2.8589
 6464TIP3    H219357   4.598   4.774   4.198  1.3009 -0.1851  2.0490
 6465TIP3   OH219358   6.375   1.898   2.577  0.0188  0.0367  0.0098
 6465TIP3    H119359   6.441   1.855   2.523 -0.3438 -2.2866  1.2572
 6465TIP3    H219360   6.301   1.912   2.519  0.5049 -0.1620 -0.6706
 6466TIP3   OH219361   3.289   3.885   2.912  0.1224  0.2611 -0.5541
 6466TIP3    H119362   3.299   3.850   2.824  0.2804  0.4157 -0.5991
 6466TIP3    H219363   3.373   3.927   2.930 -0.2998  1.2231 -0.7740
 6467TIP3   OH219364   2.840   3.795   5.447  0.5130  0.1449  0.1732
 6467TIP3    H119365   2.764   3.851   5.426  0.1192 -0.7159 -0.8271
 6467TIP3    H219366   2.916   3.851   5.432  0.1402  0.3151 -1.2336
 6468TIP3   OH219367   5.845   4.546   2.489  0.2951 -0.0276 -0.3784
 6468TIP3    H119368   5.917   4.572   2.431  1.0955  0.4475  0.7712
 6468TIP3    H219369   5.774   4.520   2.430  1.6222 -1.1493 -1.5635
 6469TIP3   OH219370   1.270   2.137   1.008 -0.0011 -0.0902 -0.3277
 6469TIP3    H119371   1.294   2.111   1.097  1.2345  1.0039 -0.2962
 6469TIP3    H219372   1.271   2.233   1.011  1.6668 -0.0075 -1.8886
 6470TIP3   OH219373   5.993   5.850   4.675  0.1890  0.4939  0.3063
 6470TIP3    H119374   5.911   5.818   4.712  1.1359  0.4708  2.5057
 6470TIP3    H219375   6.059   5.826   4.739  1.5903  2.7525 -0.1961
 6471TIP3   OH219376   5.884   3.092   5.518 -0.1922 -0.1505  0.1831
 6471TIP3    H119377   5.863   3.005   5.552 -0.3133 -0.4997 -0.7539
 6471TIP3    H219378   5.819   3.150   5.557 -0.7758 -0.6594 -0.0274
 6472TIP3   OH219379   6.245   0.903   5.095 -0.2531 -0.1685 -0.4133
 6472TIP3    H119380   6.230   0.911   5.001  0.1593  1.4258 -0.3732
 6472TIP3    H219381   6.159   0.883   5.131 -0.7868  1.0889 -0.9469
 6473TIP3   OH219382   0.803   4.299   1.734 -0.3815  0.1178  1.1706
 6473TIP3    H119383   0.799   4.221   1.790 -0.9657  0.1324  1.1545
 6473TIP3    H219384   0.837   4.368   1.791 -1.3253  0.2241  1.6205
 6474TIP3   OH219385   0.903   3.307   2.688 -0.4304 -0.3240  0.0859
 6474TIP3    H119386   0.951   3.376   2.641  1.0142 -0.0632  1.8168
 6474TIP3    H219387   0.811   3.330   2.678  0.0242  2.7358  1.7929
 6475TIP3   OH219388   6.866   1.316   0.521  0.4701  0.1663 -0.0370
 6475TIP3    H119389   6.850   1.391   0.577 -1.3367  0.2749 -0.6345
 6475TIP3    H219390   6.893   1.354   0.437  0.0248  0.1361 -0.1958
 6476TIP3   OH219391   4.919   4.600   0.682  0.2560 -0.2442  0.2390
 6476TIP3    H119392   4.864   4.571   0.754 -0.2730 -1.3518 -0.5820
 6476TIP3    H219393   4.933   4.693   0.699  1.0372 -0.6922  2.3197
 6477TIP3   OH219394   6.227   0.083   3.488 -0.3616  0.7716  0.2831
 6477TIP3    H119395   6.218   0.081   3.393  0.1696 -0.8465  0.2310
 6477TIP3    H219396   6.143   0.049   3.520  0.9824 -3.1512  0.1702
 6478TIP3   OH219397   0.462   6.393   0.344 -0.5796 -0.8280  0.0058
 6478TIP3    H119398   0.449   6.488   0.344  1.7206 -0.4474  0.3575
 6478TIP3    H219399   0.374   6.357   0.336 -1.4874  1.3281 -0.6106
 6479TIP3   OH219400   5.108   4.860   4.221  0.5563 -0.0375 -0.2825
 6479TIP3    H119401   5.158   4.799   4.274  0.0318 -1.3653 -1.2662
 6479TIP3    H219402   5.037   4.808   4.183 -1.0796  1.5953  0.3635
 6480TIP3   OH219403   0.906   5.262   2.233 -0.3729 -0.2011  0.1770
 6480TIP3    H119404   0.941   5.188   2.185  0.6959  0.6414 -0.3800
 6480TIP3    H219405   0.939   5.339   2.186 -0.0705  0.6409  1.7061
 6481TIP3   OH219406   0.319   2.304   3.559 -0.3537  0.0658 -0.0631
 6481TIP3    H119407   0.246   2.244   3.575 -0.3850  0.4483  1.3013
 6481TIP3    H219408   0.331   2.351   3.641  2.2709 -0.8772  0.2070
 6482TIP3   OH219409   0.320   2.961   0.741 -0.2315 -0.0798  0.0215
 6482TIP3    H119410   0.267   2.918   0.808 -1.3489  0.9539 -0.1579
 6482TIP3    H219411   0.348   3.043   0.781 -0.5080  0.3276 -0.6018
 6483TIP3   OH219412   3.112   1.780   1.071  0.2738  0.3290  0.1315
 6483TIP3    H119413   3.087   1.841   1.001 -1.2426  1.0989  1.2853
 6483TIP3    H219414   3.056   1.703   1.056 -1.8697  1.4379  1.8029
 6484TIP3   OH219415   1.893   6.393   2.415 -0.2701 -0.3449  0.3060
 6484TIP3    H119416   1.907   6.343   2.336  1.0071  1.5623 -0.7517
 6484TIP3    H219417   1.800   6.380   2.436 -0.0884 -2.6969 -0.1440
 6485TIP3   OH219418   1.203   2.018   0.652 -0.3080 -0.4226  0.4385
 6485TIP3    H119419   1.139   1.965   0.605 -1.4168 -0.0615  1.5108
 6485TIP3    H219420   1.178   2.109   0.633  1.4195 -0.2056 -1.1740
 6486TIP3   OH219421   3.424   1.802   0.010  0.5492 -0.4246  0.6316
 6486TIP3    H119422   3.355   1.861  -0.021  2.0699  0.0805 -2.1477
 6486TIP3    H219423   3.385   1.757   0.085 -1.6404  2.1168  1.1849
 6487TIP3   OH219424   2.400   5.338   0.609  0.2853  0.3263 -0.0098
 6487TIP3    H119425   2.362   5.391   0.539  0.3626  0.2649 -0.0994
 6487TIP3    H219426   2.326   5.310   0.662  0.2152  0.2752 -0.1352
 6488TIP3   OH219427   6.321   6.052   0.795  0.4305  0.3231 -0.6322
 6488TIP3    H119428   6.345   6.051   0.702 -0.2793  1.1563 -0.8310
 6488TIP3    H219429   6.225   6.050   0.795  0.3776  1.8265  0.0456
 6489TIP3   OH219430   5.355   3.101   1.795 -0.1012  0.2117  0.4237
 6489TIP3    H119431   5.421   3.135   1.734  0.1938 -0.2356  0.4950
 6489TIP3    H219432   5.285   3.067   1.738  0.5931 -1.0632  0.3019
 6490TIP3   OH219433   5.461   2.668   2.783  0.6594 -0.5194 -0.4899
 6490TIP3    H119434   5.499   2.756   2.781  0.9555 -0.6527 -0.7420
 6490TIP3    H219435   5.491   2.627   2.702  1.1490 -1.1240 -0.0085
 6491TIP3   OH219436   3.249   3.166   2.361  0.1773  0.2124  0.1232
 6491TIP3    H119437   3.178   3.102   2.351  0.2231  0.4593 -2.1649
 6491TIP3    H219438   3.206   3.242   2.401 -0.4954 -0.1972  0.2037
 6492TIP3   OH219439   5.630   3.611   1.933  0.7329  0.0815 -0.2595
 6492TIP3    H119440   5.665   3.642   2.017 -0.8333  1.5874 -0.1142
 6492TIP3    H219441   5.541   3.583   1.954  0.3652  0.3678 -1.3980
 6493TIP3   OH219442   6.699   1.549   2.293  0.5847 -0.1496 -0.1540
 6493TIP3    H119443   6.709   1.534   2.199 -1.7609 -0.7051 -0.3693
 6493TIP3    H219444   6.785   1.580   2.321  1.0593  1.0546 -2.6540
 6494TIP3   OH219445   3.075   2.401   2.738  0.2909  0.0262  0.6443
 6494TIP3    H119446   3.079   2.468   2.669  0.4778  1.0340  1.6061
 6494TIP3    H219447   3.070   2.451   2.820  0.8246 -1.1347  1.4130
 6495TIP3   OH219448   0.405   4.735   5.263 -0.0312 -0.9294  0.2898
 6495TIP3    H119449   0.382   4.643   5.249 -3.9663 -0.0159 -0.1559
 6495TIP3    H219450   0.403   4.746   5.358 -1.7901 -0.8631  0.2683
 6496TIP3   OH219451   2.459   2.193   2.192  0.4294  0.0062 -0.0495
 6496TIP3    H119452   2.479   2.246   2.270  0.1786  0.1728 -0.1003
 6496TIP3    H219453   2.537   2.202   2.137  0.1189  0.8656 -0.3612
 6497TIP3   OH219454   2.071   3.828   3.167  0.3843  0.3723 -0.2811
 6497TIP3    H119455   2.147   3.790   3.125 -0.3576 -0.7260 -0.6756
 6497TIP3    H219456   2.105   3.872   3.245  1.2793 -1.1099  0.1967
 6498TIP3   OH219457   6.971   0.052   2.192  0.3592 -0.3372 -0.2094
 6498TIP3    H119458   6.975   0.127   2.251  1.1401  0.5265 -1.3322
 6498TIP3    H219459   7.041  -0.006   2.222  0.7961  0.1311 -0.3030
 6499TIP3   OH219460   4.290   4.978   3.803 -1.1911  0.1574 -0.2110
 6499TIP3    H119461   4.349   5.023   3.743  0.6147 -0.3872  1.0557
 6499TIP3    H219462   4.239   5.048   3.843 -0.6600  0.7612 -0.5686
 6500TIP3   OH219463   0.149   4.837   4.478 -0.8916  0.2433 -0.2340
 6500TIP3    H119464   0.103   4.757   4.451 -1.0257  0.2039  0.0957
 6500TIP3    H219465   0.216   4.805   4.539  0.0412  0.2236 -1.2529
 6501TIP3   OH219466   6.342   4.551   4.590  0.2766  0.2106 -0.4062
 6501TIP3    H119467   6.315   4.462   4.569  1.5444 -0.2752 -0.0346
 6501TIP3    H219468   6.430   4.560   4.552  0.0081  1.4383 -0.7972
 6502TIP3   OH219469   7.222   1.779   4.132 -0.0047  0.1469 -0.1506
 6502TIP3    H119470   7.208   1.697   4.084 -0.8518  0.3526 -0.2706
 6502TIP3    H219471   7.190   1.760   4.220  1.0186 -0.0493  0.2014
 6503TIP3   OH219472   2.211   6.660   1.335  0.1003 -0.1014 -0.5321
 6503TIP3    H119473   2.263   6.662   1.255  0.4955  0.4104 -0.2757
 6503TIP3    H219474   2.263   6.712   1.398 -1.1806  1.2671 -0.5423
 6504TIP3   OH219475   0.397   2.453   0.266  0.2004  0.1340  0.6783
 6504TIP3    H119476   0.460   2.509   0.312 -1.3045  1.2363  1.4682
 6504TIP3    H219477   0.372   2.503   0.188  0.4708 -0.4047  0.2405
 6505TIP3   OH219478   3.803   4.758   2.723  0.0630  0.0773 -0.4937
 6505TIP3    H119479   3.787   4.668   2.698 -1.4046 -0.6000  2.4358
 6505TIP3    H219480   3.875   4.753   2.786 -0.4945  0.8361  0.2294
 6506TIP3   OH219481   4.259   1.172   2.575  0.2333 -0.0092  0.0068
 6506TIP3    H119482   4.270   1.262   2.607 -0.4170 -0.2788  1.0590
 6506TIP3    H219483   4.329   1.160   2.512  0.5626  1.1188  0.1371
 6507TIP3   OH219484   4.830   5.528   1.882  0.7141 -0.1668  0.2444
 6507TIP3    H119485   4.777   5.455   1.916  0.7520 -0.0599  0.5350
 6507TIP3    H219486   4.765   5.593   1.854  0.6842 -0.2322  0.1594
 6508TIP3   OH219487   2.307   0.040   0.765  0.0942  0.2855 -0.0478
 6508TIP3    H119488   2.282  -0.027   0.702  1.3677  0.1301 -0.4193
 6508TIP3    H219489   2.319   0.119   0.713 -2.1807  1.0624  0.4893
 6509TIP3   OH219490   4.881   5.637   4.783 -0.0344  0.6530 -0.0698
 6509TIP3    H119491   4.915   5.715   4.741  0.4027  0.0371 -0.8733
 6509TIP3    H219492   4.872   5.661   4.875 -1.2698  2.1045 -0.5364
 6510TIP3   OH219493   0.954   0.326   4.380 -0.0902 -0.3096 -0.1600
 6510TIP3    H119494   0.967   0.418   4.400  1.8065 -0.9623  2.0880
 6510TIP3    H219495   0.994   0.313   4.294  0.1332  0.8269 -0.2385
 6511TIP3   OH219496   3.522   3.667   2.931 -0.4677 -0.2767 -0.1756
 6511TIP3    H119497   3.430   3.669   2.958  0.2438 -0.2773  2.5917
 6511TIP3    H219498   3.527   3.730   2.859 -2.3748  0.9263  0.6355
 6512TIP3   OH219499   2.881   6.324   1.354 -0.5728  0.4154 -0.0900
 6512TIP3    H119500   2.862   6.231   1.356 -0.8180  0.4563 -0.5335
 6512TIP3    H219501   2.951   6.336   1.419 -0.5642 -0.0683 -0.0121
 6513TIP3   OH219502   4.975   5.143   4.941 -0.1273  0.3897 -0.2851
 6513TIP3    H119503   5.068   5.120   4.931  0.6463  2.6885  0.9985
 6513TIP3    H219504   4.954   5.192   4.862 -0.0686  0.3546 -0.3225
 6514TIP3   OH219505   3.463   2.905   1.993 -0.1912 -0.2861  0.2967
 6514TIP3    H119506   3.377   2.863   2.001  0.1248 -0.9727  0.1675
 6514TIP3    H219507   3.453   2.989   2.038 -0.3807 -1.1775  1.9923
 6515TIP3   OH219508   0.375   5.062   1.830  0.0243  0.2347  0.1926
 6515TIP3    H119509   0.356   5.000   1.760  1.4656  0.6971 -0.6511
 6515TIP3    H219510   0.463   5.040   1.858  0.3497  1.5365  0.2608
 6516TIP3   OH219511   3.174   6.315   1.830 -0.0075  0.0416 -0.4853
 6516TIP3    H119512   3.267   6.312   1.853  0.2759  2.1974 -1.1810
 6516TIP3    H219513   3.137   6.380   1.889 -0.9611 -0.2999 -0.6860
 6517TIP3   OH219514   2.462   0.215   2.616 -0.2684  0.3782  0.0378
 6517TIP3    H119515   2.538   0.164   2.587  0.1424  1.4534 -0.8497
 6517TIP3    H219516   2.461   0.291   2.557 -0.7035  1.5246  1.4847
 6518TIP3   OH219517   5.716   5.921   2.030  0.3992 -0.4649 -0.5102
 6518TIP3    H119518   5.703   5.904   1.936  1.8898  0.9539 -1.0204
 6518TIP3    H219519   5.629   5.944   2.062  0.1692  1.0384 -2.0335
 6519TIP3   OH219520   3.150   5.824   1.277  0.0268 -0.1971 -0.1681
 6519TIP3    H119521   3.170   5.916   1.293 -1.3187 -0.0888  1.0551
 6519TIP3    H219522   3.229   5.777   1.303  0.2586  0.5157  0.4391
 6520TIP3   OH219523   2.620   5.394   4.148 -0.0746  0.0612  0.5851
 6520TIP3    H119524   2.566   5.354   4.080  0.0726 -0.3523  0.7048
 6520TIP3    H219525   2.710   5.387   4.116 -0.0831  0.7108  0.4053
 6521TIP3   OH219526   4.882   4.466   4.274  0.0971  0.1112  0.2805
 6521TIP3    H119527   4.849   4.435   4.358 -0.9974  0.3792 -0.0456
 6521TIP3    H219528   4.977   4.450   4.279 -0.0454 -0.5265  1.2761
 6522TIP3   OH219529   2.288   0.849   4.349 -0.2209 -0.4382 -0.3535
 6522TIP3    H119530   2.239   0.849   4.267  1.6075  2.6316 -1.6333
 6522TIP3    H219531   2.254   0.925   4.397  2.0420  0.8398 -0.6061
 6523TIP3   OH219532   0.627   5.208   2.259 -0.1571 -0.1723 -0.2352
 6523TIP3    H119533   0.624   5.274   2.190 -0.3000  0.5894  0.4819
 6523TIP3    H219534   0.714   5.216   2.297 -0.6921  0.6841  0.8684
 6524TIP3   OH219535   2.791   5.277   2.874 -0.4257 -0.7556 -0.2780
 6524TIP3    H119536   2.863   5.288   2.813 -1.2172 -0.7230 -1.2324
 6524TIP3    H219537   2.830   5.292   2.960  0.8983 -1.6683 -0.6877
 6525TIP3   OH219538   3.801   6.426   3.081  0.0573  0.1565 -0.0722
 6525TIP3    H119539   3.870   6.435   3.016  0.2222 -0.5828 -0.0045
 6525TIP3    H219540   3.807   6.335   3.110  0.1001  0.5158  1.0949
 6526TIP3   OH219541   1.645   4.696   3.337 -0.1042  0.1268  0.2941
 6526TIP3    H119542   1.667   4.775   3.288  0.0516  0.0231  0.1950
 6526TIP3    H219543   1.692   4.626   3.292 -0.9334 -0.1612 -0.1587
 6527TIP3   OH219544   3.532   0.688   5.028  0.5627 -0.0982 -0.1024
 6527TIP3    H119545   3.492   0.720   4.946  0.1011 -1.0633 -0.2629
 6527TIP3    H219546   3.594   0.621   5.000  0.8960  0.0411  0.2960
 6528TIP3   OH219547   1.487   6.655   5.041  0.7197 -0.6715 -0.1635
 6528TIP3    H119548   1.490   6.569   5.084  1.2713 -1.1484 -1.1183
 6528TIP3    H219549   1.511   6.717   5.109  3.2538 -1.5662 -0.1266
 6529TIP3   OH219550   2.858   6.742   2.761  0.2915 -0.7007 -0.4942
 6529TIP3    H119551   2.792   6.801   2.727  1.2979  2.8983  3.1344
 6529TIP3    H219552   2.810   6.678   2.814 -0.4664  0.8947  0.7965
 6530TIP3   OH219553   4.342   1.943   2.573 -0.1945 -0.3797 -0.3287
 6530TIP3    H119554   4.415   1.982   2.524  0.5664 -1.5509 -0.1371
 6530TIP3    H219555   4.280   1.916   2.505  0.3282 -0.9316 -0.5929
 6531TIP3   OH219556   7.037   4.820   0.335  0.5035  0.5505  0.0710
 6531TIP3    H119557   7.046   4.843   0.242  0.5752  1.5396  0.3160
 6531TIP3    H219558   7.111   4.762   0.352 -0.1055 -0.5031 -0.7462
 6532TIP3   OH219559   1.688   2.391   2.780  0.3611 -0.2570  0.1661
 6532TIP3    H119560   1.732   2.339   2.712 -0.7125 -0.4983 -0.3841
 6532TIP3    H219561   1.639   2.326   2.831 -1.1680  0.1987 -0.6577
 6533TIP3   OH219562   3.963   1.989   2.928  0.1877  0.4896  0.0208
 6533TIP3    H119563   3.911   1.912   2.953 -0.4248  0.3263 -1.6138
 6533TIP3    H219564   3.996   1.967   2.840  2.0420  1.0925  0.5243
 6534TIP3   OH219565   4.656   0.630   0.309 -0.1343  0.1859  0.2521
 6534TIP3    H119566   4.610   0.634   0.225  0.9809 -2.2220 -0.5827
 6534TIP3    H219567   4.595   0.583   0.366  0.2131 -0.6909 -0.0808
 6535TIP3   OH219568   2.504   1.244   1.904  0.3198  0.1609 -0.4215
 6535TIP3    H119569   2.499   1.166   1.849 -1.7822 -0.1943  0.1908
 6535TIP3    H219570   2.474   1.316   1.848 -2.5918 -0.3224  0.3492
 6536TIP3   OH219571   3.381   6.290   3.350  0.6638  0.0773  0.2267
 6536TIP3    H119572   3.448   6.347   3.388 -1.3702  1.3239  2.2180
 6536TIP3    H219573   3.325   6.349   3.300 -0.1438 -0.5565  0.3537
 6537TIP3   OH219574   1.362   6.147   2.973 -0.5136 -0.0310 -0.2888
 6537TIP3    H119575   1.362   6.201   3.052 -1.8293  0.9006 -0.8723
 6537TIP3    H219576   1.331   6.206   2.904 -2.6753 -1.6537 -0.8319
 6538TIP3   OH219577   1.351   0.947   3.349  0.2727  0.2502 -0.1572
 6538TIP3    H119578   1.440   0.965   3.381  0.2264  0.1793  0.0109
 6538TIP3    H219579   1.302   0.923   3.427  0.0889  0.3501 -0.2409
 6539TIP3   OH219580   4.999   0.912   0.452  0.4311  0.3272 -0.0414
 6539TIP3    H119581   4.971   0.845   0.514 -2.2383  0.1786 -1.2894
 6539TIP3    H219582   4.949   0.894   0.372  0.7058  2.9407 -0.9006
 6540TIP3   OH219583   6.105   5.523   3.775 -0.0943  0.1613  0.2392
 6540TIP3    H119584   6.184   5.476   3.802 -0.2430  0.2455  0.8406
 6540TIP3    H219585   6.134   5.614   3.764  0.0839  0.0263 -0.4300
 6541TIP3   OH219586   0.823   4.630   2.085 -0.4672 -0.5552  0.3692
 6541TIP3    H119587   0.856   4.679   2.160 -0.4390  1.0637 -0.6639
 6541TIP3    H219588   0.901   4.596   2.042 -0.4913 -1.6323  1.1356
 6542TIP3   OH219589   3.763   3.236   0.971  0.3015 -0.8799  0.3747
 6542TIP3    H119590   3.754   3.276   0.884 -1.0759  0.1956  0.9777
 6542TIP3    H219591   3.718   3.151   0.962 -0.8774 -0.2763  0.3231
 6543TIP3   OH219592   2.928   1.819   2.210 -0.3978  0.2688  0.1526
 6543TIP3    H119593   2.946   1.840   2.119  0.0520 -0.5792  0.0310
 6543TIP3    H219594   3.013   1.823   2.253 -0.4771 -0.1148  0.3583
 6544TIP3   OH219595   2.822   3.546   4.051 -0.2242  0.2377  0.1021
 6544TIP3    H119596   2.906   3.592   4.045 -0.0333 -0.0289  0.6621
 6544TIP3    H219597   2.823   3.485   3.978  1.3449 -1.8057  1.7326
 6545TIP3   OH219598   2.844   4.208   2.998 -0.5332 -0.1825 -0.3192
 6545TIP3    H119599   2.846   4.131   3.055  0.1101 -0.7442 -1.0788
 6545TIP3    H219600   2.756   4.244   3.010 -0.1758  0.1629  1.5895
 6546TIP3   OH219601   2.534   3.420   4.914 -0.0718  0.0145 -0.2745
 6546TIP3    H119602   2.625   3.428   4.885  0.0771 -1.6927 -0.3849
 6546TIP3    H219603   2.541   3.397   5.007 -0.3758 -0.4604 -0.3670
 6547TIP3   OH219604   1.542   6.343   4.588 -0.4811 -0.2457  0.6227
 6547TIP3    H119605   1.516   6.351   4.496 -3.1241  2.2044  1.4239
 6547TIP3    H219606   1.605   6.414   4.602  0.5514 -1.1237  0.5682
 6548TIP3   OH219607   0.757   3.549   3.368 -0.3585 -0.4336  0.0305
 6548TIP3    H119608   0.701   3.526   3.441 -2.8501 -0.4500 -1.7739
 6548TIP3    H219609   0.752   3.474   3.309  0.8460 -0.0366 -0.6282
 6549TIP3   OH219610   3.024   2.062   5.167  0.7030  0.4342 -0.1202
 6549TIP3    H119611   2.996   2.117   5.240 -0.9289 -0.6215  0.1018
 6549TIP3    H219612   3.016   2.118   5.090 -1.0214  0.5025  0.0861
 6550TIP3   OH219613   0.387   2.664   0.075 -0.2007 -0.1070 -0.5328
 6550TIP3    H119614   0.333   2.606   0.020  0.9348  0.1641 -2.0126
 6550TIP3    H219615   0.327   2.731   0.106 -1.0342 -0.6977 -0.8351
 6551TIP3   OH219616   1.822   1.267   1.598  0.0082 -0.6290 -0.0341
 6551TIP3    H119617   1.737   1.224   1.593 -0.5849  0.6342 -1.9731
 6551TIP3    H219618   1.815   1.326   1.673 -0.8703 -0.4913 -0.2143
 6552TIP3   OH219619   1.075   2.105   0.264  0.0478 -0.1881  0.1252
 6552TIP3    H119620   1.042   2.049   0.334 -0.6302 -0.6201 -0.5257
 6552TIP3    H219621   1.046   2.193   0.288  0.7730 -0.1515  0.9419
 6553TIP3   OH219622   5.780   0.365   0.405 -0.4668  0.0162  0.4159
 6553TIP3    H119623   5.780   0.383   0.499 -0.4661  2.3682  0.0151
 6553TIP3    H219624   5.692   0.386   0.376 -0.5212 -0.8704 -0.1078
 6554TIP3   OH219625   1.108   1.267   5.308 -0.0660 -0.1228 -0.4087
 6554TIP3    H119626   1.092   1.312   5.391 -1.3298 -0.0275 -0.6763
 6554TIP3    H219627   1.108   1.174   5.331  0.5645 -0.0581 -0.1519
 6555TIP3   OH219628   5.235   1.831   3.278  0.1429 -0.4777 -0.0582
 6555TIP3    H119629   5.189   1.895   3.332 -0.3364 -1.6276  0.9427
 6555TIP3    H219630   5.206   1.850   3.188  1.1002  1.5825 -0.0016
 6556TIP3   OH219631   5.307   4.880   1.732  0.3932 -0.0039 -0.1894
 6556TIP3    H119632   5.228   4.839   1.697  0.1983  1.5300 -1.6843
 6556TIP3    H219633   5.276   4.962   1.770  0.9109 -0.6904  1.8882
 6557TIP3   OH219634   3.809   5.494   5.416  0.1239 -0.4971 -0.1719
 6557TIP3    H119635   3.756   5.429   5.371 -0.9480  1.5605 -2.1281
 6557TIP3    H219636   3.872   5.524   5.350  0.4627  0.5509  0.5848
 6558TIP3   OH219637   0.268   4.081   0.627 -0.4986 -0.4783  0.3984
 6558TIP3    H119638   0.275   3.995   0.586  1.0333 -0.5954  0.8689
 6558TIP3    H219639   0.243   4.140   0.556 -1.4260 -1.2653  0.0460
 6559TIP3   OH219640   5.492   3.023   0.277 -0.0175  0.4788 -0.2669
 6559TIP3    H119641   5.578   2.985   0.259  0.4762  0.1713  2.3113
 6559TIP3    H219642   5.466   2.984   0.361 -1.4600  2.5544  0.3327
 6560TIP3   OH219643   3.100   0.262   5.707  0.5821 -0.1027 -0.2897
 6560TIP3    H119644   3.019   0.244   5.658 -0.0489 -0.0647  0.6988
 6560TIP3    H219645   3.162   0.293   5.641  0.1032 -1.0876 -1.2251
 6561TIP3   OH219646   4.874   0.741   5.397  0.5253 -0.0978  0.1871
 6561TIP3    H119647   4.884   0.708   5.308 -3.4996 -0.3591 -0.3811
 6561TIP3    H219648   4.855   0.834   5.386 -1.7809 -0.4663  0.4934
 6562TIP3   OH219649   0.000   5.161   2.899 -0.0813 -0.4953  0.5264
 6562TIP3    H119650   0.080   5.163   2.847  1.5930  0.2769  2.9458
 6562TIP3    H219651   0.023   5.206   2.980 -2.9623 -0.3542  1.3821
 6563TIP3   OH219652   4.362   3.343   4.549  0.7093 -0.4120  0.1942
 6563TIP3    H119653   4.278   3.348   4.504  1.5168 -0.0914 -1.3367
 6563TIP3    H219654   4.339   3.342   4.642 -0.9279  1.2151 -0.1339
 6564TIP3   OH219655   7.151   6.193   0.102  0.3018 -0.2554 -0.0738
 6564TIP3    H119656   7.138   6.147   0.019 -0.3135  0.5949 -0.4588
 6564TIP3    H219657   7.186   6.278   0.077  0.1793 -0.0212  0.5379
 6565TIP3   OH219658   4.968   6.487   1.585  0.2156 -0.2298 -0.0735
 6565TIP3    H119659   4.995   6.464   1.496 -0.4813  2.2293 -1.0131
 6565TIP3    H219660   5.002   6.576   1.598  0.3769 -0.5691  2.1778
 6566TIP3   OH219661   3.930   4.513   1.205  0.4831  0.4078 -0.2560
 6566TIP3    H119662   3.871   4.582   1.176 -2.7480 -2.3139 -0.7937
 6566TIP3    H219663   3.931   4.519   1.300  1.1002  1.7712 -0.3320
 6567TIP3   OH219664   1.499   6.097   2.639 -0.7210  0.1859 -0.3193
 6567TIP3    H119665   1.443   6.020   2.651 -0.5862  0.4040  2.3137
 6567TIP3    H219666   1.451   6.168   2.682  1.2827  0.4800  1.5846
 6568TIP3   OH219667   0.584   3.858   4.703 -0.2633  0.0253 -0.1747
 6568TIP3    H119668   0.548   3.938   4.740 -0.6297  0.0121 -0.4993
 6568TIP3    H219669   0.646   3.827   4.769  0.0250  0.6767 -0.1284
 6569TIP3   OH219670   1.395   6.744   0.396  0.0024 -0.1790 -0.0369
 6569TIP3    H119671   1.319   6.755   0.338 -0.1338  0.8950  0.3177
 6569TIP3    H219672   1.361   6.697   0.472 -0.3963  0.5843  0.2672
 6570TIP3   OH219673   3.202   3.304   5.623  0.7032 -0.9588  0.3102
 6570TIP3    H119674   3.145   3.328   5.696 -0.2075 -2.3557  0.1076
 6570TIP3    H219675   3.145   3.307   5.546  1.0158 -1.8455  0.0204
 6571TIP3   OH219676   5.740   3.663   2.193  0.2344  0.1637  1.2043
 6571TIP3    H119677   5.790   3.737   2.161  0.3612 -0.3998  0.0486
 6571TIP3    H219678   5.806   3.603   2.230  0.4010 -0.4196  0.0012
 6572TIP3   OH219679   0.643   2.989   0.178 -0.2507  0.8080 -0.1478
 6572TIP3    H119680   0.662   2.929   0.106 -1.0632 -0.2326  0.4807
 6572TIP3    H219681   0.583   2.941   0.234 -0.9267  2.2198  0.3809
 6573TIP3   OH219682   3.666   5.644   4.645  0.0072  0.0533 -0.0890
 6573TIP3    H119683   3.681   5.738   4.658  1.3739 -0.1628  0.0715
 6573TIP3    H219684   3.703   5.627   4.558  2.7858 -0.8982  1.1624
 6574TIP3   OH219685   4.977   3.812   0.685 -0.3623 -0.8984 -0.1756
 6574TIP3    H119686   4.910   3.842   0.625  1.1643  0.2575 -1.3789
 6574TIP3    H219687   5.034   3.756   0.632 -0.2965 -1.7812  0.7903
 6575TIP3   OH219688   2.347   5.169   4.366  0.1092  0.3555  0.0346
 6575TIP3    H119689   2.354   5.124   4.281 -0.7275  0.2030  0.0412
 6575TIP3    H219690   2.266   5.136   4.404 -0.5816  1.9488  0.0108
 6576TIP3   OH219691   6.389   1.622   0.277 -0.1596 -0.3881  0.0617
 6576TIP3    H119692   6.294   1.605   0.276 -0.3614  0.5923  1.1534
 6576TIP3    H219693   6.396   1.714   0.255  0.5731 -0.5206 -0.2650
 6577TIP3   OH219694   5.191   2.426   4.014  0.3758 -0.1586  0.1658
 6577TIP3    H119695   5.155   2.497   3.962  0.3550 -0.8011 -0.7165
 6577TIP3    H219696   5.162   2.346   3.969  1.4894 -0.7092  0.3903
 6578TIP3   OH219697   5.546   2.542   4.893 -0.0836  0.0069  0.1748
 6578TIP3    H119698   5.567   2.602   4.822 -0.2956  2.0073  1.7208
 6578TIP3    H219699   5.623   2.544   4.950 -0.7718  0.1658  1.1184
 6579TIP3   OH219700   2.665   5.896   5.816 -0.3606 -0.0005 -0.1806
 6579TIP3    H119701   2.646   5.944   5.736  1.1347  1.3391  0.2189
 6579TIP3    H219702   2.718   5.822   5.787 -0.0900  0.3055 -0.4721
 6580TIP3   OH219703   0.762   5.825   2.302 -0.5602 -0.1054  0.0480
 6580TIP3    H119704   0.734   5.734   2.310 -0.7545 -0.1530 -0.9791
 6580TIP3    H219705   0.709   5.860   2.230 -0.5511  0.8408  0.4917
 6581TIP3   OH219706   1.168   5.095   0.889  0.1433  0.2209 -0.4138
 6581TIP3    H119707   1.177   5.105   0.795  0.4471  1.4828 -0.2641
 6581TIP3    H219708   1.252   5.059   0.918  0.1203  0.0194 -0.5994
 6582TIP3   OH219709   0.193   0.703   5.298  0.1422 -0.5592 -0.2033
 6582TIP3    H119710   0.166   0.698   5.390  1.6858  0.8924  0.3926
 6582TIP3    H219711   0.266   0.641   5.292  1.0129  0.4228 -0.0328
 6583TIP3   OH219712   3.535   3.894   0.846 -0.2619  0.0800 -0.0733
 6583TIP3    H119713   3.457   3.850   0.811 -0.5576  1.1699 -0.8256
 6583TIP3    H219714   3.537   3.979   0.802  1.5847 -0.0729 -0.4008
 6584TIP3   OH219715   5.461   3.051   4.228  0.0869 -0.3219  0.4100
 6584TIP3    H119716   5.432   3.005   4.307  1.7858  1.2035  2.0356
 6584TIP3    H219717   5.382   3.092   4.194 -0.8923 -1.9652  0.6192
 6585TIP3   OH219718   1.922   5.706   3.774 -0.3745  0.1612  0.0655
 6585TIP3    H119719   1.849   5.729   3.716 -0.4406  0.3068  0.2074
 6585TIP3    H219720   1.888   5.635   3.828  0.3740 -1.5292 -1.5564
 6586TIP3   OH219721   2.857   3.350   3.854 -0.1490  0.6442 -0.1742
 6586TIP3    H119722   2.881   3.258   3.866 -0.5498  0.7199  1.5537
 6586TIP3    H219723   2.762   3.348   3.837 -0.2838  0.7524  0.5183
 6587TIP3   OH219724   6.036   4.693   5.337 -0.0409 -0.2567  0.0356
 6587TIP3    H119725   6.051   4.783   5.365  0.5708 -0.3802  0.1148
 6587TIP3    H219726   5.941   4.681   5.345  0.0055  0.0133  1.1372
 6588TIP3   OH219727   3.990   3.088   1.726  0.1784  0.0147 -0.1360
 6588TIP3    H119728   4.074   3.117   1.761 -0.4919  0.8206  0.8766
 6588TIP3    H219729   3.963   3.016   1.784 -0.0477  0.0918 -0.1420
 6589TIP3   OH219730   6.567   0.827   3.389 -0.4592  0.7210 -0.0951
 6589TIP3    H119731   6.557   0.883   3.312 -2.9632  1.4035  0.6198
 6589TIP3    H219732   6.511   0.751   3.371 -0.2188  0.3636  0.6102
 6590TIP3   OH219733   3.278   0.085   3.284  0.1392 -0.0229  0.1478
 6590TIP3    H119734   3.227   0.114   3.359  1.6360  0.2687  1.0899
 6590TIP3    H219735   3.351   0.146   3.279  0.6299 -0.6667 -0.9044
 6591TIP3   OH219736   0.986   2.328   3.994 -0.2442 -0.1646 -0.0669
 6591TIP3    H119737   0.904   2.354   4.035  0.6488 -0.7854  2.2832
 6591TIP3    H219738   0.998   2.236   4.020  1.2486 -0.0488 -0.2620
 6592TIP3   OH219739   4.941   2.487   2.624  0.0162  0.4942 -0.1209
 6592TIP3    H119740   5.009   2.452   2.567 -1.1612 -0.9405 -0.6761
 6592TIP3    H219741   4.858   2.459   2.585 -0.9341  2.1875  0.5446
 6593TIP3   OH219742   2.840   1.920   4.447  0.0059 -0.6827  0.3475
 6593TIP3    H119743   2.790   1.988   4.403  0.6068  0.0308  0.7421
 6593TIP3    H219744   2.903   1.890   4.382  1.4799  0.9756  0.9035
 6594TIP3   OH219745   5.912   6.250   5.711 -0.6866  0.4327 -0.2725
 6594TIP3    H119746   5.825   6.249   5.672  0.2271  2.6199 -2.6971
 6594TIP3    H219747   5.972   6.260   5.636  1.4952  0.9830  1.4245
 6595TIP3   OH219748   3.450   4.944   1.927  0.2480  0.0380 -0.1112
 6595TIP3    H119749   3.392   4.869   1.940  0.2024 -0.4910 -2.7529
 6595TIP3    H219750   3.450   4.990   2.011 -2.5644 -0.9269  0.5113
 6596TIP3   OH219751   3.909   1.135   3.589 -0.8477 -0.4762  0.3236
 6596TIP3    H119752   3.978   1.096   3.643  1.1099  1.4717 -0.5668
 6596TIP3    H219753   3.838   1.071   3.589  0.9474 -2.5985  1.3407
 6597TIP3   OH219754   0.624   4.644   2.493  0.4324  0.4611  0.2829
 6597TIP3    H119755   0.694   4.707   2.510  1.4677  0.0600 -2.0499
 6597TIP3    H219756   0.615   4.643   2.398 -1.1019 -1.2688  0.3824
 6598TIP3   OH219757   2.173   1.103   1.589  0.0134  0.2478 -0.6231
 6598TIP3    H119758   2.101   1.059   1.635 -0.1983  0.6073 -0.6084
 6598TIP3    H219759   2.246   1.100   1.650 -0.2806  0.7691 -0.2318
 6599TIP3   OH219760   1.677   5.831   2.384  1.2449  0.1370  0.0501
 6599TIP3    H119761   1.757   5.805   2.338  1.3838  0.2711  0.2175
 6599TIP3    H219762   1.656   5.756   2.440  0.7170 -0.2917 -0.7074
 6600TIP3   OH219763   0.631   2.778   0.018  0.2909 -0.1144  0.0620
 6600TIP3    H119764   0.546   2.744  -0.012  1.6305 -1.3973 -2.6598
 6600TIP3    H219765   0.671   2.703   0.062  0.8457 -0.2037 -0.5820
 6601TIP3   OH219766   4.475   0.881   4.809  0.6750  0.2548 -0.5440
 6601TIP3    H119767   4.447   0.946   4.874 -1.0563  0.7006 -1.6621
 6601TIP3    H219768   4.458   0.797   4.851 -1.6490  0.5127 -0.7851
 6602TIP3   OH219769   4.857   2.095   4.585  0.0979 -0.0578 -0.3418
 6602TIP3    H119770   4.820   2.153   4.518 -2.9884 -0.0158  1.2349
 6602TIP3    H219771   4.791   2.028   4.599  1.5411 -1.2613  1.2482
 6603TIP3   OH219772   1.490   1.983   1.669  0.4165 -0.2187 -0.1497
 6603TIP3    H119773   1.435   2.037   1.611  2.2657  1.2698 -0.6090
 6603TIP3    H219774   1.441   1.979   1.751 -0.6046  0.6588 -0.6858
 6604TIP3   OH219775   6.160   4.869   4.842  0.4347 -0.3017 -0.2763
 6604TIP3    H119776   6.197   4.782   4.856 -0.1870 -0.4541  0.5346
 6604TIP3    H219777   6.232   4.929   4.862  0.4051 -0.6032  0.8342
 6605TIP3   OH219778   5.693   3.628   4.303  0.4278  0.2135  0.4327
 6605TIP3    H119779   5.681   3.584   4.388  1.4794 -0.5824  0.1867
 6605TIP3    H219780   5.697   3.721   4.324  0.2218  0.0523  1.2050
 6606TIP3   OH219781   6.074   6.140   4.076  0.4716 -0.1169  0.0781
 6606TIP3    H119782   6.166   6.166   4.088  0.4199  0.1767 -0.1554
 6606TIP3    H219783   6.028   6.182   4.149  0.1426  1.7528 -1.1376
 6607TIP3   OH219784   5.362   6.612   2.084  0.4139  0.1439 -0.6495
 6607TIP3    H119785   5.445   6.657   2.099  0.1486  0.0447  1.3299
 6607TIP3    H219786   5.357   6.546   2.152 -1.7458  0.8190 -0.0748
 6608TIP3   OH219787   7.000   4.505   0.144 -0.2524 -0.1627  0.0071
 6608TIP3    H119788   6.939   4.444   0.183  0.2308 -0.4009  0.3978
 6608TIP3    H219789   6.948   4.554   0.080 -1.0903  0.3580  1.0613
 6609TIP3   OH219790   2.793   1.025   4.810 -0.2691 -0.1331 -0.3832
 6609TIP3    H119791   2.810   1.073   4.729  2.1855  0.5580  0.4328
 6609TIP3    H219792   2.768   1.093   4.873  0.5037 -0.2684  0.0871
 6610TIP3   OH219793   0.081   1.418   5.791 -0.3546 -0.1969  0.1061
 6610TIP3    H119794  -0.011   1.392   5.797 -0.8208  0.7010 -2.2320
 6610TIP3    H219795   0.079   1.513   5.779  0.7817 -0.3054 -1.1976
 6611TIP3   OH219796   3.684   2.843   2.210  0.4879  0.3931  0.0860
 6611TIP3    H119797   3.622   2.780   2.173  0.8051  0.4776 -0.6004
 6611TIP3    H219798   3.730   2.878   2.134  0.7410  1.0020  0.5193
 6612TIP3   OH219799   3.177   0.656   1.534  0.7535  0.4238 -0.1493
 6612TIP3    H119800   3.160   0.633   1.442 -1.2517  2.2145 -0.3175
 6612TIP3    H219801   3.111   0.608   1.583 -0.0901  1.7019  0.0116
 6613TIP3   OH219802   3.530   1.516   3.956 -0.0861  0.3864 -0.1164
 6613TIP3    H119803   3.486   1.544   4.036  0.6157 -1.0404  0.8224
 6613TIP3    H219804   3.623   1.531   3.974  0.0856 -0.0517 -0.5995
 6614TIP3   OH219805   6.515   2.219   5.859 -0.0060  0.6350 -0.0140
 6614TIP3    H119806   6.486   2.310   5.858 -1.3764  0.2188 -0.4352
 6614TIP3    H219807   6.570   2.210   5.781 -1.0219  0.7614 -0.7603
 6615TIP3   OH219808   0.430   3.865   0.925 -0.4532  0.4209 -0.5323
 6615TIP3    H119809   0.399   3.790   0.976 -2.1870  0.6206 -1.2497
 6615TIP3    H219810   0.352   3.899   0.882  0.3014  2.6024 -0.2974
 6616TIP3   OH219811   3.671   2.328   5.827  0.1049  0.0164 -0.1155
 6616TIP3    H119812   3.613   2.275   5.882 -0.3333  0.0054 -0.5812
 6616TIP3    H219813   3.629   2.413   5.822  0.2612  0.0870 -0.2467
 6617TIP3   OH219814   2.923   2.680   5.769 -0.0395  0.0836  0.0354
 6617TIP3    H119815   2.849   2.706   5.714 -0.5805  1.6327  1.4045
 6617TIP3    H219816   2.948   2.760   5.815  1.6912 -0.7046  0.5439
 6618TIP3   OH219817   5.156   6.320   4.147 -0.0996  0.3396  0.7754
 6618TIP3    H119818   5.139   6.382   4.076 -3.5271  1.3189  2.2263
 6618TIP3    H219819   5.093   6.249   4.133  0.6156 -0.5030  1.6815
 6619TIP3   OH219820   1.898   1.617   2.515  0.1352 -0.0742 -0.0383
 6619TIP3    H119821   1.822   1.560   2.499 -0.8437  0.8404  1.1356
 6619TIP3    H219822   1.921   1.601   2.606  1.4722 -0.4294 -0.4179
 6620TIP3   OH219823   1.518   3.998   2.610 -0.1106 -0.5080  0.1326
 6620TIP3    H119824   1.592   3.975   2.666  0.8118  0.4880 -0.6450
 6620TIP3    H219825   1.557   4.041   2.534 -1.4170 -0.8152 -0.7557
 6621TIP3   OH219826   3.606   4.154   4.772  0.2941 -0.1930  0.6141
 6621TIP3    H119827   3.654   4.073   4.786 -0.6235 -1.2984 -2.0313
 6621TIP3    H219828   3.672   4.216   4.739  0.6162 -0.5066  0.6660
 6622TIP3   OH219829   6.205   3.103   4.437 -0.0206  0.2048 -0.5974
 6622TIP3    H119830   6.116   3.090   4.403  0.3385 -0.6181 -1.2661
 6622TIP3    H219831   6.252   3.025   4.409  0.5795  0.0174  0.8953
 6623TIP3   OH219832   1.892   5.970   4.702 -0.0313 -0.2285  0.6899
 6623TIP3    H119833   1.845   6.007   4.628 -0.2340 -0.3764  0.7454
 6623TIP3    H219834   1.938   6.045   4.741 -0.2035 -0.0885  0.6264
 6624TIP3   OH219835   6.437   1.387   2.278 -0.3858  0.2318 -0.1161
 6624TIP3    H119836   6.410   1.422   2.363 -3.4211 -1.7463 -0.1186
 6624TIP3    H219837   6.531   1.371   2.289 -0.5533  0.5601  2.6778
 6625TIP3   OH219838   2.122   2.383   4.400 -0.5279  0.4976 -0.1223
 6625TIP3    H119839   2.038   2.350   4.369 -0.4793 -0.9924  1.2279
 6625TIP3    H219840   2.101   2.426   4.483  0.1524 -0.7587  0.7298
 6626TIP3   OH219841   5.882   0.096   4.267 -0.5038 -0.1327 -0.1270
 6626TIP3    H119842   5.927   0.105   4.351 -0.5308  0.1889 -0.1475
 6626TIP3    H219843   5.944   0.131   4.203 -0.2154 -0.9778 -0.3203
 6627TIP3   OH219844   1.557   5.056   5.768  0.4531  0.2080  0.0680
 6627TIP3    H119845   1.463   5.051   5.756  0.4107  0.3541  0.3419
 6627TIP3    H219846   1.572   5.141   5.810  0.7471  0.3954 -0.4020
 6628TIP3   OH219847   3.502   4.570   3.715 -0.6079  0.0368 -0.0292
 6628TIP3    H119848   3.506   4.631   3.788  1.1687 -0.4011  0.2808
 6628TIP3    H219849   3.583   4.584   3.666 -0.4246 -1.6242 -0.2917
 6629TIP3   OH219850   0.615   3.819   1.881  0.1813  0.7491  0.6123
 6629TIP3    H119851   0.697   3.774   1.859 -0.7911 -1.3005  0.9282
 6629TIP3    H219852   0.576   3.764   1.949 -2.5410  0.3722 -1.1070
 6630TIP3   OH219853   0.948   5.594   0.557  0.2611  0.1047  0.3037
 6630TIP3    H119854   0.972   5.685   0.543 -2.9251  1.0841  0.5589
 6630TIP3    H219855   0.969   5.578   0.649 -1.0393  1.2861  0.8415
 6631TIP3   OH219856   1.979   2.232   1.592 -0.0570 -0.0724  0.0712
 6631TIP3    H119857   2.053   2.260   1.538  0.4020  0.9697  1.1868
 6631TIP3    H219858   2.015   2.162   1.646 -0.1864 -0.2889 -0.1202
 6632TIP3   OH219859   0.698   4.958   5.446 -0.3832 -0.5475  0.3872
 6632TIP3    H119860   0.746   4.875   5.445  0.7820  0.0930  1.2694
 6632TIP3    H219861   0.723   4.999   5.529 -1.1521  0.5725  0.0811
 6633TIP3   OH219862   6.387   6.726   1.536  0.4019  0.1568  0.8361
 6633TIP3    H119863   6.317   6.791   1.543  0.5584  0.4823 -0.3710
 6633TIP3    H219864   6.466   6.778   1.519  0.7871 -0.2587  1.3402
 6634TIP3   OH219865   1.259   3.728   0.003  0.5722 -0.2191 -0.7047
 6634TIP3    H119866   1.234   3.652   0.056  2.4939  0.3646  1.2082
 6634TIP3    H219867   1.349   3.709  -0.024  0.6649  0.8512 -1.1933
 6635TIP3   OH219868   4.169   6.348   0.690  0.0863 -0.0853 -0.1910
 6635TIP3    H119869   4.261   6.348   0.664  0.1960 -0.8432  0.1745
 6635TIP3    H219870   4.158   6.266   0.739 -0.7313  0.0985 -0.0584
 6636TIP3   OH219871   3.834   5.395   1.529 -0.1550 -0.7449 -0.0261
 6636TIP3    H119872   3.739   5.384   1.530 -0.4155  0.8931 -1.7857
 6636TIP3    H219873   3.850   5.462   1.462  2.2216 -0.7676  0.4366
 6637TIP3   OH219874   5.770   1.966   0.710 -0.1239 -0.1070 -0.3298
 6637TIP3    H119875   5.769   2.045   0.656  1.5226 -0.9237 -1.6620
 6637TIP3    H219876   5.853   1.970   0.757 -1.6974  0.7744  2.5676
 6638TIP3   OH219877   7.118   3.461   0.662  0.4415 -0.1663  0.0769
 6638TIP3    H119878   7.062   3.411   0.603 -1.1330  2.5187 -0.8977
 6638TIP3    H219879   7.196   3.482   0.609 -0.2042  0.8088 -0.5123
 6639TIP3   OH219880   1.092   5.864   1.199 -0.5261  0.0066 -0.0789
 6639TIP3    H119881   1.026   5.918   1.155 -0.4345  0.8464  0.7700
 6639TIP3    H219882   1.055   5.850   1.287 -0.5775 -1.3853 -0.3050
 6640TIP3   OH219883   7.188   2.975   1.439 -0.0423  0.4474  0.5893
 6640TIP3    H119884   7.243   3.001   1.513  1.5625 -1.0858  0.0077
 6640TIP3    H219885   7.108   3.026   1.449  0.8504  1.5754  2.3779
 6641TIP3   OH219886   5.140   2.134   3.148  0.0717 -0.3551  0.0108
 6641TIP3    H119887   5.222   2.162   3.106 -0.1152  1.4271  0.7288
 6641TIP3    H219888   5.088   2.098   3.076  0.4483  1.0062 -0.9867
 6642TIP3   OH219889   4.935   6.272   0.140  0.0240  0.7263 -0.1535
 6642TIP3    H119890   5.023   6.236   0.140  0.3953  1.5534  1.6079
 6642TIP3    H219891   4.900   6.250   0.053  0.9693 -1.9604  0.0612
 6643TIP3   OH219892   2.150   1.471   1.861  0.3190  0.2700  0.5232
 6643TIP3    H119893   2.145   1.386   1.905  0.1481  0.7061  1.3579
 6643TIP3    H219894   2.220   1.460   1.796  0.7671 -0.2895  1.0925
 6644TIP3   OH219895   7.090   3.657   1.121 -0.0059 -0.2233  0.0356
 6644TIP3    H119896   7.141   3.672   1.200  0.2074  3.3943 -0.6114
 6644TIP3    H219897   7.001   3.685   1.144  0.1578  1.3290 -1.0483
 6645TIP3   OH219898   3.268   2.931   1.592 -0.4560 -0.2626  0.8074
 6645TIP3    H119899   3.362   2.914   1.602 -0.6451 -0.9129  1.5152
 6645TIP3    H219900   3.258   3.024   1.614 -0.0342 -0.2734  1.0465
 6646TIP3   OH219901   6.254   6.234   1.615 -0.6281  0.4025  0.0554
 6646TIP3    H119902   6.342   6.201   1.631 -1.0008 -0.2461  0.8396
 6646TIP3    H219903   6.261   6.328   1.626  0.0642  0.4006 -0.3465
 6647TIP3   OH219904   5.826   4.030   0.476 -0.2805  0.2483  0.2176
 6647TIP3    H119905   5.907   4.072   0.506 -0.9022  0.7870  1.1912
 6647TIP3    H219906   5.763   4.046   0.547 -1.0086 -0.8754 -0.1467
 6648TIP3   OH219907   1.996   2.694   3.700  0.4039  0.7830 -0.6703
 6648TIP3    H119908   2.083   2.719   3.669  1.8328 -1.1972  1.4444
 6648TIP3    H219909   1.973   2.617   3.646  0.5790  0.4722 -0.3017
 6649TIP3   OH219910   2.835   1.511   3.991 -0.1626 -0.3713 -0.4781
 6649TIP3    H119911   2.759   1.569   3.995  0.1299  0.0453 -0.8385
 6649TIP3    H219912   2.901   1.554   4.046  0.6877  0.6056 -2.1655
 6650TIP3   OH219913   5.935   0.984   0.590 -0.1612 -0.6307  0.4071
 6650TIP3    H119914   5.902   1.072   0.611  0.0196 -0.3762 -0.3640
 6650TIP3    H219915   5.863   0.926   0.613 -0.5054 -0.2269  0.3642
 6651TIP3   OH219916   0.241   5.489   4.635  0.0548 -0.0768  0.1175
 6651TIP3    H119917   0.274   5.512   4.722 -2.3373  2.7814  0.4337
 6651TIP3    H219918   0.244   5.393   4.632  1.5750 -0.1974  2.7315
 6652TIP3   OH219919   3.648   5.013   4.063 -0.4194  0.2661 -0.0569
 6652TIP3    H119920   3.593   4.959   4.006 -1.6271  1.5989 -0.1969
 6652TIP3    H219921   3.691   4.950   4.121 -0.7475 -0.9477 -1.0889
 6653TIP3   OH219922   4.591   0.015   0.595 -0.2835  0.7027  0.0464
 6653TIP3    H119923   4.558   0.077   0.660 -0.7650  0.0118  0.4734
 6653TIP3    H219924   4.515  -0.039   0.572 -0.0198  0.6773 -0.7862
 6654TIP3   OH219925   4.859   6.286   3.582 -0.3429  0.2097  0.1755
 6654TIP3    H119926   4.852   6.213   3.520 -1.1919  1.3289 -1.1279
 6654TIP3    H219927   4.768   6.302   3.610 -0.1001  0.4273  0.8534
 6655TIP3   OH219928   0.387   1.867   1.888 -0.6980 -0.3551  0.5085
 6655TIP3    H119929   0.394   1.928   1.814 -0.9010  0.3710  1.0808
 6655TIP3    H219930   0.305   1.820   1.872 -1.7063  1.0774  1.1903
 6656TIP3   OH219931   0.583   2.477   4.236 -0.5870 -0.1169  0.0063
 6656TIP3    H119932   0.503   2.482   4.185 -1.0837  0.2032  0.7935
 6656TIP3    H219933   0.555   2.493   4.326  0.4974  1.1088  0.1613
 6657TIP3   OH219934   1.647   5.041   0.730  0.2388  0.4182 -0.6263
 6657TIP3    H119935   1.612   5.052   0.642  0.7114 -1.5995 -1.1076
 6657TIP3    H219936   1.721   4.981   0.720 -0.3071 -0.6619  1.2533
 6658TIP3   OH219937   5.413   4.030   5.317 -0.1590  0.5631 -0.0130
 6658TIP3    H119938   5.422   4.115   5.273  1.9434  0.2822 -0.2267
 6658TIP3    H219939   5.457   4.042   5.401 -2.0081  0.3708  1.0267
 6659TIP3   OH219940   5.538   4.373   1.461 -0.2958  0.5114  0.2444
 6659TIP3    H119941   5.589   4.450   1.484  0.7949 -0.5731  1.6310
 6659TIP3    H219942   5.448   4.405   1.452  0.2107  2.0072  0.3132
 6660TIP3   OH219943   1.636   6.152   4.989  0.3134 -0.0450 -0.2197
 6660TIP3    H119944   1.692   6.222   4.957 -1.9329  2.6615  1.3819
 6660TIP3    H219945   1.565   6.148   4.925  0.6685 -1.3057 -0.5713
 6661TIP3   OH219946   0.317   1.385   3.224 -0.0149  0.1252  0.3902
 6661TIP3    H119947   0.388   1.415   3.167 -0.2859  1.3185  0.6541
 6661TIP3    H219948   0.349   1.403   3.312  0.2382 -1.3510  0.6278
 6662TIP3   OH219949   7.009   1.953   3.543 -0.2594 -0.6230 -0.2321
 6662TIP3    H119950   7.003   1.878   3.603  1.1370  0.1459  0.9410
 6662TIP3    H219951   6.989   1.916   3.457  1.4835 -2.6284  0.1276
 6663TIP3   OH219952   3.253   2.311   0.112  0.3068  0.2114 -0.0796
 6663TIP3    H119953   3.272   2.375   0.180 -0.7645  0.9226 -0.4275
 6663TIP3    H219954   3.335   2.301   0.064  0.1574  2.3470 -0.8742
 6664TIP3   OH219955   7.075   3.327   4.007 -0.7385  0.4025  0.0289
 6664TIP3    H119956   7.023   3.338   3.927 -0.9167  3.0595  0.4326
 6664TIP3    H219957   7.124   3.408   4.015 -0.0743 -0.1476  2.1851
 6665TIP3   OH219958   1.790   0.069   0.836  0.4877 -0.0227  0.1742
 6665TIP3    H119959   1.873   0.082   0.882  0.3936  0.4537  0.2203
 6665TIP3    H219960   1.808   0.098   0.746  0.7080 -1.0718 -0.1356
 6666TIP3   OH219961   0.017   5.605   4.491 -0.1502  0.2500 -0.3223
 6666TIP3    H119962   0.096   5.570   4.533  1.1681  0.8312 -2.1568
 6666TIP3    H219963   0.044   5.621   4.400 -2.0497  1.6463 -0.6976
 6667TIP3   OH219964   6.292   3.467   2.977 -0.0548  0.1822  0.1129
 6667TIP3    H119965   6.257   3.546   2.935  0.8154  0.7213  0.3724
 6667TIP3    H219966   6.218   3.429   3.024 -0.0367  1.9888  1.7134
 6668TIP3   OH219967   4.879   2.626   1.731  0.4268 -0.4392 -0.4247
 6668TIP3    H119968   4.845   2.610   1.819  1.2774 -1.4645 -0.2670
 6668TIP3    H219969   4.932   2.706   1.740 -0.8925  0.4507 -0.4045
 6669TIP3   OH219970   3.605   6.191   4.957 -0.2139 -0.4581  0.2484
 6669TIP3    H119971   3.563   6.197   4.871  0.9528 -1.3964 -0.4239
 6669TIP3    H219972   3.606   6.281   4.989 -1.2276 -0.1797 -0.4374
 6670TIP3   OH219973   3.968   2.883   0.991  0.3325  0.1551 -0.1260
 6670TIP3    H119974   3.878   2.877   0.960 -0.6739 -0.1419  2.6345
 6670TIP3    H219975   4.015   2.927   0.920 -1.8904  0.0194 -1.7628
 6671TIP3   OH219976   6.857   0.431   0.852 -0.1394 -0.0478  0.1617
 6671TIP3    H119977   6.835   0.388   0.769  0.0024  1.6102 -0.7937
 6671TIP3    H219978   6.949   0.409   0.867  0.2778  0.8579 -0.9402
 6672TIP3   OH219979   5.142   3.053   3.374  0.1340  0.0230 -0.7596
 6672TIP3    H119980   5.056   3.010   3.375  0.4917 -0.7659 -2.1292
 6672TIP3    H219981   5.160   3.072   3.466 -1.8414  0.9031 -0.4916
 6673TIP3   OH219982   2.827   5.210   4.882 -0.0278  0.8170 -0.3428
 6673TIP3    H119983   2.853   5.249   4.799  1.3407 -0.1132 -0.3810
 6673TIP3    H219984   2.736   5.183   4.868  0.1044  0.8930 -1.4613
 6674TIP3   OH219985   1.907   4.857   0.752 -0.5717 -0.1497  0.3990
 6674TIP3    H119986   1.844   4.828   0.686  0.1438 -2.1516  0.5131
 6674TIP3    H219987   1.935   4.776   0.795 -0.3202  1.0058  2.5530
 6675TIP3   OH219988   1.758   2.718   0.653  0.1766  0.0429  0.0548
 6675TIP3    H119989   1.779   2.726   0.745 -0.6721  0.5073  0.2225
 6675TIP3    H219990   1.673   2.673   0.651  0.5411 -0.6424 -0.5293
 6676TIP3   OH219991   5.917   3.624   1.632 -0.6503 -0.2358 -0.0981
 6676TIP3    H119992   5.957   3.704   1.665 -1.5648  0.0854  0.2764
 6676TIP3    H219993   5.900   3.571   1.710  0.9331 -1.2902 -0.4315
 6677TIP3   OH219994   5.340   1.873   4.860  0.0941  0.0071  0.0569
 6677TIP3    H119995   5.404   1.909   4.921  0.0318 -0.8331  0.6390
 6677TIP3    H219996   5.346   1.778   4.873  0.3526 -0.2111 -1.5221
 6678TIP3   OH219997   3.102   1.872   2.733  0.1777 -0.4108  0.3334
 6678TIP3    H119998   3.140   1.841   2.651 -0.0540  0.6807 -0.1983
 6678TIP3    H219999   3.016   1.905   2.708  0.3423  0.4708  0.9149
 6679TIP3   OH220000   0.357   5.222   1.311  0.0550  0.5906 -0.5594
 6679TIP3    H120001   0.368   5.316   1.295  2.4013  0.6585  0.9139
 6679TIP3    H220002   0.355   5.214   1.406  3.0559 -1.0494 -0.5159
 6680TIP3   OH220003   2.983   4.808   0.941 -0.4388 -0.7311 -0.4495
 6680TIP3    H120004   2.932   4.754   1.000 -0.5072  0.8181  0.9979
 6680TIP3    H220005   2.956   4.898   0.961  1.4330  0.0095 -1.0021
 6681TIP3   OH220006   5.383   0.956   1.997 -0.6281  0.0034 -0.8857
 6681TIP3    H120007   5.356   0.866   2.013 -2.2604  0.2815 -1.8328
 6681TIP3    H220008   5.414   0.988   2.082 -0.2712 -1.3409 -0.4850
 6682TIP3   OH220009   2.483   2.351   2.406  0.1128  0.3318 -0.0280
 6682TIP3    H120010   2.555   2.412   2.420  0.8861 -0.4864 -0.3445
 6682TIP3    H220011   2.494   2.285   2.474 -0.0514 -0.0498 -0.3659
 6683TIP3   OH220012   2.462   5.602   5.843  0.3870 -0.2019  0.4613
 6683TIP3    H120013   2.524   5.581   5.773  0.2268  0.8964 -0.0414
 6683TIP3    H220014   2.377   5.573   5.809  0.3096  0.3283  0.1798
 6684TIP3   OH220015   0.388   6.103   5.375  0.2233 -0.3032  0.1751
 6684TIP3    H120016   0.296   6.084   5.394  0.9169 -2.1584  1.9537
 6684TIP3    H220017   0.384   6.167   5.304 -2.4195 -2.3791 -1.7787
 6685TIP3   OH220018   2.172   3.513   2.370 -0.4225 -0.0162 -0.3431
 6685TIP3    H120019   2.227   3.555   2.436 -0.0686  0.8732 -1.1599
 6685TIP3    H220020   2.151   3.427   2.406 -0.1681  0.4132  0.8690
 6686TIP3   OH220021   3.835   3.324   2.979 -0.2406  0.0131  0.0121
 6686TIP3    H120022   3.803   3.261   2.914  2.4467 -2.0756  0.5277
 6686TIP3    H220023   3.850   3.404   2.929  1.2634 -1.3676 -1.9093
 6687TIP3   OH220024   2.608   6.215   0.186  0.1294  0.4577  0.3121
 6687TIP3    H120025   2.686   6.189   0.138  0.1584 -0.2452  0.7192
 6687TIP3    H220026   2.639   6.229   0.276 -0.0695  0.9631  0.3055
 6688TIP3   OH220027   2.215   4.889   4.993  0.3166  0.1254 -0.1751
 6688TIP3    H120028   2.285   4.887   4.928  0.7520  0.3573  0.2833
 6688TIP3    H220029   2.141   4.846   4.950  0.3101  1.0696 -1.1586
 6689TIP3   OH220030   5.483   4.019   1.295 -0.0438  0.8263 -0.8760
 6689TIP3    H120031   5.428   4.083   1.250  0.5230  0.4236 -2.2131
 6689TIP3    H220032   5.429   3.988   1.368 -0.4700  2.5100 -0.4438
 6690TIP3   OH220033   5.988   3.030   3.757  0.6882 -0.1791  0.0914
 6690TIP3    H120034   5.910   3.074   3.722  1.1414  2.9214  2.5264
 6690TIP3    H220035   5.955   2.946   3.790 -1.9011  1.3549  1.8019
 6691TIP3   OH220036   6.852   3.800   2.738  0.2070  0.0762  0.2434
 6691TIP3    H120037   6.817   3.798   2.649 -0.6078  0.0634  0.5587
 6691TIP3    H220038   6.930   3.744   2.734 -0.5806 -1.0282 -0.1527
 6692TIP3   OH220039   0.499   4.556   0.376  0.4153 -0.4428  0.4233
 6692TIP3    H120040   0.548   4.637   0.392  2.0411 -1.3418  0.1912
 6692TIP3    H220041   0.475   4.525   0.463 -0.4331  0.3972  0.5053
 6693TIP3   OH220042   2.587   6.452   4.535  0.0406 -0.5015 -0.2686
 6693TIP3    H120043   2.509   6.436   4.588  0.4706  1.9100  1.2181
 6693TIP3    H220044   2.621   6.364   4.515 -0.9463 -1.5496  2.2475
 6694TIP3   OH220045   6.200   1.621   0.789 -0.1050  0.8765 -0.0159
 6694TIP3    H120046   6.113   1.634   0.752  0.1713 -1.1535 -1.5797
 6694TIP3    H220047   6.258   1.619   0.713  0.5961 -2.7143  0.4067
 6695TIP3   OH220048   6.037   5.893   4.227 -0.2962  0.0708 -0.0563
 6695TIP3    H120049   5.941   5.892   4.227 -0.3616 -1.6035 -2.0753
 6695TIP3    H220050   6.060   5.957   4.159 -0.0046  0.2362  0.1983
 6696TIP3   OH220051   2.837   2.839   5.075  0.3614  0.1963  0.2159
 6696TIP3    H120052   2.901   2.785   5.028 -0.6936 -1.1543  0.2865
 6696TIP3    H220053   2.859   2.826   5.167  0.2388  0.0265  0.2234
 6697TIP3   OH220054   4.409   6.736   1.165 -0.5542 -0.2505  0.3555
 6697TIP3    H120055   4.352   6.748   1.241 -1.0204 -0.7272  0.0852
 6697TIP3    H220056   4.375   6.658   1.122 -0.4359  0.1496 -0.4717
 6698TIP3   OH220057   4.350   1.428   5.525  0.0551 -0.0578 -0.5274
 6698TIP3    H120058   4.402   1.434   5.605  1.0256  0.7282 -1.1856
 6698TIP3    H220059   4.385   1.352   5.479 -0.5079 -0.5142 -0.2159
 6699TIP3   OH220060   4.296   4.941   5.083 -0.7035 -0.1538  0.7630
 6699TIP3    H120061   4.267   4.966   5.171  0.8840  1.0648  1.0066
 6699TIP3    H220062   4.383   4.904   5.097  0.5174  2.0302 -0.4202
 6700TIP3   OH220063   6.007   4.285   0.278  0.8836 -0.8084  0.2348
 6700TIP3    H120064   6.060   4.258   0.203  0.9428  0.9439 -0.3849
 6700TIP3    H220065   6.053   4.249   0.354  1.4527 -1.6218 -0.4720
 6701TIP3   OH220066   6.504   0.489   3.638 -0.0891 -0.1148  0.1202
 6701TIP3    H120067   6.557   0.430   3.586 -0.5743 -0.5950  0.1632
 6701TIP3    H220068   6.508   0.453   3.727  1.2551  1.0507  0.5697
 6702TIP3   OH220069   2.360   1.239   1.036 -0.2142 -0.0832  0.8179
 6702TIP3    H120070   2.393   1.152   1.062  0.2284 -0.1656  0.0252
 6702TIP3    H220071   2.324   1.225   0.948  0.3164  0.6393  0.4774
 6703TIP3   OH220072   0.618   3.946   3.932  0.0064 -0.3257  0.1180
 6703TIP3    H120073   0.584   3.997   3.859  1.2763  0.8124  0.2797
 6703TIP3    H220074   0.570   3.979   4.008 -2.0710 -2.2259 -0.2474
 6704TIP3   OH220075   3.031   4.078   4.160  0.2478 -0.3910 -0.1682
 6704TIP3    H120076   2.979   4.031   4.226  0.9618  0.1855  0.8283
 6704TIP3    H220077   3.062   4.009   4.101 -0.4422 -0.9156  0.0620
 6705TIP3   OH220078   0.881   1.035   1.458  0.5290  0.1265 -0.6370
 6705TIP3    H120079   0.943   1.098   1.421 -0.2768  2.1095  1.1555
 6705TIP3    H220080   0.878   1.056   1.552 -2.8413  0.1953 -0.6320
 6706TIP3   OH220081   4.996   3.886   5.797 -0.5548 -0.0536  0.0911
 6706TIP3    H120082   4.929   3.870   5.863 -1.2192  1.7027 -0.1054
 6706TIP3    H220083   5.077   3.855   5.837 -1.3181 -1.2968  0.7245
 6707TIP3   OH220084   3.084   1.507   0.973  0.4870 -0.5507 -0.4350
 6707TIP3    H120085   3.155   1.479   1.031  0.5195  1.5651  0.6370
 6707TIP3    H220086   3.029   1.430   0.963  2.5772 -2.0761 -0.7953
 6708TIP3   OH220087   5.275   0.704   3.772  0.3167  0.1348  0.0657
 6708TIP3    H120088   5.368   0.723   3.757 -0.0753  0.2294 -2.6589
 6708TIP3    H220089   5.260   0.621   3.726 -1.1088  0.5280 -0.1995
 6709TIP3   OH220090   4.392   6.685   2.358  0.1878 -0.5034 -0.3624
 6709TIP3    H120091   4.444   6.753   2.315  0.8648 -0.3315  0.6794
 6709TIP3    H220092   4.304   6.722   2.363  0.5193  0.2660  0.0804
 6710TIP3   OH220093   4.461   1.380   0.318 -0.1082 -0.1800  0.4432
 6710TIP3    H120094   4.503   1.381   0.232 -0.0918  1.9545  0.4334
 6710TIP3    H220095   4.387   1.439   0.310  0.3549  0.6883  2.1031
 6711TIP3   OH220096   1.869   2.493   3.864 -0.1438 -0.2260 -0.2544
 6711TIP3    H120097   1.773   2.486   3.872 -0.4933 -0.7596 -3.5272
 6711TIP3    H220098   1.882   2.575   3.816  1.0305 -0.4518 -0.3243
 6712TIP3   OH220099   5.070   2.968   4.755  0.3596  0.6227  0.2491
 6712TIP3    H120100   5.162   2.945   4.767  0.2519 -1.1404 -1.7948
 6712TIP3    H220101   5.071   3.062   4.742  1.6325  0.9230  2.0362
 6713TIP3   OH220102   2.689   5.102   5.639  0.2888 -0.3660 -0.3191
 6713TIP3    H120103   2.766   5.055   5.671  0.7957 -0.6663 -1.9011
 6713TIP3    H220104   2.724   5.166   5.577 -0.6491  0.2758 -0.2116
 6714TIP3   OH220105   4.703   5.878   3.932  0.0805 -0.4241 -0.0768
 6714TIP3    H120106   4.661   5.964   3.938  1.1194  0.0155  1.3650
 6714TIP3    H220107   4.648   5.820   3.985 -0.3823 -0.5714 -0.7022
 6715TIP3   OH220108   2.805   6.440   3.122 -0.1666 -0.2730  0.4566
 6715TIP3    H120109   2.895   6.412   3.109 -0.0808  0.3176 -0.2772
 6715TIP3    H220110   2.810   6.505   3.193  0.0414  0.0334  0.1635
 6716TIP3   OH220111   6.959   6.665   1.780 -0.7251  0.0262 -0.3595
 6716TIP3    H120112   6.980   6.743   1.728 -1.1606 -0.5411 -1.4274
 6716TIP3    H220113   7.041   6.640   1.822 -0.7550  1.5322  0.6869
 6717TIP3   OH220114   3.101   2.734   0.610  0.3873  0.4900 -0.1698
 6717TIP3    H120115   3.183   2.779   0.630  0.8033 -0.2582 -0.1550
 6717TIP3    H220116   3.042   2.804   0.580  0.3933  1.3276  1.6604
 6718TIP3   OH220117   6.499   5.513   0.590  0.2710 -0.0302  0.3092
 6718TIP3    H120118   6.585   5.555   0.594  0.0824  0.7265 -2.2330
 6718TIP3    H220119   6.437   5.585   0.589 -0.4047 -0.5656  1.6373
 6719TIP3   OH220120   3.988   2.284   2.466  0.0868 -0.1228  0.1355
 6719TIP3    H120121   3.987   2.191   2.442  1.8836  0.0584 -0.7886
 6719TIP3    H220122   3.920   2.323   2.412  0.2429 -0.6840 -0.4901
 6720TIP3   OH220123   0.922   6.168   2.629  0.0285 -0.4019 -0.2323
 6720TIP3    H120124   0.993   6.231   2.615 -0.2851 -0.0104 -0.1025
 6720TIP3    H220125   0.942   6.125   2.712  0.0629 -0.2205 -0.1468
 6721TIP3   OH220126   6.767   1.462   1.079  0.2108  0.2857 -0.2981
 6721TIP3    H120127   6.793   1.461   1.171 -0.2265  0.2312 -0.1687
 6721TIP3    H220128   6.775   1.370   1.052  2.5143  0.6267 -0.9686
 6722TIP3   OH220129   2.836   0.189   2.445 -0.4515  0.4638 -0.0219
 6722TIP3    H120130   2.800   0.116   2.494  0.8671 -0.1551  0.0485
 6722TIP3    H220131   2.881   0.242   2.510  2.5938 -1.1379 -0.6732
 6723TIP3   OH220132   0.294   1.267   5.641 -0.0121  0.0680 -0.3436
 6723TIP3    H120133   0.241   1.329   5.691 -0.0267 -1.1029  1.1453
 6723TIP3    H220134   0.342   1.217   5.707  0.2106 -1.3188 -1.5154
 6724TIP3   OH220135   5.638   2.030   5.363 -0.4197  0.4877  0.0999
 6724TIP3    H120136   5.639   2.124   5.380  0.6016  0.4329  0.4531
 6724TIP3    H220137   5.561   2.016   5.309  0.0724  1.7087 -0.9770
 6725TIP3   OH220138   6.901   1.058   0.483  0.0387  0.8776  0.0262
 6725TIP3    H120139   6.887   0.993   0.553  0.8613  0.4499 -0.1987
 6725TIP3    H220140   6.910   1.141   0.529 -0.3087  0.7326  0.3645
 6726TIP3   OH220141   0.187   0.199   1.428  0.2655 -0.1974  0.3446
 6726TIP3    H120142   0.189   0.231   1.518  1.4977  2.7717 -0.6038
 6726TIP3    H220143   0.267   0.147   1.419  0.6666  0.3284  0.7430
 6727TIP3   OH220144   0.159   2.222   0.208  0.3174 -0.0782  0.7256
 6727TIP3    H120145   0.212   2.296   0.237  2.4577 -0.9236 -0.7564
 6727TIP3    H220146   0.130   2.246   0.120 -1.4524  0.1628  1.3301
 6728TIP3   OH220147   2.565   5.114   2.336 -0.3486  1.1064 -0.1132
 6728TIP3    H120148   2.558   5.187   2.397  2.1586 -0.9405  2.9287
 6728TIP3    H220149   2.641   5.134   2.282  0.8826  0.4742  1.3106
 6729TIP3   OH220150   0.611   6.146   4.718  0.6011 -0.3549  0.3418
 6729TIP3    H120151   0.604   6.230   4.762 -0.7833 -0.6336  0.7073
 6729TIP3    H220152   0.522   6.113   4.715  1.0443 -1.5714 -0.2775
 6730TIP3   OH220153   6.688   5.146   3.801  0.0749 -0.3060  0.5696
 6730TIP3    H120154   6.685   5.101   3.717  0.5926 -0.2461  0.5162
 6730TIP3    H220155   6.761   5.105   3.848  0.8842  0.8041  0.3244
 6731TIP3   OH220156   5.186   1.393   4.228  0.7735 -0.0158 -0.1335
 6731TIP3    H120157   5.281   1.397   4.238  0.8872 -2.8032  0.7695
 6731TIP3    H220158   5.172   1.338   4.150 -0.1246  0.7920 -0.5705
 6732TIP3   OH220159   3.902   5.241   1.894  0.3399 -0.1041  0.2576
 6732TIP3    H120160   3.870   5.158   1.859  0.2309 -0.1223  0.3957
 6732TIP3    H220161   3.962   5.274   1.828  1.5602 -1.0226  0.8749
 6733TIP3   OH220162   6.738   6.465   5.001  0.0240  0.6283  0.2066
 6733TIP3    H120163   6.817   6.450   5.054 -1.0957 -2.6706  1.2246
 6733TIP3    H220164   6.745   6.401   4.930 -2.0198 -0.2677  0.7415
 6734TIP3   OH220165   0.555   6.740   0.074  0.0502  0.5166  0.1043
 6734TIP3    H120166   0.611   6.796   0.021 -0.7091  0.2850 -0.9764
 6734TIP3    H220167   0.515   6.679   0.012 -0.0752 -0.4420  1.0885
 6735TIP3   OH220168   6.135   0.864   1.354 -0.0191 -0.2193  0.3551
 6735TIP3    H120169   6.116   0.834   1.443 -0.8745  0.0117  0.2586
 6735TIP3    H220170   6.138   0.959   1.361 -3.9801  0.1682 -0.4898
 6736TIP3   OH220171   2.397   5.440   4.337 -0.5270  0.7099  0.0626
 6736TIP3    H120172   2.466   5.444   4.271  0.5442  0.7601  1.1669
 6736TIP3    H220173   2.390   5.347   4.359 -1.8889  0.4911 -1.1217
 6737TIP3   OH220174   6.652   5.941   0.739 -0.4473 -0.7929  0.9378
 6737TIP3    H120175   6.591   6.000   0.695 -1.9515 -1.1294  2.4882
 6737TIP3    H220176   6.605   5.859   0.749  0.0242 -0.9005  2.6453
 6738TIP3   OH220177   3.911   5.468   0.130 -0.6206 -0.0053 -0.1582
 6738TIP3    H120178   3.866   5.420   0.200 -0.4927 -1.9653 -1.3515
 6738TIP3    H220179   4.003   5.463   0.153 -0.6943  0.8507  0.3876
 6739TIP3   OH220180   0.843   1.397   0.842  0.3432 -0.2371  0.5800
 6739TIP3    H120181   0.810   1.465   0.784  1.0007 -1.3179 -1.1390
 6739TIP3    H220182   0.783   1.399   0.917 -0.6491  1.0922 -0.1919
 6740TIP3   OH220183   5.724   4.581   4.776 -0.5245 -0.4352 -0.7446
 6740TIP3    H120184   5.809   4.587   4.820 -0.6094  1.0657 -0.7229
 6740TIP3    H220185   5.689   4.496   4.803  0.4305 -0.5459  0.2376
 6741TIP3   OH220186   6.955   0.161   3.119 -0.7360  0.5609  0.5028
 6741TIP3    H120187   7.000   0.153   3.035 -0.1197  1.0124  0.7850
 6741TIP3    H220188   6.964   0.253   3.144 -1.6793  0.6278  0.6475
 6742TIP3   OH220189   5.679   1.428   5.357 -0.1779 -0.3891  0.2997
 6742TIP3    H120190   5.607   1.430   5.295 -0.8063 -1.8385  0.9392
 6742TIP3    H220191   5.648   1.373   5.428  1.8300 -1.7023  0.2350
 6743TIP3   OH220192   4.475   2.363   4.345  0.5706 -0.3878  0.6293
 6743TIP3    H120193   4.412   2.373   4.274  0.9502 -1.5948  0.0838
 6743TIP3    H220194   4.484   2.268   4.355 -0.4553 -0.2751  3.1953
 6744TIP3   OH220195   0.880   4.213   0.972  0.1113  0.0943  0.1789
 6744TIP3    H120196   0.897   4.270   0.897 -0.7810 -0.1930 -0.2517
 6744TIP3    H220197   0.958   4.222   1.026 -0.0545  1.8399  0.2044
 6745TIP3   OH220198   5.074   6.758   5.000  0.0983  0.2769 -0.3412
 6745TIP3    H120199   5.045   6.724   5.085 -1.3910 -0.9303 -1.2855
 6745TIP3    H220200   5.132   6.690   4.966  2.5263  1.7547  0.6248
 6746TIP3   OH220201   4.808   5.382   2.714 -0.3178 -0.3433 -0.1155
 6746TIP3    H120202   4.879   5.345   2.661  0.5552 -0.7553  1.2991
 6746TIP3    H220203   4.852   5.429   2.784 -1.4180 -1.3157  1.2787
 6747TIP3   OH220204   5.865   1.228   0.553  0.3499  0.7567 -0.1954
 6747TIP3    H120205   5.816   1.194   0.478 -0.3726  0.6924  0.2845
 6747TIP3    H220206   5.855   1.323   0.547  1.8794  0.8805 -1.2137
 6748TIP3   OH220207   1.900   2.905   3.863 -0.2201  0.1852  0.8964
 6748TIP3    H120208   1.813   2.923   3.827  0.4843  2.7653  0.3039
 6748TIP3    H220209   1.936   2.836   3.807 -1.8240 -0.9367  1.1552
 6749TIP3   OH220210   2.768   6.086   2.842  0.7302 -0.0350  0.2256
 6749TIP3    H120211   2.705   6.097   2.771  1.4515  1.6687 -0.1956
 6749TIP3    H220212   2.853   6.081   2.799  1.3720  2.7487  0.9600
 6750TIP3   OH220213   6.925   0.909   5.407  0.5046  0.3883 -0.2022
 6750TIP3    H120214   6.855   0.960   5.447  0.3999  1.0351 -1.1649
 6750TIP3    H220215   6.887   0.874   5.326  1.2760  0.7452 -0.7343
 6751TIP3   OH220216   5.857   2.653   4.394 -0.0055  0.6798  0.0221
 6751TIP3    H120217   5.789   2.603   4.349 -0.9700  0.8345  1.2414
 6751TIP3    H220218   5.809   2.722   4.440  0.7843 -0.1327  2.1717
 6752TIP3   OH220219   3.264   1.199   5.415  0.1271  0.1414  0.0014
 6752TIP3    H120220   3.185   1.147   5.427  0.8221 -0.7067  1.0333
 6752TIP3    H220221   3.286   1.190   5.322 -0.9938  0.4255 -0.3059
 6753TIP3   OH220222   5.357   6.142   0.253 -0.7641 -0.3402  0.2873
 6753TIP3    H120223   5.395   6.166   0.168  0.6858 -1.5392  0.5417
 6753TIP3    H220224   5.266   6.121   0.234 -0.9340  1.1049 -0.6449
 6754TIP3   OH220225   5.408   0.258   2.774  0.1683 -0.5634  0.3201
 6754TIP3    H120226   5.323   0.259   2.730  0.9588  0.0257 -1.2643
 6754TIP3    H220227   5.453   0.181   2.740  1.0533  0.2739 -0.4643
 6755TIP3   OH220228   5.617   2.932   0.703  0.5646  0.6551 -0.3537
 6755TIP3    H120229   5.593   2.872   0.633 -1.2132 -0.1523  0.8716
 6755TIP3    H220230   5.682   2.884   0.755  0.0825  0.2685 -0.0961
 6756TIP3   OH220231   5.488   6.260   0.041  0.9051 -0.4026 -0.5817
 6756TIP3    H120232   5.559   6.262  -0.023 -0.1872 -0.3093 -1.8221
 6756TIP3    H220233   5.420   6.315   0.003  0.1232 -0.5639  0.5489
 6757TIP3   OH220234   5.772   3.943   0.011 -0.4365  0.5237 -0.2274
 6757TIP3    H120235   5.786   3.904   0.098 -2.7505 -0.0397 -0.0347
 6757TIP3    H220236   5.842   3.906  -0.043 -0.3353 -0.9834  0.8549
 6758TIP3   OH220237   6.583   4.135   2.784  0.4619 -0.3638 -0.1613
 6758TIP3    H120238   6.550   4.224   2.796 -1.4683 -1.0370 -0.1807
 6758TIP3    H220239   6.533   4.082   2.847  0.2594 -1.7211 -1.4092
 6759TIP3   OH220240   3.625   2.303   5.011 -0.1104  0.2172 -0.4225
 6759TIP3    H120241   3.605   2.255   5.091  0.0878  0.6596 -0.1036
 6759TIP3    H220242   3.558   2.372   5.007  0.3598  0.6875 -0.2156
 6760TIP3   OH220243   0.971   5.869   1.754 -0.2482 -0.3050 -0.4360
 6760TIP3    H120244   0.912   5.928   1.708 -1.8119 -1.1090  0.4319
 6760TIP3    H220245   1.024   5.926   1.810 -1.0804  0.3581 -0.3024
 6761TIP3   OH220246   5.982   4.146   0.794  0.3375 -0.2423 -0.0331
 6761TIP3    H120247   6.032   4.220   0.830  1.0964 -0.6218 -0.2851
 6761TIP3    H220248   5.986   4.079   0.863  0.7237 -0.5035 -0.3005
 6762TIP3   OH220249   3.340   3.698   5.040  0.0053 -0.0900  0.2066
 6762TIP3    H120250   3.329   3.611   5.077  1.0512 -0.1975  0.3034
 6762TIP3    H220251   3.312   3.758   5.109  1.1834 -0.3058  0.8868
 6763TIP3   OH220252   4.356   0.109   3.929  0.3294  0.1283  0.4310
 6763TIP3    H120253   4.388   0.020   3.915  0.6710  0.1668  0.9404
 6763TIP3    H220254   4.269   0.098   3.966 -0.6374  0.0212 -1.7091
 6764TIP3   OH220255   3.180   3.407   2.466  0.5259  0.2285 -0.0436
 6764TIP3    H120256   3.203   3.436   2.378 -0.5917  1.9180  0.1751
 6764TIP3    H220257   3.187   3.486   2.520  0.6606 -0.6615  1.2832
 6765TIP3   OH220258   4.414   6.039   2.449 -0.2952 -0.8483  0.8550
 6765TIP3    H120259   4.454   5.958   2.482  1.2901 -1.2210 -1.7100
 6765TIP3    H220260   4.321   6.020   2.445  0.0955 -2.8451 -0.2737
 6766TIP3   OH220261   4.169   3.406   0.426  0.2398 -0.4100  0.0435
 6766TIP3    H120262   4.094   3.421   0.483  0.0039 -0.4846 -0.2423
 6766TIP3    H220263   4.235   3.364   0.482  0.2092 -0.0054  0.3871
 6767TIP3   OH220264   6.037   2.080   3.996  0.0657 -0.0681 -0.6397
 6767TIP3    H120265   6.100   2.142   4.034 -0.6285 -0.1285  0.6676
 6767TIP3    H220266   6.092   2.008   3.963  0.7058 -0.2178  0.6623
 6768TIP3   OH220267   2.177   4.974   5.243 -0.2476  0.1678  0.0687
 6768TIP3    H120268   2.231   4.897   5.260 -0.7641 -0.3070 -0.4380
 6768TIP3    H220269   2.154   4.968   5.151 -0.9425  0.5103  0.2136
 6769TIP3   OH220270   2.631   3.118   4.138 -0.2757 -0.0758  0.6032
 6769TIP3    H120271   2.672   3.038   4.171 -1.0736 -0.7834 -0.0610
 6769TIP3    H220272   2.637   3.110   4.043  2.1992  2.0429  0.4965
 6770TIP3   OH220273   1.412   4.568   5.356  0.2740 -0.2861  0.3616
 6770TIP3    H120274   1.321   4.542   5.367  0.2464 -0.2240  0.2825
 6770TIP3    H220275   1.460   4.486   5.350  0.0636 -0.3360 -0.9040
 6771TIP3   OH220276   3.362   1.884   5.025  0.2470 -0.2262  0.3059
 6771TIP3    H120277   3.410   1.950   4.975 -1.8277 -0.4784 -2.2485
 6771TIP3    H220278   3.338   1.928   5.106 -2.2755  2.8386 -1.8607
 6772TIP3   OH220279   2.322   0.614   1.790 -0.3961 -0.3208  0.0117
 6772TIP3    H120280   2.382   0.684   1.764 -0.3716 -0.9783 -1.8723
 6772TIP3    H220281   2.292   0.577   1.708 -1.2273 -1.8442  0.9590
 6773TIP3   OH220282   3.391   1.320   1.758 -0.0425 -0.5409 -0.1236
 6773TIP3    H120283   3.450   1.391   1.734 -0.1231 -0.4540 -0.0635
 6773TIP3    H220284   3.388   1.323   1.854 -2.0222  0.9937 -0.1745
 6774TIP3   OH220285   2.991   5.050   5.396 -0.5290  0.0217  0.6046
 6774TIP3    H120286   2.940   5.128   5.377 -1.8400 -0.5511  1.6418
 6774TIP3    H220287   2.993   5.045   5.492 -0.6762 -1.3329  0.5587
 6775TIP3   OH220288   2.159   3.010   5.178  0.2886 -0.0896 -0.1080
 6775TIP3    H120289   2.125   3.064   5.107  0.2832  3.1691  2.1700
 6775TIP3    H220290   2.247   2.985   5.149  1.3599  3.3979 -0.3342
 6776TIP3   OH220291   3.380   3.664   0.646  0.3280  0.1876 -0.0302
 6776TIP3    H120292   3.374   3.589   0.587 -3.3885  0.4657 -0.2036
 6776TIP3    H220293   3.336   3.735   0.600 -0.0001  1.2625  1.8420
 6777TIP3   OH220294   4.904   4.086   3.525  0.2871  0.2897 -0.0875
 6777TIP3    H120295   4.853   4.034   3.463  2.3858 -1.4001 -0.5406
 6777TIP3    H220296   4.898   4.037   3.608  0.6744  0.3741 -0.0037
 6778TIP3   OH220297   1.690   6.519   0.278  0.7947  0.1917  0.1350
 6778TIP3    H120298   1.691   6.596   0.334 -0.7458 -0.3347  0.9547
 6778TIP3    H220299   1.702   6.446   0.339 -0.9006 -0.3946 -0.1897
 6779TIP3   OH220300   5.870   4.430   1.586  0.0610 -0.4054 -0.3939
 6779TIP3    H120301   5.948   4.476   1.554 -0.0681  0.7827  0.9011
 6779TIP3    H220302   5.804   4.498   1.593 -0.0275 -0.6707  1.9798
 6780TIP3   OH220303   5.722   4.064   2.129  0.0288  0.1305 -0.4097
 6780TIP3    H120304   5.786   3.998   2.104  0.6334  1.1827 -1.8287
 6780TIP3    H220305   5.645   4.015   2.158  0.9297 -1.1590 -0.1608
 6781TIP3   OH220306   0.608   3.911   0.696 -0.0597 -0.4242  0.5753
 6781TIP3    H120307   0.586   3.925   0.788 -0.0470  0.7588  0.4088
 6781TIP3    H220308   0.656   3.989   0.671  0.7493 -1.1527 -0.1920
 6782TIP3   OH220309   4.398   4.216   1.562  0.2315  0.2671 -0.5135
 6782TIP3    H120310   4.401   4.252   1.473 -0.7416  0.7510 -0.3695
 6782TIP3    H220311   4.313   4.172   1.568  0.8372 -0.9032 -0.2330
 6783TIP3   OH220312   0.793   2.339   0.519  0.0667  0.1468  0.0499
 6783TIP3    H120313   0.722   2.284   0.553  0.6561 -0.7798 -0.2156
 6783TIP3    H220314   0.807   2.404   0.588 -1.3730  0.6664 -0.0987
 6784TIP3   OH220315   5.222   3.837   5.399 -0.1903  0.0748 -0.2991
 6784TIP3    H120316   5.287   3.904   5.377 -0.1502  0.0557 -0.2416
 6784TIP3    H220317   5.275   3.759   5.418 -0.1405  0.3863  0.9695
 6785TIP3   OH220318   1.493   4.328   2.456 -0.7034 -0.1436  0.0908
 6785TIP3    H120319   1.414   4.280   2.480 -0.4486 -0.0419  1.1473
 6785TIP3    H220320   1.464   4.419   2.448 -0.2802  0.3206  2.8483
 6786TIP3   OH220321   2.357   4.772   5.657  0.6995  0.2695  0.2135
 6786TIP3    H120322   2.438   4.729   5.685  1.4436  0.3362 -1.6931
 6786TIP3    H220323   2.319   4.806   5.738  3.5151  1.8607  1.0300
 6787TIP3   OH220324   0.277   3.337   2.799  0.1422  0.1942 -0.0077
 6787TIP3    H120325   0.355   3.390   2.815  0.0392  0.2445  0.3576
 6787TIP3    H220326   0.226   3.346   2.880  0.8821 -1.7731  0.7316
 6788TIP3   OH220327   3.291   6.274   2.089  0.6174 -0.2356 -0.7598
 6788TIP3    H120328   3.243   6.355   2.068  0.5227 -0.4320 -1.3364
 6788TIP3    H220329   3.346   6.297   2.163 -1.0110 -0.2467  0.5037
 6789TIP3   OH220330   5.243   5.779   0.684  0.2711 -0.0829  0.0183
 6789TIP3    H120331   5.192   5.842   0.734 -2.0791 -0.3256 -1.8719
 6789TIP3    H220332   5.238   5.698   0.734  0.6033  0.4163  0.8825
 6790TIP3   OH220333   3.525   6.020   5.647 -1.0355 -0.5557  0.2702
 6790TIP3    H120334   3.571   5.941   5.674 -0.0385 -0.6768 -1.5679
 6790TIP3    H220335   3.454   5.988   5.591 -2.0406 -0.2522  1.3584
 6791TIP3   OH220336   5.762   5.361   5.411  0.4016  0.3606  0.3631
 6791TIP3    H120337   5.671   5.338   5.398  0.6600 -0.4727 -0.0315
 6791TIP3    H220338   5.762   5.419   5.487 -0.1895 -1.5466  1.8684
 6792TIP3   OH220339   3.176   0.160   0.769 -0.1205 -0.2189 -0.2085
 6792TIP3    H120340   3.220   0.200   0.694 -0.6291  0.6788 -0.0448
 6792TIP3    H220341   3.229   0.186   0.845 -0.8201  0.7444 -0.0274
 6793TIP3   OH220342   5.542   4.088   2.972 -0.1393 -0.9643  0.2451
 6793TIP3    H120343   5.533   4.183   2.985  0.6330 -0.9214  0.4834
 6793TIP3    H220344   5.454   4.060   2.945  0.3318  0.3122 -3.0128
 6794TIP3   OH220345   4.220   2.389   1.129  0.1873 -0.0515 -0.5778
 6794TIP3    H120346   4.172   2.472   1.131  0.1794 -0.0353 -1.1228
 6794TIP3    H220347   4.297   2.404   1.183  0.4588  0.4889 -1.1030
 6795TIP3   OH220348   5.723   2.604   5.304 -0.2764 -0.3769  0.3431
 6795TIP3    H120349   5.784   2.569   5.369 -0.4092 -0.4040  0.4539
 6795TIP3    H220350   5.636   2.586   5.340 -0.3707 -1.2160 -0.2744
 6796TIP3   OH220351   5.102   0.035   3.095  0.3592 -0.4077  0.4463
 6796TIP3    H120352   5.097  -0.043   3.151 -0.4257 -1.6032 -1.2152
 6796TIP3    H220353   5.060   0.009   3.013 -0.9604  2.1244  0.2072
 6797TIP3   OH220354   6.924   1.935   2.921 -0.0384 -0.0146 -0.0312
 6797TIP3    H120355   6.975   1.854   2.921 -1.1459 -0.7234  0.0144
 6797TIP3    H220356   6.986   2.002   2.891  0.7446 -0.9562 -0.5707
 6798TIP3   OH220357   3.864   1.692   0.594  0.0511 -0.4734  0.0430
 6798TIP3    H120358   3.953   1.713   0.564  0.4153  0.2898  1.5839
 6798TIP3    H220359   3.877   1.641   0.674 -0.9000 -0.2329  0.3649
 6799TIP3   OH220360   5.592   2.950   4.888  0.1537  0.4833  0.0569
 6799TIP3    H120361   5.653   2.910   4.951 -2.5443 -0.6183  2.1528
 6799TIP3    H220362   5.575   2.882   4.823 -0.7791 -0.1569  0.9426
 6800TIP3   OH220363   4.855   1.308   0.315 -0.5758 -0.5321  0.1484
 6800TIP3    H120364   4.842   1.258   0.396 -1.6460  1.5374  1.3526
 6800TIP3    H220365   4.772   1.299   0.268 -0.0363 -1.5412 -0.6611
 6801TIP3   OH220366   2.498   4.562   2.928  0.6148 -0.1512 -0.4842
 6801TIP3    H120367   2.525   4.587   2.839 -1.2757 -1.3009 -1.4616
 6801TIP3    H220368   2.489   4.645   2.975  0.0174  0.6241 -1.8966
 6802TIP3   OH220369   1.441   4.107   1.374 -0.3108 -0.0307  0.3069
 6802TIP3    H120370   1.397   4.182   1.333  1.5609  0.0234 -1.7954
 6802TIP3    H220371   1.480   4.060   1.301  1.6707 -1.0043  1.9111
 6803TIP3   OH220372   1.766   6.021   2.827  0.0472  0.4525 -0.5634
 6803TIP3    H120373   1.704   6.014   2.755 -0.5871 -1.6291  0.1083
 6803TIP3    H220374   1.712   6.046   2.903  0.5142  1.3922 -0.5186
 6804TIP3   OH220375   4.446   2.105   3.012 -0.3777 -0.6403  0.0540
 6804TIP3    H120376   4.511   2.042   3.043 -0.2816 -0.5432  0.0496
 6804TIP3    H220377   4.471   2.187   3.054 -0.0157 -0.4164 -0.5938
 6805TIP3   OH220378   0.306   2.797   4.267 -0.1144  0.1512 -0.0857
 6805TIP3    H120379   0.280   2.712   4.231 -0.5564  0.0394  0.4920
 6805TIP3    H220380   0.321   2.852   4.190 -1.0039 -0.1001 -0.4536
 6806TIP3   OH220381   4.636   4.836   0.686 -0.3542  0.1700 -0.2155
 6806TIP3    H120382   4.661   4.855   0.595 -0.9055  0.0424 -0.3945
 6806TIP3    H220383   4.654   4.918   0.733  1.5581 -0.2700 -0.0803
 6807TIP3   OH220384   1.043   4.684   5.013 -0.3620  0.0386  0.2936
 6807TIP3    H120385   1.039   4.593   5.041  1.4923 -0.8355 -1.9429
 6807TIP3    H220386   1.136   4.703   5.005 -0.7118  2.0427  0.3762
 6808TIP3   OH220387   5.664   4.997   0.892  0.1239  0.4948 -0.3719
 6808TIP3    H120388   5.660   5.066   0.826 -0.6729 -0.2550 -1.1271
 6808TIP3    H220389   5.589   4.941   0.873  2.1086 -2.0098 -1.3946
 6809TIP3   OH220390   1.843   5.140   4.109  0.1201  0.0867 -0.1333
 6809TIP3    H120391   1.826   5.177   4.022  1.3091  0.3789 -0.2613
 6809TIP3    H220392   1.937   5.120   4.109 -0.3438 -2.4593  0.1287
 6810TIP3   OH220393   1.133   5.808   3.947 -0.4406 -0.3843 -0.2712
 6810TIP3    H120394   1.226   5.821   3.931  0.5221 -0.2811  4.1062
 6810TIP3    H220395   1.092   5.890   3.919  0.7167 -0.3901 -2.1720
 6811TIP3   OH220396   5.952   5.610   0.805 -0.4204 -0.1287  0.1175
 6811TIP3    H120397   5.940   5.585   0.713 -1.3642  2.0069 -0.3959
 6811TIP3    H220398   5.902   5.691   0.815 -0.1222 -0.1598  2.4652
 6812TIP3   OH220399   6.640   3.365   0.763 -0.1432  0.0610 -0.7061
 6812TIP3    H120400   6.726   3.328   0.783  0.1747  0.7229 -0.8061
 6812TIP3    H220401   6.621   3.422   0.838 -0.5214 -0.1268 -0.6576
 6813TIP3   OH220402   1.106   1.592   3.480 -0.0699 -0.2532  0.1729
 6813TIP3    H120403   1.021   1.627   3.453  1.2936  1.5704 -2.1648
 6813TIP3    H220404   1.095   1.497   3.479 -2.3068 -0.0469  0.8728
 6814TIP3   OH220405   2.208   1.362   3.132 -0.2770 -0.3226 -0.2791
 6814TIP3    H120406   2.127   1.397   3.094 -1.1700  0.5273  2.2435
 6814TIP3    H220407   2.193   1.363   3.226  1.6812 -2.6959  0.1595
 6815TIP3   OH220408   3.840   2.688   1.935 -0.3123  0.3292  0.2575
 6815TIP3    H120409   3.929   2.674   1.905 -0.6397  1.0383 -1.1256
 6815TIP3    H220410   3.786   2.675   1.857 -1.6228 -1.9973  1.4572
 6816TIP3   OH220411   6.440   5.956   5.325  0.1482  0.3896 -0.4586
 6816TIP3    H120412   6.354   5.922   5.346 -0.3079  1.4909 -0.5180
 6816TIP3    H220413   6.494   5.935   5.401 -1.0253  2.7301  1.1220
 6817TIP3   OH220414   1.282   3.997   2.286 -0.5663 -0.0919 -0.2515
 6817TIP3    H120415   1.299   3.922   2.228 -1.2113 -0.4377  0.0022
 6817TIP3    H220416   1.332   4.069   2.246  1.9649 -1.1759  0.7420
 6818TIP3   OH220417   2.345   1.956   2.487 -0.8375  0.3649  0.2021
 6818TIP3    H120418   2.331   1.862   2.495 -0.1196  0.0097 -1.9412
 6818TIP3    H220419   2.260   1.991   2.458 -0.1596 -0.3036 -2.9770
 6819TIP3   OH220420   4.707   4.071   1.013 -0.7088  0.3675  0.2056
 6819TIP3    H120421   4.660   4.132   0.957  0.4875  1.5844  0.4701
 6819TIP3    H220422   4.667   3.986   0.995 -2.8566  1.2910  0.3050
 6820TIP3   OH220423   4.048   5.321   2.434 -0.0197 -0.2223  0.4145
 6820TIP3    H120424   4.103   5.399   2.442 -2.3447  1.4641  1.1014
 6820TIP3    H220425   3.966   5.354   2.397 -1.0846 -2.3572  0.7565
 6821TIP3   OH220426   1.693   4.729   0.604 -0.1288 -0.3147  0.3114
 6821TIP3    H120427   1.703   4.760   0.514 -0.7942  0.0520  0.3555
 6821TIP3    H220428   1.617   4.670   0.601  1.3811 -2.3351  0.1398
 6822TIP3   OH220429   3.812   4.248   1.095  0.5956  0.5202  0.2131
 6822TIP3    H120430   3.832   4.335   1.129 -1.9367  1.6515 -0.8579
 6822TIP3    H220431   3.829   4.188   1.167  0.7004  2.1369  1.5782
 6823TIP3   OH220432   6.981   5.789   5.533  0.1187  0.0237 -0.5792
 6823TIP3    H120433   6.911   5.825   5.588  0.1133 -0.7622 -0.0648
 6823TIP3    H220434   6.939   5.719   5.484  0.7450 -1.0878  0.4267
 6824TIP3   OH220435   2.418   3.471   3.949 -0.4797  0.0488  0.3387
 6824TIP3    H120436   2.473   3.544   3.977  1.2274 -1.1121  0.2451
 6824TIP3    H220437   2.440   3.400   4.010 -1.0078 -0.8035 -0.4344
 6825TIP3   OH220438   4.250   1.184   0.408  0.0627 -0.1264  0.1012
 6825TIP3    H120439   4.234   1.176   0.502 -1.2096  0.7845 -0.0170
 6825TIP3    H220440   4.248   1.278   0.390 -3.7679 -0.2743 -1.3966
 6826TIP3   OH220441   4.510   2.130   3.386 -0.5351  0.5876 -0.4781
 6826TIP3    H120442   4.501   2.209   3.438 -0.9014  0.3607 -0.1884
 6826TIP3    H220443   4.422   2.115   3.350 -0.3716  0.5428 -0.8700
 6827TIP3   OH220444   1.760   5.876   5.814  0.0264  0.0797  0.1616
 6827TIP3    H120445   1.786   5.917   5.896 -1.3824  0.3222  0.5140
 6827TIP3    H220446   1.751   5.783   5.835  1.1176 -0.1064 -0.1100
 6828TIP3   OH220447   0.586   1.653   3.414 -0.1665 -0.2261 -0.0186
 6828TIP3    H120448   0.535   1.586   3.368  0.1366 -0.2147 -0.3751
 6828TIP3    H220449   0.524   1.725   3.428 -0.7048 -0.8875  1.0654
 6829TIP3   OH220450   3.564   3.778   4.489  0.4370 -0.0997  0.8325
 6829TIP3    H120451   3.646   3.820   4.464  1.3007 -1.8334  0.5543
 6829TIP3    H220452   3.506   3.850   4.514  1.0967  1.4183 -1.6229
 6830TIP3   OH220453   2.582   0.989   2.995 -0.5768  0.1250  0.2207
 6830TIP3    H120454   2.592   1.078   3.028 -1.3917  1.2087 -2.2407
 6830TIP3    H220455   2.513   0.951   3.049  0.6807  0.4595  2.1717
 6831TIP3   OH220456   3.226   3.191   5.221  0.4785 -0.2588  0.1782
 6831TIP3    H120457   3.183   3.123   5.169  0.9428 -0.4952  0.1048
 6831TIP3    H220458   3.316   3.162   5.231  0.5348  0.0527  0.6542
 6832TIP3   OH220459   2.805   4.352   5.723  0.3823 -0.4185  0.2924
 6832TIP3    H120460   2.780   4.303   5.801  0.1187 -0.5747  0.1114
 6832TIP3    H220461   2.891   4.388   5.744  1.2412 -2.1513 -0.0883
 6833TIP3   OH220462   5.201   4.127   4.468  0.1456  0.1040  0.4626
 6833TIP3    H120463   5.117   4.093   4.500 -0.9441  1.8982 -0.3275
 6833TIP3    H220464   5.203   4.100   4.376  0.4121  0.1183  0.4653
 6834TIP3   OH220465   5.680   4.867   4.798  0.0613  0.1504  0.0218
 6834TIP3    H120466   5.757   4.915   4.828 -1.4653  2.3126  0.6830
 6834TIP3    H220467   5.714   4.780   4.774  2.6910  1.0644  0.1372
 6835TIP3   OH220468   0.309   1.826   0.755  0.3111  0.1530 -0.0308
 6835TIP3    H120469   0.244   1.781   0.810 -0.0048  0.5389 -0.0810
 6835TIP3    H220470   0.284   1.919   0.760  0.6299  0.2576 -0.3583
 6836TIP3   OH220471   0.772   5.592   4.836  0.2748 -0.3137 -0.3696
 6836TIP3    H120472   0.811   5.679   4.823 -2.8059  1.6607  2.1010
 6836TIP3    H220473   0.705   5.586   4.767  0.0250 -0.4250 -0.1171
 6837TIP3   OH220474   0.315   1.416   1.776  0.1841 -0.4169 -0.1247
 6837TIP3    H120475   0.232   1.382   1.744 -0.5548  0.0906  1.1694
 6837TIP3    H220476   0.342   1.353   1.843  0.0028  0.2635  0.6076
 6838TIP3   OH220477   5.547   4.943   5.865  0.3496 -0.0435  0.2123
 6838TIP3    H120478   5.522   5.001   5.936  1.7003  1.3647 -0.4138
 6838TIP3    H220479   5.491   4.969   5.791  0.1836 -0.3102  0.2400
 6839TIP3   OH220480   2.370   4.429   3.570  0.3151  0.3396 -0.3569
 6839TIP3    H120481   2.328   4.376   3.638  0.7613  1.4986  0.8750
 6839TIP3    H220482   2.457   4.391   3.560 -1.0053 -2.3509 -3.2378
 6840TIP3   OH220483   1.842   2.364   4.170 -0.1216  0.0168 -0.0869
 6840TIP3    H120484   1.865   2.385   4.079  0.6866 -2.2788 -0.4799
 6840TIP3    H220485   1.832   2.449   4.213  0.6153  1.1424 -2.0443
 6841TIP3   OH220486   0.131   0.033   5.766 -0.3854  0.8338 -1.1236
 6841TIP3    H120487   0.036   0.028   5.771 -0.3353 -0.2453 -0.9517
 6841TIP3    H220488   0.155  -0.032   5.700  0.3703 -0.8146  0.6784
 6842TIP3   OH220489   2.273   1.060   2.326 -0.0522 -0.4638 -0.2563
 6842TIP3    H120490   2.307   1.023   2.407  0.6889  1.8774  0.5793
 6842TIP3    H220491   2.337   1.032   2.259  1.1203  0.2147  0.5397
 6843TIP3   OH220492   2.169   2.676   5.154  0.2676 -0.3074 -0.5016
 6843TIP3    H120493   2.098   2.714   5.100  0.2268  0.4481  0.0614
 6843TIP3    H220494   2.212   2.613   5.096 -0.1023  0.1133 -1.2548
 6844TIP3   OH220495   6.485   1.021   0.165 -0.0982 -0.2590 -0.2516
 6844TIP3    H120496   6.416   0.985   0.220 -1.6849  0.9150 -1.3652
 6844TIP3    H220497   6.547   1.059   0.226 -0.4226 -1.3238  0.7880
 6845TIP3   OH220498   1.805   5.781   4.272 -1.1681  0.0563  0.3845
 6845TIP3    H120499   1.803   5.871   4.240 -0.8747  0.1962  0.7475
 6845TIP3    H220500   1.875   5.780   4.338 -1.2652 -0.4006  0.4895
 6846TIP3   OH220501   1.561   2.744   2.165 -0.0915  0.1889 -0.2200
 6846TIP3    H120502   1.489   2.712   2.220  0.8185 -2.3708 -0.3726
 6846TIP3    H220503   1.586   2.668   2.112  1.3773  1.5995 -1.6503
 6847TIP3   OH220504   2.412   3.671   3.569  0.1239  0.1050  0.0729
 6847TIP3    H120505   2.465   3.594   3.587  0.5671  0.4978  0.4767
 6847TIP3    H220506   2.344   3.669   3.637 -1.0438 -0.9798 -1.0805
 6848TIP3   OH220507   5.320   2.993   0.065 -0.2630 -0.0349  0.0007
 6848TIP3    H120508   5.284   2.906   0.085  1.0763 -0.7785 -0.6254
 6848TIP3    H220509   5.371   3.015   0.144 -0.3114  0.0143  0.0180
 6849TIP3   OH220510   0.240   5.775   1.125  0.0274 -0.0484 -0.1450
 6849TIP3    H120511   0.312   5.729   1.168  0.0094 -0.5220 -0.6036
 6849TIP3    H220512   0.192   5.706   1.078 -0.4576  0.3272 -0.2116
 6850TIP3   OH220513   2.695   0.453   1.471 -0.2745  0.5857  0.0653
 6850TIP3    H120514   2.635   0.395   1.424 -1.0592  0.9784  0.5654
 6850TIP3    H220515   2.643   0.490   1.541  0.3122  1.6321 -0.0271
 6851TIP3   OH220516   3.601   5.288   0.548  0.2510 -0.0610 -0.1805
 6851TIP3    H120517   3.535   5.255   0.609  0.0599 -1.4810 -1.0976
 6851TIP3    H220518   3.643   5.209   0.514  3.1633  0.8121  1.1193
 6852TIP3   OH220519   6.687   0.316   0.172  0.3709 -0.4518  0.4178
 6852TIP3    H120520   6.606   0.274   0.198  0.6057 -0.3673  1.3050
 6852TIP3    H220521   6.711   0.272   0.089 -1.0406  0.1644 -0.3515
 6853TIP3   OH220522   2.342   4.068   5.406  0.1679  0.3630  0.6624
 6853TIP3    H120523   2.308   4.099   5.322  0.6770  0.1926  0.3905
 6853TIP3    H220524   2.352   4.147   5.459 -1.3937  0.3468  1.0327
 6854TIP3   OH220525   5.974   6.678   5.384 -0.5644 -0.3878  0.5202
 6854TIP3    H120526   6.013   6.747   5.439  0.8227 -1.3292  0.7606
 6854TIP3    H220527   6.036   6.666   5.313 -1.5520 -0.3442 -0.3738
 6855TIP3   OH220528   2.735   1.553   4.956 -0.4081 -0.0644 -0.3388
 6855TIP3    H120529   2.805   1.608   4.992 -2.2857  2.3363 -0.0457
 6855TIP3    H220530   2.656   1.580   5.003 -1.5462 -2.8942 -0.4075
 6856TIP3   OH220531   7.100   5.909   3.461  0.8273 -0.0724  0.4436
 6856TIP3    H120532   7.084   5.957   3.381 -0.1412 -0.0147  0.6583
 6856TIP3    H220533   7.183   5.942   3.494  0.9756  0.2600 -0.2708
 6857TIP3   OH220534   0.650   5.579   2.287 -0.0144  0.6058 -0.5327
 6857TIP3    H120535   0.616   5.579   2.197 -0.9252  0.2533 -0.1916
 6857TIP3    H220536   0.623   5.495   2.323  0.8239  0.5114 -0.0910
 6858TIP3   OH220537   0.293   5.944   2.326  0.6037 -0.2542 -0.1184
 6858TIP3    H120538   0.250   5.973   2.407  2.1498 -0.7178  0.9260
 6858TIP3    H220539   0.334   5.861   2.349  1.9170  0.0965 -1.0849
 6859TIP3   OH220540   3.335   4.302   5.808  0.6256  0.1845 -0.4506
 6859TIP3    H120541   3.400   4.372   5.811  2.7594 -1.6641 -0.9473
 6859TIP3    H220542   3.385   4.224   5.783 -1.8537 -1.2864 -1.1492
 6860TIP3   OH220543   0.394   2.948   1.314 -0.1502  0.1645  0.4672
 6860TIP3    H120544   0.310   2.913   1.285  0.8652 -1.3077 -0.8639
 6860TIP3    H220545   0.404   2.916   1.403 -0.7722 -0.0819  0.4537
 6861TIP3   OH220546   6.994   2.923   4.937  0.1122 -0.0789 -0.1359
 6861TIP3    H120547   7.061   2.981   4.899  0.0808  1.3438  1.7939
 6861TIP3    H220548   6.930   2.911   4.867  0.4949  1.6624 -0.8390
 6862TIP3   OH220549   4.696   1.481   2.034  0.2886 -0.3850  0.1145
 6862TIP3    H120550   4.726   1.572   2.032  1.5313 -0.7668 -2.0925
 6862TIP3    H220551   4.606   1.484   2.000 -0.5687  0.2284  2.2847
 6863TIP3   OH220552   1.060   0.504   1.209  0.1024 -0.2106 -0.3973
 6863TIP3    H120553   0.990   0.448   1.243  0.9337 -1.8073 -1.1646
 6863TIP3    H220554   1.093   0.456   1.133  3.9446 -1.0769  1.5656
 6864TIP3   OH220555   7.171   0.513   5.601  0.3476 -0.3138  0.4385
 6864TIP3    H120556   7.212   0.427   5.586  1.8617  0.1349  1.6904
 6864TIP3    H220557   7.130   0.504   5.687  0.6232  0.2383  0.6311
 6865TIP3   OH220558   4.322   1.699   2.710  0.6551  0.2899 -0.2453
 6865TIP3    H120559   4.328   1.763   2.639  0.9325  0.2690 -0.2411
 6865TIP3    H220560   4.329   1.614   2.666 -0.4967  0.2201 -0.3472
 6866TIP3   OH220561   4.265   6.745   4.559  0.3925  0.7051 -0.3179
 6866TIP3    H120562   4.355   6.778   4.550  1.3036 -1.2554  0.8764
 6866TIP3    H220563   4.259   6.675   4.494  0.2238 -0.0946  0.5419
 6867TIP3   OH220564   5.763   0.830   5.095 -0.1494 -0.3923 -0.6806
 6867TIP3    H120565   5.714   0.817   5.014  0.0072 -1.5783 -0.6099
 6867TIP3    H220566   5.698   0.859   5.159 -0.8474 -2.1793 -0.5256
 6868TIP3   OH220567   4.025   0.867   2.079 -0.2661 -0.3306  0.0661
 6868TIP3    H120568   4.059   0.955   2.066  1.2587 -1.1630 -2.1689
 6868TIP3    H220569   4.056   0.841   2.165  1.4238  0.4210 -0.2838
 6869TIP3   OH220570   4.430   3.734   3.554 -0.3894  0.0922  0.4799
 6869TIP3    H120571   4.493   3.802   3.530  1.6111 -1.9670 -0.4631
 6869TIP3    H220572   4.464   3.697   3.636 -0.1024 -1.3309 -0.2586
 6870TIP3   OH220573   3.286   6.247   0.006 -0.3558 -0.0498 -0.4225
 6870TIP3    H120574   3.316   6.338   0.010 -0.6696  0.0250  0.3401
 6870TIP3    H220575   3.290   6.216   0.097 -1.6009 -0.3536 -0.4553
 6871TIP3   OH220576   0.538   0.400   4.618  0.0933  0.1928 -0.0462
 6871TIP3    H120577   0.563   0.310   4.600  1.4160  0.1193  1.9135
 6871TIP3    H220578   0.566   0.449   4.540 -0.9037 -1.0817 -1.2480
 6872TIP3   OH220579   3.309   6.741   4.674 -0.0479  0.1612  0.0843
 6872TIP3    H120580   3.230   6.758   4.724 -0.8853  0.2397 -1.2243
 6872TIP3    H220581   3.304   6.801   4.600  0.8570 -0.3586 -0.4140
 6873TIP3   OH220582   2.518   6.366   5.170 -0.2176  0.7691  0.5313
 6873TIP3    H120583   2.503   6.289   5.114  0.6983  1.3131 -0.4871
 6873TIP3    H220584   2.606   6.353   5.206 -0.4982  0.8066  1.2448
 6874TIP3   OH220585   1.994   4.610   3.751 -0.9174 -0.6720  0.0100
 6874TIP3    H120586   1.961   4.554   3.822 -0.2789 -2.6287 -1.1766
 6874TIP3    H220587   2.086   4.624   3.773 -1.0183 -0.2511  0.1800
 6875TIP3   OH220588   0.596   0.063   3.664 -0.2411  0.5337  0.2896
 6875TIP3    H120589   0.652   0.084   3.738  1.2621  0.0070 -0.6539
 6875TIP3    H220590   0.548   0.144   3.646  0.1079  0.9532  1.1939
 6876TIP3   OH220591   2.844   2.274   1.101  0.2500  0.2263 -0.0341
 6876TIP3    H120592   2.904   2.344   1.076 -0.6061  1.1792  0.5298
 6876TIP3    H220593   2.772   2.280   1.038  0.4482 -0.5471 -0.3542
 6877TIP3   OH220594   3.956   2.576   2.150 -0.2552  0.3775 -0.5503
 6877TIP3    H120595   3.903   2.635   2.096  1.3576  1.4114 -1.0763
 6877TIP3    H220596   3.910   2.492   2.146 -1.4930  1.0701 -1.5004
 6878TIP3   OH220597   1.346   2.494   0.166  0.0141 -0.4385  0.0714
 6878TIP3    H120598   1.358   2.538   0.250 -3.0579  0.3264  0.2278
 6878TIP3    H220599   1.251   2.481   0.159  0.1590 -0.5265 -3.2573
 6879TIP3   OH220600   3.537   5.728   0.762  0.1184 -0.0104 -0.1907
 6879TIP3    H120601   3.476   5.771   0.822 -0.4155 -3.0619  1.6718
 6879TIP3    H220602   3.490   5.723   0.679 -0.8208  0.6186  0.2870
 6880TIP3   OH220603   6.567   4.649   1.374  0.2793 -0.1009 -0.0238
 6880TIP3    H120604   6.529   4.611   1.295 -2.1852 -0.7148  1.3633
 6880TIP3    H220605   6.526   4.735   1.382  1.3536  0.4271  0.0260
 6881TIP3   OH220606   4.116   1.415   0.491  1.1486  0.3760 -0.0995
 6881TIP3    H120607   4.030   1.386   0.521  1.7904 -1.4717  0.1030
 6881TIP3    H220608   4.165   1.433   0.571  0.8387  1.8683 -0.2226
 6882TIP3   OH220609   6.424   2.426   5.316 -0.2629 -0.3700 -0.0714
 6882TIP3    H120610   6.392   2.412   5.227 -0.8202 -1.9153  0.3443
 6882TIP3    H220611   6.507   2.377   5.319  0.9765  1.5957 -0.4031
 6883TIP3   OH220612   3.930   5.117   2.857 -0.4435 -0.0711  0.2931
 6883TIP3    H120613   3.843   5.091   2.826 -1.0345  0.2899  1.5796
 6883TIP3    H220614   3.914   5.159   2.942  0.8491  1.2999 -0.1073
 6884TIP3   OH220615   5.528   1.728   5.199  0.4320  0.6741  0.9794
 6884TIP3    H120616   5.492   1.817   5.201 -0.3077  0.3965  0.4760
 6884TIP3    H220617   5.618   1.738   5.229  0.0705  1.4473  1.8610
 6885TIP3   OH220618   6.049   1.425   0.379  0.0069 -0.3561  0.1382
 6885TIP3    H120619   5.980   1.363   0.404  0.5776 -1.3142 -0.6406
 6885TIP3    H220620   6.128   1.372   0.370  0.5278  0.4959 -0.4613
 6886TIP3   OH220621   3.387   2.173   2.240 -0.2992  0.0141  0.3748
 6886TIP3    H120622   3.295   2.181   2.216 -0.3746 -0.6089  0.4396
 6886TIP3    H220623   3.390   2.102   2.304  0.2528 -0.1236  0.2102
 6887TIP3   OH220624   6.539   2.052   0.766  0.2376  0.7564  0.0977
 6887TIP3    H120625   6.596   1.990   0.810 -1.3952  0.1380  1.4456
 6887TIP3    H220626   6.575   2.060   0.677  2.4110  0.4673  0.9139
 6888TIP3   OH220627   0.929   0.947   4.918  0.3511 -0.1010 -0.1806
 6888TIP3    H120628   0.855   0.967   4.860 -1.1926 -0.8573  1.4236
 6888TIP3    H220629   0.947   1.030   4.963 -1.7585 -0.5714  1.7604
 6889TIP3   OH220630   6.661   0.674   3.130  0.2762  0.1544  0.2616
 6889TIP3    H120631   6.651   0.594   3.079 -1.6438 -0.6131  1.7285
 6889TIP3    H220632   6.697   0.645   3.214 -1.1704  0.6635  1.0987
 6890TIP3   OH220633   2.895   2.015   1.356  0.3287  0.0462  0.0338
 6890TIP3    H120634   2.866   2.010   1.264 -0.6444  2.5103  0.1287
 6890TIP3    H220635   2.817   2.042   1.404  0.8580 -1.0809  1.6142
 6891TIP3   OH220636   4.806   3.948   1.247  0.0732 -0.1777 -0.3405
 6891TIP3    H120637   4.771   4.024   1.293  0.6685  0.3877 -0.7941
 6891TIP3    H220638   4.786   3.963   1.155  0.3274 -0.4985 -0.4533
 6892TIP3   OH220639   2.959   0.189   0.482 -0.1738 -0.3019 -0.1424
 6892TIP3    H120640   2.898   0.123   0.513 -0.6636  0.2484  0.0981
 6892TIP3    H220641   2.949   0.190   0.387 -0.7990  0.0284 -0.0747
 6893TIP3   OH220642   6.198   2.009   0.080 -0.0273  0.1530  0.2338
 6893TIP3    H120643   6.117   2.031   0.128 -1.4511 -2.5205 -0.7241
 6893TIP3    H220644   6.178   2.030  -0.011  0.9485  0.8943  0.1844
 6894TIP3   OH220645   4.639   3.196   5.857 -0.2531  0.5010  0.0315
 6894TIP3    H120646   4.705   3.128   5.871 -2.0110 -1.6371 -1.4004
 6894TIP3    H220647   4.673   3.249   5.785  1.1874  1.3217  1.2429
 6895TIP3   OH220648   5.747   5.748   3.170 -0.7522  0.3397  0.6301
 6895TIP3    H120649   5.807   5.792   3.229  0.8466  0.8644 -1.2794
 6895TIP3    H220650   5.705   5.819   3.120 -0.2876 -0.1490 -0.4957
 6896TIP3   OH220651   5.822   0.257   2.170  0.0106 -0.5857 -0.4678
 6896TIP3    H120652   5.879   0.284   2.241 -0.3568 -0.1266 -0.3439
 6896TIP3    H220653   5.778   0.337   2.142 -0.7433 -0.9617 -0.4115
 6897TIP3   OH220654   0.089   3.691   4.705 -0.2389  0.4310 -0.4980
 6897TIP3    H120655   0.028   3.748   4.752 -1.0164  1.1821 -2.3381
 6897TIP3    H220656   0.106   3.619   4.767 -2.1938  0.7234  0.4656
 6898TIP3   OH220657   4.819   1.351   4.780 -1.0477  0.2427 -1.3316
 6898TIP3    H120658   4.816   1.399   4.697 -2.9227  1.9649 -0.3626
 6898TIP3    H220659   4.822   1.419   4.847  3.0204 -1.0811  0.1085
 6899TIP3   OH220660   1.965   4.933   4.263 -0.1778 -0.2146 -0.4812
 6899TIP3    H120661   1.943   4.842   4.242 -0.9534 -0.1123 -0.1499
 6899TIP3    H220662   1.882   4.981   4.252 -0.1351  0.1918  0.7703
 6900TIP3   OH220663   6.484   1.732   4.365  0.2082  0.7244 -0.0015
 6900TIP3    H120664   6.482   1.749   4.459  0.4944  0.2254  0.0958
 6900TIP3    H220665   6.422   1.660   4.352 -0.3349  1.2277 -0.2923
 6901TIP3   OH220666   0.098   4.577   2.989  0.2988  0.0304  0.1582
 6901TIP3    H120667   0.093   4.606   3.080 -0.7181  2.4240 -0.5784
 6901TIP3    H220668   0.040   4.501   2.985  0.5273 -0.2464  1.5229
 6902TIP3   OH220669   5.766   3.428   1.174  0.2421 -0.5853  0.2392
 6902TIP3    H120670   5.727   3.491   1.113 -1.1952  1.3925  2.9713
 6902TIP3    H220671   5.749   3.343   1.135 -2.3892  0.4588 -1.1579
 6903TIP3   OH220672   4.784   0.811   5.789 -0.4068 -0.1725  0.3304
 6903TIP3    H120673   4.833   0.767   5.720 -0.6484  0.3179 -0.1545
 6903TIP3    H220674   4.818   0.773   5.870 -0.1044 -0.7294 -0.0527
 6904TIP3   OH220675   0.045   1.083   4.194 -0.5660  0.3912  0.1552
 6904TIP3    H120676  -0.035   1.032   4.183  0.2572 -0.8624 -0.2688
 6904TIP3    H220677   0.041   1.117   4.283 -2.7582  2.4905 -0.6661
 6905TIP3   OH220678   4.490   4.980   2.136  0.2379 -0.5432  0.3690
 6905TIP3    H120679   4.472   4.886   2.139  1.6883 -0.8538  0.2584
 6905TIP3    H220680   4.557   4.993   2.204 -1.7414  0.8797  2.1941
 6906TIP3   OH220681   0.864   4.314   0.491  0.2771  0.1625 -0.0560
 6906TIP3    H120682   0.830   4.395   0.453 -1.5970 -0.0495  1.0308
 6906TIP3    H220683   0.926   4.281   0.426  1.2545  2.5468 -0.4122
 6907TIP3   OH220684   4.496   3.420   2.465  0.4117  0.1168  0.0102
 6907TIP3    H120685   4.428   3.367   2.508  0.1178  1.7217  1.6617
 6907TIP3    H220686   4.550   3.453   2.538  0.7098  1.8913 -0.9547
 6908TIP3   OH220687   3.468   5.628   4.154  0.0724  0.1818  0.5466
 6908TIP3    H120688   3.490   5.680   4.077  1.5530 -0.4610  0.4890
 6908TIP3    H220689   3.384   5.587   4.133  1.4797 -1.7960 -1.7536
 6909TIP3   OH220690   4.449   1.285   5.876 -0.0487 -0.4532 -0.1012
 6909TIP3    H120691   4.382   1.246   5.820 -0.8997  0.1160  0.5047
 6909TIP3    H220692   4.400   1.338   5.939  0.9314 -0.5039  0.7298
 6910TIP3   OH220693   4.648   2.195   0.340  0.1407  0.1581  0.0268
 6910TIP3    H120694   4.694   2.279   0.347 -0.8926  0.6388  1.4985
 6910TIP3    H220695   4.615   2.194   0.250 -0.0304  1.4530  0.0488
 6911TIP3   OH220696   5.433   0.433   1.063 -0.0567 -0.0917 -0.2684
 6911TIP3    H120697   5.461   0.498   1.127 -1.0865  0.2195 -0.1134
 6911TIP3    H220698   5.381   0.482   1.000 -0.2671 -0.6439 -0.5318
 6912TIP3   OH220699   2.677   3.048   0.428 -0.1130 -0.2384  0.2063
 6912TIP3    H120700   2.614   3.078   0.363  0.5253  0.1020 -0.2741
 6912TIP3    H220701   2.753   3.021   0.377 -0.3477 -1.9128  0.6773
 6913TIP3   OH220702   3.419   4.227   2.973 -0.4518  0.1395  0.2830
 6913TIP3    H120703   3.324   4.223   2.979 -0.4735 -1.1668 -0.6182
 6913TIP3    H220704   3.448   4.251   3.061 -1.5918  0.4374  0.5943
 6914TIP3   OH220705   4.175   6.058   2.571  0.2188 -0.4843 -0.1545
 6914TIP3    H120706   4.189   5.989   2.635 -2.2027  0.2579  1.2752
 6914TIP3    H220707   4.184   6.139   2.621 -0.8882  0.1322 -0.9132
 6915TIP3   OH220708   2.396   2.427   1.002  0.9334  0.7773 -0.3887
 6915TIP3    H120709   2.435   2.408   1.087 -0.3498 -0.4907 -0.0515
 6915TIP3    H220710   2.317   2.373   0.999  0.0241  2.1076 -1.6790
 6916TIP3   OH220711   4.110   6.486   5.799 -0.1608 -0.2701 -0.3319
 6916TIP3    H120712   4.088   6.501   5.891 -0.2118  0.4736 -0.4654
 6916TIP3    H220713   4.161   6.405   5.800  0.1801 -0.0542  0.4011
 6917TIP3   OH220714   2.391   4.441   2.214 -0.1553  0.6611 -0.3920
 6917TIP3    H120715   2.301   4.461   2.241  0.3448  2.8627 -0.2084
 6917TIP3    H220716   2.393   4.345   2.206 -1.6246  0.2607  2.7303
 6918TIP3   OH220717   1.376   4.931   4.057  0.1666 -0.1142  0.1530
 6918TIP3    H120718   1.419   4.944   3.972  0.7223 -0.9609  0.2986
 6918TIP3    H220719   1.407   5.004   4.110 -1.1529  1.1483 -0.7218
 6919TIP3   OH220720   5.700   1.954   2.294 -0.0105  0.3788  0.5041
 6919TIP3    H120721   5.621   1.989   2.336  0.1906  1.6060 -0.1209
 6919TIP3    H220722   5.772   1.987   2.347  0.0964 -1.1083  1.3395
 6920TIP3   OH220723   0.019   2.660   3.750  0.4214  0.3078  0.4950
 6920TIP3    H120724  -0.054   2.703   3.795  0.1530 -0.8648  1.2249
 6920TIP3    H220725   0.097   2.692   3.795  0.2145 -0.0711  1.1430
 6921TIP3   OH220726   5.231   3.806   2.316 -0.7053  0.2164  0.2050
 6921TIP3    H120727   5.152   3.808   2.261 -1.0486 -1.1546  0.5963
 6921TIP3    H220728   5.203   3.846   2.399 -0.1926  2.2640 -0.5710
 6922TIP3   OH220729   1.178   2.933   2.341  0.2131 -0.3713  0.2935
 6922TIP3    H120730   1.132   2.989   2.278  0.4892  0.3436  0.7162
 6922TIP3    H220731   1.117   2.925   2.414  0.5495  0.1737  0.6435
 6923TIP3   OH220732   4.333   1.200   4.941 -0.5596  0.7300  0.0681
 6923TIP3    H120733   4.238   1.193   4.929 -0.5011  1.5057 -0.9260
 6923TIP3    H220734   4.357   1.119   4.986 -1.5712  0.1126 -0.4586
 6924TIP3   OH220735   6.141   3.991   1.958 -0.0894 -0.3259  0.0998
 6924TIP3    H120736   6.129   3.900   1.983  1.6737 -0.8668 -0.8574
 6924TIP3    H220737   6.233   3.997   1.933  0.0823  1.9560  1.0631
 6925TIP3   OH220738   4.893   4.317   4.902  0.6978  0.0406  0.3891
 6925TIP3    H120739   4.910   4.328   4.996 -0.8202 -1.6151  0.9110
 6925TIP3    H220740   4.920   4.226   4.884  2.1509  0.7108 -1.0979
 6926TIP3   OH220741   2.354   5.539   2.532 -0.1092 -0.3530 -0.5097
 6926TIP3    H120742   2.283   5.512   2.474 -0.8109  0.4651 -0.0388
 6926TIP3    H220743   2.426   5.479   2.510 -0.2258  0.1794 -2.4962
 6927TIP3   OH220744   7.064   4.171   4.750 -0.2739 -0.0207  0.1072
 6927TIP3    H120745   7.005   4.193   4.822  1.8452 -1.0617  2.2882
 6927TIP3    H220746   7.100   4.086   4.774  2.8602  0.9885 -0.5543
 6928TIP3   OH220747   0.231   3.178   1.557 -0.4358  0.0603 -0.5342
 6928TIP3    H120748   0.278   3.125   1.621 -0.8501  0.0855 -0.2037
 6928TIP3    H220749   0.291   3.249   1.536 -0.8123  0.8211  0.8693
 6929TIP3   OH220750   3.577   4.357   2.109  1.0082 -0.0314  0.6051
 6929TIP3    H120751   3.666   4.343   2.142  1.3717 -1.2586 -0.7837
 6929TIP3    H220752   3.589   4.377   2.016 -0.1996 -1.1946  0.1660
 6930TIP3   OH220753   2.019   5.643   2.727  0.4513 -0.2110 -0.0576
 6930TIP3    H120754   1.951   5.655   2.794 -0.4692  2.2130 -1.2920
 6930TIP3    H220755   1.973   5.603   2.653  0.2510  1.5915 -0.9617
 6931TIP3   OH220756   4.707   6.265   3.186 -0.1235  0.3042  0.2089
 6931TIP3    H120757   4.757   6.239   3.109 -1.0105  1.2872 -0.7451
 6931TIP3    H220758   4.763   6.327   3.231 -0.6337  1.8060 -1.1344
 6932TIP3   OH220759   6.787   6.255   5.751 -0.0905  0.2687  0.2428
 6932TIP3    H120760   6.835   6.203   5.686 -0.1615  0.0567  0.3602
 6932TIP3    H220761   6.855   6.300   5.801 -0.0232  0.1537  0.2544
 6933TIP3   OH220762   4.795   3.371   1.691  0.0149 -0.5539 -0.6348
 6933TIP3    H120763   4.792   3.409   1.779 -1.5037 -0.4491 -0.7108
 6933TIP3    H220764   4.730   3.421   1.641 -0.0704 -1.4711 -1.4728
 6934TIP3   OH220765   2.821   4.542   2.203  0.1889 -0.7874  0.7301
 6934TIP3    H120766   2.779   4.573   2.123  0.5739  0.3976  0.9784
 6934TIP3    H220767   2.904   4.505   2.174  0.4944 -0.0216  0.6171
 6935TIP3   OH220768   1.418   1.749   1.416  0.8072 -0.2035 -0.4441
 6935TIP3    H120769   1.389   1.696   1.342 -0.7838  1.2790 -0.9598
 6935TIP3    H220770   1.354   1.729   1.485  2.4813 -1.8458  0.7188
 6936TIP3   OH220771   2.340   2.946   1.046  0.4172 -0.6737  0.4413
 6936TIP3    H120772   2.387   3.001   0.983  1.0249  0.0269  1.4712
 6936TIP3    H220773   2.271   3.003   1.080  0.8843 -0.6075  1.3168
 6937TIP3   OH220774   1.083   1.024   1.716  0.6822 -0.1747  0.1471
 6937TIP3    H120775   1.065   0.953   1.777 -0.1347 -1.0707 -1.1094
 6937TIP3    H220776   1.073   1.104   1.769  1.7549 -0.9626  1.6008
 6938TIP3   OH220777   0.836   2.792   1.187  0.1914 -0.6719  0.4426
 6938TIP3    H120778   0.765   2.739   1.226  0.3379 -1.2976 -0.1150
 6938TIP3    H220779   0.916   2.747   1.214  0.3553 -0.2215  0.6995
 6939TIP3   OH220780   1.613   3.146   4.192 -0.4023 -0.2995  0.2379
 6939TIP3    H120781   1.568   3.198   4.126 -1.2080 -0.0792  0.9336
 6939TIP3    H220782   1.653   3.074   4.143 -1.9125 -0.7676 -0.3730
 6940TIP3   OH220783   3.766   1.011   3.892 -0.1289  0.1331 -0.6517
 6940TIP3    H120784   3.776   0.922   3.926  0.3520  0.3731 -0.1562
 6940TIP3    H220785   3.789   1.068   3.966 -0.8246  0.6774 -0.8400
 6941TIP3   OH220786   2.960   1.408   0.436 -0.0659  0.2727 -0.4353
 6941TIP3    H120787   2.973   1.331   0.381 -0.8648  0.0055 -0.2623
 6941TIP3    H220788   2.983   1.482   0.379 -3.2506  0.1944 -2.0677
 6942TIP3   OH220789   4.253   3.490   3.687  0.2949  0.5344  0.2930
 6942TIP3    H120790   4.233   3.534   3.604  0.5578 -2.0961 -1.3259
 6942TIP3    H220791   4.175   3.504   3.741 -0.9272  0.3835 -1.3312
 6943TIP3   OH220792   1.392   2.600   2.610 -0.4044 -0.3930 -0.2241
 6943TIP3    H120793   1.325   2.550   2.564 -0.1798 -0.1713 -0.8120
 6943TIP3    H220794   1.467   2.599   2.551  0.0771 -0.5504  0.3816
 6944TIP3   OH220795   5.890   4.978   3.181 -0.0372 -0.1577 -0.4453
 6944TIP3    H120796   5.838   5.054   3.153  0.0427  0.7393  1.7076
 6944TIP3    H220797   5.981   5.005   3.168 -0.0155 -1.0375 -2.4552
 6945TIP3   OH220798   5.164   4.434   5.499  0.3416  0.0494 -0.0497
 6945TIP3    H120799   5.242   4.436   5.554 -0.2044 -1.0927  0.8296
 6945TIP3    H220800   5.101   4.490   5.544 -0.3105 -1.3563  0.8885
 6946TIP3   OH220801   5.543   6.244   4.937  0.6129  0.7741  0.1033
 6946TIP3    H120802   5.521   6.191   4.860 -0.4210  1.7983 -0.3208
 6946TIP3    H220803   5.498   6.327   4.924  2.3778  1.8657  0.6580
 6947TIP3   OH220804   3.882   4.605   3.909 -0.2552  0.3993  0.3381
 6947TIP3    H120805   3.962   4.609   3.962  0.3813  0.0873 -0.5714
 6947TIP3    H220806   3.874   4.693   3.871 -0.5225  0.5244  0.6831
 6948TIP3   OH220807   4.743   5.167   2.861  0.3353  0.2968 -0.2642
 6948TIP3    H120808   4.753   5.246   2.809 -1.1540  0.8342  0.2308
 6948TIP3    H220809   4.751   5.197   2.952 -0.9344  0.0178 -0.0431
 6949TIP3   OH220810   1.415   6.496   2.572  0.2059 -0.2116 -0.1590
 6949TIP3    H120811   1.492   6.479   2.519  2.0625  0.1578  2.2596
 6949TIP3    H220812   1.410   6.423   2.633  0.8837  1.5337  2.1139
 6950TIP3   OH220813   3.199   0.011   2.173 -0.1245 -0.2372  0.5146
 6950TIP3    H120814   3.289   0.021   2.203 -0.0820  0.5339  0.1418
 6950TIP3    H220815   3.197   0.052   2.087 -0.7889 -0.4148  0.4393
 6951TIP3   OH220816   1.118   4.624   2.064 -0.4366 -0.1536  0.1299
 6951TIP3    H120817   1.172   4.561   2.014  0.5561  1.6367 -1.1620
 6951TIP3    H220818   1.113   4.586   2.152  0.5080 -1.8095 -0.4727
 6952TIP3   OH220819   5.210   2.110   0.663 -0.5433  0.5638  0.6503
 6952TIP3    H120820   5.148   2.059   0.610  1.6246 -1.2072 -0.3534
 6952TIP3    H220821   5.239   2.048   0.731 -0.4312  1.5934  1.5595
 6953TIP3   OH220822   4.827   0.179   3.612  0.0589  0.3423  0.1422
 6953TIP3    H120823   4.747   0.231   3.624 -1.0533 -1.1616 -0.4188
 6953TIP3    H220824   4.808   0.096   3.656  1.1715 -0.1817 -0.3271
 6954TIP3   OH220825   4.993   5.405   3.635 -0.2913  0.5785 -0.1438
 6954TIP3    H120826   5.039   5.367   3.710 -0.5495  3.6764  1.7577
 6954TIP3    H220827   5.040   5.372   3.559  0.9282 -1.5317  1.4102
 6955TIP3   OH220828   1.263   4.835   1.646 -0.5582 -0.8024  0.1265
 6955TIP3    H120829   1.183   4.797   1.680 -0.6648 -0.2022  0.5547
 6955TIP3    H220830   1.234   4.911   1.594 -0.1664  0.9014  2.2582
 6956TIP3   OH220831   0.232   2.956   2.001 -1.2818 -0.2679  0.4308
 6956TIP3    H120832   0.153   2.966   2.054 -2.2355  2.6024 -1.3312
 6956TIP3    H220833   0.297   3.014   2.041 -1.6567  1.0603 -0.7868
 6957TIP3   OH220834   1.225   6.163   4.581 -0.4532 -0.0094 -0.4136
 6957TIP3    H120835   1.152   6.133   4.636 -0.1129 -1.8713 -0.9115
 6957TIP3    H220836   1.208   6.256   4.569 -1.1567  0.2418  1.9013
 6958TIP3   OH220837   2.683   3.531   5.700  0.8468  0.2427  0.1974
 6958TIP3    H120838   2.677   3.446   5.657 -0.4547  1.0816 -1.3911
 6958TIP3    H220839   2.621   3.526   5.772 -0.4926  0.3542 -0.8981
 6959TIP3   OH220840   0.124   1.305   1.245 -0.2494  0.2417  0.0570
 6959TIP3    H120841   0.038   1.311   1.287  0.1826  0.1889  0.9703
 6959TIP3    H220842   0.185   1.340   1.309  0.4935 -0.3121 -0.3252
 6960TIP3   OH220843   7.045   3.968   4.100  0.1428 -0.0361 -0.0555
 6960TIP3    H120844   6.952   3.979   4.123  0.7339 -0.7795  3.1077
 6960TIP3    H220845   7.065   3.878   4.123  2.1046  0.6757  1.2551
 6961TIP3   OH220846   4.951   1.576   1.778  0.1766  0.2733 -0.0044
 6961TIP3    H120847   5.017   1.602   1.842  0.0110  1.0860 -0.1500
 6961TIP3    H220848   4.981   1.615   1.695  0.0230 -0.1759 -0.2767
 6962TIP3   OH220849   0.177   3.222   4.912  0.5593 -0.3814  0.7174
 6962TIP3    H120850   0.267   3.200   4.888  0.3284  0.5315 -1.1555
 6962TIP3    H220851   0.138   3.258   4.832 -0.3155  2.9077  2.4340
 6963TIP3   OH220852   4.254   0.732   3.824  0.5940  0.3343 -0.4246
 6963TIP3    H120853   4.286   0.653   3.868  0.0789  0.1408 -0.3902
 6963TIP3    H220854   4.246   0.707   3.732  1.1134  0.5631 -0.5324
 6964TIP3   OH220855   1.343   4.871   4.665  0.4605  0.5678  0.3577
 6964TIP3    H120856   1.294   4.872   4.583 -0.1790  0.7989  0.7398
 6964TIP3    H220857   1.434   4.888   4.639  0.7518 -2.0156 -0.6148
 6965TIP3   OH220858   3.995   0.593   2.033 -0.4644  0.3253 -0.2182
 6965TIP3    H120859   4.041   0.570   1.952  0.6670 -2.0449  0.9845
 6965TIP3    H220860   3.963   0.682   2.018  2.0028  1.0018 -2.2662
 6966TIP3   OH220861   6.943   0.482   2.190  0.2971 -0.0512 -0.2683
 6966TIP3    H120862   6.932   0.450   2.280  0.6631 -0.0447 -0.2201
 6966TIP3    H220863   6.857   0.469   2.150  0.2590 -0.5006 -0.0567
 6967TIP3   OH220864   3.432   1.706   0.747  0.0856  0.5748 -0.2733
 6967TIP3    H120865   3.452   1.704   0.653  1.3045 -0.4808 -0.0145
 6967TIP3    H220866   3.423   1.614   0.771 -0.0563  0.8310  0.6935
 6968TIP3   OH220867   2.718   1.584   0.606  0.2850  0.7442  0.5640
 6968TIP3    H120868   2.814   1.579   0.605  0.2779 -1.7981 -2.6096
 6968TIP3    H220869   2.691   1.505   0.653 -0.2178  0.2073 -0.6013
 6969TIP3   OH220870   6.138   0.846   1.048 -0.8996 -0.5708 -0.1774
 6969TIP3    H120871   6.155   0.854   1.142 -0.2575  1.2132 -0.4115
 6969TIP3    H220872   6.115   0.935   1.020 -1.7849 -1.2131 -1.5921
 6970TIP3   OH220873   5.142   5.257   1.483 -0.1565 -0.1942 -0.3268
 6970TIP3    H120874   5.159   5.166   1.458  0.9414 -0.3274  0.7730
 6970TIP3    H220875   5.089   5.251   1.562 -0.4937  0.1335 -0.5275
 6971TIP3   OH220876   3.707   3.042   4.574 -0.1903 -0.4910  0.5186
 6971TIP3    H120877   3.690   2.984   4.648 -0.5810 -0.0695  0.7680
 6971TIP3    H220878   3.766   2.993   4.518  1.2781 -0.2814  1.8113
 6972TIP3   OH220879   2.491   3.531   2.772  0.3675  0.1653 -0.0615
 6972TIP3    H120880   2.425   3.464   2.788  0.9533 -0.2994  0.4607
 6972TIP3    H220881   2.574   3.489   2.795  0.8835  0.6254 -1.0157
 6973TIP3   OH220882   6.607   5.573   5.595  0.1811 -0.1280 -0.2518
 6973TIP3    H120883   6.546   5.644   5.612  0.3421 -0.1603  0.5134
 6973TIP3    H220884   6.644   5.592   5.509  1.5983  1.7679  0.6941
 6974TIP3   OH220885   4.968   3.003   2.322 -0.0489 -0.0939  0.3072
 6974TIP3    H120886   5.050   3.024   2.278  0.1741 -0.5367  0.5037
 6974TIP3    H220887   4.901   3.049   2.272  0.5531  2.3729  1.6170
 6975TIP3   OH220888   3.880   3.749   4.784  0.0971 -0.2094 -0.0913
 6975TIP3    H120889   3.952   3.766   4.723 -0.6489 -0.6170 -1.1074
 6975TIP3    H220890   3.910   3.674   4.836  1.3396  1.0232  1.0669
 6976TIP3   OH220891   7.174   3.235   3.103 -0.8141 -0.9039 -0.0815
 6976TIP3    H120892   7.192   3.161   3.044  0.7857 -1.2226  0.7517
 6976TIP3    H220893   7.142   3.194   3.183 -1.2727 -0.5832 -0.0973
 6977TIP3   OH220894   6.316   0.322   1.128 -0.1686 -0.4319  0.3791
 6977TIP3    H120895   6.396   0.361   1.094 -1.1251 -0.1735 -1.6922
 6977TIP3    H220896   6.321   0.230   1.105 -0.8240 -0.2534 -0.5548
 6978TIP3   OH220897   6.823   0.796   4.598 -0.5882  0.3565  0.5045
 6978TIP3    H120898   6.735   0.813   4.566  0.7986  3.0497 -2.4071
 6978TIP3    H220899   6.837   0.863   4.666 -0.7795 -0.1100  1.0102
 6979TIP3   OH220900   3.622   4.990   2.376  0.2329  0.1130  0.0953
 6979TIP3    H120901   3.540   5.014   2.333 -0.4513 -0.6977  0.8979
 6979TIP3    H220902   3.677   5.068   2.368 -0.7958  0.8501 -0.0137
 6980TIP3   OH220903   4.867   0.161   1.532 -0.8954  0.4611 -0.5193
 6980TIP3    H120904   4.844   0.204   1.615 -1.4405  0.8072 -0.8445
 6980TIP3    H220905   4.875   0.233   1.470 -0.2371  0.2220 -0.7145
 6981TIP3   OH220906   5.363   0.234   2.076  0.1070  0.0102  0.0304
 6981TIP3    H120907   5.312   0.252   2.155  0.2386  0.3453  0.0418
 6981TIP3    H220908   5.299   0.198   2.014 -0.0291 -0.0991  0.2356
 6982TIP3   OH220909   4.946   1.194   3.108 -0.2944 -0.0991  0.5800
 6982TIP3    H120910   4.986   1.165   3.026  1.0120 -0.4337  1.2966
 6982TIP3    H220911   4.992   1.275   3.130  1.1326 -1.2466  2.1682
 6983TIP3   OH220912   0.688   4.941   5.160  1.2000  0.1322  0.8999
 6983TIP3    H120913   0.681   4.941   5.256  1.4408  0.7755  0.9190
 6983TIP3    H220914   0.764   4.995   5.142  1.3205 -0.2245  0.3531
 6984TIP3   OH220915   6.541   2.566   4.927 -0.1767  0.3391  0.2103
 6984TIP3    H120916   6.602   2.597   4.994 -0.4225  0.2811  0.4675
 6984TIP3    H220917   6.495   2.645   4.899  0.3135  0.4476 -0.2928
 6985TIP3   OH220918   1.563   5.205   2.442 -0.0589 -0.3988  0.8037
 6985TIP3    H120919   1.575   5.125   2.493 -0.6563 -1.2668 -0.3577
 6985TIP3    H220920   1.474   5.233   2.462  0.2448  0.1554  1.4255
 6986TIP3   OH220921   2.180   2.672   0.529  0.1228 -0.6152 -0.0232
 6986TIP3    H120922   2.087   2.655   0.513 -0.0332  0.2949 -0.1340
 6986TIP3    H220923   2.182   2.756   0.573  0.8071 -1.3635  1.4293
 6987TIP3   OH220924   0.872   6.068   3.046  0.5033 -0.2901 -0.2865
 6987TIP3    H120925   0.825   6.151   3.052  0.1942 -0.4636 -0.2936
 6987TIP3    H220926   0.961   6.088   3.076  0.9264  0.4330 -1.8731
 6988TIP3   OH220927   1.368   4.034   4.637  0.2313  0.5583 -0.0947
 6988TIP3    H120928   1.288   4.066   4.593 -0.2434  1.2535  1.2236
 6988TIP3    H220929   1.409   4.113   4.672  0.4591  0.0089  0.9179
 6989TIP3   OH220930   3.056   1.199   4.390  0.4172 -0.2156  0.5488
 6989TIP3    H120931   3.122   1.265   4.410  0.0889  0.9960 -1.8964
 6989TIP3    H220932   3.101   1.136   4.334 -0.0265 -0.3871  0.3783
 6990TIP3   OH220933   6.517   6.328   4.594  0.1161  0.0478  0.3850
 6990TIP3    H120934   6.560   6.387   4.532 -3.2876  1.8030 -0.5515
 6990TIP3    H220935   6.456   6.277   4.541  0.0127 -1.3581  1.7819
 6991TIP3   OH220936   6.915   0.192   1.182 -0.3164  0.1335 -0.7273
 6991TIP3    H120937   6.991   0.181   1.239 -0.6639  1.6830  0.0904
 6991TIP3    H220938   6.893   0.103   1.155 -0.2222 -0.7061  1.6825
 6992TIP3   OH220939   0.240   3.894   1.572  0.1663  0.2539 -0.9394
 6992TIP3    H120940   0.212   3.825   1.632 -2.2240  1.9450  0.0342
 6992TIP3    H220941   0.329   3.916   1.600 -1.2384  1.8502  3.0093
 6993TIP3   OH220942   1.138   5.312   1.558  0.4805  0.1151  0.1402
 6993TIP3    H120943   1.149   5.402   1.529 -0.6466  0.6336  1.2302
 6993TIP3    H220944   1.225   5.284   1.587  0.7197  1.0556  0.3491
 6994TIP3   OH220945   0.024   3.267   0.476  0.2359  0.1206  1.0410
 6994TIP3    H120946   0.032   3.195   0.538  0.9523 -1.5475 -0.8775
 6994TIP3    H220947   0.102   3.320   0.489  0.6385 -0.5118  1.2126
 6995TIP3   OH220948   3.263   5.903   1.817 -0.2046  0.0800 -0.3083
 6995TIP3    H120949   3.306   5.880   1.899 -0.1888  0.7068 -0.1371
 6995TIP3    H220950   3.302   5.987   1.793  0.8121 -0.7306 -1.6702
 6996TIP3   OH220951   3.496   4.922   3.044 -0.2560 -0.0063 -1.1502
 6996TIP3    H120952   3.401   4.917   3.048 -0.1916 -0.5620  0.1434
 6996TIP3    H220953   3.526   4.892   3.130  1.0458  1.4848 -1.0283
 6997TIP3   OH220954   1.283   1.895   1.871  0.0176  0.4161 -0.4038
 6997TIP3    H120955   1.224   1.969   1.888  0.4489  0.8019 -0.5745
 6997TIP3    H220956   1.251   1.826   1.929  2.0050  1.9442  2.8212
 6998TIP3   OH220957   1.566   3.132   2.269  0.5878 -0.0836 -0.2965
 6998TIP3    H120958   1.530   3.072   2.333  1.6018 -0.4394 -0.0369
 6998TIP3    H220959   1.521   3.112   2.188 -0.1571 -0.1530  0.1283
 6999TIP3   OH220960   2.444   3.105   3.777 -0.0413 -0.1550  0.2794
 6999TIP3    H120961   2.457   3.103   3.682 -1.2619  0.7924  0.0685
 6999TIP3    H220962   2.529   3.135   3.811  0.9553 -2.1025 -0.3343
 7000TIP3   OH220963   5.853   4.473   3.473  0.1301  0.5910 -0.6636
 7000TIP3    H120964   5.772   4.523   3.484  0.2097  0.8746 -1.3438
 7000TIP3    H220965   5.913   4.513   3.537 -1.3314 -2.1020  2.6976
 7001TIP3   OH220966   4.591   3.852   3.067 -0.4340 -0.4705  0.1609
 7001TIP3    H120967   4.547   3.883   3.146  2.5261 -0.7408  2.0927
 7001TIP3    H220968   4.645   3.778   3.097 -0.2202 -1.4752 -2.4272
 7002TIP3   OH220969   3.657   1.370   0.776  0.1431 -0.0600 -0.1695
 7002TIP3    H120970   3.597   1.428   0.729 -0.0332  1.7415  2.1358
 7002TIP3    H220971   3.717   1.429   0.822 -1.4616 -1.4168  4.1862
 7003TIP3   OH220972   1.142   4.600   2.872  0.0410 -0.3700  0.0467
 7003TIP3    H120973   1.215   4.573   2.929 -0.2089  0.2328  0.6621
 7003TIP3    H220974   1.185   4.634   2.793  0.3874 -1.3373 -0.1992
 7004TIP3   OH220975   6.862   4.348   4.003 -0.1456  0.0270  0.0683
 7004TIP3    H120976   6.905   4.392   3.929 -1.1477  0.5679 -0.2006
 7004TIP3    H220977   6.812   4.277   3.962  0.5261 -0.6527  0.3918
 7005TIP3   OH220978   0.522   1.165   2.636  0.1711  0.1560 -0.0445
 7005TIP3    H120979   0.603   1.129   2.673  1.7489  0.9616 -2.4783
 7005TIP3    H220980   0.522   1.257   2.663 -0.7180 -0.1549  1.1112
 7006TIP3   OH220981   1.211   1.302   2.198 -0.1604 -0.1493 -0.0917
 7006TIP3    H120982   1.291   1.353   2.189 -0.2782  0.2638  1.1120
 7006TIP3    H220983   1.208   1.277   2.290 -1.4882 -0.0399 -0.0837
 7007TIP3   OH220984   1.033   5.596   3.563 -0.4336 -0.0364  0.1861
 7007TIP3    H120985   0.978   5.673   3.572  1.2444  1.2625 -0.1922
 7007TIP3    H220986   1.018   5.566   3.473  1.7093  2.1956 -1.0326
 7008TIP3   OH220987   3.391   2.410   2.847 -0.1131  0.0938  0.3897
 7008TIP3    H120988   3.420   2.331   2.892 -0.3462  1.1589  2.5530
 7008TIP3    H220989   3.308   2.433   2.889  0.1744  1.7212  0.1663
 7009TIP3   OH220990   0.729   1.289   2.458  0.0812 -0.0338  0.2975
 7009TIP3    H120991   0.763   1.225   2.520 -0.1902 -0.5085 -0.0375
 7009TIP3    H220992   0.764   1.373   2.488 -0.3247 -0.2107  1.2919
 7010TIP3   OH220993   3.501   1.164   0.829  0.0191  0.1886  0.4176
 7010TIP3    H120994   3.557   1.090   0.806  0.1385  0.4838 -0.2694
 7010TIP3    H220995   3.559   1.240   0.826 -0.2461  0.3982  0.4909
 7011TIP3   OH220996   5.690   0.044   3.399 -0.4469 -0.1043  0.0625
 7011TIP3    H120997   5.596   0.040   3.382 -0.8050  1.5842  1.3340
 7011TIP3    H220998   5.696   0.076   3.489  1.3627 -2.5397  0.9033
 7012TIP3   OH220999   0.497   3.164   0.026 -0.3292 -0.2428 -0.1890
 7012TIP3    H121000   0.547   3.109   0.086  1.3028  0.9094 -0.4377
 7012TIP3    H221001   0.493   3.114  -0.056  1.5196  0.1400 -0.5533
 7013TIP3   OH221002   1.903   1.987   0.602  0.0741  0.1022 -0.0326
 7013TIP3    H121003   1.983   1.935   0.588 -0.7592 -0.7111 -2.2829
 7013TIP3    H221004   1.889   2.030   0.518 -0.5497  2.1947  1.0886
 7014TIP3   OH221005   6.557   5.233   2.106 -0.1616 -0.3036  0.1787
 7014TIP3    H121006   6.604   5.224   2.023 -0.3039  1.0297 -0.0609
 7014TIP3    H221007   6.470   5.197   2.088  0.1430 -1.0161  0.0786
 7015TIP3   OH221008   1.450   1.590   0.305  0.5100 -0.2159 -0.3213
 7015TIP3    H121009   1.392   1.547   0.369  1.5469 -0.9502  0.1476
 7015TIP3    H221010   1.407   1.674   0.287 -1.8975 -1.6118 -1.6953
 7016TIP3   OH221011   4.798   0.069   5.505  0.1734  0.0709  0.1789
 7016TIP3    H121012   4.851  -0.006   5.532 -0.6588 -0.6488 -0.1145
 7016TIP3    H221013   4.775   0.114   5.586  1.9919  0.9420  0.2454
 7017TIP3   OH221014   2.557   6.403   3.877  0.3165 -0.2568  0.0714
 7017TIP3    H121015   2.623   6.457   3.834  0.1490  1.7950  2.2332
 7017TIP3    H221016   2.597   6.376   3.960 -0.6831 -1.0556  0.3226
 7018TIP3   OH221017   6.361   2.873   4.340  0.2073 -0.2080  0.5514
 7018TIP3    H121018   6.272   2.838   4.330 -0.4218  1.3033  0.6689
 7018TIP3    H221019   6.413   2.822   4.277 -0.9434 -0.4108 -0.2801
 7019TIP3   OH221020   5.988   3.676   3.747  0.4346  0.5930  0.4033
 7019TIP3    H121021   5.999   3.719   3.832 -0.5830 -0.1766  0.9569
 7019TIP3    H221022   5.912   3.719   3.708 -2.0844 -2.0807  1.9705
 7020TIP3   OH221023   5.054   2.936   0.532 -0.1012  0.1221  0.3802
 7020TIP3    H121024   5.058   2.893   0.446  1.3239 -0.8696  0.8990
 7020TIP3    H221025   5.024   3.025   0.513 -1.5098 -0.5812 -0.9216
 7021TIP3   OH221026   4.140   3.458   5.216  0.0030 -0.2306  0.2943
 7021TIP3    H121027   4.135   3.520   5.289 -0.2077  1.4221 -1.0652
 7021TIP3    H221028   4.049   3.431   5.202 -0.1972  0.7327 -0.3772
 7022TIP3   OH221029   1.049   5.456   4.631  0.0255  0.2895  0.0867
 7022TIP3    H121030   1.113   5.527   4.622  0.0566  0.2322 -0.1460
 7022TIP3    H221031   1.074   5.411   4.711  0.5815 -0.0460 -0.2771
 7023TIP3   OH221032   3.271   2.004   1.783 -0.1226 -0.2040 -0.1615
 7023TIP3    H121033   3.291   1.933   1.722  0.0602  0.0868 -0.4396
 7023TIP3    H221034   3.227   2.070   1.731  1.7048  0.8842 -0.4314
 7024TIP3   OH221035   0.523   6.091   2.978 -0.6124  0.2040  0.4937
 7024TIP3    H121036   0.611   6.103   3.015  0.7895 -0.4616 -2.3100
 7024TIP3    H221037   0.527   6.135   2.894 -2.4367 -1.2512 -0.4258
 7025TIP3   OH221038   3.670   0.616   5.595 -0.7441  0.1344 -0.3218
 7025TIP3    H121039   3.618   0.664   5.661 -0.3396  1.2292 -0.7803
 7025TIP3    H221040   3.682   0.678   5.524 -0.2110 -0.6678 -0.9497
 7026TIP3   OH221041   4.945   3.981   4.494  0.0025  0.0807 -0.3705
 7026TIP3    H121042   4.880   3.995   4.426 -1.3574 -1.0270  0.6675
 7026TIP3    H221043   4.900   4.003   4.576  1.4868  1.0344  0.2375
 7027TIP3   OH221044   4.875   5.053   5.676  0.8655  0.2840 -0.2184
 7027TIP3    H121045   4.959   5.016   5.648  1.0098 -0.8407  1.5444
 7027TIP3    H221046   4.894   5.098   5.758  0.0849  1.7237 -0.7817
 7028TIP3   OH221047   1.678   6.704   4.049 -0.2819  0.4593 -0.4668
 7028TIP3    H121048   1.672   6.659   3.965 -0.4792 -0.6502  0.1211
 7028TIP3    H221049   1.609   6.665   4.102  1.2525 -0.5002  0.9369
 7029TIP3   OH221050   2.905   4.648   4.110 -0.2138  0.5081  0.4365
 7029TIP3    H121051   2.913   4.565   4.062  1.5118  1.0767 -0.3415
 7029TIP3    H221052   2.889   4.621   4.201  0.2414 -0.6876  0.1887
 7030TIP3   OH221053   0.743   5.618   5.734 -0.8270  0.0826  0.4207
 7030TIP3    H121054   0.724   5.709   5.711 -0.8876  0.0310  0.2656
 7030TIP3    H221055   0.833   5.619   5.766 -0.9483  0.2617  0.7703
 7031TIP3   OH221056   4.089   2.631   1.848 -0.0375 -0.1097 -0.2278
 7031TIP3    H121057   4.159   2.675   1.800 -0.1645 -0.7125 -0.9718
 7031TIP3    H221058   4.134   2.580   1.916  0.0870  1.7038  1.1496
 7032TIP3   OH221059   4.880   6.553   0.038  0.1386 -0.4756  0.4273
 7032TIP3    H121060   4.890   6.549   0.133 -3.7149 -0.7983  0.9908
 7032TIP3    H221061   4.839   6.638   0.022  0.0729 -0.7227 -0.8694
 7033TIP3   OH221062   4.758   1.092   2.335 -0.1681  0.5960  0.1133
 7033TIP3    H121063   4.734   1.185   2.329  0.5880  0.8132  0.3504
 7033TIP3    H221064   4.714   1.061   2.415  0.1495  0.9355  0.4254
 7034TIP3   OH221065   0.170   5.419   3.394 -0.4050 -0.0412  0.4629
 7034TIP3    H121066   0.121   5.365   3.457 -0.7762 -0.1818  0.0558
 7034TIP3    H221067   0.173   5.505   3.434  0.4854 -0.4322  1.2854
 7035TIP3   OH221068   6.655   2.326   2.364 -0.6307 -0.0172  0.5192
 7035TIP3    H121069   6.579   2.293   2.413  0.0799 -3.2495 -0.3723
 7035TIP3    H221070   6.624   2.333   2.274 -0.2751  0.1935  0.4110
 7036TIP3   OH221071   6.674   3.209   1.040  0.5357  0.0196 -0.0805
 7036TIP3    H121072   6.679   3.188   1.133 -0.3842 -1.6060 -0.3734
 7036TIP3    H221073   6.701   3.129   0.996  1.3076  0.8888 -1.2291
 7037TIP3   OH221074   5.141   3.800   4.130  0.2961  0.3720  0.1956
 7037TIP3    H121075   5.210   3.754   4.083  0.1348 -0.4379  0.7346
 7037TIP3    H221076   5.118   3.742   4.203  0.5075  1.5648  1.2517
 7038TIP3   OH221077   6.097   5.177   4.004 -0.3558  0.6134 -0.4219
 7038TIP3    H121078   6.118   5.232   3.929 -0.3165 -0.3838 -1.1547
 7038TIP3    H221079   6.119   5.231   4.080 -2.1259  2.3329 -1.0527
 7039TIP3   OH221080   1.355   1.591   5.007  0.3962 -0.3840  0.0731
 7039TIP3    H121081   1.321   1.654   5.071  1.5627  0.2277  0.1253
 7039TIP3    H221082   1.322   1.507   5.037  0.6812 -0.0694  1.3316
 7040TIP3   OH221083   3.874   1.474   2.453  0.6906 -0.8466 -0.0387
 7040TIP3    H121084   3.850   1.558   2.412  1.2914 -0.6647 -0.0309
 7040TIP3    H221085   3.809   1.462   2.522  1.0089 -0.0372  0.4103
 7041TIP3   OH221086   2.123   1.941   2.763 -0.6987 -0.0803  0.3121
 7041TIP3    H121087   2.040   1.982   2.788 -1.6857 -0.1020 -2.6018
 7041TIP3    H221088   2.189   2.006   2.788 -1.8910  1.4801 -0.3763
 7042TIP3   OH221089   1.492   4.590   2.765 -0.4462  0.1272 -0.3751
 7042TIP3    H121090   1.519   4.680   2.783  0.0320  0.0945 -0.9080
 7042TIP3    H221091   1.449   4.562   2.846  0.3881  0.4593  0.2042
 7043TIP3   OH221092   5.624   5.635   4.723 -0.0688  0.2171  0.4859
 7043TIP3    H121093   5.655   5.725   4.726  1.3912 -0.2782  2.6266
 7043TIP3    H221094   5.592   5.617   4.812 -2.6525 -0.6647 -0.5246
 7044TIP3   OH221095   2.254   5.028   5.526 -0.3426  0.1040  0.5459
 7044TIP3    H121096   2.283   5.068   5.608  0.6863  1.5007 -0.4603
 7044TIP3    H221097   2.318   4.959   5.509  0.1034  0.5621  0.3500
 7045TIP3   OH221098   6.475   5.831   4.562 -0.1275  0.3775  0.5141
 7045TIP3    H121099   6.456   5.845   4.655 -0.3315  1.1694  0.3547
 7045TIP3    H221100   6.395   5.856   4.517  0.0947  0.3364  0.0938
 7046TIP3   OH221101   6.729   6.664   4.058 -0.0896  0.1130 -0.4170
 7046TIP3    H121102   6.675   6.617   3.994  0.4155 -1.0650 -0.0209
 7046TIP3    H221103   6.773   6.594   4.106  0.8033  1.0251  0.1124
 7047TIP3   OH221104   6.059   4.388   5.300  0.0782 -0.4895 -0.4910
 7047TIP3    H121105   6.069   4.463   5.358 -0.4887 -0.7718 -0.0079
 7047TIP3    H221106   6.002   4.328   5.349 -0.8158 -0.5231 -1.5371
 7048TIP3   OH221107   0.848   5.236   5.831  0.4912  0.3481 -0.0498
 7048TIP3    H121108   0.769   5.288   5.842 -0.8412 -1.8928  2.3377
 7048TIP3    H221109   0.836   5.190   5.749 -2.4564 -2.4175  1.6949
 7049TIP3   OH221110   5.041   2.511   4.453  0.3953 -0.0268  0.0626
 7049TIP3    H121111   4.951   2.503   4.424  0.4310 -1.4431  0.2641
 7049TIP3    H221112   5.046   2.458   4.533  1.1342  0.9604  0.7031
 7050TIP3   OH221113   1.092   6.747   1.682 -0.1626 -0.1399 -0.8214
 7050TIP3    H121114   1.167   6.728   1.626  0.3633 -1.9794  0.4468
 7050TIP3    H221115   1.035   6.671   1.672 -1.0192  0.4329 -0.4028
 7051TIP3   OH221116   2.886   4.013   4.875 -0.5020 -0.7416 -0.3424
 7051TIP3    H121117   2.838   3.932   4.858 -1.3602 -0.4735  0.6826
 7051TIP3    H221118   2.934   3.995   4.956 -0.3863 -0.3592 -0.3268
 7052TIP3   OH221119   7.162   6.009   1.238  0.4549 -0.5008 -0.7575
 7052TIP3    H121120   7.158   5.948   1.165 -0.9006  0.5017 -1.5764
 7052TIP3    H221121   7.105   6.081   1.212  0.5525  0.2534  0.9656
 7053TIP3   OH221122   0.075   0.479   0.694 -0.5682 -0.4475 -0.0777
 7053TIP3    H121123   0.106   0.389   0.695 -1.0937 -0.6439  1.3069
 7053TIP3    H221124   0.153   0.532   0.711 -0.2494 -0.6364 -0.9474
 7054TIP3   OH221125   6.392   0.124   4.780  0.0823 -0.3087  0.1563
 7054TIP3    H121126   6.399   0.095   4.689  1.0716 -1.1713  0.4856
 7054TIP3    H221127   6.452   0.066   4.828 -1.0155 -0.3914  1.4841
 7055TIP3   OH221128   2.311   1.125   3.732  0.7502 -0.6282 -0.0587
 7055TIP3    H121129   2.342   1.136   3.643  1.3003 -0.9383  0.0941
 7055TIP3    H221130   2.366   1.183   3.784 -1.2671  1.6227 -0.2314
 7056TIP3   OH221131   5.997   0.650   1.863 -0.0250 -0.0824 -0.0643
 7056TIP3    H121132   5.976   0.720   1.925  5.7708  2.6621 -0.5901
 7056TIP3    H221133   6.041   0.583   1.917  0.9456  0.1702 -0.5222
 7057TIP3   OH221134   3.187   2.870   5.650  0.8517 -0.2837  0.4233
 7057TIP3    H121135   3.212   2.956   5.683  1.0856 -0.1264 -0.1514
 7057TIP3    H221136   3.189   2.880   5.554 -0.8541 -0.4198  0.3473
 7058TIP3   OH221137   5.086   0.045   5.662  0.0209  0.1043 -0.1026
 7058TIP3    H121138   5.002   0.076   5.695 -0.3973  0.1216 -1.1328
 7058TIP3    H221139   5.151   0.085   5.719 -0.6282  0.8500  0.1221
 7059TIP3   OH221140   5.200   5.412   4.866 -0.2274  0.4923 -0.3625
 7059TIP3    H121141   5.262   5.454   4.808  0.2124  0.9408  0.4128
 7059TIP3    H221142   5.158   5.344   4.813  0.5648  0.5232 -1.0306
 7060TIP3   OH221143   3.180   5.552   1.072  0.0836  0.4035 -0.8348
 7060TIP3    H121144   3.166   5.470   1.119 -1.1043  0.3712 -1.2142
 7060TIP3    H221145   3.155   5.620   1.135 -0.7412  0.3890 -1.1314
 7061TIP3   OH221146   1.725   5.425   2.341 -0.4007 -0.0923 -0.2364
 7061TIP3    H121147   1.696   5.356   2.401 -1.3152  0.2770 -0.2380
 7061TIP3    H221148   1.645   5.459   2.303  0.1881 -0.7537 -2.1907
 7062TIP3   OH221149   5.081   3.578   5.326 -0.0483 -0.0544 -0.3913
 7062TIP3    H121150   5.088   3.616   5.414 -1.7079  0.4308 -0.4420
 7062TIP3    H221151   5.135   3.498   5.330  0.8793  0.5991  0.6821
 7063TIP3   OH221152   6.983   6.543   5.604 -0.4131 -0.2325  0.0467
 7063TIP3    H121153   6.964   6.498   5.522  0.9123 -0.6600 -0.0445
 7063TIP3    H221154   6.908   6.601   5.617 -1.4978 -1.4386 -0.5441
 7064TIP3   OH221155   4.426   5.256   5.058  0.2798 -0.2281 -0.2995
 7064TIP3    H121156   4.517   5.229   5.051  0.5155  0.2903  0.5864
 7064TIP3    H221157   4.419   5.294   5.146 -0.0156  2.6171 -1.4627
 7065TIP3   OH221158   6.168   6.087   5.224  0.3526 -0.2909  0.2547
 7065TIP3    H121159   6.239   6.098   5.162  0.0801 -0.9839 -0.1815
 7065TIP3    H221160   6.125   6.173   5.226 -0.2797 -0.5345 -1.3185
 7066TIP3   OH221161   4.829   6.249   1.279  0.3949  0.3863 -0.1246
 7066TIP3    H121162   4.799   6.333   1.312 -0.4904  0.4982 -1.1705
 7066TIP3    H221163   4.834   6.261   1.184  0.8528 -0.5578 -0.2336
 7067TIP3   OH221164   5.164   4.650   2.727 -0.4181  0.1079 -0.3428
 7067TIP3    H121165   5.072   4.650   2.755 -0.5308 -1.5498 -0.5909
 7067TIP3    H221166   5.171   4.724   2.667 -1.9391 -0.5154 -1.3440
 7068TIP3   OH221167   2.370   0.169   2.928  0.6882  0.0272 -0.3408
 7068TIP3    H121168   2.275   0.165   2.933  0.7131 -0.4572 -0.2320
 7068TIP3    H221169   2.388   0.252   2.883  0.2830  1.1337  1.4534
 7069TIP3   OH221170   4.375   0.757   0.369 -0.0472  0.3634  0.0028
 7069TIP3    H121171   4.435   0.825   0.400  0.6834 -0.0622 -0.4587
 7069TIP3    H221172   4.291   0.802   0.358  0.4018  1.1677 -0.1996
 7070TIP3   OH221173   4.560   6.033   2.220  0.2218 -0.0684 -0.2750
 7070TIP3    H121174   4.502   6.062   2.291  0.5029 -0.7446  0.2319
 7070TIP3    H221175   4.513   6.059   2.140 -0.8516 -0.7137  0.1214
 7071TIP3   OH221176   1.958   4.396   0.101  0.3432 -0.6722  0.5016
 7071TIP3    H121177   1.959   4.430   0.190  0.7893 -1.9090  0.9899
 7071TIP3    H221178   1.896   4.323   0.104 -0.8963  0.2660 -0.6195
 7072TIP3   OH221179   5.495   3.199   3.536  0.6233 -0.6832  0.0544
 7072TIP3    H121180   5.454   3.197   3.450 -0.0571 -1.4327  0.3927
 7072TIP3    H221181   5.488   3.291   3.563 -0.3516 -0.7021 -0.1179
 7073TIP3   OH221182   3.773   4.653   0.192  0.0008  0.2128 -0.5729
 7073TIP3    H121183   3.856   4.663   0.238 -0.8163  1.4294  0.7111
 7073TIP3    H221184   3.798   4.637   0.101  1.6323 -0.4393 -0.0404
 7074TIP3   OH221185   0.849   4.440   0.034  0.1533 -0.4283  0.6400
 7074TIP3    H121186   0.870   4.524  -0.005  1.1607 -0.5637  0.8616
 7074TIP3    H221187   0.763   4.453   0.074  0.3577  0.5370  0.7942
 7075TIP3   OH221188   5.318   6.440   1.493  0.7041 -0.2153 -0.5176
 7075TIP3    H121189   5.317   6.480   1.580  2.6526  0.0300 -0.5639
 7075TIP3    H221190   5.269   6.500   1.438  1.5359  0.8962 -0.0811
 7076TIP3   OH221191   0.633   4.692   4.190 -0.0372 -0.5101  0.0070
 7076TIP3    H121192   0.612   4.770   4.139 -0.7024 -1.5106 -1.3506
 7076TIP3    H221193   0.722   4.669   4.162  0.0052 -0.4547  0.0984
 7077TIP3   OH221194   1.966   4.161   2.002  0.4698 -0.4615 -0.1162
 7077TIP3    H121195   1.975   4.117   2.086  1.2840 -1.1301 -0.5361
 7077TIP3    H221196   1.879   4.201   2.004  0.0173 -1.4604  0.5709
 7078TIP3   OH221197   3.516   5.778   2.899 -0.9739  0.1413  0.1915
 7078TIP3    H121198   3.501   5.685   2.881 -0.6644 -0.1371  1.3125
 7078TIP3    H221199   3.457   5.823   2.838  0.3285 -0.7051 -1.8050
 7079TIP3   OH221200   2.506   2.762   4.460 -0.6994  0.3298  0.0685
 7079TIP3    H121201   2.465   2.840   4.422 -1.1523  0.3704  0.6234
 7079TIP3    H221202   2.433   2.713   4.498 -0.3793 -0.2159 -0.0131
 7080TIP3   OH221203   3.092   5.519   5.051  0.0227  0.2279  0.9613
 7080TIP3    H121204   3.135   5.461   5.113  1.1457  0.3769  0.3468
 7080TIP3    H221205   3.163   5.569   5.011 -0.7039  0.3668 -0.2133
 7081TIP3   OH221206   0.127   4.017   2.767 -0.3363 -0.0879  0.3901
 7081TIP3    H121207   0.083   4.085   2.818 -0.0916  0.6743 -0.3857
 7081TIP3    H221208   0.214   4.053   2.749 -0.9813  0.4681 -2.0431
 7082TIP3   OH221209   5.575   1.714   3.472 -0.3196  0.2445 -0.1699
 7082TIP3    H121210   5.513   1.659   3.521 -1.4801  0.1897 -1.6107
 7082TIP3    H221211   5.637   1.745   3.538 -2.2603  0.8288  1.5040
 7083TIP3   OH221212   5.011   1.177   3.929 -0.0171  0.8162  0.3855
 7083TIP3    H121213   5.049   1.165   3.842  2.0523  0.3345  1.2979
 7083TIP3    H221214   5.047   1.260   3.959  1.8892 -0.4971  1.9811
 7084TIP3   OH221215   0.375   0.677   1.823  0.1334  0.0658 -0.2052
 7084TIP3    H121216   0.288   0.645   1.798  0.4641  0.1575 -1.5485
 7084TIP3    H221217   0.381   0.660   1.917 -1.6083  0.7088  0.0579
 7085TIP3   OH221218   6.463   2.819   2.033 -0.6387  0.3325 -1.0053
 7085TIP3    H121219   6.440   2.745   2.090  1.2127 -0.1843 -0.8813
 7085TIP3    H221220   6.528   2.869   2.082  1.3232 -0.3636 -2.7555
 7086TIP3   OH221221   5.258   2.833   1.444 -0.6187  0.4449  0.5651
 7086TIP3    H121222   5.215   2.894   1.504 -0.9709 -0.4770  1.2967
 7086TIP3    H221223   5.228   2.858   1.357 -2.5148 -0.0275  1.0377
 7087TIP3   OH221224   4.056   4.192   4.106  0.2413 -0.3442  0.5015
 7087TIP3    H121225   4.076   4.100   4.117 -0.8427 -0.8342 -1.1484
 7087TIP3    H221226   3.969   4.203   4.144  0.4721  0.0624  0.9239
 7088TIP3   OH221227   1.205   3.288   1.272 -0.9166 -0.1239  0.6768
 7088TIP3    H121228   1.247   3.337   1.201 -0.6680 -0.8840  0.2879
 7088TIP3    H221229   1.272   3.227   1.303 -1.2191 -0.2174  1.1568
 7089TIP3   OH221230   0.954   4.343   0.748 -0.5484  0.1199  0.1112
 7089TIP3    H121231   0.987   4.432   0.761  0.2219 -0.1908  0.3534
 7089TIP3    H221232   0.909   4.347   0.664  2.6095 -0.0805 -1.7849
 7090TIP3   OH221233   0.764   5.409   0.097 -0.3699  0.0378  0.1997
 7090TIP3    H121234   0.676   5.370   0.091  0.1412 -1.3558  1.1032
 7090TIP3    H221235   0.768   5.444   0.186  0.0413 -0.0627  0.2218
 7091TIP3   OH221236   3.397   0.564   2.396  0.2519 -0.5190 -0.4592
 7091TIP3    H121237   3.339   0.501   2.439  1.4643 -1.1390  0.3269
 7091TIP3    H221238   3.338   0.625   2.352 -1.0408 -0.2592  1.5208
 7092TIP3   OH221239   6.086   1.733   5.446  0.0356  0.0820 -0.1322
 7092TIP3    H121240   6.044   1.725   5.360 -0.8458 -0.1149  0.3116
 7092TIP3    H221241   6.072   1.824   5.471  1.3602  0.4855 -0.7170
 7093TIP3   OH221242   5.225   0.342   1.293 -0.0611 -0.0239  0.8291
 7093TIP3    H121243   5.233   0.247   1.279 -0.0553  0.0160  0.5468
 7093TIP3    H221244   5.290   0.363   1.359 -0.8957 -0.4197  1.8082
 7094TIP3   OH221245   1.536   2.077   5.539 -0.1867 -0.5691  0.0880
 7094TIP3    H121246   1.497   2.101   5.623  0.2594 -3.8934  1.4064
 7094TIP3    H221247   1.624   2.116   5.541  0.1270 -1.3008  1.5709
 7095TIP3   OH221248   1.076   3.950   4.893  0.1549  0.1654  0.7534
 7095TIP3    H121249   1.100   3.948   4.986  0.6610  0.2496  0.6314
 7095TIP3    H221250   1.102   4.037   4.864  0.9586 -0.2154  0.2929
 7096TIP3   OH221251   3.596   4.278   3.604 -0.3668 -0.1943 -0.2721
 7096TIP3    H121252   3.563   4.308   3.519 -0.6019  0.0639 -0.0886
 7096TIP3    H221253   3.687   4.254   3.587 -0.5775 -0.7019 -0.7307
 7097TIP3   OH221254   2.793   5.532   1.900  0.7350 -0.0760 -0.4930
 7097TIP3    H121255   2.751   5.617   1.915 -0.7043 -0.9817  1.1423
 7097TIP3    H221256   2.858   5.525   1.970  1.5607  0.0880 -1.2361
 7098TIP3   OH221257   5.142   3.511   2.618  0.0339  0.6281  0.5084
 7098TIP3    H121258   5.131   3.419   2.639 -0.2548  0.3683 -0.7086
 7098TIP3    H221259   5.231   3.518   2.583  0.3748  0.9894  1.3915
 7099TIP3   OH221260   2.776   2.741   0.372 -0.1146  0.3481 -0.2058
 7099TIP3    H121261   2.789   2.757   0.279  0.6600 -1.8965 -0.5578
 7099TIP3    H221262   2.711   2.671   0.376  0.0602  0.2178  0.9231
 7100TIP3   OH221263   5.759   0.306   5.492  0.0480  0.0991 -0.3340
 7100TIP3    H121264   5.841   0.345   5.521  0.1208 -1.0433  1.1238
 7100TIP3    H221265   5.761   0.216   5.527 -1.7508 -0.0014 -0.3785
 7101TIP3   OH221266   7.019   1.504   2.703  0.3859  0.0698 -0.6424
 7101TIP3    H121267   7.107   1.530   2.728 -0.1657  0.3903  1.1100
 7101TIP3    H221268   7.032   1.434   2.639  1.9838 -2.0837  1.8322
 7102TIP3   OH221269   1.677   0.028   2.625 -0.4495 -0.3078  0.0454
 7102TIP3    H121270   1.584   0.004   2.627 -0.9693  1.4402 -0.6392
 7102TIP3    H221271   1.705   0.026   2.717 -1.1265 -1.0006  0.2396
 7103TIP3   OH221272   1.900   3.633   0.250  0.2114 -0.4081 -0.0853
 7103TIP3    H121273   1.995   3.625   0.239  0.3665 -0.5506  1.1379
 7103TIP3    H221274   1.864   3.555   0.210  0.6125 -0.3417 -0.5820
 7104TIP3   OH221275   3.147   4.005   4.511  0.0143 -0.1374 -0.2076
 7104TIP3    H121276   3.115   4.081   4.559  0.6511  1.1162 -1.6834
 7104TIP3    H221277   3.074   3.981   4.454  0.5462  0.7356 -1.2857
 7105TIP3   OH221278   3.615   1.459   2.294  0.3256 -0.0199  0.3707
 7105TIP3    H121279   3.631   1.462   2.200  2.5277 -0.5402  0.6648
 7105TIP3    H221280   3.649   1.373   2.321 -2.9435 -1.1981  1.2589
 7106TIP3   OH221281   6.082   4.363   0.927  0.2612  0.3066 -0.1903
 7106TIP3    H121282   6.034   4.408   0.996  0.9736  0.3646  0.2799
 7106TIP3    H221283   6.167   4.407   0.924 -0.0790  0.9067 -1.7322
 7107TIP3   OH221284   5.733   0.650   3.857  0.5178 -0.2263 -0.0416
 7107TIP3    H121285   5.654   0.688   3.820  1.5557  1.6385 -0.4251
 7107TIP3    H221286   5.804   0.684   3.804  1.5661 -2.7507 -0.4314
 7108TIP3   OH221287   4.819   5.742   5.680  0.2796  0.0081 -0.4792
 7108TIP3    H121288   4.904   5.713   5.714  0.9163  1.4758 -0.7350
 7108TIP3    H221289   4.755   5.705   5.741  1.2363  0.5904  0.9224
 7109TIP3   OH221290   7.191   6.272   3.685 -0.3635  0.5882  0.0567
 7109TIP3    H121291   7.109   6.303   3.724 -0.8681 -1.3479  0.6302
 7109TIP3    H221292   7.239   6.232   3.757 -0.8793 -2.1587 -1.0079
 7110TIP3   OH221293   6.318   5.860   3.300  0.0275  0.0845  0.5919
 7110TIP3    H121294   6.358   5.924   3.360  0.5539 -0.0086  0.3424
 7110TIP3    H221295   6.324   5.901   3.214  0.4155 -0.3150  0.4215
 7111TIP3   OH221296   4.271   4.354   0.648 -0.2212 -0.0162  0.1891
 7111TIP3    H121297   4.208   4.287   0.675  0.1926 -0.6460 -0.3910
 7111TIP3    H221298   4.356   4.312   0.657  0.4681  1.7472  3.9132
 7112TIP3   OH221299   0.475   4.065   1.689  0.1473  0.5007 -0.1904
 7112TIP3    H121300   0.456   4.086   1.780 -0.3525 -2.1889  0.4239
 7112TIP3    H221301   0.420   4.124   1.638 -0.9901  0.8037  1.3231
 7113TIP3   OH221302   0.748   6.301   3.049 -0.1481 -0.0168 -0.1270
 7113TIP3    H121303   0.692   6.354   3.106  0.3011  0.5430 -0.2019
 7113TIP3    H221304   0.824   6.356   3.032  0.3502 -0.7099 -0.1656
 7114TIP3   OH221305   0.195   1.935   3.035  0.0724  0.3737  0.3367
 7114TIP3    H121306   0.269   1.995   3.040  0.7691 -0.3281 -0.9084
 7114TIP3    H221307   0.228   1.852   3.071 -0.1627  0.1118 -0.0375
 7115TIP3   OH221308   3.845   1.492   2.094 -0.0338  0.2318 -0.2639
 7115TIP3    H121309   3.900   1.448   2.159  2.1867  2.4585 -0.5200
 7115TIP3    H221310   3.873   1.455   2.010  0.0426  0.3350 -0.2836
 7116TIP3   OH221311   6.331   6.701   0.855  0.8649 -0.1677 -0.4686
 7116TIP3    H121312   6.423   6.707   0.881  1.2329  0.3376 -1.8001
 7116TIP3    H221313   6.330   6.637   0.784  0.4849  1.1453 -1.6851
 7117TIP3   OH221314   2.763   2.529   3.805  0.3294 -0.7865  0.4178
 7117TIP3    H121315   2.830   2.465   3.778  0.7279  0.2081 -1.0989
 7117TIP3    H221316   2.697   2.477   3.850  0.7624 -2.2399 -0.5413
 7118TIP3   OH221317   6.130   5.806   5.729  0.6837 -0.1985 -0.2122
 7118TIP3    H121318   6.144   5.898   5.753  2.0155 -0.3242 -0.4189
 7118TIP3    H221319   6.039   5.789   5.753  0.3828  1.1969 -0.2557
 7119TIP3   OH221320   0.276   6.258   4.356  0.3290 -0.2423 -0.2107
 7119TIP3    H121321   0.263   6.164   4.350 -0.5348 -0.3566  2.2696
 7119TIP3    H221322   0.365   6.272   4.323  1.2177 -2.2141  1.1652
 7120TIP3   OH221323   5.420   4.551   2.110 -0.3185  0.8956  0.4685
 7120TIP3    H121324   5.400   4.643   2.094  1.4262  0.9466 -1.8396
 7120TIP3    H221325   5.368   4.503   2.045  2.6798  0.7049 -2.0165
 7121TIP3   OH221326   2.769   5.841   3.302  0.0675  0.2335 -0.2578
 7121TIP3    H121327   2.789   5.922   3.255 -0.0777  2.5993  3.3131
 7121TIP3    H221328   2.854   5.799   3.315  0.8517  2.1342  1.4384
 7122TIP3   OH221329   3.074   0.006   5.064 -0.2273  0.1467 -0.2952
 7122TIP3    H121330   3.082  -0.022   4.973 -0.5756  1.2809 -0.6801
 7122TIP3    H221331   2.984   0.036   5.072 -0.2383 -0.0738  0.4690
 7123TIP3   OH221332   2.693   4.227   1.462 -0.6698 -0.0105  0.1199
 7123TIP3    H121333   2.700   4.285   1.387 -2.9497  0.2540  0.0442
 7123TIP3    H221334   2.707   4.283   1.538  1.2150 -0.1993 -0.0470
 7124TIP3   OH221335   3.276   1.452   5.630  0.1068 -0.0055  0.7453
 7124TIP3    H121336   3.253   1.390   5.560  1.1253  1.8428 -1.3703
 7124TIP3    H221337   3.366   1.431   5.652  0.6331  0.9814 -0.3539
 7125TIP3   OH221338   0.883   0.444   2.073  0.4315 -0.3439  0.0080
 7125TIP3    H121339   0.838   0.435   2.157  0.4245  1.3399  0.2029
 7125TIP3    H221340   0.936   0.365   2.066 -1.3452 -1.6650  0.4837
 7126TIP3   OH221341   6.693   1.606   1.565 -0.0286 -0.1987  0.0329
 7126TIP3    H121342   6.752   1.574   1.496  0.7182 -0.5142  0.7949
 7126TIP3    H221343   6.607   1.574   1.539  0.0976  0.3440 -1.1616
 7127TIP3   OH221344   0.193   3.947   0.871 -0.3397 -0.1695  0.0630
 7127TIP3    H121345   0.216   4.037   0.896  0.6687 -0.3777 -0.0737
 7127TIP3    H221346   0.157   3.956   0.783 -0.2366  0.0991  0.0458
 7128TIP3   OH221347   1.100   4.454   4.337  0.3078 -0.2885 -0.5125
 7128TIP3    H121348   1.098   4.373   4.388 -0.7481 -0.3292 -0.5954
 7128TIP3    H221349   1.014   4.457   4.294 -1.6976  3.1541  3.0870
 7129TIP3   OH221350   1.998   2.134   1.224 -0.0192  0.2062 -0.2552
 7129TIP3    H121351   1.925   2.074   1.204  1.9061 -2.0429 -1.0303
 7129TIP3    H221352   1.972   2.217   1.185 -2.7486 -0.0965  0.7124
 7130TIP3   OH221353   1.116   3.273   0.107 -0.2238 -0.4403 -0.4806
 7130TIP3    H121354   1.150   3.239   0.190  3.4781 -1.6684 -2.3157
 7130TIP3    H221355   1.036   3.222   0.092 -0.3228 -1.0438  1.7096
 7131TIP3   OH221356   0.428   0.836   5.514 -0.0105 -0.5951  0.1874
 7131TIP3    H121357   0.461   0.806   5.430 -1.2940 -0.1815 -0.4975
 7131TIP3    H221358   0.361   0.771   5.538  1.4545 -1.6217  1.7133
 7132TIP3   OH221359   3.868   3.488   5.094  0.2146  0.6859  0.2080
 7132TIP3    H121360   3.778   3.477   5.064  0.7826  0.5174 -1.5804
 7132TIP3    H221361   3.868   3.570   5.142 -0.6155  1.4564 -1.0477
 7133TIP3   OH221362   7.212   5.087   5.598 -0.1122 -0.6035  0.2374
 7133TIP3    H121363   7.170   5.158   5.647 -1.2941 -1.8926  1.1733
 7133TIP3    H221364   7.141   5.048   5.546  0.3590 -1.5310  0.2587
 7134TIP3   OH221365   1.937   3.257   0.379 -0.5307  0.2658 -0.1632
 7134TIP3    H121366   1.861   3.256   0.321 -0.1322 -4.7420 -1.0848
 7134TIP3    H221367   1.913   3.198   0.450  2.0272 -0.4917  0.1605
 7135TIP3   OH221368   2.941   3.132   4.521  0.0031 -0.0758 -0.0947
 7135TIP3    H121369   2.849   3.106   4.525 -0.1674  0.4031 -0.8978
 7135TIP3    H221370   2.979   3.077   4.452 -0.2270  1.3625 -1.4023
 7136TIP3   OH221371   1.754   2.045   1.162  0.1654  0.1162  0.4414
 7136TIP3    H121372   1.729   2.041   1.069 -1.2504  0.7288  0.7614
 7136TIP3    H221373   1.718   1.965   1.200  1.7918 -0.7320  0.2519
 7137TIP3   OH221374   6.567   5.391   3.344 -0.0005  0.3455  0.5876
 7137TIP3    H121375   6.600   5.354   3.262  0.9802 -0.5781  1.3716
 7137TIP3    H221376   6.556   5.485   3.325  2.3260  0.5572  0.0050
 7138TIP3   OH221377   0.778   0.225   5.785 -0.1642  0.2858  0.7567
 7138TIP3    H121378   0.775   0.265   5.871  2.8542 -1.3088  1.7504
 7138TIP3    H221379   0.839   0.152   5.794 -0.9250 -0.9308 -2.3658
 7139TIP3   OH221380   2.071   1.003   1.127 -0.0851  0.0064  0.7809
 7139TIP3    H121381   1.994   0.958   1.092  1.3847 -1.3239 -0.9630
 7139TIP3    H221382   2.062   1.093   1.095 -0.0661 -0.5739 -0.9851
 7140TIP3   OH221383   0.975   0.195   5.063  0.4732  0.4030  0.1750
 7140TIP3    H121384   0.935   0.245   5.134  1.0316 -0.4538  1.1286
 7140TIP3    H221385   1.008   0.116   5.105 -0.7586 -0.9878 -1.3667
 7141TIP3   OH221386   4.545   6.355   0.132 -0.2241  0.2404 -0.5607
 7141TIP3    H121387   4.552   6.260   0.137 -2.1205  0.0375 -1.0440
 7141TIP3    H221388   4.475   6.377   0.194 -0.0261  1.2756 -0.6938
 7142TIP3   OH221389   5.445   5.901   0.035  0.1995  0.0347  0.6060
 7142TIP3    H121390   5.421   5.971  -0.027 -0.4529 -0.5915  0.1393
 7142TIP3    H221391   5.530   5.929   0.070 -0.4877  1.5623  1.1758
 7143TIP3   OH221392   1.007   2.099   2.416  1.0082  0.0615  0.3377
 7143TIP3    H121393   0.953   2.069   2.343  0.8478 -0.7002  0.7527
 7143TIP3    H221394   1.026   2.191   2.397 -0.5052  0.3680  0.2321
 7144TIP3   OH221395   2.391   5.651   3.935 -0.1536 -0.0434 -0.1252
 7144TIP3    H121396   2.377   5.725   3.993  0.1426  0.4831 -0.7178
 7144TIP3    H221397   2.311   5.599   3.941 -0.2969  0.2403  0.4060
 7145TIP3   OH221398   4.809   5.413   2.327 -0.3575  0.2584  0.2724
 7145TIP3    H121399   4.842   5.358   2.256 -0.2422  2.9311 -1.9532
 7145TIP3    H221400   4.885   5.464   2.355 -1.4561  3.7678 -2.2939
 7146TIP3   OH221401   3.956   5.370   1.082 -0.5241  0.4586 -0.0795
 7146TIP3    H121402   3.930   5.451   1.126  0.8061  0.7748  0.1528
 7146TIP3    H221403   3.999   5.399   1.002  0.9259  0.0412  0.5245
 7147TIP3   OH221404   2.780   3.502   5.414 -0.0815  0.4170  0.0471
 7147TIP3    H121405   2.803   3.589   5.447 -1.8614  0.8202  0.3584
 7147TIP3    H221406   2.685   3.497   5.425 -0.1560 -1.1620 -0.9670
 7148TIP3   OH221407   5.851   5.496   3.077  0.1278 -0.2363  0.0276
 7148TIP3    H121408   5.869   5.501   2.984  0.8798  0.6772  0.2163
 7148TIP3    H221409   5.819   5.583   3.101 -0.1525 -0.4869  0.6061
 7149TIP3   OH221410   2.753   3.060   4.934  0.6080 -0.1647  0.3002
 7149TIP3    H121411   2.789   2.975   4.961 -0.3972 -0.3291  1.2046
 7149TIP3    H221412   2.738   3.106   5.017  0.3051  0.5465 -0.1433
 7150TIP3   OH221413   2.745   1.086   2.462 -0.2331  0.3017  0.1727
 7150TIP3    H121414   2.829   1.063   2.502  0.4815 -1.8287 -2.3129
 7150TIP3    H221415   2.765   1.160   2.406  0.6994 -1.6541 -2.2815
 7151TIP3   OH221416   2.409   5.127   1.974  0.3398 -0.6857 -0.2510
 7151TIP3    H121417   2.384   5.209   2.017  0.6632 -1.5287  1.6316
 7151TIP3    H221418   2.361   5.059   2.022  1.1171 -1.7212 -0.9060
 7152TIP3   OH221419   0.419   4.379   3.759 -0.8874 -0.6267  0.8767
 7152TIP3    H121420   0.438   4.471   3.780  0.2551 -0.5342 -0.4152
 7152TIP3    H221421   0.325   4.370   3.773 -0.8605  0.4895  1.9218
 7153TIP3   OH221422   4.558   2.526   0.551 -0.4723 -0.0651  0.1951
 7153TIP3    H121423   4.483   2.466   0.549 -1.2832  0.9077 -2.1349
 7153TIP3    H221424   4.520   2.613   0.539  0.9891  0.4625 -0.9564
 7154TIP3   OH221425   3.674   0.214   4.160 -0.0571  0.1835 -0.5945
 7154TIP3    H121426   3.663   0.134   4.108 -0.2992 -0.3594  0.2716
 7154TIP3    H221427   3.600   0.213   4.221  1.7860 -0.7549  1.7595
 7155TIP3   OH221428   3.939   4.825   2.465  0.2813  0.3656 -0.2086
 7155TIP3    H121429   3.891   4.843   2.546  1.0440  2.3003 -0.1286
 7155TIP3    H221430   3.955   4.731   2.467  1.1435  0.4974  2.3971
 7156TIP3   OH221431   1.056   0.687   5.407 -0.3181 -0.3330  0.6589
 7156TIP3    H121432   0.998   0.640   5.466 -0.1504 -0.2498  0.8896
 7156TIP3    H221433   1.096   0.755   5.460  0.0809 -0.4643  0.5367
 7157TIP3   OH221434   2.201   5.805   3.016 -0.0029  0.0297 -0.0677
 7157TIP3    H121435   2.227   5.717   2.989 -1.3182 -1.2463  2.5103
 7157TIP3    H221436   2.223   5.810   3.109 -3.7318  0.7540  0.9704
 7158TIP3   OH221437   0.040   6.402   4.052 -0.6689 -0.4833 -0.2342
 7158TIP3    H121438   0.096   6.413   3.975 -0.1011  1.3923  0.3799
 7158TIP3    H221439  -0.020   6.476   4.049  0.1233  0.3048  1.7008
 7159TIP3   OH221440   4.954   2.546   0.872  0.8716 -0.9786  0.5874
 7159TIP3    H121441   5.002   2.472   0.835  3.1080  0.6372  0.0774
 7159TIP3    H221442   4.863   2.532   0.845  1.2822 -3.3092  0.2121
 7160TIP3   OH221443   5.428   1.844   2.197 -0.0706  0.4527 -0.0631
 7160TIP3    H121444   5.472   1.842   2.113  1.1223  0.4193  0.5429
 7160TIP3    H221445   5.469   1.773   2.247 -0.2407  0.9374  0.7890
 7161TIP3   OH221446   5.519   3.341   0.873 -0.3593 -0.0279 -0.0305
 7161TIP3    H121447   5.437   3.358   0.920 -0.0587  0.0583  0.4608
 7161TIP3    H221448   5.549   3.427   0.845 -0.4883 -0.0699 -0.3013
 7162TIP3   OH221449   5.420   3.649   2.769  0.4086 -0.1475 -0.5348
 7162TIP3    H121450   5.370   3.571   2.793 -0.2087  0.0969 -1.0045
 7162TIP3    H221451   5.499   3.614   2.727  1.2220 -0.5629  1.2504
 7163TIP3   OH221452   1.767   5.494   5.325 -0.0564 -1.0079 -0.8835
 7163TIP3    H121453   1.703   5.429   5.297 -1.3147 -0.7683  1.2209
 7163TIP3    H221454   1.718   5.552   5.383  1.6760  0.2490 -0.5978
 7164TIP3   OH221455   1.953   4.428   3.952 -0.1582 -0.1955  0.4564
 7164TIP3    H121456   1.986   4.341   3.928 -0.5297 -0.6689  1.6223
 7164TIP3    H221457   1.860   4.424   3.934 -0.2591 -0.2085  0.9634
 7165TIP3   OH221458   5.446   2.542   3.745  0.4514  0.1151  0.3110
 7165TIP3    H121459   5.518   2.551   3.683  0.1366 -2.2081 -0.4850
 7165TIP3    H221460   5.371   2.583   3.701  0.8858  1.0686  0.4397
 7166TIP3   OH221461   2.061   2.273   3.837  0.4122 -0.1455 -0.3349
 7166TIP3    H121462   1.997   2.264   3.907  3.3877  0.1373  2.6848
 7166TIP3    H221463   2.061   2.367   3.816  0.3640 -0.0114  0.2453
 7167TIP3   OH221464   5.122   4.920   3.455 -0.0539  0.0965  0.1164
 7167TIP3    H121465   5.198   4.953   3.504  0.2981 -0.7402  0.1518
 7167TIP3    H221466   5.159   4.858   3.393 -0.7065 -0.2820  0.0988
 7168TIP3   OH221467   5.607   0.498   0.021 -0.3509 -0.1541 -0.5299
 7168TIP3    H121468   5.549   0.422   0.012  0.4826 -0.9726  0.6955
 7168TIP3    H221469   5.674   0.470   0.083  0.9220  1.0400 -1.2971
 7169TIP3   OH221470   5.165   3.697   3.243  0.5713  0.0149 -0.0607
 7169TIP3    H121471   5.100   3.687   3.312  1.6227  0.2197  1.0049
 7169TIP3    H221472   5.179   3.609   3.210  0.8975 -0.2875  0.8277
 7170TIP3   OH221473   1.932   1.734   4.982 -0.1167  0.1409  0.0079
 7170TIP3    H121474   1.930   1.742   4.886 -0.8643  2.7038  0.1594
 7170TIP3    H221475   1.843   1.711   5.006  0.2177 -1.1581  0.0969
 7171TIP3   OH221476   2.763   2.450   5.360  0.0590  0.2578  0.0977
 7171TIP3    H121477   2.750   2.512   5.432  0.7954 -0.0150  0.4762
 7171TIP3    H221478   2.679   2.450   5.314  0.6083  3.0053 -1.0941
 7172TIP3   OH221479   1.477   6.701   0.116 -0.1328 -0.3978 -0.1612
 7172TIP3    H121480   1.433   6.765   0.060  2.4911  1.0536 -0.7165
 7172TIP3    H221481   1.432   6.707   0.200 -2.8255 -1.1312 -1.4642
 7173TIP3   OH221482   6.581   0.213   2.220 -0.4498 -0.2943  0.6155
 7173TIP3    H121483   6.645   0.270   2.262 -0.2609 -0.1946  0.2039
 7173TIP3    H221484   6.545   0.160   2.291  0.6570 -0.9014  0.7455
 7174TIP3   OH221485   5.423   0.306   0.034  0.0406 -0.4857 -0.0580
 7174TIP3    H121486   5.342   0.297   0.086  0.3735 -2.1228  0.2219
 7174TIP3    H221487   5.416   0.238  -0.033 -0.0936  1.2095 -1.8308
 7175TIP3   OH221488   1.734   1.972   5.741  0.3494  0.0083 -0.3371
 7175TIP3    H121489   1.789   1.930   5.675 -0.1731  1.5400 -1.8201
 7175TIP3    H221490   1.740   2.065   5.720 -1.1496  0.3729  0.7659
 7176TIP3   OH221491   1.949   4.839   2.777 -0.4084  0.1970  0.5365
 7176TIP3    H121492   1.959   4.854   2.684  0.5822 -0.5539  0.5043
 7176TIP3    H221493   1.887   4.906   2.806 -2.5492 -0.9819 -1.0617
 7177TIP3   OH221494   0.152   0.906   5.081  0.2468 -0.1864  0.1882
 7177TIP3    H121495   0.140   0.840   5.014 -2.2774 -1.6390  1.9115
 7177TIP3    H221496   0.164   0.857   5.163  0.1656  1.4787  1.2671
 7178TIP3   OH221497   6.836   3.942   5.344  0.0423  0.2852 -0.0741
 7178TIP3    H121498   6.863   3.903   5.261 -0.6224  0.9654 -0.6160
 7178TIP3    H221499   6.808   3.867   5.397  0.7416 -0.1806 -0.3521
 7179TIP3   OH221500   6.483   2.531   1.440  0.4022 -0.0919  0.4594
 7179TIP3    H121501   6.472   2.470   1.513  0.3972 -0.1602  0.4020
 7179TIP3    H221502   6.490   2.475   1.363 -1.0062  0.0116  0.2275
 7180TIP3   OH221503   0.858   3.100   5.343  0.2618 -0.7272 -0.2203
 7180TIP3    H121504   0.904   3.029   5.389 -0.3118 -1.4385 -0.7269
 7180TIP3    H221505   0.830   3.160   5.413  0.5106 -1.1394  0.2383
 7181TIP3   OH221506   3.730   1.417   4.227 -0.4295  0.0244 -0.0480
 7181TIP3    H121507   3.710   1.484   4.293 -0.7310 -0.9269  0.8425
 7181TIP3    H221508   3.785   1.463   4.163  1.6486  0.4478  1.9290
 7182TIP3   OH221509   1.092   0.730   3.628  0.1539  0.3409  0.5222
 7182TIP3    H121510   1.180   0.736   3.591 -0.4420  1.5869 -0.7878
 7182TIP3    H221511   1.106   0.721   3.722  1.7221 -2.5279  0.1061
 7183TIP3   OH221512   7.026   1.087   2.776 -0.8844 -0.2444  0.4981
 7183TIP3    H121513   6.939   1.050   2.793 -0.4985 -1.2126  0.4430
 7183TIP3    H221514   7.065   1.095   2.863 -0.7066 -0.6452  0.4582
 7184TIP3   OH221515   4.571   3.064   4.168  0.0265 -0.2910  0.3348
 7184TIP3    H121516   4.561   3.049   4.262  0.9955 -3.6953  0.0341
 7184TIP3    H221517   4.564   2.977   4.129 -0.7177  1.0425 -2.8377
 7185TIP3   OH221518   3.633   1.943   5.332  0.2556 -0.0690 -0.3008
 7185TIP3    H121519   3.698   1.976   5.269 -2.1743  3.0629 -1.3795
 7185TIP3    H221520   3.619   1.852   5.305  0.8242  0.5590 -3.0317
 7186TIP3   OH221521   4.306   4.522   5.576  0.1907 -0.5780  0.2630
 7186TIP3    H121522   4.280   4.614   5.571  0.1198 -0.5792  0.5735
 7186TIP3    H221523   4.373   4.519   5.644  2.1159 -0.3353 -1.5441
 7187TIP3   OH221524   5.267   6.680   3.443 -0.0676 -0.3706  0.7866
 7187TIP3    H121525   5.312   6.715   3.521 -0.2484  2.9371 -0.4360
 7187TIP3    H221526   5.185   6.728   3.439  0.4058  0.3607 -2.0016
 7188TIP3   OH221527   2.793   0.300   1.123 -0.1507 -0.7842  0.3209
 7188TIP3    H121528   2.788   0.209   1.094  1.5623 -0.9769  0.5455
 7188TIP3    H221529   2.828   0.347   1.048  2.2931 -0.9383  1.2712
 7189TIP3   OH221530   0.499   2.325   2.209  0.0328  0.0809  0.5724
 7189TIP3    H121531   0.595   2.323   2.201  0.0762  0.7017  0.8753
 7189TIP3    H221532   0.469   2.250   2.159  0.6921 -0.1955  0.5840
 7190TIP3   OH221533   4.681   0.117   3.066 -0.2346  0.7481 -0.8808
 7190TIP3    H121534   4.593   0.144   3.036 -1.1079 -2.5967 -1.6777
 7190TIP3    H221535   4.672   0.107   3.160 -0.4121  1.3881 -0.8252
 7191TIP3   OH221536   6.965   0.372   1.872  0.9184  0.1644 -0.0060
 7191TIP3    H121537   6.873   0.349   1.886  0.7792 -0.2949 -1.4382
 7191TIP3    H221538   7.012   0.289   1.881  1.3409  0.5538  1.6494
 7192TIP3   OH221539   2.258   0.445   4.934 -0.0845 -0.7108  0.2090
 7192TIP3    H121540   2.276   0.507   5.005  0.2037  0.3825 -0.8000
 7192TIP3    H221541   2.302   0.482   4.858 -1.2244 -1.3482 -0.7890
 7193TIP3   OH221542   1.579   2.838   0.312 -0.4897 -0.0289  0.1472
 7193TIP3    H121543   1.643   2.802   0.251  0.5676  1.8673  0.0378
 7193TIP3    H221544   1.498   2.844   0.262 -1.0915 -3.2360  0.5293
 7194TIP3   OH221545   3.808   6.243   2.309 -0.4875 -0.2162  0.1100
 7194TIP3    H121546   3.830   6.178   2.376 -0.4489  0.0646  0.3753
 7194TIP3    H221547   3.834   6.203   2.227  0.5519 -0.0948  0.3718
 7195TIP3   OH221548   4.968   1.822   5.100  0.4088 -0.0866 -0.4318
 7195TIP3    H121549   4.957   1.882   5.173  3.4650 -1.4020  1.3313
 7195TIP3    H221550   4.884   1.777   5.093 -0.3038  0.8031  1.6229
 7196TIP3   OH221551   4.444   2.460   0.889  0.4331  0.0982 -0.7867
 7196TIP3    H121552   4.404   2.373   0.889 -0.4436  0.4870 -0.9142
 7196TIP3    H221553   4.484   2.468   0.802  1.1444 -0.4451 -0.5197
 7197TIP3   OH221554   2.689   5.549   0.346  0.6778  0.8260 -0.0107
 7197TIP3    H121555   2.735   5.633   0.348  1.8680  0.2696 -1.4087
 7197TIP3    H221556   2.657   5.537   0.435  0.6284  2.6729  0.2589
 7198TIP3   OH221557   5.595   5.430   0.244 -0.7269  0.7622  0.1772
 7198TIP3    H121558   5.593   5.498   0.177  1.0465 -0.1376 -0.8621
 7198TIP3    H221559   5.647   5.360   0.205 -0.1431 -0.0402  2.2734
 7199TIP3   OH221560   1.782   4.006   4.854 -0.2757  0.0298  0.5364
 7199TIP3    H121561   1.763   4.088   4.808  0.9849  0.7267  1.2057
 7199TIP3    H221562   1.858   3.971   4.809 -0.1265 -0.1969  0.9585
 7200TIP3   OH221563   3.719   2.268   5.409 -0.0712  0.5681  0.5907
 7200TIP3    H121564   3.650   2.223   5.359  1.0358  0.3952 -0.8230
 7200TIP3    H221565   3.703   2.361   5.393 -0.8109  0.6024  1.4320
 7201TIP3   OH221566   7.106   5.679   0.114  0.1473  0.2476 -0.1846
 7201TIP3    H121567   7.119   5.604   0.172  0.1382  1.1327  0.9934
 7201TIP3    H221568   7.179   5.738   0.133 -1.2452  1.7183  0.8305
 7202TIP3   OH221569   0.438   0.702   1.543  0.2577 -0.2085 -0.0660
 7202TIP3    H121570   0.454   0.694   1.637 -0.1810  1.6859  0.2052
 7202TIP3    H221571   0.354   0.659   1.529 -0.5870  1.1145  0.7685
 7203TIP3   OH221572   4.665   5.635   2.429  0.1573 -0.3365 -0.5484
 7203TIP3    H121573   4.700   5.554   2.393  0.8459 -0.5127  0.4810
 7203TIP3    H221574   4.708   5.704   2.379  0.8137 -0.5779 -0.3191
 7204TIP3   OH221575   5.194   6.424   4.400  0.1236 -0.3262  0.1929
 7204TIP3    H121576   5.169   6.397   4.311  0.8346 -1.2927  0.2759
 7204TIP3    H221577   5.186   6.520   4.398 -0.9180 -0.3994 -0.5779
 7205TIP3   OH221578   5.339   5.908   2.573 -0.0367  0.1943  0.4025
 7205TIP3    H121579   5.431   5.933   2.580  0.8011 -2.8411  2.1881
 7205TIP3    H221580   5.290   5.986   2.600  2.0347  1.5446  0.4167
 7206TIP3   OH221581   5.163   6.511   3.930 -0.2897 -0.1469 -0.1776
 7206TIP3    H121582   5.238   6.571   3.934 -0.3201 -0.1082 -0.2007
 7206TIP3    H221583   5.124   6.526   3.845 -0.1911 -0.3276 -0.2553
 7207TIP3   OH221584   4.495   3.548   2.042 -0.4592  1.1966 -0.6850
 7207TIP3    H121585   4.507   3.640   2.018 -1.0747  1.0950 -1.4556
 7207TIP3    H221586   4.495   3.502   1.958  0.3711  0.4221 -0.2713
 7208TIP3   OH221587   4.972   2.196   2.740 -0.0507  0.1444  0.4285
 7208TIP3    H121588   4.893   2.151   2.770 -1.5274  1.1815 -1.6656
 7208TIP3    H221589   4.950   2.289   2.746  0.5712  0.4252 -1.1713
 7209TIP3   OH221590   4.205   4.633   2.864 -0.0580 -0.4298  0.2162
 7209TIP3    H121591   4.145   4.702   2.893  0.2768 -0.2377  0.4572
 7209TIP3    H221592   4.267   4.678   2.806 -0.5646 -0.7631 -0.5856
 7210TIP3   OH221593   7.033   4.861   0.062 -0.3654 -0.1961 -0.5677
 7210TIP3    H121594   6.998   4.949   0.049  0.4564  0.5835  1.8337
 7210TIP3    H221595   6.964   4.802   0.030 -2.3725  1.2972  0.7585
 7211TIP3   OH221596   0.657   2.254   5.452 -0.0008 -0.2184  0.5263
 7211TIP3    H121597   0.732   2.206   5.419 -1.1097 -1.2374 -0.6063
 7211TIP3    H221598   0.586   2.190   5.455 -1.0314  0.8810  0.8594
 7212TIP3   OH221599   1.707   5.253   4.321  0.8469  0.7834 -0.1985
 7212TIP3    H121600   1.769   5.210   4.262  1.1823  0.9819  0.0044
 7212TIP3    H221601   1.745   5.243   4.408  1.4884  2.3860 -0.2503
 7213TIP3   OH221602   1.017   6.449   3.865  0.5471  0.0534  0.6450
 7213TIP3    H121603   0.932   6.443   3.907 -0.4605 -0.0144 -1.2949
 7213TIP3    H221604   1.048   6.538   3.885  0.9745 -0.5639  2.9919
 7214TIP3   OH221605   5.074   5.239   2.638  0.0537 -0.0961 -0.1783
 7214TIP3    H121606   5.121   5.322   2.626  0.6921 -0.3426  0.5679
 7214TIP3    H221607   5.132   5.186   2.692 -0.5167 -0.8998 -0.3411
 7215TIP3   OH221608   2.069   1.378   4.676 -0.0802 -0.3236 -0.1189
 7215TIP3    H121609   1.989   1.349   4.720 -0.1715  0.9153  0.5977
 7215TIP3    H221610   2.138   1.323   4.714 -0.4099 -0.4736  0.2764
 7216TIP3   OH221611   4.382   3.013   4.694  0.3273  0.1647 -0.8080
 7216TIP3    H121612   4.392   2.930   4.647 -2.4272 -0.8090  0.1199
 7216TIP3    H221613   4.309   3.057   4.650  0.5636  1.2644 -0.1458
 7217TIP3   OH221614   5.055   5.266   0.867 -0.1576  0.6061  0.2191
 7217TIP3    H121615   5.150   5.270   0.876 -0.0679  2.8641 -1.0668
 7217TIP3    H221616   5.026   5.212   0.940  2.1985 -1.3864 -0.2189
 7218TIP3   OH221617   5.055   4.811   2.509 -0.0118  0.0293 -0.0272
 7218TIP3    H121618   5.070   4.879   2.574 -0.5027  0.6367 -0.5340
 7218TIP3    H221619   4.960   4.796   2.511  0.2183 -1.4895  0.9106
 7219TIP3   OH221620   5.510   0.379   1.555 -0.1438 -0.2005 -0.2186
 7219TIP3    H121621   5.537   0.460   1.512  1.1183  0.4097  1.6070
 7219TIP3    H221622   5.506   0.401   1.648 -0.5503 -2.0319  0.2435
 7220TIP3   OH221623   5.921   5.791   3.369  0.6929 -0.4880  0.4581
 7220TIP3    H121624   5.901   5.807   3.461  2.0198 -0.2646  0.7213
 7220TIP3    H221625   5.998   5.734   3.371  0.6308 -0.6158 -0.5119
 7221TIP3   OH221626   0.100   1.667   4.739 -0.5006  0.7260 -0.3417
 7221TIP3    H121627   0.087   1.701   4.828 -1.7353 -0.3991 -0.0636
 7221TIP3    H221628   0.017   1.682   4.695 -0.9435 -1.4255 -0.3503
 7222TIP3   OH221629   2.801   0.073   5.033 -0.0022  0.0094 -0.0450
 7222TIP3    H121630   2.745   0.151   5.029 -1.1973 -0.6922  1.5598
 7222TIP3    H221631   2.788   0.040   5.122  2.3958 -0.6554  0.1248
 7223TIP3   OH221632   5.182   0.355   5.268  0.7962  0.5025  0.2262
 7223TIP3    H121633   5.261   0.303   5.254  0.6938  0.5331 -0.4647
 7223TIP3    H221634   5.190   0.429   5.208  0.1896  0.4452  0.0688
 7224TIP3   OH221635   6.877   4.278   4.302 -0.2760 -0.0308 -0.0533
 7224TIP3    H121636   6.962   4.236   4.313  0.0166  0.6273  0.2853
 7224TIP3    H221637   6.821   4.211   4.262  0.4073 -0.4563 -0.3034
 7225TIP3   OH221638   0.087   4.911   2.089  0.1086  0.1390  0.0236
 7225TIP3    H121639   0.034   4.884   2.165 -0.6552 -1.0792 -0.9043
 7225TIP3    H221640   0.034   4.978   2.046  1.3151  2.1430  1.4636
 7226TIP3   OH221641   4.911   3.874   0.948 -0.2053 -0.1151 -0.4756
 7226TIP3    H121642   4.862   3.954   0.927  0.0538 -0.0606 -0.8689
 7226TIP3    H221643   4.922   3.829   0.864 -0.1468 -0.4497 -0.2901
 7227TIP3   OH221644   5.787   2.934   4.182  0.4952  0.3144 -0.3080
 7227TIP3    H121645   5.756   2.876   4.252 -0.8222 -0.9654 -1.8765
 7227TIP3    H221646   5.750   3.020   4.203  3.5109  1.1042  2.7536
 7228TIP3   OH221647   3.410   4.815   0.022 -0.1682  0.2072 -0.2839
 7228TIP3    H121648   3.401   4.783   0.112  0.5460  3.3506  1.0771
 7228TIP3    H221649   3.322   4.812  -0.014 -0.2380 -2.4958 -0.0998
 7229TIP3   OH221650   1.631   6.219   3.868  0.4558 -0.9452 -0.6536
 7229TIP3    H121651   1.595   6.135   3.894 -0.6061 -0.2757  0.1145
 7229TIP3    H221652   1.706   6.232   3.926  0.9261 -1.5687 -1.1074
 7230TIP3   OH221653   5.606   3.599   0.982  0.2691  0.0317  0.1373
 7230TIP3    H121654   5.633   3.688   0.957  0.2819 -0.1359 -0.4729
 7230TIP3    H221655   5.527   3.611   1.034  0.1742  0.3955 -0.0891
 7231TIP3   OH221656   5.482   3.039   2.073 -0.5007  0.2010  0.0590
 7231TIP3    H121657   5.533   3.111   2.110  0.9117 -1.1656  0.8799
 7231TIP3    H221658   5.484   3.055   1.979 -0.1472  1.1785  0.2115
 7232TIP3   OH221659   2.037   5.977   2.815 -0.0973  0.3225  0.4749
 7232TIP3    H121660   1.947   5.956   2.790  0.5221 -2.2227  0.1905
 7232TIP3    H221661   2.059   5.913   2.883  1.2262  1.4905  1.1970
 7233TIP3   OH221662   3.250   4.902   3.527  0.1124 -0.1204  0.5071
 7233TIP3    H121663   3.171   4.957   3.524  0.5464  0.5295  0.6783
 7233TIP3    H221664   3.301   4.939   3.600  1.0420  0.1184 -0.2436
 7234TIP3   OH221665   3.224   5.371   5.875  0.5797  0.1789 -0.0357
 7234TIP3    H121666   3.257   5.367   5.786 -0.6370 -1.3322 -0.4484
 7234TIP3    H221667   3.259   5.294   5.919  0.2904  0.3268  0.4778
 7235TIP3   OH221668   6.103   0.062   4.432 -0.1549  0.1788  0.6263
 7235TIP3    H121669   6.106  -0.034   4.435  5.2528 -0.0753 -1.5444
 7235TIP3    H221670   6.129   0.089   4.520  1.0946 -0.4847  0.4776
 7236TIP3   OH221671   0.494   2.875   3.561  0.0609  0.0444  0.0749
 7236TIP3    H121672   0.578   2.895   3.518  0.5101  1.6803  1.5692
 7236TIP3    H221673   0.428   2.911   3.502  0.7083  3.0749  1.0066
 7237TIP3   OH221674   2.061   3.643   5.134 -0.1030 -0.4687  0.2044
 7237TIP3    H121675   1.972   3.644   5.097 -0.0972 -0.8663  0.1784
 7237TIP3    H221676   2.053   3.696   5.213  0.1373  1.2978 -0.9110
 7238TIP3   OH221677   1.169   5.569   1.513 -0.4438 -0.1811  0.5511
 7238TIP3    H121678   1.254   5.566   1.469 -0.5544  1.2281  0.1777
 7238TIP3    H221679   1.182   5.632   1.585 -1.0923 -0.1706  0.6637
 7239TIP3   OH221680   3.537   0.718   0.087  0.1007  0.2309  0.1660
 7239TIP3    H121681   3.576   0.801   0.114  0.8073  0.0290 -0.2023
 7239TIP3    H221682   3.604   0.652   0.107 -0.5285 -0.2736  0.6293
 7240TIP3   OH221683   0.141   5.697   4.895 -0.1682 -0.1810 -0.1457
 7240TIP3    H121684   0.071   5.718   4.833 -1.8475 -0.2179  1.6196
 7240TIP3    H221685   0.121   5.609   4.926 -0.5600  0.5460  1.8596
 7241TIP3   OH221686   3.510   0.670   0.478  0.4227 -0.1351  0.0267
 7241TIP3    H121687   3.590   0.645   0.524  0.2032 -1.8259 -0.4601
 7241TIP3    H221688   3.540   0.695   0.390  0.5617  0.6824  0.2964
 7242TIP3   OH221689   3.284   2.544   0.341  0.2511  0.5485 -0.2272
 7242TIP3    H121690   3.337   2.593   0.404  0.2371 -0.1695  0.3564
 7242TIP3    H221691   3.209   2.513   0.392 -0.5173  1.1822 -0.9456
 7243TIP3   OH221692   2.995   2.176   4.234 -0.0138  0.2134 -0.3361
 7243TIP3    H121693   2.934   2.199   4.163 -2.0704  0.9947  1.5431
 7243TIP3    H221694   3.024   2.261   4.268  0.6797 -0.1491 -0.0232
 7244TIP3   OH221695   3.004   1.652   5.179 -0.0262  0.1180 -0.2272
 7244TIP3    H121696   3.066   1.579   5.170  0.1014  0.1780  0.1598
 7244TIP3    H221697   3.015   1.702   5.098  0.9030  0.4902  0.1187
 7245TIP3   OH221698   4.940   5.866   4.687 -0.5817 -0.9449  0.3362
 7245TIP3    H121699   4.919   5.958   4.699  0.5872 -0.8393  1.7249
 7245TIP3    H221700   5.027   5.866   4.646 -1.4052 -1.4414 -1.5509
 7246TIP3   OH221701   6.234   0.944   4.518  0.4772  0.4270  0.3055
 7246TIP3    H121702   6.305   0.881   4.506 -0.7875 -0.9724 -0.2194
 7246TIP3    H221703   6.154   0.892   4.504 -0.7167  1.5591  2.5036
 7247TIP3   OH221704   0.965   0.672   0.225 -1.1079  0.6681 -0.1218
 7247TIP3    H121705   1.059   0.659   0.211 -1.3121  1.6556 -3.1029
 7247TIP3    H221706   0.939   0.599   0.281  1.3286  0.1062  0.4150
 7248TIP3   OH221707   4.139   0.348   0.808  0.2851 -0.5295 -0.0632
 7248TIP3    H121708   4.065   0.315   0.860  0.4968  0.9410  1.2655
 7248TIP3    H221709   4.111   0.436   0.780  0.6873 -0.8071 -1.4093
 7249TIP3   OH221710   3.702   0.559   3.235 -0.1606 -0.3263 -0.1640
 7249TIP3    H121711   3.698   0.504   3.313 -0.3751 -0.9859 -0.6299
 7249TIP3    H221712   3.794   0.558   3.209  0.0507  0.4952  0.4858
 7250TIP3   OH221713   2.781   3.626   0.763  0.4424 -0.2065  0.1997
 7250TIP3    H121714   2.793   3.597   0.853 -1.0148  0.3920  0.6195
 7250TIP3    H221715   2.688   3.647   0.757  0.9202  1.9308 -0.7854
 7251TIP3   OH221716   3.174   3.826   3.981 -0.0997  0.7138 -0.1632
 7251TIP3    H121717   3.152   3.778   4.061  0.7309  0.8736  0.1672
 7251TIP3    H221718   3.257   3.869   4.001  0.1027  0.7778 -1.1054
 7252TIP3   OH221719   0.576   2.243   0.249 -0.1995  0.0051 -0.3133
 7252TIP3    H121720   0.489   2.282   0.263 -0.7345 -1.5479  0.9326
 7252TIP3    H221721   0.611   2.230   0.337  0.0393 -2.0919 -0.6826
 7253TIP3   OH221722   1.019   1.470   2.123  0.1263 -0.0290 -0.0220
 7253TIP3    H121723   1.060   1.419   2.193  1.8785 -2.1253 -2.3829
 7253TIP3    H221724   0.945   1.416   2.094 -0.2133  0.5166 -0.1931
 7254TIP3   OH221725   4.147   5.006   1.486 -0.0097  0.0172  0.3948
 7254TIP3    H121726   4.076   5.050   1.533 -1.5932  0.1173 -1.9012
 7254TIP3    H221727   4.224   5.017   1.541 -1.1665  2.3987  1.6607
 7255TIP3   OH221728   7.096   2.981   3.549  0.9491 -0.1145 -0.0297
 7255TIP3    H121729   7.177   2.940   3.519  1.5339 -0.7982  2.2467
 7255TIP3    H221730   7.109   2.992   3.644 -1.6114 -0.2348  0.4028
 7256TIP3   OH221731   6.458   3.633   0.105  0.0364  0.2458  0.6478
 7256TIP3    H121732   6.520   3.569   0.139 -0.1757  0.4254  1.3905
 7256TIP3    H221733   6.502   3.671   0.029  0.6945  0.1314  0.9642
 7257TIP3   OH221734   2.551   3.801   5.698 -0.1810 -0.3357 -0.1209
 7257TIP3    H121735   2.575   3.785   5.790  0.0098 -0.9105 -0.2676
 7257TIP3    H221736   2.563   3.716   5.655  2.8255  0.5846 -1.3703
 7258TIP3   OH221737   5.966   0.469   3.432  0.3645 -0.4777  0.0504
 7258TIP3    H121738   5.969   0.564   3.425 -0.7371 -0.4799 -0.7969
 7258TIP3    H221739   6.057   0.442   3.431  0.6631  0.5050 -0.9423
 7259TIP3   OH221740   0.828   6.076   1.649 -0.0847 -0.0364  0.0465
 7259TIP3    H121741   0.736   6.060   1.672 -0.5900 -1.7892 -2.7201
 7259TIP3    H221742   0.824   6.127   1.569  1.3734  0.1599  0.0808
 7260TIP3   OH221743   6.614   4.761   0.148 -0.1596 -0.7053 -0.6373
 7260TIP3    H121744   6.598   4.817   0.224  0.1566  0.9856 -1.7511
 7260TIP3    H221745   6.586   4.674   0.176 -2.3832  0.3130  0.5905
 7261TIP3   OH221746   3.295   1.305   3.641 -0.3166 -0.3965 -0.4740
 7261TIP3    H121747   3.219   1.335   3.592  0.0673  0.7397 -0.4049
 7261TIP3    H221748   3.354   1.271   3.574 -0.4879 -0.3926 -0.6273
 7262TIP3   OH221749   1.026   1.648   3.779 -0.6207  0.1458  0.4093
 7262TIP3    H121750   1.004   1.567   3.733 -1.2579  0.8893 -0.6261
 7262TIP3    H221751   1.102   1.682   3.733 -1.7742  1.3339 -0.6811
 7263TIP3   OH221752   0.348   1.786   1.560  0.3070 -0.8310 -0.2280
 7263TIP3    H121753   0.430   1.748   1.590 -0.4129 -1.8833  0.4933
 7263TIP3    H221754   0.282   1.751   1.620 -0.2352  2.9991  1.7087
 7264TIP3   OH221755   2.553   0.853   4.422 -0.0189  0.6702  0.3530
 7264TIP3    H121756   2.561   0.937   4.378  2.4927 -0.8004 -2.3898
 7264TIP3    H221757   2.464   0.824   4.402 -0.6860  2.3256  0.7793
 7265TIP3   OH221758   0.542   2.514   4.535 -0.6457  0.2927  0.3287
 7265TIP3    H121759   0.613   2.498   4.597  1.3262  1.4938 -1.4525
 7265TIP3    H221760   0.531   2.609   4.535 -0.4030  0.3566 -1.2764
 7266TIP3   OH221761   6.002   1.649   4.678 -0.2501  0.6750  0.0467
 7266TIP3    H121762   5.943   1.623   4.607 -1.1175  1.7391  0.3628
 7266TIP3    H221763   5.998   1.576   4.739 -0.2950  0.2045 -0.5026
 7267TIP3   OH221764   7.107   5.298   5.710  0.1679 -0.3583 -0.0763
 7267TIP3    H121765   7.105   5.277   5.803  0.4012  0.7452  0.1873
 7267TIP3    H221766   7.020   5.334   5.692  0.5085  0.5212 -0.0103
 7268TIP3   OH221767   4.732   2.501   4.384  0.1148  0.0942 -0.0228
 7268TIP3    H121768   4.757   2.412   4.359 -0.9323 -0.5028  0.9608
 7268TIP3    H221769   4.644   2.492   4.420 -0.3518  1.6731 -0.6883
 7269TIP3   OH221770   0.908   0.072   2.255 -0.3060 -0.3380 -0.4808
 7269TIP3    H121771   0.822   0.084   2.296 -0.7742 -0.9155 -1.2596
 7269TIP3    H221772   0.969   0.064   2.328 -0.9434 -0.1148  0.0835
 7270TIP3   OH221773   5.238   0.551   2.327 -0.7176 -0.0757 -0.4499
 7270TIP3    H121774   5.219   0.461   2.303 -0.3977 -0.7071  1.4813
 7270TIP3    H221775   5.333   0.555   2.334 -0.8085 -0.2389  1.5805
 7271TIP3   OH221776   1.268   5.323   1.161  0.1501  0.0117 -0.0433
 7271TIP3    H121777   1.313   5.369   1.090 -0.6647  1.4796  0.3527
 7271TIP3    H221778   1.227   5.393   1.213 -1.5816 -1.1880  0.2920
 7272TIP3   OH221779   2.841   0.965   4.292 -0.5588 -0.0657  0.4124
 7272TIP3    H121780   2.796   0.884   4.314 -0.0976 -0.4299  0.0397
 7272TIP3    H221781   2.844   0.967   4.197 -1.6987  1.0352  0.3771
 7273TIP3   OH221782   6.597   0.066   3.025 -0.2002  0.8429  0.0992
 7273TIP3    H121783   6.687   0.068   3.059  0.4576 -2.7821 -0.9948
 7273TIP3    H221784   6.606   0.093   2.934 -0.1551  0.2988 -0.0623
 7274TIP3   OH221785   0.742   4.980   3.109  0.2520  0.5458  0.1816
 7274TIP3    H121786   0.769   5.026   3.188 -2.5105  1.0074  0.9485
 7274TIP3    H221787   0.722   4.891   3.137 -0.0561  0.5150 -0.1170
 7275TIP3   OH221788   4.774   3.189   2.737 -0.0168 -0.2228  0.5981
 7275TIP3    H121789   4.856   3.142   2.722  0.5129  0.9382 -0.3335
 7275TIP3    H221790   4.757   3.179   2.830  2.6123  1.7126  1.4129
 7276TIP3   OH221791   6.850   3.727   1.241 -0.5856  0.2571  0.3931
 7276TIP3    H121792   6.799   3.694   1.315 -2.1221 -1.0044 -1.1400
 7276TIP3    H221793   6.786   3.770   1.185 -0.2685 -2.2252 -2.0630
 7277TIP3   OH221794   3.558   3.379   0.511  0.3272  0.0388  0.3000
 7277TIP3    H121795   3.506   3.318   0.459  2.7331 -1.5826 -0.3980
 7277TIP3    H221796   3.518   3.377   0.597 -0.9760 -0.8452 -0.2933
 7278TIP3   OH221797   3.632   1.169   4.702 -0.1905 -0.9557 -0.2610
 7278TIP3    H121798   3.638   1.179   4.797 -3.3563  0.1918 -0.0804
 7278TIP3    H221799   3.696   1.101   4.681  0.8508 -1.0034  2.6030
 7279TIP3   OH221800   3.136   0.770   4.095  0.1682 -0.9829 -0.4116
 7279TIP3    H121801   3.175   0.810   4.172 -0.8879  0.6808 -0.6899
 7279TIP3    H221802   3.048   0.744   4.122 -0.1325 -0.5881 -0.9700
 7280TIP3   OH221803   6.876   2.266   0.879 -0.1420 -0.3047  0.6065
 7280TIP3    H121804   6.931   2.291   0.805  0.3274  0.0726  1.0663
 7280TIP3    H221805   6.811   2.337   0.885 -1.6761 -1.4970 -0.8707
 7281TIP3   OH221806   0.752   1.327   5.350 -0.1942  0.2341  0.8548
 7281TIP3    H121807   0.832   1.280   5.327 -0.2416 -0.2532  1.6376
 7281TIP3    H221808   0.776   1.377   5.428 -0.2335  1.2880  0.2107
 7282TIP3   OH221809   6.090   2.208   5.635  0.0765 -0.3293  0.8754
 7282TIP3    H121810   6.171   2.179   5.678  0.6941 -0.0786 -0.1059
 7282TIP3    H221811   6.102   2.301   5.621 -0.1564 -0.3884  0.2438
 7283TIP3   OH221812   4.406   3.432   0.599  0.2096 -0.2041 -0.6218
 7283TIP3    H121813   4.445   3.463   0.518  2.0991 -0.4696  0.1390
 7283TIP3    H221814   4.440   3.344   0.611  0.6343  0.1261  0.8629
 7284TIP3   OH221815   1.380   2.945   2.092 -0.0133 -0.3618  0.1685
 7284TIP3    H121816   1.412   2.882   2.156  1.5909  0.5827  0.3360
 7284TIP3    H221817   1.395   2.902   2.007 -1.6764 -1.4015  0.3675
 7285TIP3   OH221818   2.346   5.880   0.541 -0.2704 -0.4026  0.6633
 7285TIP3    H121819   2.390   5.831   0.471  0.7243 -0.2895  1.1904
 7285TIP3    H221820   2.254   5.858   0.530 -0.1388 -0.3887 -0.6780
 7286TIP3   OH221821   2.417   4.312   5.525 -0.0936 -0.5391  0.1701
 7286TIP3    H121822   2.340   4.361   5.554 -1.3108 -1.3023 -1.6146
 7286TIP3    H221823   2.446   4.358   5.446  0.9185 -0.6441  0.4629
 7287TIP3   OH221824   2.367   0.637   0.161  0.1367 -0.0249  0.1767
 7287TIP3    H121825   2.310   0.709   0.187 -1.2268 -0.8420 -0.4048
 7287TIP3    H221826   2.341   0.618   0.070  1.5166 -0.2751 -0.1926
 7288TIP3   OH221827   0.071   4.683   0.979 -0.1627  0.5317  0.2913
 7288TIP3    H121828  -0.024   4.684   0.986 -0.2460 -0.4376 -0.4319
 7288TIP3    H221829   0.102   4.677   1.069 -0.7654  1.2998  0.5597
 7289TIP3   OH221830   4.450   6.581   5.691 -0.5472  0.0119  0.1143
 7289TIP3    H121831   4.415   6.497   5.663 -1.6657  0.4602  0.0950
 7289TIP3    H221832   4.404   6.645   5.635  0.1611  0.6396  0.2380
 7290TIP3   OH221833   6.053   3.186   3.480  0.1323  0.2006 -0.2590
 7290TIP3    H121834   6.117   3.198   3.410  0.9282  1.8973  0.7118
 7290TIP3    H221835   6.007   3.105   3.457 -0.6152  1.4209 -3.4731
 7291TIP3   OH221836   1.744   4.454   2.905  0.4324 -0.0305 -0.1431
 7291TIP3    H121837   1.815   4.468   2.842  1.1997 -1.4331  0.3796
 7291TIP3    H221838   1.664   4.461   2.853  0.8575  2.3431 -0.6078
 7292TIP3   OH221839   4.815   1.392   3.697  0.2766  0.3179 -0.9205
 7292TIP3    H121840   4.825   1.485   3.678 -0.0208  0.3879 -0.7336
 7292TIP3    H221841   4.813   1.351   3.610 -0.3912  0.5683 -1.0300
 7293TIP3   OH221842   6.410   5.398   2.260  0.0944 -0.1365 -0.4364
 7293TIP3    H121843   6.323   5.419   2.228 -0.3449 -0.7240  0.3263
 7293TIP3    H221844   6.405   5.305   2.282  1.1790 -0.4063 -1.2096
 7294TIP3   OH221845   1.792   0.670   4.787 -0.3316 -0.3084  0.0218
 7294TIP3    H121846   1.724   0.722   4.831 -1.2240 -1.4687  0.0558
 7294TIP3    H221847   1.808   0.717   4.705 -2.6034 -1.0153 -0.9040
 7295TIP3   OH221848   5.018   6.114   4.052 -0.1513 -0.1664  0.1556
 7295TIP3    H121849   4.966   6.148   3.978 -0.2705 -0.1394  0.2514
 7295TIP3    H221850   5.011   6.019   4.044 -1.8687 -0.1872  1.3077
 7296TIP3   OH221851   4.818   2.077   2.375  0.5271  0.1361 -0.3253
 7296TIP3    H121852   4.876   2.145   2.340  0.2561  0.0528 -0.9449
 7296TIP3    H221853   4.878   2.015   2.418  0.8820  0.1612 -0.7700
 7297TIP3   OH221854   0.714   0.354   3.131  0.4625 -0.1292 -0.1637
 7297TIP3    H121855   0.707   0.372   3.037 -0.9383 -1.3695 -0.3375
 7297TIP3    H221856   0.744   0.263   3.136 -0.0707 -0.2722  0.5813
 7298TIP3   OH221857   2.365   6.694   1.600  0.2325  0.1962  0.4462
 7298TIP3    H121858   2.287   6.723   1.646  0.1634 -0.1819  0.5660
 7298TIP3    H221859   2.400   6.774   1.560  0.7000  0.6709  1.7411
 7299TIP3   OH221860   6.211   5.444   2.513 -0.2793 -0.2313  0.3413
 7299TIP3    H121861   6.183   5.363   2.471 -1.6865  0.5640 -0.3423
 7299TIP3    H221862   6.299   5.459   2.480 -0.4360 -0.9159 -0.4050
 7300TIP3   OH221863   0.586   5.491   5.020  0.1715  0.3604  0.4245
 7300TIP3    H121864   0.651   5.442   5.070  0.4572 -0.7973 -1.0218
 7300TIP3    H221865   0.637   5.541   4.956 -0.3014 -0.0056 -0.2538
 7301TIP3   OH221866   2.753   1.372   3.732  0.7275  0.1185 -0.1171
 7301TIP3    H121867   2.772   1.422   3.653 -0.4985 -0.0668 -0.5404
 7301TIP3    H221868   2.802   1.418   3.801  3.0175 -0.5866 -1.1772
 7302TIP3   OH221869   0.406   3.789   4.980  0.1300 -0.2383 -0.0193
 7302TIP3    H121870   0.328   3.745   5.012  0.5768 -0.4485  0.7824
 7302TIP3    H221871   0.446   3.727   4.919 -0.0313 -0.3459 -0.0147
 7303TIP3   OH221872   1.745   5.227   1.953 -0.0221  0.3889  0.4218
 7303TIP3    H121873   1.816   5.164   1.940 -0.6578 -0.0063 -1.3973
 7303TIP3    H221874   1.781   5.310   1.924 -0.1268  0.2862 -0.0086
 7304TIP3   OH221875   1.234   1.428   0.491 -0.2167  0.5223  0.3392
 7304TIP3    H121876   1.214   1.343   0.451 -0.0054  0.0987  1.1323
 7304TIP3    H221877   1.204   1.421   0.581  0.7902  0.9174  0.7175
 7305TIP3   OH221878   0.243   1.904   3.968  0.7778 -0.6475 -0.0612
 7305TIP3    H121879   0.161   1.854   3.977  0.5072 -0.1157  0.5301
 7305TIP3    H221880   0.261   1.935   4.056  2.6396 -2.3045  0.1970
 7306TIP3   OH221881   5.871   4.195   1.444  0.5794 -0.4390  0.4141
 7306TIP3    H121882   5.896   4.200   1.352  0.2206 -0.5932  0.3093
 7306TIP3    H221883   5.865   4.286   1.473  0.8383 -0.3923  0.3273
 7307TIP3   OH221884   4.420   6.241   0.611 -0.4079  0.0724  0.3012
 7307TIP3    H121885   4.507   6.252   0.648 -0.3704 -1.3366  0.6668
 7307TIP3    H221886   4.413   6.148   0.590 -1.4561  0.3383 -0.6682
 7308TIP3   OH221887   6.670   5.688   3.320 -0.1485  0.0219 -0.5062
 7308TIP3    H121888   6.635   5.773   3.345 -2.1894 -0.9988  0.3380
 7308TIP3    H221889   6.757   5.685   3.361  0.8481  2.4304 -2.2329
 7309TIP3   OH221890   2.828   1.912   5.636  0.1451 -0.1779 -0.3494
 7309TIP3    H121891   2.888   1.973   5.593 -0.9127  0.6554 -0.6955
 7309TIP3    H221892   2.842   1.829   5.590  0.3017  0.2624 -1.1270
 7310TIP3   OH221893   1.244   2.480   2.406  1.0134 -0.0965  0.3025
 7310TIP3    H121894   1.155   2.447   2.421  0.5911  0.1793 -1.3328
 7310TIP3    H221895   1.295   2.401   2.388  0.9254 -0.1987  0.4993
 7311TIP3   OH221896   2.217   2.194   3.629 -0.1154  0.0001 -0.2459
 7311TIP3    H121897   2.170   2.229   3.705 -0.5871 -1.2097  0.0302
 7311TIP3    H221898   2.149   2.182   3.563 -0.2045 -1.6863  0.1280
 7312TIP3   OH221899   3.990   3.600   2.410 -0.3285  0.1983  0.0868
 7312TIP3    H121900   4.056   3.653   2.364 -0.9257  0.1889 -0.8046
 7312TIP3    H221901   3.941   3.556   2.341  0.2739 -1.7062  0.8131
 7313TIP3   OH221902   2.903   6.770   0.593 -0.2968 -0.2292  0.1442
 7313TIP3    H121903   2.883   6.804   0.681  0.1764 -3.6182  1.7117
 7313TIP3    H221904   2.869   6.681   0.594  0.5002 -0.6500 -2.8728
 7314TIP3   OH221905   4.074   2.456   5.152  0.1039 -0.2178 -0.2289
 7314TIP3    H121906   4.039   2.391   5.091  0.5013 -0.9410  0.3094
 7314TIP3    H221907   4.119   2.405   5.219 -0.5529  0.5636  0.8240
 7315TIP3   OH221908   3.062   5.317   1.185  0.4473  0.7168 -0.3251
 7315TIP3    H121909   3.093   5.246   1.128 -0.8441 -1.0977  1.0990
 7315TIP3    H221910   3.051   5.275   1.271  2.2616  3.3033  1.3195
 7316TIP3   OH221911   2.358   5.967   3.625 -0.2340  0.2664  0.3506
 7316TIP3    H121912   2.402   5.915   3.559  0.4054 -0.2204  1.1518
 7316TIP3    H221913   2.406   6.049   3.628 -1.5104  1.1317 -1.2302
 7317TIP3   OH221914   5.580   2.777   2.087 -0.5449  0.4892  0.2950
 7317TIP3    H121915   5.545   2.863   2.108 -1.2667  0.4916 -0.8343
 7317TIP3    H221916   5.619   2.746   2.169 -0.3682  1.8310  0.7430
 7318TIP3   OH221917   5.509   5.196   4.865  0.2336  0.1914 -0.2250
 7318TIP3    H121918   5.573   5.263   4.889  1.2157 -1.6688  2.8846
 7318TIP3    H221919   5.522   5.183   4.771  2.4548  1.8337 -0.2251
 7319TIP3   OH221920   0.994   3.926   3.361 -0.4495  0.9508 -0.0667
 7319TIP3    H121921   0.977   3.833   3.373 -0.4124  0.8055 -1.0635
 7319TIP3    H221922   1.060   3.947   3.428  0.6445 -0.0840 -0.7684
 7320TIP3   OH221923   4.011   0.757   1.684 -0.0004  0.0494  1.0507
 7320TIP3    H121924   3.917   0.746   1.694 -0.1407  0.0201 -0.2166
 7320TIP3    H221925   4.022   0.806   1.603  1.0719  0.1386  1.2322
 7321TIP3   OH221926   2.190   1.721   5.795 -0.2970  0.4954 -0.2708
 7321TIP3    H121927   2.118   1.709   5.733 -0.8221  0.8343  0.2535
 7321TIP3    H221928   2.166   1.667   5.870  1.2594 -1.4117 -1.0766
 7322TIP3   OH221929   4.397   0.978   2.735  0.3509  0.4743 -0.7640
 7322TIP3    H121930   4.329   1.031   2.694 -0.5136 -0.0800 -0.0768
 7322TIP3    H221931   4.357   0.892   2.746  0.4916  0.6150  1.2849
 7323TIP3   OH221932   2.450   0.426   5.531  0.2182 -0.7009 -0.2135
 7323TIP3    H121933   2.436   0.361   5.600 -1.7234  0.2901  0.4200
 7323TIP3    H221934   2.392   0.398   5.460  1.4346 -1.1478 -1.0471
 7324TIP3   OH221935   4.929   4.288   1.268  0.0333  0.6073 -0.1788
 7324TIP3    H121936   4.852   4.329   1.229 -0.6505  0.4263  0.9359
 7324TIP3    H221937   4.945   4.337   1.348 -0.6747 -1.0983  1.0728
 7325TIP3   OH221938   6.302   6.549   2.284  0.2701 -0.0948 -0.2686
 7325TIP3    H121939   6.364   6.610   2.322  0.4539 -1.2424  1.3848
 7325TIP3    H221940   6.317   6.555   2.189  1.6378  0.9530 -0.0145
 7326TIP3   OH221941   4.524   0.421   2.443  0.2307 -0.0660  0.3224
 7326TIP3    H121942   4.520   0.510   2.478  1.0844 -0.3695  1.2559
 7326TIP3    H221943   4.612   0.389   2.468  0.7353 -0.4566 -1.7549
 7327TIP3   OH221944   4.688   2.743   4.543 -0.1350 -0.0973  0.1086
 7327TIP3    H121945   4.724   2.661   4.507 -0.3720 -0.1407 -0.0364
 7327TIP3    H221946   4.674   2.724   4.635 -1.3821 -0.6539 -0.1731
 7328TIP3   OH221947   2.755   5.831   1.650  0.0128  0.4055 -0.3811
 7328TIP3    H121948   2.681   5.770   1.641  1.3808 -1.4515  0.2431
 7328TIP3    H221949   2.816   5.805   1.581  0.4993  1.2769 -0.2895
 7329TIP3   OH221950   2.166   4.420   4.130 -0.1107  0.1556 -0.4522
 7329TIP3    H121951   2.125   4.401   4.215  0.6424 -0.0102 -0.1197
 7329TIP3    H221952   2.092   4.436   4.071 -0.6604 -0.3973  0.0728
 7330TIP3   OH221953   6.722   1.385   2.670 -0.1573  0.1342 -0.2525
 7330TIP3    H121954   6.800   1.435   2.648  1.4205 -1.0549  2.2489
 7330TIP3    H221955   6.664   1.449   2.712  0.5681  0.5149  0.1964
 7331TIP3   OH221956   3.564   2.428   1.949 -0.0431 -0.0550  0.0029
 7331TIP3    H121957   3.571   2.452   1.857 -3.8645 -0.9185 -0.6875
 7331TIP3    H221958   3.537   2.336   1.948  0.7141 -0.3650  2.0572
 7332TIP3   OH221959   6.632   4.478   4.097 -0.0141  0.1519  0.5136
 7332TIP3    H121960   6.692   4.439   4.034  0.4857  2.0807 -0.2888
 7332TIP3    H221961   6.685   4.542   4.145 -1.0440  0.7725  0.8756
 7333TIP3   OH221962   7.167   5.465   5.273  0.0677 -0.3455  0.1182
 7333TIP3    H121963   7.233   5.400   5.298  0.2810  0.6739  2.5165
 7333TIP3    H221964   7.185   5.539   5.331 -1.2992  1.1541 -1.2910
 7334TIP3   OH221965   1.002   2.981   1.873  0.3284 -0.1069  0.1737
 7334TIP3    H121966   1.006   3.030   1.955  0.4791  0.3492 -0.1017
 7334TIP3    H221967   1.008   2.889   1.899  0.9747  0.0580  0.6326
 7335TIP3   OH221968   3.321   1.711   5.492  0.8419  0.2729 -0.0746
 7335TIP3    H121969   3.385   1.714   5.421  0.4606 -0.7679 -0.4921
 7335TIP3    H221970   3.343   1.631   5.541 -0.8360 -0.7954 -0.9580
 7336TIP3   OH221971   7.045   5.309   1.766 -0.0645 -0.3402  0.1973
 7336TIP3    H121972   7.009   5.245   1.704 -0.6588 -0.5476  0.7475
 7336TIP3    H221973   7.125   5.341   1.724 -0.2950 -0.7105 -0.5314
 7337TIP3   OH221974   2.024   3.447   4.657 -0.1096  0.2852  0.4388
 7337TIP3    H121975   2.031   3.537   4.687  0.2888  1.1708 -2.0942
 7337TIP3    H221976   1.941   3.444   4.608  0.1654 -0.5577 -0.0102
 7338TIP3   OH221977   6.739   4.906   3.493 -0.7742 -0.4831 -0.0463
 7338TIP3    H121978   6.660   4.960   3.503 -0.0423  0.2604  2.4714
 7338TIP3    H221979   6.721   4.827   3.544 -0.1536 -0.5984  0.0074
 7339TIP3   OH221980   4.547   4.794   5.088  0.2382 -0.4266 -0.0108
 7339TIP3    H121981   4.580   4.705   5.105  1.3272 -0.1672 -0.6803
 7339TIP3    H221982   4.613   4.834   5.032 -0.9412  0.3447 -0.8990
 7340TIP3   OH221983   6.389   3.175   0.966  0.7068 -0.2099  0.2384
 7340TIP3    H121984   6.377   3.099   1.023 -0.7626  0.0732  0.3461
 7340TIP3    H221985   6.478   3.205   0.985  0.3658 -0.3011  2.1908
 7341TIP3   OH221986   4.657   1.228   1.870 -0.2204  0.0939  0.2232
 7341TIP3    H121987   4.653   1.303   1.928  1.2753 -1.2224  2.1827
 7341TIP3    H221988   4.657   1.152   1.928  0.5327 -1.3512 -1.5239
 7342TIP3   OH221989   5.135   4.562   2.423  0.6347 -0.1471  0.3274
 7342TIP3    H121990   5.055   4.509   2.425 -0.1654  0.8315 -2.0932
 7342TIP3    H221991   5.110   4.644   2.465  0.0479  0.4607 -1.1222
 7343TIP3   OH221992   3.823   5.093   0.234 -0.1820  0.0895 -0.0755
 7343TIP3    H121993   3.838   5.107   0.328 -1.4269  0.7599  0.0561
 7343TIP3    H221994   3.890   5.031   0.208 -0.3775 -0.8306  1.4761
 7344TIP3   OH221995   5.312   1.280   1.379 -0.4516 -0.9211 -0.5952
 7344TIP3    H121996   5.406   1.266   1.386 -0.2768  0.9265  1.8652
 7344TIP3    H221997   5.275   1.193   1.368  1.4150 -1.8755  0.3028
 7345TIP3   OH221998   1.256   6.371   4.026 -0.6188  0.3228  0.3728
 7345TIP3    H121999   1.239   6.278   4.013 -0.3443  0.5035 -1.4305
 7345TIP3    H222000   1.190   6.415   3.974 -0.8337  1.1695  1.3201
 7346TIP3   OH222001   2.332   2.761   1.360 -0.2260 -0.3169 -0.0869
 7346TIP3    H122002   2.369   2.721   1.281 -0.3458 -0.9467  0.1625
 7346TIP3    H222003   2.257   2.811   1.330  0.8110  0.9665 -0.6035
 7347TIP3   OH222004   3.358   4.763   5.860  0.6112 -0.0939 -0.1386
 7347TIP3    H122005   3.399   4.678   5.872  3.1114  1.0803  0.2711
 7347TIP3    H222006   3.337   4.768   5.767  3.2040 -0.0674 -0.7845
 7348TIP3   OH222007   0.080   0.872   0.346  0.0447 -0.2609 -0.1004
 7348TIP3    H122008   0.001   0.821   0.327  1.0403 -2.0101  0.2146
 7348TIP3    H222009   0.141   0.809   0.383  1.9443  0.8077 -1.2144
 7349TIP3   OH222010   4.538   6.003   4.339 -0.0524 -0.5978  0.3018
 7349TIP3    H122011   4.507   6.023   4.428 -0.8569  0.9963 -0.2948
 7349TIP3    H222012   4.531   5.908   4.332 -0.1051 -0.7468  1.8891
 7350TIP3   OH222013   1.522   5.652   3.201 -0.6087 -0.2031  0.1335
 7350TIP3    H122014   1.490   5.670   3.112  2.0574 -0.1257 -0.9241
 7350TIP3    H222015   1.545   5.559   3.200  2.8006  0.5003 -0.5925
 7351TIP3   OH222016   5.737   2.126   2.077  0.3012 -0.0251  0.0580
 7351TIP3    H122017   5.669   2.146   2.013 -0.1303  0.2505  0.5948
 7351TIP3    H222018   5.712   2.041   2.114  1.3339 -0.8896 -1.1608
 7352TIP3   OH222019   3.591   2.509   1.657  0.2136  0.2021 -0.4673
 7352TIP3    H122020   3.652   2.581   1.673 -1.2482  1.4811 -0.3144
 7352TIP3    H222021   3.638   2.449   1.600  1.7870  0.8489  0.1000
 7353TIP3   OH222022   1.745   2.493   5.391  0.9020 -0.0752 -0.1242
 7353TIP3    H122023   1.781   2.580   5.403  0.1886  0.0890  0.9309
 7353TIP3    H222024   1.683   2.482   5.463 -0.8677 -0.4817 -1.6106
 7354TIP3   OH222025   3.945   1.496   0.140  0.3426  0.5744 -0.0593
 7354TIP3    H122026   3.869   1.553   0.141  0.7095  1.1655 -1.5555
 7354TIP3    H222027   3.918   1.417   0.188 -0.8077  1.2310  0.4044
 7355TIP3   OH222028   6.536   5.965   4.853 -0.4593 -0.1356 -0.1881
 7355TIP3    H122029   6.560   6.035   4.792  0.1810 -0.7316 -0.6461
 7355TIP3    H222030   6.446   5.942   4.830 -1.1191  1.3547  0.7826
 7356TIP3   OH222031   4.178   2.010   0.699 -0.2727 -0.5450  0.0777
 7356TIP3    H122032   4.254   2.046   0.743  0.3158 -2.3182  0.6035
 7356TIP3    H222033   4.210   1.984   0.612 -0.5286 -0.4108 -0.0611
 7357TIP3   OH222034   5.850   0.662   2.489 -0.5856  0.5935 -0.0055
 7357TIP3    H122035   5.883   0.683   2.577 -1.8588 -1.5285  1.0546
 7357TIP3    H222036   5.823   0.571   2.495  0.1469  0.1025 -2.9154
 7358TIP3   OH222037   0.292   0.061   4.288  0.1189  0.0123 -0.0474
 7358TIP3    H122038   0.310  -0.019   4.336  1.0113 -1.7649 -3.0473
 7358TIP3    H222039   0.251   0.032   4.207 -0.8474  2.7464 -0.6571
 7359TIP3   OH222040   2.072   5.047   5.855  0.3539  0.2609  0.0167
 7359TIP3    H122041   2.148   5.092   5.818  1.2525 -2.2688 -1.4580
 7359TIP3    H222042   2.086   4.955   5.833 -2.3702 -0.5027  1.1278
 7360TIP3   OH222043   6.995   6.432   5.076  0.2041 -0.5519 -0.1080
 7360TIP3    H122044   7.085   6.432   5.108 -0.0914 -1.8337  0.7987
 7360TIP3    H222045   6.995   6.497   5.005  1.3306  1.0167  1.2455
 7361TIP3   OH222046   5.354   6.441   2.291 -0.4148 -0.3120  0.4176
 7361TIP3    H122047   5.259   6.446   2.297 -0.3936 -0.4637  0.8963
 7361TIP3    H222048   5.383   6.423   2.381  0.0657 -0.2186  0.2820
 7362TIP3   OH222049   5.201   6.240   2.979 -0.3979  0.2709  0.4460
 7362TIP3    H122050   5.249   6.158   2.971 -0.0142  0.3572  1.7622
 7362TIP3    H222051   5.128   6.231   2.917  0.3044 -0.5713 -0.2722
 7363TIP3   OH222052   0.223   5.251   5.529  0.4769  0.1518  0.0761
 7363TIP3    H122053   0.143   5.209   5.562 -0.8016  1.0110 -1.7256
 7363TIP3    H222054   0.282   5.178   5.511  0.2648 -0.4858  1.7381
 7364TIP3   OH222055   2.283   6.199   0.362 -0.1631  0.4240  0.0601
 7364TIP3    H122056   2.335   6.120   0.360 -1.1690 -0.2476 -0.9646
 7364TIP3    H222057   2.337   6.265   0.318  0.0365 -0.1162 -0.5167
 7365TIP3   OH222058   2.554   0.257   3.754  0.1647 -0.5338 -0.2239
 7365TIP3    H122059   2.631   0.236   3.701 -0.2876  1.4762 -1.7891
 7365TIP3    H222060   2.483   0.206   3.714  0.6558 -2.6729  1.4429
 7366TIP3   OH222061   3.030   4.783   0.219 -0.8367 -0.3754 -0.8098
 7366TIP3    H122062   3.028   4.874   0.250 -0.9790 -0.3149 -0.9988
 7366TIP3    H222063   3.029   4.731   0.299 -0.7155 -0.2110 -0.6990
 7367TIP3   OH222064   4.646   3.282   4.873  0.7224 -0.1388  0.0232
 7367TIP3    H122065   4.667   3.197   4.835 -1.4239 -0.5547 -0.3871
 7367TIP3    H222066   4.568   3.266   4.927 -0.0213  1.6242 -0.4402
 7368TIP3   OH222067   2.694   1.116   0.186 -0.1030 -0.0951  0.9635
 7368TIP3    H122068   2.691   1.207   0.216 -1.0819  0.5768 -0.9603
 7368TIP3    H222069   2.722   1.066   0.262  1.7470  1.9645  1.7260
 7369TIP3   OH222070   6.927   2.751   3.462  0.0340 -0.0199  0.4588
 7369TIP3    H122071   6.997   2.816   3.477 -0.5964  0.5082  1.2271
 7369TIP3    H222072   6.890   2.736   3.549 -1.8139  0.8688 -0.1313
 7370TIP3   OH222073   1.505   3.927   4.859  0.2428 -0.1522 -0.3014
 7370TIP3    H122074   1.467   3.958   4.776 -0.9295 -0.5492  0.0633
 7370TIP3    H222075   1.599   3.937   4.848  0.0325  1.1987 -1.1335
 7371TIP3   OH222076   0.160   3.249   4.638  0.2336  0.6826 -0.2577
 7371TIP3    H122077   0.252   3.237   4.616 -0.1987 -1.6951 -1.0452
 7371TIP3    H222078   0.131   3.320   4.582  1.1820  0.2861 -1.2872
 7372TIP3   OH222079   2.677   0.983   1.452 -0.0108  0.0036  0.5739
 7372TIP3    H122080   2.586   0.991   1.425  0.7215 -1.8864 -3.1543
 7372TIP3    H222081   2.709   0.906   1.405  2.6965 -1.4608  4.3659
 7373TIP3   OH222082   5.928   3.403   3.718  0.0167 -0.0826 -0.2473
 7373TIP3    H122083   5.946   3.494   3.740 -0.6085 -0.1298  0.5295
 7373TIP3    H222084   5.903   3.363   3.802 -2.8570 -0.2093 -1.0602
 7374TIP3   OH222085   4.067   5.724   4.689 -0.2896 -0.1128 -0.1447
 7374TIP3    H122086   4.138   5.717   4.624 -0.1625  0.2175 -0.0381
 7374TIP3    H222087   4.046   5.633   4.710 -1.0141 -0.2642 -1.3932
 7375TIP3   OH222088   5.110   6.041   0.171  0.2383  0.0473  0.2169
 7375TIP3    H122089   5.057   6.048   0.250 -1.3999  1.0274 -0.8969
 7375TIP3    H222090   5.064   5.975   0.118  1.1257 -0.3595 -0.0620
 7376TIP3   OH222091   3.658   4.240   0.485  0.2395 -0.2215 -0.3912
 7376TIP3    H122092   3.723   4.183   0.526 -0.4192  0.2799  1.4341
 7376TIP3    H222093   3.700   4.325   0.480 -1.0584  0.8052  3.2954
 7377TIP3   OH222094   6.742   1.553   5.410  0.0495 -0.0585  0.1547
 7377TIP3    H122095   6.683   1.564   5.485  1.3960  0.5215  1.1459
 7377TIP3    H222096   6.747   1.458   5.398  0.2261 -0.1808  1.1349
 7378TIP3   OH222097   1.971   2.622   0.356  0.7380 -0.1372  0.6722
 7378TIP3    H122098   1.990   2.711   0.326 -0.6411  0.0006  0.1125
 7378TIP3    H222099   2.007   2.565   0.289 -1.0088  0.1230 -0.5515
 7379TIP3   OH222100   4.434   6.594   1.956 -0.2883 -0.2729  0.1193
 7379TIP3    H122101   4.356   6.647   1.974  0.4932  0.4608  1.4895
 7379TIP3    H222102   4.460   6.620   1.867 -0.8607  0.4522  0.1510
 7380TIP3   OH222103   1.360   4.325   4.225 -0.2426  1.0410  0.3328
 7380TIP3    H122104   1.312   4.405   4.246 -1.0740  0.9656 -1.1548
 7380TIP3    H222105   1.301   4.276   4.168  0.9664  0.1974 -0.2320
 7381TIP3   OH222106   2.033   5.935   3.960 -0.1102 -0.3391 -0.4286
 7381TIP3    H122107   2.066   5.865   4.016 -0.9511 -1.7237 -1.5991
 7381TIP3    H222108   2.032   5.898   3.872 -0.3090  1.2537 -1.1398
 7382TIP3   OH222109   5.053   1.151   3.651 -0.0320 -0.1697 -0.2107
 7382TIP3    H122110   4.979   1.196   3.610 -0.1190  0.4080  0.5563
 7382TIP3    H222111   5.049   1.062   3.616 -0.5585  0.0967 -0.8543
 7383TIP3   OH222112   5.591   6.029   0.794 -0.2290  0.1127  0.2510
 7383TIP3    H122113   5.549   6.094   0.851  1.0350  1.7404 -0.5607
 7383TIP3    H222114   5.586   6.068   0.707 -0.1925 -1.3227 -0.4170
 7384TIP3   OH222115   3.613   4.751   4.701 -0.2529  0.7575  0.1517
 7384TIP3    H122116   3.540   4.789   4.750 -0.5364  1.5955 -0.8789
 7384TIP3    H222117   3.571   4.697   4.634  0.1160  0.1588  0.3944
 7385TIP3   OH222118   2.562   3.023   0.726  0.0808  0.0881 -0.1645
 7385TIP3    H122119   2.582   2.932   0.748  2.3694  0.6653  0.3183
 7385TIP3    H222120   2.610   3.040   0.645 -0.8161  0.7327 -0.5901
 7386TIP3   OH222121   1.129   2.419   1.104 -0.5045 -0.2827  0.6701
 7386TIP3    H122122   1.077   2.494   1.073 -0.1820  1.2354  3.4413
 7386TIP3    H222123   1.219   2.442   1.084 -0.3804  0.2648  1.7602
 7387TIP3   OH222124   5.104   5.986   5.413  0.4689 -0.1878  0.5180
 7387TIP3    H122125   5.085   6.051   5.481  0.2808  0.1065  0.1813
 7387TIP3    H222126   5.200   5.979   5.413  0.5117  0.3389  0.3209
 7388TIP3   OH222127   1.199   0.135   4.896  0.4535 -0.4733 -0.3122
 7388TIP3    H122128   1.264   0.143   4.966 -0.1375 -2.0278  0.4813
 7388TIP3    H222129   1.115   0.151   4.939  0.1217 -1.0072 -0.7445
 7389TIP3   OH222130   3.506   0.406   0.889  0.6510 -0.4588 -0.1980
 7389TIP3    H122131   3.436   0.444   0.942  1.0224 -0.5106  0.3456
 7389TIP3    H222132   3.474   0.410   0.799 -1.0752 -2.6112  0.2233
 7390TIP3   OH222133   1.810   5.169   3.223  0.2284  0.0747  0.3701
 7390TIP3    H122134   1.865   5.240   3.255  3.5593 -0.9797 -2.3354
 7390TIP3    H222135   1.826   5.097   3.283  1.6493 -0.0966 -0.1662
 7391TIP3   OH222136   6.789   3.434   3.934 -0.1880 -0.4122  0.2352
 7391TIP3    H122137   6.833   3.382   3.867 -1.8257 -1.0827 -0.3760
 7391TIP3    H222138   6.796   3.381   4.014  1.0884  0.0296  0.4399
 7392TIP3   OH222139   5.551   1.617   4.653 -0.5345 -0.9119  0.6334
 7392TIP3    H122140   5.602   1.591   4.730 -0.6481  0.3866  1.1682
 7392TIP3    H222141   5.464   1.580   4.667 -1.0809  0.7661  2.0271
 7393TIP3   OH222142   0.489   5.315   3.007  0.0926 -0.5985 -0.3547
 7393TIP3    H122143   0.495   5.221   2.990 -1.4046 -0.7036 -0.4577
 7393TIP3    H222144   0.450   5.321   3.094  0.3648 -0.0769 -0.2684
 7394TIP3   OH222145   3.650   1.789   5.869  0.2561 -0.3048  0.2203
 7394TIP3    H122146   3.741   1.806   5.845  0.6456 -1.1415  1.0274
 7394TIP3    H222147   3.621   1.722   5.808 -0.4758  1.3755 -1.3319
 7395TIP3   OH222148   2.349   4.196   4.074 -0.4691 -0.0874  0.1197
 7395TIP3    H122149   2.310   4.277   4.106 -0.3217 -0.5111  1.4748
 7395TIP3    H222150   2.308   4.127   4.128 -1.3502 -1.0396 -1.6792
 7396TIP3   OH222151   4.405   0.511   0.591  0.4130  0.2783 -0.2079
 7396TIP3    H122152   4.408   0.437   0.530 -1.1091 -0.8424  1.0180
 7396TIP3    H222153   4.342   0.571   0.552 -2.6310 -1.6353  1.4173
 7397TIP3   OH222154   0.550   5.219   1.072  0.0925 -0.0353  0.2355
 7397TIP3    H122155   0.481   5.265   1.118 -0.3638 -1.0120  0.5625
 7397TIP3    H222156   0.599   5.287   1.026 -1.2553  0.6472 -0.2299
 7398TIP3   OH222157   0.472   3.546   4.849 -0.2970  0.7098  0.2147
 7398TIP3    H122158   0.474   3.562   4.754  0.7873 -1.7708 -0.2681
 7398TIP3    H222159   0.559   3.570   4.880 -0.1314  0.0660  0.2707
 7399TIP3   OH222160   4.118   5.857   5.804  0.3290 -0.7163 -0.2095
 7399TIP3    H122161   4.057   5.797   5.761 -0.1430  0.0234 -0.6021
 7399TIP3    H222162   4.198   5.850   5.752 -0.5971  1.0531 -2.0455
 7400TIP3   OH222163   0.424   1.769   2.874 -0.7785 -0.5146  0.0167
 7400TIP3    H122164   0.339   1.734   2.898 -0.8228  0.4999  1.5315
 7400TIP3    H222165   0.464   1.794   2.958  0.2444  0.7013 -0.7837
 7401TIP3   OH222166   3.755   4.798   4.191  0.2328 -0.1693  0.3780
 7401TIP3    H122167   3.703   4.725   4.224 -0.3706 -0.5928 -1.3884
 7401TIP3    H222168   3.836   4.795   4.242 -0.9757 -0.2107  2.3810
 7402TIP3   OH222169   1.023   5.091   4.180 -0.3683  0.5656 -0.1858
 7402TIP3    H122170   0.955   5.066   4.118  0.3861 -2.1312 -0.0456
 7402TIP3    H222171   0.979   5.096   4.264 -0.6944  0.5589 -0.3564
 7403TIP3   OH222172   3.929   5.686   3.473 -0.0714  0.6698 -0.0115
 7403TIP3    H122173   3.945   5.779   3.454 -1.2553  0.8433 -0.2397
 7403TIP3    H222174   3.904   5.649   3.388  3.4667 -0.6105 -0.6441
 7404TIP3   OH222175   5.053   2.155   0.336 -0.0144  0.6201 -0.7691
 7404TIP3    H122176   5.026   2.227   0.393  2.0176  1.5994 -0.9371
 7404TIP3    H222177   5.078   2.085   0.397 -2.4866 -0.2055 -0.6127
 7405TIP3   OH222178   3.384   0.481   1.990 -0.0990  0.1103  0.1931
 7405TIP3    H122179   3.328   0.435   1.927  1.0775  0.1777 -0.9494
 7405TIP3    H222180   3.324   0.509   2.059 -1.6677  1.0406 -1.4528
 7406TIP3   OH222181   7.145   3.010   0.291 -0.4322  0.5589  0.3376
 7406TIP3    H122182   7.159   3.018   0.386 -0.0121 -0.8225  0.4142
 7406TIP3    H222183   7.081   2.940   0.282  1.4355 -1.1710 -0.4437
 7407TIP3   OH222184   1.840   2.213   4.427 -0.7217 -0.0727 -0.1792
 7407TIP3    H122185   1.836   2.264   4.346  0.1918  0.5580  0.1534
 7407TIP3    H222186   1.879   2.130   4.401 -2.1511 -0.6204 -0.7123
 7408TIP3   OH222187   1.524   0.057   5.804 -0.3123 -0.3632 -0.3363
 7408TIP3    H122188   1.459   0.114   5.845  0.4258 -0.8652  1.6943
 7408TIP3    H222189   1.591   0.116   5.770 -1.1184  0.0882 -1.1729
 7409TIP3   OH222190   4.947   5.261   1.682 -0.1015 -0.2798 -0.1350
 7409TIP3    H122191   4.942   5.355   1.663  2.1207  0.0484  0.5352
 7409TIP3    H222192   4.867   5.242   1.730  0.1527  1.6727  1.1764
 7410TIP3   OH222193   7.128   0.508   2.818  0.5874 -0.3547  0.0510
 7410TIP3    H122194   7.184   0.567   2.868  2.3276 -0.5557 -1.5578
 7410TIP3    H222195   7.073   0.566   2.766  1.1578 -0.1383 -0.3199
 7411TIP3   OH222196   6.294   0.492   1.454 -0.2902  0.3110  0.2014
 7411TIP3    H122197   6.350   0.534   1.389  0.1267  1.4255  1.2547
 7411TIP3    H222198   6.230   0.559   1.478 -0.6716 -0.2084  0.6774
 7412TIP3   OH222199   4.578   0.659   5.218 -0.2647 -0.2462 -0.6364
 7412TIP3    H122200   4.549   0.736   5.267  2.1310  0.5095 -0.3176
 7412TIP3    H222201   4.563   0.586   5.278  1.8665  0.5705  1.0071
 7413TIP3   OH222202   3.732   0.206   2.525 -0.2737 -0.3209 -0.1811
 7413TIP3    H122203   3.711   0.295   2.498  1.7472 -0.5444 -2.9250
 7413TIP3    H222204   3.724   0.207   2.620  1.2886  3.2720  0.0700
 7414TIP3   OH222205   5.216   6.791   0.677 -0.1512 -0.9328 -0.0320
 7414TIP3    H122206   5.264   6.832   0.606 -2.6344 -0.2629 -1.4250
 7414TIP3    H222207   5.142   6.748   0.635 -1.0124 -1.6135  2.0270
 7415TIP3   OH222208   4.533   3.446   0.195  0.2849 -0.1625  0.4969
 7415TIP3    H122209   4.460   3.393   0.225 -1.2332  1.5053 -0.0873
 7415TIP3    H222210   4.577   3.392   0.129 -2.6538  0.1363 -1.8925
 7416TIP3   OH222211   3.220   4.159   3.917  0.4752  0.8386 -0.2684
 7416TIP3    H122212   3.210   4.176   4.011 -0.1901  0.0952 -0.1986
 7416TIP3    H222213   3.212   4.246   3.877  2.8214  1.5059  0.4755
 7417TIP3   OH222214   4.152   1.165   4.559  0.0402 -0.1671  0.4050
 7417TIP3    H122215   4.238   1.149   4.520  0.3186 -0.4524  1.1109
 7417TIP3    H222216   4.137   1.088   4.614 -0.2373  0.3231  1.0227
 7418TIP3   OH222217   0.828   2.268   3.539  0.1132 -0.1765 -0.1926
 7418TIP3    H122218   0.738   2.278   3.510  0.5779 -0.7418 -1.9614
 7418TIP3    H222219   0.839   2.333   3.609 -1.2515  0.8446 -0.8991
 7419TIP3   OH222220   2.876   1.314   0.053  0.0021  0.6980  0.4072
 7419TIP3    H122221   2.864   1.288   0.144  0.6965 -0.6374  0.1394
 7419TIP3    H222222   2.938   1.251   0.018 -0.3891  1.0834 -1.0450
 7420TIP3   OH222223   0.599   0.510   0.547  0.1631  0.7972  0.0012
 7420TIP3    H122224   0.660   0.575   0.582  0.8143  0.0960  0.2047
 7420TIP3    H222225   0.562   0.552   0.470  0.8589  1.2676 -0.0936
 7421TIP3   OH222226   1.903   6.258   3.173  0.3815  0.3769 -0.5603
 7421TIP3    H122227   1.999   6.249   3.176  0.2989 -0.5416 -0.3697
 7421TIP3    H222228   1.887   6.308   3.093  0.9422 -0.7931 -1.4265
 7422TIP3   OH222229   5.914   5.223   3.577  0.1287 -0.7155  0.9407
 7422TIP3    H122230   5.995   5.212   3.628 -0.3018 -1.0284  1.5640
 7422TIP3    H222231   5.887   5.134   3.555  0.9471 -0.5620 -0.8859
 7423TIP3   OH222232   2.616   2.280   0.939 -0.1671 -0.5782 -0.2100
 7423TIP3    H122233   2.601   2.268   0.846 -0.1927 -0.0001 -0.2842
 7423TIP3    H222234   2.554   2.348   0.965  0.4161 -0.1309  0.0513
 7424TIP3   OH222235   3.020   4.293   1.326 -0.0004 -0.1433  0.3273
 7424TIP3    H122236   3.008   4.230   1.256  1.2199  1.1454 -1.0972
 7424TIP3    H222237   2.931   4.323   1.347 -0.3494 -0.2240 -0.9749
 7425TIP3   OH222238   4.293   2.932   5.688  0.9509  0.5765 -0.1229
 7425TIP3    H122239   4.349   3.008   5.706 -0.0701  1.2012  0.5107
 7425TIP3    H222240   4.326   2.898   5.604  1.5900  1.5637 -0.2928
 7426TIP3   OH222241   1.403   1.875   4.820  0.3521  0.4942  0.0846
 7426TIP3    H122242   1.321   1.840   4.856  1.5582 -1.4296  1.1231
 7426TIP3    H222243   1.396   1.969   4.833 -2.1023  0.5273 -0.7908
 7427TIP3   OH222244   5.620   0.405   3.564 -0.3333  0.0783  0.6950
 7427TIP3    H122245   5.645   0.483   3.515  0.1849 -0.9784 -0.8304
 7427TIP3    H222246   5.703   0.367   3.592 -0.2745 -1.7254 -1.5986
 7428TIP3   OH222247   3.490   2.167   1.854 -0.6996  0.5189 -0.2023
 7428TIP3    H122248   3.557   2.175   1.786 -0.0440  0.9686  0.4743
 7428TIP3    H222249   3.423   2.110   1.816  0.3020 -0.3452 -0.7282
 7429TIP3   OH222250   5.138   6.439   0.401 -0.1064 -0.0165  0.0887
 7429TIP3    H122251   5.116   6.373   0.467  1.1350 -0.1973  0.3469
 7429TIP3    H222252   5.057   6.450   0.350 -0.8301 -0.4838  1.1095
 7430TIP3   OH222253   1.175   0.058   1.792  0.0047  0.0630 -0.2585
 7430TIP3    H122254   1.195   0.003   1.868  1.9253  0.2918 -0.5569
 7430TIP3    H222255   1.142   0.139   1.830 -0.9095 -0.5211  0.2437
 7431TIP3   OH222256   4.697   5.855   1.194  0.1127 -0.2548 -0.3534
 7431TIP3    H122257   4.675   5.774   1.240  2.0101 -0.6613 -0.0901
 7431TIP3    H222258   4.759   5.899   1.252  0.6824  0.3848 -1.4261
 7432TIP3   OH222259   3.609   2.420   0.839 -0.6529  0.2304 -0.3259
 7432TIP3    H122260   3.610   2.366   0.759 -0.0413 -1.4470  0.7511
 7432TIP3    H222261   3.520   2.408   0.874 -0.2896 -0.7488  0.3097
 7433TIP3   OH222262   6.938   5.614   4.414  0.5210 -0.1553 -0.0451
 7433TIP3    H122263   7.016   5.560   4.425 -1.0730 -2.4784  0.8041
 7433TIP3    H222264   6.940   5.675   4.488  1.2501 -0.5750  0.2899
 7434TIP3   OH222265   2.597   4.427   5.029  0.0785  0.5221 -0.6891
 7434TIP3    H122266   2.607   4.520   5.008  0.2832  0.5613 -0.4169
 7434TIP3    H222267   2.652   4.381   4.965 -0.9803  0.5083 -1.6246
 7435TIP3   OH222268   0.503  -0.004   0.170 -0.1405  0.3107  0.1454
 7435TIP3    H122269   0.443   0.064   0.201 -0.2914 -0.0429  0.6365
 7435TIP3    H222270   0.516   0.016   0.078  0.6123  1.6199  0.5075
 7436TIP3   OH222271   6.944   1.467   4.410  0.1041  0.3437 -0.0756
 7436TIP3    H122272   6.915   1.474   4.501 -0.9072  2.0557 -0.4703
 7436TIP3    H222273   6.863   1.477   4.359  0.8552  1.1699 -1.1642
 7437TIP3   OH222274   6.230   5.036   5.167  0.2916  0.2207 -0.5129
 7437TIP3    H122275   6.313   5.073   5.134  0.5502  0.6955  0.6323
 7437TIP3    H222276   6.237   4.942   5.148 -0.1631  0.6084 -3.0238
 7438TIP3   OH222277   0.493   6.785   2.201 -0.5480 -0.6206  0.1975
 7438TIP3    H122278   0.484   6.730   2.279 -1.6177  1.6196  1.7732
 7438TIP3    H222279   0.573   6.834   2.216  0.4708 -1.7417 -1.2619
 7439TIP3   OH222280   1.653   3.960   1.909  0.3634  0.1567 -0.2179
 7439TIP3    H122281   1.746   3.946   1.891  0.8907  3.2726 -0.4711
 7439TIP3    H222282   1.650   3.987   2.001 -0.7585 -2.9286  0.7589
 7440TIP3   OH222283   2.117   1.296   4.391 -0.2968  0.4882 -0.2941
 7440TIP3    H122284   2.072   1.322   4.471 -0.1377  0.8621 -0.3200
 7440TIP3    H222285   2.171   1.373   4.369 -0.1162  0.2754 -0.5933
 7441TIP3   OH222286   7.127   6.741   2.706 -0.4422  0.2094  0.4308
 7441TIP3    H122287   7.050   6.792   2.679 -1.4934 -0.4110  2.0960
 7441TIP3    H222288   7.192   6.807   2.728 -1.4496  0.8417  1.6186
 7442TIP3   OH222289   6.342   4.376   0.180 -0.3246 -0.0349 -0.0471
 7442TIP3    H122290   6.353   4.284   0.204  0.3434 -0.0910 -0.5450
 7442TIP3    H222291   6.414   4.421   0.225 -0.2830  0.1525 -0.2992
 7443TIP3   OH222292   3.710   0.169   2.806 -0.6633  0.6288  0.1661
 7443TIP3    H122293   3.710   0.076   2.786 -0.7587  0.0139  2.6615
 7443TIP3    H222294   3.644   0.179   2.875  1.1631  2.0181  1.8428
 7444TIP3   OH222295   5.387   4.805   1.986 -0.0292 -0.7681 -0.1905
 7444TIP3    H122296   5.368   4.842   1.900  1.1755 -2.5235 -1.2725
 7444TIP3    H222297   5.458   4.860   2.021 -0.0029 -0.5055 -0.6561
 7445TIP3   OH222298   3.728   1.004   2.753 -0.4129  0.4300 -0.1804
 7445TIP3    H122299   3.819   0.994   2.782 -0.2836  0.1167 -0.6859
 7445TIP3    H222300   3.677   1.005   2.834  0.0779  1.0471  0.1323
 7446TIP3   OH222301   0.967   5.665   2.374 -0.1811 -0.2521  0.3496
 7446TIP3    H122302   1.032   5.709   2.430  1.1991 -1.1524 -0.4703
 7446TIP3    H222303   0.899   5.731   2.359  0.4608  0.6761  1.3783
 7447TIP3   OH222304   2.554   1.294   1.573  0.0540  0.6164  0.1456
 7447TIP3    H122305   2.589   1.341   1.498  0.3469  0.7450  0.3630
 7447TIP3    H222306   2.495   1.356   1.615 -0.8469  0.2420 -0.4996
 7448TIP3   OH222307   6.955   5.010   0.510 -0.4880  0.0640 -0.4629
 7448TIP3    H122308   6.894   5.053   0.451 -2.3606  0.9318  1.9369
 7448TIP3    H222309   6.993   4.939   0.458 -2.2197  0.5844 -2.5820
 7449TIP3   OH222310   2.761   1.287   2.836  0.2254 -0.1527 -0.5770
 7449TIP3    H122311   2.847   1.314   2.867 -0.1196  0.6916 -0.3342
 7449TIP3    H222312   2.701   1.308   2.908 -0.2704 -0.1813 -0.9713
 7450TIP3   OH222313   1.541   1.313   2.971 -0.0455  0.5006 -0.5644
 7450TIP3    H122314   1.529   1.406   2.990  0.7601  0.3735  0.7132
 7450TIP3    H222315   1.454   1.275   2.979  0.1090  0.5919  2.3742
 7451TIP3   OH222316   6.899   5.257   4.283 -0.5057  0.1089  0.1147
 7451TIP3    H122317   6.995   5.260   4.279 -0.4534 -1.3788 -0.7777
 7451TIP3    H222318   6.879   5.257   4.376  0.3908 -0.0605  0.3188
 7452TIP3   OH222319   1.491   1.776   5.582 -0.3623  0.2011  0.0860
 7452TIP3    H122320   1.562   1.755   5.642  0.2520  1.8458 -0.0210
 7452TIP3    H222321   1.501   1.870   5.565 -1.4358  0.0777 -1.3875
 7453TIP3   OH222322   6.760   3.467   3.142 -0.4381 -0.3387 -0.1636
 7453TIP3    H122323   6.743   3.559   3.162 -0.4108 -0.2235 -0.6639
 7453TIP3    H222324   6.852   3.454   3.165 -0.3298 -0.1341 -0.4654
 7454TIP3   OH222325   6.424   6.505   5.743  0.3425 -0.4839 -0.1235
 7454TIP3    H122326   6.337   6.485   5.707 -0.2710 -0.4168  1.2737
 7454TIP3    H222327   6.485   6.461   5.684 -0.5964  0.0052 -1.5032
 7455TIP3   OH222328   0.029   0.821   1.617  0.0326  0.6073 -0.9956
 7455TIP3    H122329  -0.022   0.845   1.695  0.9487  1.5740 -0.6690
 7455TIP3    H222330   0.045   0.905   1.573 -1.1920 -0.0103 -2.7021
 7456TIP3   OH222331   0.766   1.126   4.499  0.3059  0.5722  0.8017
 7456TIP3    H122332   0.742   1.109   4.408  1.7822 -0.0629  0.5001
 7456TIP3    H222333   0.747   1.219   4.512 -2.2588  0.1410  0.6313
 7457TIP3   OH222334   4.224   0.934   3.118  0.2724 -0.2708 -0.0807
 7457TIP3    H122335   4.201   0.848   3.084  0.3687 -0.4871  0.3930
 7457TIP3    H222336   4.170   0.944   3.197  1.3965 -0.5703  0.7507
 7458TIP3   OH222337   6.530   4.537   1.126  0.2465  0.0781 -0.1600
 7458TIP3    H122338   6.570   4.471   1.069 -0.0835 -0.5102  0.2772
 7458TIP3    H222339   6.436   4.523   1.116  0.1703  0.5877 -0.1811
 7459TIP3   OH222340   6.415   6.099   1.308  0.2200 -0.2104  0.1814
 7459TIP3    H122341   6.489   6.159   1.313 -0.6435  0.9591 -0.4229
 7459TIP3    H222342   6.338   6.156   1.313 -0.6396 -1.3685  0.5566
 7460TIP3   OH222343   1.688   2.558   0.397 -0.0542  0.3888  0.0812
 7460TIP3    H122344   1.764   2.602   0.433  0.9094 -0.2905 -1.0532
 7460TIP3    H222345   1.711   2.465   0.398  0.5245  0.3557 -3.1810
 7461TIP3   OH222346   4.334   5.988   3.700  0.0433  0.0960 -0.0280
 7461TIP3    H122347   4.306   5.955   3.785 -0.0684 -0.8749 -0.4341
 7461TIP3    H222348   4.394   5.921   3.667 -0.9375 -0.1971 -1.2882
 7462TIP3   OH222349   3.220   2.516   4.154  0.5575  0.1388 -0.2467
 7462TIP3    H122350   3.162   2.536   4.081 -0.5978  2.2725  1.1502
 7462TIP3    H222351   3.165   2.470   4.218  0.4877  1.7043  0.8677
 7463TIP3   OH222352   0.824   6.600   3.329 -0.2454  0.2399 -0.4320
 7463TIP3    H122353   0.891   6.535   3.350 -0.0828  0.0277 -1.5712
 7463TIP3    H222354   0.871   6.683   3.327 -0.0776  0.1363 -0.8895
 7464TIP3   OH222355   4.336   5.392   0.837  0.1361  0.2110 -0.3814
 7464TIP3    H122356   4.367   5.458   0.898  1.1334 -0.1351 -0.4868
 7464TIP3    H222357   4.320   5.314   0.891 -1.5107  0.6508 -0.1795
 7465TIP3   OH222358   7.250   6.791   1.621  0.3866 -0.0338  0.3552
 7465TIP3    H122359   7.215   6.713   1.576  0.2140  0.5224 -0.4909
 7465TIP3    H222360   7.172   6.840   1.647  0.5100  0.2546  0.1802
 7466TIP3   OH222361   0.384   1.435   5.438 -0.4814  0.2820  0.2953
 7466TIP3    H122362   0.466   1.439   5.487 -0.5431 -2.5816  0.7601
 7466TIP3    H222363   0.322   1.395   5.498 -1.6033  0.2349 -0.8589
 7467TIP3   OH222364   6.951   6.422   3.777 -0.0224 -0.1456 -0.2017
 7467TIP3    H122365   6.860   6.409   3.803 -0.5034  0.8385 -1.2539
 7467TIP3    H222366   6.987   6.484   3.841 -0.0767 -0.5667  0.2368
 7468TIP3   OH222367   6.923   6.132   0.273 -0.3724  0.1874 -0.1044
 7468TIP3    H122368   6.859   6.061   0.263 -1.8206  1.0398  2.3178
 7468TIP3    H222369   6.965   6.138   0.187 -2.9503 -1.0045 -1.5714
 7469TIP3   OH222370   1.179   3.522   0.158  0.5552  0.0490 -0.0282
 7469TIP3    H122371   1.143   3.434   0.148 -2.0897  1.1132 -0.5423
 7469TIP3    H222372   1.172   3.540   0.252  0.9243 -0.2063  0.0498
 7470TIP3   OH222373   4.691   5.583   3.074  0.5920  0.0983  0.1994
 7470TIP3    H122374   4.691   5.502   3.124 -0.2268 -0.8578 -1.2723
 7470TIP3    H222375   4.781   5.614   3.077  0.4618  0.3963  2.6926
 7471TIP3   OH222376   4.878   3.023   3.442 -0.0574  0.3472 -0.0581
 7471TIP3    H122377   4.872   2.961   3.515  0.6729  0.7021  0.3105
 7471TIP3    H222378   4.854   3.107   3.480  1.3477  0.7273  0.0477
 7472TIP3   OH222379   0.493   0.479   5.344 -0.5199  0.4270 -0.0535
 7472TIP3    H122380   0.497   0.473   5.440 -0.4164  0.6452 -0.0418
 7472TIP3    H222381   0.475   0.390   5.315  1.6276 -0.1023  0.0546
 7473TIP3   OH222382   4.381   1.357   2.843  0.2466 -0.0965  0.0569
 7473TIP3    H122383   4.342   1.375   2.758  1.2792 -0.9619 -0.6275
 7473TIP3    H222384   4.327   1.286   2.879 -0.0775  0.1445  0.0528
 7474TIP3   OH222385   7.174   0.869   4.750  0.8674  0.3896  0.1069
 7474TIP3    H122386   7.230   0.820   4.809  0.3788 -0.0587  0.2078
 7474TIP3    H222387   7.125   0.803   4.702 -0.8905  0.7455  1.3026
 7475TIP3   OH222388   4.083   5.362   1.692  0.3441  0.3596 -0.3235
 7475TIP3    H122389   4.091   5.457   1.693  0.2562  0.3685 -0.5261
 7475TIP3    H222390   4.009   5.344   1.635 -0.6130  0.2339  0.9200
 7476TIP3   OH222391   5.768   0.421   2.540  0.2083  0.2281  0.3940
 7476TIP3    H122392   5.775   0.329   2.515  1.7429 -0.1097  1.8679
 7476TIP3    H222393   5.674   0.436   2.550 -0.1078 -0.9619 -0.5615
 7477TIP3   OH222394   5.492   0.467   2.588 -0.2803 -0.8650 -0.1592
 7477TIP3    H122395   5.483   0.393   2.648  0.3970 -0.5115  0.3827
 7477TIP3    H222396   5.453   0.541   2.635 -0.6153 -0.7862 -0.5493
 7478TIP3   OH222397   1.527   5.115   1.830  0.1232  0.1480 -0.1966
 7478TIP3    H122398   1.580   5.108   1.750 -0.5271  1.9750 -0.8464
 7478TIP3    H222399   1.584   5.161   1.891 -0.5210  1.8025 -0.7813
 7479TIP3   OH222400   2.251   4.852   2.440  0.2222 -0.4925  0.4086
 7479TIP3    H122401   2.333   4.846   2.391 -0.5987 -1.8279 -0.8780
 7479TIP3    H222402   2.277   4.886   2.526  1.8155  1.1651 -0.6443
 7480TIP3   OH222403   5.512   3.321   5.274  1.0934 -0.5032  0.1262
 7480TIP3    H122404   5.481   3.308   5.364  2.1552 -0.5278  0.4958
 7480TIP3    H222405   5.586   3.381   5.282  1.6091 -1.0198 -0.6606
 7481TIP3   OH222406   3.093   3.761   5.221  0.6241 -0.5808 -0.2434
 7481TIP3    H122407   3.180   3.721   5.217  0.9396  0.1598 -1.5002
 7481TIP3    H222408   3.033   3.687   5.209  1.1094 -1.0085 -0.0946
 7482TIP3   OH222409   1.125   4.845   5.662 -0.0727  0.5401  0.7684
 7482TIP3    H122410   1.134   4.753   5.638 -0.4152  0.8426 -0.6384
 7482TIP3    H222411   1.206   4.866   5.709  0.4748 -0.2180  0.1872
 7483TIP3   OH222412   2.654   2.933   3.932 -0.0167 -0.6456 -0.0504
 7483TIP3    H122413   2.606   2.899   3.857 -0.0856  0.5027 -0.5403
 7483TIP3    H222414   2.609   2.896   4.008 -2.5621  1.3898 -0.4272
 7484TIP3   OH222415   3.543   3.715   5.686 -0.1257  0.0722 -0.0326
 7484TIP3    H122416   3.485   3.791   5.686 -0.0167  0.1628 -0.5870
 7484TIP3    H222417   3.623   3.746   5.728  0.0014  0.3344 -0.4576
 7485TIP3   OH222418   2.326   6.182   5.618 -0.5053 -0.2928 -0.1040
 7485TIP3    H122419   2.386   6.146   5.553  0.5034 -0.4437  0.8655
 7485TIP3    H222420   2.239   6.159   5.587 -0.0239 -0.7941 -1.1278
 7486TIP3   OH222421   1.143   0.306   0.998  0.8036  0.1153  0.5124
 7486TIP3    H122422   1.063   0.323   0.949  0.4638 -0.6765  0.7752
 7486TIP3    H222423   1.210   0.357   0.953 -0.0004  1.4725  0.8072
 7487TIP3   OH222424   4.173   5.882   0.693  1.2329  0.2191  0.1827
 7487TIP3    H122425   4.154   5.963   0.740 -0.1096  0.0949 -0.1030
 7487TIP3    H222426   4.090   5.858   0.651  1.5337 -1.4045  0.4305
 7488TIP3   OH222427   4.200   3.470   0.791 -0.0875  0.4107 -0.9377
 7488TIP3    H122428   4.271   3.465   0.727  0.1365  0.1545 -0.6732
 7488TIP3    H222429   4.150   3.390   0.777  1.2980 -0.8203  0.7445
 7489TIP3   OH222430   1.904   4.093   1.120 -0.7193 -0.0016  0.2231
 7489TIP3    H122431   1.828   4.152   1.114 -1.5804 -1.1271 -0.4706
 7489TIP3    H222432   1.868   4.007   1.098  0.7408 -0.5912  0.0782
 7490TIP3   OH222433   0.118   0.238   4.421 -0.1651 -0.7425  0.1273
 7490TIP3    H122434   0.129   0.207   4.511 -1.0823 -1.4408  0.0078
 7490TIP3    H222435   0.173   0.178   4.369  0.2749 -0.4095  0.2000
 7491TIP3   OH222436   5.463   6.212   0.946 -0.4771  0.2096  0.1681
 7491TIP3    H122437   5.512   6.291   0.969 -2.7128  1.9823 -0.7899
 7491TIP3    H222438   5.387   6.244   0.898 -1.0506 -2.6250 -0.9969
 7492TIP3   OH222439   6.544   5.426   5.855 -0.1591  0.0873  0.1889
 7492TIP3    H122440   6.452   5.402   5.847  0.0253 -0.5978  0.0671
 7492TIP3    H222441   6.552   5.507   5.803 -0.8208  0.5238  0.7476
 7493TIP3   OH222442   4.069   4.632   2.631  0.5626 -0.1107 -0.0638
 7493TIP3    H122443   4.147   4.649   2.578  0.9690 -0.4259  0.4255
 7493TIP3    H222444   4.103   4.609   2.718 -0.0725 -0.2898  0.1453
 7494TIP3   OH222445   1.838   3.050   0.520 -0.0371 -0.1365  0.1642
 7494TIP3    H122446   1.760   3.005   0.553  0.2137 -0.6953  0.0049
 7494TIP3    H222447   1.911   3.003   0.560  0.2171  1.9043  2.3177
 7495TIP3   OH222448   5.092   1.612   0.613 -0.5461  0.4013  0.0716
 7495TIP3    H122449   5.183   1.602   0.587 -0.0749 -0.7224  1.9686
 7495TIP3    H222450   5.058   1.523   0.615 -0.7219  0.4616  2.4971
 7496TIP3   OH222451   6.074   1.660   4.006  0.2709  0.5282  0.7412
 7496TIP3    H122452   6.071   1.669   4.101  1.6823  1.2844  0.7413
 7496TIP3    H222453   6.124   1.735   3.976  0.4821 -0.0924 -0.5369
 7497TIP3   OH222454   3.799   3.801   0.935 -0.0651  0.2575 -0.5661
 7497TIP3    H122455   3.719   3.842   0.903  0.4531  1.1692 -0.7353
 7497TIP3    H222456   3.844   3.771   0.855 -0.7999 -1.3811 -0.4068
 7498TIP3   OH222457   2.297   6.352   3.416  0.0683 -0.4003  0.3065
 7498TIP3    H122458   2.265   6.395   3.336  0.1625 -0.7879  0.0566
 7498TIP3    H222459   2.276   6.260   3.403  1.6267 -0.7244 -0.0336
 7499TIP3   OH222460   1.065   1.445   5.510 -0.2265 -0.8250 -0.1539
 7499TIP3    H122461   0.995   1.490   5.557 -0.2344 -1.9947  1.0083
 7499TIP3    H222462   1.125   1.515   5.483 -0.9956  0.0167  0.2966
 7500TIP3   OH222463   1.769   4.487   0.371  0.5332  0.5471  0.4563
 7500TIP3    H122464   1.763   4.414   0.432  1.3145 -1.7234 -1.9728
 7500TIP3    H222465   1.862   4.509   0.368  0.7863 -0.5658 -1.1172
 7501TIP3   OH222466   3.373   0.552   5.238 -0.5358 -0.3705 -0.2576
 7501TIP3    H122467   3.419   0.565   5.155  1.1240  0.8351  0.7779
 7501TIP3    H222468   3.443   0.538   5.302 -1.5507  1.5851  1.4167
 7502TIP3   OH222469   0.498   6.308   2.145  0.0745 -0.3948 -0.0297
 7502TIP3    H122470   0.544   6.392   2.134 -0.0837 -0.4197 -0.9667
 7502TIP3    H222471   0.557   6.243   2.106 -0.0189 -0.6601  0.2660
 7503TIP3   OH222472   1.812   4.152   0.074 -0.0259  0.1114 -0.2620
 7503TIP3    H122473   1.762   4.080   0.036 -0.9415 -1.2937  3.1732
 7503TIP3    H222474   1.899   4.115   0.091  0.0874  0.4213 -0.1592
 7504TIP3   OH222475   6.141   3.788   5.405  0.6291  0.4153 -0.0687
 7504TIP3    H122476   6.126   3.829   5.491  0.2867  0.5268 -0.1768
 7504TIP3    H222477   6.195   3.851   5.358  2.3888 -0.4519  0.6901
 7505TIP3   OH222478   5.816   4.695   3.263  0.2727 -0.1749  0.2615
 7505TIP3    H122479   5.725   4.679   3.239  0.7364 -0.5147 -1.4223
 7505TIP3    H222480   5.825   4.790   3.263 -0.5867 -0.0433  2.6066
 7506TIP3   OH222481   1.569   3.550   1.261 -0.4677  0.3584  0.7139
 7506TIP3    H122482   1.653   3.508   1.278 -0.1715  0.8307  0.4528
 7506TIP3    H222483   1.585   3.643   1.277 -0.8511  0.4932  0.3415
 7507TIP3   OH222484   3.196   2.767   3.782  0.4332 -0.2358 -0.6167
 7507TIP3    H122485   3.217   2.725   3.699  2.3630  1.1030 -0.8525
 7507TIP3    H222486   3.281   2.786   3.822 -0.4248  0.9147  0.7673
 7508TIP3   OH222487   6.363   2.917   5.387 -0.3588  0.3157 -0.1461
 7508TIP3    H122488   6.291   2.939   5.447 -1.1523  0.6940 -1.2145
 7508TIP3    H222489   6.362   2.822   5.381 -1.8627  0.3865 -1.4406
 7509TIP3   OH222490   2.971   2.309   4.991  0.2730 -0.2526 -0.2165
 7509TIP3    H122491   2.983   2.280   4.900  3.1755  1.4503 -0.4857
 7509TIP3    H222492   2.876   2.312   5.003 -0.2239 -3.6551 -2.0959
 7510TIP3   OH222493   3.801   2.672   2.693  0.3342 -0.1398 -0.3196
 7510TIP3    H122494   3.792   2.674   2.598  2.7926 -0.6730 -0.6458
 7510TIP3    H222495   3.821   2.580   2.713  0.6076  0.1055  0.5931
 7511TIP3   OH222496   4.002   4.785   4.320 -0.2682 -0.5993  0.0737
 7511TIP3    H122497   4.081   4.741   4.352 -0.3623  0.2487  1.6068
 7511TIP3    H222498   3.965   4.826   4.398 -1.8089 -0.3272 -0.7622
 7512TIP3   OH222499   6.187   0.738   2.191  0.0655  0.1963 -0.2874
 7512TIP3    H122500   6.278   0.715   2.209  0.4015  1.1483 -0.7073
 7512TIP3    H222501   6.155   0.668   2.134  0.3340 -0.4753  0.3675
 7513TIP3   OH222502   3.783   6.627   3.255 -0.0191 -0.3389 -0.3325
 7513TIP3    H122503   3.747   6.560   3.197 -0.4013  0.2868 -0.8219
 7513TIP3    H222504   3.792   6.704   3.200 -2.4267  0.9456  0.9179
 7514TIP3   OH222505   1.003   4.704   0.500  0.4595  0.1556 -0.1934
 7514TIP3    H122506   1.032   4.758   0.427  0.4157 -0.9423 -1.0552
 7514TIP3    H222507   0.951   4.635   0.460 -3.0437  1.7406  1.2546
 7515TIP3   OH222508   2.954   5.528   4.238  0.3446 -0.4153  0.0388
 7515TIP3    H122509   2.904   5.499   4.161 -1.8336 -3.5808  2.3494
 7515TIP3    H222510   2.888   5.569   4.295  1.0537 -1.5328  1.7382
 7516TIP3   OH222511   1.189   1.859   2.394 -0.2271  0.1055 -0.0112
 7516TIP3    H122512   1.151   1.935   2.437 -0.6003 -1.0919  1.8904
 7516TIP3    H222513   1.283   1.865   2.413 -0.3011 -0.0591  0.4333
 7517TIP3   OH222514   3.232   2.421   3.068 -0.0718 -0.7370 -0.1607
 7517TIP3    H122515   3.152   2.371   3.085 -0.8676  1.1241  2.2370
 7517TIP3    H222516   3.301   2.372   3.114 -0.3811 -0.8952  0.1434
 7518TIP3   OH222517   1.036   6.281   1.507  0.0532 -0.0205  0.3202
 7518TIP3    H122518   1.096   6.293   1.433  0.2057  1.0566  0.6048
 7518TIP3    H222519   1.077   6.214   1.561  0.7112  0.2847  0.2075
 7519TIP3   OH222520   2.814   2.042   0.767 -0.0222 -0.2404 -0.7741
 7519TIP3    H122521   2.891   1.990   0.789 -1.6182 -1.3666  3.1085
 7519TIP3    H222522   2.741   1.980   0.773 -1.4800  1.2651 -1.9228
 7520TIP3   OH222523   2.561   4.626   1.226  0.1494  0.4731 -0.4934
 7520TIP3    H122524   2.563   4.719   1.203 -0.1315  0.4862 -0.4670
 7520TIP3    H222525   2.485   4.617   1.283 -1.0351 -0.1332 -2.0799
 7521TIP3   OH222526   2.035   0.524   5.286 -0.3767 -0.4200  0.2947
 7521TIP3    H122527   2.052   0.430   5.287 -1.5093 -0.6382  0.4299
 7521TIP3    H222528   2.115   0.563   5.253  1.0411 -1.2205  2.5592
 7522TIP3   OH222529   3.794   5.760   3.864 -0.3216  0.0356 -0.2043
 7522TIP3    H122530   3.859   5.796   3.925 -1.1880 -0.0955  0.8204
 7522TIP3    H222531   3.807   5.665   3.869  0.5436  0.0671 -1.3153
 7523TIP3   OH222532   0.702   6.519   2.106  0.1675 -0.1545 -0.7769
 7523TIP3    H122533   0.741   6.467   2.176 -0.8959  1.4394  1.1331
 7523TIP3    H222534   0.726   6.609   2.126  0.4505  0.3174 -2.9430
 7524TIP3   OH222535   5.187   0.059   1.258  0.8050 -0.0328 -0.5091
 7524TIP3    H122536   5.148  -0.027   1.269 -0.2831  0.4298 -0.5800
 7524TIP3    H222537   5.248   0.068   1.331  1.7871 -1.2979 -1.1435
 7525TIP3   OH222538   4.990   3.659   1.679  0.3301 -0.1402 -0.3595
 7525TIP3    H122539   4.997   3.607   1.599 -0.6499  1.3497 -1.4752
 7525TIP3    H222540   5.042   3.611   1.743  1.9671 -0.8883 -2.1290
 7526TIP3   OH222541   4.344   5.975   4.907  0.3754 -0.5830  0.5098
 7526TIP3    H122542   4.314   5.992   4.996  1.0365  0.1436  0.6102
 7526TIP3    H222543   4.266   5.981   4.853  0.5435  4.0081  0.3637
 7527TIP3   OH222544   5.147   1.039   2.583 -0.3544 -0.5635  0.8656
 7527TIP3    H122545   5.180   0.952   2.561  0.5435 -0.0359  0.0740
 7527TIP3    H222546   5.095   1.065   2.507  1.8745  0.8197 -0.2956
 7528TIP3   OH222547   0.154   2.108   4.746  0.3978 -0.5348 -0.5130
 7528TIP3    H122548   0.082   2.104   4.809  0.8273 -0.0243  0.0236
 7528TIP3    H222549   0.179   2.200   4.744  0.1617 -0.4902 -1.7107
 7529TIP3   OH222550   6.962   1.155   3.815  0.2045 -0.2488 -0.2811
 7529TIP3    H122551   6.914   1.163   3.733 -0.5417 -0.3965  0.1360
 7529TIP3    H222552   7.042   1.107   3.791  0.1743  0.0405 -0.9818
 7530TIP3   OH222553   0.317   1.058   4.384 -0.0537  0.1060 -0.4961
 7530TIP3    H122554   0.330   1.124   4.451 -1.0956  0.8727 -1.0212
 7530TIP3    H222555   0.228   1.025   4.400  0.6666 -1.6674  0.1640
 7531TIP3   OH222556   0.970   2.308   3.203 -0.0524  0.3353  0.1266
 7531TIP3    H122557   0.929   2.362   3.271  0.8301  0.0585  0.8937
 7531TIP3    H222558   0.904   2.304   3.133 -1.4327 -0.2732  1.3942
 7532TIP3   OH222559   0.102   4.431   1.394  0.1372 -0.7017  0.1865
 7532TIP3    H122560   0.151   4.384   1.326 -1.0957 -1.6270 -0.1062
 7532TIP3    H222561   0.077   4.363   1.456  2.0562  0.2619  2.1405
 7533TIP3   OH222562   0.164   3.623   0.252 -0.2682 -0.6920  0.1244
 7533TIP3    H122563   0.177   3.546   0.308  1.4105 -1.8737 -1.7507
 7533TIP3    H222564   0.233   3.684   0.278  0.8225 -1.4398 -0.8758
 7534TIP3   OH222565   4.962   1.374   0.663  0.7464  0.1908 -0.0181
 7534TIP3    H122566   4.934   1.310   0.597  2.3105 -0.9631  0.3975
 7534TIP3    H222567   4.894   1.369   0.730  0.0596  0.0975 -0.6916
 7535TIP3   OH222568   1.937   0.032   1.351 -0.1266 -0.0833 -0.2512
 7535TIP3    H122569   1.866   0.094   1.334 -0.0949  0.1216  0.3544
 7535TIP3    H222570   2.008   0.062   1.295  0.9612  2.2808  2.1742
 7536TIP3   OH222571   4.584   6.153   5.504  0.0922  0.2938 -0.1849
 7536TIP3    H122572   4.642   6.102   5.561  0.5783  1.0873  0.0585
 7536TIP3    H222573   4.621   6.142   5.416  0.8980  1.1446  0.0262
 7537TIP3   OH222574   0.726   1.972   2.492 -0.1359  0.3681  0.0727
 7537TIP3    H122575   0.694   1.927   2.569  1.4309  0.0082  0.5329
 7537TIP3    H222576   0.774   2.047   2.526  1.8714 -0.6253 -0.4448
 7538TIP3   OH222577   6.234   0.755   1.770 -0.8886  0.1862  0.3121
 7538TIP3    H122578   6.175   0.820   1.808 -0.8365 -0.8158  2.2462
 7538TIP3    H222579   6.185   0.673   1.773  0.3645 -0.5739  1.5081
 7539TIP3   OH222580   0.330   4.229   4.093 -0.5493  0.4212 -0.2668
 7539TIP3    H122581   0.237   4.248   4.082  0.0523  3.2929 -1.1358
 7539TIP3    H222582   0.363   4.300   4.147  1.1240 -0.7262  0.3023
 7540TIP3   OH222583   5.011   6.751   3.455  0.4520  0.1398  0.2386
 7540TIP3    H122584   5.024   6.842   3.429 -0.7852  0.5523  0.9861
 7540TIP3    H222585   4.917   6.736   3.444  0.7459 -1.2639 -0.5401
 7541TIP3   OH222586   6.232   6.512   3.485 -0.2978  0.4591  0.1483
 7541TIP3    H122587   6.328   6.518   3.484 -0.2242  0.6701  2.8150
 7541TIP3    H222588   6.206   6.546   3.399  1.9902  0.4530 -0.6399
 7542TIP3   OH222589   0.081   1.969   5.426  0.5389 -0.6428 -0.3676
 7542TIP3    H122590   0.040   1.920   5.355 -0.6262 -0.5624  0.2206
 7542TIP3    H222591   0.027   1.950   5.503  0.5794  0.8615  0.0739
 7543TIP3   OH222592   2.088   4.209   3.886 -0.2098  0.3539  0.0281
 7543TIP3    H122593   2.128   4.141   3.939 -0.4551 -0.2568 -0.5601
 7543TIP3    H222594   2.162   4.261   3.854 -0.0783  0.9203  1.2057
 7544TIP3   OH222595   1.992   4.202   0.540  0.1837 -0.0352  0.4443
 7544TIP3    H122596   1.905   4.184   0.505  0.1868  1.7119 -0.5825
 7544TIP3    H222597   2.052   4.168   0.474  0.2123  1.0780 -0.1395
 7545TIP3   OH222598   0.666   2.198   4.144 -0.3682  0.4675 -0.0009
 7545TIP3    H122599   0.609   2.168   4.215 -1.8893 -1.1512 -1.7899
 7545TIP3    H222600   0.692   2.286   4.169 -0.6391 -0.1411  2.6515
 7546TIP3   OH222601   0.098   1.791   4.999  0.0965 -0.6218  0.4461
 7546TIP3    H122602   0.050   1.785   5.082 -1.3396 -0.5216 -0.3529
 7546TIP3    H222603   0.125   1.882   4.993 -0.8272 -0.3483  0.2663
 7547TIP3   OH222604   4.913   6.224   4.990  0.1422  0.1684 -0.6560
 7547TIP3    H122605   4.902   6.317   5.007 -2.7799 -0.5778  2.6356
 7547TIP3    H222606   5.008   6.211   4.990  0.6233  2.9766 -0.6621
 7548TIP3   OH222607   0.587   0.561   3.754  0.4049 -0.1729  0.0912
 7548TIP3    H122608   0.648   0.567   3.827  0.5759 -0.2228 -0.0464
 7548TIP3    H222609   0.623   0.619   3.687  0.3272 -0.2376 -0.0078
 7549TIP3   OH222610   4.799   6.059   3.404  0.2995 -0.9779  0.4563
 7549TIP3    H122611   4.822   6.041   3.312 -3.0622  0.5170 -0.8245
 7549TIP3    H222612   4.770   5.975   3.438 -0.6428 -1.0994 -0.6045
 7550TIP3   OH222613   0.460   4.175   5.383 -0.1001 -0.1930 -0.2932
 7550TIP3    H122614   0.427   4.147   5.298 -0.4953  0.7399 -0.4573
 7550TIP3    H222615   0.406   4.129   5.447  0.4311 -1.1716 -0.5308
 7551TIP3   OH222616   5.139   0.527   3.217 -0.1077  0.7607  0.1760
 7551TIP3    H122617   5.184   0.549   3.136  1.2906 -0.0534  0.6823
 7551TIP3    H222618   5.207   0.533   3.284 -0.6799 -0.7501  0.9459
 7552TIP3   OH222619   1.512   5.375   0.137  0.0391 -0.0726 -0.2424
 7552TIP3    H122620   1.604   5.348   0.135 -0.1999 -0.8748 -1.1090
 7552TIP3    H222621   1.472   5.318   0.203 -0.3407 -1.5134 -1.6537
 7553TIP3   OH222622   1.598   6.005   1.036 -0.0205 -0.2420  0.3927
 7553TIP3    H122623   1.521   5.955   1.063  0.2168 -0.2059  1.1419
 7553TIP3    H222624   1.581   6.094   1.066 -0.7052  0.3076 -1.4409
 7554TIP3   OH222625   0.061   5.833   0.793  0.1322 -0.0633  0.1083
 7554TIP3    H122626   0.070   5.752   0.843  0.7652  0.7939  1.4355
 7554TIP3    H222627  -0.016   5.875   0.828  0.6684  0.6215  0.4802
 7555TIP3   OH222628   2.543   0.901   4.781 -0.4116  0.7812  0.1437
 7555TIP3    H122629   2.633   0.931   4.777 -0.8866  2.4700  1.0725
 7555TIP3    H222630   2.492   0.972   4.740 -1.2737 -0.4416 -0.9929
 7556TIP3   OH222631   5.348   6.041   0.521  0.1014 -0.2571 -0.5437
 7556TIP3    H122632   5.323   5.948   0.522 -1.1483  0.0446 -1.6054
 7556TIP3    H222633   5.346   6.065   0.429  0.8018  0.7496 -0.3103
 7557TIP3   OH222634   5.013   3.044   2.603  0.1648 -1.1343  0.0809
 7557TIP3    H122635   4.968   3.039   2.518 -2.4299 -0.6122  1.3352
 7557TIP3    H222636   4.996   2.959   2.644  0.6267 -1.0554  0.4424
 7558TIP3   OH222637   0.515   5.066   5.664  0.7272 -0.5002 -0.4872
 7558TIP3    H122638   0.564   5.143   5.637 -1.6420  1.2371 -0.1156
 7558TIP3    H222639   0.453   5.050   5.592  0.8732 -1.7816 -0.3509
 7559TIP3   OH222640   3.679   5.037   2.870  0.0166  0.1144 -0.0684
 7559TIP3    H122641   3.616   5.015   2.938 -0.2916  1.7512  0.2290
 7559TIP3    H222642   3.628   5.038   2.789  0.3527 -1.6856 -0.3420
 7560TIP3   OH222643   0.132   1.799   1.758 -0.5207  0.3008 -0.3288
 7560TIP3    H122644   0.054   1.778   1.706 -0.4523 -0.1580 -0.2514
 7560TIP3    H222645   0.129   1.736   1.830 -1.6077  2.0533  1.2615
 7561TIP3   OH222646   3.443   5.625   5.427 -0.0668 -0.1165 -0.1987
 7561TIP3    H122647   3.504   5.617   5.500  0.0175 -1.2983 -0.3831
 7561TIP3    H222648   3.498   5.629   5.349 -0.1515  1.2612 -0.2169
 7562TIP3   OH222649   2.797   2.451   0.531  0.8301  0.4546  0.1834
 7562TIP3    H122650   2.727   2.462   0.466 -0.6948  0.7557  1.8026
 7562TIP3    H222651   2.792   2.358   0.556  0.5464  0.6322  0.7966
 7563TIP3   OH222652   4.463   1.815   5.168 -0.4130  0.1542  0.0791
 7563TIP3    H122653   4.547   1.769   5.176  0.4767  2.0283  2.6323
 7563TIP3    H222654   4.399   1.753   5.203  0.2802 -0.4005  0.4029
 7564TIP3   OH222655   5.674   2.690   2.324 -0.2950 -0.0438 -0.1114
 7564TIP3    H122656   5.681   2.627   2.396 -2.6270 -0.4766 -0.1775
 7564TIP3    H222657   5.591   2.734   2.339  0.8490  2.4181 -0.6044
 7565TIP3   OH222658   4.994   5.541   1.679 -0.5298  0.3349 -0.1603
 7565TIP3    H122659   4.936   5.533   1.755 -0.8156 -1.1501 -0.4953
 7565TIP3    H222660   4.965   5.620   1.635  0.7415  2.2227  2.1361
 7566TIP3   OH222661   6.401   2.418   1.692  0.1343 -0.2045 -0.1098
 7566TIP3    H122662   6.434   2.495   1.739  0.3537  0.5573 -1.4465
 7566TIP3    H222663   6.480   2.368   1.670 -0.0492 -1.1151  1.2285
 7567TIP3   OH222664   0.338   5.306   0.308 -0.1158 -0.3543 -0.4511
 7567TIP3    H122665   0.331   5.360   0.387  0.2903 -0.4682 -0.3363
 7567TIP3    H222666   0.370   5.222   0.340  1.3624  0.0017 -0.8914
 7568TIP3   OH222667   5.063   3.319   2.175  0.0279  0.5773 -0.4954
 7568TIP3    H122668   5.036   3.268   2.251 -0.4898  0.1647 -0.9507
 7568TIP3    H222669   5.154   3.344   2.194 -0.2005  0.7595  0.3956
 7569TIP3   OH222670   3.369   1.745   4.670  0.6588 -0.0827  0.8920
 7569TIP3    H122671   3.359   1.826   4.720  1.4960 -0.3273  1.4691
 7569TIP3    H222672   3.448   1.758   4.618 -0.2313  0.1929 -0.4616
 7570TIP3   OH222673   4.612   6.148   3.953 -0.3451  0.0899  0.4676
 7570TIP3    H122674   4.576   6.125   3.867 -1.8384 -0.7590  1.2888
 7570TIP3    H222675   4.693   6.194   3.933  0.0396 -1.2819 -1.3677
 7571TIP3   OH222676   3.491   6.741   5.070  0.0039  0.1646 -0.5828
 7571TIP3    H122677   3.415   6.702   5.114 -0.4606 -0.0157 -1.5035
 7571TIP3    H222678   3.520   6.811   5.129  0.2828 -0.9701  0.6574
 7572TIP3   OH222679   4.457   4.494   0.158 -0.2081 -0.0035 -0.4710
 7572TIP3    H122680   4.469   4.541   0.076  1.5680  0.4563  0.0175
 7572TIP3    H222681   4.545   4.464   0.182 -1.1127 -2.9471 -0.3504
 7573TIP3   OH222682   5.780   3.460   0.637  0.0018 -0.5180  0.0993
 7573TIP3    H122683   5.730   3.512   0.575 -1.3450  0.3002  1.8007
 7573TIP3    H222684   5.726   3.381   0.651 -0.2706 -0.1822  1.0374
 7574TIP3   OH222685   3.519   1.990   3.884  0.2787  0.9178  0.0309
 7574TIP3    H122686   3.494   1.905   3.847  2.4602  0.2478 -0.0505
 7574TIP3    H222687   3.530   2.047   3.808  0.3317  0.8263 -0.0304
 7575TIP3   OH222688   6.615   6.057   3.845  0.0783 -0.7385 -0.5245
 7575TIP3    H122689   6.699   6.091   3.817 -0.3703  0.1020 -0.8919
 7575TIP3    H222690   6.610   6.080   3.938 -0.1226  0.0387 -0.7154
 7576TIP3   OH222691   5.678   2.139   4.295 -0.2209 -0.6720  0.3223
 7576TIP3    H122692   5.718   2.073   4.238 -2.2210 -0.1913 -1.7985
 7576TIP3    H222693   5.712   2.222   4.263 -0.7586 -0.4404  0.3359
 7577TIP3   OH222694   0.972   2.677   3.987  0.1082  0.0623  0.4046
 7577TIP3    H122695   0.968   2.591   4.030  0.8756 -0.2677 -0.1739
 7577TIP3    H222696   0.880   2.700   3.973 -0.1261 -0.3379  1.1954
 7578TIP3   OH222697   5.418   4.880   0.819  0.1326 -0.5176  0.1810
 7578TIP3    H122698   5.374   4.829   0.750  3.0304  0.3211 -2.4919
 7578TIP3    H222699   5.356   4.950   0.840 -1.0653 -1.1152 -1.1647
 7579TIP3   OH222700   3.335   2.015   4.696 -0.5031 -0.6950 -0.1579
 7579TIP3    H122701   3.389   2.047   4.769 -1.0497 -1.8888  0.8119
 7579TIP3    H222702   3.249   2.000   4.735 -0.5965 -2.0807 -0.8577
 7580TIP3   OH222703   5.354   5.434   4.618  0.2074  0.0827 -0.0078
 7580TIP3    H122704   5.346   5.522   4.580 -0.3261  0.9053  1.8934
 7580TIP3    H222705   5.425   5.393   4.568 -0.5119  1.0281 -1.9184
 7581TIP3   OH222706   1.682   2.388   3.108 -0.1421 -0.3812 -0.0136
 7581TIP3    H122707   1.673   2.334   3.187  1.9953 -0.2233  0.3948
 7581TIP3    H222708   1.739   2.336   3.050 -0.2812  0.2606 -0.7438
 7582TIP3   OH222709   2.414   1.594   3.376  0.1166  0.0488 -0.3420
 7582TIP3    H122710   2.462   1.659   3.427 -0.8432 -0.2523  0.9879
 7582TIP3    H222711   2.482   1.535   3.343  0.6968 -0.7257  2.0118
 7583TIP3   OH222712   1.433   2.187   1.420  0.1016 -0.2958 -0.8328
 7583TIP3    H122713   1.381   2.132   1.362 -2.0342 -0.2920  0.9721
 7583TIP3    H222714   1.376   2.261   1.442  1.3572  0.4248  0.1793
 7584TIP3   OH222715   4.216   2.568   2.078 -0.4495  0.2819 -0.0802
 7584TIP3    H122716   4.124   2.564   2.102 -0.9005  1.2606 -1.5377
 7584TIP3    H222717   4.238   2.661   2.079  0.4104  0.0895 -0.1296
 7585TIP3   OH222718   0.958   6.385   5.627 -0.0297  0.6170  0.5317
 7585TIP3    H122719   0.893   6.395   5.696  0.7601 -0.1736  1.4394
 7585TIP3    H222720   0.909   6.391   5.546 -1.9145 -3.4327  1.1225
 7586TIP3   OH222721   1.347   2.521   3.096 -0.1457  0.1850 -0.2921
 7586TIP3    H122722   1.420   2.491   3.151  0.5022  0.2074 -1.1214
 7586TIP3    H222723   1.387   2.538   3.011 -1.1985 -0.2032 -0.8811
 7587TIP3   OH222724   0.965   6.656   4.844  0.3017 -0.0747  0.3977
 7587TIP3    H122725   0.876   6.688   4.859  0.7719  1.0998  0.7734
 7587TIP3    H222726   1.020   6.734   4.850  1.0928 -0.3141 -2.4420
 7588TIP3   OH222727   5.247   3.818   4.511  0.4079 -0.2159 -0.0249
 7588TIP3    H122728   5.166   3.867   4.502 -0.4517 -1.0992  2.2901
 7588TIP3    H222729   5.277   3.836   4.599  1.6945 -1.4372 -0.1816
 7589TIP3   OH222730   2.198   3.124   0.290  0.1756 -0.1959 -0.6144
 7589TIP3    H122731   2.157   3.171   0.362 -1.1378 -0.8889 -0.8700
 7589TIP3    H222732   2.153   3.156   0.212  1.8946  0.8920 -1.2301
 7590TIP3   OH222733   0.813   1.585   1.802  0.0133 -0.2333  0.3734
 7590TIP3    H122734   0.867   1.514   1.767  0.5770  1.2305 -1.9461
 7590TIP3    H222735   0.744   1.540   1.851 -1.1062 -2.6197 -3.0073
 7591TIP3   OH222736   4.154   0.046   2.105 -0.7217 -0.2183  0.1755
 7591TIP3    H122737   4.156   0.129   2.153  1.6020 -0.5486  0.7248
 7591TIP3    H222738   4.241   0.038   2.067 -1.1566 -2.0519 -0.5098
 7592TIP3   OH222739   2.067   1.241   5.840 -0.1937 -0.0143 -0.4629
 7592TIP3    H122740   1.991   1.202   5.796 -0.5819 -0.1237  0.2964
 7592TIP3    H222741   2.057   1.335   5.825 -0.4873 -0.0273 -0.3593
 7593TIP3   OH222742   0.234   1.426   0.788 -0.0605  0.1925 -0.4191
 7593TIP3    H122743   0.301   1.465   0.732  0.6541  0.1837  0.4200
 7593TIP3    H222744   0.168   1.393   0.726  0.8101 -0.0109 -1.2675
 7594TIP3   OH222745   3.113   0.040   2.443 -0.1825 -0.1766  0.2676
 7594TIP3    H122746   3.101   0.131   2.472 -0.0856  0.0101 -0.2567
 7594TIP3    H222747   3.144   0.048   2.352 -1.5851 -0.7693 -0.2872
 7595TIP3   OH222748   1.110   3.684   1.799 -0.1615  0.0965  0.7588
 7595TIP3    H122749   1.079   3.622   1.865  1.4545 -0.3797  1.1308
 7595TIP3    H222750   1.174   3.634   1.748 -0.6569  0.7575 -0.5408
 7596TIP3   OH222751   2.612   1.979   2.830 -0.2235 -0.3113  0.5749
 7596TIP3    H122752   2.626   1.885   2.841 -1.1988 -0.6093 -0.4503
 7596TIP3    H222753   2.614   2.015   2.918  1.4333 -1.0910  0.8898
 7597TIP3   OH222754   5.364   3.084   2.631  0.3089 -0.2880 -0.6129
 7597TIP3    H122755   5.297   3.144   2.662 -0.5440 -1.6326  0.2654
 7597TIP3    H222756   5.316   3.016   2.584  1.1725 -0.6241 -1.0353
 7598TIP3   OH222757   2.854   5.923   4.481 -0.3540 -0.4232 -0.4187
 7598TIP3    H122758   2.897   5.937   4.397  1.7546  1.2053  0.8572
 7598TIP3    H222759   2.861   5.828   4.496  1.2948 -0.4198 -1.0387
 7599TIP3   OH222760   5.950   2.907   2.300 -0.1469 -0.3014 -0.0427
 7599TIP3    H122761   5.960   2.820   2.338  0.0528 -0.5709 -0.7064
 7599TIP3    H222762   5.856   2.925   2.307 -0.4415 -1.2241 -1.3129
 7600TIP3   OH222763   4.358   3.900   1.413 -0.0806 -0.0720  0.3831
 7600TIP3    H122764   4.340   3.852   1.494 -0.9934  0.2292  0.3789
 7600TIP3    H222765   4.447   3.875   1.389 -0.4186 -1.5083  0.5457
 7601TIP3   OH222766   3.617   0.671   1.092 -0.7869 -0.3961  0.1542
 7601TIP3    H122767   3.587   0.747   1.142 -1.7820 -0.2164 -0.6713
 7601TIP3    H222768   3.595   0.693   1.001  1.3365 -0.5342 -0.4460
 7602TIP3   OH222769   5.831   6.516   0.959 -0.2708  0.3908  0.2180
 7602TIP3    H122770   5.784   6.590   0.921 -0.9990 -0.0174  0.3110
 7602TIP3    H222771   5.919   6.550   0.977 -1.1175  1.8013  2.0093
 7603TIP3   OH222772   1.517   6.015   1.414  1.0665  0.0566  0.0979
 7603TIP3    H122773   1.468   6.089   1.450  0.8164 -1.0061  2.1018
 7603TIP3    H222774   1.480   6.002   1.327 -1.3771  0.0905  1.0604
 7604TIP3   OH222775   1.668   5.754   5.376  0.6539 -0.3051 -0.2719
 7604TIP3    H122776   1.747   5.807   5.390 -0.1032  0.7362  0.1544
 7604TIP3    H222777   1.610   5.811   5.325 -0.9683  0.0663  1.8498
 7605TIP3   OH222778   3.799   6.025   5.578 -0.2266 -0.3815 -0.1022
 7605TIP3    H122779   3.709   6.044   5.554 -1.2047 -0.9208  2.7425
 7605TIP3    H222780   3.807   6.056   5.669  2.0906 -1.3884  0.1176
 7606TIP3   OH222781   4.770   5.148   4.267  0.6724 -0.7756  0.2768
 7606TIP3    H122782   4.698   5.152   4.329  1.3100 -1.3171  1.0846
 7606TIP3    H222783   4.792   5.239   4.248 -1.4158 -0.5696 -1.4414
 7607TIP3   OH222784   0.753   4.763   5.663 -0.0232  0.2610 -0.2915
 7607TIP3    H122785   0.689   4.832   5.683  2.0385  1.9301  0.9606
 7607TIP3    H222786   0.758   4.711   5.743  0.3678  0.2901 -0.2976
 7608TIP3   OH222787   3.516   6.313   2.274  0.2228 -0.0391 -0.2351
 7608TIP3    H122788   3.480   6.245   2.331 -0.0167 -0.4324 -0.8517
 7608TIP3    H222789   3.610   6.304   2.283  0.2447  1.6754  2.2079
 7609TIP3   OH222790   6.194   5.099   1.117 -0.2416 -1.1157 -0.0507
 7609TIP3    H122791   6.116   5.111   1.063  0.7615  0.5649 -1.2315
 7609TIP3    H222792   6.260   5.064   1.057  0.9558  0.9920 -0.0805
 7610TIP3   OH222793   3.350   2.452   0.929  0.4099  0.4812 -0.5580
 7610TIP3    H122794   3.332   2.510   1.003  0.6875  2.4310 -1.9564
 7610TIP3    H222795   3.287   2.478   0.862  1.7777  0.4712 -1.8906
 7611TIP3   OH222796   7.035   1.966   0.326 -0.3222  0.0291  0.6905
 7611TIP3    H122797   7.069   2.045   0.368 -0.2372  0.0532  0.5759
 7611TIP3    H222798   6.973   1.998   0.261 -0.6949 -0.0211  1.0143
 7612TIP3   OH222799   3.044   4.014   5.095  0.0512 -0.8794  0.2346
 7612TIP3    H122800   3.060   3.922   5.115 -0.0982 -1.3784 -1.7273
 7612TIP3    H222801   3.031   4.055   5.181 -1.3480 -2.9534  1.1173
 7613TIP3   OH222802   6.031   0.717   3.427  0.4515  0.0280 -0.3686
 7613TIP3    H122803   5.996   0.802   3.400  0.8685 -0.6093 -3.3507
 7613TIP3    H222804   6.125   0.731   3.436  0.4889 -0.0296 -0.6364
 7614TIP3   OH222805   1.940   4.577   2.775 -0.1689 -0.0617 -0.2229
 7614TIP3    H122806   2.029   4.547   2.795  0.2722 -0.9826 -3.2101
 7614TIP3    H222807   1.945   4.672   2.783  0.6098 -0.1944  1.2365
 7615TIP3   OH222808   4.232   1.153   0.684 -0.1339  0.3572  0.2512
 7615TIP3    H122809   4.205   1.219   0.747 -1.4354 -0.0819  0.1949
 7615TIP3    H222810   4.274   1.085   0.736 -0.5959  0.3101  0.5722
 7616TIP3   OH222811   1.652   2.141   4.203 -0.4569  0.1241  0.0965
 7616TIP3    H122812   1.709   2.065   4.192  1.0131  0.9272  1.6398
 7616TIP3    H222813   1.706   2.216   4.178 -0.6800  0.9339  1.8731
 7617TIP3   OH222814   6.705   3.923   4.987  0.5783  0.1457  0.1303
 7617TIP3    H122815   6.784   3.890   5.030 -0.3335 -0.8242  1.1311
 7617TIP3    H222816   6.726   4.013   4.964  1.8313  0.0349  0.7383
 7618TIP3   OH222817   6.582   2.168   4.339 -0.0961  0.2176  0.1923
 7618TIP3    H122818   6.575   2.260   4.365 -0.1090  0.4256 -0.5236
 7618TIP3    H222819   6.552   2.119   4.416 -0.7765  0.8346  0.3339
 7619TIP3   OH222820   7.034   1.782   0.511 -0.0486  0.2990 -0.1378
 7619TIP3    H122821   7.058   1.691   0.496  0.3289  0.1696  1.1092
 7619TIP3    H222822   7.042   1.824   0.426  2.2707 -0.2766 -0.2610
 7620TIP3   OH222823   0.924   3.295   4.317 -0.1127  0.6011  0.0403
 7620TIP3    H122824   0.884   3.377   4.346 -1.5954 -0.1899  0.3027
 7620TIP3    H222825   0.995   3.323   4.258 -1.4496  2.0652 -0.9628
 7621TIP3   OH222826   6.975   2.426   0.694  0.6490 -0.5226 -0.3396
 7621TIP3    H122827   7.010   2.514   0.682  0.4257 -0.3081  0.4760
 7621TIP3    H222828   6.953   2.396   0.606 -1.7105  1.2602 -0.4464
 7622TIP3   OH222829   1.661   5.744   0.950  0.5583  0.3901 -0.7984
 7622TIP3    H122830   1.752   5.772   0.957  0.3462  1.1829 -1.0571
 7622TIP3    H222831   1.610   5.817   0.985  0.0247 -0.1284 -0.4661
 7623TIP3   OH222832   2.624   6.501   1.839 -0.1174  0.2163 -0.6095
 7623TIP3    H122833   2.538   6.528   1.870 -1.1171  0.7346 -3.5123
 7623TIP3    H222834   2.620   6.405   1.838  0.2628  0.1272  1.4484
 7624TIP3   OH222835   6.301   0.280   5.771  0.2700 -0.2047 -0.0233
 7624TIP3    H122836   6.281   0.223   5.697  0.9083 -1.0593  0.4413
 7624TIP3    H222837   6.392   0.307   5.757  0.1456  0.2612  0.0442
 7625TIP3   OH222838   5.114   0.780   2.381  0.6161 -0.0884 -0.2241
 7625TIP3    H122839   5.058   0.812   2.310  0.0992 -0.2907  0.0811
 7625TIP3    H222840   5.138   0.691   2.355  1.1940  0.1712 -0.5820
 7626TIP3   OH222841   1.951   6.157   1.881 -0.0377  0.9060 -0.6141
 7626TIP3    H122842   1.934   6.129   1.791 -1.6987 -0.8629  0.1671
 7626TIP3    H222843   2.046   6.150   1.892 -0.0978 -2.1803 -1.2669
 7627TIP3   OH222844   0.742   5.988   3.307  0.1317 -0.3771 -0.4772
 7627TIP3    H122845   0.663   5.943   3.276  0.6774 -0.9675 -1.0391
 7627TIP3    H222846   0.784   6.021   3.227  0.7804 -0.6169 -0.2413
 7628TIP3   OH222847   2.870   5.521   1.329 -0.1676  0.4304  0.6590
 7628TIP3    H122848   2.909   5.481   1.251 -1.0109  0.1343  0.3804
 7628TIP3    H222849   2.787   5.475   1.341 -1.2913  2.2498  0.1895
 7629TIP3   OH222850   0.328   6.199   4.910 -0.4319  0.0176  0.4645
 7629TIP3    H122851   0.323   6.294   4.917 -1.5834 -0.0101  0.2890
 7629TIP3    H222852   0.401   6.174   4.967 -1.1423  0.8763  1.8175
 7630TIP3   OH222853   3.348   6.601   1.089  0.3418 -0.5462  0.2473
 7630TIP3    H122854   3.264   6.609   1.134 -1.0904 -2.5844 -1.8450
 7630TIP3    H222855   3.369   6.690   1.060 -2.9436 -0.4005 -2.2090
 7631TIP3   OH222856   6.849   2.752   4.148 -0.0237 -0.5665 -0.0228
 7631TIP3    H122857   6.839   2.701   4.229 -1.5584 -2.2651 -1.2138
 7631TIP3    H222858   6.760   2.762   4.115  0.5259  0.5621 -1.2686
 7632TIP3   OH222859   2.254   5.301   0.840  0.5320  0.3582 -0.0359
 7632TIP3    H122860   2.231   5.324   0.930  0.8422  2.4661 -0.4431
 7632TIP3    H222861   2.190   5.234   0.816 -0.3028  0.6086  1.3605
 7633TIP3   OH222862   3.246   1.063   4.709  0.3882  0.0290  0.0570
 7633TIP3    H122863   3.165   1.038   4.754  1.3801  2.2170  3.3899
 7633TIP3    H222864   3.240   1.158   4.701  2.2876  0.1386 -0.3952
 7634TIP3   OH222865   2.278   3.244   5.478 -0.6067 -0.0830 -0.8122
 7634TIP3    H122866   2.350   3.181   5.470 -1.2477 -0.8313 -0.7665
 7634TIP3    H222867   2.311   3.311   5.538 -0.9767 -1.9503  1.6041
 7635TIP3   OH222868   1.947   0.799   3.656  0.0111  0.3553 -0.4185
 7635TIP3    H122869   1.901   0.800   3.572  0.3434  0.1238 -0.6028
 7635TIP3    H222870   1.985   0.712   3.662  0.4752  0.5612 -0.2960
 7636TIP3   OH222871   3.328   3.000   5.862  0.0314 -0.1951 -0.4139
 7636TIP3    H122872   3.278   3.040   5.933 -0.5125 -0.9202 -0.3752
 7636TIP3    H222873   3.380   3.072   5.826 -0.9379  0.5532 -0.3666
 7637TIP3   OH222874   6.479   1.194   1.020  0.0470  0.4928  0.1918
 7637TIP3    H122875   6.397   1.194   0.970 -0.0045  1.9080  0.2285
 7637TIP3    H222876   6.451   1.209   1.111  0.3587  1.2516  0.1644
 7638TIP3   OH222877   0.978   3.892   4.295 -0.3332  0.6966  0.1309
 7638TIP3    H122878   0.889   3.918   4.321 -0.0315  0.5401  1.3865
 7638TIP3    H222879   1.018   3.861   4.377 -0.1110 -2.0900 -0.9240
 7639TIP3   OH222880   4.029   3.038   2.381  0.3506  0.2115  0.0252
 7639TIP3    H122881   4.011   2.946   2.364 -0.4565  0.5814 -1.2559
 7639TIP3    H222882   3.943   3.081   2.378  0.7625  1.0738  0.1426
 7640TIP3   OH222883   6.170   0.162   0.175  0.5191 -0.2607  0.1928
 7640TIP3    H122884   6.134   0.099   0.113  0.9683 -0.1349 -0.1996
 7640TIP3    H222885   6.102   0.171   0.242 -0.1056 -0.1627 -0.4416
 7641TIP3   OH222886   0.679   1.405   1.942  0.2067  0.1732 -0.2257
 7641TIP3    H122887   0.702   1.312   1.940  1.8164  0.5444 -0.7837
 7641TIP3    H222888   0.681   1.428   2.035  0.2252 -0.2518 -0.1191
 7642TIP3   OH222889   2.368   5.822   5.098  0.0528  0.8053 -0.0665
 7642TIP3    H122890   2.461   5.842   5.084  0.2283 -0.6897 -1.2500
 7642TIP3    H222891   2.331   5.903   5.133  2.3118  0.7213  2.9406
 7643TIP3   OH222892   3.756   1.749   3.568 -0.0917  0.1769  0.1325
 7643TIP3    H122893   3.794   1.797   3.494  0.9840 -0.2029  0.4181
 7643TIP3    H222894   3.716   1.672   3.528  0.2036  0.1355 -0.0929
 7644TIP3   OH222895   5.796   4.223   2.729 -0.4689  0.1300  0.4593
 7644TIP3    H122896   5.707   4.189   2.729 -0.8609  1.1268  0.2839
 7644TIP3    H222897   5.787   4.313   2.758  0.5666  0.0502  1.0828
 7645TIP3   OH222898   6.575   5.470   5.050 -0.1788 -0.0467 -0.7662
 7645TIP3    H122899   6.540   5.553   5.083  1.2643 -0.1533  1.1434
 7645TIP3    H222900   6.664   5.492   5.021  0.2979 -0.9490 -0.0248
 7646TIP3   OH222901   4.612   6.618   4.982 -0.0012 -0.3177  0.0372
 7646TIP3    H122902   4.555   6.603   4.906  0.6548 -0.6301 -0.4073
 7646TIP3    H222903   4.578   6.697   5.022  0.3464  0.5386 -1.2793
 7647TIP3   OH222904   5.789   4.314   3.249 -0.8937 -0.2664  0.1956
 7647TIP3    H122905   5.810   4.361   3.330 -0.9598 -1.1963  0.7625
 7647TIP3    H222906   5.778   4.383   3.184  1.3745  0.4125  0.4537
 7648TIP3   OH222907   5.137   1.382   1.204  0.6049 -0.0865  0.7174
 7648TIP3    H122908   5.225   1.381   1.242 -0.0386 -0.5404  2.2716
 7648TIP3    H222909   5.086   1.323   1.259 -0.6672  0.1187 -0.1906
 7649TIP3   OH222910   5.137   1.784   5.761  0.4841  0.5172  0.1892
 7649TIP3    H122911   5.122   1.783   5.855 -0.7596  1.3873  0.0201
 7649TIP3    H222912   5.105   1.869   5.732  1.5344  0.5719 -0.9251
 7650TIP3   OH222913   5.652   1.905   2.906  0.0734  0.0186 -0.3259
 7650TIP3    H122914   5.677   1.924   2.997  0.0951 -3.4826  0.5410
 7650TIP3    H222915   5.732   1.871   2.866 -0.4592 -0.4509 -1.0206
 7651TIP3   OH222916   3.213   2.196   4.511 -0.1871  0.6021  0.0343
 7651TIP3    H122917   3.251   2.119   4.553 -1.1544 -0.1397 -0.4166
 7651TIP3    H222918   3.288   2.247   4.481  0.4671 -1.0075 -1.1632
 7652TIP3   OH222919   2.160   4.027   1.023 -0.6811 -0.2820  0.5161
 7652TIP3    H122920   2.086   4.072   1.063  0.3331  1.2823  0.7423
 7652TIP3    H222921   2.164   4.063   0.934 -0.2044 -0.3485  0.5076
 7653TIP3   OH222922   1.819   3.414   0.133  0.4696  0.4482 -0.3393
 7653TIP3    H122923   1.859   3.335   0.098  1.1143  0.7504 -0.2892
 7653TIP3    H222924   1.728   3.410   0.103  0.1178 -0.9958  0.8017
 7654TIP3   OH222925   4.245   4.606   4.826 -0.6460  0.1820 -0.0348
 7654TIP3    H122926   4.257   4.697   4.801 -2.3068  0.4168 -0.0681
 7654TIP3    H222927   4.175   4.608   4.891 -0.5468 -1.0576  0.1373
 7655TIP3   OH222928   3.627   6.403   2.662  0.1954  0.7973  0.2836
 7655TIP3    H122929   3.699   6.447   2.617 -0.0150  0.7952 -0.0549
 7655TIP3    H222930   3.646   6.310   2.651 -0.7733  0.7467 -1.3374
 7656TIP3   OH222931   2.592   1.551   5.698 -0.7009 -0.1018 -0.0415
 7656TIP3    H122932   2.685   1.557   5.720 -0.1311  1.2768 -2.4501
 7656TIP3    H222933   2.591   1.540   5.603 -3.0107 -1.1434  0.0529
 7657TIP3   OH222934   6.860   3.095   1.270 -0.5164  0.5057 -0.8064
 7657TIP3    H122935   6.885   3.134   1.354 -0.6336 -1.9780  0.4936
 7657TIP3    H222936   6.927   3.125   1.209  0.3795  1.2829  0.4996
 7658TIP3   OH222937   2.637   1.424   0.795  0.4495  0.0277  0.4495
 7658TIP3    H122938   2.673   1.434   0.883  0.3207  0.2391  0.4788
 7658TIP3    H222939   2.649   1.331   0.775  0.1686 -0.0933  0.8241
 7659TIP3   OH222940   4.449   3.464   1.013 -0.0985 -0.1072 -0.5251
 7659TIP3    H122941   4.462   3.370   1.031 -0.1660  0.0519  0.4167
 7659TIP3    H222942   4.400   3.466   0.931 -0.9852 -0.9375 -0.0365
 7660TIP3   OH222943   4.260   4.344   2.813 -0.3648 -0.6529 -0.3452
 7660TIP3    H122944   4.349   4.318   2.789 -0.1988 -0.6597  0.2499
 7660TIP3    H222945   4.268   4.436   2.839 -0.6714 -0.4401 -1.0015
 7661TIP3   OH222946   2.824   6.391   0.813 -0.2521  0.1534  0.0836
 7661TIP3    H122947   2.752   6.330   0.830 -0.4121  0.5148  0.7418
 7661TIP3    H222948   2.879   6.385   0.891 -0.7592  1.5186  0.5689
 7662TIP3   OH222949   1.687   6.086   2.451  0.0050 -0.4857  0.1471
 7662TIP3    H122950   1.610   6.102   2.505  0.6092 -1.9004  1.5219
 7662TIP3    H222951   1.677   5.995   2.423  0.7758 -0.4291 -0.3197
 7663TIP3   OH222952   2.843   6.249   4.607  0.0034 -0.0855 -0.8567
 7663TIP3    H122953   2.895   6.241   4.526  1.9246 -2.3325  0.4597
 7663TIP3    H222954   2.903   6.290   4.669 -0.5284 -0.7738  0.1250
 7664TIP3   OH222955   2.604   3.979   2.178 -0.0783  0.8423 -0.1803
 7664TIP3    H122956   2.693   3.945   2.190  0.3937  2.2047  0.4095
 7664TIP3    H222957   2.547   3.904   2.194  0.9815 -0.4522 -2.0532
 7665TIP3   OH222958   2.673   2.582   1.099  0.5830  0.1992  0.3803
 7665TIP3    H122959   2.587   2.625   1.096  0.3321 -0.3341 -0.0043
 7665TIP3    H222960   2.704   2.598   1.189  0.2319  0.6684  0.4242
 7666TIP3   OH222961   3.003   2.875   4.784  0.4291 -0.0853  0.0754
 7666TIP3    H122962   3.020   2.783   4.805  0.0546 -0.4973 -1.3447
 7666TIP3    H222963   3.087   2.910   4.755  0.1858 -0.5125 -1.2067
 7667TIP3   OH222964   3.750   1.845   3.853  0.2105 -0.4484  0.1428
 7667TIP3    H122965   3.719   1.802   3.774 -0.4164  0.3921 -0.0785
 7667TIP3    H222966   3.678   1.901   3.880  1.1356  0.7488  0.2166
 7668TIP3   OH222967   4.219   0.567   1.712 -0.0594  0.5861  0.2000
 7668TIP3    H122968   4.144   0.626   1.701  0.9485  2.2337  1.5812
 7668TIP3    H222969   4.182   0.489   1.753 -1.5940 -0.2489 -2.5186
 7669TIP3   OH222970   0.815   0.666   1.714  0.7112  0.6272 -0.1217
 7669TIP3    H122971   0.811   0.602   1.642 -1.4896  1.9118 -1.2725
 7669TIP3    H222972   0.900   0.708   1.704  1.1876 -0.4555 -0.8518
 7670TIP3   OH222973   0.177   4.679   1.259 -0.2399 -0.2765 -0.1348
 7670TIP3    H122974   0.245   4.737   1.291 -0.4604  0.6356 -1.2294
 7670TIP3    H222975   0.210   4.591   1.275  0.6171  0.1526  0.5010
 7671TIP3   OH222976   0.861   2.740   2.040 -0.2826 -0.1475 -0.1785
 7671TIP3    H122977   0.951   2.734   2.006 -0.3411  0.9859 -0.5553
 7671TIP3    H222978   0.858   2.675   2.110  0.6494 -0.6309 -0.5709
 7672TIP3   OH222979   1.306   2.002   1.249 -0.0171  0.1063 -0.0255
 7672TIP3    H122980   1.369   1.931   1.256 -0.0702 -0.0836 -1.2770
 7672TIP3    H222981   1.223   1.963   1.277  0.1599 -0.0173  0.3316
 7673TIP3   OH222982   3.777   6.592   4.483  0.4218  0.2451  0.6092
 7673TIP3    H122983   3.737   6.532   4.546 -1.6956  1.6718  0.6985
 7673TIP3    H222984   3.872   6.580   4.497  0.0656 -1.8403  1.7460
 7674TIP3   OH222985   4.771   4.954   5.015 -0.0111 -0.1690  0.3999
 7674TIP3    H122986   4.842   5.012   4.987  0.3211 -0.3119  0.9293
 7674TIP3    H222987   4.716   5.010   5.071  1.2062 -0.7640  2.2732
 7675TIP3   OH222988   6.019   3.353   4.252 -0.2438  0.1188  0.1198
 7675TIP3    H122989   5.968   3.281   4.289 -1.0732  0.0083 -1.1731
 7675TIP3    H222990   5.994   3.355   4.160  1.5600  0.5498 -0.3967
 7676TIP3   OH222991   0.245   3.203   5.258 -0.0361 -0.0917 -0.5052
 7676TIP3    H122992   0.268   3.238   5.344 -2.0788 -0.1240  0.0994
 7676TIP3    H222993   0.307   3.244   5.198  0.9729  0.4774  0.8874
 7677TIP3   OH222994   3.708   1.417   2.683  0.3650  0.6146 -0.1883
 7677TIP3    H122995   3.618   1.387   2.694 -0.1238  1.7018 -0.9681
 7677TIP3    H222996   3.762   1.346   2.718 -0.7987  0.0992  0.6223
 7678TIP3   OH222997   5.580   6.425   1.038 -0.1033 -0.4272 -0.2279
 7678TIP3    H122998   5.501   6.477   1.028  0.8625  1.7216  2.3139
 7678TIP3    H222999   5.650   6.479   1.001  0.6610 -0.6644  0.8132
 7679TIP3   OH223000   2.111   1.584   2.180 -0.0772  0.2814 -0.0345
 7679TIP3    H123001   2.176   1.515   2.169  0.3042  0.4922  0.8397
 7679TIP3    H223002   2.125   1.643   2.105 -1.4264 -1.3597 -1.6811
 7680TIP3   OH223003   7.036   4.878   2.249 -0.2712 -0.1143 -0.2790
 7680TIP3    H123004   6.991   4.962   2.254  0.5594  0.4323 -1.6226
 7680TIP3    H223005   6.980   4.824   2.193 -1.6104 -1.0465  1.8022
 7681TIP3   OH223006   1.807   0.083   4.175 -0.6304  0.3024  0.2754
 7681TIP3    H123007   1.815   0.004   4.122  0.2310 -0.3263  1.3096
 7681TIP3    H223008   1.853   0.150   4.125 -0.3144 -0.1485 -0.0425
 7682TIP3   OH223009   7.076   3.648   3.712 -0.3895  0.0867 -0.1788
 7682TIP3    H123010   7.137   3.677   3.645 -1.6774  0.7443 -1.1259
 7682TIP3    H223011   6.995   3.630   3.664 -0.9368 -0.8084  1.0166
 7683TIP3   OH223012   4.216   4.490   5.856  0.3153  0.4339 -0.1411
 7683TIP3    H123013   4.292   4.505   5.801 -0.0589  1.5491 -0.3688
 7683TIP3    H223014   4.241   4.523   5.942 -0.2485  1.7309 -0.4602
 7684TIP3   OH223015   4.418   4.645   3.425 -0.9981  0.7463 -0.3166
 7684TIP3    H123016   4.479   4.696   3.372  0.3605  0.1059  0.5763
 7684TIP3    H223017   4.332   4.665   3.388 -0.2803  1.8082 -1.5032
 7685TIP3   OH223018   6.284   4.428   5.890 -0.1912 -0.5572 -0.4054
 7685TIP3    H123019   6.268   4.492   5.821  1.1495 -0.5860 -0.7661
 7685TIP3    H223020   6.379   4.414   5.889 -0.1708 -0.7937  1.2294
 7686TIP3   OH223021   0.870   4.740   2.794 -0.2516  0.0350 -0.3658
 7686TIP3    H123022   0.917   4.818   2.767 -0.7863  0.8712  1.0309
 7686TIP3    H223023   0.777   4.764   2.788 -0.4632 -0.8251 -0.8446
 7687TIP3   OH223024   5.162   5.202   4.297 -0.0070 -0.1497 -0.2948
 7687TIP3    H123025   5.177   5.108   4.292  0.1922 -0.0701 -1.2550
 7687TIP3    H223026   5.238   5.241   4.254  0.1377  0.4761  0.4985
 7688TIP3   OH223027   1.056   0.838   1.307  0.1719 -0.0097  0.4800
 7688TIP3    H123028   1.086   0.819   1.218 -0.8814 -1.3652  0.3745
 7688TIP3    H223029   0.995   0.767   1.327  0.4136  0.2502  2.3067
 7689TIP3   OH223030   0.293   1.139   5.154 -0.2664  0.5921  0.6660
 7689TIP3    H123031   0.385   1.114   5.158 -0.5554 -0.5987  0.3620
 7689TIP3    H223032   0.246   1.056   5.141 -1.3334  1.2371  0.2386
 7690TIP3   OH223033   1.108   2.781   0.036 -0.0522  0.2749  0.2017
 7690TIP3    H123034   1.017   2.810   0.030  0.3114  1.4416  0.1446
 7690TIP3    H223035   1.120   2.725  -0.040  0.4510  3.4780 -2.2869
 7691TIP3   OH223036   5.801   3.007   5.258  0.7729 -0.1954  0.2099
 7691TIP3    H123037   5.879   2.953   5.261  0.9784  0.1328  1.1942
 7691TIP3    H223038   5.793   3.044   5.347 -0.0467  0.3991 -0.0899
 7692TIP3   OH223039   0.408   3.174   4.521 -0.3539 -0.1711  0.2520
 7692TIP3    H123040   0.469   3.123   4.574  0.5407  1.9364  1.3573
 7692TIP3    H223041   0.460   3.203   4.446 -0.7118 -0.4397 -0.1024
 7693TIP3   OH223042   0.110   0.652   4.476  0.0382 -0.2724 -0.1348
 7693TIP3    H123043   0.115   0.738   4.435  2.5060 -1.3388 -2.3877
 7693TIP3    H223044   0.175   0.654   4.546  1.1414 -0.6446 -1.0997
 7694TIP3   OH223045   7.093   5.033   3.380  0.1380 -0.6783 -0.5809
 7694TIP3    H123046   7.014   4.987   3.410 -0.6023  1.7718  1.6507
 7694TIP3    H223047   7.062   5.091   3.311  0.6424 -1.8540 -1.8386
 7695TIP3   OH223048   4.891   4.983   1.017  0.2959 -0.0150 -0.1416
 7695TIP3    H123049   4.976   5.025   1.028 -0.8120  2.4496 -0.2811
 7695TIP3    H223050   4.890   4.912   1.081  1.7402  1.1059  1.1941
 7696TIP3   OH223051   6.408   4.965   4.976  0.6939 -1.0225  0.0871
 7696TIP3    H123052   6.434   4.904   4.907  0.7117  0.8993 -1.7001
 7696TIP3    H223053   6.489   5.009   5.001  0.3894 -0.3737 -0.0419
 7697TIP3   OH223054   0.829   4.254   2.094 -0.3427 -0.1504 -0.0997
 7697TIP3    H123055   0.794   4.201   2.023 -0.8922  0.3396 -0.1996
 7697TIP3    H223056   0.896   4.199   2.135 -1.4995 -1.2594  0.3617
 7698TIP3   OH223057   2.206   3.063   2.774 -0.3207  0.3165  0.8480
 7698TIP3    H123058   2.301   3.049   2.770 -0.2443  1.0472 -0.3697
 7698TIP3    H223059   2.173   2.991   2.828  1.0752  0.8312  2.4633
 7699TIP3   OH223060   0.884   0.786   4.553  0.0676 -0.2919 -0.4509
 7699TIP3    H123061   0.881   0.720   4.623 -0.9039  0.8115  0.5974
 7699TIP3    H223062   0.972   0.823   4.559 -0.3178  0.4935  0.9089
 7700TIP3   OH223063   4.523   5.934   4.627 -0.1206  0.7037 -0.1986
 7700TIP3    H123064   4.437   5.912   4.665  0.2898  1.9188  1.5596
 7700TIP3    H223065   4.569   5.850   4.622  0.5366  0.5806  4.0874
 7701TIP3   OH223066   6.350   5.584   3.354  0.1744  0.1721 -0.1898
 7701TIP3    H123067   6.328   5.676   3.340 -1.7745 -0.1073  0.6751
 7701TIP3    H223068   6.406   5.585   3.432 -1.4801  0.5334  1.0688
 7702TIP3   OH223069   3.568   1.517   2.013 -0.1334 -0.3331  0.4146
 7702TIP3    H123070   3.556   1.605   1.977  1.4195 -0.1089  0.3814
 7702TIP3    H223071   3.663   1.502   2.010 -0.1485 -1.1901  2.3215
 7703TIP3   OH223072   3.381   3.767   2.414 -0.1158  0.0221 -0.4823
 7703TIP3    H123073   3.472   3.776   2.385  0.1403  0.3646  0.3913
 7703TIP3    H223074   3.348   3.857   2.417 -0.0252  0.0349  0.5978
 7704TIP3   OH223075   1.435   2.617   3.790  0.0729  0.1719  0.4586
 7704TIP3    H123076   1.482   2.673   3.851  1.1486  0.7957 -0.8969
 7704TIP3    H223077   1.438   2.530   3.830  1.8925  0.3048  0.6870
 7705TIP3   OH223078   0.028   2.708   0.371  0.3470 -0.3171  0.4919
 7705TIP3    H123079  -0.030   2.651   0.320  0.5594 -1.1170  1.1182
 7705TIP3    H223080   0.078   2.755   0.305  0.5053 -1.2135 -0.0526
 7706TIP3   OH223081   4.325   4.431   0.409  0.1097  0.1181 -0.6695
 7706TIP3    H123082   4.304   4.376   0.484 -2.1450  0.2575 -1.1270
 7706TIP3    H223083   4.361   4.511   0.447  1.7904 -0.9397  0.0740
 7707TIP3   OH223084   4.890   4.169   2.070 -0.0450  1.0919  0.0344
 7707TIP3    H123085   4.841   4.142   2.148 -0.5591 -0.0507 -0.6588
 7707TIP3    H223086   4.935   4.089   2.042  0.1276  1.4867 -0.8432
 7708TIP3   OH223087   4.007   2.974   2.643  0.1990  0.3695 -0.0402
 7708TIP3    H123088   4.017   2.996   2.551 -0.4120  1.9896  0.2432
 7708TIP3    H223089   3.914   2.953   2.653  0.7984 -2.9457 -0.3630
 7709TIP3   OH223090   6.869   4.060   2.233 -0.1162  0.3839 -0.0799
 7709TIP3    H123091   6.835   4.082   2.320 -0.8386 -0.1185 -0.2259
 7709TIP3    H223092   6.836   3.972   2.216 -2.6920  1.6349 -2.2132
 7710TIP3   OH223093   1.191   0.223   0.620 -0.3428  0.1839 -0.7162
 7710TIP3    H123094   1.216   0.167   0.694  0.1528  1.7406  0.3566
 7710TIP3    H223095   1.099   0.243   0.635 -0.0187  1.2379  0.0463
 7711TIP3   OH223096   5.002   1.681   1.528 -0.2046 -0.1461  0.2249
 7711TIP3    H123097   4.924   1.736   1.542 -1.4450 -2.0505  1.1512
 7711TIP3    H223098   5.017   1.685   1.434 -1.5586  0.0947 -0.0141
 7712TIP3   OH223099   4.071   2.661   1.142 -0.4021 -0.7172 -0.0004
 7712TIP3    H123100   4.051   2.747   1.106  0.3053 -0.6608 -0.2687
 7712TIP3    H223101   3.985   2.622   1.159 -0.8250 -1.0099 -2.3595
 7713TIP3   OH223102   4.716   2.302   1.816 -0.5300  0.2642  0.4834
 7713TIP3    H123103   4.792   2.258   1.777 -1.5420 -1.0365 -0.0964
 7713TIP3    H223104   4.681   2.239   1.878 -1.6045  0.5203  0.1603
 7714TIP3   OH223105   6.876   1.969   0.814 -0.1054  0.2560 -0.5992
 7714TIP3    H123106   6.862   2.009   0.728  1.3689 -1.5191 -1.7367
 7714TIP3    H223107   6.901   2.042   0.870 -3.7367  1.9304 -0.8997
 7715TIP3   OH223108   3.539   5.969   0.158  0.2587  0.6720 -0.5463
 7715TIP3    H123109   3.480   5.950   0.085 -1.4550 -0.7075  1.0853
 7715TIP3    H223110   3.481   5.988   0.231  1.9053  1.3251  0.6483
 7716TIP3   OH223111   3.183   2.846   2.126  0.0490  0.1136  0.3730
 7716TIP3    H123112   3.248   2.820   2.191 -1.3440 -0.5230  1.5738
 7716TIP3    H223113   3.127   2.909   2.172 -0.7331 -0.0489 -0.3282
 7717TIP3   OH223114   2.181   0.176   5.083  0.1789 -0.1614 -0.6604
 7717TIP3    H123115   2.210   0.258   5.042  2.2454  0.2856  1.4390
 7717TIP3    H223116   2.090   0.192   5.107 -0.1743  0.6191 -2.3673
 7718TIP3   OH223117   1.574   1.686   2.148  0.4637  0.0912 -0.8077
 7718TIP3    H123118   1.661   1.654   2.168  0.2726 -0.0339 -0.1107
 7718TIP3    H223119   1.586   1.779   2.130  0.9330 -0.2261 -2.2157
 7719TIP3   OH223120   6.349   5.095   2.016 -0.1819  0.3925  0.0403
 7719TIP3    H123121   6.257   5.112   1.997 -0.6047  0.7667  2.1403
 7719TIP3    H223122   6.368   5.012   1.972 -0.8917  1.3191 -2.1676
 7720TIP3   OH223123   1.615   0.072   5.008  0.0247 -0.1927 -0.0688
 7720TIP3    H123124   1.580   0.057   4.919  1.4580  1.6735 -1.0310
 7720TIP3    H223125   1.679   0.002   5.021 -0.3880 -0.6406 -0.3968
 7721TIP3   OH223126   7.135   1.057   3.023  0.3882 -0.6240  0.4737
 7721TIP3    H123127   7.091   1.003   3.089 -1.8119  0.0953 -0.3172
 7721TIP3    H223128   7.218   1.082   3.064  0.0833 -2.0319  2.0619
 7722TIP3   OH223129   3.666   2.775   1.239 -0.8468  0.1898  0.1005
 7722TIP3    H123130   3.727   2.847   1.259 -1.2680 -0.1799  3.2599
 7722TIP3    H223131   3.588   2.819   1.204 -0.0322  0.9712 -0.7900
 7723TIP3   OH223132   2.845   0.476   2.346 -0.5127  0.1632  0.3244
 7723TIP3    H123133   2.844   0.480   2.251  0.7443 -0.1287  0.2819
 7723TIP3    H223134   2.845   0.383   2.367  0.4166  0.2069  0.5683
 7724TIP3   OH223135   4.591   2.565   5.671  0.2138  0.2248  0.6050
 7724TIP3    H123136   4.645   2.644   5.668  1.0245 -0.2259  2.3728
 7724TIP3    H223137   4.651   2.493   5.653 -0.5968 -0.0260 -1.4207
 7725TIP3   OH223138   5.398   3.538   2.047 -0.5689 -0.1045 -0.1959
 7725TIP3    H123139   5.348   3.616   2.072 -0.7366 -0.8667  2.1027
 7725TIP3    H223140   5.426   3.501   2.130  0.1406 -2.0897 -1.2739
 7726TIP3   OH223141   4.440   1.169   4.551 -0.4075 -0.6400 -0.2870
 7726TIP3    H123142   4.483   1.168   4.466 -1.6561  0.2039 -0.9495
 7726TIP3    H223143   4.429   1.076   4.573  1.3948 -0.8835 -0.2479
 7727TIP3   OH223144   2.037   5.497   3.546  0.4424  0.1696 -0.3003
 7727TIP3    H123145   1.992   5.482   3.630  0.8642  1.4327  0.1779
 7727TIP3    H223146   2.083   5.416   3.529  1.4427  0.3295  1.3913
 7728TIP3   OH223147   4.943   2.704   5.048  0.4089  0.6044  0.4337
 7728TIP3    H123148   4.959   2.797   5.065  0.8695  0.4781  0.7076
 7728TIP3    H223149   4.960   2.661   5.132  0.1928  0.2717  0.3103
 7729TIP3   OH223150   3.084   5.813   2.255 -0.3575  1.2010  0.0123
 7729TIP3    H123151   3.035   5.835   2.334 -1.7771  0.7310 -0.7066
 7729TIP3    H223152   3.106   5.898   2.216 -0.8835  1.4234  0.1888
 7730TIP3   OH223153   3.620   4.711   2.335  0.0861 -0.4698 -0.0859
 7730TIP3    H123154   3.526   4.702   2.346  0.2196  0.0520  1.6885
 7730TIP3    H223155   3.635   4.804   2.321  0.4067 -0.4222  0.5288
 7731TIP3   OH223156   2.352   3.522   1.301  0.5764  0.7340  0.1073
 7731TIP3    H123157   2.368   3.616   1.303  3.3141  0.3587  2.2326
 7731TIP3    H223158   2.436   3.483   1.325 -0.1913 -2.3315 -1.5889
 7732TIP3   OH223159   4.106   2.010   1.618 -0.1504  0.3792  0.0380
 7732TIP3    H123160   4.151   1.946   1.563  0.0079  1.7276 -1.4443
 7732TIP3    H223161   4.175   2.047   1.674 -0.2114 -0.5724  0.7712
 7733TIP3   OH223162   5.761   1.784   3.666 -0.2620 -0.0309  0.0532
 7733TIP3    H123163   5.787   1.752   3.753  0.0030 -0.4899 -0.1880
 7733TIP3    H223164   5.777   1.878   3.669 -1.4690  0.1660  0.9281
 7734TIP3   OH223165   6.540   1.719   2.442  0.1382  0.0029  0.2431
 7734TIP3    H123166   6.600   1.705   2.516 -0.1025  0.2497  0.4901
 7734TIP3    H223167   6.571   1.659   2.374 -0.3616 -1.0985  0.9587
 7735TIP3   OH223168   6.367   1.738   0.591 -0.2859  0.2562  0.3126
 7735TIP3    H123169   6.345   1.765   0.502 -0.3375  1.4539  0.6712
 7735TIP3    H223170   6.343   1.813   0.645  3.2482  1.1433  0.8992
 7736TIP3   OH223171   3.888   2.096   3.217 -0.0841  0.1998 -0.0707
 7736TIP3    H123172   3.844   2.166   3.264  0.1962  0.4059 -0.1129
 7736TIP3    H223173   3.900   2.027   3.282 -0.0260  0.3395  0.0669
 7737TIP3   OH223174   6.574   4.500   5.715 -0.0562 -0.4955 -0.5528
 7737TIP3    H123175   6.522   4.544   5.648 -0.6605 -0.5100 -0.1015
 7737TIP3    H223176   6.589   4.568   5.781  2.4091  0.1797 -1.6725
 7738TIP3   OH223177   0.726   1.848   5.127 -0.0044  0.4511  0.1666
 7738TIP3    H123178   0.715   1.780   5.060  0.2808  1.2474 -0.7089
 7738TIP3    H223179   0.806   1.822   5.173  0.0337  0.1268 -0.0730
 7739TIP3   OH223180   4.898   4.346   3.434 -0.1323  0.2659 -0.2345
 7739TIP3    H123181   4.889   4.251   3.442 -0.9440  0.2790 -0.8219
 7739TIP3    H223182   4.868   4.365   3.345  1.4986  0.9134 -0.6652
 7740TIP3   OH223183   0.809   2.018   5.435 -0.5099  0.6466 -0.1421
 7740TIP3    H123184   0.898   1.988   5.417 -0.5257  0.8939 -0.6801
 7740TIP3    H223185   0.776   1.959   5.502  0.4990  1.3114  0.9917
 7741TIP3   OH223186   3.728   5.923   2.229 -0.1210  0.4814  0.9222
 7741TIP3    H123187   3.754   5.895   2.141  1.3582 -0.9702  1.7758
 7741TIP3    H223188   3.632   5.919   2.228 -0.1026 -0.0301 -0.4430
 7742TIP3   OH223189   4.536   6.083   2.982 -0.2854  0.2299 -0.0610
 7742TIP3    H123190   4.491   6.014   2.935 -0.7389  0.7708 -0.4250
 7742TIP3    H223191   4.503   6.165   2.944 -1.2553  0.7135  1.6810
 7743TIP3   OH223192   4.175   1.947   3.546  0.4273 -0.4472  0.3862
 7743TIP3    H123193   4.234   1.953   3.471  1.4766  0.4813  1.2491
 7743TIP3    H223194   4.107   2.013   3.529 -0.0189 -1.0628 -0.2936
 7744TIP3   OH223195   1.662   2.519   1.110 -0.2492  0.8092 -0.3002
 7744TIP3    H123196   1.732   2.486   1.053  0.4145 -2.3797  2.1250
 7744TIP3    H223197   1.698   2.599   1.148  1.4636  0.0784 -0.3039
 7745TIP3   OH223198   3.655   1.483   4.923 -0.1003  0.2847 -0.1019
 7745TIP3    H123199   3.683   1.574   4.939  0.1147  0.2404 -0.2077
 7745TIP3    H223200   3.564   1.481   4.949 -0.5160  0.8966 -1.4024
 7746TIP3   OH223201   3.627   4.747   1.891  0.0442 -0.6281 -0.4841
 7746TIP3    H123202   3.572   4.713   1.820  1.0282 -0.8217 -1.1748
 7746TIP3    H223203   3.567   4.796   1.946 -0.7900 -0.6667 -1.3280
 7747TIP3   OH223204   1.815   1.331   3.758  0.1215 -0.0383 -0.0293
 7747TIP3    H123205   1.759   1.406   3.775 -0.1889  0.1559 -1.7442
 7747TIP3    H223206   1.756   1.257   3.752  0.0820  0.0640 -1.1908
 7748TIP3   OH223207   2.143   1.654   3.280  0.0097 -0.8212  0.4540
 7748TIP3    H123208   2.220   1.611   3.318  0.1077 -0.8660  0.2051
 7748TIP3    H223209   2.176   1.696   3.201  0.0881  0.3938  1.1141
 7749TIP3   OH223210   4.907   4.765   1.172  0.0377  0.3819 -0.1041
 7749TIP3    H123211   4.933   4.749   1.263  1.5188  0.0379 -0.5597
 7749TIP3    H223212   4.949   4.695   1.122  1.2150  1.8673 -1.3277
 7750TIP3   OH223213   4.578   5.440   5.547 -0.5557 -0.0228  0.2878
 7750TIP3    H123214   4.649   5.384   5.514 -0.0646  0.6010  0.2881
 7750TIP3    H223215   4.532   5.385   5.611 -0.9252 -0.9122 -0.7009
 7751TIP3   OH223216   0.067   0.052   2.366 -0.8041  0.1937 -0.3113
 7751TIP3    H123217   0.113   0.051   2.282  0.6039 -0.6231  0.4181
 7751TIP3    H223218   0.017  -0.030   2.367 -0.6300  0.0855 -0.2756
 7752TIP3   OH223219   2.767   1.277   4.958 -0.2582 -0.0486  0.3235
 7752TIP3    H123220   2.771   1.367   4.929  0.9126  0.8416  2.8896
 7752TIP3    H223221   2.704   1.277   5.031 -0.1028 -1.2504  0.4952
 7753TIP3   OH223222   1.807   1.634   5.384 -0.2277 -0.5114  0.1854
 7753TIP3    H123223   1.720   1.614   5.348 -0.6378 -0.5538  1.1902
 7753TIP3    H223224   1.867   1.582   5.331 -0.9136 -1.3037  0.1759
 7754TIP3   OH223225   3.596   5.396   3.322 -0.1751  0.3248  0.3523
 7754TIP3    H123226   3.606   5.464   3.388 -1.3261  1.7152 -0.8468
 7754TIP3    H223227   3.669   5.411   3.261  1.3329 -1.4198  1.6164
 7755TIP3   OH223228   4.487   4.744   0.957  0.3029 -0.7223  0.1505
 7755TIP3    H123229   4.415   4.769   0.900  0.0943 -1.8508 -0.0957
 7755TIP3    H223230   4.448   4.687   1.023  0.9864 -1.5048 -0.0986
 7756TIP3   OH223231   5.284   5.779   1.106 -0.1589 -0.2392 -0.4539
 7756TIP3    H123232   5.242   5.865   1.099 -1.8028 -1.0337 -0.7349
 7756TIP3    H223233   5.360   5.784   1.048 -0.5396  0.8357 -0.8760
 7757TIP3   OH223234   5.329   6.137   5.227 -0.0218 -0.1689  0.2967
 7757TIP3    H123235   5.272   6.193   5.281 -0.1487 -1.1035  1.1622
 7757TIP3    H223236   5.272   6.068   5.195  0.1257  0.2048 -0.8230
 7758TIP3   OH223237   2.465   1.835   2.181 -0.2659 -0.2233  0.9530
 7758TIP3    H123238   2.517   1.865   2.256 -1.6332  0.6868  1.5898
 7758TIP3    H223239   2.482   1.900   2.113  0.6697 -0.8312  0.5889
 7759TIP3   OH223240   3.422   1.278   4.948 -0.3637 -0.0724  0.5178
 7759TIP3    H123241   3.501   1.226   4.962 -0.3908 -0.3052 -0.1501
 7759TIP3    H223242   3.418   1.290   4.853  0.2136  2.0292  0.7077
 7760TIP3   OH223243   0.613   2.049   4.982 -0.0969  0.0874 -0.1761
 7760TIP3    H123244   0.663   1.991   5.039 -2.0652 -2.0277 -0.4579
 7760TIP3    H223245   0.588   2.122   5.038  0.4684 -0.5008  0.8711
 7761TIP3   OH223246   1.767   1.143   1.045  0.3079 -0.3554  0.1948
 7761TIP3    H123247   1.792   1.075   1.107  0.3878  1.5616  2.3991
 7761TIP3    H223248   1.835   1.210   1.054  0.0559  0.2058 -1.6373
 7762TIP3   OH223249   4.797   5.240   1.266 -0.2403 -0.6896  0.2139
 7762TIP3    H123250   4.735   5.278   1.204 -2.8255 -1.7800  1.9212
 7762TIP3    H223251   4.841   5.315   1.306 -0.6066  0.1410 -0.8822
 7763TIP3   OH223252   1.652   4.809   2.229 -0.3971 -0.2416  0.3246
 7763TIP3    H123253   1.742   4.801   2.261 -0.5724 -1.3503  0.5899
 7763TIP3    H223254   1.645   4.900   2.201  0.4126  0.2033  1.4704
 7764TIP3   OH223255   3.291   1.661   3.547 -0.1145  0.2128 -0.4197
 7764TIP3    H123256   3.229   1.602   3.591 -1.1885 -0.1215 -2.2569
 7764TIP3    H223257   3.349   1.603   3.499  0.1430  0.6030 -0.5843
 7765TIP3   OH223258   4.666   1.019   3.620 -0.1997  0.5742  0.5697
 7765TIP3    H123259   4.692   1.004   3.529 -0.3453  0.2854  0.5731
 7765TIP3    H223260   4.744   0.996   3.671 -0.7257 -1.2100  0.6413
 7766TIP3   OH223261   6.015   0.118   1.548 -0.2260 -0.2211  0.6121
 7766TIP3    H123262   6.023   0.043   1.490  0.0091  0.3372 -0.0882
 7766TIP3    H223263   5.924   0.114   1.579 -0.3492 -0.5294  0.2220
 7767TIP3   OH223264   0.165   3.239   2.012 -0.0435 -0.5424  0.0220
 7767TIP3    H123265   0.235   3.274   2.067 -0.4139 -0.9927  0.7861
 7767TIP3    H223266   0.104   3.312   2.002  0.6999 -0.0362 -0.9467
 7768TIP3   OH223267   3.850   2.210   5.640 -0.2808  0.5422 -0.4129
 7768TIP3    H123268   3.813   2.241   5.723  1.1931 -0.4897  0.6844
 7768TIP3    H223269   3.821   2.274   5.575  0.6434  2.8792  1.3259
 7769TIP3   OH223270   0.472   6.215   3.433  0.2333 -0.1031  0.1936
 7769TIP3    H123271   0.567   6.209   3.442  0.3439 -3.2232 -1.8507
 7769TIP3    H223272   0.441   6.125   3.428 -2.7858  0.8111 -0.1651
 7770TIP3   OH223273   0.607   6.796   1.063  0.0019 -0.7095  0.3181
 7770TIP3    H123274   0.524   6.833   1.034 -0.3235 -0.0706  1.9873
 7770TIP3    H223275   0.586   6.745   1.141  1.2129 -0.1740  1.0335
 7771TIP3   OH223276   0.711   6.568   1.841  0.0990 -0.5393  0.1922
 7771TIP3    H123277   0.680   6.553   1.930  1.0086  1.0789  0.8238
 7771TIP3    H223278   0.806   6.557   1.846  0.5273  2.3271  0.1321
 7772TIP3   OH223279   5.950   0.892   4.732  0.2821  0.4678  0.3166
 7772TIP3    H123280   6.000   0.893   4.813  0.4029 -3.0704  0.4372
 7772TIP3    H223281   5.881   0.958   4.745  2.4005  2.5536  1.7385
 7773TIP3   OH223282   6.821   5.365   4.548  0.0508  0.3874 -0.3415
 7773TIP3    H123283   6.819   5.456   4.577 -0.0275  0.6019 -1.0101
 7773TIP3    H223284   6.747   5.357   4.488 -1.0221 -0.5733  1.0162
 7774TIP3   OH223285   1.746   1.696   3.941  0.2480  0.1031 -0.0231
 7774TIP3    H123286   1.790   1.619   3.977  0.0793 -0.1702 -0.4016
 7774TIP3    H223287   1.664   1.663   3.904 -1.8638  0.9694  3.3613
 7775TIP3   OH223288   1.075   3.536   0.844  0.4962  0.0461  0.0696
 7775TIP3    H123289   1.040   3.600   0.907  0.9481  0.0307  0.3435
 7775TIP3    H223290   1.168   3.557   0.838  1.0984 -1.8218  1.6866
 7776TIP3   OH223291   0.586   4.864   2.861 -1.2232 -0.3089  0.2837
 7776TIP3    H123292   0.490   4.868   2.859 -1.2190  0.6933  1.3850
 7776TIP3    H223293   0.606   4.807   2.935 -0.9716  1.4818  1.6479
 7777TIP3   OH223294   1.025   4.891   5.253  0.0497  0.4723  0.0477
 7777TIP3    H123295   1.105   4.849   5.284  1.4870  0.9810 -2.6445
 7777TIP3    H223296   0.955   4.832   5.281  1.6719 -1.8408 -0.4426
 7778TIP3   OH223297   4.574   2.663   5.199  0.2554 -0.2022  0.7298
 7778TIP3    H123298   4.494   2.611   5.200  0.3307 -0.4144 -0.8581
 7778TIP3    H223299   4.556   2.733   5.136  0.6016  0.9736  1.9043
 7779TIP3   OH223300   4.187   1.721   2.453  0.4559 -0.6655 -0.2801
 7779TIP3    H123301   4.183   1.712   2.357  0.8631  0.0358 -0.3726
 7779TIP3    H223302   4.099   1.697   2.483  0.3874 -1.1058 -0.8056
 7780TIP3   OH223303   0.693   4.044   4.260 -0.1451  0.1581 -0.0153
 7780TIP3    H123304   0.737   4.094   4.191  1.5672 -0.6394  0.4471
 7780TIP3    H223305   0.601   4.041   4.233  0.0886  1.7401 -1.1087
 7781TIP3   OH223306   3.734   4.219   3.274  0.4678  0.4345  0.1620
 7781TIP3    H123307   3.786   4.238   3.353  2.1947  2.3719 -1.3364
 7781TIP3    H223308   3.753   4.128   3.254  1.1694  0.3352  1.1828
 7782TIP3   OH223309   6.209   3.885   5.661  0.1123  0.0857  0.6301
 7782TIP3    H123310   6.151   3.862   5.733  1.5137  0.6431  1.9795
 7782TIP3    H223311   6.296   3.889   5.700  1.0721 -0.5960 -1.3116
 7783TIP3   OH223312   2.027   1.499   5.730 -0.4182  0.2052  0.1784
 7783TIP3    H123313   1.955   1.525   5.788  0.0005  0.3236  0.6437
 7783TIP3    H223314   2.026   1.564   5.660 -1.1682 -0.1564 -0.1677
 7784TIP3   OH223315   4.299   1.247   3.693  0.0215 -0.0847 -0.0413
 7784TIP3    H123316   4.275   1.280   3.780 -0.1342 -1.0027  0.2729
 7784TIP3    H223317   4.272   1.156   3.694 -0.5391  0.0553 -1.2809
 7785TIP3   OH223318   4.653   0.056   3.343  0.0416  0.0335  0.4355
 7785TIP3    H123319   4.716   0.034   3.412  0.3950  1.5372  0.6223
 7785TIP3    H223320   4.574   0.007   3.366  0.3484  0.0431  1.5786
 7786TIP3   OH223321   4.297   2.770   5.381  1.0597  0.1320 -0.7192
 7786TIP3    H123322   4.314   2.719   5.301  2.6580  0.4427 -0.6151
 7786TIP3    H223323   4.297   2.704   5.451 -0.4212 -0.1512 -0.9626
 7787TIP3   OH223324   3.819   1.708   2.329  0.0377 -0.1554  0.0765
 7787TIP3    H123325   3.737   1.738   2.368  0.3215 -2.7138  3.0558
 7787TIP3    H223326   3.796   1.688   2.238 -2.2728  0.5484  0.4386
 7788TIP3   OH223327   5.712   4.138   0.723 -0.2089  0.3052  0.1359
 7788TIP3    H123328   5.652   4.073   0.760 -0.4635  0.2633 -0.3435
 7788TIP3    H223329   5.790   4.132   0.778  0.1940 -1.1688 -0.5131
 7789TIP3   OH223330   3.049   1.081   5.733 -0.2941  0.2845  0.2250
 7789TIP3    H123331   3.105   1.134   5.791  0.9240 -0.0221 -0.6319
 7789TIP3    H223332   3.072   0.991   5.754  0.0745  0.1689 -0.6361
 7790TIP3   OH223333   0.430   0.345   2.276  0.1894  0.3740  0.2020
 7790TIP3    H123334   0.426   0.258   2.238  0.5170  0.5126 -0.1630
 7790TIP3    H223335   0.368   0.343   2.349  2.3128 -1.0608  2.0841
 7791TIP3   OH223336   7.089   6.030   5.402 -0.4596 -0.0981  0.2540
 7791TIP3    H123337   7.121   6.015   5.313 -0.8336  0.2212  0.0656
 7791TIP3    H223338   7.070   5.942   5.435  0.9325 -0.3269  0.4985
 7792TIP3   OH223339   6.560   6.207   0.889  0.0499  0.2383 -0.5340
 7792TIP3    H123340   6.521   6.120   0.883  0.7389  0.0269 -3.7513
 7792TIP3    H223341   6.489   6.264   0.919 -1.6867 -0.7974 -2.4308
 7793TIP3   OH223342   5.564   4.937   1.782 -0.1025 -0.3150 -0.4843
 7793TIP3    H123343   5.558   5.015   1.726 -1.0382 -0.3582 -0.4646
 7793TIP3    H223344   5.479   4.894   1.771  0.7513 -1.8804 -1.2700
 7794TIP3   OH223345   4.183   4.718   3.278 -0.3322 -0.3064  0.4903
 7794TIP3    H123346   4.101   4.687   3.240 -0.9061 -0.2966  1.6473
 7794TIP3    H223347   4.188   4.810   3.253 -0.1533 -0.5616 -0.4303
 7795TIP3   OH223348   5.994   3.512   0.794 -0.2875 -0.5388  0.6525
 7795TIP3    H123349   6.050   3.439   0.820 -0.9832 -0.9246  1.0888
 7795TIP3    H223350   5.936   3.476   0.727  1.0094  0.2605 -0.9557
 7796TIP3   OH223351   0.408   3.673   3.453  0.0562  0.2817  0.3373
 7796TIP3    H123352   0.416   3.668   3.548 -0.5626 -0.9940  0.3436
 7796TIP3    H223353   0.485   3.723   3.425  0.2992  0.5904  1.4891
 7797TIP3   OH223354   2.833   6.246   3.774  0.3280 -0.3016 -0.1820
 7797TIP3    H123355   2.886   6.261   3.695 -1.3986  0.2494 -1.3024
 7797TIP3    H223356   2.838   6.151   3.788  0.7078 -0.4040 -0.9223
 7798TIP3   OH223357   3.023   0.153   1.704 -0.4928 -0.3031 -0.4789
 7798TIP3    H123358   2.967   0.195   1.639  0.1451  0.9444 -0.2394
 7798TIP3    H223359   3.103   0.133   1.656 -0.5178 -0.6014 -0.3998
 7799TIP3   OH223360   5.662   5.378   4.203  0.0624  0.3888 -0.2216
 7799TIP3    H123361   5.710   5.344   4.127  1.9389  1.7057  0.2990
 7799TIP3    H223362   5.657   5.472   4.188  0.2641  0.6438  1.1452
 7800TIP3   OH223363   3.882   6.244   3.485 -0.1947  0.2942 -0.2243
 7800TIP3    H123364   3.976   6.249   3.502 -0.1306 -0.4212 -0.3299
 7800TIP3    H223365   3.842   6.240   3.572 -0.2436  2.0844 -0.1287
 7801TIP3   OH223366   2.086   2.689   1.082 -0.1775  0.1878  0.4072
 7801TIP3    H123367   2.130   2.727   1.006  0.9131 -0.2153  0.8204
 7801TIP3    H223368   2.009   2.744   1.095  0.3392  1.0687 -0.1757
 7802TIP3   OH223369   2.085   3.543   3.515  0.6343  0.3594 -0.5666
 7802TIP3    H123370   2.166   3.580   3.552  0.5685  1.4285 -1.4319
 7802TIP3    H223371   2.114   3.471   3.460  0.7692 -0.9600  1.1781
 7803TIP3   OH223372   6.370   1.998   1.239 -0.1490  0.4563 -0.2035
 7803TIP3    H123373   6.364   1.988   1.144  1.0278  0.5440 -0.3127
 7803TIP3    H223374   6.453   1.956   1.262 -0.7369 -0.1703  0.8853
 7804TIP3   OH223375   2.250   4.053   4.504  0.4261  0.2911  0.8355
 7804TIP3    H123376   2.301   3.994   4.560  0.8222  0.5276  0.7329
 7804TIP3    H223377   2.306   4.130   4.494  0.3586  0.2541  0.1237
 7805TIP3   OH223378   0.306   0.399   5.080 -0.0617 -0.2045 -0.1673
 7805TIP3    H123379   0.369   0.340   5.038  0.2789  1.4832 -2.1890
 7805TIP3    H223380   0.315   0.482   5.032 -2.8923  0.4949  0.3435
 7806TIP3   OH223381   6.559   6.088   3.084  0.5976 -0.8185 -0.0183
 7806TIP3    H123382   6.514   6.092   3.168 -0.2249 -0.6794 -0.4622
 7806TIP3    H223383   6.607   6.171   3.079 -1.5656  0.4407 -0.8979
 7807TIP3   OH223384   5.804   0.697   5.469  0.2984  0.0469  0.2214
 7807TIP3    H123385   5.789   0.633   5.399 -1.7630 -0.3375  0.9454
 7807TIP3    H223386   5.769   0.655   5.548 -1.5862  2.1994  0.6396
 7808TIP3   OH223387   1.866   2.049   2.774  0.2469 -0.3061 -0.3679
 7808TIP3    H123388   1.786   1.997   2.767  1.7538 -2.7201 -1.2213
 7808TIP3    H223389   1.858   2.116   2.707 -0.7695 -0.9255 -0.8920
 7809TIP3   OH223390   6.394   4.272   1.677  0.1062  0.2729  0.0292
 7809TIP3    H123391   6.470   4.247   1.729  0.4868  1.1042 -0.1084
 7809TIP3    H223392   6.368   4.357   1.712  1.6202  1.8640 -2.3984
 7810TIP3   OH223393   2.820   0.562   1.206  0.5317 -0.1236  0.2770
 7810TIP3    H123394   2.729   0.590   1.215  0.3215 -0.4754 -0.6221
 7810TIP3    H223395   2.814   0.468   1.191  1.0284 -0.1061 -0.0479
 7811TIP3   OH223396   5.646   6.213   5.204  0.0414  0.5224  0.0528
 7811TIP3    H123397   5.572   6.158   5.230 -0.2433 -0.8253 -3.1854
 7811TIP3    H223398   5.605   6.296   5.177 -0.0318  0.5976  0.3894
 7812TIP3   OH223399   1.171   1.013   0.496  0.1838  0.5707 -0.1849
 7812TIP3    H123400   1.232   1.012   0.570  0.5699  2.1279 -0.4375
 7812TIP3    H223401   1.216   1.066   0.430 -1.0504  0.9763 -0.7210
 7813TIP3   OH223402   0.561   0.793   4.756  0.2126  0.3625 -0.1790
 7813TIP3    H123403   0.489   0.854   4.772 -0.2795 -0.1737 -0.3422
 7813TIP3    H223404   0.625   0.813   4.825  0.7553  2.1053 -1.1151
 7814TIP3   OH223405   1.587   4.974   2.598 -0.3049 -0.5106  0.5277
 7814TIP3    H123406   1.669   5.002   2.640 -0.4631 -1.2460  1.3627
 7814TIP3    H223407   1.601   4.882   2.577  0.6499  0.3280 -3.2612
 7815TIP3   OH223408   4.694   0.949   5.088  0.3203 -0.2265  0.3165
 7815TIP3    H123409   4.728   1.013   5.026  0.1844 -1.7563 -1.4244
 7815TIP3    H223410   4.758   0.878   5.086 -0.5597 -1.0472  0.6276
 7816TIP3   OH223411   2.407   4.703   3.563  0.1220 -0.0562  0.8353
 7816TIP3    H123412   2.437   4.616   3.588  1.7428  0.2952  0.2354
 7816TIP3    H223413   2.386   4.695   3.470  1.6055  0.5025  0.4327
 7817TIP3   OH223414   7.031   3.119   5.650 -0.3843  0.3705 -0.1120
 7817TIP3    H123415   7.048   3.103   5.557  1.5580  0.2422  0.2213
 7817TIP3    H223416   7.109   3.165   5.681  0.3168 -2.0437  2.0602
 7818TIP3   OH223417   1.721   5.698   0.651 -0.3269 -0.4809 -0.0994
 7818TIP3    H123418   1.674   5.697   0.735  0.9528 -1.3118  0.6558
 7818TIP3    H223419   1.813   5.712   0.676  0.2423 -1.9234 -1.2500
 7819TIP3   OH223420   0.221   5.085   5.094 -0.6942  0.3575 -0.2819
 7819TIP3    H123421   0.308   5.044   5.095 -0.4290  0.8444  1.5783
 7819TIP3    H223422   0.183   5.059   5.011  0.1763 -2.1150  0.0153
 7820TIP3   OH223423   0.824   1.996   3.577  0.5158  0.7386  0.8095
 7820TIP3    H123424   0.828   2.090   3.557  0.7162  0.3372 -1.3363
 7820TIP3    H223425   0.748   1.965   3.529  1.7190 -0.5517 -0.3401
 7821TIP3   OH223426   5.414   6.165   4.125 -0.2229  0.4801 -0.2662
 7821TIP3    H123427   5.441   6.201   4.040  2.3793 -1.5509 -0.4368
 7821TIP3    H223428   5.330   6.207   4.143  0.9094  3.8734 -2.0185
 7822TIP3   OH223429   5.654   2.063   4.892  0.2392  0.7166  0.3234
 7822TIP3    H123430   5.726   2.116   4.858  1.0905 -0.2687  0.5336
 7822TIP3    H223431   5.696   1.982   4.920 -0.8371  0.4724  1.2716
 7823TIP3   OH223432   6.859   1.957   2.165  0.8599  0.5312 -0.2938
 7823TIP3    H123433   6.770   1.985   2.187 -0.0274 -1.6045 -0.8943
 7823TIP3    H223434   6.915   2.004   2.226 -0.8938  0.1681  1.7299
 7824TIP3   OH223435   1.289   6.712   2.737  0.2706  0.7995 -0.0843
 7824TIP3    H123436   1.374   6.675   2.713  0.7600  0.7713  1.5498
 7824TIP3    H223437   1.235   6.703   2.659  1.6079  0.3208 -0.9788
 7825TIP3   OH223438   3.672   1.161   1.847  0.0141 -0.5238  0.2213
 7825TIP3    H123439   3.621   1.083   1.870 -0.7433  0.4303  2.0479
 7825TIP3    H223440   3.609   1.218   1.803  1.0624 -1.6662 -3.0757
 7826TIP3   OH223441   5.989   2.811   2.910 -0.0353  0.0227  0.0812
 7826TIP3    H123442   5.983   2.782   2.819  0.1273 -1.4290  0.5108
 7826TIP3    H223443   6.062   2.872   2.910 -0.2452  0.3003 -0.8218
 7827TIP3   OH223444   3.300   4.884   0.592 -0.5559  0.0056  0.0447
 7827TIP3    H123445   3.336   4.943   0.658 -1.4412 -0.8724  1.3723
 7827TIP3    H223446   3.365   4.815   0.584 -0.9127 -0.4427  0.8291
 7828TIP3   OH223447   6.303   5.555   2.778  0.2502 -0.1652  0.4918
 7828TIP3    H123448   6.285   5.519   2.691  0.3921  2.7034 -0.8801
 7828TIP3    H223449   6.241   5.512   2.836 -1.1204 -0.8463 -1.3922
 7829TIP3   OH223450   5.598   6.422   1.442 -0.3049 -0.2131 -0.1094
 7829TIP3    H123451   5.605   6.357   1.371 -1.2203  0.7112 -1.0982
 7829TIP3    H223452   5.510   6.409   1.477 -0.8232  1.0264 -0.8889
 7830TIP3   OH223453   6.225   4.922   0.198  0.2857 -0.5115  0.6421
 7830TIP3    H123454   6.186   4.922   0.285  0.0179 -1.5031  0.5341
 7830TIP3    H223455   6.301   4.980   0.205  0.3369 -0.6809  1.5668
 7831TIP3   OH223456   5.495   6.455   3.638  0.3619 -0.2863 -0.3336
 7831TIP3    H123457   5.587   6.433   3.632  0.4979 -0.8437  2.4057
 7831TIP3    H223458   5.488   6.507   3.718 -1.7980 -0.9722 -0.0064
 7832TIP3   OH223459   5.425   1.082   2.274  0.1090  0.1082  0.2219
 7832TIP3    H123460   5.421   1.175   2.253  1.0465 -0.1729 -1.3996
 7832TIP3    H223461   5.477   1.077   2.354 -0.8785  1.0333  0.9460
 7833TIP3   OH223462   2.233   6.183   1.906 -0.4136 -0.4705 -0.0144
 7833TIP3    H123463   2.281   6.261   1.934 -0.5653 -0.7660  1.1504
 7833TIP3    H223464   2.280   6.110   1.946 -1.2043 -0.8422  0.2716
 7834TIP3   OH223465   3.879   1.756   1.060  0.1929 -0.0610  0.1896
 7834TIP3    H123466   3.792   1.759   1.020  0.6590 -0.0660 -0.8478
 7834TIP3    H223467   3.918   1.840   1.040  0.7620 -0.3948 -0.1299
 7835TIP3   OH223468   4.181   6.248   5.034  0.3592  0.4160  0.5747
 7835TIP3    H123469   4.270   6.271   5.062 -0.2530  1.2176  1.9816
 7835TIP3    H223470   4.133   6.237   5.116 -0.8420 -0.0070 -0.1706
 7836TIP3   OH223471   1.410   4.492   3.862  0.5574  0.2790  0.6261
 7836TIP3    H123472   1.476   4.475   3.929 -0.1498  1.1946  1.6156
 7836TIP3    H223473   1.334   4.440   3.890  0.5450 -0.0220  0.0401
 7837TIP3   OH223474   3.098   2.740   0.303 -0.2355 -0.0611  0.0257
 7837TIP3    H123475   3.176   2.685   0.296  1.6008  2.2187  1.3367
 7837TIP3    H223476   3.055   2.711   0.384  0.4131  0.0090  0.4058
 7838TIP3   OH223477   5.213   0.053   4.370 -0.2228  0.5226  0.5834
 7838TIP3    H123478   5.308   0.048   4.360 -0.0230 -0.9385  2.7185
 7838TIP3    H223479   5.184  -0.039   4.371 -1.8427  0.9416 -1.1680
 7839TIP3   OH223480   4.605   4.233   5.838 -0.1611  0.5219  0.6810
 7839TIP3    H123481   4.638   4.230   5.748 -1.9644 -0.4310 -0.0074
 7839TIP3    H223482   4.574   4.144   5.855  1.4410  0.2815  2.8091
 7840TIP3   OH223483   6.367   0.889   0.389 -0.5256 -0.4655 -0.2212
 7840TIP3    H123484   6.290   0.926   0.431 -1.1467 -2.6081  0.6776
 7840TIP3    H223485   6.436   0.894   0.456 -0.3998 -0.2063 -0.3719
 7841TIP3   OH223486   4.540   2.091   5.143 -0.6249  0.5402 -0.0999
 7841TIP3    H123487   4.621   2.084   5.094 -1.0455 -0.2451 -0.6989
 7841TIP3    H223488   4.517   2.001   5.167 -1.3380  0.7411  0.0174
 7842TIP3   OH223489   5.283   2.241   4.616  0.7833 -0.2219 -0.1477
 7842TIP3    H123490   5.204   2.293   4.605  1.4031  1.2122  1.5850
 7842TIP3    H223491   5.342   2.272   4.548  0.7266  0.5493  0.1405
 7843TIP3   OH223492   4.811   3.103   2.137  0.2594  0.3211  0.1643
 7843TIP3    H123493   4.774   3.187   2.162 -1.3704  0.0823 -1.2891
 7843TIP3    H223494   4.871   3.124   2.065 -0.5119  0.2188 -0.5259
 7844TIP3   OH223495   6.142   2.481   5.464  0.0295  0.4911  0.1085
 7844TIP3    H123496   6.197   2.559   5.463  0.9993 -0.1811  0.0543
 7844TIP3    H223497   6.186   2.419   5.405 -0.9459  0.0500 -0.1762
 7845TIP3   OH223498   5.833   5.104   4.077 -0.5262  0.3676  0.4446
 7845TIP3    H123499   5.798   5.029   4.028 -1.4255  1.7948 -1.2133
 7845TIP3    H223500   5.927   5.102   4.061 -0.5524 -0.3724  0.3611
 7846TIP3   OH223501   6.743   3.198   5.659 -0.2169 -0.0042  0.0764
 7846TIP3    H123502   6.740   3.179   5.752 -1.3697 -0.5471 -0.0441
 7846TIP3    H223503   6.692   3.127   5.618  1.2937 -0.4735 -1.0920
 7847TIP3   OH223504   0.666   1.900   0.780 -0.2217 -0.0323 -0.1898
 7847TIP3    H123505   0.700   1.990   0.784 -0.3161  0.0384 -0.8650
 7847TIP3    H223506   0.582   1.904   0.826 -1.9442  1.0498 -3.1823
 7848TIP3   OH223507   4.475   1.940   0.300  0.3735  0.0106 -0.2168
 7848TIP3    H123508   4.475   1.844   0.309 -1.5703 -0.0600 -0.5123
 7848TIP3    H223509   4.535   1.970   0.368  3.8296 -1.5084 -2.3324
 7849TIP3   OH223510   0.462   6.446   2.660 -0.2319 -0.3739 -0.3021
 7849TIP3    H123511   0.390   6.485   2.710  0.1570  0.7983 -0.6322
 7849TIP3    H223512   0.422   6.422   2.576 -0.3049 -0.0152 -0.3691
 7850TIP3   OH223513   0.636   4.598   0.812 -0.5703  0.2603  0.0376
 7850TIP3    H123514   0.687   4.637   0.883 -0.3569  0.2871 -0.1272
 7850TIP3    H223515   0.638   4.504   0.830 -0.3525  0.2494 -0.0378
 7851TIP3   OH223516   4.050   2.107   5.130  0.6081  0.4343  0.1423
 7851TIP3    H123517   4.054   2.036   5.066 -0.0026 -0.5269  1.1086
 7851TIP3    H223518   4.022   2.184   5.080 -1.3927 -0.6312 -0.5168
 7852TIP3   OH223519   4.167   0.221   1.211 -0.8471  0.5826  0.0790
 7852TIP3    H123520   4.118   0.252   1.287 -1.3481  1.5615 -0.6163
 7852TIP3    H223521   4.228   0.156   1.246 -4.4620 -2.8610  0.6135
 7853TIP3   OH223522   1.476   0.475   0.235 -0.0281 -0.3867  0.1158
 7853TIP3    H123523   1.439   0.389   0.255  0.8013 -0.5645  0.9395
 7853TIP3    H223524   1.553   0.457   0.181  0.0530 -0.1488  0.1471
 7854TIP3   OH223525   1.925   1.965   2.121  0.1346  0.0049  0.6204
 7854TIP3    H123526   1.986   1.914   2.175 -0.3939 -1.7560 -0.3947
 7854TIP3    H223527   1.980   2.003   2.053  0.6147  1.2983  1.6729
 7855TIP3   OH223528   5.218   4.738   3.651 -0.2393  0.1055 -0.3291
 7855TIP3    H123529   5.151   4.794   3.612 -0.9453 -0.6246 -0.2021
 7855TIP3    H223530   5.290   4.797   3.672 -1.2774  1.1132  0.5419
 7856TIP3   OH223531   1.806   6.701   4.365 -0.1120  0.2216  0.1406
 7856TIP3    H123532   1.854   6.720   4.284  0.3371 -1.8613 -0.1292
 7856TIP3    H223533   1.810   6.783   4.414 -0.2994  1.5214 -1.8687
 7857TIP3   OH223534   1.429   2.421   0.991 -0.2064 -0.2608 -0.5658
 7857TIP3    H123535   1.502   2.470   1.031 -0.3743 -1.7228  1.7553
 7857TIP3    H223536   1.419   2.459   0.904  1.3785  1.9935  0.1453
 7858TIP3   OH223537   4.731   5.423   0.557 -0.2005  0.3155 -0.1257
 7858TIP3    H123538   4.791   5.364   0.602  1.2329  1.7414 -0.0879
 7858TIP3    H223539   4.699   5.481   0.626 -0.0317  0.8548 -0.4972
 7859TIP3   OH223540   6.534   5.100   5.296  0.4081 -0.1967  0.1051
 7859TIP3    H123541   6.512   5.156   5.222 -0.8558  0.5224  0.9781
 7859TIP3    H223542   6.588   5.156   5.352  0.4973 -0.3927  0.2137
 7860TIP3   OH223543   5.671   0.918   1.919  0.2189 -0.1901 -0.1255
 7860TIP3    H123544   5.708   1.000   1.951 -0.8243 -0.0980  0.9253
 7860TIP3    H223545   5.577   0.927   1.932  0.1739 -2.1155  1.5071
 7861TIP3   OH223546   6.031   3.562   1.257  0.4953  0.3820 -0.2745
 7861TIP3    H123547   6.034   3.594   1.166  1.6737  2.6413  0.4578
 7861TIP3    H223548   5.940   3.537   1.271 -0.0840  1.5549 -1.6246
 7862TIP3   OH223549   0.592   3.415   3.550  0.0547  0.1266  0.6886
 7862TIP3    H123550   0.505   3.388   3.519  0.5066 -0.6169  0.0447
 7862TIP3    H223551   0.619   3.345   3.610  0.3566  0.1901  0.6250
 7863TIP3   OH223552   0.844   1.706   3.441  0.1990 -0.4264  0.3561
 7863TIP3    H123553   0.815   1.765   3.510  0.5939 -2.0143  1.9564
 7863TIP3    H223554   0.765   1.659   3.414  0.4217 -1.4698  1.4377
 7864TIP3   OH223555   7.029   6.664   5.904 -0.1105 -0.2149 -0.0575
 7864TIP3    H123556   6.994   6.718   5.833 -1.3311 -0.6005  0.2418
 7864TIP3    H223557   6.958   6.606   5.929  0.7229 -0.9910  0.6088
 7865TIP3   OH223558   2.813   4.363   2.519  0.1293 -0.1831 -0.3003
 7865TIP3    H123559   2.783   4.454   2.519  0.6150 -0.0147 -0.6874
 7865TIP3    H223560   2.746   4.315   2.472 -1.1163 -0.3793  1.5732
 7866TIP3   OH223561   3.077   1.996   2.972 -0.1913 -1.0288 -0.3629
 7866TIP3    H123562   3.165   1.982   3.005 -1.0124 -0.7199  2.2069
 7866TIP3    H223563   3.081   1.972   2.880  3.4579  2.6173 -1.4276
 7867TIP3   OH223564   6.860   0.364   1.404 -0.3059  0.1394  0.5385
 7867TIP3    H123565   6.869   0.303   1.330  3.7059  1.1660 -0.0226
 7867TIP3    H223566   6.809   0.437   1.369 -0.1948 -0.3079 -0.6014
 7868TIP3   OH223567   2.247   4.190   2.196 -0.1787 -0.1153  0.4558
 7868TIP3    H123568   2.160   4.154   2.183 -0.5861  0.7596  0.6846
 7868TIP3    H223569   2.297   4.161   2.119 -0.7600 -0.3301  0.1554
 7869TIP3   OH223570   2.198   0.418   3.004 -0.0833 -0.3562 -0.2190
 7869TIP3    H123571   2.150   0.421   2.922  0.7176  1.0744 -0.6812
 7869TIP3    H223572   2.281   0.461   2.985  0.1978 -0.1638  1.2779
 7870TIP3   OH223573   5.844   1.951   4.187  0.1965  0.6900 -0.4807
 7870TIP3    H123574   5.882   1.867   4.213 -0.8134  0.5323  0.5872
 7870TIP3    H223575   5.908   1.989   4.127  0.9844 -0.5376 -0.4543
 7871TIP3   OH223576   3.579   4.848   5.086 -0.0857  0.3464  0.4723
 7871TIP3    H123577   3.536   4.890   5.012  0.9850 -0.6140 -0.7636
 7871TIP3    H223578   3.512   4.791   5.123 -0.2714 -0.2018 -0.6412
 7872TIP3   OH223579   3.361   5.895   5.464 -0.3580  0.1605 -0.2277
 7872TIP3    H123580   3.376   5.800   5.463  1.5234  0.4130  0.1368
 7872TIP3    H223581   3.294   5.910   5.398 -1.0571 -1.4800  0.0731
 7873TIP3   OH223582   0.803   6.421   4.026  0.0810 -0.1387 -0.0430
 7873TIP3    H123583   0.730   6.400   3.967 -0.0494  1.9787 -0.7240
 7873TIP3    H223584   0.762   6.442   4.109 -0.1860  1.6827 -0.6041
 7874TIP3   OH223585   6.541   1.524   5.048  0.1982 -0.2147  0.3142
 7874TIP3    H123586   6.600   1.599   5.058 -0.9579  0.8861 -0.8637
 7874TIP3    H223587   6.480   1.531   5.121 -0.1574  0.2264 -0.0258
 7875TIP3   OH223588   1.644   0.842   4.048 -0.2043 -0.0035  0.3960
 7875TIP3    H123589   1.645   0.833   3.952 -1.8020  0.0210  0.3567
 7875TIP3    H223590   1.736   0.838   4.073  0.3518  1.3419 -1.2698
 7876TIP3   OH223591   0.955   3.073   1.567 -0.3131  0.5150 -0.0021
 7876TIP3    H123592   0.887   3.118   1.617  0.7680  1.7607  0.4160
 7876TIP3    H223593   0.958   3.120   1.484 -0.5710 -0.1189 -0.3760
 7877TIP3   OH223594   3.000   6.700   0.928  0.6035  0.4243 -0.6737
 7877TIP3    H123595   2.919   6.749   0.945  0.6806  1.3120 -2.6034
 7877TIP3    H223596   3.017   6.653   1.009 -3.4024 -2.0716 -1.0166
 7878TIP3   OH223597   4.505   6.147   0.896 -0.0238 -0.1138 -0.0805
 7878TIP3    H123598   4.487   6.116   0.985 -1.1673  1.5804  0.3312
 7878TIP3    H223599   4.419   6.168   0.860  0.5145  0.2606 -1.1881
 7879TIP3   OH223600   4.562   6.665   1.720  0.0544 -0.9192 -0.1359
 7879TIP3    H123601   4.602   6.729   1.660 -5.1945  0.0391 -3.2260
 7879TIP3    H223602   4.554   6.585   1.667 -0.7527 -1.4968  0.8205
 7880TIP3   OH223603   1.327   1.280   0.884  0.0568 -0.6093 -0.1242
 7880TIP3    H123604   1.384   1.337   0.832  0.4949  1.1509  2.0861
 7880TIP3    H223605   1.338   1.312   0.974 -3.2932 -1.1819  0.6066
 7881TIP3   OH223606   4.133   4.590   0.624  0.1784 -0.1221  0.2327
 7881TIP3    H123607   4.169   4.502   0.612 -1.9968 -0.7164 -3.3123
 7881TIP3    H223608   4.204   4.648   0.598  1.1147 -0.8730  1.0401
 7882TIP3   OH223609   4.138   5.642   5.076 -0.4267  0.0706  0.4884
 7882TIP3    H123610   4.104   5.717   5.027 -1.4850 -0.3884  0.4955
 7882TIP3    H223611   4.208   5.607   5.022 -0.6866  0.3813 -0.0565
 7883TIP3   OH223612   3.944   3.428   1.889 -0.0507  0.3353 -0.4346
 7883TIP3    H123613   4.018   3.369   1.876 -0.6004 -0.6649  0.7596
 7883TIP3    H223614   3.983   3.512   1.912  0.7477 -0.5847  1.8267
 7884TIP3   OH223615   1.154   2.792   5.839  0.2438  0.0676 -0.5400
 7884TIP3    H123616   1.064   2.815   5.821 -0.3442 -0.8894  0.9567
 7884TIP3    H223617   1.196   2.875   5.862 -0.5360  0.3775 -0.1919
 7885TIP3   OH223618   7.058   1.177   5.439 -0.0010  0.3803  0.0865
 7885TIP3    H123619   7.045   1.084   5.460  0.6413  0.4920  1.0300
 7885TIP3    H223620   7.153   1.186   5.432  0.0295  1.2377  1.3459
 7886TIP3   OH223621   3.982   1.302   1.180 -0.3001 -0.3285  0.4829
 7886TIP3    H123622   4.042   1.230   1.165 -0.3259 -0.3568  0.5164
 7886TIP3    H223623   3.964   1.300   1.274  0.0829  0.0236  0.5652
 7887TIP3   OH223624   3.501   2.083   4.912 -0.0683  0.3560  0.0405
 7887TIP3    H123625   3.592   2.107   4.893 -0.7224  1.5359 -1.8631
 7887TIP3    H223626   3.456   2.166   4.922 -0.7830 -0.2167  2.1459
 7888TIP3   OH223627   4.692   5.064   0.802 -0.0388  0.4054  0.4462
 7888TIP3    H123628   4.748   5.114   0.743  1.1683 -1.5416 -0.1677
 7888TIP3    H223629   4.752   5.023   0.864 -1.3327  3.2994  3.9630
 7889TIP3   OH223630   4.427   4.893   2.427  0.3010 -0.1457 -0.2029
 7889TIP3    H123631   4.471   4.929   2.504 -0.1295  1.8290 -0.8206
 7889TIP3    H223632   4.339   4.931   2.430  0.1445 -0.3813 -1.4402
 7890TIP3   OH223633   0.178   3.259   2.569  0.5222 -0.4730  0.2154
 7890TIP3    H123634   0.099   3.208   2.587 -0.3364  0.0175 -1.8197
 7890TIP3    H223635   0.208   3.289   2.654 -1.1341 -1.2022  1.0999
 7891TIP3   OH223636   0.189   1.621   1.944  0.0235  0.1992  0.6759
 7891TIP3    H123637   0.264   1.561   1.950 -1.1598 -1.4940 -0.4038
 7891TIP3    H223638   0.157   1.627   2.034  0.2981 -0.6446  0.8407
 7892TIP3   OH223639   2.796   6.709   0.227 -0.2434 -0.3713 -0.2236
 7892TIP3    H123640   2.879   6.689   0.270 -1.5108 -1.1484  2.0307
 7892TIP3    H223641   2.754   6.773   0.285 -1.2118  0.0769 -1.3611
 7893TIP3   OH223642   4.136   4.454   4.095  0.0692 -0.5271 -0.0303
 7893TIP3    H123643   4.223   4.441   4.057 -0.2994  0.3115 -1.2084
 7893TIP3    H223644   4.098   4.367   4.099  0.8724 -0.8759  0.2830
 7894TIP3   OH223645   4.698   3.614   0.049  0.4058  0.1346 -0.4915
 7894TIP3    H123646   4.632   3.563   0.096 -0.7288 -0.4031 -2.5561
 7894TIP3    H223647   4.767   3.629   0.114 -0.6995 -1.2263  1.0909
 7895TIP3   OH223648   2.972   4.015   0.266  0.0059  0.4221 -0.3311
 7895TIP3    H123649   2.883   4.028   0.234 -0.0041  1.3626  0.0604
 7895TIP3    H223650   3.028   4.048   0.196 -0.0261  4.1940  1.1789
 7896TIP3   OH223651   6.330   0.173   3.773  0.0897 -0.5790  0.1698
 7896TIP3    H123652   6.408   0.228   3.784  0.2641 -0.8133  0.0996
 7896TIP3    H223653   6.335   0.143   3.682 -0.2107 -0.4007  0.0931
 7897TIP3   OH223654   1.994   2.833   0.649 -0.0716  0.0391 -0.2117
 7897TIP3    H123655   1.908   2.792   0.636 -0.1317 -0.1066  0.6427
 7897TIP3    H223656   2.027   2.795   0.730  0.7445  0.2063 -0.4554
 7898TIP3   OH223657   4.689   5.146   5.243 -0.2505 -0.5192 -0.2008
 7898TIP3    H123658   4.649   5.159   5.329 -0.4263  0.6582 -0.4511
 7898TIP3    H223659   4.782   5.132   5.261 -0.5184 -1.8237  0.2783
 7899TIP3   OH223660   0.714   4.009   2.316 -0.0045 -0.1769 -0.6711
 7899TIP3    H123661   0.788   4.054   2.358 -0.0140  0.4190 -1.2654
 7899TIP3    H223662   0.739   3.917   2.315  0.8357  0.0457 -1.0484
 7900TIP3   OH223663   3.011   2.231   3.114 -0.4842  0.1136  0.8261
 7900TIP3    H123664   3.012   2.213   3.208  1.0119  0.1601  0.8511
 7900TIP3    H223665   3.009   2.145   3.073 -2.8510  0.0924  0.8430
 7901TIP3   OH223666   4.859   0.928   3.802  0.2816  0.4642  0.2231
 7901TIP3    H123667   4.858   0.851   3.859  1.0448 -0.3688 -0.8496
 7901TIP3    H223668   4.893   0.999   3.857 -2.2183  0.5676  1.8097
 7902TIP3   OH223669   7.151   0.538   1.357  0.2634  0.0233  0.7941
 7902TIP3    H123670   7.098   0.519   1.279 -0.3817  1.4000  0.8515
 7902TIP3    H223671   7.088   0.539   1.429  0.7640 -0.6634  1.2508
 7903TIP3   OH223672   5.286   4.731   3.324 -0.3599 -0.2819 -0.1223
 7903TIP3    H123673   5.369   4.737   3.371  0.6133 -0.8192 -1.6763
 7903TIP3    H223674   5.259   4.640   3.335  0.1239 -0.5436 -0.9370
 7904TIP3   OH223675   3.813   1.270   1.446 -0.2046  0.2210 -0.0429
 7904TIP3    H123676   3.807   1.228   1.532 -1.6876  0.0494 -0.2070
 7904TIP3    H223677   3.722   1.281   1.418  0.2615 -0.0925 -1.7743
 7905TIP3   OH223678   6.918   6.496   0.847  0.4495 -0.3505  0.7950
 7905TIP3    H123679   6.951   6.561   0.909 -2.0734  1.2424  0.6442
 7905TIP3    H223680   6.823   6.499   0.859  0.1357 -2.6327 -0.6396
 7906TIP3   OH223681   4.549   0.153   3.739 -0.8528  0.3305 -0.8399
 7906TIP3    H123682   4.570   0.239   3.703  2.2007  1.0781  2.2643
 7906TIP3    H223683   4.501   0.171   3.819 -0.3721 -0.8444 -0.2613
 7907TIP3   OH223684   3.839   3.903   2.640  0.0914  1.0961 -0.3152
 7907TIP3    H123685   3.873   3.950   2.563 -0.1634  0.5496 -0.7645
 7907TIP3    H223686   3.849   3.811   2.618 -1.8135  0.9175 -0.5263
 7908TIP3   OH223687   4.889   2.245   4.057 -0.4835 -0.1578  0.6088
 7908TIP3    H123688   4.965   2.257   4.114  0.4885  0.9350 -0.8699
 7908TIP3    H223689   4.903   2.159   4.017 -0.8160 -0.6217  1.4656
 7909TIP3   OH223690   1.108   0.330   3.178  0.2277 -0.1917 -0.0066
 7909TIP3    H123691   1.084   0.272   3.251  0.0882  0.5774  0.5727
 7909TIP3    H223692   1.063   0.412   3.198  3.3810  1.4025  1.2193
 7910TIP3   OH223693   3.629   3.194   5.056  0.1687  0.5037  0.0295
 7910TIP3    H123694   3.621   3.283   5.020 -0.9567 -0.4792 -2.3716
 7910TIP3    H223695   3.723   3.178   5.061  0.4362  2.2957  1.8701
 7911TIP3   OH223696   5.946   3.812   4.264  0.3547 -0.0744 -0.7387
 7911TIP3    H123697   5.863   3.843   4.300 -0.5200 -1.3193 -1.6193
 7911TIP3    H223698   5.974   3.742   4.323  0.4095 -0.1410 -0.8424
 7912TIP3   OH223699   3.551   6.083   1.410 -0.2432  0.3297  0.0459
 7912TIP3    H123700   3.473   6.030   1.392  1.2086 -1.6317 -0.8900
 7912TIP3    H223701   3.554   6.145   1.338 -0.3705 -0.2933 -0.5107
 7913TIP3   OH223702   4.143   0.566   3.584  0.8196  0.5056 -0.3334
 7913TIP3    H123703   4.197   0.507   3.531 -0.0813  0.3108 -1.0518
 7913TIP3    H223704   4.106   0.510   3.652 -0.1644  0.1880 -1.1109
 7914TIP3   OH223705   2.448   4.752   4.331 -0.1988 -0.3373 -0.2103
 7914TIP3    H123706   2.426   4.775   4.421 -0.9035 -1.3871 -0.0932
 7914TIP3    H223707   2.507   4.822   4.301 -0.3782  0.2942  0.8819
 7915TIP3   OH223708   4.320   2.694   0.996 -0.3485  0.3124  0.2750
 7915TIP3    H123709   4.384   2.629   0.966  0.5025  0.9975  0.5640
 7915TIP3    H223710   4.268   2.647   1.061  2.5262  0.7710  3.1993
 7916TIP3   OH223711   1.017   3.135   2.829 -0.8177 -0.2016 -0.6095
 7916TIP3    H123712   0.963   3.201   2.787  0.5617  0.9833 -0.5959
 7916TIP3    H223713   1.103   3.144   2.788 -0.5386 -1.8419 -0.4412
 7917TIP3   OH223714   6.990   3.813   0.019 -0.3849  0.2703  0.5318
 7917TIP3    H123715   7.083   3.790   0.016  0.1634  2.4021 -0.4663
 7917TIP3    H223716   6.956   3.763   0.094  1.3372 -1.2251  0.4006
 7918TIP3   OH223717   1.508   2.718   5.379 -0.4804  0.3048  0.5738
 7918TIP3    H123718   1.569   2.752   5.314 -2.5358  0.8871 -1.1407
 7918TIP3    H223719   1.564   2.672   5.442  1.6542  0.3177 -1.1961
 7919TIP3   OH223720   0.569   1.294   3.900  0.3225 -0.5611  0.0833
 7919TIP3    H123721   0.548   1.202   3.921 -2.5698 -0.4215 -1.5924
 7919TIP3    H223722   0.544   1.342   3.979 -2.1282 -0.8802 -0.4186
 7920TIP3   OH223723   4.466   0.983   3.811 -0.5133 -0.0176  0.0259
 7920TIP3    H123724   4.391   0.966   3.755  0.3277 -0.3824 -1.0320
 7920TIP3    H223725   4.541   0.983   3.751  0.4920 -0.9998  1.2177
 7921TIP3   OH223726   4.973   5.168   2.364 -0.5061 -1.1551  0.6388
 7921TIP3    H123727   4.998   5.248   2.317  2.2674 -2.6147 -0.5966
 7921TIP3    H223728   4.981   5.191   2.456 -1.8401  0.5585  0.3786
 7922TIP3   OH223729   0.376   4.103   1.296 -0.2586  0.0038 -0.2173
 7922TIP3    H123730   0.319   4.032   1.267 -0.8992  0.7491 -0.8098
 7922TIP3    H223731   0.463   4.077   1.269 -0.5042 -0.5006 -0.5320
 7923TIP3   OH223732   4.685   2.917   3.253 -0.0336 -0.6910  0.0194
 7923TIP3    H123733   4.720   2.967   3.328 -0.5715  1.0495 -0.8375
 7923TIP3    H223734   4.621   2.858   3.292 -1.1737  0.9983  0.8834
 7924TIP3   OH223735   6.301   3.003   0.753  0.7419 -0.3970  0.0241
 7924TIP3    H123736   6.341   3.065   0.814  1.7772 -0.5029 -0.5305
 7924TIP3    H223737   6.356   3.007   0.675 -1.1376  0.5196 -1.3565
 7925TIP3   OH223738   6.067   6.113   2.345 -0.0301  0.2714 -0.7699
 7925TIP3    H123739   6.009   6.061   2.400  0.1059  0.8428 -0.0622
 7925TIP3    H223740   6.044   6.089   2.256  0.6096 -1.6456 -0.4843
 7926TIP3   OH223741   3.292   2.334   5.336  0.5888 -0.0654  0.0224
 7926TIP3    H123742   3.210   2.367   5.372 -0.8645 -2.8337 -0.5316
 7926TIP3    H223743   3.353   2.335   5.410 -1.0531 -1.4345  1.4796
 7927TIP3   OH223744   1.339   1.148   3.002  0.0882  0.0835  0.5948
 7927TIP3    H123745   1.280   1.168   3.074 -0.4425 -0.6430  0.3791
 7927TIP3    H223746   1.282   1.121   2.931  0.6868 -2.1690  0.8707
 7928TIP3   OH223747   1.613   5.402   3.133 -0.2878 -0.5359 -0.2436
 7928TIP3    H123748   1.686   5.411   3.072  0.5368 -0.7475  0.7071
 7928TIP3    H223749   1.652   5.376   3.216 -1.1004  2.1215  1.1052
 7929TIP3   OH223750   2.271   5.977   1.315  0.2754 -0.4214  0.1618
 7929TIP3    H123751   2.213   5.902   1.327 -0.1593 -0.2805 -0.9727
 7929TIP3    H223752   2.254   6.032   1.391 -0.9271 -0.4914 -0.0336
 7930TIP3   OH223753   4.455   6.078   1.955 -0.2734 -0.0469 -0.3523
 7930TIP3    H123754   4.377   6.122   1.923 -0.0813 -0.6724 -1.7586
 7930TIP3    H223755   4.528   6.122   1.911 -0.0465 -1.3323 -1.3509
 7931TIP3   OH223756   6.650  -0.016   2.042 -0.0759 -0.1688 -0.0741
 7931TIP3    H123757   6.633   0.047   2.112 -1.9880  0.1072 -0.7238
 7931TIP3    H223758   6.569  -0.017   1.991  0.6307 -1.7026 -1.2351
 7932TIP3   OH223759   2.405   0.759   2.686  0.1962 -0.2429 -0.4688
 7932TIP3    H123760   2.492   0.719   2.685  0.7424  0.8710  0.5035
 7932TIP3    H223761   2.417   0.845   2.644 -0.8907 -0.8851 -2.2446
 7933TIP3   OH223762   0.060   1.787   3.637  0.4048 -0.2972 -0.0902
 7933TIP3    H123763   0.081   1.800   3.730  0.6552 -0.4354 -0.1275
 7933TIP3    H223764  -0.004   1.715   3.638 -1.3534  1.1796  0.1540
 7934TIP3   OH223765   2.713   0.596   5.755  0.1989 -0.0053  0.4470
 7934TIP3    H123766   2.807   0.580   5.760  0.1002 -0.5914  0.4892
 7934TIP3    H223767   2.677   0.551   5.832 -0.0829  0.4921  0.6117
 7935TIP3   OH223768   2.653   6.289   4.089  0.4354  0.7208  0.1977
 7935TIP3    H123769   2.597   6.244   4.152  0.2645 -1.8444 -1.6618
 7935TIP3    H223770   2.738   6.247   4.098  0.8645  1.5064 -0.1179
 7936TIP3   OH223771   4.675   6.676   4.571  0.3818  0.0861 -0.3549
 7936TIP3    H123772   4.637   6.704   4.488  1.4531 -0.0514 -0.9096
 7936TIP3    H223773   4.604   6.630   4.616  0.5248 -2.3296 -2.4075
 7937TIP3   OH223774   1.996   5.850   1.979  0.0566 -0.2445 -0.5006
 7937TIP3    H123775   1.939   5.822   1.908  0.4096  0.2461 -0.9921
 7937TIP3    H223776   1.980   5.945   1.987  0.9007 -0.0691 -0.7570
 7938TIP3   OH223777   4.325   1.445   2.583 -0.3540 -0.5978 -0.6056
 7938TIP3    H123778   4.230   1.445   2.594 -0.4053 -1.6335 -0.9774
 7938TIP3    H223779   4.339   1.444   2.489  0.0264 -0.4773 -0.5528
 7939TIP3   OH223780   4.684   4.276   3.687 -0.3909  0.4067 -0.3301
 7939TIP3    H123781   4.664   4.315   3.603 -2.8793 -0.4778 -0.2281
 7939TIP3    H223782   4.598   4.257   3.727  0.6594 -1.8703  1.1124
 7940TIP3   OH223783   6.667   2.796   4.748 -0.9773  0.2685  0.5346
 7940TIP3    H123784   6.598   2.838   4.696  0.3790  1.2017 -0.5884
 7940TIP3    H223785   6.698   2.864   4.806  0.7692  0.6928 -0.8158
 7941TIP3   OH223786   5.138   2.325   1.352  0.2908  0.0001  0.3192
 7941TIP3    H123787   5.060   2.351   1.400 -0.5143 -2.6893  0.6212
 7941TIP3    H223788   5.135   2.376   1.271 -1.6056  0.1866  0.4731
 7942TIP3   OH223789   5.120   1.683   2.716  0.3019 -0.6013 -0.6364
 7942TIP3    H123790   5.096   1.681   2.623 -1.7633  0.6243 -0.1977
 7942TIP3    H223791   5.111   1.775   2.741  1.0221 -0.8835  0.7454
 7943TIP3   OH223792   7.072   2.457   1.647 -0.3653 -0.0581 -0.6504
 7943TIP3    H123793   7.068   2.486   1.738 -0.5303 -0.2127 -0.6083
 7943TIP3    H223794   7.071   2.538   1.596  0.9892  0.0889 -0.4843
 7944TIP3   OH223795   0.141   2.381   2.503 -0.4181  0.0516 -0.4828
 7944TIP3    H123796   0.053   2.408   2.478 -0.4439  1.7070  1.1826
 7944TIP3    H223797   0.175   2.455   2.554  1.8968 -0.5879 -0.9892
 7945TIP3   OH223798   6.970   3.378   1.794 -0.1494  0.1384  0.2948
 7945TIP3    H123799   7.044   3.325   1.766 -1.0516 -0.7919 -0.3882
 7945TIP3    H223800   6.965   3.449   1.730 -0.4036 -0.3258 -0.2112
 7946TIP3   OH223801   1.856   1.298   4.848 -0.2236  0.4031 -0.2828
 7946TIP3    H123802   1.820   1.352   4.919  1.2794  0.9625  0.0875
 7946TIP3    H223803   1.803   1.219   4.849 -1.0012  0.9163  0.6749
 7947TIP3   OH223804   6.250   5.699   4.264  0.1948 -0.2071 -0.3184
 7947TIP3    H123805   6.238   5.734   4.177  0.4934  0.8751  0.0676
 7947TIP3    H223806   6.202   5.758   4.322  0.3115 -0.6902  0.2982
 7948TIP3   OH223807   2.617   5.082   5.126  0.3590 -0.1816 -0.3426
 7948TIP3    H123808   2.570   5.005   5.158 -0.8277  0.6537 -0.0278
 7948TIP3    H223809   2.605   5.081   5.031 -2.1649  1.1522 -0.1205
 7949TIP3   OH223810   5.553   6.563   2.932  0.2291  0.8554  0.0067
 7949TIP3    H123811   5.592   6.646   2.905  0.8399  0.0944 -1.5880
 7949TIP3    H223812   5.615   6.526   2.994  2.0833 -0.2566 -2.3630
 7950TIP3   OH223813   5.614   1.554   1.260 -0.2558  0.0162  0.3419
 7950TIP3    H123814   5.618   1.469   1.304  1.0102  0.1209  0.4509
 7950TIP3    H223815   5.640   1.535   1.170 -0.2435  0.2448  0.2966
 7951TIP3   OH223816   5.714   1.544   2.844 -0.0349 -0.1300 -0.0865
 7951TIP3    H123817   5.624   1.555   2.876 -0.4157  0.1345 -1.1891
 7951TIP3    H223818   5.722   1.450   2.827  0.3769 -0.3723  1.3111
 7952TIP3   OH223819   2.413   3.288   2.445 -0.1913 -0.4969  0.0010
 7952TIP3    H123820   2.440   3.346   2.374 -0.8983 -0.8734 -0.5944
 7952TIP3    H223821   2.490   3.235   2.463  0.2596  0.1883  0.1081
 7953TIP3   OH223822   1.401   5.644   5.456  0.3256 -0.5544 -0.1158
 7953TIP3    H123823   1.338   5.695   5.507  0.0133 -2.1204  1.1413
 7953TIP3    H223824   1.475   5.704   5.444 -1.1601  1.1763 -1.2588
 7954TIP3   OH223825   7.057   6.276   4.182 -0.2684  0.5545  0.5843
 7954TIP3    H123826   7.027   6.209   4.120 -1.5144  0.5651  1.1451
 7954TIP3    H223827   7.137   6.311   4.143 -1.8205  1.6535 -1.8160
 7955TIP3   OH223828   2.067   4.319   1.456  0.1215 -0.6433  0.4273
 7955TIP3    H123829   2.149   4.304   1.410 -0.2944  0.5697 -0.7835
 7955TIP3    H223830   2.080   4.280   1.542  2.0869 -0.1588  0.3901
 7956TIP3   OH223831   1.157   0.761   1.834 -0.2604 -0.3538  0.7456
 7956TIP3    H123832   1.201   0.680   1.805  0.1305 -0.1825  0.8501
 7956TIP3    H223833   1.097   0.732   1.902  1.5422 -0.2835  2.4563
 7957TIP3   OH223834   2.582   3.859   1.852 -0.3810 -0.0447 -0.3514
 7957TIP3    H123835   2.540   3.911   1.921 -1.1898 -1.3564  0.1781
 7957TIP3    H223836   2.528   3.780   1.845  0.3274 -0.4428 -1.7293
 7958TIP3   OH223837   4.716   2.070   2.827  0.0683 -0.8323  0.0905
 7958TIP3    H123838   4.719   2.115   2.912 -3.7436  2.1188 -1.0602
 7958TIP3    H223839   4.668   1.989   2.844  2.1064 -1.9066  1.1740
 7959TIP3   OH223840   6.184   5.915   5.432 -0.5913 -0.4342  0.6905
 7959TIP3    H123841   6.140   5.961   5.504 -0.7856  0.4646  0.0171
 7959TIP3    H223842   6.184   5.979   5.360  1.0354 -0.7399  0.3982
 7960TIP3   OH223843   4.387   5.195   2.677 -0.2354  0.0354 -0.5364
 7960TIP3    H123844   4.346   5.204   2.591 -1.5695  0.2062  0.0840
 7960TIP3    H223845   4.440   5.275   2.686  0.7886 -0.4857 -1.6137
 7961TIP3   OH223846   1.141   1.250   4.341 -0.1223 -0.4226 -0.4330
 7961TIP3    H123847   1.062   1.255   4.396 -0.0468  2.0308 -0.4486
 7961TIP3    H223848   1.213   1.243   4.404 -0.2013 -0.3517 -0.3344
 7962TIP3   OH223849   7.043   4.042   0.527 -0.0907  0.0956  0.4107
 7962TIP3    H123850   7.093   4.012   0.451 -0.3775  4.0886 -1.6417
 7962TIP3    H223851   7.109   4.071   0.590  0.1318 -2.7569  1.6607
 7963TIP3   OH223852   3.315   0.107   1.279 -0.5130  0.0468 -0.3388
 7963TIP3    H123853   3.392   0.145   1.319  0.5972 -0.2426 -2.0879
 7963TIP3    H223854   3.281   0.046   1.344 -0.3038  1.4564  1.1329
 7964TIP3   OH223855   3.435   3.636   3.895  0.0172  0.1829  0.2485
 7964TIP3    H123856   3.374   3.709   3.887  1.0997  1.0147 -1.0221
 7964TIP3    H223857   3.518   3.672   3.864  1.3390 -0.7112  2.5599
 7965TIP3   OH223858   1.479   1.490   5.837 -0.3676 -0.1520 -0.0652
 7965TIP3    H123859   1.525   1.573   5.822  1.3281 -1.1365 -0.5723
 7965TIP3    H223860   1.495   1.470   5.930  2.1158 -1.4916 -0.6821
 7966TIP3   OH223861   6.302   3.031   3.306  0.1088 -0.5444 -0.4280
 7966TIP3    H123862   6.277   3.116   3.268  0.2624  0.7150  2.0565
 7966TIP3    H223863   6.397   3.028   3.296  0.3710  0.6095  1.2840
 7967TIP3   OH223864   4.133   6.786   2.363 -0.7655  0.3013 -0.4520
 7967TIP3    H123865   4.068   6.726   2.325 -0.0480  0.1910 -1.5680
 7967TIP3    H223866   4.110   6.792   2.455 -1.3644 -1.0497 -0.4886
 7968TIP3   OH223867   5.063   2.230   3.598 -0.8091  0.4958  0.4475
 7968TIP3    H123868   5.108   2.304   3.558 -0.0334  0.5525  1.3947
 7968TIP3    H223869   4.992   2.270   3.650  0.3634  0.7074  1.9603
 7969TIP3   OH223870   3.592   2.063   5.591 -0.3381  0.0933 -0.0439
 7969TIP3    H123871   3.682   2.086   5.611 -0.3260 -1.1901  1.5166
 7969TIP3    H223872   3.595   2.026   5.502  0.0518  3.2994 -1.5031
 7970TIP3   OH223873   6.062   6.684   0.074 -0.0542 -0.4896 -0.1289
 7970TIP3    H123874   6.129   6.717   0.134 -0.2299 -2.8080  1.5088
 7970TIP3    H223875   6.110   6.655  -0.003  0.5433 -0.1598  0.1144
 7971TIP3   OH223876   1.320   6.305   3.214 -0.4591  0.1628  0.1327
 7971TIP3    H123877   1.253   6.373   3.216 -1.9430 -1.2426  1.4125
 7971TIP3    H223878   1.365   6.313   3.298  0.0912  0.2229 -0.1593
 7972TIP3   OH223879   6.362   2.983   1.159 -0.4727 -0.1844  0.2153
 7972TIP3    H123880   6.382   2.911   1.218 -0.4566 -1.2621 -1.0619
 7972TIP3    H223881   6.408   3.058   1.195  0.5626 -1.1159  0.8682
 7973TIP3   OH223882   1.293   2.133   4.840 -0.1117  0.6678  0.7107
 7973TIP3    H123883   1.290   2.176   4.755  0.3230  1.2542  0.9886
 7973TIP3    H223884   1.314   2.203   4.902 -0.6696  0.2924  1.3323
 7974TIP3   OH223885   5.928   1.380   2.987  0.2946 -0.1850  0.4038
 7974TIP3    H123886   5.848   1.337   2.955 -0.1571 -1.2215  2.7061
 7974TIP3    H223887   5.999   1.325   2.955 -0.1751 -1.5460  1.5941
 7975TIP3   OH223888   5.439   0.876   4.573  0.5094 -0.5242 -0.4254
 7975TIP3    H123889   5.449   0.921   4.657  0.3559 -0.9037 -0.2003
 7975TIP3    H223890   5.366   0.815   4.587 -1.2082  1.1582 -1.5795
 7976TIP3   OH223891   7.047   1.960   1.114 -0.3229 -0.1852  0.4596
 7976TIP3    H123892   7.113   1.981   1.181 -0.3100  0.9020  0.1165
 7976TIP3    H223893   7.092   1.899   1.055  0.1277 -0.0548  0.6634
 7977TIP3   OH223894   6.572   2.052   3.069  0.4392 -0.0021  0.5142
 7977TIP3    H123895   6.556   2.054   2.975  0.8583  2.9350  0.4192
 7977TIP3    H223896   6.667   2.061   3.078  0.5534 -1.5146  1.2638
 7978TIP3   OH223897   6.509   0.956   5.763  0.0260 -0.5654  0.6720
 7978TIP3    H123898   6.500   0.986   5.853  1.8004 -1.6062  1.2343
 7978TIP3    H223899   6.464   0.871   5.762 -0.0596 -0.5193  0.5442
 7979TIP3   OH223900   5.554   6.526   0.155  0.3685  0.3300  0.3591
 7979TIP3    H123901   5.460   6.511   0.161  0.0959  0.6415 -2.1733
 7979TIP3    H223902   5.562   6.618   0.129  1.1957 -0.3790 -2.1148
 7980TIP3   OH223903   5.786   0.248   4.873 -0.4369  0.7591 -0.2531
 7980TIP3    H123904   5.853   0.192   4.912 -0.4366  1.0833  0.2056
 7980TIP3    H223905   5.718   0.186   4.844 -0.9518  0.5902  1.2438
 7981TIP3   OH223906   4.323   2.361   2.811  0.6871  0.1859 -0.1970
 7981TIP3    H123907   4.410   2.345   2.775  1.9344 -0.3982  2.8013
 7981TIP3    H223908   4.285   2.274   2.821  0.7071  0.2648  0.6190
 7982TIP3   OH223909   0.766   0.836   3.055 -0.4342  0.0723 -0.1307
 7982TIP3    H123910   0.851   0.878   3.045  0.3737 -1.5179 -0.2282
 7982TIP3    H223911   0.784   0.742   3.049 -1.8596 -0.4286  2.1078
 7983TIP3   OH223912   3.593   1.020   0.047  0.0846 -0.5027 -0.0661
 7983TIP3    H123913   3.686   1.039   0.038  0.1216  0.0526  1.2094
 7983TIP3    H223914   3.553   1.056  -0.031  1.0499 -1.6960 -1.1554
 7984TIP3   OH223915   2.676   4.432   1.686  0.2023  0.0810 -0.4739
 7984TIP3    H123916   2.617   4.463   1.755  1.7620  1.9670  0.0825
 7984TIP3    H223917   2.751   4.396   1.733  0.1589 -1.0220 -1.1979
 7985TIP3   OH223918   4.636   5.346   3.490 -0.1478 -0.1970  0.7826
 7985TIP3    H123919   4.666   5.379   3.574  1.4006  1.1344 -0.2291
 7985TIP3    H223920   4.642   5.251   3.497  0.3631 -0.0822  2.0341
 7986TIP3   OH223921   4.496   6.001   0.122  0.3583 -0.1939  0.0015
 7986TIP3    H123922   4.500   5.906   0.119  1.1382 -0.1650 -0.2256
 7986TIP3    H223923   4.416   6.024   0.075  0.5011 -0.7139 -0.4996
 7987TIP3   OH223924   4.966   5.554   0.801  0.0522  0.2204  0.4257
 7987TIP3    H123925   4.976   5.462   0.779  0.6466  0.7550 -1.7736
 7987TIP3    H223926   5.045   5.576   0.849  0.7303 -0.0300 -0.5525
 7988TIP3   OH223927   4.681   5.243   2.507  0.3384  0.4658  0.3567
 7988TIP3    H123928   4.658   5.285   2.424 -1.5575 -0.1129  0.5436
 7988TIP3    H223929   4.697   5.316   2.567  1.4215  0.8861 -0.4093
 7989TIP3   OH223930   1.856   6.041   5.608 -0.0717  0.1952  0.2054
 7989TIP3    H123931   1.859   5.967   5.548 -1.1726  0.3406 -0.0470
 7989TIP3    H223932   1.810   6.008   5.685 -0.4082  0.5640  0.1663
 7990TIP3   OH223933   3.796   5.492   2.704  0.0147  0.0720  0.1683
 7990TIP3    H123934   3.737   5.446   2.765  0.3852 -0.5647  0.0538
 7990TIP3    H223935   3.758   5.476   2.618  0.7397 -0.9511  0.0233
 7991TIP3   OH223936   4.686   5.611   1.410 -0.6394  0.0963  0.1411
 7991TIP3    H123937   4.639   5.580   1.488 -0.9162 -1.0028 -0.4350
 7991TIP3    H223938   4.765   5.557   1.407 -0.4806  0.3416 -0.1767
 7992TIP3   OH223939   1.168   0.434   4.788  0.6330  0.2447  0.1446
 7992TIP3    H123940   1.243   0.423   4.730  1.6131  0.7144  1.2910
 7992TIP3    H223941   1.136   0.344   4.802 -0.5888  0.2319 -2.2970
 7993TIP3   OH223942   4.813   1.483   4.513  0.0516 -0.1643  0.7305
 7993TIP3    H123943   4.906   1.459   4.520  0.2303  0.7454  1.9431
 7993TIP3    H223944   4.801   1.506   4.421  1.2523  0.4980  0.7189
 7994TIP3   OH223945   3.507   4.607   1.669  0.1157  0.4746  0.1800
 7994TIP3    H123946   3.413   4.624   1.668  0.0286  0.0192 -0.0443
 7994TIP3    H223947   3.524   4.568   1.583  0.4513  0.2711  0.3379
 7995TIP3   OH223948   6.856   0.985   0.170 -0.2284 -0.9209  0.1708
 7995TIP3    H123949   6.895   1.051   0.112 -0.9187 -1.2472 -0.6932
 7995TIP3    H223950   6.802   1.035   0.231  0.5347 -0.5699  0.5782
 7996TIP3   OH223951   6.145   0.478   3.769 -0.0689 -0.2569  0.0784
 7996TIP3    H123952   6.164   0.406   3.708 -1.4125  0.0190 -0.7153
 7996TIP3    H223953   6.170   0.445   3.855  0.0808 -1.3770 -0.3854
 7997TIP3   OH223954   2.375   5.043   0.138  0.3948 -0.3794  0.0429
 7997TIP3    H123955   2.433   5.094   0.195 -0.3807  0.4931  0.0756
 7997TIP3    H223956   2.388   4.952   0.166  1.5000 -0.1684  0.2601
 7998TIP3   OH223957   2.890   2.780   2.436 -0.1737 -0.8090  0.0878
 7998TIP3    H123958   2.938   2.799   2.516 -0.3840  0.6320 -0.0969
 7998TIP3    H223959   2.812   2.835   2.441 -0.6955 -1.4593 -0.6380
 7999TIP3   OH223960   6.643   5.915   1.758 -0.3521  0.1323  0.6664
 7999TIP3    H123961   6.665   5.856   1.686 -0.6772  0.7347  0.0629
 7999TIP3    H223962   6.673   5.870   1.837 -0.9760 -1.0162  0.2588
 8000TIP3   OH223963   2.075   4.852   4.742  0.3425  0.2586 -0.1372
 8000TIP3    H123964   2.124   4.935   4.743  1.3181 -0.2968 -0.4657
 8000TIP3    H223965   2.014   4.861   4.669  1.0400  0.3662 -0.7182
 8001TIP3   OH223966   4.287   4.254   0.153 -0.6469 -0.9325  0.5596
 8001TIP3    H123967   4.284   4.225   0.062 -3.7600  0.1730  0.1983
 8001TIP3    H223968   4.304   4.174   0.204 -0.3843 -1.8169 -0.8723
 8002TIP3   OH223969   6.665   5.336   3.100  0.2628  0.2230 -0.0494
 8002TIP3    H123970   6.741   5.290   3.063  2.2113  1.3098  2.3363
 8002TIP3    H223971   6.624   5.378   3.025  1.6856 -0.8431 -1.4992
 8003TIP3   OH223972   2.129   0.754   4.630  0.1320  0.7353  0.8451
 8003TIP3    H123973   2.138   0.716   4.718  0.1386 -1.2621  0.0375
 8003TIP3    H223974   2.218   0.773   4.603  0.1669  0.9539  1.1147
 8004TIP3   OH223975   4.735   6.578   0.547  0.0234  0.0688 -0.4446
 8004TIP3    H123976   4.676   6.650   0.568  0.7641  1.7293 -3.4706
 8004TIP3    H223977   4.692   6.531   0.476  0.8663 -0.6954 -0.4662
 8005TIP3   OH223978   4.513   1.398   1.462 -0.0377 -0.1292 -0.4610
 8005TIP3    H123979   4.474   1.326   1.511  0.8874  0.2118  0.8322
 8005TIP3    H223980   4.475   1.391   1.374  0.4915 -2.5536 -0.5547
 8006TIP3   OH223981   6.494   1.326   0.369 -0.1574  0.2134 -0.3088
 8006TIP3    H123982   6.469   1.412   0.401  1.3937  0.2158  1.0027
 8006TIP3    H223983   6.418   1.270   0.389 -0.3052  0.8062  0.8377
 8007TIP3   OH223984   1.989   5.700   0.713  0.5597  0.0561  0.2025
 8007TIP3    H123985   2.009   5.772   0.772  0.2522  0.7763 -0.5539
 8007TIP3    H223986   2.038   5.719   0.634 -0.5111  0.1087 -0.4670
 8008TIP3   OH223987   3.612   3.802   4.912 -0.0513  0.1864 -0.2480
 8008TIP3    H123988   3.695   3.777   4.873 -0.3463 -1.1382 -0.0831
 8008TIP3    H223989   3.633   3.824   5.003  0.0856 -0.4119 -0.1309
 8009TIP3   OH223990   2.462   2.171   1.687  0.4598  0.3702  0.0151
 8009TIP3    H123991   2.402   2.097   1.682  1.4577 -0.3944 -1.9105
 8009TIP3    H223992   2.410   2.247   1.663 -0.1851  0.0291  0.3285
 8010TIP3   OH223993   4.067   3.960   5.478 -0.4654 -0.6058  0.4064
 8010TIP3    H123994   4.152   4.004   5.471 -0.4182 -0.6572  0.6429
 8010TIP3    H223995   4.081   3.891   5.543 -0.4462 -1.1804 -0.1848
 8011TIP3   OH223996   6.366   4.097   2.253 -0.3688 -0.4202 -0.1751
 8011TIP3    H123997   6.368   4.006   2.224  1.8201 -0.2512 -0.7448
 8011TIP3    H223998   6.381   4.092   2.348 -1.8004 -0.6910  0.0600
 8012TIP3   OH223999   6.573   4.322   4.794 -0.4486 -0.1368 -0.7238
 8012TIP3    H124000   6.590   4.411   4.763  0.7857  0.0109  0.2664
 8012TIP3    H224001   6.512   4.285   4.730 -1.2741  1.5342 -0.9580
 8013TIP3   OH224002   3.929   0.774   3.466  0.3796 -0.0414  0.3852
 8013TIP3    H124003   3.989   0.757   3.393  0.6116 -0.4396  0.6641
 8013TIP3    H224004   3.967   0.727   3.539 -0.5796 -0.7632  0.4323
 8014TIP3   OH224005   5.420   5.686   0.498 -0.0528  0.3631 -0.1335
 8014TIP3    H124006   5.359   5.714   0.567  2.2519 -0.4863  2.4264
 8014TIP3    H224007   5.390   5.731   0.420 -3.6340  0.3602  1.0697
 8015TIP3   OH224008   3.820   3.286   0.130 -0.6640 -0.4644 -0.0446
 8015TIP3    H124009   3.758   3.357   0.117 -1.4894 -1.5269 -2.5114
 8015TIP3    H224010   3.901   3.317   0.088 -0.2949 -0.0959  0.9158
 8016TIP3   OH224011   7.184   2.558   4.334 -0.1838  0.1584 -0.2358
 8016TIP3    H124012   7.205   2.547   4.242  0.6737  0.1343 -0.0396
 8016TIP3    H224013   7.097   2.518   4.344 -1.0317  1.6152 -1.3665
 8017TIP3   OH224014   1.790   4.538   5.351  0.0244  0.5245  0.1746
 8017TIP3    H124015   1.814   4.628   5.374 -1.3081  1.0478 -0.4295
 8017TIP3    H224016   1.737   4.507   5.425 -0.0704  0.4616  0.0803
 8018TIP3   OH224017   0.111   6.649   0.271 -0.6998 -0.3069  0.3580
 8018TIP3    H124018   0.072   6.604   0.345 -0.8894 -1.0581 -0.1881
 8018TIP3    H224019   0.203   6.661   0.296 -0.3383 -2.0922  0.0478
 8019TIP3   OH224020   6.230   1.229   1.729  0.2513 -0.2234  0.0587
 8019TIP3    H124021   6.266   1.300   1.783 -0.3141 -1.0629  1.5862
 8019TIP3    H224022   6.148   1.265   1.695  1.8019  1.2483 -2.4400
 8020TIP3   OH224023   7.097   6.156   3.271  0.4955 -0.1188  0.2197
 8020TIP3    H124024   7.192   6.153   3.257  0.5200  1.2315 -0.0764
 8020TIP3    H224025   7.060   6.131   3.186  0.6377  2.2407 -0.6254
 8021TIP3   OH224026   2.177   1.614   5.071  0.3528 -0.4342  0.2148
 8021TIP3    H124027   2.165   1.521   5.089  0.2395 -0.3949  0.3463
 8021TIP3    H224028   2.096   1.641   5.028  0.9451 -0.7088 -1.1198
 8022TIP3   OH224029   1.072   2.678   1.297 -0.5164  0.1569 -0.2864
 8022TIP3    H124030   1.049   2.616   1.366  1.1711 -2.3940 -1.8762
 8022TIP3    H224031   1.106   2.754   1.345 -1.4307 -0.6104  1.7051
 8023TIP3   OH224032   2.265   5.044   3.258 -0.3067  0.4614  0.3113
 8023TIP3    H124033   2.309   5.098   3.193 -0.7640  0.7829  0.2621
 8023TIP3    H224034   2.332   5.025   3.324  0.0251  0.5418 -0.0018
 8024TIP3   OH224035   1.566   1.114   4.563  0.6298  0.6836  0.0786
 8024TIP3    H124036   1.529   1.158   4.639  1.6720  1.4504  0.1622
 8024TIP3    H224037   1.581   1.024   4.592  0.3854  0.7976  0.5617
 8025TIP3   OH224038   4.947   1.711   0.937  0.4962 -0.1636  0.4182
 8025TIP3    H124039   4.958   1.794   0.892  1.7325  0.1167  1.1741
 8025TIP3    H224040   4.857   1.684   0.917  0.5962  0.5586 -1.1281
 8026TIP3   OH224041   1.356   0.987   1.983  0.4247  0.3238 -0.3069
 8026TIP3    H124042   1.342   0.945   2.067 -1.6351 -1.3432 -1.3753
 8026TIP3    H224043   1.280   1.043   1.971  1.0154  1.0440 -0.7775
 8027TIP3   OH224044   1.977   6.695   0.492 -0.3192 -0.1561  0.3374
 8027TIP3    H124045   1.882   6.693   0.484 -0.4087 -0.6833  1.3467
 8027TIP3    H224046   2.001   6.605   0.516  0.6364 -0.5259 -1.8146
 8028TIP3   OH224047   6.348   1.607   2.121  0.0964  0.3102  0.3769
 8028TIP3    H124048   6.296   1.619   2.200 -0.6399 -1.3173  0.1726
 8028TIP3    H224049   6.407   1.535   2.142 -0.1221 -0.1558 -0.5619
 8029TIP3   OH224050   2.906   2.770   3.084 -0.4047 -0.3047  0.1109
 8029TIP3    H124051   2.888   2.850   3.036 -2.5655 -0.9341 -0.2432
 8029TIP3    H224052   2.904   2.701   3.018  0.0658 -0.8039  0.6037
 8030TIP3   OH224053   1.973   0.330   0.310  0.2496  0.2982  0.2417
 8030TIP3    H124054   2.065   0.353   0.296  0.7775 -1.7650  0.0073
 8030TIP3    H224055   1.977   0.245   0.354 -1.5693  0.1284  0.1222
 8031TIP3   OH224056   2.225   3.808   0.175 -0.4076 -0.1437 -0.2566
 8031TIP3    H124057   2.202   3.813   0.268 -0.5870  0.6921 -0.3410
 8031TIP3    H224058   2.252   3.717   0.162  0.2990 -0.0981  0.7742
 8032TIP3   OH224059   1.241   4.201   1.823  0.1016  0.2786 -0.1464
 8032TIP3    H124060   1.301   4.223   1.752 -0.3433 -0.8344 -0.9055
 8032TIP3    H224061   1.270   4.114   1.852  0.1660  0.6402  0.9356
 8033TIP3   OH224062   0.789   6.168   0.830  0.0766  0.6944  0.4176
 8033TIP3    H124063   0.801   6.195   0.921  1.2083 -0.0166  0.5080
 8033TIP3    H224064   0.771   6.249   0.782  3.6775  1.8102  0.6182
 8034TIP3   OH224065   6.158   2.826   5.836  0.2537  0.6179  0.4544
 8034TIP3    H124066   6.229   2.852   5.895  2.7334 -2.8027 -0.6783
 8034TIP3    H224067   6.098   2.776   5.892  1.1528 -0.2803  0.6486
 8035TIP3   OH224068   0.659   3.506   4.627  0.1211 -0.6471 -0.4138
 8035TIP3    H124069   0.624   3.532   4.541 -1.4464  3.0834  1.1294
 8035TIP3    H224070   0.744   3.549   4.632 -0.1382 -0.1969  0.1792
 8036TIP3   OH224071   1.842   2.055   0.341  0.1793  0.2071 -0.4135
 8036TIP3    H124072   1.895   2.120   0.295  3.1065 -1.8633 -0.2402
 8036TIP3    H224073   1.811   1.996   0.273 -0.2335  0.2682 -0.2835
 8037TIP3   OH224074   6.040   2.558   4.943  0.0397 -0.6418 -0.0354
 8037TIP3    H124075   6.068   2.497   4.875 -0.5901 -1.3722  0.3479
 8037TIP3    H224076   6.088   2.639   4.923  0.1587 -0.9561 -1.1097
 8038TIP3   OH224077   2.487   1.018   2.529 -0.1806  0.4490 -0.0369
 8038TIP3    H124078   2.575   1.034   2.496 -0.5490 -1.7834 -2.4255
 8038TIP3    H224079   2.475   1.083   2.599  2.9116  1.5169 -0.3542
 8039TIP3   OH224080   2.226   6.220   4.334 -0.3064 -0.1984  0.1008
 8039TIP3    H124081   2.228   6.285   4.404  2.8384  0.5981 -0.5949
 8039TIP3    H224082   2.203   6.269   4.256 -1.4414 -0.6392  0.1428
 8040TIP3   OH224083   3.082   2.866   4.397  0.1087  0.5976 -0.6647
 8040TIP3    H124084   2.999   2.819   4.386 -0.1775  1.1334 -0.8231
 8040TIP3    H224085   3.133   2.844   4.319  0.6093 -0.7069 -0.0004
 8041TIP3   OH224086   1.714   1.938   5.192  0.1105 -0.0441  0.0293
 8041TIP3    H124087   1.673   1.889   5.120 -0.2590 -0.5228  0.5506
 8041TIP3    H224088   1.808   1.931   5.176  0.1882 -2.6007  1.1121
 8042TIP3   OH224089   3.213   4.671   1.038 -0.0803 -0.3700 -0.5650
 8042TIP3    H124090   3.282   4.717   0.990  2.2553  1.1633  3.6375
 8042TIP3    H224091   3.132   4.698   0.997  1.6219  0.9898 -3.3142
 8043TIP3   OH224092   0.274   3.680   5.667 -0.3725  0.0133 -0.5937
 8043TIP3    H124093   0.287   3.600   5.616 -0.9003 -0.3047 -0.2368
 8043TIP3    H224094   0.180   3.695   5.666 -0.5780 -0.7555  1.3874
 8044TIP3   OH224095   2.304   3.821   2.280  0.3297 -0.4813  0.0401
 8044TIP3    H124096   2.305   3.726   2.284  0.5560 -0.4353  1.4486
 8044TIP3    H224097   2.349   3.849   2.360  0.6010  0.8058 -0.5334
 8045TIP3   OH224098   1.694   4.445   0.806 -0.0596  0.2831  0.0390
 8045TIP3    H124099   1.663   4.363   0.770  0.8338 -0.3561  0.6687
 8045TIP3    H224100   1.790   4.436   0.807  0.1662  1.9430 -1.3316
 8046TIP3   OH224101   1.977   4.076   2.249  0.2310  0.0780  0.2075
 8046TIP3    H124102   1.962   3.981   2.249  1.6996 -0.1775  0.6250
 8046TIP3    H224103   1.939   4.106   2.331 -0.2092 -0.1430  0.0915
 8047TIP3   OH224104   1.146   0.324   2.748  0.2871 -0.1415  0.5420
 8047TIP3    H124105   1.142   0.261   2.820 -0.2807 -0.4505  0.2452
 8047TIP3    H224106   1.061   0.368   2.749 -0.3516 -1.2447 -0.8999
 8048TIP3   OH224107   6.141   1.148   3.803  0.5387 -0.3601  0.0917
 8048TIP3    H124108   6.231   1.140   3.771  0.6898  0.9316  0.1378
 8048TIP3    H224109   6.142   1.105   3.889  1.0677 -0.4839  0.0272
 8049TIP3   OH224110   3.578   2.230   4.020 -0.4341 -0.1678  0.6185
 8049TIP3    H124111   3.621   2.299   3.969 -0.7872  0.3177  0.9700
 8049TIP3    H224112   3.584   2.152   3.964  1.6477 -0.3438  1.0087
 8050TIP3   OH224113   4.555   4.421   1.726  0.2293 -0.4278 -0.0732
 8050TIP3    H124114   4.527   4.331   1.709 -0.6794  0.1211 -1.5957
 8050TIP3    H224115   4.497   4.475   1.673 -0.0108  1.1563  1.7137
 8051TIP3   OH224116   3.552   0.417   5.417  0.2796 -0.3216 -0.0914
 8051TIP3    H124117   3.594   0.470   5.485 -0.5605 -1.2384  1.1775
 8051TIP3    H224118   3.563   0.327   5.447 -1.2555 -0.6655 -0.4875
 8052TIP3   OH224119   6.980   3.822   4.691  0.1958 -0.1161  0.2036
 8052TIP3    H124120   6.987   3.877   4.613  0.2368 -0.4509 -0.0314
 8052TIP3    H224121   7.056   3.847   4.744  2.0065 -2.0858 -1.2907
 8053TIP3   OH224122   1.782   0.696   1.524  0.3651 -0.1961  0.9162
 8053TIP3    H124123   1.786   0.780   1.570  1.5727 -0.2066  0.8557
 8053TIP3    H224124   1.689   0.680   1.512  0.0189  0.0455  2.9185
 8054TIP3   OH224125   4.196   2.698   0.717 -0.5300 -0.1429  0.4256
 8054TIP3    H124126   4.238   2.646   0.785  0.2375  0.1032  0.1441
 8054TIP3    H224127   4.111   2.656   0.704 -0.2294 -0.8638  0.7447
 8055TIP3   OH224128   5.260   3.708   0.199 -0.0797  0.1999  0.4002
 8055TIP3    H124129   5.344   3.731   0.158 -0.2714 -1.4457 -1.0318
 8055TIP3    H224130   5.284   3.657   0.276  0.2810 -1.6211 -0.8568
 8056TIP3   OH224131   2.437   5.520   3.277  0.1402 -0.1374 -0.4233
 8056TIP3    H124132   2.510   5.458   3.285 -0.8557 -1.2756  0.0612
 8056TIP3    H224133   2.378   5.480   3.213 -0.0477  0.8198 -0.8774
 8057TIP3   OH224134   4.339   5.623   3.460  0.0502 -0.5991  0.2680
 8057TIP3    H124135   4.395   5.673   3.399 -0.4186 -1.3401 -0.8053
 8057TIP3    H224136   4.337   5.535   3.423 -2.1905 -0.4880  0.0191
 8058TIP3   OH224137   1.348   6.574   3.753  0.1503 -0.0088 -0.2037
 8058TIP3    H124138   1.317   6.615   3.834  1.6513  0.6697  0.0639
 8058TIP3    H224139   1.433   6.538   3.776  0.4429 -0.1062 -1.4072
 8059TIP3   OH224140   6.343   5.699   5.537  0.2653  0.3184  0.5206
 8059TIP3    H124141   6.282   5.770   5.515 -2.8872 -2.6260 -1.2836
 8059TIP3    H224142   6.293   5.641   5.594  2.3943 -0.9934  1.1829
 8060TIP3   OH224143   5.919   2.980   1.132 -0.0788  0.1486  0.0692
 8060TIP3    H124144   5.931   3.072   1.156  0.6982  0.0431  0.0928
 8060TIP3    H224145   5.887   2.939   1.213  0.7772  0.1596  0.4274
 8061TIP3   OH224146   1.109   2.868   4.563 -0.4144  0.0879  0.4363
 8061TIP3    H124147   1.070   2.834   4.483  0.4550  1.5785 -0.6749
 8061TIP3    H224148   1.042   2.927   4.599 -0.4531  0.1192  0.3128
 8062TIP3   OH224149   6.095   2.847   0.218 -0.4732 -0.4310 -0.3656
 8062TIP3    H124150   6.106   2.941   0.202  0.0054  0.0030  2.1618
 8062TIP3    H224151   6.008   2.827   0.182 -1.1577  1.2864  0.2288
 8063TIP3   OH224152   5.170   0.229   0.719 -0.0936 -0.1255  0.0221
 8063TIP3    H124153   5.218   0.239   0.801 -0.4134 -0.3265  0.2342
 8063TIP3    H224154   5.197   0.304   0.666 -0.6180  0.5247  0.6696
 8064TIP3   OH224155   6.662   6.677   5.656 -0.1826 -0.2857  0.1282
 8064TIP3    H124156   6.661   6.608   5.590  0.2336 -1.1436  1.0020
 8064TIP3    H224157   6.589   6.658   5.714  0.0375 -0.0893  0.4765
 8065TIP3   OH224158   1.503   5.377   5.676  0.3034 -0.1139  0.1497
 8065TIP3    H124159   1.461   5.336   5.601  0.3326  1.2774 -0.6368
 8065TIP3    H224160   1.553   5.450   5.640  1.7979 -0.4978  1.2947
 8066TIP3   OH224161   4.612   4.479   5.491  0.0783 -0.3706  0.1353
 8066TIP3    H124162   4.553   4.465   5.417 -0.6765  0.7789  0.4897
 8066TIP3    H224163   4.560   4.527   5.555  1.7068  1.7276 -0.0086
 8067TIP3   OH224164   4.119   0.904   4.675 -0.0403  0.5891 -0.0951
 8067TIP3    H124165   4.200   0.900   4.624  0.2640 -0.5036  0.4350
 8067TIP3    H224166   4.145   0.877   4.763 -0.9442  0.4057  0.1279
 8068TIP3   OH224167   5.345   0.190   0.443  0.3964 -0.0858 -0.2626
 8068TIP3    H124168   5.426   0.168   0.396  1.0561 -2.0677  1.6280
 8068TIP3    H224169   5.316   0.107   0.480 -2.7187  0.5096 -1.0838
 8069TIP3   OH224170   3.131   0.449   0.986  0.1128 -0.0332  0.5530
 8069TIP3    H124171   3.174   0.500   0.917 -1.1349 -1.2482 -1.1966
 8069TIP3    H224172   3.040   0.477   0.984 -0.4876 -1.8866 -0.0901
 8070TIP3   OH224173   3.490   0.285   5.151  0.4731  0.6290 -0.2560
 8070TIP3    H124174   3.511   0.231   5.227 -1.3679  1.3541  0.8244
 8070TIP3    H224175   3.416   0.339   5.179 -0.2922  0.9032 -2.5879
 8071TIP3   OH224176   3.838   3.560   1.076  0.5844  0.1135 -0.1784
 8071TIP3    H124177   3.806   3.636   1.028 -0.3790  0.1040  0.4442
 8071TIP3    H224178   3.763   3.502   1.082  0.8288 -0.1048  0.9032
 8072TIP3   OH224179   7.109   1.742   0.179  0.1100  0.6250 -0.2075
 8072TIP3    H124180   7.108   1.826   0.224  0.3297  0.8514 -0.6146
 8072TIP3    H224181   7.103   1.764   0.086  1.8383  0.3020 -0.4442
 8073TIP3   OH224182   2.508   1.218   2.727 -0.1419  0.1120 -0.3804
 8073TIP3    H124183   2.593   1.249   2.758 -0.5013  0.3053  0.4346
 8073TIP3    H224184   2.459   1.196   2.807 -1.6605  2.1049 -0.6775
 8074TIP3   OH224185   6.049   2.401   4.061  0.0556 -0.4920  0.0085
 8074TIP3    H124186   6.053   2.412   3.966 -2.0878  1.5090  0.0641
 8074TIP3    H224187   6.126   2.447   4.093  0.2264 -0.2463 -0.7250
 8075TIP3   OH224188   6.665   5.858   4.098 -0.1896 -0.0586  0.0594
 8075TIP3    H124189   6.717   5.935   4.121  2.3135 -1.0461 -1.7490
 8075TIP3    H224190   6.678   5.797   4.170 -2.1394  1.0756  1.4741
 8076TIP3   OH224191   3.087   5.025   4.673  0.3447 -0.0829 -0.2601
 8076TIP3    H124192   3.060   4.936   4.650  2.3289 -1.2351  1.5188
 8076TIP3    H224193   3.044   5.042   4.757  0.1968  0.5443 -0.4554
 8077TIP3   OH224194   5.198   4.008   0.639 -0.6739  0.4259  0.1038
 8077TIP3    H124195   5.133   3.941   0.618  0.8034 -0.2704 -2.8813
 8077TIP3    H224196   5.269   3.993   0.576  1.3022  2.6429  1.6094
 8078TIP3   OH224197   2.564   5.657   1.590 -0.6300 -0.6587 -0.7397
 8078TIP3    H124198   2.605   5.575   1.563  1.1831  0.5559 -1.8690
 8078TIP3    H224199   2.534   5.697   1.508  1.3670  1.2304 -0.6456
 8079TIP3   OH224200   0.758   0.899   0.261  0.0606 -0.0788  0.0238
 8079TIP3    H124201   0.763   0.984   0.304 -1.4408  0.8547 -1.4990
 8079TIP3    H224202   0.838   0.894   0.209  0.5501  0.0158  0.7546
 8080TIP3   OH224203   1.021   6.467   1.847 -0.5913 -0.2206 -0.5317
 8080TIP3    H124204   1.050   6.377   1.862 -0.7890 -0.0635  0.9306
 8080TIP3    H224205   0.992   6.468   1.755 -0.2248 -1.5386 -0.6809
 8081TIP3   OH224206   5.839   1.838   4.940  0.1591  0.0249  0.0419
 8081TIP3    H124207   5.836   1.874   5.029 -0.5190 -2.4935  1.1175
 8081TIP3    H224208   5.932   1.839   4.917  0.5777 -0.9223  1.5360
 8082TIP3   OH224209   5.107   2.404   5.657  1.0926  0.4408  0.0715
 8082TIP3    H124210   5.158   2.357   5.724 -1.6059  0.6067  2.4498
 8082TIP3    H224211   5.105   2.345   5.582  0.8484 -1.6419  1.6337
 8083TIP3   OH224212   0.519   1.631   4.633  0.0388 -0.4064  0.0044
 8083TIP3    H124213   0.468   1.557   4.664 -1.0970  0.2912 -0.1210
 8083TIP3    H224214   0.579   1.593   4.568 -0.0299 -1.3102  0.4539
 8084TIP3   OH224215   0.154   0.403   2.130 -0.4343 -0.0219  0.5061
 8084TIP3    H124216   0.114   0.483   2.095  0.0444  0.3654  0.8289
 8084TIP3    H224217   0.144   0.411   2.225  2.4314  1.2344  0.8063
 8085TIP3   OH224218   2.200   0.879   5.564  0.4328  0.1872 -0.3097
 8085TIP3    H124219   2.274   0.908   5.510  1.6591  0.1680  1.3130
 8085TIP3    H224220   2.232   0.801   5.609  0.0976  1.2006  1.8117
 8086TIP3   OH224221   3.969   3.543   4.566  0.5913  0.2580 -0.1685
 8086TIP3    H124222   4.013   3.570   4.646 -1.5331  0.6690  0.9475
 8086TIP3    H224223   3.880   3.521   4.594  0.3272 -1.4511 -2.1284
 8087TIP3   OH224224   3.898   3.249   5.314  0.1940 -0.2414 -0.3416
 8087TIP3    H124225   3.850   3.183   5.364 -0.2490 -2.1768 -3.0919
 8087TIP3    H224226   3.835   3.320   5.303 -0.9100 -1.2649 -0.9807
 8088TIP3   OH224227   0.705   0.404   2.304  0.5407 -0.4520  0.5940
 8088TIP3    H124228   0.712   0.318   2.345 -0.5562  0.1512  2.1337
 8088TIP3    H224229   0.612   0.414   2.284  0.5212  0.6835  1.1670
 8089TIP3   OH224230   5.517   3.305   0.369  0.5622 -0.2904 -0.1544
 8089TIP3    H124231   5.547   3.313   0.460  0.6273  0.6999 -0.2445
 8089TIP3    H224232   5.497   3.213   0.358 -1.2401 -0.1420  1.4237
 8090TIP3   OH224233   1.726   4.572   2.069 -0.4729  0.5364  0.4911
 8090TIP3    H124234   1.753   4.662   2.054  1.3065 -0.0814 -0.3521
 8090TIP3    H224235   1.635   4.569   2.040 -0.3080  1.8741 -0.2455
 8091TIP3   OH224236   6.145   4.200   0.045  0.1049 -0.4361 -0.5917
 8091TIP3    H124237   6.185   4.277   0.006  0.5952 -0.7372 -0.6990
 8091TIP3    H224238   6.210   4.168   0.108 -0.3378 -0.4240 -0.1241
 8092TIP3   OH224239   0.051   6.535   2.559 -0.2728  0.1251 -0.0947
 8092TIP3    H124240   0.013   6.493   2.637  0.5032  0.1005  0.2745
 8092TIP3    H224241  -0.002   6.613   2.546 -1.9182 -1.0569 -0.9414
 8093TIP3   OH224242   3.569   0.799   0.839  0.1335  0.2801 -0.4552
 8093TIP3    H124243   3.615   0.813   0.756  1.0042  1.7021  0.2364
 8093TIP3    H224244   3.608   0.862   0.899  0.7084 -1.7911  1.5223
 8094TIP3   OH224245   0.892   5.458   1.051 -0.5414 -0.2754 -0.2581
 8094TIP3    H124246   0.914   5.372   1.016 -1.3854 -1.0577  1.0725
 8094TIP3    H224247   0.934   5.461   1.137 -1.6516  0.0862  0.2919
 8095TIP3   OH224248   0.723   0.419   4.858  0.5039  0.3012 -0.0090
 8095TIP3    H124249   0.639   0.400   4.816 -1.0177 -1.8819  3.4898
 8095TIP3    H224250   0.783   0.355   4.820  0.0204  0.4467 -1.0490
 8096TIP3   OH224251   3.742   3.480   5.508  0.1704 -0.2979 -0.6950
 8096TIP3    H124252   3.733   3.537   5.584 -1.4811  0.1059 -1.1569
 8096TIP3    H224253   3.829   3.500   5.474  0.8253 -0.2843  0.8922
 8097TIP3   OH224254   0.801   6.753   3.009 -0.0472 -0.4716  0.1104
 8097TIP3    H124255   0.794   6.778   3.101  1.4770  0.2589  0.0623
 8097TIP3    H224256   0.717   6.778   2.970 -0.4435 -0.1427  1.1547
 8098TIP3   OH224257   3.716   3.505   4.624  0.1597 -0.1855  0.2607
 8098TIP3    H124258   3.718   3.601   4.620  0.4892 -0.2100 -0.1777
 8098TIP3    H224259   3.623   3.483   4.624  0.0880  0.1120 -0.1558
 8099TIP3   OH224260   5.248   5.034   2.820  0.1759  0.0761 -0.0898
 8099TIP3    H124261   5.257   4.987   2.737  0.1977  0.9449 -0.5902
 8099TIP3    H224262   5.265   4.968   2.887 -0.2574 -0.7343 -0.7648
 8100TIP3   OH224263   4.996   6.706   0.554  0.0961 -0.4430 -0.2598
 8100TIP3    H124264   4.942   6.639   0.598  0.0383 -0.8079 -0.8788
 8100TIP3    H224265   4.974   6.697   0.461  1.7442 -1.1049 -0.6205
 8101TIP3   OH224266   0.761   2.636   4.680  0.1997 -0.0399 -0.0989
 8101TIP3    H124267   0.730   2.705   4.739 -1.0939 -1.6197  1.1695
 8101TIP3    H224268   0.809   2.577   4.737  0.4921 -0.6753 -0.9868
 8102TIP3   OH224269   6.800   2.445   2.562 -0.7355 -0.3245  0.1491
 8102TIP3    H124270   6.724   2.412   2.513 -1.5203  0.2795  0.9081
 8102TIP3    H224271   6.821   2.375   2.624 -0.0224 -0.9048 -0.7177
 8103TIP3   OH224272   0.440   4.925   5.083  0.2917 -0.1674 -0.1105
 8103TIP3    H124273   0.408   4.852   5.136  0.9561 -1.0760 -0.9119
 8103TIP3    H224274   0.535   4.927   5.100 -0.0152  2.0951  1.7834
 8104TIP3   OH224275   6.942   2.110   5.249  0.0764  0.1701  0.1393
 8104TIP3    H124276   6.987   2.194   5.252  0.4804 -0.0616  2.7977
 8104TIP3    H224277   6.857   2.130   5.208  0.2234  1.8467  0.5587
 8105TIP3   OH224278   1.780   6.194   4.308  0.6444  0.3782  0.1636
 8105TIP3    H124279   1.855   6.253   4.304  0.3651  0.7006 -0.3868
 8105TIP3    H224280   1.790   6.136   4.233  1.5997 -1.1303  1.3851
 8106TIP3   OH224281   3.451   1.214   0.276 -0.1630 -0.7647 -0.0583
 8106TIP3    H124282   3.524   1.275   0.285 -1.6285  1.4331 -1.8592
 8106TIP3    H224283   3.484   1.145   0.219  0.2659  0.7964 -1.8194
 8107TIP3   OH224284   2.138   1.033   4.483 -0.1914 -0.0325  0.3160
 8107TIP3    H124285   2.064   1.027   4.543 -0.5202  1.3669  0.0783
 8107TIP3    H224286   2.133   1.121   4.446  0.6238 -0.4883 -0.9756
 8108TIP3   OH224287   3.640   1.789   4.972  0.1507  0.4912 -0.2228
 8108TIP3    H124288   3.548   1.815   4.959  0.4410  0.9101 -1.5824
 8108TIP3    H224289   3.684   1.869   4.997  0.3018  0.4803 -0.4494
 8109TIP3   OH224290   3.927   3.001   0.138  0.5700  0.6690  0.2098
 8109TIP3    H124291   3.999   2.966   0.087  0.0408 -0.7371  0.3964
 8109TIP3    H224292   3.887   3.068   0.082  0.1662 -0.6519 -1.1224
 8110TIP3   OH224293   5.578   5.078   2.673 -0.3152  0.0988  0.1821
 8110TIP3    H124294   5.569   4.999   2.621  1.0713  0.4492 -0.6562
 8110TIP3    H224295   5.541   5.148   2.619 -3.7165 -0.2052  1.8553
 8111TIP3   OH224296   3.495   1.990   1.241  0.1578 -0.1980 -0.1084
 8111TIP3    H124297   3.452   1.919   1.192  1.5529 -0.2886 -1.2840
 8111TIP3    H224298   3.513   2.057   1.175 -0.0403  0.7372  0.7611
 8112TIP3   OH224299   4.843   0.494   0.550 -0.2749 -0.0609 -0.2863
 8112TIP3    H124300   4.757   0.522   0.518  0.4779  1.3391 -1.1827
 8112TIP3    H224301   4.854   0.542   0.632  0.0843  0.5955 -0.7098
 8113TIP3   OH224302   6.736   3.589   4.523  0.2214  0.1852  0.1129
 8113TIP3    H124303   6.783   3.661   4.482 -1.1165  0.3095 -1.3127
 8113TIP3    H224304   6.720   3.527   4.452  0.1134 -0.8600  1.0171
 8114TIP3   OH224305   4.053   4.990   3.263  0.0441 -0.2319  0.3024
 8114TIP3    H124306   4.031   4.981   3.356 -0.4008  0.8942  0.3238
 8114TIP3    H224307   3.970   5.009   3.221  0.4027  0.3072 -0.1759
 8115TIP3   OH224308   2.194   0.187   4.525 -0.1400 -0.4436 -0.0829
 8115TIP3    H124309   2.277   0.217   4.562  1.1508 -0.6376 -2.6177
 8115TIP3    H224310   2.217   0.109   4.475 -1.6111  0.1731 -1.8460
 8116TIP3   OH224311   1.674   4.464   3.921 -0.0423  0.7735  0.1856
 8116TIP3    H124312   1.696   4.444   3.829 -0.1975 -0.4253  0.3957
 8116TIP3    H224313   1.696   4.557   3.930  0.8807  0.6882 -0.8051
 8117TIP3   OH224314   7.090   1.622   5.235 -0.5271  0.3237  0.9092
 8117TIP3    H124315   7.138   1.542   5.257  0.6407  0.3704 -1.1444
 8117TIP3    H224316   7.032   1.595   5.163  0.0158  1.3307  0.0701
 8118TIP3   OH224317   2.428   5.267   1.553 -0.1505  0.3161 -0.6648
 8118TIP3    H124318   2.427   5.181   1.596  0.2527  1.1846  1.1972
 8118TIP3    H224319   2.336   5.287   1.537 -0.3460  0.1482  0.2137
 8119TIP3   OH224320   0.405   4.820   2.575 -0.9592 -0.6455 -0.3227
 8119TIP3    H124321   0.318   4.857   2.590 -0.1393  0.4898  2.2468
 8119TIP3    H224322   0.455   4.892   2.537 -0.2920 -0.1583  1.3948
 8120TIP3   OH224323   0.914   2.627   4.419 -0.3184 -0.6070  0.5742
 8120TIP3    H124324   0.880   2.639   4.508 -0.9766  1.6139  0.0805
 8120TIP3    H224325   0.974   2.553   4.427  0.8781  0.4878  3.2174
 8121TIP3   OH224326   1.119   6.210   1.899 -0.1429 -0.6276 -0.2283
 8121TIP3    H124327   1.045   6.168   1.943  0.5549 -1.5012  0.1237
 8121TIP3    H224328   1.171   6.138   1.864 -0.4506  0.0216 -2.1582
 8122TIP3   OH224329   5.453   0.197   3.442 -0.7611  0.1684  0.0884
 8122TIP3    H124330   5.496   0.272   3.483  0.8616 -0.9518  0.5512
 8122TIP3    H224331   5.409   0.152   3.515  0.6788 -0.8712  0.3616
 8123TIP3   OH224332   5.299   4.791   0.478  0.1114  0.5208 -0.1959
 8123TIP3    H124333   5.300   4.735   0.400 -1.6061 -0.0479  0.1384
 8123TIP3    H224334   5.262   4.874   0.447 -1.5302 -0.0381  0.1714
 8124TIP3   OH224335   1.223   1.735   4.075 -1.0628  0.3850 -0.1437
 8124TIP3    H124336   1.204   1.642   4.083 -3.1368  0.9027  2.2258
 8124TIP3    H224337   1.280   1.754   4.150 -0.6434  1.0271 -0.6201
 8125TIP3   OH224338   3.700   5.510   4.902 -0.2138  0.5320 -0.0836
 8125TIP3    H124339   3.781   5.470   4.934 -0.0982  1.7650  1.2975
 8125TIP3    H224340   3.724   5.552   4.819  0.5139  0.6826  0.1981
 8126TIP3   OH224341   2.081   1.519   1.037  0.0702  0.4693 -0.3763
 8126TIP3    H124342   2.041   1.599   1.003  1.4344  0.1562 -3.0631
 8126TIP3    H224343   2.174   1.542   1.047  0.6056 -0.8907 -1.8376
 8127TIP3   OH224344   3.427   2.177   3.012 -0.3593 -0.3979  0.0732
 8127TIP3    H124345   3.515   2.161   3.046 -0.4623  0.4648  0.7789
 8127TIP3    H224346   3.379   2.096   3.031 -0.1859 -0.2336  1.2747
 8128TIP3   OH224347   0.332   4.599   1.476  0.0667 -0.2666 -0.5874
 8128TIP3    H124348   0.418   4.559   1.470  0.5672  0.8783 -1.3598
 8128TIP3    H224349   0.271   4.526   1.465  0.9598 -0.7966 -2.3434
 8129TIP3   OH224350   6.775   4.717   1.704 -0.3730  0.2787  0.3831
 8129TIP3    H124351   6.800   4.637   1.749  0.7697  0.0535 -0.6052
 8129TIP3    H224352   6.843   4.731   1.638 -1.6896  0.8788 -0.9238
 8130TIP3   OH224353   3.252   4.104   0.438  0.2750  0.3059  0.2446
 8130TIP3    H124354   3.183   4.039   0.430 -0.4072  0.9304  0.8567
 8130TIP3    H224355   3.317   4.080   0.371 -1.1306  0.4389 -1.2190
 8131TIP3   OH224356   1.923   0.778   5.782 -0.4780 -0.2283  0.2662
 8131TIP3    H124357   1.935   0.852   5.722 -0.4268  0.2217  0.8244
 8131TIP3    H224358   1.974   0.707   5.742 -1.7365 -0.4251 -1.0546
 8132TIP3   OH224359   5.485   2.065   3.373  0.0739 -0.0287 -0.4381
 8132TIP3    H124360   5.434   2.072   3.454  0.1484 -0.1092 -0.3846
 8132TIP3    H224361   5.481   1.972   3.350 -0.5003  0.0990 -0.8828
 8133TIP3   OH224362   4.674   1.703   2.267 -0.2703  0.0372 -0.3579
 8133TIP3    H124363   4.633   1.704   2.353 -0.9960  0.0021 -0.6979
 8133TIP3    H224364   4.765   1.680   2.284 -0.0373  1.5398  0.5566
 8134TIP3   OH224365   6.677   2.327   1.627  0.8693 -0.0013 -0.1977
 8134TIP3    H124366   6.722   2.343   1.544  0.0533 -0.0282 -0.6520
 8134TIP3    H224367   6.726   2.379   1.691  1.4353  0.1070 -0.7097
 8135TIP3   OH224368   0.942   0.415   0.860  0.0455  0.2326  0.0746
 8135TIP3    H124369   0.883   0.360   0.911  0.8772  0.7606  1.6996
 8135TIP3    H224370   0.911   0.504   0.876  1.3019  0.5268  1.0357
 8136TIP3   OH224371   3.788   5.530   2.104 -0.0535 -0.1852  0.1243
 8136TIP3    H124372   3.820   5.519   2.014  0.1898 -0.6132  0.2627
 8136TIP3    H224373   3.860   5.570   2.151 -0.4999  0.8912 -0.0794
 8137TIP3   OH224374   4.923   3.685   4.469 -0.2124  0.1262  0.0990
 8137TIP3    H124375   4.833   3.668   4.497 -0.0707  0.0628  0.5230
 8137TIP3    H224376   4.926   3.779   4.453 -1.1531 -0.2077 -2.7785
 8138TIP3   OH224377   1.195   2.336   0.532 -0.3786  0.0362 -0.4056
 8138TIP3    H124378   1.189   2.428   0.558 -0.0028  0.7435 -2.5730
 8138TIP3    H224379   1.117   2.321   0.479  0.4937 -0.3098 -1.6365
 8139TIP3   OH224380   1.388   3.593   1.911 -0.2832  0.1942  0.3912
 8139TIP3    H124381   1.459   3.581   1.973  0.1191 -0.0048 -0.1049
 8139TIP3    H224382   1.422   3.560   1.827  0.7721  4.3127 -1.0132
 8140TIP3   OH224383   7.191   3.060   2.483  0.0633  0.5366  0.1723
 8140TIP3    H124384   7.184   3.116   2.406 -1.3200  0.9955  0.6056
 8140TIP3    H224385   7.101   3.053   2.516  0.7780  1.4022  2.4841
 8141TIP3   OH224386   3.004   4.645   3.232 -0.2103  0.0042  0.0539
 8141TIP3    H124387   2.948   4.568   3.223 -0.7175  0.0439  2.2897
 8141TIP3    H224388   3.090   4.611   3.256 -0.0089  0.0808 -0.5353
 8142TIP3   OH224389   1.429   0.167   1.182 -0.4373  0.1250  0.4814
 8142TIP3    H124390   1.348   0.215   1.198  0.2465  1.3854  0.3224
 8142TIP3    H224391   1.493   0.235   1.162  0.7651 -0.8113  1.0356
 8143TIP3   OH224392   0.091   4.590   3.650 -0.2934 -0.3785  0.6682
 8143TIP3    H124393   0.107   4.535   3.726 -0.8778 -0.1571  0.9615
 8143TIP3    H224394   0.171   4.642   3.640  1.7611 -3.5998 -1.6893
 8144TIP3   OH224395   2.709   2.761   5.407  0.1680 -0.1907  0.4273
 8144TIP3    H124396   2.642   2.830   5.404 -0.2684 -0.5892  0.8917
 8144TIP3    H224397   2.791   2.806   5.387  0.0797  0.6992  1.9781
 8145TIP3   OH224398   3.236   1.050   0.881 -0.2973  0.6326  0.2479
 8145TIP3    H124399   3.267   1.094   0.960  0.6946  0.6861 -0.1489
 8145TIP3    H224400   3.313   1.049   0.823 -0.7769 -0.1246 -0.3958
 8146TIP3   OH224401   1.673   4.239   1.057 -0.1651  0.4885 -0.0569
 8146TIP3    H124402   1.581   4.219   1.074  0.2986 -2.1719 -0.2913
 8146TIP3    H224403   1.672   4.329   1.024 -2.2355  1.9011  3.3477
 8147TIP3   OH224404   5.556   2.106   2.725 -0.2839  0.0437  0.5174
 8147TIP3    H124405   5.584   2.042   2.791 -0.2006 -0.6719 -0.1939
 8147TIP3    H224406   5.629   2.167   2.718  0.3639 -0.7771 -0.0288
 8148TIP3   OH224407   1.644   3.220   1.844 -0.1189  0.0634  0.2899
 8148TIP3    H124408   1.549   3.221   1.835 -0.1385  0.3090  0.5233
 8148TIP3    H224409   1.664   3.134   1.882 -0.2602  0.0699  0.3792
 8149TIP3   OH224410   6.456   5.819   1.211 -0.3483  0.1658 -0.0252
 8149TIP3    H124411   6.416   5.901   1.239 -0.1533 -0.0638  0.9822
 8149TIP3    H224412   6.387   5.754   1.219 -0.2605  0.0778  0.0167
 8150TIP3   OH224413   6.334   5.441   3.918 -0.1422  0.3758  0.0913
 8150TIP3    H124414   6.403   5.505   3.937 -0.1449 -0.1481  2.1936
 8150TIP3    H224415   6.380   5.357   3.914 -0.5758  0.0673  1.1651
 8151TIP3   OH224416   0.743   6.032   3.702  0.3641  0.6672  0.2050
 8151TIP3    H124417   0.652   6.002   3.699  0.7522 -0.5168 -2.2055
 8151TIP3    H224418   0.746   6.105   3.640  1.8323 -2.0339 -3.1841
 8152TIP3   OH224419   3.852   5.759   5.262 -0.2071 -0.0670  0.5662
 8152TIP3    H124420   3.810   5.810   5.332  1.3844  1.7085  0.3393
 8152TIP3    H224421   3.879   5.825   5.198 -1.5456 -1.6327 -1.7306
 8153TIP3   OH224422   7.182   1.887   0.721 -0.4892 -1.5209 -0.2527
 8153TIP3    H124423   7.181   1.820   0.790 -1.9454 -2.7436 -1.3841
 8153TIP3    H224424   7.151   1.841   0.643  0.3584  0.0203 -1.5488
 8154TIP3   OH224425   6.430   1.030   3.684 -0.2648  0.1789  0.8590
 8154TIP3    H124426   6.471   1.072   3.608  0.3051 -1.5624  0.1473
 8154TIP3    H224427   6.446   1.090   3.756  0.9373  0.9550 -0.0186
 8155TIP3   OH224428   6.633   0.688   1.708  0.3381 -0.0004 -0.2183
 8155TIP3    H124429   6.547   0.718   1.677  0.7945  0.1573 -1.3797
 8155TIP3    H224430   6.682   0.768   1.725  0.7326 -0.0826 -0.9491
 8156TIP3   OH224431   5.443   3.753   1.783  0.5228 -0.3263  0.4045
 8156TIP3    H124432   5.527   3.730   1.823  0.0540  0.2161  1.7491
 8156TIP3    H224433   5.379   3.745   1.854  0.0143  3.0420  0.4963
 8157TIP3   OH224434   6.109   5.257   1.777  0.4215 -0.3592  0.2720
 8157TIP3    H124435   6.087   5.337   1.731 -0.6443 -0.9707 -0.3154
 8157TIP3    H224436   6.055   5.189   1.737  0.6583 -1.2201  1.3272
 8158TIP3   OH224437   4.098   4.333   2.318  0.6341  0.1580 -0.0518
 8158TIP3    H124438   4.184   4.320   2.357  1.4364  0.7333 -1.5388
 8158TIP3    H224439   4.101   4.420   2.280 -0.7412  0.3230  0.1645
 8159TIP3   OH224440   0.699   2.811   4.880 -0.2709  0.2334  0.2521
 8159TIP3    H124441   0.652   2.757   4.944  0.8845  0.8624  1.6695
 8159TIP3    H224442   0.737   2.882   4.931 -0.1952  1.3690 -1.3053
 8160TIP3   OH224443   0.180   3.874   5.358 -0.7300 -0.5548  0.1284
 8160TIP3    H124444   0.139   3.894   5.442  1.0012 -0.7315  1.0635
 8160TIP3    H224445   0.192   3.960   5.317 -1.1144 -0.4210  0.2905
 8161TIP3   OH224446   4.104   3.327   4.377 -0.1858 -0.2722 -0.3112
 8161TIP3    H124447   4.067   3.410   4.407 -1.5203 -0.8888 -0.1477
 8161TIP3    H224448   4.031   3.284   4.333  0.0243 -2.0305  0.9681
 8162TIP3   OH224449   6.933   5.669   2.108  0.1760  0.8817 -0.1886
 8162TIP3    H124450   6.915   5.679   2.014 -1.9256  0.3028  0.1109
 8162TIP3    H224451   7.010   5.724   2.123 -0.6547  2.6248 -1.8754
 8163TIP3   OH224452   6.735   1.204   2.164 -0.0327  0.5852  0.0959
 8163TIP3    H124453   6.818   1.162   2.141 -1.4723 -1.3928 -1.8710
 8163TIP3    H224454   6.745   1.295   2.134  1.3231  0.3367 -0.3026
 8164TIP3   OH224455   2.259   2.129   3.970  0.1608  0.1286 -0.4633
 8164TIP3    H124456   2.235   2.044   3.934  0.7314 -0.1583 -0.1790
 8164TIP3    H224457   2.203   2.192   3.924  0.9278 -0.2084 -1.9227
 8165TIP3   OH224458   5.811   1.574   3.187  0.4270 -0.0215 -0.1347
 8165TIP3    H124459   5.740   1.537   3.240 -1.4696  2.3275 -0.8601
 8165TIP3    H224460   5.813   1.519   3.109 -1.0964  0.2392 -0.3922
 8166TIP3   OH224461   4.278   5.858   3.931 -0.3086 -0.3349 -0.2752
 8166TIP3    H124462   4.355   5.827   3.977  0.7052 -1.5932 -2.6241
 8166TIP3    H224463   4.206   5.807   3.968 -0.1015  0.8891  1.9740
 8167TIP3   OH224464   4.763   5.346   3.222  0.4781 -0.1043  0.0980
 8167TIP3    H124465   4.757   5.355   3.317  0.3214  1.1066 -0.0084
 8167TIP3    H224466   4.681   5.304   3.196  0.3373 -0.0583  0.4621
 8168TIP3   OH224467   2.827   0.974   5.183 -0.1299  0.0141  0.0409
 8168TIP3    H124468   2.800   1.065   5.198 -1.0384 -0.0036 -1.3098
 8168TIP3    H224469   2.917   0.980   5.153  0.4775  0.3014  1.8004
 8169TIP3   OH224470   1.828   3.895   0.329 -0.3899  0.0510 -0.2637
 8169TIP3    H124471   1.898   3.959   0.316 -1.0331  1.2226  1.5918
 8169TIP3    H224472   1.873   3.810   0.334  0.9387  0.7903  1.0201
 8170TIP3   OH224473   2.573   2.821   0.083  0.8152 -0.3374 -0.2465
 8170TIP3    H124474   2.536   2.804   0.170 -0.1283  1.7797 -0.1634
 8170TIP3    H224475   2.558   2.740   0.034 -2.1459 -0.3103  0.4149
 8171TIP3   OH224476   6.015   3.170   2.408  0.2934  0.9126 -0.1377
 8171TIP3    H124477   6.078   3.164   2.480 -1.0601  0.3569  1.0433
 8171TIP3    H224478   6.016   3.083   2.369  2.3934  1.6964 -2.0736
 8172TIP3   OH224479   6.382   1.244   3.363 -0.2979  0.2895 -0.7553
 8172TIP3    H124480   6.453   1.197   3.408  0.0446  1.3705 -0.1339
 8172TIP3    H224481   6.306   1.186   3.372  0.1714 -0.2623 -0.2171
 8173TIP3   OH224482   2.348   2.359   3.443 -0.0903 -0.2744 -0.3891
 8173TIP3    H124483   2.324   2.288   3.502  0.0840  1.1065  1.4587
 8173TIP3    H224484   2.266   2.382   3.399 -1.2749  1.2318  2.3148
 8174TIP3   OH224485   3.903   6.592   4.755  0.5107 -0.2423 -0.4173
 8174TIP3    H124486   3.991   6.559   4.738  1.1175  1.1424 -0.0920
 8174TIP3    H224487   3.893   6.665   4.693  0.7327  1.4724  1.4646
 8175TIP3   OH224488   3.118   5.436   0.833  0.3373 -0.2127  0.0687
 8175TIP3    H124489   3.026   5.409   0.828  0.9663 -3.2573  2.0305
 8175TIP3    H224490   3.129   5.465   0.923  1.1133  1.1804 -0.4487
 8176TIP3   OH224491   4.395   1.437   2.304 -0.2377  0.2062  0.1541
 8176TIP3    H124492   4.444   1.520   2.304  0.5476 -0.2496 -0.2990
 8176TIP3    H224493   4.336   1.444   2.229 -0.0106  0.2640 -0.0198
 8177TIP3   OH224494   0.443   6.636   2.423  0.8824  0.3358 -0.5671
 8177TIP3    H124495   0.532   6.642   2.460  0.9511 -1.2049 -0.3901
 8177TIP3    H224496   0.442   6.551   2.379 -1.2902 -0.9599  1.7106
 8178TIP3   OH224497   1.693   1.784   1.237  0.1747 -0.4020  0.6508
 8178TIP3    H124498   1.720   1.693   1.223  0.3072  0.0078 -2.5926
 8178TIP3    H224499   1.600   1.778   1.261  1.0700 -1.4566  4.5058
 8179TIP3   OH224500   4.487   3.331   3.556 -0.1030  0.3480  0.1653
 8179TIP3    H124501   4.480   3.258   3.495 -0.7161 -1.0491  1.8357
 8179TIP3    H224502   4.397   3.352   3.580  0.0996  1.2606  0.1612
 8180TIP3   OH224503   0.362   2.390   5.796  0.0499 -0.3382  0.0598
 8180TIP3    H124504   0.311   2.310   5.791  1.1123 -0.9426 -2.3728
 8180TIP3    H224505   0.339   2.439   5.717  1.7735  0.2430 -0.1321
 8181TIP3   OH224506   2.110   0.960   4.941 -0.3859 -0.1557 -0.4542
 8181TIP3    H124507   2.119   0.866   4.955  2.7363  0.2835  1.2118
 8181TIP3    H224508   2.057   0.991   5.014  0.0561 -0.3881 -0.0357
 8182TIP3   OH224509   2.144   3.087   3.059  0.0927  0.3026 -0.4356
 8182TIP3    H124510   2.115   3.178   3.062  0.9442  0.5642 -0.0639
 8182TIP3    H224511   2.080   3.040   3.112 -1.2245  0.4215 -1.8257
 8183TIP3   OH224512   7.111   0.665   0.234 -0.3058 -0.0497 -0.3559
 8183TIP3    H124513   7.092   0.729   0.166 -1.7757 -0.9545 -0.8486
 8183TIP3    H224514   7.163   0.598   0.189  1.4391  0.8632  0.2158
 8184TIP3   OH224515   4.952   1.698   2.265 -0.0403 -0.6735 -0.1074
 8184TIP3    H124516   5.013   1.684   2.193 -1.7379 -2.2066 -1.3197
 8184TIP3    H224517   4.991   1.769   2.316  2.6802 -1.5366 -0.8523
 8185TIP3   OH224518   4.661   6.490   5.408  0.9331  0.0856  0.4554
 8185TIP3    H124519   4.612   6.571   5.388  0.5474  0.0543  1.2342
 8185TIP3    H224520   4.595   6.421   5.404  0.9601  0.0085  1.2595
 8186TIP3   OH224521   0.606   2.963   1.130  0.3904 -0.1042  0.2060
 8186TIP3    H124522   0.661   2.886   1.146  1.6782  0.3940 -1.5307
 8186TIP3    H224523   0.550   2.968   1.207  0.5408 -2.5393  0.5673
 8187TIP3   OH224524   2.059   4.799   5.762  0.4902 -0.1692  0.0566
 8187TIP3    H124525   2.016   4.727   5.808  1.4768 -1.6122 -1.1828
 8187TIP3    H224526   2.071   4.767   5.672  2.3642  0.9043 -0.1408
 8188TIP3   OH224527   3.023   0.918   4.823  0.2327  0.1667  0.2755
 8188TIP3    H124528   3.034   0.928   4.918 -1.3469  1.5476  0.3535
 8188TIP3    H224529   2.930   0.936   4.807  0.1004 -1.5754 -1.3717
 8189TIP3   OH224530   6.679   6.329   1.614  1.0288 -0.4024  0.0160
 8189TIP3    H124531   6.698   6.422   1.627  0.6758 -0.5832  2.1987
 8189TIP3    H224532   6.741   6.283   1.670  0.6680 -1.4478 -0.4070
 8190TIP3   OH224533   1.750   4.314   2.000  0.3083 -0.1397 -0.0978
 8190TIP3    H124534   1.730   4.406   2.018  0.8212  0.1440 -0.9400
 8190TIP3    H224535   1.678   4.284   1.945  0.8363  0.1477 -0.9565
 8191TIP3   OH224536   3.362   0.410   4.179 -0.0812  0.2087  0.5147
 8191TIP3    H124537   3.444   0.448   4.212  1.1407 -1.1838 -0.7476
 8191TIP3    H224538   3.304   0.407   4.256  1.3419  0.4666  1.6425
 8192TIP3   OH224539   0.547   5.969   1.401 -0.0602 -0.5586  0.6310
 8192TIP3    H124540   0.540   6.033   1.472 -0.7562  0.2265 -0.1301
 8192TIP3    H224541   0.524   6.017   1.322  3.7287 -0.5316 -0.6547
 8193TIP3   OH224542   4.903   0.604   2.119  0.2956  0.0983  0.1271
 8193TIP3    H124543   4.953   0.591   2.039 -0.0711 -2.1129  0.1762
 8193TIP3    H224544   4.823   0.649   2.090  0.1394 -0.7226 -0.7816
 8194TIP3   OH224545   4.671   1.159   1.360  0.1125 -0.5683 -0.5599
 8194TIP3    H124546   4.577   1.176   1.367  0.4668  1.1466  0.4401
 8194TIP3    H224547   4.700   1.148   1.451  0.8137 -1.5280 -0.8876
 8195TIP3   OH224548   3.044   2.770   1.213 -0.5937  0.1108  0.5130
 8195TIP3    H124549   3.033   2.751   1.306  1.4112  1.4272  1.1083
 8195TIP3    H224550   3.055   2.865   1.210  1.9905 -0.1409 -0.6814
 8196TIP3   OH224551   6.931   5.044   1.675 -0.2152  0.1974  0.6684
 8196TIP3    H124552   6.944   4.969   1.616  1.4206  0.9786 -0.0367
 8196TIP3    H224553   6.934   5.005   1.763  2.1261 -0.4418  0.3761
 8197TIP3   OH224554   3.233   0.133   5.240  0.3385  0.4886 -0.2562
 8197TIP3    H124555   3.229   0.075   5.316  0.0955  1.1932  0.2877
 8197TIP3    H224556   3.183   0.088   5.172 -0.0965  0.1935  0.2519
 8198TIP3   OH224557   6.461   0.564   5.562 -0.7727 -0.5951  0.1575
 8198TIP3    H124558   6.379   0.612   5.550 -0.6427 -0.7765 -1.7337
 8198TIP3    H224559   6.494   0.550   5.473  1.7301  0.1777  0.8649
 8199TIP3   OH224560   2.002   0.196   4.726 -0.1921 -0.5179 -0.0390
 8199TIP3    H124561   2.072   0.218   4.666  0.7240  0.8334  1.4354
 8199TIP3    H224562   1.941   0.270   4.721  0.2688 -0.0226  1.1810
 8200TIP3   OH224563   4.874   0.684   3.075  0.3030 -0.6020 -0.1910
 8200TIP3    H124564   4.946   0.697   3.013  0.6130 -1.4271 -0.0074
 8200TIP3    H224565   4.821   0.764   3.066  0.1074 -0.8706 -1.8264
 8201TIP3   OH224566   2.341   1.036   1.820 -0.3628 -0.0754 -0.0097
 8201TIP3    H124567   2.380   0.972   1.879 -0.1217 -0.1947 -0.2930
 8201TIP3    H224568   2.247   1.032   1.838 -0.5638 -1.7796 -1.2325
 8202TIP3   OH224569   1.568   4.627   4.575 -0.3060 -0.5318 -0.0413
 8202TIP3    H124570   1.612   4.545   4.596  1.3431 -0.2547 -2.0240
 8202TIP3    H224571   1.486   4.601   4.533  0.2442 -1.2042 -0.7406
 8203TIP3   OH224572   3.587   4.902   2.621  0.2171 -0.7965  0.3744
 8203TIP3    H124573   3.671   4.881   2.662  0.0302 -0.6625  0.8423
 8203TIP3    H224574   3.609   4.931   2.533  0.7674  0.2072  0.8175
 8204TIP3   OH224575   1.790   4.446   2.360  0.4646 -0.2280 -0.0128
 8204TIP3    H124576   1.764   4.473   2.272  2.7273  0.2684 -0.5991
 8204TIP3    H224577   1.750   4.511   2.418  1.2379  1.1288 -0.9433
 8205TIP3   OH224578   5.381   4.454   3.571  0.0454  0.5740 -0.0499
 8205TIP3    H124579   5.309   4.447   3.634  0.3659 -0.2981  0.2398
 8205TIP3    H224580   5.338   4.473   3.487 -0.7956 -2.2366 -0.3622
 8206TIP3   OH224581   4.144   5.277   0.391  0.2494 -0.2787  0.0821
 8206TIP3    H124582   4.202   5.350   0.368  0.2065 -0.3197 -0.1531
 8206TIP3    H224583   4.115   5.297   0.480 -2.8200  2.0582 -1.2214
 8207TIP3   OH224584   5.089   5.313   3.880 -0.1801 -0.3929  0.0774
 8207TIP3    H124585   5.177   5.344   3.902 -0.7535  2.8178 -1.5170
 8207TIP3    H224586   5.038   5.330   3.959  0.4276 -1.5200  0.7352
 8208TIP3   OH224587   5.063   3.915   0.403 -0.3468 -0.2301 -0.1937
 8208TIP3    H124588   5.035   4.004   0.381 -2.6851 -1.3292 -2.1450
 8208TIP3    H224589   5.148   3.906   0.359  0.0168  1.0670  0.1971
 8209TIP3   OH224590   6.296   3.743   1.428  0.2543 -0.4798  0.2701
 8209TIP3    H124591   6.201   3.743   1.412 -0.0405 -0.3395  1.8545
 8209TIP3    H224592   6.312   3.823   1.477  1.3045 -0.2176 -0.4756
 8210TIP3   OH224593   0.751   4.425   3.952 -0.1504  0.1457  0.2137
 8210TIP3    H124594   0.796   4.500   3.991 -0.5024  0.7501 -0.5233
 8210TIP3    H224595   0.763   4.354   4.016 -1.4178  1.3008  1.8355
 8211TIP3   OH224596   2.560   6.261   3.436  0.1229 -0.2746  0.1519
 8211TIP3    H124597   2.470   6.291   3.423 -0.2216 -1.9374 -1.6218
 8211TIP3    H224598   2.565   6.244   3.531 -1.5879 -0.6034  0.2245
 8212TIP3   OH224599   5.602   1.645   0.375 -0.3864  0.0892 -0.4014
 8212TIP3    H124600   5.545   1.667   0.301 -0.6973  1.1759  0.1451
 8212TIP3    H224601   5.571   1.700   0.447  0.0360 -0.8122  0.4917
 8213TIP3   OH224602   4.833   1.663   3.640  0.2666  0.3285 -0.0020
 8213TIP3    H124603   4.822   1.696   3.729  0.4376  1.7220 -0.4834
 8213TIP3    H224604   4.925   1.676   3.620  0.3026 -0.2885 -0.2763
 8214TIP3   OH224605   2.647   2.321   4.726  0.0514  0.3185  0.2247
 8214TIP3    H124606   2.664   2.408   4.690  0.5103  0.1023 -0.0968
 8214TIP3    H224607   2.630   2.267   4.649  0.1177  0.0501  0.4004
 8215TIP3   OH224608   4.719   1.363   2.302 -0.2815 -0.2117  0.3260
 8215TIP3    H124609   4.726   1.405   2.217  0.7168 -1.4071 -0.2052
 8215TIP3    H224610   4.682   1.431   2.359 -0.4097  0.7883 -0.9026
 8216TIP3   OH224611   1.785   0.616   2.629 -0.1382 -0.1581  0.0469
 8216TIP3    H124612   1.703   0.571   2.610 -0.1305  0.5884 -1.9820
 8216TIP3    H224613   1.840   0.599   2.552  1.2670  0.1443  0.9534
 8217TIP3   OH224614   4.215   4.587   5.259 -0.7890 -0.6423  0.1002
 8217TIP3    H124615   4.149   4.592   5.189  0.3217 -1.3409 -1.0435
 8217TIP3    H224616   4.249   4.677   5.265 -1.4317 -0.4101  0.2821
 8218TIP3   OH224617   0.339   1.193   3.741 -0.4457 -0.1931 -0.3191
 8218TIP3    H124618   0.284   1.189   3.819 -1.2195  0.4820 -0.8177
 8218TIP3    H224619   0.324   1.110   3.696 -0.8294 -0.1379 -0.2970
 8219TIP3   OH224620   6.411   0.812   5.405  0.0868 -0.4012  0.1890
 8219TIP3    H124621   6.417   0.831   5.312  1.1537  2.4228  0.7400
 8219TIP3    H224622   6.318   0.800   5.421 -0.1304 -0.7082 -1.1889
 8220TIP3   OH224623   5.802   3.091   1.911  0.2887  0.2436  0.3818
 8220TIP3    H124624   5.744   3.117   1.839  2.2521  2.8739 -0.4193
 8220TIP3    H224625   5.844   3.011   1.879 -0.4578  0.1749 -0.4756
 8221TIP3   OH224626   4.308   1.743   2.991  0.2049 -0.0414  0.2866
 8221TIP3    H124627   4.303   1.723   2.898  0.0002  0.8073  0.1076
 8221TIP3    H224628   4.393   1.786   3.002  0.6155 -0.9307  0.6530
 8222TIP3   OH224629   0.424   2.089   2.065 -0.3281  0.7828  0.3205
 8222TIP3    H124630   0.516   2.065   2.080 -0.8564 -0.3634  2.0825
 8222TIP3    H224631   0.388   2.016   2.014 -0.9635 -0.3570  2.2855
 8223TIP3   OH224632   1.778   3.108   2.462  0.4603  0.0386  0.0978
 8223TIP3    H124633   1.788   3.203   2.470  1.5596 -0.0404 -0.0907
 8223TIP3    H224634   1.731   3.095   2.380 -1.2876  0.4666  0.9931
 8224TIP3   OH224635   4.276   4.196   4.614  0.3687  0.1491 -0.1555
 8224TIP3    H124636   4.242   4.256   4.547 -1.0522 -1.0101 -0.5186
 8224TIP3    H224637   4.207   4.191   4.680  0.9274 -0.2562  0.4201
 8225TIP3   OH224638   2.106   1.314   2.452  0.4697  0.4231 -0.1329
 8225TIP3    H124639   2.093   1.368   2.374  1.6999  0.9894  0.0311
 8225TIP3    H224640   2.196   1.332   2.479  0.0939  0.1919  1.3795
 8226TIP3   OH224641   7.154   3.071   4.761 -0.5445  0.2103 -0.2566
 8226TIP3    H124642   7.125   3.006   4.698 -0.6596 -0.7326  0.7325
 8226TIP3    H224643   7.243   3.092   4.735 -0.4850 -0.3910 -0.5539
 8227TIP3   OH224644   1.705   5.267   0.358 -0.8386  0.0424 -0.2060
 8227TIP3    H124645   1.630   5.326   0.370  0.3869  1.3252  1.7440
 8227TIP3    H224646   1.670   5.180   0.373 -2.0341  0.5800  0.2510
 8228TIP3   OH224647   3.384   2.521   2.455 -0.0478 -0.4078 -0.3549
 8228TIP3    H124648   3.395   2.426   2.455  2.8758 -0.1987  1.2161
 8228TIP3    H224649   3.393   2.546   2.363 -1.0096 -1.6320 -0.8068
 8229TIP3   OH224650   1.043   6.319   0.232 -0.0316  0.4658  0.2000
 8229TIP3    H124651   0.993   6.266   0.293  1.3446  0.5057  1.4168
 8229TIP3    H224652   1.099   6.373   0.288 -0.2448  2.0498 -1.0477
 8230TIP3   OH224653   5.342   0.954   0.303  0.1837 -0.5795 -0.1817
 8230TIP3    H124654   5.396   0.912   0.369 -1.0146 -0.7810  0.7071
 8230TIP3    H224655   5.300   1.027   0.349  0.7456  0.4216 -1.2044
 8231TIP3   OH224656   6.042   1.386   4.775 -0.4667 -0.0889 -0.5247
 8231TIP3    H124657   5.986   1.311   4.796 -0.8424  0.2993 -0.1167
 8231TIP3    H224658   6.072   1.418   4.860 -0.1350  0.0943 -0.7086
 8232TIP3   OH224659   4.000   6.735   5.384 -0.0731  0.0395  0.2283
 8232TIP3    H124660   4.073   6.752   5.324 -1.0275 -0.1867 -1.0331
 8232TIP3    H224661   3.936   6.689   5.331 -1.1152  0.1822  1.3359
 8233TIP3   OH224662   4.081   6.410   2.291 -0.0216  0.7707  0.3549
 8233TIP3    H124663   4.161   6.439   2.248  0.6976  1.6485  2.1750
 8233TIP3    H224664   4.011   6.435   2.231  0.9949  0.8485 -0.8368
 8234TIP3   OH224665   4.316   0.935   5.331  0.3314  0.7065 -0.5150
 8234TIP3    H124666   4.371   0.873   5.379  0.6486  1.2945 -0.1046
 8234TIP3    H224667   4.306   1.009   5.391 -1.2265  0.4541 -0.4275
 8235TIP3   OH224668   7.024   5.950   2.877 -0.2440  0.2042 -0.2417
 8235TIP3    H124669   6.944   6.001   2.890 -0.3150 -0.1694  0.9190
 8235TIP3    H224670   7.095   6.014   2.879 -0.3811  0.3404  0.5437
 8236TIP3   OH224671   1.171   5.320   3.624 -0.5193 -0.8054 -0.3281
 8236TIP3    H124672   1.112   5.392   3.644 -0.3048 -0.7559  0.1244
 8236TIP3    H224673   1.205   5.292   3.709 -0.3977 -1.2649 -0.5256
 8237TIP3   OH224674   4.582   4.120   2.586 -0.0159  0.6008 -0.5326
 8237TIP3    H124675   4.545   4.128   2.674 -0.2731 -0.0146 -0.5793
 8237TIP3    H224676   4.676   4.110   2.601 -0.1125  0.0020 -0.2944
 8238TIP3   OH224677   0.735   1.008   4.746 -0.2257  0.0650 -0.2442
 8238TIP3    H124678   0.676   0.936   4.726  1.2037 -1.1181 -0.3872
 8238TIP3    H224679   0.761   1.043   4.661  0.8556 -0.7678 -0.2733
 8239TIP3   OH224680   6.528   4.913   3.759 -0.3306  0.4125  0.2224
 8239TIP3    H124681   6.516   4.967   3.681  1.2949 -0.1700 -0.4936
 8239TIP3    H224682   6.450   4.929   3.812 -0.8072  1.9267 -0.8564
 8240TIP3   OH224683   4.784   4.832   3.642 -0.5821 -0.0431  0.3727
 8240TIP3    H124684   4.805   4.740   3.624 -2.0393 -0.5383  1.0208
 8240TIP3    H224685   4.848   4.858   3.708  0.2878 -0.3654 -0.3224
 8241TIP3   OH224686   4.806   3.819   2.025 -0.2525 -0.4491  0.0801
 8241TIP3    H124687   4.755   3.875   2.083  0.1401  0.7568 -0.7006
 8241TIP3    H224688   4.897   3.836   2.050 -0.1430 -0.9714  0.0357
 8242TIP3   OH224689   2.180   1.853   4.868 -0.7902 -0.0166  0.3507
 8242TIP3    H124690   2.186   1.795   4.792  0.7406 -0.9640  1.1547
 8242TIP3    H224691   2.192   1.796   4.943  1.0237  1.3371  1.1679
 8243TIP3   OH224692   4.776   3.977   1.694 -0.7113  0.0391 -0.3029
 8243TIP3    H124693   4.709   4.031   1.735 -1.8027  0.2233 -2.2074
 8243TIP3    H224694   4.759   3.888   1.726 -0.1394  0.4802  1.3107
 8244TIP3   OH224695   6.604   6.691   4.593  0.0283  0.0303 -0.1497
 8244TIP3    H124696   6.546   6.636   4.541 -1.4381  0.1081  1.3121
 8244TIP3    H224697   6.594   6.779   4.556  0.9648 -0.3205 -1.3115
 8245TIP3   OH224698   5.411   1.308   0.202 -0.4553  0.0992 -0.3571
 8245TIP3    H124699   5.374   1.350   0.125 -1.2073  0.2440  0.0777
 8245TIP3    H224700   5.336   1.276   0.251  0.0842 -2.1010 -0.8528
 8246TIP3   OH224701   2.928   3.216   4.799  0.3626  0.3794  0.0645
 8246TIP3    H124702   2.864   3.154   4.833 -1.7743  2.2123 -0.3898
 8246TIP3    H224703   2.931   3.198   4.705  1.7027 -0.6845  0.2826
 8247TIP3   OH224704   3.846   4.196   0.689 -0.2859 -0.9964 -0.2398
 8247TIP3    H124705   3.773   4.226   0.743 -0.6248  0.2624 -1.3369
 8247TIP3    H224706   3.924   4.224   0.737 -0.5174 -1.6466  0.5456
 8248TIP3   OH224707   1.802   5.977   0.628 -0.1752 -0.5063 -0.3636
 8248TIP3    H124708   1.764   5.895   0.596 -1.2153  0.8100 -2.7481
 8248TIP3    H224709   1.879   5.990   0.573  1.9430 -1.4592  2.2093
 8249TIP3   OH224710   6.493   3.610   5.236  0.3860 -0.0252  0.4833
 8249TIP3    H124711   6.495   3.689   5.290 -0.9227  1.1765 -1.0995
 8249TIP3    H224712   6.402   3.602   5.208  0.9333 -0.7126 -1.2864
 8250TIP3   OH224713   1.321   2.691   2.256  0.0191  0.1111  0.0053
 8250TIP3    H124714   1.286   2.620   2.309  1.2476 -1.1546 -0.8171
 8250TIP3    H224715   1.284   2.771   2.295 -1.5092 -0.9625  0.8545
 8251TIP3   OH224716   6.828   1.283   4.005  0.2646  0.1740 -0.2896
 8251TIP3    H124717   6.751   1.319   3.961 -0.6690 -0.1891  0.9763
 8251TIP3    H224718   6.877   1.239   3.936 -1.2508 -0.5570 -0.9492
 8252TIP3   OH224719   1.114   6.161   4.852 -0.0660 -0.2348  0.2341
 8252TIP3    H124720   1.054   6.151   4.926 -0.2873  0.3849  0.1480
 8252TIP3    H224721   1.165   6.240   4.873 -3.0579  2.6069 -2.2096
 8253TIP3   OH224722   3.202   3.359   5.922  0.2377  0.0457  0.1105
 8253TIP3    H124723   3.282   3.335   5.875  0.8190 -1.7660  1.8783
 8253TIP3    H224724   3.157   3.420   5.863  1.6464 -0.8738 -2.0483
 8254TIP3   OH224725   0.281   3.888   4.742  0.1922  0.0715  0.1189
 8254TIP3    H124726   0.260   3.923   4.828 -1.1322  1.2622 -0.6571
 8254TIP3    H224727   0.225   3.811   4.734 -0.3439  0.4748 -0.0303
 8255TIP3   OH224728   2.687   2.249   2.065 -0.6282  0.0459 -0.0021
 8255TIP3    H124729   2.716   2.167   2.024 -0.0877  1.2128 -2.1489
 8255TIP3    H224730   2.747   2.263   2.138  0.8704 -0.2781 -1.1265
 8256TIP3   OH224731   4.455   4.774   4.557 -0.6797 -0.6757  0.7443
 8256TIP3    H124732   4.504   4.778   4.639 -0.6945 -0.1429  0.7295
 8256TIP3    H224733   4.424   4.863   4.543 -0.2587 -0.6464 -0.0947
 8257TIP3   OH224734   7.214   6.513   1.223 -0.7114 -0.3127 -0.0704
 8257TIP3    H124735   7.197   6.419   1.213 -0.3157 -0.3878 -0.0693
 8257TIP3    H224736   7.222   6.525   1.318  1.8890 -0.7816 -0.1580
 8258TIP3   OH224737   1.165   6.309   2.238 -0.4731  0.0531 -0.0869
 8258TIP3    H124738   1.120   6.262   2.168  0.2704  0.9408 -1.1860
 8258TIP3    H224739   1.125   6.396   2.239  0.4132  0.4773 -0.3136
 8259TIP3   OH224740   4.660   4.780   1.313  0.1174 -0.0947  0.6303
 8259TIP3    H124741   4.636   4.871   1.297  2.0111  1.0237  3.4129
 8259TIP3    H224742   4.737   4.766   1.257  1.6573  1.1042  2.2913
 8260TIP3   OH224743   3.856   4.059   1.290  0.3258 -0.2666 -0.1261
 8260TIP3    H124744   3.949   4.041   1.276  0.5288  0.5342  0.1375
 8260TIP3    H224745   3.828   3.994   1.354  0.7702 -0.3592 -0.0206
 8261TIP3   OH224746   3.453   1.553   3.312  0.2688 -0.0525  0.5093
 8261TIP3    H124747   3.527   1.614   3.311  1.2684 -0.8699 -4.3431
 8261TIP3    H224748   3.486   1.477   3.359  1.7405  0.4454  0.3639
 8262TIP3   OH224749   0.360   1.457   3.750 -0.4805 -0.0647  0.2565
 8262TIP3    H124750   0.325   1.369   3.741  0.6036 -0.3927 -1.0591
 8262TIP3    H224751   0.440   1.447   3.801  0.4463 -0.0879 -1.1540
 8263TIP3   OH224752   3.030   0.292   5.152  0.4229  0.0273  0.5964
 8263TIP3    H124753   2.947   0.259   5.187 -0.2411 -1.2161 -1.9140
 8263TIP3    H224754   3.097   0.257   5.211 -0.6622 -1.1907  1.1521
 8264TIP3   OH224755   3.225   5.939   4.995 -0.2565  0.0556 -0.1846
 8264TIP3    H124756   3.244   5.869   5.057  1.1572 -0.9968 -1.7338
 8264TIP3    H224757   3.149   5.907   4.946  1.5893 -1.4741 -2.2801
 8265TIP3   OH224758   1.295   5.157   3.863  0.0347  0.0891 -0.2860
 8265TIP3    H124759   1.338   5.080   3.826 -0.2359 -0.3751  0.3518
 8265TIP3    H224760   1.210   5.126   3.892 -0.2665  0.7383 -0.4490
 8266TIP3   OH224761   3.075   6.713   4.273 -0.1343 -0.4762 -0.7217
 8266TIP3    H124762   3.091   6.699   4.179 -0.3277  0.1755 -0.8564
 8266TIP3    H224763   3.125   6.792   4.294 -0.0059 -0.6792 -0.2496
 8267TIP3   OH224764   5.818   5.229   4.645 -0.5166  0.5846  0.1355
 8267TIP3    H124765   5.842   5.318   4.620  1.2639 -0.3727 -1.8775
 8267TIP3    H224766   5.899   5.179   4.639 -1.6155 -1.3554  0.4562
 8268TIP3   OH224767   4.861   4.441   3.164 -0.4142 -0.4323 -0.6700
 8268TIP3    H124768   4.804   4.500   3.115 -0.2939 -0.9209 -1.4154
 8268TIP3    H224769   4.849   4.356   3.122 -1.2037 -1.1305  0.8842
 8269TIP3   OH224770   6.289   4.835   3.967 -0.2085  0.8749 -0.4485
 8269TIP3    H124771   6.212   4.856   3.914 -1.1960 -0.6188  0.3302
 8269TIP3    H224772   6.290   4.902   4.035 -0.1738  1.5459 -1.1018
 8270TIP3   OH224773   6.657   6.153   0.116  0.0167 -0.8644  0.0702
 8270TIP3    H124774   6.738   6.124   0.075 -0.2812 -1.0394 -0.3977
 8270TIP3    H224775   6.588   6.102   0.074 -0.3608 -0.5606  0.3057
 8271TIP3   OH224776   4.075   0.380   4.421 -0.0908 -0.6077 -0.4688
 8271TIP3    H124777   3.986   0.406   4.397  0.4677 -0.1530 -2.2059
 8271TIP3    H224778   4.109   0.453   4.472 -0.8839 -1.0400  0.7239
 8272TIP3   OH224779   2.228   5.280   4.021 -0.5837 -0.0630  0.0801
 8272TIP3    H124780   2.173   5.356   4.038 -0.3300  0.0562  0.3803
 8272TIP3    H224781   2.203   5.217   4.088 -0.5104 -0.0903  0.0822
 8273TIP3   OH224782   1.586   6.274   1.203 -0.1759 -0.3536  0.4140
 8273TIP3    H124783   1.612   6.364   1.222 -4.0028  0.8232  0.9100
 8273TIP3    H224784   1.586   6.230   1.288  0.1284 -0.3971  0.3956
 8274TIP3   OH224785   3.786   3.489   0.378 -0.1205 -0.0438 -0.9412
 8274TIP3    H124786   3.713   3.443   0.420  0.7320 -0.3936  0.2151
 8274TIP3    H224787   3.744   3.558   0.326 -1.2369  0.6518  0.7844
 8275TIP3   OH224788   2.168   5.796   2.466  0.1905  0.1241 -0.0805
 8275TIP3    H124789   2.128   5.883   2.476  2.5096  1.5984 -2.4090
 8275TIP3    H224790   2.212   5.780   2.549  1.8294  2.3972 -0.4324
 8276TIP3   OH224791   1.797   0.890   2.759  0.1266 -0.1022 -0.1727
 8276TIP3    H124792   1.780   0.822   2.694 -2.8160  0.4127 -0.0471
 8276TIP3    H224793   1.810   0.842   2.841  1.5345 -0.6304 -0.6691
 8277TIP3   OH224794   2.306   0.568   4.287  0.0864 -0.2029 -0.5024
 8277TIP3    H124795   2.310   0.660   4.314  0.4067 -0.1098 -0.8704
 8277TIP3    H224796   2.389   0.531   4.314 -0.9668 -1.0232  1.8995
 8278TIP3   OH224797   6.003   1.854   0.878 -0.1312  0.7451 -0.0528
 8278TIP3    H124798   5.984   1.876   0.970 -0.5686 -1.1048  0.3307
 8278TIP3    H224799   5.946   1.780   0.859  1.4621 -0.2410 -1.1678
 8279TIP3   OH224800   6.506   4.056   3.415 -0.5402 -0.1598 -0.2955
 8279TIP3    H124801   6.499   4.075   3.322  0.3836 -0.0573 -0.3529
 8279TIP3    H224802   6.452   4.123   3.458 -1.4954 -0.6001 -0.7757
 8280TIP3   OH224803   5.606   3.938   0.862  0.2359  0.1201  0.2825
 8280TIP3    H124804   5.525   3.888   0.871 -1.2074  1.7008 -2.6368
 8280TIP3    H224805   5.673   3.871   0.846 -0.7439 -1.1046  1.0570
 8281TIP3   OH224806   4.979   5.347   4.128 -0.2219 -0.2363  0.1329
 8281TIP3    H124807   4.940   5.425   4.169 -1.9420 -0.8752 -0.1858
 8281TIP3    H224808   5.040   5.314   4.194 -0.3824  0.6788  0.7721
 8282TIP3   OH224809   5.014   4.532   1.029 -0.1048 -0.1789 -0.4991
 8282TIP3    H124810   4.937   4.478   1.048  1.1149 -1.4637  1.0340
 8282TIP3    H224811   5.084   4.469   1.012  1.1446  0.9115  0.4310
 8283TIP3   OH224812   1.221   1.466   2.965 -0.3356 -0.3660 -0.3060
 8283TIP3    H124813   1.233   1.560   2.978 -1.8327 -0.2962  0.8598
 8283TIP3    H224814   1.307   1.433   2.941  0.1608  1.3370 -0.9911
 8284TIP3   OH224815   0.438   3.757   0.215  0.2491  0.6399  0.2979
 8284TIP3    H124816   0.483   3.673   0.222  0.0698  0.5468  0.3554
 8284TIP3    H224817   0.455   3.801   0.298 -0.2385  0.3630  0.5536
 8285TIP3   OH224818   6.474   4.624   3.921  0.3856 -0.5166 -0.2783
 8285TIP3    H124819   6.502   4.551   3.978 -1.6934 -1.4738 -0.4043
 8285TIP3    H224820   6.423   4.680   3.979 -0.7717 -0.8971 -0.9073
 8286TIP3   OH224821   3.087   0.761   5.520  0.2698 -0.1575  0.0914
 8286TIP3    H124822   3.036   0.703   5.464  0.4249  0.5878 -0.8368
 8286TIP3    H224823   3.105   0.709   5.599  1.8129 -1.9710 -1.3751
 8287TIP3   OH224824   6.867   4.756   2.065  0.1536 -0.0169 -0.3876
 8287TIP3    H124825   6.905   4.720   1.984 -0.7655  0.7612 -1.1960
 8287TIP3    H224826   6.796   4.695   2.087  1.0517 -0.7875  0.4194
 8288TIP3   OH224827   6.787   4.084   0.465  0.2803  0.3976  0.1522
 8288TIP3    H124828   6.876   4.074   0.499  1.5825 -1.8241 -3.4094
 8288TIP3    H224829   6.744   4.001   0.485 -0.4113  0.7792  0.2778
 8289TIP3   OH224830   4.754   1.370   0.839  0.3421 -0.0678  0.3961
 8289TIP3    H124831   4.769   1.433   0.910  0.5388 -1.5054  1.6903
 8289TIP3    H224832   4.668   1.334   0.858  0.2504 -0.2180 -0.3094
 8290TIP3   OH224833   2.926   2.925   0.540 -0.3870 -0.6951  0.2544
 8290TIP3    H124834   2.890   3.014   0.543  1.5728  0.1673 -0.2537
 8290TIP3    H224835   2.876   2.880   0.472 -0.1154  0.6593 -0.8864
 8291TIP3   OH224836   4.782   5.986   0.948 -0.0790 -0.2816  0.1672
 8291TIP3    H124837   4.786   5.924   1.020  1.9357 -0.0561  0.3014
 8291TIP3    H224838   4.800   6.071   0.989  0.2346 -0.0371 -0.4629
 8292TIP3   OH224839   5.726   3.953   4.705  0.1916 -0.2178 -0.1791
 8292TIP3    H124840   5.698   4.043   4.691  0.6358 -0.1826 -0.9244
 8292TIP3    H224841   5.672   3.901   4.645  0.9162 -0.2802 -0.7816
 8293TIP3   OH224842   1.218   2.310   4.186 -0.3776 -0.1508 -0.0427
 8293TIP3    H124843   1.161   2.342   4.116 -1.4320  0.2612  0.9632
 8293TIP3    H224844   1.212   2.214   4.180  0.2472 -0.1420 -1.0496
 8294TIP3   OH224845   4.111   4.146   5.726 -0.2515 -0.5417  0.3976
 8294TIP3    H124846   4.091   4.113   5.639 -1.3159  0.0917  0.3746
 8294TIP3    H224847   4.134   4.238   5.712 -2.0519  0.0338  0.9132
 8295TIP3   OH224848   7.043   6.422   2.777  0.0245 -0.4999  0.0895
 8295TIP3    H124849   6.948   6.410   2.780 -0.1396 -0.5135 -2.4794
 8295TIP3    H224850   7.069   6.431   2.868 -2.1284 -2.7548  1.0396
 8296TIP3   OH224851   4.315   6.359   3.923  0.0887  0.2450 -0.0117
 8296TIP3    H124852   4.301   6.343   3.830  1.7517  0.6498 -0.3696
 8296TIP3    H224853   4.229   6.344   3.964 -0.9892  1.3543 -1.7700
 8297TIP3   OH224854   6.809   5.590   3.717 -0.0532 -0.4948 -0.2326
 8297TIP3    H124855   6.835   5.606   3.626 -0.0644  0.2302 -0.1136
 8297TIP3    H224856   6.758   5.668   3.742  0.5632 -0.3501  0.6211
 8298TIP3   OH224857   3.148   3.738   5.705  0.3756 -0.0868  0.6017
 8298TIP3    H124858   3.204   3.685   5.649  0.4154 -0.7993  1.2878
 8298TIP3    H224859   3.121   3.812   5.651  1.3727 -0.1311  0.0335
 8299TIP3   OH224860   2.429   5.876   0.285 -0.2472 -0.1780 -0.5965
 8299TIP3    H124861   2.518   5.901   0.260  0.1727 -0.4153  0.6018
 8299TIP3    H224862   2.374   5.912   0.216  0.7678  0.0338 -1.3210
 8300TIP3   OH224863   5.297   6.240   0.713 -0.4930 -0.4450  0.3192
 8300TIP3    H124864   5.338   6.315   0.669  0.8282 -0.4394  1.5070
 8300TIP3    H224865   5.325   6.164   0.662 -0.3735 -0.2887  0.1485
 8301TIP3   OH224866   5.488   0.756   4.264 -0.9046  0.6206  0.3578
 8301TIP3    H124867   5.556   0.692   4.288 -0.0253  1.5771  0.4894
 8301TIP3    H224868   5.442   0.715   4.191 -0.5403 -0.2837  0.6172
 8302TIP3   OH224869   5.717   3.971   4.974  0.2603  0.2572 -0.5743
 8302TIP3    H124870   5.726   3.963   4.879  1.4483 -0.6415 -0.4059
 8302TIP3    H224871   5.806   3.981   5.006 -0.2791  3.3610  0.2733
 8303TIP3   OH224872   6.149   1.528   3.610 -0.4861  0.3264  0.5758
 8303TIP3    H124873   6.140   1.531   3.514 -1.6029 -0.3761  0.6391
 8303TIP3    H224874   6.233   1.570   3.627  0.3092 -0.6143 -0.8079
 8304TIP3   OH224875   4.169   0.672   3.287  0.0842 -0.3228 -0.1784
 8304TIP3    H124876   4.161   0.665   3.192 -0.5902 -1.6512 -0.0447
 8304TIP3    H224877   4.246   0.618   3.308  0.8535  0.7923 -0.0513
 8305TIP3   OH224878   2.291   5.338   4.888  0.3513 -0.0628 -0.6318
 8305TIP3    H124879   2.286   5.382   4.803 -1.4281 -0.7971 -0.9533
 8305TIP3    H224880   2.305   5.409   4.950 -2.8028  1.1276 -1.0972
 8306TIP3   OH224881   4.449   3.706   5.394  0.6538  0.4526  0.0119
 8306TIP3    H124882   4.521   3.679   5.337  0.2725 -0.6264  0.0339
 8306TIP3    H224883   4.377   3.725   5.334  0.8482  1.2489  0.0122
 8307TIP3   OH224884   5.041   4.224   5.120 -0.4486  0.2890 -0.0448
 8307TIP3    H124885   5.072   4.219   5.210  0.1726 -0.2139 -0.2846
 8307TIP3    H224886   4.980   4.151   5.111 -1.0952  0.7829  0.1769
 8308TIP3   OH224887   2.708   5.910   0.263 -0.4407 -0.0812  0.3121
 8308TIP3    H124888   2.765   5.891   0.189 -1.3456 -0.7776 -0.2325
 8308TIP3    H224889   2.746   5.860   0.336 -1.3949 -2.1668 -0.5180
 8309TIP3   OH224890   1.925   5.193   4.482 -0.6682 -0.1390 -0.3658
 8309TIP3    H124891   1.954   5.284   4.487  0.0372 -0.3225 -0.8534
 8309TIP3    H224892   1.865   5.182   4.555 -0.6459  0.6816 -0.2213
 8310TIP3   OH224893   4.036   0.808   1.119 -0.2007  0.4309 -0.5675
 8310TIP3    H124894   3.973   0.740   1.144 -0.0143  0.3012 -0.4490
 8310TIP3    H224895   4.122   0.769   1.136 -0.1007  1.0179  0.3579
 8311TIP3   OH224896   2.955   4.680   1.616  0.2395  0.3058  0.2057
 8311TIP3    H124897   2.987   4.759   1.658  0.5501  0.4062 -0.2176
 8311TIP3    H224898   2.871   4.705   1.578  0.5780  0.5734 -0.3720
 8312TIP3   OH224899   0.445   6.115   3.957  0.1136  0.4832 -0.0215
 8312TIP3    H124900   0.496   6.063   4.020  1.2837  3.4141  1.6503
 8312TIP3    H224901   0.469   6.078   3.871 -1.5857 -3.6957  1.0289
 8313TIP3   OH224902   2.504   3.954   3.754 -0.1558  0.4942 -0.1530
 8313TIP3    H124903   2.571   3.928   3.818  1.9853  0.9722 -2.0816
 8313TIP3    H224904   2.422   3.921   3.791  1.2968 -1.3917  1.6355
 8314TIP3   OH224905   0.022   4.901   3.093 -0.3882  0.8295 -0.0240
 8314TIP3    H124906  -0.068   4.925   3.071 -0.2908  3.3553  1.8319
 8314TIP3    H224907   0.064   4.984   3.115  1.5728 -0.5590  1.9762
 8315TIP3   OH224908   1.295   0.616   1.344 -0.4925 -0.8312 -0.1438
 8315TIP3    H124909   1.218   0.563   1.328  0.6647 -2.2246 -1.4118
 8315TIP3    H224910   1.297   0.678   1.270 -1.0140  0.0202  0.5289
 8316TIP3   OH224911   5.188   2.403   5.320  1.0451  0.2223  0.2492
 8316TIP3    H124912   5.224   2.459   5.251 -1.6549  1.0156 -0.6659
 8316TIP3    H224913   5.110   2.450   5.349 -0.6760 -2.4815  0.3194
 8317TIP3   OH224914   1.003   3.317   4.852  0.1463  0.6646 -0.1304
 8317TIP3    H124915   1.020   3.290   4.942  1.5426  1.0754 -0.2546
 8317TIP3    H224916   0.923   3.270   4.828  1.2192 -1.5936  0.4218
 8318TIP3   OH224917   6.862   4.588   4.411 -0.3553 -0.9595 -0.1176
 8318TIP3    H124918   6.875   4.529   4.336  0.0260 -0.2688 -0.6066
 8318TIP3    H224919   6.880   4.675   4.376 -2.7328 -0.3134  0.1180
 8319TIP3   OH224920   6.962   1.226   4.518 -0.1585  0.8635  0.0130
 8319TIP3    H124921   6.999   1.139   4.502 -1.5636 -0.1182  1.5810
 8319TIP3    H224922   7.007   1.284   4.457  0.6042 -1.0216 -1.3191
 8320TIP3   OH224923   6.172   1.449   5.072 -0.8260 -0.9308 -0.3997
 8320TIP3    H124924   6.218   1.371   5.102 -0.1983 -1.1958 -1.9465
 8320TIP3    H224925   6.233   1.521   5.089 -1.0127 -0.8981  0.1470
 8321TIP3   OH224926   2.520   4.239   4.337 -0.1098  0.5133  0.3910
 8321TIP3    H124927   2.582   4.287   4.392 -1.0214  1.0754  0.9613
 8321TIP3    H224928   2.485   4.304   4.276  0.5054  0.0054 -0.5294
 8322TIP3   OH224929   5.759   2.264   0.192  0.0131  0.0834 -0.0580
 8322TIP3    H124930   5.724   2.330   0.133 -1.0878  0.8673  1.4013
 8322TIP3    H224931   5.704   2.270   0.271  1.4245 -0.8796  1.0648
 8323TIP3   OH224932   0.986   4.426   5.055 -0.0455  0.4636  0.1969
 8323TIP3    H124933   1.013   4.354   5.113  0.7661  0.3308 -0.3194
 8323TIP3    H224934   0.891   4.430   5.064 -0.4005 -2.0082 -1.2303
 8324TIP3   OH224935   6.112   1.846   4.828 -0.3505 -0.0791 -0.3009
 8324TIP3    H124936   6.131   1.920   4.772 -0.2193  0.1620  0.0596
 8324TIP3    H224937   6.079   1.779   4.768 -0.0384  0.1071 -0.6896
 8325TIP3   OH224938   0.908   4.131   5.839  0.0354 -0.2907  0.0121
 8325TIP3    H124939   1.000   4.105   5.847  0.2182  0.4575  0.3586
 8325TIP3    H224940   0.859   4.057   5.877  0.5654 -0.0346  1.2273
 8326TIP3   OH224941   5.899   1.946   1.122 -0.4727 -0.1466 -0.4377
 8326TIP3    H124942   5.936   2.015   1.176 -0.2362 -0.8244  0.2724
 8326TIP3    H224943   5.873   1.878   1.183  1.6972 -1.8559 -1.2794
 8327TIP3   OH224944   5.842   1.327   1.231  0.5834 -0.0029  0.2476
 8327TIP3    H124945   5.883   1.378   1.161  1.1375  0.7163  1.0681
 8327TIP3    H224946   5.909   1.324   1.300 -0.5819  0.8170  1.4535
 8328TIP3   OH224947   3.810   3.593   1.653 -0.1717 -0.1075  0.4686
 8328TIP3    H124948   3.855   3.646   1.719  1.1852 -1.1392  0.4081
 8328TIP3    H224949   3.880   3.546   1.608 -1.3419 -2.7973  1.2350
 8329TIP3   OH224950   5.303   2.821   3.433  0.7204 -0.6206  0.1379
 8329TIP3    H124951   5.242   2.879   3.388 -0.5765 -1.7455  0.3776
 8329TIP3    H224952   5.339   2.765   3.364  1.0015 -0.3830  0.0894
 8330TIP3   OH224953   1.746   6.452   5.199  0.7794  0.4404 -0.3783
 8330TIP3    H124954   1.831   6.414   5.220  0.5335  0.5398  0.8607
 8330TIP3    H224955   1.765   6.544   5.179  0.9978  0.3869 -0.4185
 8331TIP3   OH224956   6.838   2.984   1.975 -0.8630  0.3217  0.5513
 8331TIP3    H124957   6.886   2.906   1.948 -1.1366  0.4936 -0.4820
 8331TIP3    H224958   6.759   2.984   1.921 -0.2587  1.9764 -0.4269
 8332TIP3   OH224959   1.160   6.280   3.716 -0.1345 -0.1599  0.4813
 8332TIP3    H124960   1.098   6.327   3.771 -2.0715 -1.9670 -0.0228
 8332TIP3    H224961   1.207   6.221   3.775 -1.4469 -1.3233  0.3975
 8333TIP3   OH224962   6.457   6.605   2.933  0.0912  0.5297  0.6286
 8333TIP3    H124963   6.430   6.514   2.923  1.3126  0.0963  1.1106
 8333TIP3    H224964   6.436   6.626   3.024  1.0898  0.2717  0.9303
 8334TIP3   OH224965   5.463   2.525   4.017  0.5854  0.1345  0.2028
 8334TIP3    H124966   5.376   2.485   4.016  1.1694 -1.1840 -0.1134
 8334TIP3    H224967   5.467   2.576   3.936  0.8912 -1.6284 -0.9530
 8335TIP3   OH224968   6.824   3.803   2.154  0.1514  0.1448  0.2563
 8335TIP3    H124969   6.746   3.749   2.140  0.0146  0.1212  1.0409
 8335TIP3    H224970   6.882   3.781   2.081 -0.5710  0.1610 -0.3342
 8336TIP3   OH224971   1.332   1.919   0.247 -0.5176 -0.0932  0.1119
 8336TIP3    H124972   1.253   1.965   0.218 -1.0973 -1.4160 -0.4956
 8336TIP3    H224973   1.394   1.929   0.175 -0.4829  0.1116  0.1702
 8337TIP3   OH224974   3.562   2.988   0.089 -0.1358 -0.4793 -0.7511
 8337TIP3    H124975   3.538   2.957   0.177  0.1566  0.0504 -0.4792
 8337TIP3    H224976   3.534   2.918   0.031 -1.7984 -0.1616 -0.4032
 8338TIP3   OH224977   2.201   6.388   4.086  0.3233 -0.0114  0.0485
 8338TIP3    H124978   2.170   6.362   3.999  0.5539  0.1238 -0.0734
 8338TIP3    H224979   2.122   6.392   4.139 -0.1356  2.1724 -0.7106
 8339TIP3   OH224980   2.021   4.374   3.588 -0.4342 -0.3049  0.0227
 8339TIP3    H124981   2.062   4.375   3.502  1.2140  0.0491  0.7774
 8339TIP3    H224982   2.021   4.466   3.616 -2.8685 -0.0890 -0.4132
 8340TIP3   OH224983   0.793   6.459   5.847 -0.3413 -0.2250  0.2359
 8340TIP3    H124984   0.801   6.527   5.914 -1.0336 -0.1592  0.2589
 8340TIP3    H224985   0.737   6.393   5.886 -0.3902 -0.3943 -0.1169
 8341TIP3   OH224986   1.450   0.077   0.201  0.1453 -0.2077 -0.4613
 8341TIP3    H124987   1.438   0.034   0.286 -2.6094 -0.4469 -0.8871
 8341TIP3    H224988   1.394   0.155   0.206  1.4924  0.8530 -1.3793
 8342TIP3   OH224989   3.751   0.155   1.241  0.1925 -0.3339 -0.6170
 8342TIP3    H124990   3.706   0.169   1.158  0.6248  0.6678 -0.7040
 8342TIP3    H224991   3.709   0.216   1.302  0.6533 -0.2100 -0.4133
 8343TIP3   OH224992   6.215   4.585   4.852 -0.4225 -0.3797  0.1014
 8343TIP3    H124993   6.213   4.518   4.784 -1.1097 -0.4128  0.1485
 8343TIP3    H224994   6.216   4.536   4.934  0.6299 -0.3427  0.1215
 8344TIP3   OH224995   6.605   4.301   0.967  0.2103  0.1277  0.5082
 8344TIP3    H124996   6.666   4.236   1.001  0.3287  0.5919  1.2166
 8344TIP3    H224997   6.519   4.263   0.982  0.2712  0.2221  1.1398
 8345TIP3   OH224998   5.893   6.083   3.073 -0.5916 -0.2952 -0.3013
 8345TIP3    H124999   5.800   6.063   3.077 -0.3941 -1.0223  1.6998
 8345TIP3    H225000   5.930   6.012   3.020 -1.2619  0.6049 -2.0751
 8346TIP3   OH225001   3.035   5.590   0.603  0.3332  0.4741 -0.2531
 8346TIP3    H125002   2.970   5.523   0.621  0.1821  0.4315 -0.9430
 8346TIP3    H225003   3.119   5.544   0.606  0.1378 -0.0770 -2.2074
 8347TIP3   OH225004   1.478   1.006   5.522  0.2324  0.7320 -0.2113
 8347TIP3    H125005   1.466   0.968   5.609 -1.5102  0.8437 -0.3712
 8347TIP3    H225006   1.546   0.952   5.481 -0.8754 -1.0773  0.2268
 8348TIP3   OH225007   6.689   3.308   2.680  0.6566 -0.8062  0.3209
 8348TIP3    H125008   6.766   3.355   2.648  1.0597 -0.6191  1.5287
 8348TIP3    H225009   6.631   3.376   2.713  0.6505 -1.0551  0.8353
 8349TIP3   OH225010   0.357   5.076   0.872 -0.5409  0.1699 -0.5030
 8349TIP3    H125011   0.318   5.122   0.798 -1.2220 -0.7452 -0.7285
 8349TIP3    H225012   0.284   5.060   0.932 -0.6325 -1.8444 -1.0791
 8350TIP3   OH225013   0.205   5.734   0.175  0.4626 -0.0998  0.3851
 8350TIP3    H125014   0.173   5.824   0.179  2.3663  0.6455 -0.1321
 8350TIP3    H225015   0.161   5.689   0.247 -0.4320  1.2650  0.7168
 8351TIP3   OH225016   5.284   6.774   4.561 -0.1870  0.2459  0.1338
 8351TIP3    H125017   5.314   6.792   4.650 -0.7543  2.3256 -0.0376
 8351TIP3    H225018   5.364   6.750   4.514  0.5675  1.5425  0.6717
 8352TIP3   OH225019   1.160   3.159   0.667 -0.0798  0.2016  0.2263
 8352TIP3    H125020   1.110   3.140   0.747  1.7986  0.7928  1.6040
 8352TIP3    H225021   1.206   3.077   0.648 -0.5491  0.0533 -0.2746
 8353TIP3   OH225022   3.515   3.210   5.314  0.2216 -0.2830 -0.4840
 8353TIP3    H125023   3.478   3.296   5.337  0.9564 -0.4065  1.3628
 8353TIP3    H225024   3.542   3.220   5.222 -0.7089  1.0898 -0.6500
 8354TIP3   OH225025   0.717   5.393   5.233 -0.7337  0.2729 -0.2789
 8354TIP3    H125026   0.649   5.421   5.294  0.7512 -0.0578  1.6370
 8354TIP3    H225027   0.792   5.450   5.252 -0.7902  1.4917 -3.1996
 8355TIP3   OH225028   1.616   0.695   3.518  0.2636  0.1720 -0.2323
 8355TIP3    H125029   1.637   0.602   3.511  2.1596  0.6214 -1.0105
 8355TIP3    H225030   1.689   0.740   3.475 -0.1054  2.0681  1.0020
 8356TIP3   OH225031   3.886   2.694   3.188  0.0814 -0.1459 -0.4504
 8356TIP3    H125032   3.935   2.776   3.187  0.9051 -0.6343 -0.8226
 8356TIP3    H225033   3.845   2.689   3.102 -0.5627  0.2172 -0.1721
 8357TIP3   OH225034   6.651   5.094   4.898 -0.3036 -0.3388  0.0706
 8357TIP3    H125035   6.591   5.164   4.870  0.4467 -0.2194 -1.3256
 8357TIP3    H225036   6.694   5.066   4.817 -2.2075 -4.0385  0.1318
 8358TIP3   OH225037   0.432   5.962   3.393 -0.5495  0.5312 -0.2206
 8358TIP3    H125038   0.441   5.871   3.422 -1.4370  0.6832  0.5918
 8358TIP3    H225039   0.374   5.957   3.317  0.0757  0.3474 -0.6979
 8359TIP3   OH225040   3.347   1.514   2.330  0.3147 -0.1959 -0.1910
 8359TIP3    H125041   3.437   1.479   2.323 -0.3624 -2.0462 -0.3702
 8359TIP3    H225042   3.343   1.582   2.262  1.1929 -1.0421 -1.1391
 8360TIP3   OH225043   0.118   6.043   3.474 -0.4335  0.1996 -0.6908
 8360TIP3    H125044   0.140   6.076   3.387 -1.2364  0.9057 -0.6378
 8360TIP3    H225045   0.107   6.121   3.527 -2.3016 -0.0978 -0.5415
 8361TIP3   OH225046   0.869   6.080   2.341 -0.2257  0.1487 -0.7887
 8361TIP3    H125047   0.839   6.103   2.429 -0.1485  0.0701 -0.7424
 8361TIP3    H225048   0.867   5.984   2.339  0.9894  0.1079 -0.4505
 8362TIP3   OH225049   1.065   6.782   0.787 -0.2845  0.2640  0.3505
 8362TIP3    H125050   1.084   6.694   0.820 -1.4083 -0.6866 -1.3918
 8362TIP3    H225051   0.981   6.805   0.826 -0.0915  0.4989  0.6376
 8363TIP3   OH225052   1.146   6.668   4.444  0.4669 -0.2238  0.2170
 8363TIP3    H125053   1.242   6.668   4.453  0.4536 -0.7562  0.4015
 8363TIP3    H225054   1.130   6.609   4.370  0.2510 -0.5953  0.5597
 8364TIP3   OH225055   6.346   4.232   1.384  0.0509  0.3039  0.3472
 8364TIP3    H125056   6.345   4.245   1.479 -0.5664 -1.0332  0.5457
 8364TIP3    H225057   6.439   4.223   1.362  0.1811  0.3381  0.8730
 8365TIP3   OH225058   6.978   3.995   5.645 -0.6043  0.0415  0.1895
 8365TIP3    H125059   6.908   3.931   5.631  1.4737 -2.1373 -0.9332
 8365TIP3    H225060   6.989   4.036   5.559 -0.0215 -0.1659  0.1643
 8366TIP3   OH225061   1.818   3.395   0.864  0.4638  0.4122  0.2170
 8366TIP3    H125062   1.759   3.356   0.929  1.6927 -0.3304  0.9149
 8366TIP3    H225063   1.772   3.384   0.781  0.8902 -2.9902  0.2906
 8367TIP3   OH225064   4.927   1.288   1.828  0.3401 -0.1006 -0.7737
 8367TIP3    H125065   4.933   1.383   1.823 -2.0831  0.0711 -1.7846
 8367TIP3    H225066   4.847   1.271   1.878  0.9760 -1.6328 -0.1976
 8368TIP3   OH225067   2.980   6.298   0.240  0.0157  0.0172  0.0680
 8368TIP3    H125068   2.907   6.308   0.302 -0.1376  0.9511 -0.2448
 8368TIP3    H225069   3.058   6.299   0.295 -0.1787 -0.7057  0.3799
 8369TIP3   OH225070   1.231   1.366   5.078 -0.1434 -0.6560  0.1941
 8369TIP3    H125071   1.229   1.331   5.167  0.1264  0.8580  0.8290
 8369TIP3    H225072   1.204   1.293   5.023 -0.6583 -1.5238  1.5468
 8370TIP3   OH225073   1.397   0.790   5.145 -0.3405  0.4121  0.2184
 8370TIP3    H125074   1.445   0.733   5.205 -0.3215  0.9866  0.7588
 8370TIP3    H225075   1.350   0.730   5.088  0.8977 -0.1650 -0.2257
 8371TIP3   OH225076   5.957   3.874   0.298 -0.0627 -0.4335  0.2439
 8371TIP3    H125077   5.891   3.925   0.346 -0.3281 -0.1087 -0.4546
 8371TIP3    H225078   5.937   3.783   0.320  1.2176 -0.2354  2.5458
 8372TIP3   OH225079   2.690   2.396   2.784  0.5434  0.2334  0.1609
 8372TIP3    H125080   2.614   2.338   2.786  0.7446 -0.0588 -0.4542
 8372TIP3    H225081   2.721   2.398   2.875  0.3150 -0.3242  0.2549
 8373TIP3   OH225082   4.039   5.318   3.381  0.1668  0.3935  0.3035
 8373TIP3    H125083   4.121   5.346   3.340  0.5024  0.3465  0.9337
 8373TIP3    H225084   3.983   5.293   3.307  0.5180  0.9555 -0.1618
 8374TIP3   OH225085   6.887   5.333   3.956  0.4355  0.5166 -0.0613
 8374TIP3    H125086   6.802   5.363   3.989  0.5971  0.6350  0.2569
 8374TIP3    H225087   6.924   5.282   4.028 -0.1269 -1.0572 -0.8399
 8375TIP3   OH225088   2.367   3.286   0.551  0.3390  0.4849 -0.0637
 8375TIP3    H125089   2.430   3.355   0.572 -0.5438  1.0918  0.6600
 8375TIP3    H225090   2.324   3.266   0.634 -0.6535  0.3132 -0.6045
 8376TIP3   OH225091   1.223   3.752   2.042  0.0136  0.5090 -0.0152
 8376TIP3    H125092   1.243   3.709   2.125  0.4319 -0.0397 -0.3862
 8376TIP3    H225093   1.282   3.709   1.979 -0.4800  0.7357 -0.6366
 8377TIP3   OH225094   2.682   0.964   1.871 -0.2486 -0.1158 -0.0950
 8377TIP3    H125095   2.760   0.909   1.868 -0.5486 -0.6408  1.0912
 8377TIP3    H225096   2.706   1.042   1.820  0.8265 -0.5297 -0.2560
 8378TIP3   OH225097   2.257   0.860   0.965  0.3017  0.1817 -0.1803
 8378TIP3    H125098   2.315   0.811   1.024 -0.5034 -0.7792 -0.1554
 8378TIP3    H225099   2.197   0.906   1.023  0.3289  0.2702 -0.2229
 8379TIP3   OH225100   2.791   2.227   2.327  0.3022 -0.8738 -0.4456
 8379TIP3    H125101   2.886   2.229   2.311  0.0852 -1.9473 -2.2341
 8379TIP3    H225102   2.775   2.296   2.391  1.9215  1.2332 -2.1858
 8380TIP3   OH225103   6.324   3.071   5.148  0.3752  0.6728  0.6210
 8380TIP3    H125104   6.241   3.117   5.138  1.3065  2.5999  1.2116
 8380TIP3    H225105   6.344   3.037   5.061 -1.4382 -0.6542  0.6690
 8381TIP3   OH225106   4.049   5.161   2.190 -0.3412 -1.0584 -0.1704
 8381TIP3    H125107   4.055   5.177   2.096  0.5718  1.0188  0.1825
 8381TIP3    H225108   4.130   5.197   2.226 -0.7793 -1.5857  1.4315
 8382TIP3   OH225109   4.490   1.263   0.879 -0.3232 -0.5515  0.4090
 8382TIP3    H125110   4.471   1.179   0.921  0.8847 -1.5820 -0.9938
 8382TIP3    H225111   4.429   1.267   0.804 -0.8446  0.1643  0.8564
 8383TIP3   OH225112   1.198   0.263   1.384  0.1656 -0.4694 -0.0077
 8383TIP3    H125113   1.172   0.351   1.411  2.8329  0.6660 -0.8192
 8383TIP3    H225114   1.230   0.221   1.464 -0.0634 -0.3261  0.1615
 8384TIP3   OH225115   6.649   4.588   2.021 -0.2389 -0.1918 -0.6704
 8384TIP3    H125116   6.679   4.505   1.984 -1.7607 -0.3640 -1.6139
 8384TIP3    H225117   6.555   4.589   2.004 -0.2543  1.7071 -0.6590
 8385TIP3   OH225118   3.146   1.026   1.498 -0.5951 -0.4739 -0.2481
 8385TIP3    H125119   3.097   1.102   1.527  1.1533  0.4670  0.4065
 8385TIP3    H225120   3.081   0.969   1.456 -2.1301  0.8477  0.2617
 8386TIP3   OH225121   4.881   2.878   3.692  0.1356  0.3141 -0.1284
 8386TIP3    H125122   4.840   2.794   3.711 -0.2889  0.2626 -1.1580
 8386TIP3    H225123   4.933   2.899   3.769  2.5936 -2.2685 -0.9140
 8387TIP3   OH225124   2.922   2.321   5.718 -1.0633  0.8014  0.6793
 8387TIP3    H125125   2.827   2.325   5.733 -1.1929  1.4064 -0.2051
 8387TIP3    H225126   2.955   2.403   5.753 -1.0105  1.0514  0.0429
 8388TIP3   OH225127   3.532   6.040   4.026  0.1754  0.4098 -0.3507
 8388TIP3    H125128   3.473   6.104   3.986 -0.0881  0.9839  0.9295
 8388TIP3    H225129   3.605   6.091   4.058  0.7241 -0.1396 -0.7063
 8389TIP3   OH225130   1.989   4.895   3.905  0.4438  0.8464 -0.3160
 8389TIP3    H125131   2.051   4.826   3.882  0.2373  0.6955 -0.4223
 8389TIP3    H225132   2.013   4.968   3.849 -0.9255  0.0429 -2.0433
 8390TIP3   OH225133   0.743   1.041   2.234 -0.4056 -0.0586  0.3021
 8390TIP3    H125134   0.671   1.090   2.273 -2.2532 -1.4664 -1.1360
 8390TIP3    H225135   0.714   0.950   2.235 -0.5511 -0.2820 -3.9116
 8391TIP3   OH225136   6.279   3.442   2.639  0.1849 -0.2697  0.3006
 8391TIP3    H125137   6.356   3.440   2.696  1.2481 -1.5370 -1.1043
 8391TIP3    H225138   6.249   3.351   2.635 -0.2977 -0.0892 -0.5760
 8392TIP3   OH225139   0.449   3.986   4.150  0.1103  0.4411  0.5279
 8392TIP3    H125140   0.414   3.942   4.228  0.6598  0.9628  1.0832
 8392TIP3    H225141   0.408   4.072   4.151 -0.6761  0.0916 -0.3482
 8393TIP3   OH225142   4.159   2.212   3.058  0.0856  0.2452  0.1207
 8393TIP3    H125143   4.247   2.199   3.024 -0.7492 -0.0455 -2.1613
 8393TIP3    H225144   4.148   2.307   3.063  0.2784  0.2919 -0.3369
 8394TIP3   OH225145   2.573   1.659   4.725 -0.7193  0.0737 -0.7887
 8394TIP3    H125146   2.653   1.668   4.673 -1.8749  0.0166 -2.6933
 8394TIP3    H225147   2.601   1.619   4.807  1.2890  0.7333 -1.1077
 8395TIP3   OH225148   0.637   2.532   0.391 -0.2395  0.8043  0.1512
 8395TIP3    H125149   0.656   2.616   0.434  0.5624  0.4273  0.5554
 8395TIP3    H225150   0.678   2.467   0.448 -1.3989  0.0809  0.1790
 8396TIP3   OH225151   6.535   0.336   3.883  0.0705 -0.1285  0.1195
 8396TIP3    H125152   6.507   0.358   3.972 -2.0066 -0.4805 -0.3922
 8396TIP3    H225153   6.604   0.271   3.896  0.3921  0.4330  1.4721
 8397TIP3   OH225154   0.400   1.953   0.377 -0.3301 -0.3614  0.1539
 8397TIP3    H125155   0.370   1.943   0.287 -1.3462  0.6348  0.3641
 8397TIP3    H225156   0.348   2.025   0.412  0.7027 -0.1235  1.2621
 8398TIP3   OH225157   5.064   1.376   2.540 -0.3847 -0.8222 -0.8198
 8398TIP3    H125158   5.143   1.428   2.531 -0.8776  0.2874  0.8300
 8398TIP3    H225159   4.992   1.437   2.521 -0.8955 -1.6708 -1.7507
 8399TIP3   OH225160   2.280   2.661   4.595  0.0527 -0.1445 -0.3112
 8399TIP3    H125161   2.308   2.596   4.659 -1.7110  0.1972  0.8594
 8399TIP3    H225162   2.225   2.612   4.534 -0.8526  0.1226  0.2743
 8400TIP3   OH225163   0.496   4.617   3.899 -0.0280 -0.0432 -0.2815
 8400TIP3    H125164   0.591   4.615   3.908 -0.0749 -1.2304  0.1193
 8400TIP3    H225165   0.478   4.696   3.849  1.3207 -0.8683 -2.1720
 8401TIP3   OH225166   5.327   2.697   0.664 -0.8618  0.2223 -0.0213
 8401TIP3    H125167   5.384   2.623   0.683 -0.0546  0.9284  0.3720
 8401TIP3    H225168   5.239   2.659   0.658 -0.6378 -0.5861  1.4566
 8402TIP3   OH225169   1.428   4.846   1.887 -0.0579  0.3585  0.6647
 8402TIP3    H125170   1.336   4.850   1.862 -0.2060  0.9900  1.2751
 8402TIP3    H225171   1.457   4.937   1.884  0.8600  0.0532 -0.6353
 8403TIP3   OH225172   4.305   2.074   4.480 -0.0926  0.2270 -0.0274
 8403TIP3    H125173   4.345   2.078   4.393 -1.5233  2.9019 -0.6394
 8403TIP3    H225174   4.243   2.002   4.473  0.4897 -0.2240 -0.8874
 8404TIP3   OH225175   6.734   5.441   1.575  0.7351 -0.0004 -0.3851
 8404TIP3    H125176   6.826   5.462   1.596  0.6414 -0.7982  0.9116
 8404TIP3    H225177   6.729   5.346   1.584 -0.0779 -0.0185 -1.0591
 8405TIP3   OH225178   4.241   6.176   0.340  0.2669  0.1205 -0.1013
 8405TIP3    H125179   4.223   6.245   0.277  0.1372  0.9242  0.7964
 8405TIP3    H225180   4.326   6.198   0.377  1.0183 -1.1392 -1.0081
 8406TIP3   OH225181   5.697   2.759  -0.010 -0.3631  0.0453 -0.6177
 8406TIP3    H125182   5.678   2.737   0.081  1.1667 -0.6739 -0.4460
 8406TIP3    H225183   5.613   2.788  -0.045 -1.5879 -2.1208  0.2980
 8407TIP3   OH225184   6.441   2.078   3.315 -0.5389 -0.1894  0.2985
 8407TIP3    H125185   6.488   2.066   3.232  1.4623  0.2480  1.3114
 8407TIP3    H225186   6.358   2.032   3.302  0.9341 -2.7350 -0.9213
 8408TIP3   OH225187   4.567   0.797   3.293  0.4370  0.4276 -0.0750
 8408TIP3    H125188   4.527   0.771   3.376 -0.2773  1.2019 -0.1553
 8408TIP3    H225189   4.593   0.715   3.252  1.2640  0.0738  1.1356
 8409TIP3   OH225190   5.624   6.532   5.135  0.0943 -0.0547  0.2583
 8409TIP3    H125191   5.592   6.615   5.169  1.0400 -0.2023  1.5826
 8409TIP3    H225192   5.545   6.478   5.125 -0.8377  1.6367 -2.7179
 8410TIP3   OH225193   1.699   1.153   4.074  0.5866 -0.3405 -0.3142
 8410TIP3    H125194   1.784   1.177   4.111  0.8451 -0.1070 -1.0398
 8410TIP3    H225195   1.697   1.057   4.079 -0.1824 -0.2494  2.0036
 8411TIP3   OH225196   1.466   0.363   5.533 -0.7868  0.1871  0.2185
 8411TIP3    H125197   1.461   0.447   5.578 -0.0969  0.2194  0.2442
 8411TIP3    H225198   1.537   0.316   5.578 -0.5074 -0.0245 -0.4387
 8412TIP3   OH225199   4.224   2.471   0.266 -0.1811  0.1768  0.4039
 8412TIP3    H125200   4.246   2.384   0.300 -0.6803 -0.0825  0.0668
 8412TIP3    H225201   4.295   2.527   0.298  0.6366 -0.5192 -0.1301
 8413TIP3   OH225202   5.078   0.666   0.953  0.0026 -0.4094  0.0315
 8413TIP3    H125203   5.151   0.726   0.967 -0.0612 -0.7158  2.1057
 8413TIP3    H225204   5.116   0.579   0.969 -0.4767 -0.6916 -0.3527
 8414TIP3   OH225205   7.088   0.536   5.848  0.3285 -0.3123  0.5210
 8414TIP3    H125206   7.047   0.621   5.866 -0.4437 -0.6564  0.4429
 8414TIP3    H225207   7.085   0.490   5.932 -0.5200 -0.7761  0.2486
 8415TIP3   OH225208   3.646   6.588   5.578 -0.4103 -0.1982  0.0389
 8415TIP3    H125209   3.696   6.563   5.656 -0.4967 -0.1380  0.1119
 8415TIP3    H225210   3.697   6.660   5.539 -0.6450  0.1235  0.3243
 8416TIP3   OH225211   0.709   2.665   0.933  0.0941  0.2629  0.0153
 8416TIP3    H125212   0.618   2.662   0.961  0.3450 -1.9063  0.7210
 8416TIP3    H225213   0.755   2.705   1.007 -0.2241  1.1732 -0.2606
 8417TIP3   OH225214   6.133   4.897   2.206 -1.0606  0.0531  0.1794
 8417TIP3    H125215   6.070   4.837   2.166 -2.2014  1.5860 -0.4084
 8417TIP3    H225216   6.141   4.969   2.144 -0.2035  0.8232  1.1474
 8418TIP3   OH225217   6.743   6.189   4.906  0.1555  0.5517 -0.0340
 8418TIP3    H125218   6.662   6.167   4.952 -0.4704  1.2566 -0.7634
 8418TIP3    H225219   6.812   6.175   4.971 -0.6018  0.4967  0.7802
 8419TIP3   OH225220   1.613   1.809   0.906 -0.4112 -0.3752 -0.2619
 8419TIP3    H125221   1.547   1.865   0.865  1.1996  1.9257  0.1202
 8419TIP3    H225222   1.572   1.777   0.986 -1.0809  1.0340 -0.0201
 8420TIP3   OH225223   0.098   6.372   1.721  0.4272 -0.2337  0.0044
 8420TIP3    H125224   0.047   6.359   1.801 -0.4904  0.1436 -0.5087
 8420TIP3    H225225   0.183   6.332   1.740 -1.2302 -4.4329 -0.4782
 8421TIP3   OH225226   2.074   4.675   3.382 -0.2452 -0.0015  0.3497
 8421TIP3    H125227   2.021   4.604   3.346 -0.9898 -0.8313  2.8797
 8421TIP3    H225228   2.161   4.660   3.346 -1.4004  0.8457 -3.1591
 8422TIP3   OH225229   4.150   4.993   2.481 -0.1143 -0.1842 -0.3021
 8422TIP3    H125230   4.070   4.944   2.464 -0.7808  0.4763  0.8002
 8422TIP3    H225231   4.141   5.073   2.429 -0.2704 -0.0295 -0.0439
 8423TIP3   OH225232   3.808   1.987   4.828 -0.5760 -0.2681 -0.8157
 8423TIP3    H125233   3.845   2.058   4.777  0.1415 -0.8820 -1.1686
 8423TIP3    H225234   3.773   1.926   4.762 -1.5020 -0.0846 -0.5127
 8424TIP3   OH225235   4.150   1.484   0.975 -0.1616  0.1418 -0.3829
 8424TIP3    H125236   4.165   1.573   1.006  0.3165  0.2435 -0.8968
 8424TIP3    H225237   4.151   1.430   1.055 -1.6067  0.7265  0.0634
 8425TIP3   OH225238   4.592   0.569   3.179  0.2786  0.1215 -0.5330
 8425TIP3    H125239   4.657   0.504   3.205 -0.0584  0.2000  0.5968
 8425TIP3    H225240   4.513   0.545   3.228  0.5386  2.1470  1.0396
 8426TIP3   OH225241   2.106   0.756   2.372 -0.4381 -0.2293 -0.0288
 8426TIP3    H125242   2.092   0.823   2.439 -0.0526 -0.1247 -0.0513
 8426TIP3    H225243   2.074   0.675   2.413 -0.5983 -0.0916  0.1213
 8427TIP3   OH225244   1.157   4.285   5.581  0.1793  0.6767  0.2596
 8427TIP3    H125245   1.074   4.291   5.628 -0.3415 -2.0936 -0.1599
 8427TIP3    H225246   1.141   4.331   5.498 -1.7094 -1.5150 -0.7061
 8428TIP3   OH225247   0.993   3.930   0.817 -0.3278 -0.0611 -0.1263
 8428TIP3    H125248   1.024   4.009   0.773 -0.8738  0.3494  0.2123
 8428TIP3    H225249   0.908   3.955   0.855 -0.4822 -0.7928  0.0258
 8429TIP3   OH225250   3.774   4.820   5.319 -0.5262 -0.2664  0.1450
 8429TIP3    H125251   3.831   4.890   5.351  0.1849 -0.2488 -1.0911
 8429TIP3    H225252   3.728   4.859   5.244 -0.3035 -1.0399 -0.4049
 8430TIP3   OH225253   7.121   2.164   0.528  0.1782 -0.4036  0.2190
 8430TIP3    H125254   7.194   2.226   0.528  0.2924 -0.4755  2.1347
 8430TIP3    H225255   7.141   2.104   0.599 -1.5739 -0.6478  0.5411
 8431TIP3   OH225256   6.880   2.042   1.872  0.2556  0.2710  0.2868
 8431TIP3    H125257   6.868   1.980   1.943 -0.0751  0.2013  0.1723
 8431TIP3    H225258   6.809   2.105   1.883  2.0119  2.1315  1.9343
 8432TIP3   OH225259   0.033   0.587   3.174 -0.3228  0.4941  0.1003
 8432TIP3    H125260   0.089   0.641   3.230 -0.1759  0.2540  0.1907
 8432TIP3    H225261   0.012   0.642   3.099  0.1621  0.5329 -0.0063
 8433TIP3   OH225262   3.161   1.608   3.261 -0.5417 -0.0806 -0.3016
 8433TIP3    H125263   3.157   1.644   3.172 -1.3250  0.3063 -0.1173
 8433TIP3    H225264   3.255   1.595   3.277 -0.3464  0.4721 -0.9324
 8434TIP3   OH225265   2.824   1.838   3.106  0.1230 -0.1252 -0.1040
 8434TIP3    H125266   2.821   1.748   3.141  1.0384  0.7246  2.4042
 8434TIP3    H225267   2.917   1.860   3.104 -0.1774  1.5876  1.7883
 8435TIP3   OH225268   3.351   6.714   2.653 -0.3832  0.0286 -0.2529
 8435TIP3    H125269   3.273   6.731   2.600 -0.2314 -0.0595 -0.5068
 8435TIP3    H225270   3.386   6.632   2.619 -0.8551 -0.5631  0.6626
 8436TIP3   OH225271   0.844   3.855   5.580  0.3828 -0.2066 -0.0974
 8436TIP3    H125272   0.797   3.917   5.635 -0.4750 -0.1167 -0.8928
 8436TIP3    H225273   0.818   3.769   5.613 -0.2160 -0.1552 -0.4084
 8437TIP3   OH225274   4.221   1.380   3.459 -0.5128  0.0264  0.5313
 8437TIP3    H125275   4.306   1.342   3.440 -0.1253  0.9865  0.2943
 8437TIP3    H225276   4.210   1.371   3.553  0.0461  0.2960  0.6238
 8438TIP3   OH225277   1.047   1.364   3.674  0.2308  0.3089  0.3791
 8438TIP3    H125278   1.121   1.334   3.727 -0.4403 -1.4561  0.3896
 8438TIP3    H225279   0.977   1.301   3.693 -0.8397  1.1435 -0.6568
 8439TIP3   OH225280   4.633   4.810   4.778  0.4216 -0.6265  0.5125
 8439TIP3    H125281   4.701   4.872   4.804  2.8437 -0.8356 -4.2048
 8439TIP3    H225282   4.674   4.724   4.787 -0.3441 -1.0095  0.4341
 8440TIP3   OH225283   0.775   2.989   2.922  0.2144 -0.7680 -0.2134
 8440TIP3    H125284   0.845   3.052   2.939  0.2976 -1.5581  2.8380
 8440TIP3    H225285   0.810   2.932   2.853  1.4996  0.3997 -0.5681
 8441TIP3   OH225286   3.733   5.108   0.816  0.5241  0.2728 -0.0734
 8441TIP3    H125287   3.655   5.084   0.767  0.6660  1.1886 -0.7828
 8441TIP3    H225288   3.705   5.182   0.871  1.1033  1.2082 -1.0147
 8442TIP3   OH225289   6.266   3.396   4.960  0.2493  0.6750 -0.2448
 8442TIP3    H125290   6.282   3.369   5.050  0.6422  1.8748  0.0731
 8442TIP3    H225291   6.325   3.342   4.907  0.4583  0.3934  0.2737
 8443TIP3   OH225292   5.440   1.074   3.150  0.4793 -0.1428  0.2819
 8443TIP3    H125293   5.387   1.151   3.172  1.5245  0.0230  2.5136
 8443TIP3    H225294   5.380   1.014   3.106 -0.3681  1.9107 -1.5599
 8444TIP3   OH225295   2.121   4.887   1.839  0.0069  0.7826  0.4992
 8444TIP3    H125296   2.090   4.829   1.769 -0.3556 -0.1254  1.4001
 8444TIP3    H225297   2.144   4.829   1.911  0.5760  1.6951  1.0711
 8445TIP3   OH225298   0.110   3.433   2.978  0.3246 -0.0529 -0.1193
 8445TIP3    H125299   0.054   3.373   3.028  0.8879 -0.8621 -0.4249
 8445TIP3    H225300   0.109   3.514   3.028  1.1254 -0.9308  1.4206
 8446TIP3   OH225301   2.640   5.765   2.006  0.1545 -0.1849 -0.0677
 8446TIP3    H125302   2.590   5.794   1.929 -0.9286 -0.2516  0.5892
 8446TIP3    H225303   2.626   5.833   2.071 -1.4124 -1.5131  1.0670
 8447TIP3   OH225304   5.957   4.089   5.056 -0.5704 -0.0627 -0.0365
 8447TIP3    H125305   6.025   4.037   5.100 -0.4478  1.1199  1.2570
 8447TIP3    H225306   6.001   4.125   4.979  0.3108  0.6660  0.7653
 8448TIP3   OH225307   4.737   2.072   3.829 -0.5208 -0.2803  0.3116
 8448TIP3    H125308   4.677   2.054   3.757  0.0279 -0.4401 -0.1162
 8448TIP3    H225309   4.724   1.999   3.890 -0.3879 -0.5962 -0.0326
 8449TIP3   OH225310   1.855   6.789   2.836  0.3147 -0.4679 -0.4067
 8449TIP3    H125311   1.804   6.866   2.810 -0.4893 -0.4911  1.0003
 8449TIP3    H225312   1.821   6.718   2.782  0.1754 -0.0959 -0.8180
 8450TIP3   OH225313   5.054   2.213   4.304 -0.2971 -0.0247  0.2377
 8450TIP3    H125314   5.102   2.130   4.306 -0.6218 -0.3090 -1.6022
 8450TIP3    H225315   5.122   2.280   4.308  0.2646 -0.4217 -1.4926
 8451TIP3   OH225316   4.711   2.290  -0.007  0.4650  0.7123 -0.7168
 8451TIP3    H125317   4.780   2.244   0.042 -0.1980  0.1972 -0.2407
 8451TIP3    H225318   4.636   2.231  -0.003 -0.0758  1.3666 -1.0327
 8452TIP3   OH225319   5.618   0.360   0.861  0.2628 -0.4421  0.4019
 8452TIP3    H125320   5.537   0.358   0.912 -0.7103 -1.7220 -1.0759
 8452TIP3    H225321   5.615   0.280   0.808  1.4320  0.5503 -1.2792
 8453TIP3   OH225322   4.760   2.448   2.898 -0.4097 -0.5201 -0.2006
 8453TIP3    H125323   4.722   2.422   2.814 -1.4655 -1.0172  0.4105
 8453TIP3    H225324   4.735   2.378   2.958  0.0450 -0.0063  0.6067
 8454TIP3   OH225325   6.903   2.326   0.445  0.2306 -0.1706  0.3210
 8454TIP3    H125326   6.977   2.371   0.402 -0.0536 -1.0075 -1.1295
 8454TIP3    H225327   6.931   2.235   0.450  0.9009  0.1216  3.4534
 8455TIP3   OH225328   2.999   4.676   5.369 -0.0143  0.2045 -0.1534
 8455TIP3    H125329   3.019   4.713   5.454 -0.4135  1.3913 -0.5522
 8455TIP3    H225330   3.062   4.605   5.358 -0.6844 -0.7146  1.5900
 8456TIP3   OH225331   1.009   1.882   5.054  0.1266 -0.1698 -0.3752
 8456TIP3    H125332   1.033   1.957   5.109  0.5000  0.4095 -1.3029
 8456TIP3    H225333   0.925   1.908   5.014  1.1181  0.5462 -2.0832
 8457TIP3   OH225334   6.113   4.034   2.319 -0.1520 -0.5257  0.2584
 8457TIP3    H125335   6.186   4.050   2.260  1.3698 -0.7935  2.0023
 8457TIP3    H225336   6.071   4.120   2.328  0.0539 -0.3255 -0.5585
 8458TIP3   OH225337   2.600   4.945   3.156 -0.3687  0.3594 -0.1243
 8458TIP3    H125338   2.674   4.911   3.107 -0.8038  0.0995 -0.6032
 8458TIP3    H225339   2.633   4.954   3.246 -0.4447 -2.0350  0.2097
 8459TIP3   OH225340   6.278   1.255   2.715  0.0893 -0.2781  0.0209
 8459TIP3    H125341   6.273   1.159   2.715  2.4540 -0.4455  0.3737
 8459TIP3    H225342   6.225   1.281   2.790 -1.0168 -1.2400 -0.3728
 8460TIP3   OH225343   5.598   0.620   1.496 -0.4426 -0.4880 -0.2692
 8460TIP3    H125344   5.603   0.692   1.559 -1.6939 -0.3965 -0.2637
 8460TIP3    H225345   5.675   0.632   1.440  0.4489 -0.3182  0.9545
 8461TIP3   OH225346   5.884   0.338   1.864  0.1474 -0.0692  0.2524
 8461TIP3    H125347   5.928   0.284   1.930  0.4911  1.1719  1.0619
 8461TIP3    H225348   5.910   0.428   1.885 -2.0472  0.6320  0.1997
 8462TIP3   OH225349   3.980   0.349   3.730 -0.7121  0.0766  0.4641
 8462TIP3    H125350   3.919   0.383   3.796  0.1907  0.1700  1.2623
 8462TIP3    H225351   4.053   0.314   3.780  0.1168  0.3959 -0.4931
 8463TIP3   OH225352   4.247   3.754   5.155  0.6773 -0.2561  0.4974
 8463TIP3    H125353   4.320   3.809   5.128  0.0859  0.2001 -0.2064
 8463TIP3    H225354   4.253   3.677   5.098  0.4675 -0.1030  0.2657
 8464TIP3   OH225355   5.524   5.394   2.056 -0.1651  0.4780 -0.1123
 8464TIP3    H125356   5.587   5.448   2.009 -1.7470  1.2192 -1.5092
 8464TIP3    H225357   5.490   5.334   1.989 -1.3844  0.5318  0.4309
 8465TIP3   OH225358   6.228   1.613   5.900  0.3621  0.0271  0.1649
 8465TIP3    H125359   6.243   1.582   5.811 -0.3791 -1.6671  0.5858
 8465TIP3    H225360   6.166   1.686   5.890 -0.3841 -0.6983 -0.6600
 8466TIP3   OH225361   5.762   5.739   1.553  0.4873  0.0001 -0.3467
 8466TIP3    H125362   5.738   5.736   1.461  3.9382 -1.4951 -1.3541
 8466TIP3    H225363   5.856   5.723   1.554  0.7517  0.8061  3.4149
 8467TIP3   OH225364   6.320   2.988   3.594 -0.0682  0.1046  0.0608
 8467TIP3    H125365   6.278   3.055   3.648 -0.2174 -0.3555  0.5313
 8467TIP3    H225366   6.275   2.993   3.510 -0.7669 -0.0798  0.4172
 8468TIP3   OH225367   3.403   6.299   1.510  0.2434 -0.2047 -0.4250
 8468TIP3    H125368   3.435   6.210   1.493 -0.8834 -0.5213 -0.9267
 8468TIP3    H225369   3.381   6.334   1.424 -2.7633 -0.7767  0.0029
 8469TIP3   OH225370   6.954   5.769   1.840 -0.0319 -0.4647  0.8238
 8469TIP3    H125371   7.025   5.775   1.776  0.4264 -1.7679  1.1813
 8469TIP3    H225372   6.911   5.686   1.820 -1.4701  0.2907  0.6188
 8470TIP3   OH225373   1.810   2.887   2.291  0.1937 -0.1786 -0.0364
 8470TIP3    H125374   1.732   2.832   2.278  0.0025  0.1232 -0.1735
 8470TIP3    H225375   1.882   2.833   2.259  0.2488 -1.0558  1.4514
 8471TIP3   OH225376   0.228   0.214   3.960  0.5937 -0.0358  0.3764
 8471TIP3    H125377   0.317   0.221   3.995  0.0439  0.6846  1.7405
 8471TIP3    H225378   0.236   0.236   3.868  1.6483  1.3267  0.7597
 8472TIP3   OH225379   2.653   3.960   1.015 -0.4812  0.2797  0.2014
 8472TIP3    H125380   2.598   4.032   1.045 -0.7126 -0.5658  1.8686
 8472TIP3    H225381   2.720   4.003   0.960 -1.9262  1.4695 -0.7160
 8473TIP3   OH225382   4.661   4.144   1.461 -0.2968 -0.2816 -0.0441
 8473TIP3    H125383   4.574   4.120   1.493 -0.6440  0.1834 -0.6111
 8473TIP3    H225384   4.722   4.105   1.524 -0.9585  1.0254  1.4710
 8474TIP3   OH225385   0.624   0.733   4.452  0.2482  0.5817 -0.6033
 8474TIP3    H125386   0.704   0.777   4.480  0.0015  0.2236  0.7367
 8474TIP3    H225387   0.589   0.693   4.532 -0.1601 -1.0547 -1.5421
 8475TIP3   OH225388   2.995   6.404   1.053 -0.2334  0.3999 -0.1144
 8475TIP3    H125389   2.927   6.408   1.120 -1.3529 -2.2255 -0.9710
 8475TIP3    H225390   3.060   6.343   1.088  1.0157  1.7915  0.0775
 8476TIP3   OH225391   3.812   0.408   4.349  0.0849  0.2144 -0.1148
 8476TIP3    H125392   3.748   0.376   4.412 -0.0925  1.4985  0.4047
 8476TIP3    H225393   3.819   0.339   4.284 -2.8639  0.5364 -0.9409
 8477TIP3   OH225394   6.006   4.964   3.855 -0.2654 -0.3228 -0.1002
 8477TIP3    H125395   5.998   5.002   3.768  1.6166 -1.5199 -0.8376
 8477TIP3    H225396   6.040   5.036   3.909  0.3063 -0.0804 -0.7708
 8478TIP3   OH225397   0.181   5.120   3.219 -0.0064  0.6445 -0.2341
 8478TIP3    H125398   0.273   5.112   3.193  0.0262  0.9124 -0.2017
 8478TIP3    H225399   0.173   5.064   3.296  0.0033  0.2009 -0.5471
 8479TIP3   OH225400   6.733   4.974   4.395  0.0034  0.1830 -0.1705
 8479TIP3    H125401   6.642   4.942   4.395  0.9383 -2.9342  1.3297
 8479TIP3    H225402   6.739   5.030   4.318 -2.6827 -1.1347 -1.4751
 8480TIP3   OH225403   0.831   4.056   4.668 -0.3843 -0.5484 -0.4574
 8480TIP3    H125404   0.854   4.112   4.742 -2.0775  0.5806 -0.7267
 8480TIP3    H225405   0.818   3.969   4.707 -1.6440  0.1126  0.6862
 8481TIP3   OH225406   0.977   2.346   0.326  0.2446  0.4638  0.1534
 8481TIP3    H125407   0.987   2.441   0.337  0.6097  0.4834 -0.3342
 8481TIP3    H225408   0.893   2.326   0.367 -1.0557  1.3721 -1.8947
 8482TIP3   OH225409   6.277   3.707   0.674 -0.3584 -0.0931  0.0396
 8482TIP3    H125410   6.299   3.646   0.603  0.3718  0.0509  0.1358
 8482TIP3    H225411   6.253   3.788   0.630 -2.1829 -0.6751 -0.1320
 8483TIP3   OH225412   1.906   0.266   5.143  0.1980  0.2421  0.4218
 8483TIP3    H125413   1.871   0.332   5.083  2.2816  0.1992 -0.9700
 8483TIP3    H225414   1.846   0.192   5.136 -0.1513  0.6243 -0.8940
 8484TIP3   OH225415   5.664   3.917   2.586 -0.4251  0.7407 -0.1969
 8484TIP3    H125416   5.628   3.862   2.517 -0.1888  0.2609  0.0604
 8484TIP3    H225417   5.670   4.004   2.546  0.6892  0.2618 -1.1457
 8485TIP3   OH225418   2.365   6.652   1.882 -0.0673 -0.3374 -0.2906
 8485TIP3    H125419   2.304   6.717   1.915 -0.7303 -1.2365  0.2782
 8485TIP3    H225420   2.393   6.687   1.797  2.0247  2.2337  1.3216
 8486TIP3   OH225421   4.637   2.296   4.681  0.3157 -0.0216  0.1464
 8486TIP3    H125422   4.575   2.226   4.702  0.7829 -0.2186  0.9242
 8486TIP3    H225423   4.700   2.294   4.753  2.4129 -1.1512 -1.6086
 8487TIP3   OH225424   3.407   6.484   0.147  0.2858  0.0666 -0.1817
 8487TIP3    H125425   3.475   6.545   0.177 -1.8809  1.5676  2.0779
 8487TIP3    H225426   3.397   6.422   0.220  0.0881 -0.9145 -1.0268
 8488TIP3   OH225427   1.447   6.389   0.161 -0.1747 -0.0949 -0.1953
 8488TIP3    H125428   1.540   6.411   0.165 -0.0320 -0.7616  0.2845
 8488TIP3    H225429   1.407   6.464   0.117  0.5883  0.1911 -0.4253
 8489TIP3   OH225430   5.721   4.855   2.338 -0.3033  0.0387 -0.4422
 8489TIP3    H125431   5.769   4.930   2.372  0.0129 -0.4791  0.2872
 8489TIP3    H225432   5.740   4.784   2.400 -0.5191 -0.6672 -1.1587
 8490TIP3   OH225433   6.946   0.416   3.722 -0.0043 -0.0659 -0.4305
 8490TIP3    H125434   6.960   0.504   3.757 -0.2919 -0.0311 -0.4016
 8490TIP3    H225435   6.965   0.357   3.794  0.4329 -0.0382 -0.5215
 8491TIP3   OH225436   4.285   4.015   0.869 -0.2129 -0.3815 -0.2299
 8491TIP3    H125437   4.271   3.923   0.890 -0.4809 -0.3487 -0.2581
 8491TIP3    H225438   4.299   4.017   0.774 -1.3793 -0.2669 -0.4152
 8492TIP3   OH225439   2.064   2.549   1.728  0.4585 -0.3273  0.0688
 8492TIP3    H125440   2.109   2.510   1.653 -1.4646 -0.0328 -1.3029
 8492TIP3    H225441   2.082   2.643   1.719 -1.2544 -0.0737 -1.1335
 8493TIP3   OH225442   5.701   6.536   5.830  0.2498  0.2904  0.9473
 8493TIP3    H125443   5.787   6.494   5.833  0.3327  0.1996 -1.1705
 8493TIP3    H225444   5.645   6.481   5.885  0.6531 -1.9980 -0.7584
 8494TIP3   OH225445   7.215   4.203   2.323  0.2117 -0.7617 -0.0829
 8494TIP3    H125446   7.165   4.150   2.261  0.1528 -1.9140  0.9138
 8494TIP3    H225447   7.209   4.155   2.405 -2.1957  2.1480  1.6554
 8495TIP3   OH225448   5.380   0.172   1.449  0.0510  0.8371 -0.0989
 8495TIP3    H125449   5.419   0.088   1.473  1.4943  0.5216 -3.0701
 8495TIP3    H225450   5.441   0.238   1.484 -0.8784  0.7123  1.8920
 8496TIP3   OH225451   6.220   5.146   0.488 -0.5409 -0.0292 -0.0792
 8496TIP3    H125452   6.212   5.208   0.561 -0.5651 -1.3389  1.0679
 8496TIP3    H225453   6.311   5.118   0.491 -0.2881  0.6405 -1.1879
 8497TIP3   OH225454   5.133   4.256   2.934 -0.1850 -0.2271  0.3664
 8497TIP3    H125455   5.128   4.345   2.968  3.2299 -0.8885  3.1967
 8497TIP3    H225456   5.072   4.206   2.988 -1.5957  0.2134 -0.7712
 8498TIP3   OH225457   2.401   0.228   0.398  0.4540  0.4425 -0.2339
 8498TIP3    H125458   2.353   0.162   0.448 -0.2470  0.4603 -0.8722
 8498TIP3    H225459   2.487   0.232   0.440  0.7435 -1.3431 -0.5893
 8499TIP3   OH225460   3.542   3.036   2.914 -0.5506  0.0958  0.0668
 8499TIP3    H125461   3.483   3.088   2.969 -0.5092  0.1068  0.1002
 8499TIP3    H225462   3.620   3.022   2.968  0.6641  2.4561 -0.9509
 8500TIP3   OH225463   2.340   1.909   5.127 -0.2729  0.0610  0.0632
 8500TIP3    H125464   2.339   1.991   5.079  1.0183 -0.2818 -0.5895
 8500TIP3    H225465   2.378   1.931   5.212  1.5855 -0.1116 -0.6729
 8501TIP3   OH225466   1.550   5.019   5.321 -0.2924 -0.5350 -0.3615
 8501TIP3    H125467   1.537   5.003   5.228  2.0884  0.5111 -0.9677
 8501TIP3    H225468   1.644   5.039   5.329 -0.7670  1.2917  1.9514
 8502TIP3   OH225469   2.461   4.924   0.466 -0.1372  0.4775 -0.1000
 8502TIP3    H125470   2.544   4.952   0.430  0.0553  0.6454  0.4618
 8502TIP3    H225471   2.413   4.888   0.391  0.1583  1.0231 -0.5574
 8503TIP3   OH225472   6.219   5.518   0.878  0.5231 -0.7174  0.0200
 8503TIP3    H125473   6.135   5.564   0.874  1.4189  1.0344  0.7316
 8503TIP3    H225474   6.254   5.538   0.964  1.9985 -0.8709 -0.5107
 8504TIP3   OH225475   6.384   4.952   5.495  0.3232  0.1114  0.1313
 8504TIP3    H125476   6.446   5.011   5.537 -1.5618  2.6970 -0.4239
 8504TIP3    H225477   6.405   4.957   5.402 -0.4827  0.8362 -0.0369
 8505TIP3   OH225478   2.205   5.464   0.447 -0.0489  1.2357  0.6491
 8505TIP3    H125479   2.129   5.416   0.415 -0.5539  0.4370  2.8553
 8505TIP3    H225480   2.198   5.550   0.406 -0.6396  0.3222 -1.2647
 8506TIP3   OH225481   0.635   1.069   5.545  0.1111  0.8411 -0.1534
 8506TIP3    H125482   0.634   1.151   5.495 -1.6705  2.2662  2.0159
 8506TIP3    H225483   0.556   1.023   5.517 -0.7504  1.5236  1.0252
 8507TIP3   OH225484   1.152   5.095   1.324 -0.3711 -0.2714  0.7923
 8507TIP3    H125485   1.228   5.066   1.374  0.0528 -1.7226 -0.5934
 8507TIP3    H225486   1.189   5.139   1.247 -0.9377 -0.2886  0.5016
 8508TIP3   OH225487   2.560   5.496   5.564  0.5660  0.2609  0.1524
 8508TIP3    H125488   2.646   5.531   5.541  0.2097  1.9731  1.2503
 8508TIP3    H225489   2.510   5.500   5.483  0.8736  1.3267 -0.0011
 8509TIP3   OH225490   2.793   0.267   4.056  0.0790  0.0029  0.4236
 8509TIP3    H125491   2.845   0.345   4.072 -0.7757  1.0651 -1.6332
 8509TIP3    H225492   2.772   0.234   4.143  1.9859  0.9895  1.3186
 8510TIP3   OH225493   3.509   0.742   3.326 -0.0174 -0.4918 -0.0507
 8510TIP3    H125494   3.457   0.692   3.389  1.3713 -0.3460  1.2788
 8510TIP3    H225495   3.571   0.678   3.290 -1.4173 -0.7988 -2.0473
 8511TIP3   OH225496   4.972   1.939   3.757 -0.1626  0.1219 -0.1784
 8511TIP3    H125497   5.058   1.979   3.775 -1.1709  2.1428  0.4723
 8511TIP3    H225498   4.909   2.009   3.776 -2.0174 -1.5437  0.0621
 8512TIP3   OH225499   3.416   1.603   5.041  0.5682 -0.3139 -0.1213
 8512TIP3    H125500   3.388   1.691   5.013  0.4860 -0.7752 -1.5538
 8512TIP3    H225501   3.366   1.587   5.121  0.0111  0.6394 -0.2584
 8513TIP3   OH225502   4.818   1.570   4.945  0.0706  0.6980  0.0582
 8513TIP3    H125503   4.912   1.587   4.955 -0.4396  3.2885  1.1959
 8513TIP3    H225504   4.782   1.585   5.032 -1.2236 -2.1181  0.1142
 8514TIP3   OH225505   6.868   6.568   4.435 -0.2850 -0.8595 -0.2151
 8514TIP3    H125506   6.930   6.579   4.506  2.4125  1.6547 -2.6964
 8514TIP3    H225507   6.788   6.611   4.466  0.7665  0.0469  1.3483
 8515TIP3   OH225508   0.952   3.306   0.755 -0.0821  0.6823  0.3056
 8515TIP3    H125509   1.006   3.316   0.677 -0.2806  2.1430  0.3188
 8515TIP3    H225510   0.984   3.373   0.816  0.3408 -0.6878  1.6580
 8516TIP3   OH225511   5.157   4.137   3.891 -0.3648  0.0328 -0.0855
 8516TIP3    H125512   5.150   4.156   3.797  1.9755  3.0708  0.2079
 8516TIP3    H225513   5.066   4.135   3.921 -1.1074  0.9243 -2.0845
 8517TIP3   OH225514   4.552   5.709   4.333 -0.1465 -0.2545  0.5620
 8517TIP3    H125515   4.623   5.718   4.396 -0.4320  0.8685  0.7397
 8517TIP3    H225516   4.543   5.615   4.321  1.7667 -0.4153  0.0765
 8518TIP3   OH225517   1.507   0.035   3.486 -0.2482 -0.8282 -0.5117
 8518TIP3    H125518   1.412   0.024   3.487 -0.0567 -2.7682 -0.3255
 8518TIP3    H225519   1.529   0.056   3.395 -1.0277  2.1828 -0.1346
 8519TIP3   OH225520   2.430   2.420   3.076  0.8643 -0.0858  0.2921
 8519TIP3    H125521   2.413   2.381   2.990  0.5504  2.7318 -1.0474
 8519TIP3    H225522   2.346   2.419   3.121  0.0762  1.8024 -1.0093
 8520TIP3   OH225523   6.198   5.884   2.009  0.4745  0.1228 -0.2383
 8520TIP3    H125524   6.243   5.968   2.003 -0.1749  0.4298 -1.1087
 8520TIP3    H225525   6.205   5.846   1.921  2.3880 -1.6233  0.5911
 8521TIP3   OH225526   2.384   2.699   5.348  0.2764 -0.4827  0.4511
 8521TIP3    H125527   2.407   2.783   5.386 -1.2967  0.6684 -0.9843
 8521TIP3    H225528   2.309   2.718   5.291  0.9384 -2.5323 -1.2365
 8522TIP3   OH225529   6.489   0.813   5.150 -0.1014 -0.5190  0.4345
 8522TIP3    H125530   6.399   0.820   5.121 -0.3696 -1.6594  0.9361
 8522TIP3    H225531   6.540   0.855   5.081 -0.8619 -1.4632 -0.7456
 8523TIP3   OH225532   7.004   5.302   2.144 -0.2998  0.1838  0.1470
 8523TIP3    H125533   7.039   5.248   2.073 -0.9587  0.4807 -0.4108
 8523TIP3    H225534   6.911   5.278   2.149 -0.7733  1.7664 -0.5898
 8524TIP3   OH225535   2.623   2.600   4.797  0.0412 -0.4828  0.5000
 8524TIP3    H125536   2.672   2.663   4.743 -0.2797 -0.4257  0.2754
 8524TIP3    H225537   2.607   2.647   4.879 -2.1749  0.5921 -0.4753
 8525TIP3   OH225538   2.103   5.138   1.744  0.6084 -0.4348  0.5376
 8525TIP3    H125539   2.116   5.056   1.790 -1.3066  0.1163  2.1774
 8525TIP3    H225540   2.113   5.206   1.811  0.1124  0.5423 -0.3387
 8526TIP3   OH225541   1.799   4.834   4.819  0.0478 -0.6553  0.7443
 8526TIP3    H125542   1.814   4.775   4.893 -0.7969 -0.4250  1.1181
 8526TIP3    H225543   1.850   4.797   4.748 -1.6211 -2.7315  0.5247
 8527TIP3   OH225544   3.977   6.707   3.066  0.1558 -0.0898 -0.1315
 8527TIP3    H125545   4.061   6.753   3.058  1.5994 -2.2343  1.3125
 8527TIP3    H225546   4.002   6.620   3.097 -2.6031 -1.0204 -0.3210
 8528TIP3   OH225547   5.609   0.052   0.258 -0.3300 -0.2122  0.3422
 8528TIP3    H125548   5.575  -0.024   0.210  0.8143 -0.6021  0.1286
 8528TIP3    H225549   5.687   0.079   0.210 -0.8732  1.2993  0.2537
 8529TIP3   OH225550   2.632   0.767   0.100 -0.3583 -0.1822 -0.2432
 8529TIP3    H125551   2.659   0.709   0.172 -0.3986 -0.3674 -0.3756
 8529TIP3    H225552   2.538   0.776   0.112 -0.0099  1.9742  1.3313
 8530TIP3   OH225553   6.277   6.432   3.861 -0.4919 -0.3836  0.0960
 8530TIP3    H125554   6.258   6.523   3.839  1.5117  0.1649  0.3971
 8530TIP3    H225555   6.334   6.402   3.790  0.8596 -0.5819  1.2026
 8531TIP3   OH225556   5.485   0.115   5.622  0.2481 -0.0046 -0.1814
 8531TIP3    H125557   5.395   0.103   5.652 -0.2858 -1.3725 -2.1235
 8531TIP3    H225558   5.529   0.034   5.645  0.7819  0.3536  0.0792
 8532TIP3   OH225559   3.755   6.641   0.943  0.0712  0.1266 -0.4793
 8532TIP3    H125560   3.813   6.584   0.993 -1.0073 -0.7765 -0.2497
 8532TIP3    H225561   3.746   6.719   0.998  0.6228  0.0523 -0.2703
 8533TIP3   OH225562   6.840   0.999   4.073  0.0463 -0.5908  0.2501
 8533TIP3    H125563   6.851   1.094   4.085 -1.2331 -0.5308  1.1761
 8533TIP3    H225564   6.778   0.991   4.001  0.2607 -0.7266  0.0817
 8534TIP3   OH225565   6.746   2.617   1.092  0.3609 -0.1240 -0.0316
 8534TIP3    H125566   6.684   2.689   1.092  1.2023  0.6152 -0.3488
 8534TIP3    H225567   6.734   2.575   1.006  0.2193 -0.0594 -0.0436
 8535TIP3   OH225568   3.758   3.242   1.258  0.1755  0.3647 -0.3209
 8535TIP3    H125569   3.824   3.180   1.287 -0.3898  0.1947  0.6332
 8535TIP3    H225570   3.750   3.227   1.164 -0.0015 -1.0626 -0.0934
 8536TIP3   OH225571   4.464   2.355   3.532  0.4027 -0.0006 -0.4538
 8536TIP3    H125572   4.386   2.375   3.480  0.0971 -0.6694 -0.2581
 8536TIP3    H225573   4.472   2.428   3.593 -0.0971  0.0409 -0.4413
 8537TIP3   OH225574   4.606   3.977   5.531  0.0693  0.4331 -0.2043
 8537TIP3    H125575   4.693   4.017   5.524  0.3939 -0.4598 -2.0870
 8537TIP3    H225576   4.608   3.906   5.466 -0.8426 -1.9204  2.1507
 8538TIP3   OH225577   3.846   4.876   4.549  0.0069 -0.5735  0.4896
 8538TIP3    H125578   3.806   4.949   4.502  2.1463 -0.4537 -1.3033
 8538TIP3    H225579   3.775   4.840   4.602 -1.2810  2.3657  0.9544
 8539TIP3   OH225580   4.388   4.366   4.007 -0.2773 -0.1080 -0.4227
 8539TIP3    H125581   4.390   4.369   3.912 -0.8462 -0.2947 -0.4441
 8539TIP3    H225582   4.442   4.441   4.034  0.1315 -0.2322 -0.8839
 8540TIP3   OH225583   4.991   0.690   0.063 -0.0503  0.1540  0.5015
 8540TIP3    H125584   4.990   0.752  -0.010  1.1261  0.0240  0.3585
 8540TIP3    H225585   5.035   0.612   0.027 -1.6481 -0.8445  0.6222
 8541TIP3   OH225586   6.242   2.393   4.383 -0.1644  0.4615 -0.1690
 8541TIP3    H125587   6.167   2.338   4.405  0.6760 -0.7833 -0.2911
 8541TIP3    H225588   6.204   2.475   4.353 -1.4543  0.0776  0.3700
 8542TIP3   OH225589   3.792   4.533   4.817 -0.1908  0.2859 -0.0393
 8542TIP3    H125590   3.722   4.597   4.809 -0.9852 -0.5560 -0.0213
 8542TIP3    H225591   3.755   4.463   4.870  0.5660 -0.3059 -0.2687
 8543TIP3   OH225592   2.893   3.814   4.111  0.4976  0.1766  0.3238
 8543TIP3    H125593   2.829   3.780   4.173 -0.3081 -3.4106 -2.1399
 8543TIP3    H225594   2.977   3.781   4.143  0.1906 -0.9546  0.0114
 8544TIP3   OH225595   7.116   1.802   2.096 -0.8305  0.3431  0.0519
 8544TIP3    H125596   7.046   1.861   2.122 -0.3472  1.8849 -1.9230
 8544TIP3    H225597   7.194   1.857   2.093  0.0542 -0.8729  0.1565
 8545TIP3   OH225598   3.827   5.050   3.731 -0.1260  0.2720 -0.3200
 8545TIP3    H125599   3.832   4.975   3.791 -1.0463 -2.0579 -2.9412
 8545TIP3    H225600   3.874   5.120   3.777  2.6923 -2.4773  1.4562
 8546TIP3   OH225601  -0.026   5.970   4.307  0.1783  0.6237  0.1954
 8546TIP3    H125602  -0.006   5.883   4.273 -2.7134 -0.1692  0.2095
 8546TIP3    H225603   0.033   6.029   4.259  0.8254 -1.1334 -1.2881
 8547TIP3   OH225604   1.830   3.237   5.064  0.5918  0.0617 -0.4063
 8547TIP3    H125605   1.766   3.303   5.091  0.0272  0.0282 -1.5654
 8547TIP3    H225606   1.899   3.287   5.021  0.7414 -0.0042 -0.2419
 8548TIP3   OH225607   3.450   3.342   0.764  0.3906 -0.5200  0.0764
 8548TIP3    H125608   3.519   3.408   0.773  0.1347  0.2249 -2.6470
 8548TIP3    H225609   3.384   3.368   0.829  1.3072  0.5422  0.6169
 8549TIP3   OH225610   0.217   3.445   5.537 -0.2814 -0.5404 -0.0518
 8549TIP3    H125611   0.276   3.378   5.503  0.7476 -0.3436  1.2817
 8549TIP3    H225612   0.150   3.397   5.585 -0.0111 -0.6679  0.2025
 8550TIP3   OH225613   6.803   6.107   2.909 -0.5682  0.3537  0.1011
 8550TIP3    H125614   6.710   6.096   2.929 -0.3467  0.4613  1.2924
 8550TIP3    H225615   6.808   6.191   2.864 -0.9469  0.7825  0.8382
 8551TIP3   OH225616   2.558   4.970   3.982  0.2630 -0.0043 -0.5353
 8551TIP3    H125617   2.466   4.952   3.964  0.0147 -0.7621  1.3027
 8551TIP3    H225618   2.571   5.059   3.949 -1.1006  0.0840 -0.9053
 8552TIP3   OH225619   0.529   0.921   1.403 -0.1218  0.0811 -0.0544
 8552TIP3    H125620   0.465   0.923   1.332 -0.4124 -0.4520  0.1860
 8552TIP3    H225621   0.499   0.851   1.461  0.6252 -0.1080  0.1191
 8553TIP3   OH225622   6.199   0.585   2.876  0.1021  0.2148  0.2815
 8553TIP3    H125623   6.126   0.523   2.872 -0.1268  0.5388 -1.7254
 8553TIP3    H225624   6.220   0.592   2.969 -0.8797 -1.6734  0.6931
 8554TIP3   OH225625   6.476   4.839   4.750 -0.2273 -0.1291  0.5029
 8554TIP3    H125626   6.405   4.835   4.685 -0.3448  0.0017  0.6212
 8554TIP3    H225627   6.544   4.783   4.715  0.0219  0.5353 -0.1094
 8555TIP3   OH225628   5.095   0.153   4.948  0.5440  0.1574  0.3846
 8555TIP3    H125629   5.155   0.218   4.912  2.1537 -0.0345  2.5203
 8555TIP3    H225630   5.149   0.100   5.007 -1.7352  0.1077  2.5915
 8556TIP3   OH225631   3.250   0.379   5.468  0.1311  0.1096  0.0782
 8556TIP3    H125632   3.297   0.295   5.466 -1.8633 -1.1944  2.3545
 8556TIP3    H225633   3.305   0.438   5.416  3.3779 -1.6891  1.1425
 8557TIP3   OH225634   3.402   2.407   3.610  0.4123 -0.2169  0.3823
 8557TIP3    H125635   3.386   2.459   3.689  2.4026  0.4755  0.4010
 8557TIP3    H225636   3.335   2.339   3.612 -1.4740  1.5384  1.0589
 8558TIP3   OH225637   6.325   4.246   0.615 -0.5254  0.0688 -0.2939
 8558TIP3    H125638   6.323   4.333   0.654 -0.4418 -0.4611  0.9729
 8558TIP3    H225639   6.402   4.204   0.654 -0.7344 -0.6684 -0.6475
 8559TIP3   OH225640   5.093   3.457   1.839 -0.1043 -0.3554  0.5195
 8559TIP3    H125641   5.174   3.458   1.787 -0.0427  0.5932  0.6253
 8559TIP3    H225642   5.096   3.373   1.886 -0.6036 -1.6899 -1.6824
 8560TIP3   OH225643   0.052   3.370   3.699 -0.0357 -0.1307  0.2193
 8560TIP3    H125644  -0.020   3.354   3.638  2.2952 -1.4325 -2.3734
 8560TIP3    H225645   0.101   3.442   3.660 -0.8301  2.0758  2.9415
 8561TIP3   OH225646   4.537   0.391   0.371 -0.1547  0.2941 -0.9578
 8561TIP3    H125647   4.565   0.388   0.280 -0.4002  0.7779 -1.0539
 8561TIP3    H225648   4.574   0.312   0.411  0.4938  0.4151 -1.3177
 8562TIP3   OH225649   3.169   4.038   0.716  0.6811 -0.1577 -0.1121
 8562TIP3    H125650   3.243   4.044   0.777  1.2683  1.7006 -0.9374
 8562TIP3    H225651   3.161   4.125   0.679 -3.8290  0.6657  2.0757
 8563TIP3   OH225652   3.118   4.145   5.348  0.3240 -0.2533  0.0357
 8563TIP3    H125653   3.194   4.107   5.304  0.1144 -0.8736  0.2010
 8563TIP3    H225654   3.144   4.151   5.440 -0.1486 -1.3463  0.2612
 8564TIP3   OH225655   7.137   6.198   0.723 -0.5935 -0.3462  0.4817
 8564TIP3    H125656   7.064   6.137   0.717 -1.8252  1.0935 -0.0539
 8564TIP3    H225657   7.155   6.223   0.632 -0.5516  0.5549  0.7256
 8565TIP3   OH225658   5.835   6.683   0.539 -0.4202 -0.6575  0.7135
 8565TIP3    H125659   5.894   6.715   0.606  2.7175 -1.0471 -1.6062
 8565TIP3    H225660   5.880   6.606   0.502 -0.6398  0.8747 -3.3258
 8566TIP3   OH225661   7.063   5.152   0.219 -0.0941 -0.2617 -0.2054
 8566TIP3    H125662   7.112   5.073   0.240 -0.9309 -0.3400  1.6615
 8566TIP3    H225663   7.080   5.211   0.292  1.0307  1.5865 -1.8593
 8567TIP3   OH225664   3.337   0.913   3.675  0.4206 -0.0123 -0.1502
 8567TIP3    H125665   3.244   0.937   3.672  0.8453  1.8038  0.2126
 8567TIP3    H225666   3.347   0.871   3.761  0.1373  0.7223  0.2499
 8568TIP3   OH225667   1.572   3.023   4.422 -0.0978  0.2789 -0.6014
 8568TIP3    H125668   1.575   3.059   4.333 -1.7172  0.8929 -0.4551
 8568TIP3    H225669   1.483   3.043   4.452  0.0631 -0.8976  0.7560
 8569TIP3   OH225670   6.226   1.423   3.985 -0.4194  0.0017 -0.0191
 8569TIP3    H125671   6.153   1.471   3.944  0.4015 -1.2151 -3.2426
 8569TIP3    H225672   6.183   1.354   4.036 -1.7698 -1.6923 -3.0942
 8570TIP3   OH225673   0.745   5.097   1.885  0.4372 -0.1800  0.6162
 8570TIP3    H125674   0.733   5.131   1.796 -0.1130 -0.3571  0.6205
 8570TIP3    H225675   0.836   5.118   1.907  0.2464  0.8564  0.4369
 8571TIP3   OH225676   3.887   1.015   0.730 -0.0013 -0.0017  0.2555
 8571TIP3    H125677   3.951   0.945   0.743  0.9497  0.8802  0.4599
 8571TIP3    H225678   3.895   1.037   0.637 -0.6164 -0.4540  0.0909
 8572TIP3   OH225679   3.045   4.046   2.170 -0.3623  0.4298  0.2845
 8572TIP3    H125680   3.033   4.128   2.217 -0.0895  0.9479 -0.5283
 8572TIP3    H225681   3.025   4.067   2.079 -0.7953 -0.5289  0.1434
 8573TIP3   OH225682   2.045   4.321   4.957 -0.5807 -0.5313  0.2710
 8573TIP3    H125683   2.139   4.335   4.970 -0.5004 -0.2876 -0.5303
 8573TIP3    H225684   2.033   4.227   4.963 -0.4318 -0.4956  1.2906
 8574TIP3   OH225685   3.507   6.335   0.386 -0.4283 -0.1435 -0.2678
 8574TIP3    H125686   3.590   6.287   0.386 -0.4401 -0.1978 -1.4232
 8574TIP3    H225687   3.521   6.408   0.445  0.6068  0.0986 -0.7950
 8575TIP3   OH225688   3.621   6.668   0.211 -0.1549  0.1426 -0.2734
 8575TIP3    H125689   3.631   6.719   0.131  0.5305 -0.3792 -0.5270
 8575TIP3    H225690   3.707   6.630   0.227  0.1509  1.4685  1.5542
 8576TIP3   OH225691   1.620   3.298   0.364 -0.5410  0.0733  0.0454
 8576TIP3    H125692   1.595   3.244   0.440  0.0169 -0.9172 -0.4544
 8576TIP3    H225693   1.652   3.380   0.402 -0.9533 -0.1267  0.8466
 8577TIP3   OH225694   1.385   1.520   2.271 -0.2625 -0.8435 -0.5838
 8577TIP3    H125695   1.449   1.579   2.229  0.1551 -1.8474 -1.4113
 8577TIP3    H225696   1.408   1.522   2.364 -2.8889  3.5685  0.2531
 8578TIP3   OH225697   1.809   5.050   0.199  0.5316 -0.5104  0.1935
 8578TIP3    H125698   1.779   5.140   0.185  0.3955 -0.6753 -0.6070
 8578TIP3    H225699   1.880   5.039   0.135  1.6480 -0.4545  1.3640
 8579TIP3   OH225700   2.301   2.981   4.753  0.5523  1.2156  0.0234
 8579TIP3    H125701   2.259   2.971   4.667  1.9664  0.0941 -0.5827
 8579TIP3    H225702   2.388   3.016   4.733  1.7305 -1.0761  0.7401
 8580TIP3   OH225703   0.608   2.511   1.539  0.0969 -0.4532 -0.0465
 8580TIP3    H125704   0.591   2.434   1.484  1.9685 -0.8846 -0.0731
 8580TIP3    H225705   0.523   2.529   1.581 -0.5582 -2.0895 -0.5826
 8581TIP3   OH225706   3.806   2.000   2.242 -0.5985  0.2308  0.1424
 8581TIP3    H125707   3.866   1.957   2.182  1.5346  2.0324  0.8892
 8581TIP3    H225708   3.773   2.076   2.194 -1.1480  0.0635  0.2478
 8582TIP3   OH225709   2.967   6.469   5.270 -0.0536  0.2075  0.1732
 8582TIP3    H125710   2.999   6.477   5.180 -0.6827  0.3026 -0.0428
 8582TIP3    H225711   3.022   6.529   5.321  1.6377 -1.2752  0.2096
 8583TIP3   OH225712   6.566   0.864   4.498  0.1270 -1.4616 -0.1079
 8583TIP3    H125713   6.583   0.897   4.410  0.5873 -1.0861  0.1112
 8583TIP3    H225714   6.513   0.786   4.486 -1.3410 -0.4171 -0.6330
 8584TIP3   OH225715   5.094   1.216   1.587  0.1731 -0.3581 -0.2282
 8584TIP3    H125716   5.134   1.136   1.620  1.1224  0.1563 -0.1112
 8584TIP3    H225717   5.056   1.258   1.664 -1.6185 -1.3871 -0.4944
 8585TIP3   OH225718   1.461   2.331   1.769 -0.6717 -0.6643 -0.4148
 8585TIP3    H125719   1.543   2.313   1.815 -1.2010  0.3943  1.0181
 8585TIP3    H225720   1.393   2.321   1.836 -1.3816  1.8554 -0.6524
 8586TIP3   OH225721   2.811   5.568   5.428  0.5266  0.1405 -0.0324
 8586TIP3    H125722   2.858   5.568   5.345 -0.0892 -0.9762 -0.4041
 8586TIP3    H225723   2.877   5.544   5.493  0.8436  0.2837 -0.3013
 8587TIP3   OH225724   6.583   1.804   1.311 -0.2737  0.0166  0.3264
 8587TIP3    H125725   6.671   1.771   1.331 -0.3252 -0.3139  0.0154
 8587TIP3    H225726   6.553   1.842   1.393 -0.3054 -0.9240  0.7676
 8588TIP3   OH225727   3.853   4.207   3.544  0.1712 -0.2461  0.1187
 8588TIP3    H125728   3.916   4.277   3.557  0.0261  0.1282 -1.1468
 8588TIP3    H225729   3.906   4.129   3.527  0.3186  0.1303 -1.2586
 8589TIP3   OH225730   3.189   5.410   2.970 -0.4179  0.2523 -0.3653
 8589TIP3    H125731   3.129   5.482   2.989 -0.8970 -0.1598 -0.3158
 8589TIP3    H225732   3.239   5.399   3.051  0.2367  1.0645 -0.6335
 8590TIP3   OH225733   1.973   2.093   3.228  0.5581 -0.0919 -0.0700
 8590TIP3    H125734   1.900   2.033   3.245  1.2330 -1.0405 -0.4173
 8590TIP3    H225735   1.957   2.126   3.139 -0.4274  1.1790  0.5335
 8591TIP3   OH225736   4.320   2.936   3.055 -0.1490  0.4549  0.0685
 8591TIP3    H125737   4.402   2.903   3.018 -0.3707  0.4322 -0.4193
 8591TIP3    H225738   4.340   3.023   3.087 -0.3249  1.1598 -1.6116
 8592TIP3   OH225739   6.212   1.355   5.369  0.2628  0.1097  0.9583
 8592TIP3    H125740   6.246   1.277   5.326  1.0612  1.2047 -0.4569
 8592TIP3    H225741   6.121   1.334   5.388 -0.2101 -0.3342 -1.5329
 8593TIP3   OH225742   5.403   4.489   5.002 -0.0490 -0.3533 -0.0444
 8593TIP3    H125743   5.343   4.423   4.968  1.2442 -1.5041 -0.2143
 8593TIP3    H225744   5.387   4.490   5.096 -0.1372 -0.8629 -0.0502
 8594TIP3   OH225745   3.862   2.296   2.989 -0.1032 -0.0882  0.1642
 8594TIP3    H125746   3.798   2.359   3.021 -0.6447  0.1471 -1.3333
 8594TIP3    H225747   3.873   2.317   2.897  1.8357 -0.3971  0.2852
 8595TIP3   OH225748   2.383   3.516   3.317 -0.1123  0.0084 -0.0565
 8595TIP3    H125749   2.447   3.577   3.352  1.3870 -1.1699 -0.6414
 8595TIP3    H225750   2.419   3.488   3.233 -0.6855 -1.7198  0.2204
 8596TIP3   OH225751   3.050   0.460   3.798 -0.0327  0.4754 -0.3723
 8596TIP3    H125752   2.980   0.413   3.842 -0.1194  1.6709  0.8400
 8596TIP3    H225753   3.104   0.495   3.869  0.8787  0.9252 -1.2517
 8597TIP3   OH225754   7.072   1.268   1.352 -0.2126 -0.2888 -0.2611
 8597TIP3    H125755   7.040   1.220   1.276  0.1078 -0.5771 -0.2135
 8597TIP3    H225756   7.004   1.254   1.419 -1.5413  1.6438 -1.0914
 8598TIP3   OH225757   1.202   2.194   2.178  0.2488 -0.5140  0.5660
 8598TIP3    H125758   1.255   2.192   2.258 -0.5589 -0.2302  1.1118
 8598TIP3    H225759   1.205   2.104   2.146  1.7822 -0.3250  0.0981
 8599TIP3   OH225760   6.948   5.685   1.493 -0.6327 -0.5973  0.0441
 8599TIP3    H125761   7.036   5.711   1.521 -1.0724  0.9049  0.0855
 8599TIP3    H225762   6.955   5.590   1.479  0.7526 -0.6543  0.9058
 8600TIP3   OH225763   5.221   5.705   3.863  0.7600  0.0364  0.3426
 8600TIP3    H125764   5.236   5.794   3.897  0.8018 -0.4562  1.6964
 8600TIP3    H225765   5.266   5.704   3.779 -0.3166  1.6811 -0.2922
 8601TIP3   OH225766   3.517   4.049   0.280 -0.5293  0.1305 -0.0301
 8601TIP3    H125767   3.554   4.124   0.327 -0.5487 -0.2105  0.5367
 8601TIP3    H225768   3.568   3.974   0.310 -1.6354 -0.3401  0.7155
 8602TIP3   OH225769   6.386   2.209   0.126 -0.1099 -0.1147 -0.2975
 8602TIP3    H125770   6.328   2.133   0.131  0.1717 -0.2917  0.3532
 8602TIP3    H225771   6.459   2.180   0.071  0.2557 -0.4987  0.3710
 8603TIP3   OH225772   6.809   5.710   0.057  0.1997  0.4010  0.0445
 8603TIP3    H125773   6.903   5.695   0.065  0.1538 -0.1388 -0.3469
 8603TIP3    H225774   6.783   5.655  -0.017 -0.4168  0.5818  0.1249
 8604TIP3   OH225775   2.636   3.646   2.460  0.0865 -0.5774  0.4828
 8604TIP3    H125776   2.675   3.559   2.452  0.4318 -0.3334 -0.7948
 8604TIP3    H225777   2.703   3.698   2.504  1.4271 -0.0967 -1.9319
 8605TIP3   OH225778   0.158   5.943   5.448 -0.2625  0.4353 -0.2053
 8605TIP3    H125779   0.220   5.871   5.463 -1.8630 -0.7269  1.2535
 8605TIP3    H225780   0.117   5.957   5.533  0.3290  3.4919 -0.2999
 8606TIP3   OH225781   2.230   5.028   4.165  0.0039 -0.2588  0.5663
 8606TIP3    H125782   2.143   4.989   4.175  0.4112 -1.5527 -0.5711
 8606TIP3    H225783   2.280   4.963   4.116  1.1650  1.1052 -0.1609
 8607TIP3   OH225784   4.772   4.570   4.822 -0.4367 -0.2473  0.2267
 8607TIP3    H125785   4.851   4.615   4.794 -0.9149 -0.5474 -1.6945
 8607TIP3    H225786   4.801   4.481   4.842 -0.1472 -0.1087  0.4411
 8608TIP3   OH225787   0.220   1.846   2.627 -0.0157  0.4039 -0.1610
 8608TIP3    H125788   0.161   1.914   2.595 -1.2531 -1.0752 -1.1874
 8608TIP3    H225789   0.308   1.876   2.604 -0.1899  2.9945  1.9927
 8609TIP3   OH225790   6.197   4.246   2.568 -0.1796 -0.0170  0.0375
 8609TIP3    H125791   6.161   4.270   2.653  0.2700  1.2497 -0.1087
 8609TIP3    H225792   6.140   4.290   2.505  0.4641  0.4323 -0.2486
 8610TIP3   OH225793   6.638   3.074   4.216  0.0410 -0.3000  0.7589
 8610TIP3    H125794   6.588   3.155   4.221  1.2400  0.4268  1.3155
 8610TIP3    H225795   6.711   3.094   4.158 -0.7683 -1.6279 -0.8219
 8611TIP3   OH225796   0.212   2.232   4.152 -0.2523  0.5569  0.6126
 8611TIP3    H125797   0.266   2.155   4.172 -1.1200 -0.6124 -1.1717
 8611TIP3    H225798   0.122   2.198   4.153 -0.6274  1.4432 -0.5137
 8612TIP3   OH225799   2.597   4.287   0.616  0.0263 -0.7528 -0.1263
 8612TIP3    H125800   2.689   4.309   0.631  0.2089 -1.7010  0.1804
 8612TIP3    H225801   2.558   4.368   0.581  0.6203  0.1259  1.1955
 8613TIP3   OH225802   0.836   4.429   4.266 -0.1723  0.3704 -0.3287
 8613TIP3    H125803   0.747   4.438   4.299 -0.6737 -2.9461 -0.4564
 8613TIP3    H225804   0.874   4.359   4.318  1.7256  0.4456 -1.5301
 8614TIP3   OH225805   7.023   1.591   5.558 -0.0601  0.2917  0.1669
 8614TIP3    H125806   6.947   1.560   5.509  0.8088 -0.0203 -1.0159
 8614TIP3    H225807   7.015   1.547   5.643 -0.9301 -0.1296 -0.1140
 8615TIP3   OH225808   1.788   0.962   3.138 -0.4059 -0.2081  0.2142
 8615TIP3    H125809   1.695   0.961   3.116 -0.2423 -2.8132 -0.6966
 8615TIP3    H225810   1.830   0.913   3.067  1.7680  1.3137  0.3475
 8616TIP3   OH225811   5.491   3.229   3.879 -0.1914  0.2186  0.0517
 8616TIP3    H125812   5.526   3.142   3.901  2.2235  1.1523  0.1785
 8616TIP3    H225813   5.559   3.290   3.905 -0.7588  2.0147 -2.2755
 8617TIP3   OH225814   5.781   3.528   5.138  0.4747  0.3232 -0.7943
 8617TIP3    H125815   5.848   3.591   5.110  0.3087 -0.5866 -3.6443
 8617TIP3    H225816   5.831   3.453   5.169  0.9792 -0.7316 -3.7909
 8618TIP3   OH225817   4.698   3.923   5.814  0.6826 -0.2790 -0.2853
 8618TIP3    H125818   4.696   3.905   5.720  0.1747 -0.0105 -0.3335
 8618TIP3    H225819   4.659   3.846   5.854 -0.4777  0.2206 -0.4114
 8619TIP3   OH225820   5.231   4.518   5.223  0.4185  0.6729  0.2185
 8619TIP3    H125821   5.189   4.458   5.284  0.7908 -1.2378 -1.3029
 8619TIP3    H225822   5.297   4.563   5.275  0.9367 -1.1117  1.1927
 8620TIP3   OH225823   7.100   3.925   4.422  0.1790  0.3772 -0.2495
 8620TIP3    H125824   7.183   3.889   4.391 -1.0295  0.1169 -3.5964
 8620TIP3    H225825   7.115   4.020   4.423 -0.1181  0.5740 -3.4804
 8621TIP3   OH225826   4.902   2.602   1.143  0.0379 -0.1381  0.2266
 8621TIP3    H125827   4.937   2.574   1.058 -0.1856 -0.3386  0.2002
 8621TIP3    H225828   4.812   2.629   1.125 -0.2404 -0.8344  0.5142
 8622TIP3   OH225829   0.968   3.180   1.314 -0.6881 -0.1047 -0.0333
 8622TIP3    H125830   1.052   3.226   1.318 -0.4832 -0.3852 -0.9092
 8622TIP3    H225831   0.934   3.200   1.227 -1.5532  0.0371  0.3267
 8623TIP3   OH225832   0.292   1.585   2.665 -0.3264  0.1722  0.0274
 8623TIP3    H125833   0.375   1.601   2.710 -0.4389  0.6131  0.0816
 8623TIP3    H225834   0.256   1.672   2.650  0.3859  0.1266 -2.2038
 8624TIP3   OH225835   5.925   5.597   5.013  0.9243  0.1982  0.1463
 8624TIP3    H125836   5.899   5.689   5.017  1.7530  0.4483 -0.0668
 8624TIP3    H225837   5.874   5.555   5.083 -0.9407  0.4272 -1.0144
 8625TIP3   OH225838   0.663   5.547   3.760 -0.4180  0.1506 -0.2265
 8625TIP3    H125839   0.667   5.578   3.670  0.8619  0.4255 -0.0926
 8625TIP3    H225840   0.697   5.619   3.812  1.7017 -1.0506  0.1794
 8626TIP3   OH225841   0.991   2.584   2.738 -0.1715  0.1338  0.0560
 8626TIP3    H125842   0.904   2.603   2.703 -1.3686 -2.9446  1.0217
 8626TIP3    H225843   0.977   2.511   2.798  2.9854  0.1078  0.9231
 8627TIP3   OH225844   6.735   2.414   3.884  0.5455 -0.7215  0.5979
 8627TIP3    H125845   6.741   2.343   3.820 -0.3542 -1.1757  1.0028
 8627TIP3    H225846   6.819   2.412   3.929  0.4319 -1.7179  0.7889
 8628TIP3   OH225847   2.418   1.404   3.797 -0.6652  0.2324 -0.3113
 8628TIP3    H125848   2.422   1.427   3.890 -1.9736 -0.3488 -0.0776
 8628TIP3    H225849   2.503   1.366   3.778  0.4268  2.3611  0.0765
 8629TIP3   OH225850   2.610   1.858   0.759  0.3513  0.1450  0.1224
 8629TIP3    H125851   2.648   1.805   0.830 -1.2773 -0.2060  0.7865
 8629TIP3    H225852   2.548   1.916   0.804 -0.1449  0.4466 -0.9299
 8630TIP3   OH225853   0.530   3.595   4.380  0.1726  0.0408 -0.1501
 8630TIP3    H125854   0.496   3.640   4.303 -1.5409 -0.3886  0.3194
 8630TIP3    H225855   0.460   3.601   4.445  1.2781 -0.2625  1.1354
 8631TIP3   OH225856   6.507   5.526   2.524 -0.2855 -0.1888 -0.0253
 8631TIP3    H125857   6.572   5.462   2.552 -0.5227  0.1908  1.4910
 8631TIP3    H225858   6.519   5.600   2.584 -1.5434  0.2353 -0.2543
 8632TIP3   OH225859   1.475   2.834   1.827  0.6210 -0.0876  0.0842
 8632TIP3    H125860   1.509   2.773   1.762 -1.3432  0.1945 -1.3050
 8632TIP3    H225861   1.380   2.832   1.814  0.1293 -0.0068  2.9741
 8633TIP3   OH225862   3.670   3.627   2.125 -0.3698  0.2826  0.0263
 8633TIP3    H125863   3.666   3.602   2.217 -1.7141  1.0487  0.2016
 8633TIP3    H225864   3.610   3.567   2.081 -0.6153  0.6665 -0.1626
 8634TIP3   OH225865   2.502   3.803   2.781 -0.1280 -0.7484 -0.5516
 8634TIP3    H125866   2.481   3.712   2.800 -0.1773 -1.3333 -3.0596
 8634TIP3    H225867   2.423   3.837   2.738  0.0178  0.4003  0.0405
 8635TIP3   OH225868   0.885   5.798   4.501  0.0638  0.2736 -0.4663
 8635TIP3    H125869   0.929   5.820   4.583 -3.0341  0.8134  1.1702
 8635TIP3    H225870   0.827   5.871   4.484 -1.1041 -0.9151 -1.8585
 8636TIP3   OH225871   0.500   5.653   0.798  0.6136 -0.2579  0.5130
 8636TIP3    H125872   0.529   5.575   0.845  0.8157 -0.1878  0.5072
 8636TIP3    H225873   0.573   5.676   0.742  1.2796  0.9578  1.8036
 8637TIP3   OH225874   3.798   0.159   3.202 -0.1544  0.1871 -0.4815
 8637TIP3    H125875   3.874   0.167   3.145  0.3541  0.4423  0.2193
 8637TIP3    H225876   3.765   0.248   3.211 -1.1827 -0.0659 -1.6393
 8638TIP3   OH225877   5.988   6.043   4.498 -0.4361 -0.2167  0.1579
 8638TIP3    H125878   6.031   5.976   4.550 -1.5887 -1.3586 -0.2943
 8638TIP3    H225879   5.945   6.100   4.563  0.4316  0.0130  0.5398
 8639TIP3   OH225880   2.795   2.037   0.305  0.4690  0.3313 -0.0995
 8639TIP3    H125881   2.853   2.084   0.366  1.1701 -1.2019  0.4740
 8639TIP3    H225882   2.730   1.995   0.362 -0.4456  0.9996 -0.6420
 8640TIP3   OH225883   2.968   5.826   4.909  0.3796  0.1997  0.2726
 8640TIP3    H125884   3.024   5.797   4.837  0.7806  1.5117  0.0285
 8640TIP3    H225885   2.910   5.891   4.869  0.2840  0.5875  1.0325
 8641TIP3   OH225886   5.322   6.017   2.846  0.3173 -0.8834 -0.1431
 8641TIP3    H125887   5.406   6.028   2.802  0.7286 -2.4864  0.1564
 8641TIP3    H225888   5.320   5.924   2.869 -1.2691 -0.7351  0.4116
 8642TIP3   OH225889   4.552   1.083   1.103 -0.4884  0.3483 -0.1677
 8642TIP3    H125890   4.505   1.035   1.036 -1.7032  1.3538 -0.0747
 8642TIP3    H225891   4.489   1.095   1.174 -1.0837  3.9830 -1.0813
 8643TIP3   OH225892   1.170   1.762   1.638  0.2387  0.0315 -0.5149
 8643TIP3    H125893   1.195   1.806   1.719  1.6183  1.1172 -1.4752
 8643TIP3    H225894   1.182   1.669   1.656 -0.4432  0.1825  0.8253
 8644TIP3   OH225895   5.430   2.344   1.423 -0.1743 -0.5463  0.7886
 8644TIP3    H125896   5.465   2.427   1.453  1.1012 -0.6688 -0.2601
 8644TIP3    H225897   5.335   2.354   1.430 -0.0034 -0.1957  3.7034
 8645TIP3   OH225898   1.114   3.502   3.194 -0.1110 -0.1170 -0.0202
 8645TIP3    H125899   1.152   3.422   3.230 -0.9250 -0.4136  0.1855
 8645TIP3    H225900   1.110   3.562   3.269 -1.7885 -0.7282  0.4081
 8646TIP3   OH225901   4.288   2.324   3.790 -0.0034  0.0000  0.3786
 8646TIP3    H125902   4.243   2.247   3.825  0.2188  0.2159  1.1580
 8646TIP3    H225903   4.381   2.303   3.796  0.0196 -0.2973 -0.8877
 8647TIP3   OH225904   4.427   0.993   5.072  0.1481 -0.1417 -0.0811
 8647TIP3    H125905   4.401   0.960   5.159  0.1203 -1.0977 -0.4415
 8647TIP3    H225906   4.521   0.977   5.068 -0.0177 -1.0933 -0.6253
 8648TIP3   OH225907   0.155   3.528   2.483  0.0088  0.3675  0.2697
 8648TIP3    H125908   0.214   3.572   2.545 -1.2446  1.2465  0.8712
 8648TIP3    H225909   0.174   3.435   2.493  2.8512  0.6903 -1.1332
 8649TIP3   OH225910   6.406   1.448   0.682 -0.0135  0.2816  0.3012
 8649TIP3    H125911   6.477   1.500   0.645 -1.9019  2.2783 -0.6721
 8649TIP3    H225912   6.409   1.467   0.776 -0.0475  1.3470  0.0920
 8650TIP3   OH225913   6.957   2.490   4.780 -0.0675 -0.1850  0.5368
 8650TIP3    H125914   6.947   2.578   4.744  1.1006  0.0347  0.7068
 8650TIP3    H225915   7.052   2.475   4.781  0.0391  0.0640  4.0998
 8651TIP3   OH225916   0.214   0.952   2.972  0.4053  0.1147  0.3514
 8651TIP3    H125917   0.194   1.020   3.037 -1.5888 -1.3259  1.3684
 8651TIP3    H225918   0.297   0.915   3.001  0.4255  0.6793  1.0523
 8652TIP3   OH225919   4.800   6.786   4.907  0.3351  0.4321  0.2095
 8652TIP3    H125920   4.871   6.795   4.970 -1.2844  1.8091  1.9384
 8652TIP3    H225921   4.752   6.709   4.935  1.1196 -0.5469 -1.0078
 8653TIP3   OH225922   0.018   4.723   4.855  0.3057  0.3842 -0.1491
 8653TIP3    H125923   0.061   4.657   4.801 -0.1445  0.1422 -0.2136
 8653TIP3    H225924  -0.014   4.676   4.931 -0.2237  0.4747 -0.3063
 8654TIP3   OH225925   1.050   0.589   4.399 -0.8064  0.2301 -0.4744
 8654TIP3    H125926   1.138   0.603   4.435 -0.6491  1.8953 -1.4025
 8654TIP3    H225927   0.995   0.653   4.442 -1.3859 -0.2085 -0.5506
 8655TIP3   OH225928   5.158   3.959   4.939 -0.5398 -0.1154  0.3655
 8655TIP3    H125929   5.241   4.003   4.961  0.1000  0.9028 -3.2954
 8655TIP3    H225930   5.167   3.871   4.976  1.5640  0.4112  1.2902
 8656TIP3   OH225931   3.386   0.515   2.709 -0.1364  0.4470 -0.0925
 8656TIP3    H125932   3.345   0.434   2.737  1.1220 -0.2459 -0.1924
 8656TIP3    H225933   3.323   0.583   2.731 -0.0278 -0.2342  2.6413
 8657TIP3   OH225934   3.421   0.463   3.802  0.0326  0.0767 -0.4276
 8657TIP3    H125935   3.428   0.368   3.805  0.8853  0.1114  2.5507
 8657TIP3    H225936   3.334   0.482   3.839  0.3243  0.4443  0.0898
 8658TIP3   OH225937   4.733   4.601   0.481 -0.1572  0.5217  0.7315
 8658TIP3    H125938   4.778   4.568   0.558 -1.4383 -0.8798  0.9437
 8658TIP3    H225939   4.757   4.539   0.411 -0.0177  1.0373  0.3180
 8659TIP3   OH225940   1.940   6.331   0.228 -0.0837 -0.2678  0.2754
 8659TIP3    H125941   1.965   6.368   0.143  0.9241  0.3007  0.7886
 8659TIP3    H225942   1.845   6.334   0.229 -0.0750  0.7449 -0.4067
 8660TIP3   OH225943   2.294   1.511   4.299 -0.2370  0.0588  0.0391
 8660TIP3    H125944   2.349   1.482   4.372  0.7874 -1.4201 -1.2618
 8660TIP3    H225945   2.301   1.606   4.300  1.6145 -0.0478  0.4807
 8661TIP3   OH225946   2.614   4.585   2.384 -0.7032  0.8902 -0.0095
 8661TIP3    H125947   2.552   4.518   2.355 -0.2712  1.0240 -1.2976
 8661TIP3    H225948   2.686   4.580   2.321  1.0131  0.2175  1.8733
 8662TIP3   OH225949   4.476   0.333   1.369 -0.7607  0.1823  0.3570
 8662TIP3    H125950   4.402   0.393   1.379  0.6131  2.0067  0.0611
 8662TIP3    H225951   4.535   0.377   1.308  1.1981 -0.5809  1.6034
 8663TIP3   OH225952   1.406   0.245   0.424 -0.1184  0.1142 -0.2065
 8663TIP3    H125953   1.394   0.173   0.485 -0.8143 -1.4473 -2.0831
 8663TIP3    H225954   1.326   0.298   0.434 -1.2029 -1.2788 -1.1857
 8664TIP3   OH225955   1.561   4.254   0.678  0.2302 -0.2241 -0.0034
 8664TIP3    H125956   1.623   4.188   0.709  1.6361  0.7171 -0.7001
 8664TIP3    H225957   1.480   4.234   0.724  1.5223 -0.4217  2.3371
 8665TIP3   OH225958   1.238   0.268   5.398 -0.1538  0.1176  0.2827
 8665TIP3    H125959   1.318   0.288   5.447 -0.5134 -2.2424  2.0442
 8665TIP3    H225960   1.182   0.224   5.462 -1.5192 -1.2546 -1.7424
 8666TIP3   OH225961   2.806   2.280   4.049  0.2178  0.4657  0.0741
 8666TIP3    H125962   2.712   2.266   4.061  0.3606 -0.2328  0.4525
 8666TIP3    H225963   2.818   2.374   4.063 -0.3955  0.5321  0.2144
 8667TIP3   OH225964   5.037   1.049   1.903  0.3082  0.1356  0.4460
 8667TIP3    H125965   4.992   1.119   1.857 -1.1961 -1.3029 -0.3841
 8667TIP3    H225966   5.129   1.075   1.904  0.3915  0.4363 -3.1153
 8668TIP3   OH225967   3.546   5.613   5.684 -0.1913 -0.0444  0.7215
 8668TIP3    H125968   3.460   5.618   5.726  0.0369  2.2216  1.0647
 8668TIP3    H225969   3.602   5.571   5.749 -0.4925  0.8258  1.5765
 8669TIP3   OH225970   3.840   6.085   0.941  0.5260 -0.1100  0.2899
 8669TIP3    H125971   3.855   6.002   0.897  0.6975  1.3187 -2.6071
 8669TIP3    H225972   3.746   6.101   0.932  0.4768 -0.0020  0.9106
 8670TIP3   OH225973   6.157   0.003   1.992 -0.4851 -0.0017  0.3063
 8670TIP3    H125974   6.246  -0.032   1.986 -0.7928 -0.6562 -0.6276
 8670TIP3    H225975   6.155   0.075   1.928 -0.9921 -0.8438 -0.6633
 8671TIP3   OH225976   1.501   4.989   3.762  0.0990  0.5951 -0.7902
 8671TIP3    H125977   1.474   5.006   3.672 -0.0095  1.7874 -0.5444
 8671TIP3    H225978   1.545   4.904   3.758  0.8020  0.9965 -2.1083
 8672TIP3   OH225979   5.579   1.103   4.337  0.2623 -0.1300  0.0765
 8672TIP3    H125980   5.582   1.189   4.379 -0.1226  0.1778 -0.5110
 8672TIP3    H225981   5.671   1.084   4.315  0.4301 -0.1719  0.7973
 8673TIP3   OH225982   0.539   1.501   3.135  0.2693 -0.5727  0.2530
 8673TIP3    H125983   0.623   1.546   3.125  0.7606 -1.2058  1.3519
 8673TIP3    H225984   0.562   1.409   3.145 -0.4859 -0.6563  1.4276
 8674TIP3   OH225985   3.880   5.853   2.506 -0.5183 -0.0475 -0.0132
 8674TIP3    H125986   3.852   5.852   2.414  2.6198 -1.1672 -1.0935
 8674TIP3    H225987   3.868   5.944   2.534 -1.7926  0.2566 -1.3970
 8675TIP3   OH225988   3.084   4.392   4.280  0.7470 -0.8240  0.2106
 8675TIP3    H125989   3.020   4.333   4.241  0.6130 -0.6127  0.1090
 8675TIP3    H225990   3.048   4.414   4.366 -0.2809  0.8149 -0.5913
 8676TIP3   OH225991   2.099   0.020   5.713  0.2937 -0.5974 -0.1911
 8676TIP3    H125992   2.067   0.109   5.702  0.8124 -0.5202 -1.2944
 8676TIP3    H225993   2.022  -0.032   5.734 -0.3854 -0.2329 -1.6755
 8677TIP3   OH225994   5.588   1.859   1.944 -0.0058  0.0762  0.0756
 8677TIP3    H125995   5.589   1.769   1.910 -0.0510  0.6431 -1.4966
 8677TIP3    H225996   5.616   1.913   1.870  0.4278  1.3278  1.1281
 8678TIP3   OH225997   5.884   3.812   3.035 -0.4007  0.0634  0.6653
 8678TIP3    H125998   5.882   3.794   2.941  2.0860  0.8663  0.3948
 8678TIP3    H225999   5.857   3.903   3.043  1.9786  0.8547  0.3810
 8679TIP3   OH226000   7.098   5.769   5.223 -0.2119  0.9704 -0.4258
 8679TIP3    H126001   7.132   5.850   5.186  0.0094  0.8014 -0.5933
 8679TIP3    H226002   7.169   5.736   5.278 -0.6658  1.4104  0.4575
 8680TIP3   OH226003   4.620   3.008   4.778  0.2685 -0.0209  0.2235
 8680TIP3    H126004   4.530   3.032   4.758  0.3352  0.9573  1.0507
 8680TIP3    H226005   4.622   2.913   4.765 -1.0037 -0.1265  0.6681
 8681TIP3   OH226006   3.348   5.576   0.450  0.3991 -0.5210  0.5905
 8681TIP3    H126007   3.406   5.527   0.393  0.6525  0.0242  0.3687
 8681TIP3    H226008   3.323   5.514   0.518  0.1398 -1.1567 -0.0758
 8682TIP3   OH226009   2.048   6.279   2.143  0.1450 -0.5421  0.4357
 8682TIP3    H126010   2.064   6.263   2.050 -0.4315 -0.4410  0.3142
 8682TIP3    H226011   1.966   6.233   2.162 -0.7171  0.9167  0.4472
 8683TIP3   OH226012   2.519   0.858   5.870  0.2343 -0.2716 -0.5465
 8683TIP3    H126013   2.544   0.787   5.810 -1.1276  0.9462 -2.6738
 8683TIP3    H226014   2.474   0.921   5.815 -0.0633  1.5012  1.5994
 8684TIP3   OH226015   7.085   0.933   5.624  0.6269  0.2529 -0.0454
 8684TIP3    H126016   7.034   0.881   5.687  0.4904 -0.9670 -1.1195
 8684TIP3    H226017   7.047   0.912   5.539  0.1108  2.6803 -0.4930
 8685TIP3   OH226018   1.631   6.107   1.954 -0.1602  0.5088  0.0762
 8685TIP3    H126019   1.723   6.083   1.957 -0.3028 -0.0989 -0.1091
 8685TIP3    H226020   1.616   6.134   1.864  0.2063  2.2001  0.5008
 8686TIP3   OH226021   5.021   1.680   0.210 -0.2311  0.0530  0.5542
 8686TIP3    H126022   5.014   1.759   0.262 -1.5984 -0.1503  0.7103
 8686TIP3    H226023   5.041   1.712   0.121 -1.3088  0.6140  0.5008
 8687TIP3   OH226024   3.776   5.013   4.974 -0.1823  0.7780 -0.2313
 8687TIP3    H126025   3.708   4.948   4.989 -1.9461  2.6499  0.3178
 8687TIP3    H226026   3.747   5.061   4.896  0.7644  1.3064 -0.2770
 8688TIP3   OH226027   2.450   6.527   0.344  0.0624  0.1885  0.3120
 8688TIP3    H126028   2.437   6.569   0.429  0.0747 -0.6493  0.7492
 8688TIP3    H226029   2.543   6.502   0.343 -0.2052 -0.9018  0.5989
 8689TIP3   OH226030   3.057   5.351   2.728  0.0612  0.0296 -0.5019
 8689TIP3    H126031   3.042   5.442   2.703 -0.1639  0.2574  0.4148
 8689TIP3    H226032   3.083   5.356   2.820 -2.3491 -0.9942  0.2959
 8690TIP3   OH226033   2.679   3.067  -0.001  0.5407  0.2348 -0.7428
 8690TIP3    H126034   2.743   3.096   0.064 -0.9534  1.3025  0.3337
 8690TIP3    H226035   2.654   2.979   0.028  0.4896  0.3773 -0.3444
 8691TIP3   OH226036   3.511   5.899   5.023  0.7118 -0.1205 -0.0246
 8691TIP3    H126037   3.432   5.938   4.986  0.3480 -1.2703 -0.5000
 8691TIP3    H226038   3.580   5.920   4.959  0.5810  0.0127 -0.1222
 8692TIP3   OH226039   6.482   4.558   3.644 -0.2347 -0.0978 -0.3321
 8692TIP3    H126040   6.465   4.582   3.735  0.3702 -0.9278  0.0087
 8692TIP3    H226041   6.407   4.593   3.596 -0.6994  0.1086  0.5260
 8693TIP3   OH226042   4.968   5.842   4.012 -0.0335  0.1744  0.0670
 8693TIP3    H126043   4.988   5.776   3.945  0.2338 -1.1696  1.4152
 8693TIP3    H226044   4.875   5.863   3.998 -0.4237 -1.3056  0.2637
 8694TIP3   OH226045   0.059   1.126   3.629  0.3376  0.0661 -0.1899
 8694TIP3    H126046   0.075   1.219   3.619  1.8845  0.1730  2.4107
 8694TIP3    H226047   0.063   1.111   3.724 -1.1615 -2.4338 -0.4331
 8695TIP3   OH226048   4.979   5.606   2.408 -0.4830  0.2064  0.7129
 8695TIP3    H126049   4.941   5.647   2.486 -1.7383  0.2016  0.1280
 8695TIP3    H226050   5.033   5.674   2.369 -0.3459  0.4089  1.2496
 8696TIP3   OH226051   0.819   4.473   1.141 -0.0766 -0.6461 -0.0897
 8696TIP3    H126052   0.844   4.538   1.075 -0.8566  0.3310  0.5455
 8696TIP3    H226053   0.885   4.404   1.133  2.4444  1.4523  1.0278
 8697TIP3   OH226054   5.045   1.320   2.806 -0.2390  0.2446  0.0495
 8697TIP3    H126055   5.052   1.318   2.710 -0.4259 -0.1085  0.0439
 8697TIP3    H226056   5.065   1.411   2.829  4.8418 -0.5387  0.0495
 8698TIP3   OH226057   2.663   0.205   0.034  0.3444  0.0276 -0.2330
 8698TIP3    H126058   2.674   0.267   0.106  0.4181 -0.1815 -0.0654
 8698TIP3    H226059   2.603   0.139   0.069 -0.1226  0.2633 -0.5738
 8699TIP3   OH226060   7.085   5.611   3.232  0.0954 -0.0741 -0.5696
 8699TIP3    H126061   7.143   5.540   3.257 -1.1371 -1.4937 -1.5892
 8699TIP3    H226062   6.997   5.581   3.256 -0.2985  2.0266  0.9536
 8700TIP3   OH226063   6.718   0.067   0.380  0.1977 -0.2708 -0.1632
 8700TIP3    H126064   6.724   0.156   0.414 -0.8945 -0.1256 -0.3218
 8700TIP3    H226065   6.627   0.059   0.350  0.9245 -0.5885 -2.4586
 8701TIP3   OH226066   1.739   0.314   0.977 -0.6494 -0.0530 -0.0700
 8701TIP3    H126067   1.803   0.343   1.042 -0.9529  2.1592 -0.6657
 8701TIP3    H226068   1.767   0.226   0.953  2.7936  1.1296 -0.9898
 8702TIP3   OH226069   4.826   0.444   3.257 -0.1541 -0.1868  0.2754
 8702TIP3    H126070   4.866   0.499   3.190 -1.4191  0.2562 -0.1514
 8702TIP3    H226071   4.891   0.376   3.275 -0.2514 -1.0569 -2.3057
 8703TIP3   OH226072   5.758   1.496   0.556 -0.9661 -0.0740 -0.1895
 8703TIP3    H126073   5.731   1.535   0.473 -1.1307  1.1516  0.4189
 8703TIP3    H226074   5.677   1.478   0.602 -0.8440  0.9866  0.4666
 8704TIP3   OH226075   0.356   6.489   4.950 -0.1675  0.0981  0.0102
 8704TIP3    H126076   0.295   6.563   4.946  0.3624  0.4985 -1.7527
 8704TIP3    H226077   0.397   6.496   5.036  0.4290  2.3653 -0.3888
 8705TIP3   OH226078   6.017   5.993   0.841  0.1324 -0.2334 -0.3071
 8705TIP3    H126079   5.963   6.067   0.813  0.0917 -1.0210 -2.5451
 8705TIP3    H226080   5.954   5.926   0.866  0.0769 -0.4493 -0.9840
 8706TIP3   OH226081   6.028   2.904   3.449  0.2626  0.0974  0.3522
 8706TIP3    H126082   6.086   2.862   3.386  0.4462  0.2191  0.4420
 8706TIP3    H226083   6.038   2.852   3.529 -1.3833 -1.2404 -0.2403
 8707TIP3   OH226084   1.519   5.068   0.501 -0.1353  0.7403  0.5165
 8707TIP3    H126085   1.447   5.010   0.475  1.1005 -0.1146 -1.2125
 8707TIP3    H226086   1.486   5.156   0.484 -1.1046  0.4037  0.6057
 8708TIP3   OH226087   2.990   2.600   2.146  0.1101 -0.1211 -0.3105
 8708TIP3    H126088   3.052   2.672   2.157 -0.5919  0.5395 -0.5418
 8708TIP3    H226089   2.917   2.639   2.098 -0.4587 -0.8917 -0.0894
 8709TIP3   OH226090   6.911   4.974   3.833  0.8953  0.3047  0.1165
 8709TIP3    H126091   6.979   5.036   3.807  1.8182  0.5915  2.8626
 8709TIP3    H226092   6.910   4.978   3.929 -3.2703  0.5853  0.2549
 8710TIP3   OH226093   5.823   5.945   0.461 -0.8283  0.0272  0.2058
 8710TIP3    H126094   5.896   5.982   0.510 -0.6281 -0.2694  0.1366
 8710TIP3    H226095   5.746   5.989   0.496 -0.7388 -0.5125  1.1332
 8711TIP3   OH226096   6.291   1.170   5.182 -0.2293 -0.2600  0.6130
 8711TIP3    H126097   6.380   1.189   5.213  0.1629  0.6194 -0.9688
 8711TIP3    H226098   6.296   1.080   5.150 -0.4314 -0.8884  2.2478
 8712TIP3   OH226099   2.462   3.209   0.304 -0.6499  1.0522 -0.6521
 8712TIP3    H126100   2.385   3.170   0.263  0.0305  1.1253 -2.0612
 8712TIP3    H226101   2.434   3.229   0.393 -1.3402 -1.7161 -0.1514
 8713TIP3   OH226102   0.998   3.249   5.135  0.1090  0.1178  0.4384
 8713TIP3    H126103   1.085   3.211   5.120 -0.5113 -0.4430 -2.0709
 8713TIP3    H226104   0.971   3.213   5.220  0.7296 -2.9331 -0.5407
 8714TIP3   OH226105   2.064   0.691   4.889  0.2474  0.2597  0.9924
 8714TIP3    H126106   1.972   0.684   4.863  1.2359 -0.4123 -2.9070
 8714TIP3    H226107   2.088   0.602   4.916  0.0205  0.2064  1.0207
 8715TIP3   OH226108   1.733   0.642   0.853  0.0184 -0.1998 -0.0512
 8715TIP3    H126109   1.656   0.585   0.849 -0.4707  0.4300  0.1515
 8715TIP3    H226110   1.807   0.585   0.833 -0.5695 -0.6818 -0.9060
 8716TIP3   OH226111   6.005   1.914   3.008  0.0778 -0.0461  0.0576
 8716TIP3    H126112   5.980   1.833   2.963  0.5600 -0.3780  0.3726
 8716TIP3    H226113   5.969   1.903   3.097  1.2848 -0.5186  0.5081
 8717TIP3   OH226114   0.397   0.428   1.449  1.0806 -0.2000  0.4846
 8717TIP3    H126115   0.331   0.431   1.380  1.3386 -0.8559  0.2011
 8717TIP3    H226116   0.346   0.429   1.530  0.7695  0.4103  0.2862
 8718TIP3   OH226117   2.751   4.710   0.392  0.4815 -0.3530 -0.0022
 8718TIP3    H126118   2.792   4.787   0.433 -0.2011 -0.3326  0.6687
 8718TIP3    H226119   2.824   4.650   0.377  1.0359  0.4391 -0.5984
 8719TIP3   OH226120   3.105   2.033   4.868  0.6704 -0.0556 -0.1160
 8719TIP3    H126121   3.022   2.026   4.821 -0.0942  2.3616  0.7401
 8719TIP3    H226122   3.084   2.006   4.958  1.0897 -0.4767 -0.1379
 8720TIP3   OH226123   6.140   4.299   4.427  0.0921 -0.2359 -0.3698
 8720TIP3    H126124   6.121   4.352   4.350 -1.2216  2.3083  1.5761
 8720TIP3    H226125   6.235   4.309   4.440  0.0488  0.7212 -0.6977
 8721TIP3   OH226126   2.262   4.853   1.432  0.2368 -0.5015  0.4958
 8721TIP3    H126127   2.256   4.925   1.370 -2.7630 -0.4316  0.7120
 8721TIP3    H226128   2.304   4.890   1.510 -1.7102  1.2383  0.8034
 8722TIP3   OH226129   4.936   5.619   3.343  1.0699 -0.6074 -0.1969
 8722TIP3    H126130   4.999   5.555   3.311 -0.1249 -1.3982 -1.0703
 8722TIP3    H226131   4.938   5.610   3.438  0.9200 -1.9517 -0.3079
 8723TIP3   OH226132   4.284   4.821   0.127  0.8468  0.1704 -0.3770
 8723TIP3    H126133   4.275   4.738   0.174  0.4930 -0.0749 -0.8698
 8723TIP3    H226134   4.369   4.855   0.153  1.0320 -0.3966 -0.2453
 8724TIP3   OH226135   4.783   4.188   0.588 -0.2636  0.3084 -0.3001
 8724TIP3    H126136   4.836   4.259   0.551 -0.5886  0.8073  0.1775
 8724TIP3    H226137   4.719   4.232   0.643  0.4278 -0.4137  1.1537
 8725TIP3   OH226138   4.753   3.102   5.129 -0.3365  0.2644 -0.4471
 8725TIP3    H126139   4.688   3.096   5.199 -2.3311  0.9566 -2.1210
 8725TIP3    H226140   4.777   3.195   5.126 -0.2670  0.2399 -0.6908
 8726TIP3   OH226141   0.807   4.715   0.993  0.1243  0.1463  0.0074
 8726TIP3    H126142   0.844   4.783   0.938 -1.3089  1.1647  0.2490
 8726TIP3    H226143   0.815   4.749   1.082 -2.3938  0.9839 -0.0045
 8727TIP3   OH226144   2.685   3.742   5.066  0.3192 -0.0579 -0.0738
 8727TIP3    H126145   2.748   3.696   5.121 -1.4715 -1.3055  1.0614
 8727TIP3    H226146   2.668   3.824   5.112  1.6471  0.6438 -0.7906
 8728TIP3   OH226147   6.968   3.326   0.416 -0.3924  0.2953  0.7987
 8728TIP3    H126148   6.928   3.239   0.418 -0.1781  0.0694 -1.7300
 8728TIP3    H226149   7.062   3.310   0.424 -0.3677  0.2997  0.5305
 8729TIP3   OH226150   6.787   3.064   0.142 -0.0007  0.0705 -0.1738
 8729TIP3    H126151   6.787   3.101   0.230  0.0152 -2.6997  1.1125
 8729TIP3    H226152   6.704   3.015   0.137  1.2325 -2.1078 -0.5615
 8730TIP3   OH226153   6.594   1.394   1.952 -0.7596 -0.3866 -0.2536
 8730TIP3    H126154   6.680   1.426   1.977 -1.2990  0.5990  0.4302
 8730TIP3    H226155   6.604   1.300   1.942  0.1860 -0.3951  0.7047
 8731TIP3   OH226156   1.919   4.782   2.217  0.5591  0.4450 -0.0350
 8731TIP3    H126157   1.927   4.830   2.134  1.0706 -1.3067 -1.0302
 8731TIP3    H226158   1.969   4.702   2.204 -0.0397 -0.2554  1.6876
 8732TIP3   OH226159   3.113   4.143   0.072  0.1557 -0.5810 -0.1533
 8732TIP3    H126160   3.058   4.191   0.010  2.1026 -0.1136 -1.6103
 8732TIP3    H226161   3.184   4.204   0.093 -0.7018 -0.4943  3.0655
 8733TIP3   OH226162  -0.014   2.998   0.556 -0.2061 -0.1171 -0.1858
 8733TIP3    H126163  -0.021   3.042   0.641 -2.3889  0.3954 -0.5748
 8733TIP3    H226164   0.054   2.932   0.569 -0.4258  0.0007  1.9314
 8734TIP3   OH226165   0.203   4.113   4.426  0.0241 -0.0228 -0.1277
 8734TIP3    H126166   0.230   4.201   4.399  0.4397  0.9645  3.0861
 8734TIP3    H226167   0.111   4.124   4.450 -0.6582 -1.1307 -2.0216
 8735TIP3   OH226168   3.704   5.912   0.487  0.4432 -0.1990 -0.2071
 8735TIP3    H126169   3.613   5.891   0.463  0.0171  0.3583  0.8468
 8735TIP3    H226170   3.728   5.845   0.551  0.4839  0.1408  0.1360
 8736TIP3   OH226171   1.086   6.609   5.091  0.0408 -0.0368 -0.8170
 8736TIP3    H126172   1.113   6.701   5.084 -1.0834  0.4358  0.5140
 8736TIP3    H226173   1.057   6.586   5.003  2.1355  0.2509 -1.6473
 8737TIP3   OH226174   5.920   5.416   2.341 -0.1427 -0.0862  0.0989
 8737TIP3    H126175   5.992   5.356   2.359  1.7293  1.8800 -0.4101
 8737TIP3    H226176   5.886   5.388   2.256  0.9976 -0.1861 -0.3439
 8738TIP3   OH226177   3.310   2.046   2.751 -0.2665 -0.0181 -0.3641
 8738TIP3    H126178   3.281   1.960   2.720 -1.2440 -0.1849  0.9238
 8738TIP3    H226179   3.248   2.068   2.821  0.7289  1.1649  0.1759
 8739TIP3   OH226180   4.130   6.130   2.303  0.0698 -0.4464  0.2753
 8739TIP3    H126181   4.112   6.224   2.299 -3.5685 -0.9459  0.8459
 8739TIP3    H226182   4.133   6.110   2.397  1.1110 -0.9016  0.1614
 8740TIP3   OH226183   6.831   1.958   5.444 -0.3823  0.1752 -0.4011
 8740TIP3    H126184   6.848   2.032   5.386 -0.6674  0.1939 -0.4671
 8740TIP3    H226185   6.823   1.883   5.385  1.6489 -0.2370 -0.1993
 8741TIP3   OH226186   5.112   6.713   1.642 -0.2100  0.5850  0.5274
 8741TIP3    H126187   5.113   6.686   1.734  0.2184 -0.4401  0.2306
 8741TIP3    H226188   5.170   6.789   1.638 -2.0866  2.1640  1.5344
 8742TIP3   OH226189   1.651   2.311   3.916  0.5460  0.0100 -0.3053
 8742TIP3    H126190   1.562   2.308   3.879  0.5565  0.7353 -0.4146
 8742TIP3    H226191   1.690   2.227   3.893 -0.2302 -0.4516  0.0418
 8743TIP3   OH226192   2.162   3.173   5.800  0.3747  0.1573  0.3514
 8743TIP3    H126193   2.209   3.139   5.724 -1.9246  0.8437 -1.4600
 8743TIP3    H226194   2.170   3.103   5.865  1.3718 -0.9779 -0.9107
 8744TIP3   OH226195   1.856   2.824   1.157  0.0648  0.3605 -0.3047
 8744TIP3    H126196   1.824   2.760   1.221  0.7565 -0.7613 -1.0546
 8744TIP3    H226197   1.853   2.908   1.204 -1.3022 -0.1304  0.5444
 8745TIP3   OH226198   2.607   6.133   4.564 -0.0482 -0.6458  0.1556
 8745TIP3    H126199   2.583   6.159   4.653 -0.6849  0.4841 -0.3204
 8745TIP3    H226200   2.700   6.155   4.558  0.1036 -1.1112  0.6622
 8746TIP3   OH226201   2.243   3.289   2.183  0.2150 -0.3987  0.5148
 8746TIP3    H126202   2.248   3.336   2.100  0.7577  0.5689  1.0663
 8746TIP3    H226203   2.271   3.200   2.163 -0.1840 -0.3180 -0.4348
 8747TIP3   OH226204   2.761   2.797   4.662 -0.1410  0.0561  0.4811
 8747TIP3    H126205   2.846   2.829   4.693 -0.5798  1.0070  0.7511
 8747TIP3    H226206   2.717   2.876   4.628  0.1211 -0.8241 -2.1376
 8748TIP3   OH226207   0.452   5.053   0.328 -0.4018  0.3884 -0.3958
 8748TIP3    H126208   0.521   4.992   0.355 -1.0115  0.3707  1.2430
 8748TIP3    H226209   0.406   5.008   0.258  1.8007  0.7941 -2.2294
 8749TIP3   OH226210   2.251   3.374   4.252 -0.2257 -0.1481 -0.3452
 8749TIP3    H126211   2.239   3.451   4.308 -1.9199 -0.1134 -0.6865
 8749TIP3    H226212   2.168   3.327   4.258  1.4027 -3.1194  1.5003
 8750TIP3   OH226213   4.460   0.728   4.180 -0.7949  0.1298  0.2411
 8750TIP3    H126214   4.461   0.740   4.275  0.7390 -1.3022  0.4562
 8750TIP3    H226215   4.474   0.634   4.168  1.8964  0.6315 -1.4079
 8751TIP3   OH226216   4.772   4.820   1.691 -0.0864 -0.1584  0.2952
 8751TIP3    H126217   4.812   4.831   1.604  0.1715 -0.1669  0.4123
 8751TIP3    H226218   4.812   4.740   1.725  0.2796  0.1814  0.6777
 8752TIP3   OH226219   4.785   1.964   0.289 -0.5897 -0.2537 -0.0079
 8752TIP3    H126220   4.858   1.930   0.341  0.2061  1.2310 -0.0918
 8752TIP3    H226221   4.723   1.997   0.354 -0.0472  0.7031  0.0401
 8753TIP3   OH226222   2.357   2.127   0.384 -0.1352 -0.1274 -0.1063
 8753TIP3    H126223   2.334   2.053   0.327  0.9626  0.4946 -1.4302
 8753TIP3    H226224   2.278   2.145   0.433 -1.6171  0.1661 -2.4419
 8754TIP3   OH226225   3.957   1.453   4.493  0.2243 -0.2551  0.0852
 8754TIP3    H126226   3.932   1.367   4.461 -1.2334  0.2271 -0.1253
 8754TIP3    H226227   3.919   1.458   4.581  0.9033 -0.0815  0.3789
 8755TIP3   OH226228   2.765   6.502   2.195 -0.5858  0.5739  0.3447
 8755TIP3    H126229   2.705   6.576   2.204  0.1808  1.3150 -0.4411
 8755TIP3    H226230   2.812   6.519   2.113  1.2349  0.4380  1.2887
 8756TIP3   OH226231   6.084   6.258   5.519  0.1034  0.5526  0.1727
 8756TIP3    H126232   6.177   6.269   5.542  0.0437  0.7288  0.3344
 8756TIP3    H226233   6.079   6.286   5.428 -0.0982  2.2292  0.6621
 8757TIP3   OH226234   3.864   4.279   1.954  0.1827  0.0722  0.0859
 8757TIP3    H126235   3.844   4.365   1.917  1.0249  0.6961  1.0020
 8757TIP3    H226236   3.788   4.225   1.933 -0.2655  0.9776 -0.6976
 8758TIP3   OH226237   0.232   4.784   3.244  0.4381  0.4238 -0.2024
 8758TIP3    H126238   0.153   4.813   3.199 -0.5565 -0.9917  0.5629
 8758TIP3    H226239   0.239   4.842   3.321 -0.5097 -0.1720  0.3436
 8759TIP3   OH226240   1.161   4.775   4.155  0.4026  0.1417  0.5685
 8759TIP3    H126241   1.253   4.788   4.131  0.2172  2.4172  0.9150
 8759TIP3    H226242   1.137   4.855   4.201 -1.3675 -1.0203  1.7709
 8760TIP3   OH226243   6.213   3.603   3.369 -0.0161  0.1572  0.0054
 8760TIP3    H126244   6.177   3.670   3.312  1.1028  1.5782  0.8818
 8760TIP3    H226245   6.230   3.649   3.452  0.2822 -1.3465  0.8135
 8761TIP3   OH226246   3.545   5.450   1.680  0.1220 -0.2048  0.6078
 8761TIP3    H126247   3.498   5.532   1.670  0.3953  0.1922  2.2765
 8761TIP3    H226248   3.522   5.419   1.768  1.9538 -0.6259  0.9809
 8762TIP3   OH226249   6.853   6.244   1.815  0.5839 -0.2849 -0.2451
 8762TIP3    H126250   6.812   6.257   1.900  2.2683 -0.2397  0.5960
 8762TIP3    H226251   6.941   6.281   1.825  0.4746  0.6759 -2.3316
 8763TIP3   OH226252   1.966   3.251   2.717 -0.1039 -0.0614 -0.7189
 8763TIP3    H126253   1.980   3.291   2.631 -1.4086  0.1051 -0.8736
 8763TIP3    H226254   2.040   3.191   2.728  0.5798  0.6090 -1.5383
 8764TIP3   OH226255   2.173   2.249   1.003 -0.3395  0.4171  0.2503
 8764TIP3    H126256   2.099   2.244   0.943 -1.2624 -0.3837  1.4251
 8764TIP3    H226257   2.164   2.173   1.060  0.7216  0.9500  1.1800
 8765TIP3   OH226258   2.476   4.477   1.854  0.0224  0.6713  0.3619
 8765TIP3    H126259   2.461   4.544   1.921 -0.1617  1.1014 -0.1044
 8765TIP3    H226260   2.443   4.396   1.894  1.4079  0.5962  1.4321
 8766TIP3   OH226261   5.014   4.812   5.365 -0.3048  0.8046  0.1929
 8766TIP3    H126262   4.979   4.752   5.431  0.1171 -1.0035 -1.1702
 8766TIP3    H226263   4.961   4.796   5.287 -0.0637  2.1007 -0.2672
 8767TIP3   OH226264   6.081   2.493   1.894  0.0643  0.1253  0.3479
 8767TIP3    H126265   6.130   2.567   1.930  0.9330  0.6319 -1.7586
 8767TIP3    H226266   5.994   2.530   1.875 -0.1991  0.0132  1.2597
 8768TIP3   OH226267   1.339   2.193   2.402 -0.4861 -0.0267 -0.3017
 8768TIP3    H126268   1.431   2.188   2.428 -0.7839  0.3628  0.8868
 8768TIP3    H226269   1.293   2.144   2.470 -1.0935 -0.9080 -1.3204
 8769TIP3   OH226270   4.299   3.219   2.635 -0.1013 -0.4517  0.5334
 8769TIP3    H126271   4.327   3.249   2.721  0.8073 -0.4544  0.2498
 8769TIP3    H226272   4.218   3.268   2.617 -0.2173 -0.3404  1.3108
 8770TIP3   OH226273   6.146   4.819   1.260 -0.1231  0.1190 -0.6484
 8770TIP3    H126274   6.090   4.745   1.238 -1.2621 -0.0097  2.1565
 8770TIP3    H226275   6.183   4.796   1.345  0.5023  2.2083 -0.2956
 8771TIP3   OH226276   6.073   3.952   1.029  0.6700 -0.2873 -0.1610
 8771TIP3    H126277   5.978   3.966   1.039  0.0517 -1.6174 -3.0344
 8771TIP3    H226278   6.109   3.972   1.115 -2.0791  1.3190  0.7637
 8772TIP3   OH226279   7.065   4.482   4.204 -0.5572 -0.4475 -0.1426
 8772TIP3    H126280   7.055   4.572   4.173  1.0955 -0.1632  0.0536
 8772TIP3    H226281   6.984   4.438   4.177 -0.9810  0.8495 -1.0842
 8773TIP3   OH226282   5.713   2.567   3.607  0.0980 -0.2805 -0.8209
 8773TIP3    H126283   5.733   2.473   3.615 -0.1586 -0.4869 -2.4072
 8773TIP3    H226284   5.709   2.583   3.513 -1.7078  0.9504 -0.5703
 8774TIP3   OH226285   1.767   3.289   4.391  0.2942 -0.0433  0.3507
 8774TIP3    H126286   1.754   3.368   4.444 -0.9555 -0.2914  0.4493
 8774TIP3    H226287   1.680   3.266   4.360  0.6952 -1.1450 -0.0304
 8775TIP3   OH226288   6.696   3.795   3.795 -0.2950  0.2671 -0.3443
 8775TIP3    H126289   6.635   3.739   3.843  0.7551 -0.0748  0.6441
 8775TIP3    H226290   6.765   3.735   3.766  0.8413  1.0092  0.7193
 8776TIP3   OH226291   0.895   3.281   3.523  0.0817  0.2400 -0.0027
 8776TIP3    H126292   0.968   3.343   3.525 -0.7305  1.2661 -0.6210
 8776TIP3    H226293   0.817   3.337   3.517 -0.6457 -0.8521 -1.3035
 8777TIP3   OH226294   2.037   3.373   3.073 -0.0814 -0.0065  0.8555
 8777TIP3    H126295   1.952   3.351   3.111  0.2697  0.6803  2.0663
 8777TIP3    H226296   2.017   3.442   3.009 -0.6657 -1.1400 -0.2317
 8778TIP3   OH226297   6.007   0.789   4.473 -0.4840  0.2216 -0.1424
 8778TIP3    H126298   6.009   0.822   4.563 -1.6928 -0.0029 -0.0177
 8778TIP3    H226299   5.914   0.771   4.457 -0.2886  0.3519 -1.4667
 8779TIP3   OH226300   4.557   2.880   5.036 -0.4008 -0.0741  0.8600
 8779TIP3    H126301   4.596   2.951   4.986  2.7521 -1.0854  1.6288
 8779TIP3    H226302   4.564   2.909   5.127  0.4077 -1.0662  1.1373
 8780TIP3   OH226303   0.390   6.123   2.682  0.1199  0.2095 -0.0075
 8780TIP3    H126304   0.439   6.042   2.666  2.4742  1.5928 -0.2182
 8780TIP3    H226305   0.457   6.191   2.689 -1.6633  1.9339  1.7165
 8781TIP3   OH226306   1.839   1.244   2.375 -0.3761  0.2081 -0.0239
 8781TIP3    H126307   1.846   1.318   2.314 -2.0918  1.9551  1.7508
 8781TIP3    H226308   1.888   1.272   2.452  0.4312 -1.2968  0.0410
 8782TIP3   OH226309   2.058   0.658   0.134 -0.3594 -0.2029  0.7743
 8782TIP3    H126310   2.100   0.666   0.220  0.9983 -1.5574  0.2744
 8782TIP3    H226311   2.061   0.564   0.115  1.9781  0.2908 -1.9728
 8783TIP3   OH226312   1.328   4.862   5.845  0.0139  0.2553  0.1515
 8783TIP3    H126313   1.419   4.845   5.870  0.0532 -0.9331 -0.7276
 8783TIP3    H226314   1.305   4.943   5.891  1.3541  0.3033  0.7718
 8784TIP3   OH226315   6.933   5.551   5.417 -0.7382 -0.4194 -0.2990
 8784TIP3    H126316   6.869   5.557   5.347 -1.8626  0.0609  0.7421
 8784TIP3    H226317   7.011   5.514   5.375 -1.0562  0.7270 -2.0082
 8785TIP3   OH226318   1.627   5.092   2.192  0.4606  0.1242  0.6498
 8785TIP3    H126319   1.596   5.150   2.261 -1.1103  0.6874 -0.4539
 8785TIP3    H226320   1.668   5.150   2.128 -0.8684  0.0528 -0.3254
 8786TIP3   OH226321   4.233   2.817   2.677 -0.3836  0.0304  0.4165
 8786TIP3    H126322   4.156   2.873   2.687  0.1705  0.5157  2.4279
 8786TIP3    H226323   4.202   2.729   2.697 -0.8989 -0.1878 -1.1702
 8787TIP3   OH226324   0.349   3.852   3.950  0.2158  0.0720 -0.3124
 8787TIP3    H126325   0.388   3.908   4.017  1.7317 -0.5431 -0.6493
 8787TIP3    H226326   0.269   3.898   3.925 -0.3688  0.3597  1.8380
 8788TIP3   OH226327   1.914   4.235   2.459 -0.4970 -0.1260 -0.0584
 8788TIP3    H126328   1.871   4.306   2.412  1.0806 -0.3207 -1.9260
 8788TIP3    H226329   1.998   4.272   2.485  0.3545 -1.2688 -1.0811
 8789TIP3   OH226330   0.599   4.422   0.141  0.1345 -0.7934  0.1870
 8789TIP3    H126331   0.553   4.489   0.192  1.5430  0.2191  0.2074
 8789TIP3    H226332   0.608   4.348   0.200 -0.3176 -0.5061  0.6191
 8790TIP3   OH226333   3.356   4.505   2.214  0.3964  0.3790  0.0045
 8790TIP3    H126334   3.350   4.562   2.291 -0.8506 -1.8772  1.6745
 8790TIP3    H226335   3.437   4.457   2.226  0.2177  0.0472 -0.1057
 8791TIP3   OH226336   0.431   4.138   2.741  0.5921 -0.1484 -0.9385
 8791TIP3    H126337   0.475   4.176   2.665  0.8557  0.2328 -0.6021
 8791TIP3    H226338   0.490   4.068   2.770  3.0655  2.6986  1.7990
 8792TIP3   OH226339   6.447   1.156   3.039  0.4186 -0.0846  0.2553
 8792TIP3    H126340   6.489   1.075   3.067  1.8428 -0.0785 -1.6010
 8792TIP3    H226341   6.509   1.225   3.063  0.2867  0.2094 -0.2314
 8793TIP3   OH226342   5.878   6.218   0.878  0.2367 -0.4975  0.0221
 8793TIP3    H126343   5.839   6.168   0.949  1.5950  0.1100  1.2643
 8793TIP3    H226344   5.889   6.306   0.914 -0.0892  0.1331 -1.3504
 8794TIP3   OH226345   5.949   4.729   5.676 -0.0481 -0.6196  0.0130
 8794TIP3    H126346   5.933   4.639   5.649  0.8092 -0.6313 -0.4913
 8794TIP3    H226347   5.955   4.778   5.594 -0.2025 -0.1558  0.2738
 8795TIP3   OH226348   6.749   4.952   1.870 -0.5397 -0.1826  0.3639
 8795TIP3    H126349   6.717   4.912   1.790 -3.8671  1.7003  0.5920
 8795TIP3    H226350   6.792   4.881   1.917 -1.7742 -2.2235 -1.4279
 8796TIP3   OH226351   3.222   1.481   2.751  0.0916  0.4739  0.0052
 8796TIP3    H126352   3.278   1.411   2.786  2.9122  2.4762 -0.1682
 8796TIP3    H226353   3.226   1.469   2.656  2.4236  2.0404 -0.1714
 8797TIP3   OH226354   4.324   6.355   5.560  0.3862 -0.2769 -0.0772
 8797TIP3    H126355   4.343   6.269   5.524 -0.1007  0.2826 -1.7725
 8797TIP3    H226356   4.228   6.359   5.564  0.4083  0.1079  0.1896
 8798TIP3   OH226357   5.352   4.128   0.092 -0.1434  0.2201  0.3195
 8798TIP3    H126358   5.344   4.134   0.187 -1.8812  0.0962  0.2162
 8798TIP3    H226359   5.336   4.036   0.073  2.1521 -0.1759  0.0172
 8799TIP3   OH226360   2.262   4.687   3.817  0.6166  0.1924 -0.6543
 8799TIP3    H126361   2.309   4.704   3.735  0.5943  0.2931 -0.6460
 8799TIP3    H226362   2.292   4.755   3.877 -0.3562  0.9246 -0.9820
 8800TIP3   OH226363   6.030   1.379   1.407  0.3120 -0.0090  0.2857
 8800TIP3    H126364   6.023   1.381   1.502  0.4528  0.4795  0.2872
 8800TIP3    H226365   6.048   1.470   1.382  2.9695 -0.5069  0.0194
 8801TIP3   OH226366   5.222   2.582   0.367  0.1639 -0.4028  0.2259
 8801TIP3    H126367   5.149   2.630   0.407  0.3477 -0.5866  0.7729
 8801TIP3    H226368   5.229   2.502   0.418  2.6582  0.8851  2.1192
 8802TIP3   OH226369   2.807   3.451   4.828 -0.2954  0.2978 -0.2310
 8802TIP3    H126370   2.852   3.367   4.820 -0.7430 -0.0113  0.4156
 8802TIP3    H226371   2.804   3.485   4.738 -1.2736 -1.0047 -0.7393
 8803TIP3   OH226372   1.578   2.279   5.208  0.1038 -0.5178  0.2504
 8803TIP3    H126373   1.659   2.285   5.157  0.2247  0.3578  0.5367
 8803TIP3    H226374   1.582   2.193   5.249 -0.6175 -1.8706 -2.2611
 8804TIP3   OH226375   1.929   3.097   0.963 -0.5984  0.5848  0.2313
 8804TIP3    H126376   1.892   3.183   0.943  0.1092  1.0379  0.8249
 8804TIP3    H226377   1.899   3.077   1.051  0.5544  0.9650  0.7283
 8805TIP3   OH226378   6.274   0.593   4.719  0.5893  0.0069  1.0007
 8805TIP3    H126379   6.340   0.529   4.744  0.8307 -0.9155 -1.6540
 8805TIP3    H226380   6.191   0.546   4.725  0.6055 -0.0805  0.6059
 8806TIP3   OH226381   1.792   1.658   2.914 -0.1145 -0.6497 -0.1865
 8806TIP3    H126382   1.719   1.707   2.877  0.2814 -0.5180 -0.7954
 8806TIP3    H226383   1.870   1.695   2.873  0.7284  1.9363  3.2411
 8807TIP3   OH226384   4.695   6.220   0.692  0.2004 -0.3702  0.2422
 8807TIP3    H126385   4.696   6.135   0.648  1.3990 -1.3364  2.0055
 8807TIP3    H226386   4.665   6.202   0.781  0.6832  1.0022  0.7240
 8808TIP3   OH226387   4.432   2.419   1.983  0.7367  0.3215  0.0114
 8808TIP3    H126388   4.486   2.497   1.993 -0.8828  1.2943  2.4737
 8808TIP3    H226389   4.352   2.441   2.032 -1.2605 -1.5642 -2.2236
 8809TIP3   OH226390   5.760   6.415   3.126 -0.4287  0.1822 -0.2643
 8809TIP3    H126391   5.831   6.398   3.188 -1.1371 -1.3357  0.1783
 8809TIP3    H226392   5.803   6.422   3.041  0.4434  1.2055  0.2452
 8810TIP3   OH226393   6.157   2.410   5.128  0.2286  0.0494  0.6116
 8810TIP3    H126394   6.248   2.413   5.099 -0.1284 -0.9773 -0.7448
 8810TIP3    H226395   6.117   2.489   5.091  0.6141  0.6478  1.4451
 8811TIP3   OH226396   5.265   6.205   5.718 -0.3592 -0.2746  0.1514
 8811TIP3    H126397   5.319   6.277   5.685 -0.1076 -1.0782 -1.2479
 8811TIP3    H226398   5.282   6.204   5.812  0.1834  1.0323  0.0940
 8812TIP3   OH226399   1.417   5.325   1.598  0.4763 -0.0038  0.6021
 8812TIP3    H126400   1.467   5.388   1.650  2.3390 -0.7617 -0.1671
 8812TIP3    H226401   1.473   5.247   1.596 -0.5044 -0.7077 -0.7885
 8813TIP3   OH226402   1.192   3.478   4.682 -0.4078  0.4006 -0.2575
 8813TIP3    H126403   1.227   3.555   4.728 -1.3927  0.4204  0.4800
 8813TIP3    H226404   1.133   3.437   4.745  0.0277 -0.9274 -0.6667
 8814TIP3   OH226405   0.470   1.146   1.010  0.1813  0.6091  0.0926
 8814TIP3    H126406   0.471   1.119   0.918 -0.5319  0.8000  0.0253
 8814TIP3    H226407   0.379   1.167   1.028  0.4254  1.2252  0.6548
 8815TIP3   OH226408   2.736   1.597   2.032 -0.4956 -0.2505  0.2791
 8815TIP3    H126409   2.787   1.674   2.060  2.2308 -1.7922 -0.1127
 8815TIP3    H226410   2.666   1.590   2.097  0.3046  1.4620  1.4032
 8816TIP3   OH226411   6.414   0.593   2.117 -0.0613  0.2720  0.1500
 8816TIP3    H126412   6.505   0.609   2.095 -0.0646 -0.2644 -0.2714
 8816TIP3    H226413   6.397   0.503   2.089 -0.2938 -0.1818  1.6442
 8817TIP3   OH226414   0.869   2.845   3.690  0.2676  0.5311 -0.5107
 8817TIP3    H126415   0.825   2.894   3.621  0.6761 -1.9323 -2.7356
 8817TIP3    H226416   0.821   2.864   3.769 -2.1139  1.2594 -2.0385
 8818TIP3   OH226417   7.112   6.042   4.828 -0.0014  0.0623 -0.2969
 8818TIP3    H126418   7.207   6.032   4.835  0.0447 -0.3326 -1.3824
 8818TIP3    H226419   7.092   6.026   4.736 -0.9764  1.4350 -0.3517
 8819TIP3   OH226420   1.280   5.866   2.918  0.5659  0.1138  0.5355
 8819TIP3    H126421   1.305   5.860   2.826 -1.7945  0.5196 -0.2062
 8819TIP3    H226422   1.306   5.954   2.944 -0.0726  0.5330 -0.2037
 8820TIP3   OH226423   3.193   2.710   2.806 -0.1068 -0.0086  0.0089
 8820TIP3    H126424   3.272   2.673   2.767 -0.7209 -0.7115 -0.6068
 8820TIP3    H226425   3.209   2.709   2.900  0.3616 -0.7606 -0.0713
 8821TIP3   OH226426   2.706   4.945   2.561  0.1055 -0.2657 -0.5330
 8821TIP3    H126427   2.618   4.957   2.596 -0.3898 -0.9023 -1.5087
 8821TIP3    H226428   2.698   4.960   2.467  1.1577  0.2061 -0.5700
 8822TIP3   OH226429   6.611   6.306   1.344 -0.1872  0.2056 -0.4429
 8822TIP3    H126430   6.610   6.402   1.346 -0.4328  0.1926  0.2800
 8822TIP3    H226431   6.616   6.280   1.436  1.9251 -0.4669 -0.6758
 8823TIP3   OH226432   1.893   2.560   2.071 -0.0534  0.0521  0.0381
 8823TIP3    H126433   1.959   2.602   2.127  0.6795 -1.5952  0.4590
 8823TIP3    H226434   1.847   2.500   2.129 -0.9345  0.0707 -0.6100
 8824TIP3   OH226435   4.734   0.790   4.772 -0.3102  0.2837 -0.0606
 8824TIP3    H126436   4.800   0.858   4.760 -0.7768  0.7919  0.2394
 8824TIP3    H226437   4.650   0.837   4.773 -0.6838 -0.3559 -0.4854
 8825TIP3   OH226438   0.266   1.045   2.003  0.2891  0.1481 -0.0553
 8825TIP3    H126439   0.196   0.980   1.999 -0.0364  0.5472 -1.8567
 8825TIP3    H226440   0.335   1.008   1.947  0.1633  1.2338 -0.9750
 8826TIP3   OH226441   1.763   3.755   4.978  0.1574 -0.1876  0.0806
 8826TIP3    H126442   1.760   3.791   5.067  1.6836  2.0720 -0.6752
 8826TIP3    H226443   1.720   3.821   4.924 -0.6385 -1.4711 -0.8957
 8827TIP3   OH226444   0.954   4.273   4.484 -0.5897 -0.2691  0.0259
 8827TIP3    H126445   0.920   4.189   4.512 -2.9896  0.4721 -0.4636
 8827TIP3    H226446   0.897   4.338   4.525  1.7642  1.2156  1.1630
 8828TIP3   OH226447   4.412   1.069   1.353  0.2786 -0.1142 -0.3709
 8828TIP3    H126448   4.326   1.040   1.385  0.3628 -0.5264 -0.5212
 8828TIP3    H226449   4.460   0.989   1.335  0.4403  0.1115 -0.9783
 8829TIP3   OH226450   0.164   5.233   2.332  0.1398 -0.1001  0.2051
 8829TIP3    H126451   0.226   5.197   2.268  0.1293  0.6013 -0.2131
 8829TIP3    H226452   0.215   5.238   2.414  0.5933  0.3385 -0.1012
 8830TIP3   OH226453   5.373   3.436   4.415  0.3589 -0.2540 -0.4558
 8830TIP3    H126454   5.305   3.501   4.396  1.2322  1.2064  1.1458
 8830TIP3    H226455   5.327   3.363   4.455 -0.3979  0.2431 -0.4110
 8831TIP3   OH226456   4.026   6.273   0.454 -0.0777  0.0635  0.1957
 8831TIP3    H126457   4.074   6.323   0.520  0.7795  1.8282 -1.6512
 8831TIP3    H226458   4.091   6.214   0.416 -0.3798 -0.4157  0.4174
 8832TIP3   OH226459   3.128   0.681   5.159  0.3342  0.0498  0.0210
 8832TIP3    H126460   3.096   0.630   5.085 -1.3659 -0.9876  1.3838
 8832TIP3    H226461   3.194   0.625   5.200 -0.5489 -0.5098  0.7213
 8833TIP3   OH226462   7.012   4.204   0.962  0.2873  0.3888  0.2996
 8833TIP3    H126463   7.006   4.116   0.925  0.1782  0.0354  1.1294
 8833TIP3    H226464   7.075   4.195   1.034  0.9388  1.1868 -0.1580
 8834TIP3   OH226465   5.362   4.270   1.207  0.9190 -0.4671  0.7091
 8834TIP3    H126466   5.287   4.215   1.228 -0.1942  0.0043 -1.6278
 8834TIP3    H226467   5.360   4.339   1.273  0.5631 -1.5684  1.9017
 8835TIP3   OH226468   4.704   5.102   4.693 -0.3237 -0.1416  0.2124
 8835TIP3    H126469   4.757   5.180   4.711 -1.5633  0.7715  0.0772
 8835TIP3    H226470   4.766   5.038   4.659  0.7628  0.7149  0.5121
 8836TIP3   OH226471   2.684   6.285   2.361  0.2133  0.4357 -0.3892
 8836TIP3    H126472   2.751   6.219   2.342 -0.4155 -0.3555  0.0608
 8836TIP3    H226473   2.697   6.353   2.295  1.6035  0.4130 -0.1691
 8837TIP3   OH226474   1.253   5.018   2.386  0.4484 -0.2468  0.2285
 8837TIP3    H126475   1.263   5.028   2.480 -1.1048 -0.7738  0.4775
 8837TIP3    H226476   1.305   4.940   2.364  0.3953 -0.4270  0.7367
 8838TIP3   OH226477   5.107   4.558   2.145 -0.1515 -0.7303 -0.4550
 8838TIP3    H126478   5.026   4.608   2.157  0.5586  0.3219  0.2070
 8838TIP3    H226479   5.138   4.541   2.234 -0.1653 -2.0384 -0.6815
 8839TIP3   OH226480   3.320   4.538   0.323  0.0798  0.0237 -0.1066
 8839TIP3    H126481   3.283   4.559   0.408 -1.1075 -0.7472 -0.3955
 8839TIP3    H226482   3.378   4.611   0.302  0.0477  0.4238  1.1605
 8840TIP3   OH226483   2.103   2.966   4.532  0.4405 -0.7289  0.2571
 8840TIP3    H126484   2.008   2.953   4.525  0.5114 -0.6732 -1.1475
 8840TIP3    H226485   2.114   3.061   4.531  0.5141 -0.7354  0.4379
 8841TIP3   OH226486   6.941   6.063   3.713 -0.7788 -0.3912  0.1258
 8841TIP3    H126487   6.931   6.103   3.626  2.6681  1.8774  0.5882
 8841TIP3    H226488   7.009   5.996   3.701  1.8728  1.8714  1.4251
 8842TIP3   OH226489   2.931   3.623   2.243 -0.5271 -0.6327 -0.2702
 8842TIP3    H126490   2.878   3.696   2.275 -0.1825  1.0692 -3.2757
 8842TIP3    H226491   3.020   3.642   2.273 -0.4709  0.1008 -0.8882
 8843TIP3   OH226492   6.669   6.198   2.303 -0.0547  0.9269 -0.5845
 8843TIP3    H126493   6.638   6.134   2.367  0.7979  0.4761 -0.6128
 8843TIP3    H226494   6.662   6.282   2.348  0.8707  0.5743  0.2389
 8844TIP3   OH226495   1.164   1.073   1.014 -0.5872 -0.0254 -0.5176
 8844TIP3    H126496   1.123   1.156   1.038  0.7168  0.3423  0.5797
 8844TIP3    H226497   1.238   1.098   0.958 -0.3448 -0.4694 -0.4009
 8845TIP3   OH226498   4.687   4.599   0.835  0.5917 -0.2896 -0.5848
 8845TIP3    H126499   4.610   4.589   0.778 -0.9058 -0.0553  1.2962
 8845TIP3    H226500   4.673   4.682   0.880  1.9764 -0.2294 -0.2316
 8846TIP3   OH226501   2.420   0.068   0.104 -0.6208 -0.4628 -0.7614
 8846TIP3    H126502   2.405   0.131   0.174  2.7767 -0.1328 -0.1450
 8846TIP3    H226503   2.404  -0.018   0.144  0.4965 -0.2318  0.2421
 8847TIP3   OH226504   3.881   2.532   1.299 -0.0432  0.3159 -0.2358
 8847TIP3    H126505   3.788   2.535   1.323  0.2096 -0.4606  0.9179
 8847TIP3    H226506   3.891   2.447   1.256  0.2054  0.2422 -0.0318
 8848TIP3   OH226507   6.611   0.601   5.288  0.3115 -0.2015  0.1390
 8848TIP3    H126508   6.676   0.594   5.218 -0.2779 -0.2806 -0.4092
 8848TIP3    H226509   6.548   0.666   5.257  1.1007  1.2761  1.4741
 8849TIP3   OH226510   2.617   6.024   5.566 -0.8058  0.7054 -0.0530
 8849TIP3    H126511   2.705   6.014   5.529 -0.9552 -0.8720 -0.0583
 8849TIP3    H226512   2.558   5.994   5.497 -1.1708 -0.9086  0.9121
 8850TIP3   OH226513   0.460   5.760   4.778 -0.0029  0.7081 -0.4628
 8850TIP3    H126514   0.518   5.832   4.800 -0.1543  1.1439 -1.4149
 8850TIP3    H226515   0.412   5.741   4.858  0.8438  0.9137  0.0975
 8851TIP3   OH226516   2.908   6.517   0.064  0.5579 -0.1708 -0.0077
 8851TIP3    H126517   2.967   6.454   0.107 -0.8955 -1.3731  0.3008
 8851TIP3    H226518   2.880   6.576   0.134  3.6562  2.3979 -0.6626
 8852TIP3   OH226519   4.190   3.760   4.457  0.1670 -0.1918  0.5699
 8852TIP3    H126520   4.251   3.800   4.519 -0.8370 -0.2021  1.5974
 8852TIP3    H226521   4.140   3.698   4.510 -0.4498 -0.4907 -0.3440
 8853TIP3   OH226522   5.317   0.069   3.648  0.1754  0.2612 -0.4936
 8853TIP3    H126523   5.303  -0.023   3.626  0.1416  0.2724 -0.5198
 8853TIP3    H226524   5.230   0.108   3.640 -0.1375 -0.0316  1.0547
 8854TIP3   OH226525   1.188   0.202   2.273 -0.5923 -0.8953  0.4480
 8854TIP3    H126526   1.189   0.110   2.245 -0.1481 -0.3362 -1.5587
 8854TIP3    H226527   1.181   0.252   2.191  1.6730  0.9195  1.2350
 8855TIP3   OH226528   5.894   4.174   5.351 -0.1605 -0.1348  0.0502
 8855TIP3    H126529   5.898   4.086   5.388  0.1744 -0.4424 -0.7079
 8855TIP3    H226530   5.905   4.161   5.256 -0.0857  0.7225 -0.0649
 8856TIP3   OH226531   7.069   2.434   5.329  0.4175  0.1914 -0.8293
 8856TIP3    H126532   7.123   2.439   5.408 -0.4365 -1.0838 -0.1226
 8856TIP3    H226533   6.989   2.482   5.352  0.0375 -0.4428 -0.7684
 8857TIP3   OH226534   0.360   4.905   2.169 -0.3039  0.0409 -0.1506
 8857TIP3    H126535   0.370   4.838   2.237  0.6223 -0.5731 -0.8642
 8857TIP3    H226536   0.276   4.884   2.127 -0.5344 -0.0108  0.3234
 8858TIP3   OH226537   3.679   1.707   3.269  0.1101  0.0080  0.4423
 8858TIP3    H126538   3.759   1.657   3.285  0.9666  1.3013  0.3425
 8858TIP3    H226539   3.698   1.759   3.191 -1.4590 -0.9356 -0.6173
 8859TIP3   OH226540   2.305   3.790   4.658  0.7540 -0.0866 -0.0227
 8859TIP3    H126541   2.222   3.798   4.610  1.2562 -0.5300 -0.9795
 8859TIP3    H226542   2.327   3.697   4.654  1.8016  0.1725 -0.6460
 8860TIP3   OH226543   4.263   4.883   2.720  0.1186  0.0438 -0.1998
 8860TIP3    H126544   4.197   4.862   2.787  0.3169  2.5421  0.8964
 8860TIP3    H226545   4.219   4.947   2.664  1.3583  1.2756  0.1828
 8861TIP3   OH226546   5.603   3.823   2.927  0.0394 -0.1077 -0.0813
 8861TIP3    H126547   5.621   3.911   2.959 -0.4493 -0.2010  0.4659
 8861TIP3    H226548   5.532   3.835   2.863 -3.4350 -0.5397  3.3224
 8862TIP3   OH226549   3.662   1.911   1.721 -0.6770  0.2705  0.3182
 8862TIP3    H126550   3.704   1.994   1.744 -0.8487  1.1457 -2.2000
 8862TIP3    H226551   3.641   1.920   1.627 -0.1152 -2.8787 -0.2083
 8863TIP3   OH226552   5.364   2.098   2.258 -0.3445 -0.4368  0.2489
 8863TIP3    H126553   5.401   2.010   2.249  0.9829  0.1200  0.0000
 8863TIP3    H226554   5.384   2.125   2.347  0.0093 -0.0591  0.0588
 8864TIP3   OH226555   4.770   3.530   2.923  0.3677 -0.0160 -0.2626
 8864TIP3    H126556   4.768   3.558   3.015  1.1883 -2.9253  0.7753
 8864TIP3    H226557   4.848   3.569   2.887  1.6999 -1.1487  1.2203
 8865TIP3   OH226558   3.868   6.238   1.203 -0.0754  0.2792 -0.1763
 8865TIP3    H126559   3.907   6.317   1.164 -0.8793  1.1707  0.7620
 8865TIP3    H226560   3.865   6.175   1.131  2.8973  0.2004 -0.3760
 8866TIP3   OH226561   3.224   4.494   1.330  0.0282 -0.1987 -0.8126
 8866TIP3    H126562   3.178   4.540   1.260  0.4459  2.8606  0.7371
 8866TIP3    H226563   3.159   4.434   1.366 -0.3789 -1.3729 -3.3132
 8867TIP3   OH226564   1.164   4.102   0.358 -0.1702 -0.0275  0.1407
 8867TIP3    H126565   1.106   4.028   0.343 -1.1490  0.8102 -0.3592
 8867TIP3    H226566   1.121   4.176   0.315  1.1555  0.6807 -0.0406
 8868TIP3   OH226567   0.255   5.175   0.628 -0.2889 -0.0447  0.0884
 8868TIP3    H126568   0.286   5.264   0.608  0.3825 -0.6785 -1.9447
 8868TIP3    H226569   0.166   5.172   0.594 -1.5386  0.7501  2.9861
 8869TIP3   OH226570   6.613   2.943   5.232 -0.0573  0.0224  0.1560
 8869TIP3    H126571   6.614   2.848   5.229  1.2112  0.0281 -0.1431
 8869TIP3    H226572   6.704   2.969   5.214  0.0709  1.2254  2.2179
 8870TIP3   OH226573   4.091   4.335   5.514  0.1840 -0.4975 -0.3995
 8870TIP3    H126574   4.133   4.306   5.433  0.7261  0.9839 -0.6875
 8870TIP3    H226575   4.153   4.397   5.552 -1.0248  0.5038  0.0028
 8871TIP3   OH226576   5.031   4.179   0.755 -0.0269 -0.0984  0.2628
 8871TIP3    H126577   5.102   4.128   0.715  0.5973 -0.8184  2.1767
 8871TIP3    H226578   4.951   4.138   0.724  0.4419 -0.9226  0.1089
 8872TIP3   OH226579   3.711   4.129   5.095 -0.0306 -0.1831 -0.4390
 8872TIP3    H126580   3.754   4.073   5.030 -2.5886  0.3763 -2.8143
 8872TIP3    H226581   3.754   4.214   5.084  1.9900 -0.9135  1.2445
 8873TIP3   OH226582   0.047   5.660   5.431  0.5302 -0.2621  0.1312
 8873TIP3    H126583   0.017   5.643   5.520  1.7437 -1.1014  0.4103
 8873TIP3    H226584   0.142   5.653   5.437  0.5889 -1.1983 -1.3883
 8874TIP3   OH226585   0.486   1.704   2.064 -0.3104 -0.3394 -0.4024
 8874TIP3    H126586   0.579   1.728   2.063 -0.6195  0.9990 -0.1142
 8874TIP3    H226587   0.445   1.766   2.004 -1.5769  1.8650  2.4880
 8875TIP3   OH226588   1.530   4.252   1.814 -0.4410 -0.7969 -0.3672
 8875TIP3    H126589   1.549   4.179   1.756 -1.2581 -1.2546 -0.0697
 8875TIP3    H226590   1.453   4.294   1.776  0.1996  0.1056 -0.7045
 8876TIP3   OH226591   7.164   5.875   0.440  0.1471  0.1854  0.0623
 8876TIP3    H126592   7.201   5.790   0.462 -0.4175  0.2730  1.4432
 8876TIP3    H226593   7.199   5.934   0.507 -0.9831  0.6434  0.2706
 8877TIP3   OH226594   0.931   0.289   0.594 -0.2590 -0.2766  0.1070
 8877TIP3    H126595   0.930   0.342   0.674  2.8004  0.7343 -0.3960
 8877TIP3    H226596   0.872   0.216   0.613 -2.6000  1.8887  1.8032
 8878TIP3   OH226597   1.160   3.591   5.204  0.1676  0.1576  0.4421
 8878TIP3    H126598   1.174   3.656   5.273  0.9512  0.0265  0.4171
 8878TIP3    H226599   1.065   3.590   5.191  0.1662  1.5223  0.2281
 8879TIP3   OH226600   0.159   2.103   1.963 -0.0447  0.2851 -0.1397
 8879TIP3    H126601   0.142   2.020   2.008 -0.2890  0.5214  0.2180
 8879TIP3    H226602   0.074   2.148   1.963  0.4884  1.3982  1.4829
 8880TIP3   OH226603   0.951   5.199   1.034  0.1068  0.3111 -0.1160
 8880TIP3    H126604   0.964   5.157   1.119 -0.1596  0.1705 -0.1435
 8880TIP3    H226605   1.024   5.168   0.981 -0.4615 -0.6699 -0.3483
 8881TIP3   OH226606   3.286   0.761   2.251 -0.4348  0.0579  0.1353
 8881TIP3    H126607   3.220   0.706   2.209  0.5397 -1.2360  0.2533
 8881TIP3    H226608   3.291   0.839   2.195 -0.6499 -0.7147 -0.9868
 8882TIP3   OH226609   4.774   5.089   3.584  0.7783  0.3096 -0.2609
 8882TIP3    H126610   4.752   4.997   3.593  0.3263  0.4338 -0.0437
 8882TIP3    H226611   4.868   5.094   3.603  0.4332  0.1586  1.7371
 8883TIP3   OH226612   6.749   0.117   3.650  0.2280 -0.1037  0.2248
 8883TIP3    H126613   6.771   0.024   3.644  2.2167  0.3876 -1.3948
 8883TIP3    H226614   6.762   0.139   3.742  0.1302 -1.3279  0.5519
 8884TIP3   OH226615   7.107   3.297   2.789  0.2094  0.1365 -0.3886
 8884TIP3    H126616   7.179   3.323   2.847  0.7561 -3.9407  1.0785
 8884TIP3    H226617   7.028   3.308   2.842  0.2499  0.2626 -0.3529
 8885TIP3   OH226618   6.234   2.039   4.357  0.1816  0.2438 -0.3662
 8885TIP3    H126619   6.317   2.032   4.405  1.1305 -0.5041 -2.0400
 8885TIP3    H226620   6.171   1.990   4.411  1.3155 -0.9406 -0.0600
 8886TIP3   OH226621   1.488   3.584   3.207  0.2369  0.0559 -1.0141
 8886TIP3    H126622   1.561   3.539   3.165  0.3329 -0.1062 -0.6745
 8886TIP3    H226623   1.460   3.525   3.277 -0.9424 -0.4232 -1.8396
 8887TIP3   OH226624   3.453   3.553   2.579 -0.3317  0.4106 -0.6181
 8887TIP3    H126625   3.392   3.589   2.513  1.1106 -0.1901 -2.3642
 8887TIP3    H226626   3.465   3.624   2.642 -3.0028  0.4575 -0.0551
 8888TIP3   OH226627   4.807   1.750   1.941 -0.5934 -0.1321  0.3011
 8888TIP3    H126628   4.796   1.727   1.848 -1.6707 -0.4238  0.4877
 8888TIP3    H226629   4.884   1.700   1.969 -0.8306 -0.7952 -0.1950
 8889TIP3   OH226630   5.984   2.522   4.599  0.2216  0.3608 -0.7337
 8889TIP3    H126631   5.937   2.552   4.521 -0.9614 -1.3176 -0.7016
 8889TIP3    H226632   6.014   2.434   4.577 -1.5483 -0.8221  1.2505
 8890TIP3   OH226633   6.857   3.066   0.453 -0.0127 -0.6353 -0.1916
 8890TIP3    H126634   6.780   3.117   0.479  1.0753  1.9995 -1.7973
 8890TIP3    H226635   6.881   3.018   0.532 -1.5963  0.6897  1.1909
 8891TIP3   OH226636   4.823   0.450   0.201 -0.3387  0.3916  0.1006
 8891TIP3    H126637   4.793   0.512   0.268  1.9674  2.2054 -0.3951
 8891TIP3    H226638   4.887   0.500   0.150  0.7637 -2.0892 -1.0968
 8892TIP3   OH226639   3.038   6.516   2.768  0.5293 -0.1579 -0.1441
 8892TIP3    H126640   3.132   6.527   2.782  0.8684 -0.8142 -1.6607
 8892TIP3    H226641   3.003   6.605   2.764  1.4957  0.2000 -1.8981
 8893TIP3   OH226642   5.339   3.407   2.856 -0.3317 -0.4677  0.1371
 8893TIP3    H126643   5.286   3.344   2.807 -1.1194  0.0330  0.3246
 8893TIP3    H226644   5.360   3.362   2.938 -2.8591  0.2947  1.2917
 8894TIP3   OH226645   3.462   3.522   4.450 -0.1714 -0.4260  0.0522
 8894TIP3    H126646   3.446   3.506   4.357 -1.2520  1.2821 -0.1019
 8894TIP3    H226647   3.498   3.610   4.453 -0.4001 -0.3545  1.2760
 8895TIP3   OH226648   0.093   5.983   5.187 -0.0203 -0.2193 -0.3517
 8895TIP3    H126649   0.155   5.943   5.126  1.4125  1.7033 -0.2221
 8895TIP3    H226650   0.131   5.967   5.274 -0.7239 -0.7078 -0.1242
 8896TIP3   OH226651   3.359   3.850   5.871  0.0306  0.2397  0.1720
 8896TIP3    H126652   3.340   3.815   5.958  1.2366  1.0001  0.7650
 8896TIP3    H226653   3.279   3.897   5.846  0.5305  2.1719  1.9870
 8897TIP3   OH226654   2.172   5.752   4.826 -0.0435  0.3537  0.2863
 8897TIP3    H126655   2.092   5.803   4.834 -0.5390 -0.4115  0.2919
 8897TIP3    H226656   2.142   5.663   4.805  0.7855 -0.0009  0.5732
 8898TIP3   OH226657   3.811   6.609   0.491  0.4861 -0.2766  0.0843
 8898TIP3    H126658   3.835   6.699   0.514 -0.0314 -0.0949 -0.0571
 8898TIP3    H226659   3.849   6.595   0.404 -0.2641  0.1599 -0.3272
 8899TIP3   OH226660   5.772   5.708   5.252  0.1052 -0.0874 -0.3390
 8899TIP3    H126661   5.697   5.653   5.272  1.6775 -1.7483  1.3584
 8899TIP3    H226662   5.748   5.795   5.286 -1.4161 -0.3176 -0.7755
 8900TIP3   OH226663   5.254   0.627   5.760  0.2557  0.3838  0.3251
 8900TIP3    H126664   5.343   0.663   5.761  1.2689 -1.9189  0.1287
 8900TIP3    H226665   5.266   0.537   5.729 -2.3563  0.4806 -1.1811
 8901TIP3   OH226666   4.973   4.384   0.490 -0.3597  0.2427 -0.5580
 8901TIP3    H126667   4.994   4.427   0.407  0.4741  0.3600 -0.2934
 8901TIP3    H226668   4.988   4.450   0.557  0.8227 -0.3976 -0.1609
 8902TIP3   OH226669   3.458   3.978   1.840  0.3717 -0.6535 -0.6427
 8902TIP3    H126670   3.509   4.034   1.781 -0.4163 -0.1502 -0.8691
 8902TIP3    H226671   3.445   3.897   1.790  0.9030 -0.7607 -0.6047
 8903TIP3   OH226672   6.403   3.037   4.874  0.2595  0.3154 -0.8599
 8903TIP3    H126673   6.424   2.967   4.811 -2.2173 -0.9368 -0.4521
 8903TIP3    H226674   6.453   3.113   4.843  0.9128 -0.8737 -2.9751
 8904TIP3   OH226675   0.978   1.984   0.504 -0.4053 -0.1041  0.1501
 8904TIP3    H126676   0.942   2.040   0.573  0.5211 -0.5369  0.9946
 8904TIP3    H226677   0.901   1.941   0.466 -1.0191  0.8749  0.2405
 8905TIP3   OH226678   1.970   3.681   4.814  0.5946  0.3725  0.0363
 8905TIP3    H126679   2.017   3.744   4.869 -0.3635 -0.3061  1.7251
 8905TIP3    H226680   1.893   3.656   4.867  0.2383 -1.1828 -1.1449
 8906TIP3   OH226681   1.492   1.687   5.282 -0.3162 -0.6495  0.4024
 8906TIP3    H126682   1.523   1.766   5.326 -1.4869  0.3028 -0.3909
 8906TIP3    H226683   1.404   1.710   5.252  0.2047 -1.4338 -1.9091
 8907TIP3   OH226684   4.569   3.847   4.787  0.4638  0.2789  0.0054
 8907TIP3    H126685   4.515   3.874   4.714 -0.2324 -0.0001  0.4137
 8907TIP3    H226686   4.587   3.754   4.772  1.5923  0.5763 -0.6002
 8908TIP3   OH226687   5.845   2.832   5.551 -0.2343  0.1389 -0.2867
 8908TIP3    H126688   5.854   2.745   5.512  0.1525  0.1289 -0.1827
 8908TIP3    H226689   5.831   2.814   5.644  0.1801  0.1931 -0.2113
 8909TIP3   OH226690   0.215   0.686   5.591  0.3849  0.1955 -0.5815
 8909TIP3    H126691   0.132   0.644   5.611  0.0625  0.7178 -0.8016
 8909TIP3    H226692   0.279   0.641   5.647 -0.3976  1.2576  1.2653
 8910TIP3   OH226693   7.093   5.161   0.700 -0.3455 -0.2887 -0.3000
 8910TIP3    H126694   7.031   5.233   0.700  2.4823  2.4608 -2.7393
 8910TIP3    H226695   7.065   5.105   0.628  0.2420  1.3115 -1.8491
 8911TIP3   OH226696   6.910   2.308   2.077  0.0194  0.3104  0.0928
 8911TIP3    H126697   6.817   2.294   2.095 -0.3297  1.9669 -0.2263
 8911TIP3    H226698   6.919   2.404   2.073  1.4616  0.1508 -1.2843
 8912TIP3   OH226699   7.173   1.380   4.626  0.0782  0.1372 -0.0843
 8912TIP3    H126700   7.222   1.436   4.686  0.0516 -0.6214  0.6577
 8912TIP3    H226701   7.137   1.311   4.681  0.3618 -0.7837 -1.0275
 8913TIP3   OH226702   3.842   0.026   1.712  0.1095 -0.0915  0.0006
 8913TIP3    H126703   3.854   0.067   1.627  1.5088 -1.0672 -0.3158
 8913TIP3    H226704   3.827   0.098   1.772 -1.1560  0.5971 -1.0907
 8914TIP3   OH226705   0.847   2.971   0.503  0.6037 -0.3024 -0.2365
 8914TIP3    H126706   0.872   2.990   0.594  0.8295  0.9659 -0.5527
 8914TIP3    H226707   0.908   2.902   0.476 -0.0933 -1.3946  0.8625
 8915TIP3   OH226708   1.194   4.885   4.430  0.3543  0.0563  0.3067
 8915TIP3    H126709   1.217   4.804   4.384  0.3688  0.3009 -0.1203
 8915TIP3    H226710   1.105   4.906   4.398  0.9642  1.0727 -0.8232
 8916TIP3   OH226711   3.723   1.936   0.583 -0.0698  0.1168 -0.0630
 8916TIP3    H126712   3.744   1.846   0.608 -1.4177 -0.0032  0.7323
 8916TIP3    H226713   3.759   1.945   0.495  0.1826 -1.1673 -0.1178
 8917TIP3   OH226714   6.789   3.687   0.175 -0.5035 -0.5975 -0.1784
 8917TIP3    H126715   6.785   3.618   0.110  1.1523 -0.1883 -0.7549
 8917TIP3    H226716   6.855   3.659   0.238 -0.2207  0.1914 -0.1050
 8918TIP3   OH226717   6.648   2.787   2.574  0.0105 -0.4633 -0.3379
 8918TIP3    H126718   6.657   2.749   2.661 -0.5692 -0.5541 -0.3180
 8918TIP3    H226719   6.667   2.880   2.587 -1.1663 -0.2690  0.0960
 8919TIP3   OH226720   2.337   0.556   2.344 -0.5394 -0.3203 -0.1823
 8919TIP3    H126721   2.314   0.549   2.251 -0.5956 -0.2297 -0.1763
 8919TIP3    H226722   2.419   0.606   2.345 -0.7332  0.0058 -0.1649
 8920TIP3   OH226723   3.414   0.749   5.452  0.5659  0.6187 -0.0274
 8920TIP3    H126724   3.430   0.780   5.542 -1.6147  1.2980  0.1880
 8920TIP3    H226725   3.323   0.774   5.434  0.8853  0.3130 -2.3690
 8921TIP3   OH226726   4.441   4.476   2.008  0.3990  0.1890  0.4884
 8921TIP3    H126727   4.348   4.495   1.991 -0.1113 -2.0336  0.4720
 8921TIP3    H226728   4.485   4.494   1.925  0.1672  2.0579  0.7228
 8922TIP3   OH226729   6.930   2.653   1.771  0.1886 -0.2547 -0.4792
 8922TIP3    H126730   6.997   2.706   1.813  0.6900  0.6527 -2.3054
 8922TIP3    H226731   6.922   2.690   1.683 -2.5292 -0.5131 -0.4262
 8923TIP3   OH226732   2.013   2.011   4.706 -0.1512 -0.4842  0.4889
 8923TIP3    H126733   2.049   1.986   4.792 -0.3674 -4.3078 -0.3563
 8923TIP3    H226734   2.087   2.049   4.659  0.3784  0.1756  1.8023
 8924TIP3   OH226735   4.535   4.647   3.969 -0.1625  0.4495 -0.2617
 8924TIP3    H126736   4.490   4.645   3.885  1.4979  2.1421 -1.2737
 8924TIP3    H226737   4.579   4.732   3.970 -0.0330  0.4240  2.2823
 8925TIP3   OH226738   7.136   0.463   4.459  0.0018 -0.2244  0.4114
 8925TIP3    H126739   7.191   0.391   4.428 -0.1772  0.8005 -2.5778
 8925TIP3    H226740   7.198   0.535   4.473 -0.2226  0.0384  0.0458
 8926TIP3   OH226741   5.031   6.334   2.309 -0.2739  0.0859 -0.6584
 8926TIP3    H126742   5.022   6.384   2.229 -0.8146 -0.7631 -1.1465
 8926TIP3    H226743   4.975   6.258   2.296  0.0694 -0.3466  0.2944
 8927TIP3   OH226744   0.533   3.669   4.105  0.4756 -0.2867 -0.1254
 8927TIP3    H126745   0.530   3.743   4.045  0.8600 -0.3260 -0.1927
 8927TIP3    H226746   0.508   3.593   4.052  1.2837 -0.3992 -0.3604
 8928TIP3   OH226747   3.032   5.638   3.846 -0.1130  0.4291 -0.4432
 8928TIP3    H126748   2.979   5.578   3.794 -1.1286  0.4025  0.5829
 8928TIP3    H226749   3.021   5.723   3.803  1.8322 -0.1636 -2.2736
 8929TIP3   OH226750   5.849   4.500   0.183  0.3016 -0.1657  0.2387
 8929TIP3    H126751   5.906   4.431   0.216  1.4426  0.4489 -0.4186
 8929TIP3    H226752   5.841   4.561   0.256  1.3585  0.2793 -0.0026
 8930TIP3   OH226753   0.330   5.237   2.562 -0.5602 -0.3243  0.1167
 8930TIP3    H126754   0.339   5.145   2.587 -0.9242 -0.5591 -0.6009
 8930TIP3    H226755   0.344   5.285   2.644  1.3293 -0.9237  0.2079
 8931TIP3   OH226756   4.461   4.165   4.882 -0.1021 -0.0169  1.1257
 8931TIP3    H126757   4.494   4.180   4.793  1.6437 -0.1020  1.7096
 8931TIP3    H226758   4.500   4.081   4.907  0.3683  0.5434  2.3613
 8932TIP3   OH226759   5.733   6.707   3.752 -0.3782 -0.6499  0.6722
 8932TIP3    H126760   5.743   6.656   3.671 -1.3700 -1.1190  0.8280
 8932TIP3    H226761   5.665   6.771   3.731 -1.0958 -1.1849  1.3118
 8933TIP3   OH226762   4.435   4.096   2.830 -0.0420  0.4303 -0.1101
 8933TIP3    H126763   4.370   4.032   2.801  1.4570 -0.8724 -0.7277
 8933TIP3    H226764   4.401   4.128   2.914 -0.2267 -2.1961  0.9373
 8934TIP3   OH226765   1.503   3.336   4.010 -0.7944 -0.7824  0.0343
 8934TIP3    H126766   1.473   3.426   4.023 -0.2327 -0.6246  0.2784
 8934TIP3    H226767   1.535   3.334   3.920  0.5450 -0.3268  0.4753
 8935TIP3   OH226768   3.293   1.430   0.401 -0.1528 -0.0065  0.7136
 8935TIP3    H126769   3.334   1.410   0.485  0.7363  1.6066  0.7152
 8935TIP3    H226770   3.292   1.347   0.354  0.6006 -0.6531  1.7828
 8936TIP3   OH226771   0.857   6.192   0.421  0.5837 -0.1500  0.4941
 8936TIP3    H126772   0.840   6.119   0.362  0.8513 -0.7472  1.1424
 8936TIP3    H226773   0.771   6.223   0.448  0.4717 -0.7415  0.8314
 8937TIP3   OH226774   0.983   5.916   4.743  0.4747  0.0206  0.4271
 8937TIP3    H126775   1.043   5.882   4.810  0.3085 -0.6407  0.2538
 8937TIP3    H226776   0.994   6.011   4.746  0.2233  0.0268  1.6240
 8938TIP3   OH226777   4.371   0.741   1.857 -0.4463 -0.3516 -0.0345
 8938TIP3    H126778   4.334   0.683   1.791 -1.2189  0.0461  0.0399
 8938TIP3    H226779   4.297   0.793   1.887  0.1342  0.2923  0.2942
 8939TIP3   OH226780   0.165   4.566   4.677 -0.2186  0.5501  0.1731
 8939TIP3    H126781   0.232   4.504   4.708 -0.2890  1.0399  1.3441
 8939TIP3    H226782   0.095   4.510   4.643 -0.9465 -0.1092  2.5733
 8940TIP3   OH226783   3.304   5.020   5.247  0.4744 -0.5693 -0.4932
 8940TIP3    H126784   3.245   4.952   5.214  0.2776 -0.3625 -0.5728
 8940TIP3    H226785   3.301   5.009   5.342  0.1863 -0.4624 -0.4876
 8941TIP3   OH226786   0.860   1.995   2.222 -0.0924  0.3635  0.0588
 8941TIP3    H126787   0.800   1.960   2.288 -0.2204 -0.0267 -0.2654
 8941TIP3    H226788   0.806   2.051   2.167  0.0621  0.8800  0.4237
 8942TIP3   OH226789   5.061   3.311   5.087  0.1424 -0.1771  0.0931
 8942TIP3    H126790   4.989   3.360   5.126 -1.3383 -2.2952  0.1683
 8942TIP3    H226791   5.107   3.271   5.161 -0.5675 -1.3933 -0.0996
 8943TIP3   OH226792   4.872   4.333   1.745 -0.1496 -0.3119 -0.0118
 8943TIP3    H126793   4.798   4.288   1.786  0.7567 -0.9657  0.9677
 8943TIP3    H226794   4.922   4.369   1.818 -0.8877  2.4470 -0.7708
 8944TIP3   OH226795   4.364   3.357   5.703  0.0389 -0.2191  0.5033
 8944TIP3    H126796   4.297   3.421   5.678  1.1356  0.7350 -0.0613
 8944TIP3    H226797   4.440   3.378   5.648  0.7874 -1.3319  1.0680
 8945TIP3   OH226798   5.358   2.298   5.723 -0.5244  0.1719  0.2211
 8945TIP3    H126799   5.400   2.216   5.697 -0.4791  0.5803 -1.0783
 8945TIP3    H226800   5.381   2.309   5.815  2.0239  0.2575 -0.3664
 8946TIP3   OH226801   5.296   0.151   5.819  0.3180 -0.0541 -0.3773
 8946TIP3    H126802   5.384   0.118   5.836 -0.0271 -0.8484 -0.0697
 8946TIP3    H226803   5.299   0.242   5.846  0.5503 -0.5584  1.4167
 8947TIP3   OH226804   1.328   5.702   3.424  0.0374 -0.2553  0.1757
 8947TIP3    H126805   1.380   5.666   3.496  2.0333 -0.4052 -1.2658
 8947TIP3    H226806   1.351   5.648   3.348 -1.1288  0.6048 -0.8317
 8948TIP3   OH226807   4.130   3.552   5.847  0.2365 -0.7284 -0.0608
 8948TIP3    H126808   4.180   3.583   5.922 -1.6859  2.3395  0.1527
 8948TIP3    H226809   4.059   3.500   5.884 -1.1873  1.4491  0.4765
 8949TIP3   OH226810   7.138   2.108   3.190 -0.4163 -0.1151  0.5893
 8949TIP3    H126811   7.091   2.027   3.212 -1.1044  0.1393  0.0866
 8949TIP3    H226812   7.230   2.086   3.203 -0.3370 -1.8678 -2.0928
 8950TIP3   OH226813   6.201   4.462   3.399  0.5655 -0.6885  0.3093
 8950TIP3    H126814   6.259   4.436   3.327  2.0548 -0.3972  1.3541
 8950TIP3    H226815   6.121   4.412   3.384  0.8877 -0.7502 -1.4601
 8951TIP3   OH226816   0.098   4.982   4.873  0.4766 -0.0812 -0.7820
 8951TIP3    H126817   0.025   4.993   4.934  1.3586 -3.2565  1.0520
 8951TIP3    H226818   0.089   4.892   4.841  1.9166  0.4410 -2.8521
 8952TIP3   OH226819   6.471   1.152   4.144 -0.5467  0.4445 -0.2311
 8952TIP3    H126820   6.504   1.238   4.119 -1.8305  1.4280  1.3192
 8952TIP3    H226821   6.407   1.130   4.076 -0.3653  0.7802 -0.5133
 8953TIP3   OH226822   5.618   2.293   0.428 -0.4077  0.2412  0.5504
 8953TIP3    H126823   5.589   2.257   0.512 -1.4197 -1.4602 -0.4642
 8953TIP3    H226824   5.652   2.380   0.449 -2.3600  0.6184  2.4356
 8954TIP3   OH226825   4.322   2.147   5.708 -0.6219  0.2989 -0.3041
 8954TIP3    H126826   4.255   2.078   5.709 -0.5215  0.2028 -0.0583
 8954TIP3    H226827   4.397   2.106   5.663  0.3274 -0.6168  1.9586
 8955TIP3   OH226828   4.115   6.511   3.186 -0.1161  0.0935 -0.3100
 8955TIP3    H126829   4.094   6.421   3.211 -1.0134 -0.0810 -1.6103
 8955TIP3    H226830   4.170   6.503   3.108 -0.7409  0.6630 -0.8253
 8956TIP3   OH226831   3.965   4.711   0.379  0.0021 -0.1723  0.8391
 8956TIP3    H126832   3.891   4.766   0.403 -0.4751 -0.4250 -0.0241
 8956TIP3    H226833   3.989   4.667   0.461 -1.3216 -0.7110  0.9550
 8957TIP3   OH226834   0.343   4.922   3.906 -0.3383  0.2786  0.3328
 8957TIP3    H126835   0.412   4.976   3.944  0.3183 -0.9139  0.9027
 8957TIP3    H226836   0.313   4.867   3.978 -2.2899  1.1332  0.2416
 8958TIP3   OH226837   5.862   1.152   1.739  0.1498 -0.2949  0.5365
 8958TIP3    H126838   5.854   1.223   1.803 -0.3024 -0.5892  0.8072
 8958TIP3    H226839   5.888   1.076   1.791 -0.2537 -0.5427  0.3799
 8959TIP3   OH226840   2.005   3.112   3.989  0.3534 -0.0897  0.3642
 8959TIP3    H126841   2.078   3.130   3.930 -1.5997  0.2936 -2.0698
 8959TIP3    H226842   1.965   3.032   3.955 -1.1488  0.4280  0.8264
 8960TIP3   OH226843   4.658   0.670   1.775 -0.4737 -0.3359  0.8310
 8960TIP3    H126844   4.600   0.725   1.828 -0.8225 -0.7866  0.9283
 8960TIP3    H226845   4.745   0.688   1.809 -0.5559  0.3018  0.7283
 8961TIP3   OH226846   0.748   4.241   4.877 -0.2299 -0.0120 -0.1753
 8961TIP3    H126847   0.669   4.195   4.848 -1.0582  1.3636 -0.2137
 8961TIP3    H226848   0.742   4.327   4.835  2.5713 -0.6810 -2.2117
 8962TIP3   OH226849   4.574   4.120   0.299  0.2322 -0.4303 -0.1684
 8962TIP3    H126850   4.644   4.063   0.267  0.5537 -1.2813  1.9519
 8962TIP3    H226851   4.606   4.209   0.280  1.9400 -0.7988  0.7819
 8963TIP3   OH226852   4.943   3.846   2.253 -1.2427 -0.3352 -0.0102
 8963TIP3    H126853   4.915   3.801   2.333  0.2019 -0.0093  0.7069
 8963TIP3    H226854   4.906   3.934   2.261 -0.0357  0.0989  0.9346
 8964TIP3   OH226855   7.071   0.250   0.944  0.1508 -0.9577 -0.6832
 8964TIP3    H126856   7.023   0.217   1.019  0.0172  0.4667 -0.1296
 8964TIP3    H226857   7.146   0.296   0.981  0.8793 -1.4578 -1.4786
 8965TIP3   OH226858   2.684   1.834   5.321  0.3265 -0.0301 -0.2256
 8965TIP3    H126859   2.767   1.789   5.338 -0.0351 -0.2865  0.9306
 8965TIP3    H226860   2.709   1.924   5.302  0.8529 -0.0394  0.3860
 8966TIP3   OH226861   2.217   0.756   2.107 -0.2264  0.5227  0.2548
 8966TIP3    H126862   2.187   0.759   2.198 -1.4855  3.4357 -0.1240
 8966TIP3    H226863   2.302   0.800   2.108 -0.2472  0.5703  0.0524
 8967TIP3   OH226864   0.953   5.748   4.980 -0.2573  0.6630  0.0891
 8967TIP3    H126865   0.917   5.699   5.054 -1.0904  0.1173 -0.6556
 8967TIP3    H226866   1.028   5.696   4.952 -0.0818  0.7467  0.4051
 8968TIP3   OH226867   6.579   4.865   2.132 -0.0769  0.4303  0.1521
 8968TIP3    H126868   6.631   4.786   2.119 -0.1068  0.5286 -0.6203
 8968TIP3    H226869   6.519   4.867   2.057 -0.1744  1.1097  0.2405
 8969TIP3   OH226870   3.634   2.651   4.312 -0.2306  0.0129 -0.0814
 8969TIP3    H126871   3.653   2.745   4.319  0.4007 -0.1706  0.7683
 8969TIP3    H226872   3.695   2.609   4.372  0.7033 -1.1156 -1.7581
 8970TIP3   OH226873   2.125   5.132   4.738  0.3927 -0.7661 -0.0789
 8970TIP3    H126874   2.179   5.196   4.786  0.6137 -1.3182  0.4146
 8970TIP3    H226875   2.151   5.143   4.646 -0.5787  0.8329 -0.2065
 8971TIP3   OH226876   0.295   0.616   2.930  1.1017  0.2459 -0.0776
 8971TIP3    H126877   0.338   0.663   3.002  2.0036  0.3269 -0.6629
 8971TIP3    H226878   0.357   0.619   2.858 -0.5926  1.9701 -1.5926
 8972TIP3   OH226879   1.725   6.558   4.616 -0.7847 -0.4011 -0.6680
 8972TIP3    H126880   1.773   6.577   4.696 -1.7615 -0.2467 -0.1037
 8972TIP3    H226881   1.775   6.600   4.546  0.0042 -0.4307 -0.1232
 8973TIP3   OH226882   2.346   2.985   1.927 -0.0109  0.0307 -0.1270
 8973TIP3    H126883   2.413   3.027   1.980  1.0454 -1.2788 -0.3707
 8973TIP3    H226884   2.347   3.033   1.844  0.5739  0.0803 -0.0931
 8974TIP3   OH226885   5.719   1.276   2.865  0.3293 -0.2588  0.2029
 8974TIP3    H126886   5.701   1.184   2.846 -1.2825  0.3896 -1.7396
 8974TIP3    H226887   5.646   1.302   2.921  0.2715  0.0760 -0.0304
 8975TIP3   OH226888   5.619   4.748   2.907  0.1974  0.0189 -0.7068
 8975TIP3    H126889   5.707   4.781   2.892 -0.0821  0.4867 -1.3251
 8975TIP3    H226890   5.608   4.753   3.002  1.9074 -2.7880 -0.2426
 8976TIP3   OH226891   7.021   4.585   4.626  0.1018 -0.6750  0.4785
 8976TIP3    H126892   6.979   4.585   4.540  2.6247  0.1593 -0.8482
 8976TIP3    H226893   6.957   4.627   4.683 -1.3379 -0.5432 -1.1374
 8977TIP3   OH226894   6.486   6.527   1.111 -0.1611 -0.0603 -0.2731
 8977TIP3    H126895   6.554   6.542   1.045  2.3008 -0.2558  2.0188
 8977TIP3    H226896   6.459   6.436   1.096  0.0376  0.0316 -1.2667
 8978TIP3   OH226897   4.913   3.324   3.062 -0.0441 -0.0002 -0.2887
 8978TIP3    H126898   4.937   3.339   2.971  1.1713 -0.4821 -0.0714
 8978TIP3    H226899   4.843   3.387   3.079 -0.5442 -0.1516 -1.6448
 8979TIP3   OH226900   3.475   5.936   3.475  0.4805  0.4822  0.4859
 8979TIP3    H126901   3.535   5.968   3.408  4.6299 -4.2670  1.3401
 8979TIP3    H226902   3.528   5.932   3.555 -1.9412 -1.0677  2.1528
 8980TIP3   OH226903   4.795   1.329   5.172 -0.1482  0.3820  0.0782
 8980TIP3    H126904   4.790   1.338   5.267 -0.6807  2.7939 -0.1173
 8980TIP3    H226905   4.874   1.278   5.157  1.4371  2.1721  1.7768
 8981TIP3   OH226906   5.697   4.109   4.132  0.5964 -0.0736 -0.3823
 8981TIP3    H126907   5.757   4.099   4.058  1.0305  0.2919 -0.0830
 8981TIP3    H226908   5.722   4.192   4.173  0.2753 -0.2075  0.0976
 8982TIP3   OH226909   1.892   0.871   0.914 -0.2401  0.6291 -0.3142
 8982TIP3    H126910   1.841   0.798   0.879  0.7445 -0.3576  0.2597
 8982TIP3    H226911   1.946   0.900   0.840  2.1951 -1.7652  0.3770
 8983TIP3   OH226912   1.727   5.467   2.690 -0.1267  0.1697 -0.1901
 8983TIP3    H126913   1.792   5.397   2.697 -0.5147 -0.0665  1.5754
 8983TIP3    H226914   1.735   5.516   2.772 -2.0342  0.2437  0.0024
 8984TIP3   OH226915   4.496   5.680   5.239  0.0601 -0.3705  0.0088
 8984TIP3    H126916   4.547   5.686   5.319 -0.9129 -0.2555  0.6324
 8984TIP3    H226917   4.456   5.766   5.228 -0.4946 -0.6411 -0.1375
 8985TIP3   OH226918   1.723   2.279   1.631  0.0539  0.4002  0.2637
 8985TIP3    H126919   1.813   2.254   1.610 -0.3871 -1.5559  0.4521
 8985TIP3    H226920   1.732   2.348   1.696  1.4060  1.2283 -0.7376
 8986TIP3   OH226921   1.606   4.962   4.619  0.0058  0.2029  0.3567
 8986TIP3    H126922   1.622   5.056   4.610 -1.7055  0.4412 -0.5451
 8986TIP3    H226923   1.658   4.936   4.695 -0.9504  2.2693  1.8049
 8987TIP3   OH226924   4.377   4.875   4.110  0.8503 -0.3780 -0.2031
 8987TIP3    H126925   4.470   4.893   4.120  1.0434 -0.1283 -2.0024
 8987TIP3    H226926   4.369   4.843   4.020 -1.0936  1.8897 -0.9513
 8988TIP3   OH226927   0.394   5.679   5.799  0.4658  0.4088 -0.3010
 8988TIP3    H126928   0.415   5.587   5.785 -1.0642  0.0336 -0.2698
 8988TIP3    H226929   0.389   5.688   5.894 -0.1514  0.3289 -0.3212
 8989TIP3   OH226930   0.762   3.059   4.922 -0.5530 -0.2174 -0.0672
 8989TIP3    H126931   0.731   3.063   5.013  2.3698 -1.1835  1.0687
 8989TIP3    H226932   0.717   3.132   4.878 -1.7134  0.5486  2.2388
 8990TIP3   OH226933   7.110   3.169   1.149 -0.0008  0.1991 -0.3712
 8990TIP3    H126934   7.080   3.259   1.134 -2.6487 -0.4295  0.6989
 8990TIP3    H226935   7.199   3.180   1.183 -0.1732  2.3957 -0.4454
 8991TIP3   OH226936   3.029   2.153   0.520  0.3734  0.7284  0.2768
 8991TIP3    H126937   2.967   2.100   0.570 -0.3676  0.4383 -0.9022
 8991TIP3    H226938   3.112   2.105   0.525  0.6517  1.3261  2.2059
 8992TIP3   OH226939   3.535   5.369   0.960  0.2051 -0.2398  0.3424
 8992TIP3    H126940   3.483   5.336   1.033 -0.4815 -0.7286 -0.3583
 8992TIP3    H226941   3.508   5.316   0.885  2.2333 -1.0457  0.0950
 8993TIP3   OH226942   5.553   5.654   3.348 -0.1763 -0.1259  0.3221
 8993TIP3    H126943   5.621   5.621   3.407  1.1271  1.4232 -0.2205
 8993TIP3    H226944   5.601   5.677   3.268 -1.7388 -1.1580 -0.9676
 8994TIP3   OH226945   0.498   5.920   3.737  0.4636  0.2434 -0.1625
 8994TIP3    H126946   0.416   5.873   3.755 -0.0050  0.7236 -0.9741
 8994TIP3    H226947   0.559   5.851   3.710  0.4006 -0.1457  0.6596
 8995TIP3   OH226948   6.961   3.565   1.600  0.1221  0.1039  0.1695
 8995TIP3    H126949   6.911   3.645   1.615  1.6536  0.9479  0.9129
 8995TIP3    H226950   6.935   3.537   1.512 -3.3439 -0.7660  1.3200
 8996TIP3   OH226951   6.631   3.829   3.500  0.5230 -0.1464 -0.1278
 8996TIP3    H126952   6.573   3.895   3.462 -1.4840 -1.5407  0.3139
 8996TIP3    H226953   6.635   3.851   3.593 -0.4963 -0.8416  0.0979
 8997TIP3   OH226954   3.623   1.082   4.972 -0.0174 -0.0448  0.0109
 8997TIP3    H126955   3.714   1.056   4.965 -0.2728 -1.1157  0.4464
 8997TIP3    H226956   3.589   1.031   5.045 -1.4347 -1.0821 -1.3081
 8998TIP3   OH226957   4.200   1.998   2.340  0.7805  0.0721  0.3882
 8998TIP3    H126958   4.237   2.086   2.341  1.0296  0.0385 -1.8439
 8998TIP3    H226959   4.115   2.007   2.382  0.8354  1.3536  0.2406
 8999TIP3   OH226960   2.047   4.850   0.202  0.2785 -0.4030  0.5725
 8999TIP3    H126961   2.002   4.888   0.127  2.0731  1.3931  0.3305
 8999TIP3    H226962   2.088   4.770   0.167  0.4711  0.0168 -0.1960
 9000TIP3   OH226963   7.052   0.404   3.218  0.2683 -0.3621  0.6283
 9000TIP3    H126964   7.077   0.405   3.310  0.4724  4.4764  0.8090
 9000TIP3    H226965   7.112   0.466   3.177 -2.3336  0.7137 -1.8656
 9001TIP3   OH226966   1.547   1.027   0.913  0.3261  0.2745  0.0668
 9001TIP3    H126967   1.534   0.967   0.987  1.3461  0.2537  0.2377
 9001TIP3    H226968   1.625   1.077   0.935  0.3305  0.6498 -0.7509
 9002TIP3   OH226969   0.577   2.285   2.480 -0.0819 -0.9120  0.3032
 9002TIP3    H126970   0.531   2.326   2.406  0.1129  1.2143  1.2693
 9002TIP3    H226971   0.515   2.220   2.513 -0.6017 -1.1516 -1.0496
 9003TIP3   OH226972   4.523   6.416   1.638 -0.2643  1.0497 -0.4195
 9003TIP3    H126973   4.484   6.360   1.571 -0.0909  0.1695  0.1910
 9003TIP3    H226974   4.479   6.390   1.719  0.3495  1.2754 -0.0065
 9004TIP3   OH226975   3.359   4.779   5.423  0.1235  0.3844  0.1478
 9004TIP3    H126976   3.319   4.742   5.345 -0.5013  0.5046  0.4109
 9004TIP3    H226977   3.435   4.723   5.440 -0.5901 -0.5517  0.3197
 9005TIP3   OH226978   2.245   0.932   3.096 -0.0181  0.0071 -0.1086
 9005TIP3    H126979   2.193   0.966   3.169  0.6808 -1.7433  1.2575
 9005TIP3    H226980   2.181   0.888   3.039 -0.8420  2.8348 -1.5724
 9006TIP3   OH226981   2.048   5.151   2.227 -0.3964  0.9899 -0.1040
 9006TIP3    H126982   2.000   5.107   2.157 -0.6153  0.4087  0.4000
 9006TIP3    H226983   2.134   5.109   2.227 -0.6512  0.4543  0.4671
 9007TIP3   OH226984   0.129   3.423   1.108  0.2025  0.0673 -0.5964
 9007TIP3    H126985   0.079   3.464   1.179 -0.5391  0.2352 -1.2017
 9007TIP3    H226986   0.148   3.335   1.141  1.0262  0.5737  0.3401
 9008TIP3   OH226987   5.460   1.335   4.889 -0.6019 -0.2898 -0.0550
 9008TIP3    H126988   5.518   1.338   4.813  0.6187 -0.6267  0.8194
 9008TIP3    H226989   5.372   1.339   4.853 -0.0357  0.6954 -1.4159
 9009TIP3   OH226990   7.198   2.825   5.257 -0.0793  0.0679 -0.0863
 9009TIP3    H126991   7.121   2.799   5.206 -2.3419  1.1533  2.5059
 9009TIP3    H226992   7.245   2.886   5.200 -0.7277 -1.1519 -2.0145
 9010TIP3   OH226993   5.974   5.395   4.458  0.3308 -0.4905 -0.2043
 9010TIP3    H126994   5.959   5.489   4.468 -0.3443 -0.7353  1.2635
 9010TIP3    H226995   5.913   5.368   4.389 -0.6289 -0.1184  0.4760
 9011TIP3   OH226996   7.077   2.138   2.239  0.8240 -0.5607 -0.1205
 9011TIP3    H126997   7.064   2.158   2.147 -1.3673 -1.4136 -0.0637
 9011TIP3    H226998   7.084   2.223   2.282  2.0798 -0.1587 -1.0691
 9012TIP3   OH226999   4.289   3.538   4.996  0.1992  0.1427  0.2643
 9012TIP3    H127000   4.223   3.499   5.054  1.5967 -0.1376  1.7256
 9012TIP3    H227001   4.319   3.465   4.942 -0.8586  0.3332 -0.6294
 9013TIP3   OH227002   6.397   6.325   5.439 -0.0754 -1.0353 -0.3031
 9013TIP3    H127003   6.422   6.388   5.371  2.0731 -0.9700  0.4854
 9013TIP3    H227004   6.416   6.239   5.400 -1.2329 -1.1450 -0.6770
 9014TIP3   OH227005   3.919   2.177   4.016 -0.0940 -0.2607 -0.2674
 9014TIP3    H127006   3.848   2.134   3.970 -1.0461  1.4384 -0.4667
 9014TIP3    H227007   3.972   2.105   4.051 -1.3563 -1.5631 -0.9257
 9015TIP3   OH227008   4.112   2.496   3.121  0.6214 -0.2460 -0.6646
 9015TIP3    H127009   4.033   2.531   3.161  0.4964 -1.9159  0.6883
 9015TIP3    H227010   4.151   2.570   3.075 -0.5325  1.1819  0.5539
 9016TIP3   OH227011   4.382   5.264   1.376  0.8939  0.2714 -0.0113
 9016TIP3    H127012   4.294   5.294   1.352  0.7074  1.2459  1.6671
 9016TIP3    H227013   4.376   5.245   1.469  1.9408 -1.7682 -0.3123
 9017TIP3   OH227014   3.535   1.211   5.340  0.3770  0.4269  0.7439
 9017TIP3    H127015   3.484   1.175   5.413 -0.9820  0.0164 -0.3637
 9017TIP3    H227016   3.568   1.294   5.374  1.3650 -0.6020  2.4549
 9018TIP3   OH227017   5.833   6.465   2.108  0.1478  0.0021 -0.1901
 9018TIP3    H127018   5.896   6.428   2.170  0.7393  1.3939  0.0768
 9018TIP3    H227019   5.826   6.400   2.038  0.1279 -1.2042  0.8964
 9019TIP3   OH227020   4.226   0.876   3.528  0.0599 -0.2352  0.7981
 9019TIP3    H127021   4.190   0.944   3.471 -0.3324 -0.6864  0.4958
 9019TIP3    H227022   4.237   0.800   3.471 -0.1865 -0.6420  1.2794
 9020TIP3   OH227023   5.615   3.641   0.508  0.0104  0.0266 -0.3243
 9020TIP3    H127024   5.534   3.671   0.549  1.4179  1.1267  1.7769
 9020TIP3    H227025   5.593   3.634   0.415 -2.2611  1.0593  0.0734
 9021TIP3   OH227026   5.228   6.522   4.861 -0.1819  0.1402  0.5788
 9021TIP3    H127027   5.173   6.494   4.787  0.5130  0.2765 -0.0104
 9021TIP3    H227028   5.250   6.441   4.906 -0.1251 -0.0139  0.2791
 9022TIP3   OH227029   3.177   1.468   1.642  0.5796  0.1473 -0.0354
 9022TIP3    H127030   3.247   1.414   1.678  1.5786  0.4316 -1.4697
 9022TIP3    H227031   3.186   1.460   1.548 -1.1450  0.4577 -0.2707
 9023TIP3   OH227032   3.210   4.886   3.068  0.1954  0.1906  0.0924
 9023TIP3    H127033   3.181   4.850   2.984 -0.2632  0.5694  0.0848
 9023TIP3    H227034   3.161   4.968   3.077 -1.1998 -0.7598  1.6336
 9024TIP3   OH227035   3.462   4.061   3.734 -0.0159 -0.2253  0.4143
 9024TIP3    H127036   3.480   4.141   3.684  0.7268 -0.0851  0.8873
 9024TIP3    H227037   3.402   4.090   3.804 -0.3954 -0.2539  0.1043
 9025TIP3   OH227038   2.499   5.669   3.691 -0.5091 -0.4165  0.0580
 9025TIP3    H127039   2.451   5.693   3.770 -3.5459  3.2396 -2.4957
 9025TIP3    H227040   2.432   5.637   3.631  1.4217 -1.5878 -1.6182
 9026TIP3   OH227041   5.049   3.970   1.963 -0.1161  0.5151 -0.2266
 9026TIP3    H127042   5.021   3.958   1.872 -0.8953  0.3002  0.0310
 9026TIP3    H227043   5.120   4.034   1.958  2.0400 -1.8347 -1.3080
 9027TIP3   OH227044   6.649   1.526   3.575 -0.2597 -0.0429  0.6934
 9027TIP3    H127045   6.595   1.547   3.498 -0.8097  0.2387  1.1456
 9027TIP3    H227046   6.596   1.464   3.624  0.6733 -1.2739  0.1789
 9028TIP3   OH227047   3.261   1.712   2.554  0.0460  0.2514  0.4858
 9028TIP3    H127048   3.246   1.631   2.505 -0.8484  1.1153 -0.7227
 9028TIP3    H227049   3.301   1.683   2.636 -2.3668 -1.6207  1.0958
 9029TIP3   OH227050   5.139   5.084   2.153  0.4028 -0.1285  0.2245
 9029TIP3    H127051   5.118   5.132   2.073 -0.6144 -1.5175 -0.3753
 9029TIP3    H227052   5.081   5.122   2.220  0.0606 -0.0932 -0.0894
 9030TIP3   OH227053   2.581   3.547   1.091 -0.1870 -0.3590 -0.2633
 9030TIP3    H127054   2.636   3.604   1.145 -0.4606  0.3850 -0.7613
 9030TIP3    H227055   2.611   3.458   1.112  2.0427  0.0387 -1.4045
 9031TIP3   OH227056   6.130   5.452   4.117  0.2637  0.3935  0.2222
 9031TIP3    H127057   6.134   5.529   4.173 -1.7792  0.8629 -0.2070
 9031TIP3    H227058   6.200   5.465   4.052  0.4975  1.4384  0.6718
 9032TIP3   OH227059   2.864   2.618   4.448 -0.2221 -0.3709  0.0810
 9032TIP3    H127060   2.786   2.564   4.435 -0.0031 -1.2149  1.9655
 9032TIP3    H227061   2.840   2.679   4.517  0.9716 -1.0855  1.1638
 9033TIP3   OH227062   1.233   1.422   0.091  0.2761 -0.0465 -0.0060
 9033TIP3    H127063   1.192   1.506   0.069  0.2624 -0.1060 -0.2132
 9033TIP3    H227064   1.248   1.380   0.006  0.6099 -0.0996  0.0759
 9034TIP3   OH227065   3.069   3.972   5.609 -0.3638  0.5708 -0.7019
 9034TIP3    H127066   3.095   3.997   5.698 -0.0215 -0.7142 -0.4213
 9034TIP3    H227067   2.974   3.985   5.608 -0.2766  1.3215 -0.4016
 9035TIP3   OH227068   4.897   5.765   4.272  0.0514  0.0502 -0.2600
 9035TIP3    H127069   4.845   5.838   4.305 -0.7600 -0.1209 -1.1015
 9035TIP3    H227070   4.936   5.799   4.191 -0.5763 -0.5137 -0.8220
 9036TIP3   OH227071   6.405   2.361   5.036 -0.4900  0.0806  0.1752
 9036TIP3    H127072   6.438   2.420   4.969 -1.5127  0.6220  0.1331
 9036TIP3    H227073   6.484   2.324   5.076  0.2261  2.0948  0.7554
 9037TIP3   OH227074   3.046   1.033   5.473 -0.0816  1.0186  0.5173
 9037TIP3    H127075   3.032   1.033   5.568 -0.1946  0.0056  0.5181
 9037TIP3    H227076   3.072   0.943   5.453  1.7732  1.6561 -0.1605
 9038TIP3   OH227077   3.027   1.701   1.675 -0.3333  0.0847  0.6714
 9038TIP3    H127078   2.959   1.688   1.609  1.0748  0.4306 -0.9212
 9038TIP3    H227079   3.054   1.613   1.701 -1.1497 -0.0504  1.0970
 9039TIP3   OH227080   1.277   3.121   2.741 -0.5993  0.4713  0.1570
 9039TIP3    H127081   1.323   3.038   2.752 -2.4602 -1.2235 -3.1783
 9039TIP3    H227082   1.336   3.174   2.688 -0.5659  0.1418 -0.1399
 9040TIP3   OH227083   4.808   4.550   3.576 -0.4249  0.0649 -0.0087
 9040TIP3    H127084   4.868   4.505   3.517 -0.0225  1.2060 -0.4903
 9040TIP3    H227085   4.727   4.499   3.571  0.7320 -2.0422  1.3532
 9041TIP3   OH227086   6.617   4.415   3.024  0.2095 -0.0738 -0.3898
 9041TIP3    H127087   6.592   4.489   3.079  4.0420  2.1109 -1.2652
 9041TIP3    H227088   6.652   4.350   3.086  0.7214  0.6509  0.0963
 9042TIP3   OH227089   5.699   0.829   0.624  0.3977  0.0827  0.2055
 9042TIP3    H127090   5.682   0.790   0.709  0.7898  0.7362  0.5959
 9042TIP3    H227091   5.612   0.840   0.585  0.3215 -1.8166 -0.2293
 9043TIP3   OH227092   0.979   6.018   3.872 -0.2126 -0.1448 -0.8693
 9043TIP3    H127093   0.976   6.089   3.936 -2.1194 -0.6146 -0.3893
 9043TIP3    H227094   0.901   6.029   3.818  0.0653 -1.2092 -1.5426
 9044TIP3   OH227095   2.142   1.231   3.930 -0.9331  0.0088  0.0706
 9044TIP3    H127096   2.188   1.175   3.868 -1.6264 -0.7995  0.2703
 9044TIP3    H227097   2.117   1.308   3.878  2.0007  1.2547  0.3323
 9045TIP3   OH227098   4.689   1.010   2.069 -0.4331 -0.1536 -0.1562
 9045TIP3    H127099   4.604   0.979   2.100 -0.5596 -0.1319 -0.4776
 9045TIP3    H227100   4.727   1.053   2.146  0.2185 -2.0131  0.6163
 9046TIP3   OH227101   2.539   1.656   1.804 -0.2621 -0.1156  0.4927
 9046TIP3    H127102   2.532   1.750   1.824  0.9868  0.4682 -1.5002
 9046TIP3    H227103   2.579   1.618   1.883  0.0893  1.1895  0.9775
 9047TIP3   OH227104   5.382   3.901   2.713 -0.0405 -0.0768  0.2143
 9047TIP3    H127105   5.395   3.809   2.689 -1.1289  0.3472 -2.3028
 9047TIP3    H227106   5.450   3.948   2.665  0.3688  0.4833  1.3107
 9048TIP3   OH227107   0.322   2.191   2.593  0.3446  0.4402  0.2358
 9048TIP3    H127108   0.267   2.268   2.578 -0.5980 -0.0296  1.1824
 9048TIP3    H227109   0.327   2.183   2.689  1.0898 -0.2140  0.1540
 9049TIP3   OH227110   1.781   4.220   1.395 -0.3732  0.0892  0.6820
 9049TIP3    H127111   1.873   4.245   1.396 -0.1853 -0.5830  0.5491
 9049TIP3    H227112   1.734   4.299   1.422  0.2325  0.4654  0.6402
 9050TIP3   OH227113   5.958   1.752   1.520  0.5452 -0.2349 -0.4894
 9050TIP3    H127114   6.012   1.831   1.519  0.3200 -0.0460  0.7639
 9050TIP3    H227115   6.019   1.681   1.500  1.3845 -0.0818  1.3917
 9051TIP3   OH227116   2.209   6.442   3.170 -0.1613 -0.2485 -0.1237
 9051TIP3    H127117   2.182   6.384   3.099  1.8823  0.5035 -1.6024
 9051TIP3    H227118   2.199   6.530   3.135  1.1793  0.1294  0.3544
 9052TIP3   OH227119   5.340   0.942   0.032  0.4784 -0.0611 -0.5187
 9052TIP3    H127120   5.366   0.943   0.124  0.4698  1.1511 -0.5073
 9052TIP3    H227121   5.285   0.865   0.023 -1.5412  1.1085  1.0666
 9053TIP3   OH227122   1.970   2.830   5.039  0.6975  0.7757 -0.5396
 9053TIP3    H127123   2.017   2.845   4.958 -0.7639 -1.0876 -1.8162
 9053TIP3    H227124   1.887   2.877   5.028 -1.2029 -2.5265 -1.9384
 9054TIP3   OH227125   4.526   3.964   3.833  0.3765 -0.2510  0.4902
 9054TIP3    H127126   4.579   3.887   3.855  0.6572 -0.2347 -0.1002
 9054TIP3    H227127   4.558   3.991   3.747 -0.2407  0.0721  0.3553
 9055TIP3   OH227128   0.598   6.705   5.319 -0.0621 -0.1191  0.2730
 9055TIP3    H127129   0.635   6.732   5.234  0.9239 -1.0610  0.3760
 9055TIP3    H227130   0.653   6.631   5.346 -0.4519  0.0860  1.6771
 9056TIP3   OH227131   3.724   0.756   2.167  0.2124 -0.0965  0.0324
 9056TIP3    H127132   3.691   0.667   2.152 -1.0987  0.1433  1.2427
 9056TIP3    H227133   3.763   0.752   2.255  0.5056  0.4372 -0.0699
 9057TIP3   OH227134   1.777   0.695   0.470 -0.3110 -0.1547 -0.3664
 9057TIP3    H127135   1.754   0.702   0.562 -0.5175  0.6865 -0.4714
 9057TIP3    H227136   1.693   0.703   0.424 -0.2982 -1.2429 -0.6151
 9058TIP3   OH227137   3.357   4.235   1.810 -0.5501  0.3901 -0.2251
 9058TIP3    H127138   3.308   4.172   1.757 -0.7746  0.2928  0.0996
 9058TIP3    H227139   3.418   4.182   1.861 -0.8310  0.4218  0.1470
 9059TIP3   OH227140   2.580   0.831   4.123 -0.3945  0.5414 -0.3299
 9059TIP3    H127141   2.596   0.923   4.144 -0.0294 -0.0253  2.2048
 9059TIP3    H227142   2.660   0.786   4.150 -1.4295 -0.7814  0.6608
 9060TIP3   OH227143   5.371   1.550   5.339  0.2404  0.3638  0.2340
 9060TIP3    H127144   5.421   1.610   5.283 -0.3612  0.1841 -0.5178
 9060TIP3    H227145   5.327   1.606   5.402 -0.1255  0.6988 -0.3125
 9061TIP3   OH227146   0.159   6.556   4.615  0.0042 -0.0151 -0.0099
 9061TIP3    H127147   0.202   6.471   4.606 -1.5001 -0.8300  0.1616
 9061TIP3    H227148   0.223   6.610   4.661  0.9799 -1.0607 -0.0915
 9062TIP3   OH227149   7.200   3.645   5.693 -0.2334  0.1129 -0.0014
 9062TIP3    H127150   7.138   3.606   5.631 -0.7277 -0.3244  0.7499
 9062TIP3    H227151   7.153   3.646   5.777  0.7361 -0.1335  0.5628
 9063TIP3   OH227152   5.835   1.658   1.739  0.4023  0.3552 -0.4447
 9063TIP3    H127153   5.832   1.731   1.677  0.1926  1.2782  0.6192
 9063TIP3    H227154   5.925   1.659   1.773  0.0852  0.8999  0.4386
 9064TIP3   OH227155   5.280   5.745   2.030 -0.6899  0.0022 -0.2015
 9064TIP3    H127156   5.222   5.807   1.986 -1.9594 -1.4141 -0.6218
 9064TIP3    H227157   5.223   5.671   2.053  1.0079 -1.6333 -0.9499
 9065TIP3   OH227158   7.059   2.950   0.934  0.5222  0.2810 -0.2321
 9065TIP3    H127159   7.082   3.016   1.000 -1.4434 -0.1306  0.9344
 9065TIP3    H227160   7.076   2.866   0.976  1.4333 -0.0064 -1.1211
 9066TIP3   OH227161   4.860   4.389   2.827  0.3147  0.1670  0.3113
 9066TIP3    H127162   4.834   4.298   2.811 -0.0102  0.0753  1.3249
 9066TIP3    H227163   4.946   4.383   2.868  1.2466  0.4156 -1.4937
 9067TIP3   OH227164   2.944   1.270   3.340 -0.0176 -0.0404  0.0220
 9067TIP3    H127165   3.008   1.199   3.347  0.3904  0.3602  0.3843
 9067TIP3    H227166   2.886   1.242   3.269  0.6029 -0.3708 -0.3656
 9068TIP3   OH227167   6.273   4.784   1.528  0.1198  0.5343  0.4082
 9068TIP3    H127168   6.358   4.819   1.553  0.7243 -2.6176  3.5962
 9068TIP3    H227169   6.213   4.818   1.595 -0.0598 -1.0382  1.1024
 9069TIP3   OH227170   5.193   3.860   3.521 -0.0493  0.5403  0.0308
 9069TIP3    H127171   5.220   3.885   3.433 -0.7094  0.2584 -0.2531
 9069TIP3    H227172   5.179   3.943   3.566 -1.5480  0.7152 -0.7028
 9070TIP3   OH227173   0.404   0.648   3.380 -0.4386 -0.2273  0.0985
 9070TIP3    H127174   0.477   0.650   3.442 -0.0287 -2.0159 -0.2687
 9070TIP3    H227175   0.335   0.601   3.426 -0.3083 -1.1303 -0.6048
 9071TIP3   OH227176   6.786   6.777   2.053 -0.3733  0.3239 -0.0918
 9071TIP3    H127177   6.795   6.682   2.054  0.6035  0.3867 -0.9576
 9071TIP3    H227178   6.867   6.808   2.012 -1.2369  1.4590 -1.0038
 9072TIP3   OH227179   4.624   1.413   0.547  0.3989  0.1286 -0.4807
 9072TIP3    H127180   4.583   1.370   0.472  2.3306 -0.4997 -1.2372
 9072TIP3    H227181   4.632   1.345   0.613 -0.4099  0.4368 -0.0530
 9073TIP3   OH227182   4.861   5.848   3.207  0.0429 -0.2420  0.0129
 9073TIP3    H127183   4.915   5.875   3.132 -1.5702 -0.8790 -1.4446
 9073TIP3    H227184   4.913   5.780   3.250  1.4132  0.7868  0.0623
 9074TIP3   OH227185   0.683   2.620   3.957 -0.0472  0.0530 -1.0115
 9074TIP3    H127186   0.659   2.553   4.021  0.0832  0.7176 -0.2562
 9074TIP3    H227187   0.621   2.607   3.885 -0.4819 -0.4201 -0.5634
 9075TIP3   OH227188   0.248   2.365   4.853  0.3265 -0.6456  0.7543
 9075TIP3    H127189   0.344   2.368   4.856  0.3447 -0.8817  0.4757
 9075TIP3    H227190   0.222   2.454   4.830  0.5028 -0.7026  0.3239
 9076TIP3   OH227191   5.250   2.035   4.370 -0.4034 -0.1101 -0.4312
 9076TIP3    H127192   5.307   2.107   4.398 -0.8821  0.2956 -0.4800
 9076TIP3    H227193   5.273   1.962   4.426  0.8915 -0.2666 -1.1287
 9077TIP3   OH227194   2.025   1.130   0.641 -0.0801 -0.7699 -0.4262
 9077TIP3    H127195   1.937   1.092   0.649 -0.4375  0.2178  0.6477
 9077TIP3    H227196   2.084   1.057   0.659 -0.7589 -0.6538  2.9096
 9078TIP3   OH227197   2.639   2.043   3.092  0.1108  0.0582  0.1587
 9078TIP3    H127198   2.720   1.993   3.102 -0.7290 -1.1920  1.0782
 9078TIP3    H227199   2.598   2.038   3.178 -1.5204 -0.3793 -0.6118
 9079TIP3   OH227200   0.216   2.458   1.994  0.0265 -0.4442  0.3775
 9079TIP3    H127201   0.308   2.482   1.985  0.0981 -0.7138  0.3964
 9079TIP3    H227202   0.213   2.364   1.976  0.1775 -1.0557  3.1003
 9080TIP3   OH227203   1.331   4.714   4.893 -0.5178  0.2731  0.3881
 9080TIP3    H127204   1.298   4.627   4.872 -0.2732 -0.2257  1.9373
 9080TIP3    H227205   1.351   4.754   4.809  0.5954 -1.6512 -0.3094
 9081TIP3   OH227206   1.778   6.362   4.866  1.2013 -0.0311 -0.3537
 9081TIP3    H127207   1.844   6.417   4.908  1.4085 -0.3733 -0.2290
 9081TIP3    H227208   1.705   6.421   4.848  0.8949  0.0285  0.9611
 9082TIP3   OH227209   1.901   4.096   5.076 -0.3005  0.1964 -0.5866
 9082TIP3    H127210   1.886   4.042   4.998  1.5821 -1.4970  0.1339
 9082TIP3    H227211   1.861   4.046   5.147 -0.2273  0.7167 -0.1757
 9083TIP3   OH227212   6.271   6.728   0.417 -0.4565 -0.0419  0.4328
 9083TIP3    H127213   6.275   6.772   0.502 -0.2564  0.7187  0.0318
 9083TIP3    H227214   6.240   6.639   0.438 -0.1087  0.0382  1.3330
 9084TIP3   OH227215   6.381   6.508   2.592  0.6651 -0.3154  0.1899
 9084TIP3    H127216   6.474   6.489   2.597  1.4938  2.9085 -0.6933
 9084TIP3    H227217   6.348   6.454   2.520  2.1871 -0.4134 -0.4550
 9085TIP3   OH227218   0.109   2.748   2.836  1.2073 -0.2313 -0.3200
 9085TIP3    H127219   0.112   2.653   2.828  0.3215 -0.2484 -0.6192
 9085TIP3    H227220   0.137   2.780   2.750  0.9774 -0.2347 -0.3969
 9086TIP3   OH227221   6.906   5.694   3.474 -0.0281  0.5774 -0.3075
 9086TIP3    H127222   6.920   5.788   3.483 -0.0440  0.5925 -0.4419
 9086TIP3    H227223   6.993   5.657   3.465  0.1843  0.3334  1.9860
 9087TIP3   OH227224   1.495   1.586   2.807 -0.2974 -0.3021 -0.5765
 9087TIP3    H127225   1.579   1.551   2.779  0.4023 -0.6406  1.7478
 9087TIP3    H227226   1.505   1.681   2.803  0.3086 -0.3421  0.0167
 9088TIP3   OH227227   7.132   0.791   2.591 -0.0206 -0.1330 -0.2895
 9088TIP3    H127228   7.212   0.742   2.572 -0.8964 -1.3831 -0.9345
 9088TIP3    H227229   7.157   0.883   2.582  0.6674 -0.5083 -3.4389
 9089TIP3   OH227230   6.797   1.696   2.053 -0.6152 -0.5609  0.2195
 9089TIP3    H127231   6.845   1.775   2.078  2.1028 -1.4304 -1.7375
 9089TIP3    H227232   6.739   1.724   1.982  0.2993 -0.2452 -0.4323
 9090TIP3   OH227233   2.394   2.943   5.033 -0.4175 -0.4257 -0.0524
 9090TIP3    H127234   2.389   2.960   4.939  0.0395 -0.7865 -0.1411
 9090TIP3    H227235   2.442   2.861   5.041 -0.5042 -0.4289  0.4953
 9091TIP3   OH227236   5.449   5.969   2.100 -0.5969  0.3476 -0.1782
 9091TIP3    H127237   5.401   5.886   2.092 -0.9891 -0.0512  4.1462
 9091TIP3    H227238   5.383   6.037   2.087 -0.5912  0.0607 -2.0998
 9092TIP3   OH227239   4.783   0.903   1.240 -0.1913  0.1210 -0.1590
 9092TIP3    H127240   4.830   0.932   1.161 -1.5838  1.1893 -0.6441
 9092TIP3    H227241   4.729   0.978   1.264  0.4131 -0.0935  2.0143
 9093TIP3   OH227242   0.860   3.225   2.386 -0.5855 -0.3622  0.0828
 9093TIP3    H127243   0.873   3.277   2.465  1.6743 -1.3865  0.4508
 9093TIP3    H227244   0.841   3.137   2.418 -0.5915 -0.5919 -0.5359
 9094TIP3   OH227245   2.170   4.123   0.741 -0.5352 -0.3077  0.2522
 9094TIP3    H127246   2.101   4.153   0.682 -0.9343  0.3497  1.0288
 9094TIP3    H227247   2.228   4.199   0.751  0.7532 -1.0730 -0.9833
 9095TIP3   OH227248   5.067   2.042   5.756  0.4339 -0.7029 -0.5412
 9095TIP3    H127249   5.089   2.101   5.684  0.7298  0.1763  0.2410
 9095TIP3    H227250   4.989   2.081   5.796  2.5646  1.2140  2.1223
 9096TIP3   OH227251   1.385   2.488   4.678  0.0122  0.5723 -0.1004
 9096TIP3    H127252   1.397   2.548   4.605  0.2462  0.6343 -0.0127
 9096TIP3    H227253   1.378   2.545   4.755  0.1373  0.4904 -0.0293
 9097TIP3   OH227254   0.062   4.967   0.289  0.4147  0.7928  0.3997
 9097TIP3    H127255   0.107   4.903   0.233 -4.1211 -2.9373  0.3588
 9097TIP3    H227256   0.084   4.941   0.378  0.2270  0.5439  0.3739
 9098TIP3   OH227257   3.329   5.930   4.402 -0.2077  1.1166  0.5668
 9098TIP3    H127258   3.254   5.978   4.439  0.5621  2.6812  0.1742
 9098TIP3    H227259   3.406   5.973   4.440  0.5102 -0.5875  1.1056
 9099TIP3   OH227260   4.504   0.040   2.740  0.3131  0.4091  0.1966
 9099TIP3    H127261   4.408   0.043   2.742  0.2794 -0.5491  1.5966
 9099TIP3    H227262   4.528   0.100   2.670 -1.3029  0.7900 -0.0829
 9100TIP3   OH227263   2.586   0.263   0.617  0.3049  0.1888  0.3157
 9100TIP3    H127264   2.546   0.344   0.648 -0.5402 -0.5788  1.3306
 9100TIP3    H227265   2.609   0.215   0.697  0.8749 -0.5329 -0.2580
 9101TIP3   OH227266   4.842   4.065   0.239 -0.4671 -0.2019 -0.6479
 9101TIP3    H127267   4.870   4.009   0.167 -0.5651 -0.6304 -0.3535
 9101TIP3    H227268   4.894   4.145   0.229 -0.5786 -0.2054 -1.2705
 9102TIP3   OH227269   6.950   2.852   0.176 -0.3831 -0.1374 -0.5085
 9102TIP3    H127270   6.970   2.796   0.100  1.2208 -0.3248  0.0153
 9102TIP3    H227271   6.883   2.913   0.144 -0.6017 -0.9800 -1.7191
 9103TIP3   OH227272   4.663   2.798   1.187  0.2093 -0.5103  0.7180
 9103TIP3    H127273   4.630   2.852   1.259  0.1550 -0.2483  0.5009
 9103TIP3    H227274   4.665   2.858   1.112 -1.8114 -1.3390 -0.0427
 9104TIP3   OH227275   2.641   5.517   2.777 -0.3846 -0.5368  0.2613
 9104TIP3    H127276   2.658   5.429   2.811 -0.1909 -1.0739 -1.1493
 9104TIP3    H227277   2.721   5.540   2.730 -0.2840  0.5718  0.9475
 9105TIP3   OH227278   5.888   2.545   5.537 -0.0349 -0.2821 -0.2507
 9105TIP3    H127279   5.972   2.511   5.507 -0.3310 -0.6307 -0.7031
 9105TIP3    H227280   5.867   2.492   5.614 -1.0289 -1.9563 -1.5923
 9106TIP3   OH227281   1.705   2.695   3.090  0.1579  0.0131 -0.4305
 9106TIP3    H127282   1.643   2.724   3.022  1.5480  0.0255 -1.7572
 9106TIP3    H227283   1.695   2.600   3.092 -2.7436  0.2161  2.2797
 9107TIP3   OH227284   5.859   5.788   1.081 -0.0260 -0.2365  0.0621
 9107TIP3    H127285   5.837   5.797   0.989  0.3313  0.2588  0.0237
 9107TIP3    H227286   5.794   5.727   1.115  0.1620 -0.8364 -0.6302
 9108TIP3   OH227287   2.861   3.012   1.249  0.4694  0.2738  0.3901
 9108TIP3    H127288   2.842   3.059   1.169 -0.3253 -1.0828 -0.2515
 9108TIP3    H227289   2.790   2.949   1.258  1.8221 -1.2771  0.8140
 9109TIP3   OH227290   1.654   1.711   1.573  0.2553 -0.5000  0.5264
 9109TIP3    H127291   1.582   1.723   1.511  0.5575  1.5158  0.4714
 9109TIP3    H227292   1.732   1.737   1.524  0.7504 -0.7264  1.1814
 9110TIP3   OH227293   0.487   1.074   4.894 -0.0056  0.5194  0.5296
 9110TIP3    H127294   0.576   1.084   4.859  0.0916 -0.9773  0.2740
 9110TIP3    H227295   0.500   1.042   4.983 -0.2924  0.5483  0.5824
 9111TIP3   OH227296   2.706   3.758   4.326  0.5357 -0.4304 -0.4911
 9111TIP3    H127297   2.657   3.678   4.347  0.2245 -0.2834 -0.6481
 9111TIP3    H227298   2.641   3.828   4.334  0.8264 -0.1829 -0.2729
 9112TIP3   OH227299   1.342   0.151   5.121 -0.5585 -0.1447  0.0087
 9112TIP3    H127300   1.295   0.200   5.188  0.8545  0.4109  0.6191
 9112TIP3    H227301   1.429   0.190   5.118 -0.1321 -1.1078 -1.1299
 9113TIP3   OH227302   0.113   6.138   4.064 -0.1224  0.5433 -0.2929
 9113TIP3    H127303   0.128   6.221   4.110 -1.2323  0.6635 -0.1244
 9113TIP3    H227304   0.129   6.159   3.972 -0.6134  0.9979 -0.2761
 9114TIP3   OH227305   2.529   3.569   5.389  0.4326 -0.2602  0.0231
 9114TIP3    H127306   2.490   3.529   5.467  0.2950 -0.6902 -0.2594
 9114TIP3    H227307   2.480   3.650   5.376  0.9095  0.1644  0.7761
 9115TIP3   OH227308   6.104   3.347   4.576  0.1173  0.4994  0.4368
 9115TIP3    H127309   6.032   3.405   4.599 -1.1395 -0.3712 -1.1132
 9115TIP3    H227310   6.080   3.262   4.611 -0.3564 -0.1272 -1.2834
 9116TIP3   OH227311   2.903   4.530   4.832  0.2357 -0.8728  0.5102
 9116TIP3    H127312   2.890   4.570   4.918  1.2447  2.2804 -0.6675
 9116TIP3    H227313   2.815   4.507   4.804 -0.5807  1.4288  0.9470
 9117TIP3   OH227314   5.245   1.641   5.561 -0.3596  0.2865 -0.7405
 9117TIP3    H127315   5.183   1.682   5.621 -0.0638  1.0271 -0.9187
 9117TIP3    H227316   5.297   1.582   5.616  0.1413  1.2224 -0.1810
 9118TIP3   OH227317   6.737   2.486   1.849  0.4275  0.2039  0.1829
 9118TIP3    H127318   6.665   2.543   1.822 -0.1970 -1.2373 -1.3773
 9118TIP3    H227319   6.814   2.542   1.846 -0.4909  1.5817  1.1277
 9119TIP3   OH227320   5.513   3.513   5.791  0.0845 -0.4579  0.7960
 9119TIP3    H127321   5.603   3.526   5.820  0.9052 -2.2428 -0.8126
 9119TIP3    H227322   5.486   3.599   5.759  1.2810  0.0318  1.0545
 9120TIP3   OH227323   1.922   3.496   2.857 -0.0905 -0.1326  0.0122
 9120TIP3    H127324   1.933   3.415   2.807 -0.7116  0.4935 -1.1821
 9120TIP3    H227325   2.002   3.546   2.841 -0.3205  0.0989 -0.4195
 9121TIP3   OH227326   0.179   2.383   1.260 -1.0943  0.5090  0.6248
 9121TIP3    H127327   0.128   2.321   1.208 -1.4230  0.1779  1.3167
 9121TIP3    H227328   0.238   2.327   1.311  0.0971  0.8999 -0.2996
 9122TIP3   OH227329   3.336   2.328   4.797 -0.2189  0.2946 -0.3933
 9122TIP3    H127330   3.303   2.345   4.885 -1.0910 -1.3660 -0.3568
 9122TIP3    H227331   3.272   2.368   4.739 -0.1957  0.4962 -0.2806
 9123TIP3   OH227332   6.027   0.614   0.966 -0.2874 -0.4150 -0.0559
 9123TIP3    H127333   5.967   0.588   1.036  3.1907 -2.3700  2.5485
 9123TIP3    H227334   6.050   0.705   0.986 -1.6358  0.0482 -0.5534
 9124TIP3   OH227335   7.235   5.375   2.571  0.2762 -0.1658 -0.9208
 9124TIP3    H127336   7.247   5.280   2.581 -0.8593 -0.2273  0.1352
 9124TIP3    H227337   7.143   5.384   2.545  0.6824  0.5992 -2.1401
 9125TIP3   OH227338   3.070   5.025   0.667  0.3231  0.6393  0.0289
 9125TIP3    H127339   3.154   4.982   0.650  0.2116  0.5808 -0.3870
 9125TIP3    H227340   3.094   5.108   0.709  0.9606  2.8939 -4.1863
 9126TIP3   OH227341   5.698   4.871   3.993 -0.0423  0.1911  0.7688
 9126TIP3    H127342   5.690   4.778   4.013  0.8804 -0.3081 -1.0042
 9126TIP3    H227343   5.609   4.904   3.996 -0.8848 -1.5073 -1.8832
 9127TIP3   OH227344   0.347   5.960   5.095  0.0077 -0.9192  0.2984
 9127TIP3    H127345   0.421   6.021   5.103  0.6626 -1.1461 -2.7513
 9127TIP3    H227346   0.388   5.874   5.084 -0.8649 -1.5978  1.9493
 9128TIP3   OH227347   0.717   4.439   3.681 -0.4234  0.1460 -0.1550
 9128TIP3    H127348   0.721   4.407   3.771  2.4051 -2.1560 -0.9657
 9128TIP3    H227349   0.648   4.387   3.640  1.7784 -2.7001 -0.5391
 9129TIP3   OH227350   5.506   1.951   2.494  0.3798  0.4898 -0.6417
 9129TIP3    H127351   5.559   1.873   2.505 -0.4441  0.0464  0.3238
 9129TIP3    H227352   5.526   2.005   2.571 -1.2662 -0.1271  0.2723
 9130TIP3   OH227353   1.059   5.883   2.499  0.4483  0.3517 -0.5794
 9130TIP3    H127354   1.059   5.964   2.448  0.8908  1.9780  1.8581
 9130TIP3    H227355   1.026   5.909   2.585  1.2489 -1.9313  0.4831
 9131TIP3   OH227356   6.765   6.079   5.221 -0.5316 -0.4099  0.2577
 9131TIP3    H127357   6.856   6.096   5.197 -0.4562 -2.0890 -0.7818
 9131TIP3    H227358   6.754   5.985   5.210 -2.5948 -0.1528 -0.3360
 9132TIP3   OH227359   4.027   5.724   4.105 -0.5398  0.0448  0.6354
 9132TIP3    H127360   4.054   5.644   4.150  1.7889 -0.2410 -1.0800
 9132TIP3    H227361   3.938   5.740   4.135 -0.9733 -3.0175  1.2593
 9133TIP3   OH227362   5.707   0.578   4.373  0.0419  0.3128 -0.0500
 9133TIP3    H127363   5.636   0.565   4.436  0.8698 -0.1307  0.8371
 9133TIP3    H227364   5.743   0.490   4.359  0.4104  0.5258 -0.4792
 9134TIP3   OH227365   6.166   1.834   3.524  0.3558  0.4766 -0.3362
 9134TIP3    H127366   6.113   1.765   3.483  0.4258  1.2089 -1.7413
 9134TIP3    H227367   6.253   1.796   3.533  0.2015  0.1143 -0.3490
 9135TIP3   OH227368   5.285   0.451   0.536 -0.4080  0.3964 -0.0760
 9135TIP3    H127369   5.254   0.520   0.477  1.7438  0.7805 -0.8389
 9135TIP3    H227370   5.296   0.375   0.480  0.2414  0.3433  0.1235
 9136TIP3   OH227371   6.713   5.474   2.212  0.0741  0.2912  0.4092
 9136TIP3    H127372   6.718   5.447   2.304  2.0797 -0.4482  0.1414
 9136TIP3    H227373   6.782   5.539   2.202  0.0719  0.1555 -0.6204
 9137TIP3   OH227374   5.015   2.317   4.635 -0.2247 -0.2731 -0.5034
 9137TIP3    H127375   5.009   2.229   4.598  3.0692 -1.4007  1.2117
 9137TIP3    H227376   4.960   2.315   4.713 -0.3013 -0.7301 -0.5695
 9138TIP3   OH227377   5.781   4.314   4.298 -0.0546 -0.0324 -0.6728
 9138TIP3    H127378   5.744   4.398   4.323  1.1073 -0.0198  1.2100
 9138TIP3    H227379   5.784   4.263   4.380  0.9360 -1.2213 -1.4041
 9139TIP3   OH227380   5.391   4.295   2.858 -0.3844 -0.4174  0.1657
 9139TIP3    H127381   5.387   4.390   2.845 -0.3811 -0.5894 -1.1654
 9139TIP3    H227382   5.300   4.268   2.866 -0.5223 -0.5606 -1.5649
 9140TIP3   OH227383   3.578   3.498   3.200  0.0559  0.2964 -0.1343
 9140TIP3    H127384   3.521   3.461   3.132  1.3842 -2.5696  0.1375
 9140TIP3    H227385   3.623   3.570   3.157 -1.0258  0.2025 -1.4905
 9141TIP3   OH227386   5.602   4.545   0.905  0.1501  0.1354  0.3931
 9141TIP3    H127387   5.518   4.580   0.875 -0.1952  0.1211  1.3051
 9141TIP3    H227388   5.634   4.495   0.830 -1.2613 -0.9112  0.4387
 9142TIP3   OH227389   2.630   0.628   4.581 -0.0720  0.5895 -0.1692
 9142TIP3    H127390   2.717   0.606   4.549  0.2911  0.8090  0.6495
 9142TIP3    H227391   2.607   0.708   4.534  1.5334  2.3914  1.8762
 9143TIP3   OH227392   6.762   2.326   3.497 -0.2202  0.2638  0.1808
 9143TIP3    H127393   6.845   2.309   3.542  0.5641 -1.1655 -1.6453
 9143TIP3    H227394   6.765   2.419   3.476  1.9235 -0.0939 -1.5445
 9144TIP3   OH227395   6.754   1.088   2.743  0.2151  0.0199  0.1389
 9144TIP3    H127396   6.752   1.077   2.648  0.2322 -0.7990  0.2259
 9144TIP3    H227397   6.733   1.181   2.757  1.7466  0.5382 -0.7320
 9145TIP3   OH227398   5.336   1.258   2.858  0.2687 -0.2865 -0.0464
 9145TIP3    H127399   5.246   1.224   2.857  0.0548  0.2746 -0.0851
 9145TIP3    H227400   5.378   1.215   2.784 -0.3304  0.3952 -0.8062
 9146TIP3   OH227401   4.442   4.435   5.295  0.4647  0.1898 -0.3132
 9146TIP3    H127402   4.357   4.477   5.307 -0.1832 -0.8891 -0.8411
 9146TIP3    H227403   4.424   4.366   5.231  1.1207 -1.8328  1.5676
 9147TIP3   OH227404   2.509   1.569   2.171  0.6404 -0.3024 -0.1201
 9147TIP3    H127405   2.427   1.520   2.171  0.3556  0.1557 -1.5337
 9147TIP3    H227406   2.483   1.660   2.182  0.8378 -0.0047 -1.9248
 9148TIP3   OH227407   3.425   1.660   1.478  0.5033 -0.1528  0.2922
 9148TIP3    H127408   3.353   1.635   1.420  1.1722 -0.3078 -0.4863
 9148TIP3    H227409   3.383   1.712   1.547 -0.3168  0.0059 -0.3086
 9149TIP3   OH227410   4.157   5.301   4.989  0.4128 -0.1626 -0.2205
 9149TIP3    H127411   4.116   5.217   4.971  0.9918 -0.4395 -0.2718
 9149TIP3    H227412   4.232   5.280   5.045 -0.0103  0.4316  0.5958
 9150TIP3   OH227413   2.453   1.476   0.114 -0.5821  0.6046  0.7421
 9150TIP3    H127414   2.534   1.476   0.063 -1.0656  0.8020 -0.0491
 9150TIP3    H227415   2.461   1.551   0.173  0.3876 -0.1686  1.6355
 9151TIP3   OH227416   0.286   2.032   5.200 -0.1091  0.5874 -0.2196
 9151TIP3    H127417   0.287   2.003   5.109  2.0196  1.4283 -0.5262
 9151TIP3    H227418   0.194   2.033   5.224 -0.7566  0.7578 -2.4992
 9152TIP3   OH227419   2.326   2.789   5.835  0.3140 -0.5498  0.1345
 9152TIP3    H127420   2.269   2.793   5.911  0.5828  1.2837  0.2725
 9152TIP3    H227421   2.286   2.849   5.772  1.1476 -0.5668 -0.4266
 9153TIP3   OH227422   6.314   2.315   3.330 -0.2088  0.6121  0.0429
 9153TIP3    H127423   6.393   2.275   3.295  1.0675  1.7281  1.4940
 9153TIP3    H227424   6.282   2.253   3.396  0.1800  0.7262  0.3396
 9154TIP3   OH227425   2.607   6.193   2.631 -0.3618  0.0597 -0.4034
 9154TIP3    H127426   2.550   6.242   2.691 -1.1832 -0.4856 -0.7126
 9154TIP3    H227427   2.605   6.243   2.549 -0.6947 -0.1479 -0.5249
 9155TIP3   OH227428   4.869   6.257   3.874 -0.0780 -0.0392  0.1975
 9155TIP3    H127429   4.894   6.243   3.782  1.1890  2.6878  0.0398
 9155TIP3    H227430   4.822   6.340   3.874  0.2116  0.1703  2.0771
 9156TIP3   OH227431   5.345   4.985   3.628  0.1292 -0.1112 -0.0729
 9156TIP3    H127432   5.394   5.024   3.557  1.3505 -0.1383  0.7302
 9156TIP3    H227433   5.363   5.042   3.704 -2.1333  0.6568 -0.0191
 9157TIP3   OH227434   2.430   6.339   2.862  0.4609  0.8332 -0.0091
 9157TIP3    H127435   2.384   6.377   2.787  1.0427  0.2215 -0.6825
 9157TIP3    H227436   2.383   6.258   2.880 -0.5183  1.6172  1.1648
 9158TIP3   OH227437   5.577   4.683   0.332  0.7255  0.6341  0.1086
 9158TIP3    H127438   5.494   4.657   0.291  1.2391 -1.0043  0.0201
 9158TIP3    H227439   5.598   4.768   0.293 -0.5074  0.6983 -0.4591
 9159TIP3   OH227440   1.655   2.912   3.739 -0.0790 -0.4265 -0.3565
 9159TIP3    H127441   1.673   2.884   3.649  0.0073  0.6458 -0.6953
 9159TIP3    H227442   1.560   2.918   3.744 -0.1129 -1.0909 -0.1795
 9160TIP3   OH227443   2.178   4.669   1.150 -0.0515 -0.2213 -0.0682
 9160TIP3    H127444   2.261   4.648   1.193 -0.0627  0.4901  0.3052
 9160TIP3    H227445   2.111   4.627   1.204 -0.0169  0.1378  0.2572
 9161TIP3   OH227446   6.507   1.907   4.880 -0.2023 -0.1859  0.6810
 9161TIP3    H127447   6.576   1.974   4.877 -1.1209  0.7445 -0.9039
 9161TIP3    H227448   6.476   1.909   4.971  2.2984 -1.1529  1.6399
 9162TIP3   OH227449   2.034   5.506   5.339 -0.2705 -0.0352 -0.2063
 9162TIP3    H127450   2.042   5.589   5.292  0.9037 -0.2119 -0.3397
 9162TIP3    H227451   1.939   5.491   5.346 -0.7562  3.2212  3.2005
 9163TIP3   OH227452   0.617   1.899   2.717 -0.0779  0.4613  0.2524
 9163TIP3    H127453   0.549   1.855   2.768  0.7883 -0.6689  0.4731
 9163TIP3    H227454   0.657   1.960   2.779 -0.2144  0.3876  0.4131
 9164TIP3   OH227455   3.936   6.162   1.455  0.1179 -0.4901 -0.5907
 9164TIP3    H127456   3.910   6.197   1.370 -0.2345 -0.5793 -0.5250
 9164TIP3    H227457   3.946   6.239   1.511  1.9927 -0.3055 -1.1330
 9165TIP3   OH227458   5.421   1.122   2.636  0.1270  0.1124  0.2406
 9165TIP3    H127459   5.335   1.104   2.600 -0.3721  2.3839  0.1787
 9165TIP3    H227460   5.479   1.131   2.560  0.1849 -0.2807  0.2367
 9166TIP3   OH227461   0.359   4.867   4.162  0.2331  0.4242 -0.2141
 9166TIP3    H127462   0.413   4.921   4.220  0.7067  1.1208 -1.2690
 9166TIP3    H227463   0.279   4.851   4.212  1.2387 -0.3102  1.2322
 9167TIP3   OH227464   0.089   1.639   5.499  0.3043 -0.3783 -0.4674
 9167TIP3    H127465  -0.004   1.620   5.508 -0.1424  1.3418 -1.0183
 9167TIP3    H227466   0.113   1.683   5.581  0.8804 -1.6208  0.0572
 9168TIP3   OH227467   6.258   2.792   3.147  0.5681  0.1683  0.3277
 9168TIP3    H127468   6.336   2.757   3.190  0.2372 -1.0175  0.0283
 9168TIP3    H227469   6.286   2.876   3.111  1.4205  0.2215  1.0809
 9169TIP3   OH227470   2.665   6.793   2.447  0.3453  0.2856  0.1507
 9169TIP3    H127471   2.673   6.839   2.530 -0.9257  3.0000 -1.1089
 9169TIP3    H227472   2.636   6.705   2.471  1.3026  0.5750  2.6070
 9170TIP3   OH227473   2.125   5.228   2.941  0.5098  0.0786  0.4585
 9170TIP3    H127474   2.120   5.134   2.960  0.2156  0.0730  0.3503
 9170TIP3    H227475   2.171   5.233   2.857 -2.7830 -0.1991 -1.5205
 9171TIP3   OH227476   6.087   0.081   2.237 -0.1636 -0.0882  0.1203
 9171TIP3    H127477   6.022   0.145   2.208  0.6101  0.5375 -0.2683
 9171TIP3    H227478   6.127   0.048   2.156 -0.1418 -0.6262  0.3449
 9172TIP3   OH227479   1.807   6.207   2.197  0.3629  0.2151 -0.3182
 9172TIP3    H127480   1.728   6.227   2.148  0.1181  1.8600  0.6630
 9172TIP3    H227481   1.775   6.167   2.279  0.5570  0.5290 -0.0855
 9173TIP3   OH227482   0.212   0.261   3.216  0.2448  0.0667 -0.0582
 9173TIP3    H127483   0.148   0.189   3.209  0.5115 -0.1170 -0.7707
 9173TIP3    H227484   0.216   0.297   3.127  0.5309  0.6008  0.1697
 9174TIP3   OH227485   5.481   3.654   4.767  0.3575  0.2457  0.0487
 9174TIP3    H127486   5.414   3.617   4.825  0.0047  2.4145  1.1136
 9174TIP3    H227487   5.564   3.628   4.807  0.1260  0.3329  0.5984
 9175TIP3   OH227488   2.135   5.027   4.476  0.3953  0.0037  0.1043
 9175TIP3    H127489   2.116   4.940   4.442  2.1237 -0.4028  0.1043
 9175TIP3    H227490   2.053   5.076   4.464 -0.0596 -1.0865 -1.5404
 9176TIP3   OH227491   0.156   6.527   0.798  0.1576 -0.2910 -0.5839
 9176TIP3    H127492   0.127   6.601   0.850 -1.9851 -1.5812  0.1905
 9176TIP3    H227493   0.143   6.554   0.707 -1.6489 -0.0825 -0.2869
 9177TIP3   OH227494   6.773   3.275   1.958 -0.2546  0.2832 -0.4231
 9177TIP3    H127495   6.825   3.315   1.888  0.5325  1.0293  0.5638
 9177TIP3    H227496   6.781   3.181   1.944  0.2458  0.4177 -1.0802
 9178TIP3   OH227497   0.594   5.611   4.583 -0.0087 -0.1617 -0.2305
 9178TIP3    H127498   0.536   5.543   4.618  0.3088 -1.0257 -1.3549
 9178TIP3    H227499   0.555   5.693   4.615 -0.0972 -0.8565  1.5798
 9179TIP3   OH227500   1.396   1.673   1.160  0.4643 -0.0765 -0.0742
 9179TIP3    H127501   1.319   1.726   1.140  0.8795  1.0529  1.2057
 9179TIP3    H227502   1.371   1.584   1.135 -1.5710  0.1160  1.0652
 9180TIP3   OH227503   6.426   4.254   5.653 -0.2338  0.4614  0.3445
 9180TIP3    H127504   6.491   4.323   5.665  0.1582  0.1184  0.2153
 9180TIP3    H227505   6.478   4.174   5.638 -0.6717  0.0843  0.7941
 9181TIP3   OH227506   1.239   3.517   1.607  0.6334  0.4871 -0.1247
 9181TIP3    H127507   1.166   3.460   1.582  0.9140 -0.4600  1.0998
 9181TIP3    H227508   1.263   3.562   1.526 -0.1803 -0.4722 -0.9343
 9182TIP3   OH227509   4.201   5.227   3.876 -0.3565 -0.0631  0.0143
 9182TIP3    H127510   4.244   5.228   3.791 -1.0580  2.7154 -0.4146
 9182TIP3    H227511   4.250   5.291   3.929 -1.4226  0.0968  0.8504
 9183TIP3   OH227512   5.164   5.032   5.263  1.1143 -0.4102  0.1022
 9183TIP3    H127513   5.211   4.999   5.187 -0.6426 -0.8009 -0.8488
 9183TIP3    H227514   5.126   4.955   5.304 -0.4512  0.0735 -0.3711
 9184TIP3   OH227515   6.181   2.477   1.265 -0.4304 -0.0398 -0.3881
 9184TIP3    H127516   6.268   2.442   1.284 -0.4197  0.4765  0.5786
 9184TIP3    H227517   6.163   2.448   1.175  0.3511 -0.9124 -0.2829
 9185TIP3   OH227518   1.607   2.115   0.881 -0.0913 -0.6055  0.3170
 9185TIP3    H127519   1.529   2.169   0.890 -1.1716 -2.1533  0.6250
 9185TIP3    H227520   1.597   2.073   0.795 -0.9284 -2.7532  1.3964
 9186TIP3   OH227521   4.707   1.278   0.037 -0.3843 -0.5067 -0.1285
 9186TIP3    H127522   4.677   1.201   0.085 -1.9091  0.5462  0.7220
 9186TIP3    H227523   4.627   1.327   0.019  0.5664  0.9872 -0.4424
 9187TIP3   OH227524   1.085   6.520   0.904 -0.3368 -0.0960  0.3906
 9187TIP3    H127525   1.025   6.531   0.978  0.6328 -0.0691  1.1888
 9187TIP3    H227526   1.084   6.426   0.886 -0.1185 -0.1841  0.8278
 9188TIP3   OH227527   5.152   2.391   1.762 -0.1865 -0.3679 -0.5352
 9188TIP3    H127528   5.139   2.449   1.687 -0.3146 -1.1736 -1.1474
 9188TIP3    H227529   5.211   2.440   1.820 -1.2832  0.8962 -0.4446
 9189TIP3   OH227530   1.558   2.258   3.598  0.2762 -0.0812 -1.1657
 9189TIP3    H127531   1.597   2.346   3.597 -0.4582  0.2571 -1.0892
 9189TIP3    H227532   1.465   2.274   3.615  0.4592 -1.0086  0.9705
 9190TIP3   OH227533   4.623   1.504   2.549  0.0299  0.1294 -0.5384
 9190TIP3    H127534   4.589   1.590   2.574  1.4311  0.5118  0.1693
 9190TIP3    H227535   4.554   1.443   2.573 -0.5966  0.9733 -0.1346
 9191TIP3   OH227536   0.275   6.642   3.594 -0.2226  0.1031 -0.1778
 9191TIP3    H127537   0.210   6.668   3.528  0.1443 -0.2547 -0.6923
 9191TIP3    H227538   0.346   6.705   3.583 -0.2373  0.1468 -0.0102
 9192TIP3   OH227539   5.685   2.891   1.030  0.0156 -0.0781  0.0592
 9192TIP3    H127540   5.752   2.946   1.069  0.9808  0.8392 -2.6951
 9192TIP3    H227541   5.607   2.946   1.028 -0.0379 -0.1236  0.5758
 9193TIP3   OH227542   7.148   1.227   1.906 -0.6454  0.1833 -0.0543
 9193TIP3    H127543   7.138   1.268   1.992 -2.2825  3.8001 -1.7714
 9193TIP3    H227544   7.064   1.182   1.892 -1.7092  2.3159 -0.9503
 9194TIP3   OH227545   1.190   2.283   4.617 -0.4128 -0.6522  0.2837
 9194TIP3    H127546   1.112   2.309   4.666  1.1595 -0.1013  2.6709
 9194TIP3    H227547   1.254   2.351   4.636  1.3109 -2.1433  0.0727
 9195TIP3   OH227548   0.246   4.958   3.458 -0.3606 -0.1819  0.2261
 9195TIP3    H127549   0.205   5.008   3.528 -0.4500 -0.6962  0.5522
 9195TIP3    H227550   0.329   5.003   3.441 -1.9597  2.1999 -1.9752
 9196TIP3   OH227551   1.593   0.379   1.415  0.6751  0.0401  0.0907
 9196TIP3    H127552   1.534   0.448   1.445  1.2918 -0.0183  1.4849
 9196TIP3    H227553   1.676   0.397   1.460  0.0567 -3.2959  2.9605
 9197TIP3   OH227554   6.749   3.997   3.980 -0.7757  1.2408  0.1275
 9197TIP3    H127555   6.763   3.924   3.920 -0.1137  1.1220  0.4194
 9197TIP3    H227556   6.679   4.048   3.939 -1.0925  0.5624 -0.1850
 9198TIP3   OH227557   2.566   0.839   1.017  0.3493  0.1284 -0.2794
 9198TIP3    H127558   2.575   0.752   1.057 -1.3722 -0.2203 -0.5686
 9198TIP3    H227559   2.527   0.893   1.086 -1.0968 -0.0575 -0.9030
 9199TIP3   OH227560   0.565   2.060   0.029  0.3718 -0.3255  0.3302
 9199TIP3    H127561   0.577   2.127   0.096  0.7245  0.7025 -0.7314
 9199TIP3    H227562   0.654   2.035   0.004  0.3842  1.8576 -2.2083
 9200TIP3   OH227563   2.070   5.622   5.605  0.5633 -0.0643 -0.1034
 9200TIP3    H127564   2.049   5.575   5.524  0.1036 -1.2076  0.6576
 9200TIP3    H227565   2.155   5.661   5.588  1.1789 -1.5498 -0.6310
 9201TIP3   OH227566   4.628   2.681   1.620 -0.2797  0.1852 -0.0722
 9201TIP3    H127567   4.723   2.691   1.625 -0.3575  1.6026 -0.9900
 9201TIP3    H227568   4.614   2.609   1.559  0.1948 -0.2954  0.3727
 9202TIP3   OH227569   1.688   0.109   2.089 -0.5327  0.8411  0.1025
 9202TIP3    H127570   1.644   0.067   2.164  0.1751  1.1640  0.7152
 9202TIP3    H227571   1.728   0.036   2.042 -0.2831  0.7128  0.5087
 9203TIP3   OH227572   3.631   4.888   3.551  0.6714 -0.7682 -0.0479
 9203TIP3    H127573   3.683   4.967   3.538  0.8493 -1.0885 -1.3847
 9203TIP3    H227574   3.555   4.917   3.601  2.0828 -0.2822  1.9632
 9204TIP3   OH227575   4.465   2.187   2.195  0.7134  0.1062  0.0638
 9204TIP3    H127576   4.500   2.170   2.107  0.8375 -0.0962  0.1527
 9204TIP3    H227577   4.377   2.223   2.179  1.4611  1.9544 -0.2141
 9205TIP3   OH227578   6.696   5.022   1.364  0.4319 -0.3913  0.2191
 9205TIP3    H127579   6.739   4.940   1.340 -2.1212 -1.6491 -0.3845
 9205TIP3    H227580   6.669   5.060   1.280 -1.8356 -0.9592  0.6340
 9206TIP3   OH227581   0.606   2.709   3.293 -0.4291  0.5526  0.2871
 9206TIP3    H127582   0.663   2.658   3.236 -0.0843 -0.2672  1.3278
 9206TIP3    H227583   0.517   2.691   3.261 -0.2982 -0.5363  0.4850
 9207TIP3   OH227584   0.862   2.318   1.434  0.3118  0.8101 -0.4302
 9207TIP3    H127585   0.774   2.348   1.412  0.0984  0.5287  0.0160
 9207TIP3    H227586   0.890   2.267   1.358  1.0587  2.8633 -1.6294
 9208TIP3   OH227587   6.288   0.212   5.312  0.2826 -0.1218 -0.7434
 9208TIP3    H127588   6.257   0.299   5.285  1.1105 -0.2414 -2.1651
 9208TIP3    H227589   6.379   0.225   5.336 -0.2826 -0.1263  1.6534
 9209TIP3   OH227590   5.510   0.433   0.282  0.0113  0.6551 -0.1524
 9209TIP3    H127591   5.485   0.402   0.194 -0.4547  0.3961  0.0674
 9209TIP3    H227592   5.441   0.494   0.306 -1.2530 -1.1696  1.0710
 9210TIP3   OH227593   4.792   1.881   1.376 -0.0670 -0.4531  0.1239
 9210TIP3    H127594   4.765   1.798   1.337 -1.9846  0.0685  0.2376
 9210TIP3    H227595   4.719   1.941   1.359  0.7992  0.9156  0.9800
 9211TIP3   OH227596   5.627   1.757   4.256 -0.1933  0.9914  0.0784
 9211TIP3    H127597   5.594   1.714   4.177 -1.4477 -1.1311  1.6217
 9211TIP3    H227598   5.692   1.819   4.225  0.0516 -0.4356 -2.5443
 9212TIP3   OH227599   7.133   1.463   4.200 -0.0049  0.4334  0.2144
 9212TIP3    H127600   7.055   1.474   4.254 -0.0633 -3.0604  1.0454
 9212TIP3    H227601   7.198   1.424   4.258  1.0228 -0.3708 -1.3993
 9213TIP3   OH227602   4.199   5.288   2.001  0.2112 -0.5577 -0.0176
 9213TIP3    H127603   4.230   5.353   2.064  0.1644  0.4213 -0.9718
 9213TIP3    H227604   4.173   5.339   1.925  0.3377 -1.7187 -0.8652
 9214TIP3   OH227605   4.955   3.890   3.706 -0.2161 -0.2244 -0.1894
 9214TIP3    H127606   5.014   3.817   3.685 -1.7629 -1.8117  0.6873
 9214TIP3    H227607   4.969   3.907   3.799  0.7169  1.1960 -0.5631
 9215TIP3   OH227608   6.765   4.200   4.991 -0.2073  0.2029  0.1130
 9215TIP3    H127609   6.697   4.259   4.957  2.2658  3.3607  0.1301
 9215TIP3    H227610   6.805   4.249   5.063  0.6954 -2.4540  1.5315
 9216TIP3   OH227611   2.903   1.694   0.815  0.1027  0.1371 -0.1714
 9216TIP3    H127612   2.955   1.625   0.856  0.8641  1.8098  1.8512
 9216TIP3    H227613   2.835   1.714   0.880 -1.2806  0.0366 -1.5272
 9217TIP3   OH227614   0.081   5.616   0.969 -0.0682 -0.0117  0.4713
 9217TIP3    H127615   0.026   5.628   1.046 -0.7053  0.3602 -0.0208
 9217TIP3    H227616   0.060   5.527   0.938  1.3246 -0.7605  1.5767
 9218TIP3   OH227617   1.021   1.028   2.252 -0.6549 -0.1506 -0.0458
 9218TIP3    H127618   0.926   1.024   2.240 -0.5055 -1.7441 -0.9483
 9218TIP3    H227619   1.034   1.012   2.346 -1.2656 -0.1561  0.0412
 9219TIP3   OH227620   4.554   3.608   5.134  0.1641 -0.3064 -0.4172
 9219TIP3    H127621   4.623   3.661   5.095  1.4811 -1.9022 -0.3771
 9219TIP3    H227622   4.483   3.610   5.070  0.1842  1.4379 -0.4233
 9220TIP3   OH227623   0.045   5.740   1.384  0.2746 -0.2323  0.3754
 9220TIP3    H127624   0.073   5.806   1.320 -0.5017  0.0914  0.3672
 9220TIP3    H227625   0.090   5.765   1.464  0.4425 -0.0309  0.2218
 9221TIP3   OH227626   0.640   3.816   3.339  0.0964 -0.0237  0.1519
 9221TIP3    H127627   0.698   3.741   3.350 -0.5227 -0.5107  0.1022
 9221TIP3    H227628   0.699   3.892   3.340  0.5324 -0.2852  2.7551
 9222TIP3   OH227629   1.510   6.573   5.633 -0.4111 -0.1667  0.0457
 9222TIP3    H127630   1.605   6.561   5.634 -0.4042 -0.1157  0.0152
 9222TIP3    H227631   1.497   6.664   5.659 -0.4151  0.0405 -0.6684
 9223TIP3   OH227632   1.889   3.762   2.966 -0.1749  0.1845 -0.1152
 9223TIP3    H127633   1.884   3.668   2.952  0.0186  0.2627 -0.7350
 9223TIP3    H227634   1.924   3.772   3.055  2.0675 -0.3349 -0.8861
 9224TIP3   OH227635   3.865   4.422   4.206  0.4784 -0.0341  0.2111
 9224TIP3    H127636   3.770   4.433   4.197  0.2774 -1.1351  0.7914
 9224TIP3    H227637   3.902   4.490   4.150 -0.6457  0.6430  0.2492
 9225TIP3   OH227638   4.324   6.477   2.170 -0.1295  0.0873  0.2169
 9225TIP3    H127639   4.370   6.481   2.087 -0.6530  0.2220 -0.0738
 9225TIP3    H227640   4.352   6.555   2.218 -1.1680  0.9792 -0.5621
 9226TIP3   OH227641   6.180   5.470   0.028 -0.0377  0.1239  0.4379
 9226TIP3    H127642   6.145   5.440  -0.056  0.5496 -0.3933  0.3691
 9226TIP3    H227643   6.150   5.404   0.091  0.6683 -0.2425  0.4015
 9227TIP3   OH227644   2.498   3.896   3.466 -0.4133  0.1967  0.0168
 9227TIP3    H127645   2.439   3.830   3.504  0.2882 -0.0493  0.6957
 9227TIP3    H227646   2.513   3.958   3.537 -1.1483  1.1557 -0.6493
 9228TIP3   OH227647   3.848   5.718   1.581  0.0693 -0.0763  0.0033
 9228TIP3    H127648   3.790   5.783   1.620  2.0981  1.4120  0.6969
 9228TIP3    H227649   3.872   5.754   1.496  0.4489 -0.3865 -0.0233
 9229TIP3   OH227650   4.022   6.469   5.539  0.3213 -0.0128  0.2285
 9229TIP3    H127651   4.055   6.555   5.513  1.1294 -0.2777  0.3761
 9229TIP3    H227652   4.039   6.463   5.633 -2.4429  0.8740  0.9033
 9230TIP3   OH227653   0.871   6.187   4.652  0.3409 -1.1224 -0.3835
 9230TIP3    H127654   0.781   6.179   4.684  0.0116 -0.5925 -1.1352
 9230TIP3    H227655   0.900   6.272   4.685  1.1056 -1.9458  1.1219
 9231TIP3   OH227656   3.899   4.461   1.497 -0.5961  0.1380 -0.6135
 9231TIP3    H127657   3.816   4.414   1.509  0.9747 -2.4322  1.0255
 9231TIP3    H227658   3.962   4.393   1.471  1.3463  1.7209 -0.2904
 9232TIP3   OH227659   3.203   2.710   3.083 -0.5285 -0.1770  0.3477
 9232TIP3    H127660   3.114   2.747   3.085 -0.8622 -0.4936 -3.2077
 9232TIP3    H227661   3.189   2.616   3.075  0.1396 -0.2314 -0.1840
 9233TIP3   OH227662   0.818   2.666   3.085 -0.3118 -0.0892  0.1587
 9233TIP3    H127663   0.892   2.674   3.025 -0.6788 -1.4699 -0.5324
 9233TIP3    H227664   0.848   2.605   3.152 -0.0090  1.2131  1.2579
 9234TIP3   OH227665   4.040   5.047   4.951  0.0375 -0.2786 -0.4293
 9234TIP3    H127666   3.945   5.037   4.952 -0.1668  1.3062 -1.2611
 9234TIP3    H227667   4.072   4.977   5.008 -1.5825 -1.1657 -0.5505
 9235TIP3   OH227668   2.155   0.409   3.765  1.1540 -0.5637  0.3067
 9235TIP3    H127669   2.198   0.426   3.849  0.5272 -1.6785  0.8724
 9235TIP3    H227670   2.202   0.465   3.703  0.8812  1.1670  1.5780
 9236TIP3   OH227671   1.945   5.835   5.477  0.0272 -0.3511  0.6400
 9236TIP3    H127672   1.979   5.756   5.519 -2.2986 -1.1472  1.1649
 9236TIP3    H227673   1.957   5.819   5.383 -0.1810 -1.2497  0.7517
 9237TIP3   OH227674   3.078   2.546   4.725  0.4084  0.0082  0.0966
 9237TIP3    H127675   3.016   2.477   4.701 -1.0468  1.3596 -0.1549
 9237TIP3    H227676   3.147   2.541   4.658 -0.5758 -0.0980 -0.9272
 9238TIP3   OH227677   1.320   3.347   3.311 -0.2011  0.5255 -0.2420
 9238TIP3    H127678   1.311   3.345   3.216 -1.4303  1.7977 -0.1844
 9238TIP3    H227679   1.396   3.291   3.329  0.2265  0.4879 -1.9762
 9239TIP3   OH227680   2.794   4.820   0.081 -0.5938  0.1559  0.2417
 9239TIP3    H127681   2.780   4.914   0.068  0.7830  0.2578 -0.7617
 9239TIP3    H227682   2.871   4.815   0.138 -0.9058 -0.3813  0.6310
 9240TIP3   OH227683   4.541   2.282   3.868  0.4997 -0.7061  0.0679
 9240TIP3    H127684   4.587   2.202   3.894  0.4800 -0.7704 -0.0883
 9240TIP3    H227685   4.566   2.347   3.933  1.4650 -0.5108 -0.4711
 9241TIP3   OH227686   1.802   4.102   0.753 -0.5774 -0.0121 -0.7873
 9241TIP3    H127687   1.858   4.089   0.830 -0.9630  0.6466 -0.3769
 9241TIP3    H227688   1.795   4.016   0.713  0.4969 -0.1617 -0.6886
 9242TIP3   OH227689   2.945   2.171   2.788  0.1399  0.1417  0.5404
 9242TIP3    H127690   2.890   2.198   2.862  0.4186  0.6715  0.5623
 9242TIP3    H227691   2.993   2.250   2.764 -0.2314  0.0775 -0.4628
 9243TIP3   OH227692   4.014   6.343   3.749  0.6376 -0.6898 -0.3780
 9243TIP3    H127693   3.994   6.257   3.785  0.6276 -1.1601 -1.4577
 9243TIP3    H227694   3.950   6.401   3.789  0.7203 -1.1560  0.4540
 9244TIP3   OH227695   2.307   0.470   3.435 -0.0834  0.3316 -0.8709
 9244TIP3    H127696   2.391   0.465   3.481 -0.6666 -1.9686  0.1148
 9244TIP3    H227697   2.273   0.557   3.457  0.7174  0.1898  1.2071
 9245TIP3   OH227698   6.509   1.782   3.141 -0.4184  0.5423 -0.4896
 9245TIP3    H127699   6.540   1.873   3.140  0.1482  0.4147  1.3067
 9245TIP3    H227700   6.423   1.785   3.100 -0.0960  1.7556 -1.1267
 9246TIP3   OH227701   1.898   4.801   5.191 -0.6797  0.4650  0.4336
 9246TIP3    H127702   1.833   4.831   5.127  1.1048  1.2224 -1.1327
 9246TIP3    H227703   1.890   4.862   5.264 -0.5258  1.6798 -0.5377
 9247TIP3   OH227704   0.331   4.047   5.169 -0.4118 -0.4014 -0.4122
 9247TIP3    H127705   0.369   3.966   5.135  0.1728  0.4626 -1.9305
 9247TIP3    H227706   0.288   4.087   5.094 -0.9552  0.5552  0.3788
 9248TIP3   OH227707   1.418   0.529   4.305  0.0772  0.3004  0.0349
 9248TIP3    H127708   1.373   0.557   4.226 -1.0946 -1.1813  0.1343
 9248TIP3    H227709   1.500   0.579   4.305 -1.3916  2.9290 -0.2717
 9249TIP3   OH227710   7.149   3.828   3.296 -0.5989  0.7134 -0.2319
 9249TIP3    H127711   7.072   3.868   3.336 -2.3340 -2.6583  0.1054
 9249TIP3    H227712   7.122   3.810   3.205 -0.0435 -0.0476 -0.2551
 9250TIP3   OH227713   3.757   5.812   4.129  0.4529  0.0578 -0.5275
 9250TIP3    H127714   3.761   5.906   4.109 -0.0389  0.3771  0.7485
 9250TIP3    H227715   3.663   5.795   4.141  0.5146 -0.6689 -1.0079
 9251TIP3   OH227716   6.624   3.964   2.363  0.3858  0.2962 -0.1524
 9251TIP3    H127717   6.591   3.903   2.297  0.6396 -0.1316  0.1128
 9251TIP3    H227718   6.548   3.982   2.419  0.3070  0.2369 -0.2406
 9252TIP3   OH227719   1.483   5.314   4.618  0.1777 -0.7430  0.1262
 9252TIP3    H127720   1.423   5.258   4.569  0.3569 -1.7314  0.9792
 9252TIP3    H227721   1.449   5.402   4.608 -0.4661 -1.0822 -0.7614
 9253TIP3   OH227722   1.143   3.794   5.911  0.6306 -0.0361  0.5456
 9253TIP3    H127723   1.142   3.808   5.816  0.0885 -3.8044 -0.1954
 9253TIP3    H227724   1.234   3.806   5.936  1.0078 -0.1015 -0.6979
 9254TIP3   OH227725   4.619   2.195   5.464 -0.4031  0.0425 -0.5685
 9254TIP3    H127726   4.663   2.230   5.541  0.5970 -1.5380 -0.3641
 9254TIP3    H227727   4.623   2.265   5.399  0.1879  0.8132  0.2756
 9255TIP3   OH227728   6.151   6.250   3.611  0.0843 -0.1412  0.4005
 9255TIP3    H127729   6.140   6.304   3.689 -0.5447  1.0566 -0.4736
 9255TIP3    H227730   6.160   6.313   3.539  2.7521 -1.1702 -0.2697
 9256TIP3   OH227731   4.826   1.253   3.438 -0.1757  0.5013  0.2934
 9256TIP3    H127732   4.880   1.184   3.401  0.4155  0.9440  0.3117
 9256TIP3    H227733   4.744   1.249   3.389 -0.7010 -1.1154  1.2186
 9257TIP3   OH227734   6.541   3.892   4.686 -0.7612 -0.1602 -0.0206
 9257TIP3    H127735   6.523   3.805   4.651 -1.1068 -0.1685  0.1735
 9257TIP3    H227736   6.556   3.876   4.780 -2.4624  0.1867  0.3445
 9258TIP3   OH227737   6.495   5.634   3.611  0.7134 -0.1244  0.1619
 9258TIP3    H127738   6.549   5.713   3.610 -0.2284  0.6951  2.9591
 9258TIP3    H227739   6.539   5.575   3.672 -0.1340 -0.5376  0.3970
 9259TIP3   OH227740   5.144   0.601   5.116 -0.0613 -0.1930  0.3694
 9259TIP3    H127741   5.212   0.601   5.049 -0.2345 -0.7609  0.1890
 9259TIP3    H227742   5.063   0.584   5.069 -0.3358  0.4930  0.5841
 9260TIP3   OH227743   3.144   6.387   0.433  0.5523  0.0265  0.2542
 9260TIP3    H127744   3.108   6.325   0.497  0.1601  0.9760  0.9897
 9260TIP3    H227745   3.216   6.430   0.480  1.3020 -0.3792 -0.4967
 9261TIP3   OH227746   2.948   4.315   0.287 -0.3177  0.0548 -0.2951
 9261TIP3    H127747   2.869   4.261   0.297 -0.0369 -0.4253 -0.6617
 9261TIP3    H227748   3.010   4.259   0.241  1.5521 -0.8832  3.0713
 9262TIP3   OH227749   2.869   5.878   2.434  0.5076  0.1289  0.0534
 9262TIP3    H127750   2.809   5.879   2.508  0.2270 -2.1087 -0.0608
 9262TIP3    H227751   2.853   5.961   2.388 -2.7884 -0.5145 -0.1861
 9263TIP3   OH227752   6.012   4.933   0.471 -0.1921  0.3640  0.5279
 9263TIP3    H127753   5.952   5.001   0.442  0.0513  0.4528  0.2316
 9263TIP3    H227754   6.092   4.979   0.495  1.3116 -0.0352 -3.0404
 9264TIP3   OH227755   4.312   4.162   1.112 -0.2664  0.2359  0.1702
 9264TIP3    H127756   4.338   4.106   1.039  0.7097 -0.0844  0.7423
 9264TIP3    H227757   4.263   4.233   1.071  0.1447 -0.0105 -0.7785
 9265TIP3   OH227758   4.191   3.541   0.165  0.0797 -0.1661  0.3446
 9265TIP3    H127759   4.169   3.448   0.170 -0.9131  0.0441  0.1305
 9265TIP3    H227760   4.117   3.586   0.207 -0.0240  0.5767 -0.5862
 9266TIP3   OH227761   4.336   0.073   0.858 -0.3319  0.0474 -0.2245
 9266TIP3    H127762   4.426   0.060   0.887 -0.1474  0.9889 -0.3514
 9266TIP3    H227763   4.302  -0.016   0.845 -0.2830 -0.4382  2.4065
 9267TIP3   OH227764   5.914   2.692   3.178  0.4898 -0.2400  0.0988
 9267TIP3    H127765   5.981   2.757   3.156  1.0427 -0.5517  0.8489
 9267TIP3    H227766   5.867   2.678   3.096  0.5178  0.9303 -0.1279
 9268TIP3   OH227767   3.027   1.959   2.457  0.3446  0.2518  0.6525
 9268TIP3    H127768   3.065   2.025   2.516  0.1656  1.4526 -0.5204
 9268TIP3    H227769   2.941   1.940   2.494  0.9709 -0.4271  1.8014
 9269TIP3   OH227770   0.664   6.201   5.759  0.2154 -0.2204  0.5719
 9269TIP3    H127771   0.582   6.228   5.717  0.9018  1.0127 -0.0183
 9269TIP3    H227772   0.709   6.150   5.692  0.7857  0.7515  0.1996
 9270TIP3   OH227773   2.758   0.976   0.908 -1.0925 -0.0722  0.0409
 9270TIP3    H127774   2.823   0.917   0.870 -0.4932  0.2497  0.5618
 9270TIP3    H227775   2.690   0.917   0.942 -1.9919 -0.3764 -2.0556
 9271TIP3   OH227776   6.649   1.603   2.856 -0.0697  0.6006 -0.5004
 9271TIP3    H127777   6.558   1.577   2.842 -0.2032  0.6454  0.2288
 9271TIP3    H227778   6.674   1.649   2.776 -0.2684 -0.5418 -1.2465
 9272TIP3   OH227779   4.189   6.383   1.372  0.0285  0.0085  0.4506
 9272TIP3    H127780   4.209   6.336   1.291  2.1932  1.7206 -0.1185
 9272TIP3    H227781   4.197   6.476   1.348 -1.4859  0.6192  2.1210
 9273TIP3   OH227782   2.997   1.190   4.032 -0.7553  0.5096 -0.1500
 9273TIP3    H127783   3.063   1.133   4.071  0.0602  1.0901 -0.6559
 9273TIP3    H227784   2.921   1.133   4.017  0.5041 -0.7993 -1.9197
 9274TIP3   OH227785   4.346   2.641   4.902 -0.1064  0.5807  0.0210
 9274TIP3    H127786   4.338   2.555   4.861  0.9011 -0.0215  1.0209
 9274TIP3    H227787   4.426   2.678   4.866 -0.0339  0.6955  0.2964
 9275TIP3   OH227788   5.737   2.361   5.131  0.2409  0.3731  0.1143
 9275TIP3    H127789   5.648   2.327   5.137  1.3118 -2.4126  1.7115
 9275TIP3    H227790   5.731   2.449   5.170 -1.4011 -0.7011  2.5525
 9276TIP3   OH227791   3.883   5.045   5.427 -0.2236 -0.5451  0.5572
 9276TIP3    H127792   3.951   5.108   5.451 -0.8804  0.6283 -0.5477
 9276TIP3    H227793   3.853   5.010   5.511  0.5038  0.2448  1.1737
 9277TIP3   OH227794   1.802   1.201   5.483  0.0216 -0.0662 -0.6865
 9277TIP3    H127795   1.732   1.231   5.540  0.6781 -0.6369  0.4372
 9277TIP3    H227796   1.855   1.279   5.468  0.7429 -0.2502  0.7998
 9278TIP3   OH227797   3.970   5.346   5.209 -0.5608  0.3579 -0.1059
 9278TIP3    H127798   3.885   5.328   5.168 -1.0044  3.2190 -0.6589
 9278TIP3    H227799   4.029   5.362   5.135 -0.2549  1.1609  0.3031
 9279TIP3   OH227800   0.142   4.555   5.793 -0.2550  0.2945 -0.7751
 9279TIP3    H127801   0.146   4.640   5.837  0.3703 -1.3271  2.5774
 9279TIP3    H227802   0.053   4.550   5.757 -0.6972  1.8440  0.0504
 9280TIP3   OH227803   6.919   4.473   2.241  0.7760 -0.5671 -0.5728
 9280TIP3    H127804   6.932   4.540   2.308 -0.5702 -0.6540 -0.2087
 9280TIP3    H227805   6.872   4.403   2.286  2.5191 -1.9763 -0.8301
 9281TIP3   OH227806   5.502   0.058   5.310 -0.1182 -0.5023  0.4433
 9281TIP3    H127807   5.585   0.018   5.287  0.2661 -0.7491  2.1417
 9281TIP3    H227808   5.479   0.020   5.395 -1.1642  0.7475  0.7591
 9282TIP3   OH227809   6.256   2.463   0.162 -0.1789 -0.0660  0.1684
 9282TIP3    H127810   6.288   2.373   0.174  0.1801  0.1525  0.9085
 9282TIP3    H227811   6.202   2.458   0.083 -0.3788 -0.9921  0.3407
 9283TIP3   OH227812   3.731   6.108   5.185  0.5503  0.5192 -0.0005
 9283TIP3    H127813   3.688   6.039   5.235  3.2469 -1.4416 -0.1958
 9283TIP3    H227814   3.691   6.103   5.098  1.3733 -1.5450 -0.3175
 9284TIP3   OH227815   1.874   2.904   2.609 -0.1511 -0.2822 -0.2525
 9284TIP3    H127816   1.823   2.970   2.562 -0.3419 -0.3973 -0.2049
 9284TIP3    H227817   1.965   2.929   2.593 -0.2249  0.1173 -0.0564
 9285TIP3   OH227818   1.974   4.559   1.322  0.8235  0.1309 -0.3044
 9285TIP3    H127819   1.939   4.508   1.249  0.1778  0.0053  0.0800
 9285TIP3    H227820   1.994   4.494   1.389  0.3834  0.3365  0.0328
 9286TIP3   OH227821   5.335   4.821   1.216  0.6013 -0.0938  0.0910
 9286TIP3    H127822   5.330   4.769   1.135  0.7185 -2.0073  1.2447
 9286TIP3    H227823   5.421   4.799   1.252  0.4269  0.5131  0.8842
 9287TIP3   OH227824   6.209   0.176   1.792 -0.0426 -0.1957 -0.0373
 9287TIP3    H127825   6.280   0.237   1.770  0.6128  0.1283  2.6698
 9287TIP3    H227826   6.144   0.190   1.722  0.1885  3.4638  0.2546
 9288TIP3   OH227827   3.854   0.771   4.766  0.2598 -0.0270 -0.5734
 9288TIP3    H127828   3.942   0.810   4.761 -0.3162  1.2786 -1.1472
 9288TIP3    H227829   3.815   0.810   4.844  0.0507 -0.2881 -0.5477
 9289TIP3   OH227830   6.575   2.148   2.556  0.2888 -0.0469 -0.1730
 9289TIP3    H127831   6.631   2.083   2.597  0.2489 -0.1125 -0.2220
 9289TIP3    H227832   6.566   2.217   2.622 -2.1092 -1.4362  1.0976
 9290TIP3   OH227833   1.249   1.195   0.273 -0.3411  0.0544  0.5543
 9290TIP3    H127834   1.338   1.199   0.307 -0.3987  0.7417  0.6351
 9290TIP3    H227835   1.243   1.269   0.213 -1.4030  1.0982  1.8799
 9291TIP3   OH227836   7.132   5.528   0.624 -0.5913 -0.2864 -0.1551
 9291TIP3    H127837   7.073   5.599   0.652  1.8036  1.6572  0.2678
 9291TIP3    H227838   7.176   5.500   0.704  0.8443  0.0536 -0.7950
 9292TIP3   OH227839   3.594   3.985   1.127  0.4620 -0.2314  0.1009
 9292TIP3    H127840   3.563   4.065   1.084  2.3635  0.3824 -0.2309
 9292TIP3    H227841   3.685   4.005   1.152  0.4986 -1.7748  1.3632
 9293TIP3   OH227842   3.516   6.194   3.081 -0.2609  0.0883  0.8638
 9293TIP3    H127843   3.437   6.155   3.044 -1.3439  2.5478  0.3533
 9293TIP3    H227844   3.484   6.270   3.130  1.7701  1.1201  0.6841
 9294TIP3   OH227845   5.472   5.649   0.119  0.2075 -0.4842  0.0282
 9294TIP3    H127846   5.487   5.668   0.212  0.9053 -0.8705 -0.0013
 9294TIP3    H227847   5.458   5.735   0.079  0.3053 -0.2833  0.4242
 9295TIP3   OH227848   1.015   4.889   2.028  0.4289  0.2892  0.6273
 9295TIP3    H127849   1.029   4.952   2.099 -0.0233  0.2521  0.7543
 9295TIP3    H227850   1.072   4.815   2.049  1.0183  0.6839  0.4386
 9296TIP3   OH227851   4.620   1.963   3.183  0.2989 -0.4230  0.2971
 9296TIP3    H127852   4.684   1.903   3.223  2.2952  1.3352 -0.0539
 9296TIP3    H227853   4.622   2.040   3.239 -2.3293 -0.6583  0.8277
 9297TIP3   OH227854   5.829   6.480   4.575  1.1836  0.1229 -0.0452
 9297TIP3    H127855   5.759   6.491   4.511 -0.7390  0.0071  1.9211
 9297TIP3    H227856   5.829   6.562   4.625  1.9016 -0.2076  0.5206
 9298TIP3   OH227857   2.477   0.937   2.081 -0.2524 -0.1614 -0.2686
 9298TIP3    H127858   2.482   1.022   2.124 -0.1290  0.3580 -1.2762
 9298TIP3    H227859   2.549   0.938   2.018 -0.1953 -1.0530 -0.2374
 9299TIP3   OH227860   1.035   4.369   3.039  0.0602  0.4496  0.2828
 9299TIP3    H127861   1.110   4.393   2.985  0.4909 -0.3005  0.5308
 9299TIP3    H227862   0.959   4.400   2.990  0.4357 -0.1970 -0.7616
 9300TIP3   OH227863   3.325   6.158   0.282 -0.2269 -0.7945 -0.1040
 9300TIP3    H127864   3.269   6.128   0.353  0.0471  0.5950  0.7323
 9300TIP3    H227865   3.388   6.217   0.324 -0.1345  0.1519 -1.4960
 9301TIP3   OH227866   0.479   5.712   0.204 -0.2964  0.5193 -0.6648
 9301TIP3    H127867   0.409   5.698   0.140 -2.5848  1.0261  1.5765
 9301TIP3    H227868   0.485   5.630   0.253 -0.4045  0.9773  0.1342
 9302TIP3   OH227869   4.386   3.202   4.018  0.2246  0.0002  0.4644
 9302TIP3    H127870   4.442   3.169   4.088 -1.2422 -3.8727  0.0721
 9302TIP3    H227871   4.444   3.210   3.942  0.9953  0.0799  1.0529
 9303TIP3   OH227872   6.025   4.665   4.673 -0.8551 -0.4097 -0.1628
 9303TIP3    H127873   5.999   4.689   4.762 -0.9237 -0.1444 -0.2526
 9303TIP3    H227874   6.068   4.580   4.682 -0.9096 -0.4073  0.1159
 9304TIP3   OH227875   2.833   3.143   0.711 -0.3197  0.3563  0.3807
 9304TIP3    H127876   2.752   3.194   0.708 -0.8896 -0.5683 -0.1857
 9304TIP3    H227877   2.901   3.209   0.727 -0.8548  1.5104 -1.7719
 9305TIP3   OH227878   6.704   2.159   3.761 -0.3667  0.4593  0.6777
 9305TIP3    H127879   6.639   2.156   3.691  1.0019  0.6841 -0.6807
 9305TIP3    H227880   6.702   2.072   3.800  1.1077 -0.8477 -1.8934
 9306TIP3   OH227881   0.478   5.660   4.141 -0.0171 -0.1411  0.3417
 9306TIP3    H127882   0.520   5.712   4.072 -0.8340 -0.2326 -0.2309
 9306TIP3    H227883   0.495   5.569   4.116 -0.1713 -0.1715  0.3457
 9307TIP3   OH227884   4.584   0.528   1.547  0.0084  0.1556  0.0631
 9307TIP3    H127885   4.628   0.580   1.614  0.5981  1.4562 -1.2692
 9307TIP3    H227886   4.498   0.568   1.537  0.6504  1.2763 -1.3312
 9308TIP3   OH227887   0.119   4.997   4.260  0.0893  0.0229 -0.5926
 9308TIP3    H127888   0.069   4.942   4.200 -2.5921  1.2093  0.3882
 9308TIP3    H227889   0.113   4.952   4.345  1.2771 -0.1438 -0.5886
 9309TIP3   OH227890   3.664   3.514   0.051 -0.1337  0.4384 -0.4406
 9309TIP3    H127891   3.630   3.572   0.119 -1.4019 -0.5897 -0.1499
 9309TIP3    H227892   3.590   3.504  -0.010  0.1944 -0.5530 -0.6889
 9310TIP3   OH227893   6.645   0.931   3.859  0.4057  0.1329  0.1845
 9310TIP3    H127894   6.563   0.906   3.816 -0.4194  1.9245  0.6295
 9310TIP3    H227895   6.710   0.927   3.789 -0.7598  2.1316 -1.1375
 9311TIP3   OH227896   2.252   2.031   1.621  0.1745  0.4723  0.4573
 9311TIP3    H127897   2.200   1.957   1.652  0.4722  0.4250  0.8380
 9311TIP3    H227898   2.264   2.014   1.527 -0.7714  0.6451  0.2958
 9312TIP3   OH227899   5.567   5.215   3.384  0.1718 -0.1436 -0.0156
 9312TIP3    H127900   5.501   5.275   3.419 -0.0849 -1.3376  1.6880
 9312TIP3    H227901   5.538   5.197   3.294 -0.0681  1.7474 -0.3578
 9313TIP3   OH227902   1.337   3.755   5.684 -0.3465 -0.1242 -0.1424
 9313TIP3    H127903   1.413   3.770   5.740 -0.6540 -0.2466  0.3093
 9313TIP3    H227904   1.321   3.661   5.691 -0.0402 -0.2413 -0.8871
 9314TIP3   OH227905   5.702   5.932   5.589 -0.0177 -0.5341 -0.3241
 9314TIP3    H127906   5.725   5.975   5.507  0.4709  0.0117  0.0899
 9314TIP3    H227907   5.619   5.973   5.615  1.1420  1.2225  0.7873
 9315TIP3   OH227908   1.705   5.774   3.363  0.5512  0.1877  0.1080
 9315TIP3    H127909   1.704   5.862   3.327  1.4362  0.3843  0.5400
 9315TIP3    H227910   1.654   5.721   3.301 -2.1419  1.4512  1.0702
 9316TIP3   OH227911   2.571   3.912   5.464  0.4126  0.5033 -0.3339
 9316TIP3    H127912   2.495   3.970   5.454  0.1366  0.0361 -1.0979
 9316TIP3    H227913   2.565   3.879   5.553  0.7158  1.8312  0.2021
 9317TIP3   OH227914   6.963   1.755   3.917 -0.1787 -0.1603  0.3653
 9317TIP3    H127915   6.944   1.824   3.854 -0.6370 -1.2778 -0.7584
 9317TIP3    H227916   6.999   1.801   3.993  1.3356  1.1542 -1.0653
 9318TIP3   OH227917   0.801   0.024   0.596 -0.0070 -0.3444 -0.0952
 9318TIP3    H127918   0.871  -0.040   0.586 -1.5120 -1.8915 -1.4762
 9318TIP3    H227919   0.772   0.042   0.506 -1.1571  0.5247  0.4214
 9319TIP3   OH227920   0.014   3.568   1.560 -0.6631  0.0098 -0.0745
 9319TIP3    H127921   0.065   3.531   1.632  0.4239 -1.8035 -1.6851
 9319TIP3    H227922  -0.070   3.591   1.600  0.6870  1.2856  2.2466
 9320TIP3   OH227923   3.323   4.560   2.688 -0.0742 -0.2122  0.0510
 9320TIP3    H127924   3.313   4.488   2.751 -1.7207  2.6462  3.4655
 9320TIP3    H227925   3.404   4.603   2.714 -0.1792  0.3563 -0.5576
 9321TIP3   OH227926   4.091   0.618   5.120 -0.5403  0.6529  0.8506
 9321TIP3    H127927   4.016   0.610   5.179  0.0651 -2.1147  1.3818
 9321TIP3    H227928   4.160   0.566   5.162  0.5408  0.2144 -1.3188
 9322TIP3   OH227929   1.434   0.789   0.773 -0.2505 -0.2027  0.2388
 9322TIP3    H127930   1.498   0.787   0.844  0.1011  0.5550 -0.0372
 9322TIP3    H227931   1.360   0.738   0.805 -0.6028  1.1216  1.6557
 9323TIP3   OH227932   1.980   4.414   1.086  0.3130  0.2879  0.4400
 9323TIP3    H127933   2.070   4.432   1.062  0.5954  0.8220  1.8251
 9323TIP3    H227934   1.941   4.375   1.007  1.4627  0.9834 -0.4924
 9324TIP3   OH227935   0.289   0.884   1.216 -0.2160  0.2196  0.0148
 9324TIP3    H127936   0.217   0.822   1.203  1.0792 -1.7446  1.6140
 9324TIP3    H227937   0.320   0.903   1.128 -1.1169 -0.8491 -0.5676
 9325TIP3   OH227938   2.430   2.622   0.821 -0.1701 -0.2312 -0.0531
 9325TIP3    H127939   2.433   2.550   0.884  0.7428 -0.4557 -0.3402
 9325TIP3    H227940   2.508   2.673   0.839 -0.5838  0.4493 -0.1455
 9326TIP3   OH227941   0.513   0.414   0.809  0.0012 -0.2130  0.4824
 9326TIP3    H127942   0.545   0.418   0.719 -0.5056 -0.3334  0.2978
 9326TIP3    H227943   0.585   0.451   0.861 -0.3858  1.4646 -0.1352
 9327TIP3   OH227944   3.790   2.278   0.403  0.2032 -0.2044  0.2220
 9327TIP3    H127945   3.853   2.229   0.350  0.0087  0.2626 -0.4656
 9327TIP3    H227946   3.839   2.355   0.433  0.1091 -0.0915  0.0920
 9328TIP3   OH227947   5.969   3.679   1.009 -0.1501 -0.1844 -0.7014
 9328TIP3    H127948   5.948   3.611   0.945 -0.6340  1.0347 -1.8969
 9328TIP3    H227949   5.972   3.760   0.958  0.6848  0.6672  0.6268
 9329TIP3   OH227950   6.188   6.803   2.546 -0.2860 -0.2198  0.2969
 9329TIP3    H127951   6.179   6.740   2.618 -0.5194 -0.7059 -0.1507
 9329TIP3    H227952   6.122   6.776   2.483  3.3142 -3.2253 -2.6426
 9330TIP3   OH227953   4.589   6.159   3.580 -0.3675  0.2176 -0.6823
 9330TIP3    H127954   4.524   6.125   3.518  1.0411 -0.5350 -1.8098
 9330TIP3    H227955   4.673   6.137   3.540  0.6020 -0.1964  1.4808
 9331TIP3   OH227956   3.839   1.922   0.330 -0.0834 -0.2538  0.5559
 9331TIP3    H127957   3.855   1.903   0.238  1.7829  3.0253  0.0211
 9331TIP3    H227958   3.920   1.898   0.375 -0.2767 -0.0896  1.0033
 9332TIP3   OH227959   2.060   1.931   4.120  0.6894 -0.6620  0.1118
 9332TIP3    H127960   1.999   1.949   4.191  1.4472 -0.1170  0.6372
 9332TIP3    H227961   2.146   1.952   4.156  1.0885 -0.4354 -0.9433
 9333TIP3   OH227962   5.706   5.922   3.825 -0.3725  0.5529 -0.1069
 9333TIP3    H127963   5.781   5.968   3.863 -0.2916  0.0207  0.3978
 9333TIP3    H227964   5.675   5.865   3.896 -0.1143 -0.6030 -0.8840
 9334TIP3   OH227965   1.862   4.263   3.080  0.5821  0.5769  0.0261
 9334TIP3    H127966   1.800   4.326   3.043 -0.3776 -0.1297  0.3825
 9334TIP3    H227967   1.890   4.210   3.006  1.2011  1.2441 -0.2323
 9335TIP3   OH227968   2.863   3.901   2.294  0.2238 -0.7564  0.2251
 9335TIP3    H127969   2.935   3.931   2.237 -0.5960  0.3952 -0.2561
 9335TIP3    H227970   2.901   3.901   2.382  0.3458  1.7312  0.2583
 9336TIP3   OH227971   0.075   3.745   0.012  0.2869  0.6291  0.0760
 9336TIP3    H127972   0.107   3.834   0.009 -0.3788  0.9732  1.8016
 9336TIP3    H227973   0.126   3.703   0.082  0.4048 -0.2782 -0.5259
 9337TIP3   OH227974   4.975   0.280   3.826 -0.2993  0.3588  0.1445
 9337TIP3    H127975   4.938   0.218   3.763  0.6417 -1.5471  1.3916
 9337TIP3    H227976   4.931   0.260   3.908  0.8619  0.5493  0.8325
 9338TIP3   OH227977   2.120   1.682   0.680  0.1786 -0.7395  0.8213
 9338TIP3    H127978   2.033   1.648   0.659  0.2613  0.1870 -1.1693
 9338TIP3    H227979   2.180   1.617   0.643  0.3173  0.2794 -0.8240
 9339TIP3   OH227980   5.445   4.104   4.794  0.0146  0.2955 -0.1677
 9339TIP3    H127981   5.405   4.164   4.857  1.5616  0.8923  0.3050
 9339TIP3    H227982   5.412   4.018   4.818 -1.0360  0.7681  0.1368
 9340TIP3   OH227983   6.966   5.250   3.705 -0.1606 -0.0117 -0.2920
 9340TIP3    H127984   6.897   5.270   3.642  0.6620 -0.5787 -1.3974
 9340TIP3    H227985   6.930   5.277   3.789 -0.9766  1.4755 -1.0892
 9341TIP3   OH227986   3.410   5.101   2.220  0.2473 -0.4413 -0.1039
 9341TIP3    H127987   3.323   5.080   2.255  0.9486 -0.0030  2.0438
 9341TIP3    H227988   3.426   5.191   2.248  0.7356  0.0779 -1.9285
 9342TIP3   OH227989   0.735   4.371   2.326  0.2768  0.3127 -0.0434
 9342TIP3    H127990   0.749   4.341   2.236  0.5593 -0.2879  0.1939
 9342TIP3    H227991   0.700   4.459   2.316 -1.0902 -0.2835 -0.7830
 9343TIP3   OH227992   2.640   2.327   3.224  0.3981 -0.0989 -0.4071
 9343TIP3    H127993   2.623   2.248   3.274 -0.3432 -0.2440 -0.8791
 9343TIP3    H227994   2.555   2.354   3.190  0.3847  1.6714  0.8515
 9344TIP3   OH227995   3.524   0.850   1.304  0.2086  0.6265  0.1420
 9344TIP3    H127996   3.453   0.805   1.258  0.1655  2.1681 -1.3590
 9344TIP3    H227997   3.495   0.851   1.396 -1.3604  0.5621 -0.3199
 9345TIP3   OH227998   3.506   5.444   0.254  0.2110  0.1679 -0.1088
 9345TIP3    H127999   3.563   5.521   0.254  1.0017 -0.2934 -3.1658
 9345TIP3    H228000   3.561   5.374   0.221 -1.6648 -0.6833 -1.5807
 9346TIP3   OH228001   6.896   5.331   0.076 -0.2978 -0.4675  0.5364
 9346TIP3    H128002   6.826   5.346   0.139  0.5768 -0.4987  1.5418
 9346TIP3    H228003   6.959   5.275   0.122 -0.0796 -1.2786 -0.6857
 9347TIP3   OH228004   3.287   5.128   4.084 -0.0027  0.1612 -0.0944
 9347TIP3    H128005   3.340   5.160   4.011  0.3825  0.1465  0.1744
 9347TIP3    H228006   3.250   5.045   4.052  1.5939 -0.7531  0.3394
 9348TIP3   OH228007   2.539   1.090   4.241 -0.0565  0.4348 -0.2459
 9348TIP3    H128008   2.464   1.131   4.198  0.5028  1.8767  0.0911
 9348TIP3    H228009   2.613   1.146   4.219  1.0812 -1.3463 -1.1547
 9349TIP3   OH228010   5.678   4.221   0.212 -0.1576  0.0097 -0.0460
 9349TIP3    H128011   5.769   4.250   0.205 -0.1723 -0.1700 -1.0105
 9349TIP3    H228012   5.641   4.277   0.281  0.9779 -0.6867  1.1679
 9350TIP3   OH228013   0.558   0.147   0.844  0.0967 -0.0375 -0.7487
 9350TIP3    H128014   0.539   0.220   0.785 -0.8102 -0.6145 -1.2005
 9350TIP3    H228015   0.515   0.071   0.803 -0.1707 -0.5381  0.4205
 9351TIP3   OH228016   7.042   5.138   4.825 -0.1020 -0.4443  0.3246
 9351TIP3    H128017   7.094   5.089   4.761  0.8570  0.2570  0.5446
 9351TIP3    H228018   6.952   5.131   4.793  0.1336 -1.5783 -0.1359
 9352TIP3   OH228019   4.274   3.733   0.847 -0.1176  0.3495 -0.9324
 9352TIP3    H128020   4.199   3.773   0.893  1.2516  1.1996  0.6710
 9352TIP3    H228021   4.247   3.643   0.831 -1.5323  0.6664 -0.4927
 9353TIP3   OH228022   5.497   5.427   3.759 -0.6107 -0.4588  0.2950
 9353TIP3    H128023   5.478   5.359   3.695  0.4843 -1.4714  0.9939
 9353TIP3    H228024   5.573   5.393   3.807 -0.9765  0.5774  1.6549
 9354TIP3   OH228025   3.965   2.303  -0.018  0.1725 -0.1655  0.2066
 9354TIP3    H128026   3.888   2.360  -0.019 -1.6626 -2.4474  0.6415
 9354TIP3    H228027   3.969   2.271   0.073  1.6564 -0.0899  0.1861
 9355TIP3   OH228028   0.789   0.097   1.211  0.3190 -0.0880  0.0762
 9355TIP3    H128029   0.864   0.153   1.230  0.1520 -0.5344  2.3782
 9355TIP3    H228030   0.785   0.036   1.285 -0.1458 -2.4769 -1.7934
 9356TIP3   OH228031   5.478   2.782   1.596 -0.2956  0.2816 -0.1604
 9356TIP3    H128032   5.529   2.707   1.565 -0.8177  0.1283 -0.6641
 9356TIP3    H228033   5.413   2.797   1.527  1.1926  2.6175 -1.1985
 9357TIP3   OH228034   1.789   3.545   3.180  0.1063  0.5166  0.0277
 9357TIP3    H128035   1.797   3.598   3.259  1.1242  1.5605 -0.7390
 9357TIP3    H228036   1.773   3.457   3.212 -1.0335  1.1607  1.3610
 9358TIP3   OH228037   4.200   3.798   2.298  0.4374 -0.6317 -0.2444
 9358TIP3    H128038   4.178   3.818   2.207  2.0191 -0.9233 -0.7169
 9358TIP3    H228039   4.194   3.882   2.343 -0.1358 -0.4424 -0.6510
 9359TIP3   OH228040   5.250   0.964   5.769  0.2338 -0.2040 -0.5801
 9359TIP3    H128041   5.292   1.011   5.841  0.0867  0.5865 -0.9911
 9359TIP3    H228042   5.317   0.905   5.735  0.7449  0.4304 -0.6847
 9360TIP3   OH228043   1.786   2.169   4.761  0.2981  0.1226  0.1160
 9360TIP3    H128044   1.806   2.237   4.697  1.0123  2.0506  2.2792
 9360TIP3    H228045   1.864   2.114   4.762  0.8463  0.8900  0.2989
 9361TIP3   OH228046   0.253   3.185   4.167 -0.1614  0.0385  0.2876
 9361TIP3    H128047   0.339   3.200   4.207 -0.1317 -1.1216  0.6957
 9361TIP3    H228048   0.192   3.183   4.241 -0.3111 -0.6544  0.1582
 9362TIP3   OH228049   6.160   3.478   1.940  0.1202 -0.1553 -0.2989
 9362TIP3    H128050   6.200   3.515   1.861  1.0077 -1.4999 -0.5158
 9362TIP3    H228051   6.197   3.390   1.947  0.5462  0.1387  1.9717
 9363TIP3   OH228052   4.661   3.233   1.281  0.5839  0.4833 -0.7193
 9363TIP3    H128053   4.604   3.308   1.301 -0.6361 -0.3765 -0.8787
 9363TIP3    H228054   4.746   3.257   1.319 -0.4302  0.8949  1.4343
 9364TIP3   OH228055   1.006   6.694   2.008 -0.0914  0.1366  0.0992
 9364TIP3    H128056   1.001   6.638   1.930 -0.8775 -0.0255  0.2591
 9364TIP3    H228057   1.012   6.783   1.974  2.3059 -0.0580 -0.1879
 9365TIP3   OH228058   2.940   2.934   5.363  0.4279  0.1089  0.5194
 9365TIP3    H128059   3.026   2.892   5.364  0.1927 -0.3735  1.4813
 9365TIP3    H228060   2.940   2.989   5.441 -1.1007 -1.9480  2.0953
 9366TIP3   OH228061   5.527   4.190   2.656 -0.1049 -0.1856 -0.1825
 9366TIP3    H128062   5.490   4.191   2.744 -0.2045 -0.3407 -0.2215
 9366TIP3    H228063   5.455   4.216   2.598  0.5430  2.2319 -0.0210
 9367TIP3   OH228064   1.395   0.714   4.748 -0.1490 -0.4628 -0.6075
 9367TIP3    H128065   1.304   0.741   4.758 -0.1498 -1.0549  1.4186
 9367TIP3    H228066   1.391   0.635   4.693 -0.7616 -0.1219 -1.0729
 9368TIP3   OH228067   5.932   3.182   3.986 -0.6767 -0.5591 -0.7399
 9368TIP3    H128068   5.845   3.179   4.024 -0.3496 -1.0927  0.0029
 9368TIP3    H228069   5.927   3.124   3.909 -1.0068 -0.4783 -0.7804
 9369TIP3   OH228070   2.363   6.587   5.581  0.2861 -0.3256  0.5060
 9369TIP3    H128071   2.356   6.559   5.672 -1.5337  1.7507  1.0855
 9369TIP3    H228072   2.281   6.633   5.563  1.3095  0.8426 -1.6410
 9370TIP3   OH228073   5.355   1.372   4.624 -0.3030  0.0493 -0.4130
 9370TIP3    H128074   5.287   1.313   4.591 -0.6565 -0.3219  0.9317
 9370TIP3    H228075   5.312   1.457   4.628 -0.5075 -0.0642 -0.1503
 9371TIP3   OH228076   3.163   2.033   1.406  0.3087 -0.5529  0.3213
 9371TIP3    H128077   3.191   2.068   1.321 -0.3832 -1.7142 -0.4154
 9371TIP3    H228078   3.068   2.023   1.397  0.2162 -0.6093  1.2679
 9372TIP3   OH228079   2.892   5.460   3.674 -0.0366  0.3239  0.1395
 9372TIP3    H128080   2.911   5.440   3.582 -0.2916  1.1270 -0.0959
 9372TIP3    H228081   2.797   5.449   3.681 -0.2207  1.5788 -0.0492
 9373TIP3   OH228082   0.365   3.229   5.491 -0.2282 -0.6104  0.1878
 9373TIP3    H128083   0.431   3.177   5.445  1.7316 -0.1721  2.2899
 9373TIP3    H228084   0.365   3.193   5.580 -0.5211  1.4626  1.0727
 9374TIP3   OH228085   6.837   2.528   5.018 -0.2670 -0.4031  0.1400
 9374TIP3    H128086   6.896   2.527   4.942 -1.4025  0.0669 -0.7914
 9374TIP3    H228087   6.799   2.440   5.019 -1.9173  0.2298 -1.2531
 9375TIP3   OH228088   0.504   4.422   5.655 -0.1545  0.6123  0.5972
 9375TIP3    H128089   0.483   4.411   5.748  0.9594 -0.1313  0.7856
 9375TIP3    H228090   0.583   4.370   5.642 -0.3282  0.6523 -0.7941
 9376TIP3   OH228091   6.247   5.929   2.572 -0.1827  0.1253 -0.0560
 9376TIP3    H128092   6.227   5.956   2.483  0.8307  0.7815 -0.0911
 9376TIP3    H228093   6.323   5.872   2.564 -0.0574  0.2268  0.3949
 9377TIP3   OH228094   4.995   5.241   5.844 -0.3352  0.0412 -0.1916
 9377TIP3    H128095   5.062   5.309   5.855  0.4295 -0.7865  0.4235
 9377TIP3    H228096   4.913   5.285   5.864  0.4465 -0.0735  4.3119
 9378TIP3   OH228097   0.408   0.180   4.947  0.4368  0.4677 -0.3676
 9378TIP3    H128098   0.357   0.109   4.984  0.2350  0.7781 -0.0413
 9378TIP3    H228099   0.497   0.147   4.942  0.5595  0.5798  0.8346
 9379TIP3   OH228100   6.923   3.606   0.413 -0.2660 -0.0215  0.2233
 9379TIP3    H128101   6.858   3.628   0.480 -1.3589 -2.4999  0.0644
 9379TIP3    H228102   6.929   3.510   0.415  0.6473 -0.1034 -2.3247
 9380TIP3   OH228103   3.228   5.382   3.490  0.4486  0.3981  0.2157
 9380TIP3    H128104   3.304   5.439   3.499  2.3521 -1.8433 -0.6153
 9380TIP3    H228105   3.263   5.300   3.454 -2.4457 -0.5869 -0.6557
 9381TIP3   OH228106   4.252   2.870   1.322  0.1027 -0.0062 -0.5506
 9381TIP3    H128107   4.255   2.778   1.297  0.8627  0.5557 -2.8416
 9381TIP3    H228108   4.243   2.917   1.239 -0.8765  1.9746  0.5887
 9382TIP3   OH228109   5.240   4.222   3.270 -0.6049  0.2825  0.3242
 9382TIP3    H128110   5.324   4.238   3.227 -0.3912 -0.1830  0.5601
 9382TIP3    H228111   5.202   4.149   3.220  0.0870 -0.9320  1.5082
 9383TIP3   OH228112   3.439   6.206   4.424  0.3479  0.0272  0.3149
 9383TIP3    H128113   3.487   6.279   4.385  2.4591 -0.7428  1.2776
 9383TIP3    H228114   3.353   6.208   4.382  1.4824  0.9946 -2.1993
 9384TIP3   OH228115   3.650   0.526   2.748 -0.0019 -0.3586 -0.0605
 9384TIP3    H128116   3.653   0.596   2.813  0.5403  0.8661 -1.3710
 9384TIP3    H228117   3.557   0.509   2.735 -0.1564  0.6640 -0.2987
 9385TIP3   OH228118   6.738   2.113   5.701 -0.4417  0.1269 -0.0861
 9385TIP3    H128119   6.818   2.123   5.650  0.2658 -1.8699  0.5332
 9385TIP3    H228120   6.704   2.027   5.676 -2.7278  1.1349 -0.7263
 9386TIP3   OH228121   4.497   5.549   0.411  0.1978  0.0375  0.0345
 9386TIP3    H128122   4.555   5.478   0.438 -0.9055 -0.5548  0.9179
 9386TIP3    H228123   4.416   5.534   0.459 -0.2441  1.6036 -0.1529
 9387TIP3   OH228124   3.663   2.532   5.295  0.0101  0.0836 -0.6272
 9387TIP3    H128125   3.605   2.536   5.371 -0.4125  0.4515 -0.9618
 9387TIP3    H228126   3.607   2.502   5.224  0.2420  0.4028 -0.9462
 9388TIP3   OH228127   5.737   4.418   4.032  0.4455 -0.1411 -0.3602
 9388TIP3    H128128   5.695   4.503   4.043  0.7969  0.1568 -1.2517
 9388TIP3    H228129   5.698   4.363   4.100 -2.8011 -0.4377 -2.2862
 9389TIP3   OH228130   1.605   4.271   4.125 -0.3345  0.3721 -0.4007
 9389TIP3    H128131   1.614   4.305   4.036 -2.1439 -2.0160 -1.6200
 9389TIP3    H228132   1.520   4.305   4.155 -0.1918  0.3539  0.0277
 9390TIP3   OH228133   1.818   3.426   1.306  0.0174 -0.6222  0.1103
 9390TIP3    H128134   1.885   3.411   1.239 -1.8302  1.0342 -2.2749
 9390TIP3    H228135   1.867   3.427   1.389  2.7340 -0.7630 -1.3781
 9391TIP3   OH228136   0.761   2.890   4.416 -0.4101 -0.2203 -0.1849
 9391TIP3    H128137   0.838   2.927   4.373 -0.8087  0.5025 -0.2966
 9391TIP3    H228138   0.774   2.795   4.412  1.0909 -0.0935  0.9346
 9392TIP3   OH228139   6.957   4.971   4.115  0.2530 -0.4529  0.2932
 9392TIP3    H128140   6.887   5.025   4.152  0.8038  0.0421  0.6411
 9392TIP3    H228141   7.019   4.961   4.187  0.2958 -1.3240  0.1443
 9393TIP3   OH228142   3.338   5.639   4.990 -0.2017  0.0530  0.0728
 9393TIP3    H128143   3.418   5.675   4.951  0.1891  1.2615  1.8665
 9393TIP3    H228144   3.323   5.693   5.068 -2.5461 -0.4266  0.0138
 9394TIP3   OH228145   4.496   2.966   1.390 -0.1023 -0.1218  0.7424
 9394TIP3    H128146   4.402   2.947   1.391 -0.2059  0.3597  2.2984
 9394TIP3    H228147   4.517   2.992   1.480  1.4806  0.0100  0.3736
 9395TIP3   OH228148   1.899   2.265   0.928  0.1309 -0.0233 -0.1278
 9395TIP3    H128149   1.880   2.177   0.895  1.9424 -0.4792 -0.0540
 9395TIP3    H228150   1.837   2.321   0.882 -0.1620 -1.1659 -1.1932
 9396TIP3   OH228151   0.651   6.403   0.771 -0.6871  0.1972  0.6825
 9396TIP3    H128152   0.622   6.488   0.739 -0.3961  0.5523  1.3338
 9396TIP3    H228153   0.655   6.414   0.866  0.2933 -0.2516  0.7024
 9397TIP3   OH228154   4.780   5.196   2.100  0.7708  0.8130 -0.0206
 9397TIP3    H128155   4.742   5.122   2.148  0.6648  2.0865  1.9930
 9397TIP3    H228156   4.790   5.164   2.010 -1.5561 -0.8307  0.2055
 9398TIP3   OH228157   0.972   6.193   4.108 -0.0240  0.6663 -0.3582
 9398TIP3    H128158   0.959   6.170   4.200 -0.8101 -0.8632 -0.8172
 9398TIP3    H228159   0.944   6.285   4.102 -0.8757  0.5029  0.7568
 9399TIP3   OH228160   0.829   3.194   1.043  0.0822 -0.0478 -0.2972
 9399TIP3    H128161   0.777   3.114   1.048  0.7727 -0.4986 -0.1466
 9399TIP3    H228162   0.765   3.264   1.033 -0.5959 -0.5164  0.6193
 9400TIP3   OH228163   2.071   2.680   2.230 -0.1222  0.0019 -0.4612
 9400TIP3    H128164   2.141   2.626   2.266 -1.2722 -0.7944  0.7227
 9400TIP3    H228165   2.115   2.747   2.178  1.3665 -2.1694 -2.1736
 9401TIP3   OH228166   4.280   2.105   2.781 -0.9013  0.3757 -0.1089
 9401TIP3    H128167   4.328   2.079   2.860  1.1981  1.5853 -0.9092
 9401TIP3    H228168   4.320   2.053   2.711  0.8292  2.9255 -1.1348
 9402TIP3   OH228169   5.461   4.065   5.573  0.6608  0.9032 -0.1151
 9402TIP3    H128170   5.373   4.042   5.603  0.6914  1.0420  0.0841
 9402TIP3    H228171   5.502   4.107   5.649  1.0090  0.5590 -0.1077
 9403TIP3   OH228172   4.254   5.683  -0.006  0.0099  0.4103  0.1986
 9403TIP3    H128173   4.307   5.692   0.073  0.7708  1.5330 -0.4171
 9403TIP3    H228174   4.294   5.610  -0.054 -0.1577  0.0450  0.6108
 9404TIP3   OH228175   3.563   6.589   2.924 -0.2580 -0.4595  0.1335
 9404TIP3    H128176   3.623   6.519   2.949 -1.0067 -1.6023 -1.1431
 9404TIP3    H228177   3.558   6.584   2.829 -2.1209 -0.1892  0.1772
 9405TIP3   OH228178   0.641   2.638   2.556  0.0353  0.2020  0.0047
 9405TIP3    H128179   0.565   2.674   2.601 -1.0883 -2.2512  0.2341
 9405TIP3    H228180   0.650   2.549   2.592  0.9293 -0.7759 -2.4358
 9406TIP3   OH228181   3.591   2.311   0.563  0.1652 -0.7374  1.0377
 9406TIP3    H128182   3.577   2.399   0.528 -1.1896 -0.4382  2.2210
 9406TIP3    H228183   3.661   2.274   0.509 -0.2385  0.5273 -0.4114
 9407TIP3   OH228184   1.437   0.260   2.462 -0.0904  0.0173  0.0017
 9407TIP3    H128185   1.432   0.168   2.485 -2.7801  0.3764  1.1884
 9407TIP3    H228186   1.366   0.274   2.399  0.1424  1.3267 -0.0095
 9408TIP3   OH228187   3.217   2.565   1.154 -0.2872  0.2992 -0.1250
 9408TIP3    H128188   3.221   2.488   1.210  0.1403 -1.2124 -2.1236
 9408TIP3    H228189   3.133   2.605   1.174 -0.3783 -0.4818  1.1816
 9409TIP3   OH228190   1.109   6.495   3.292 -0.3708 -0.6041 -0.1829
 9409TIP3    H128191   1.171   6.498   3.365 -0.4917 -0.7665 -0.0740
 9409TIP3    H228192   1.116   6.582   3.251 -2.2654  0.5127  1.6611
 9410TIP3   OH228193   5.165   2.669   2.354 -0.2373  0.1370 -0.4023
 9410TIP3    H128194   5.075   2.638   2.350  0.0680 -0.8839  0.1683
 9410TIP3    H228195   5.217   2.588   2.358  0.6836  0.7183 -0.4632
 9411TIP3   OH228196   6.242   5.751   3.640 -0.3712 -0.1337  0.1069
 9411TIP3    H128197   6.258   5.845   3.633 -0.4944 -0.0882  0.4044
 9411TIP3    H228198   6.326   5.711   3.617  0.3648  0.1239  2.1224
 9412TIP3   OH228199   4.101   3.453   3.385 -0.1477  0.0479  0.1731
 9412TIP3    H128200   4.097   3.369   3.339 -0.9252 -0.3230  0.8769
 9412TIP3    H228201   4.054   3.437   3.467  0.4850  0.9184  0.7296
 9413TIP3   OH228202   4.029   4.557   5.004  0.0130 -0.2628  0.0961
 9413TIP3    H128203   3.972   4.560   5.081  0.3919 -1.9181  0.4653
 9413TIP3    H228204   3.971   4.535   4.931 -0.5313  2.2673 -0.3555
 9414TIP3   OH228205   4.970   3.856   5.520  0.1355 -0.0244  0.7495
 9414TIP3    H128206   5.060   3.863   5.491  0.6867  0.0027  2.3534
 9414TIP3    H228207   4.976   3.832   5.613 -1.5113 -1.6566  0.4963
 9415TIP3   OH228208   4.267   1.463   0.714  0.1651  0.0687 -0.3260
 9415TIP3    H128209   4.318   1.537   0.747 -0.2013 -0.0279  0.4835
 9415TIP3    H228210   4.201   1.448   0.782 -0.8151  0.0603 -1.2512
 9416TIP3   OH228211   3.199   1.076   4.175 -0.1219 -0.1332 -0.3117
 9416TIP3    H128212   3.227   1.004   4.231 -0.4046 -1.2686 -1.5986
 9416TIP3    H228213   3.277   1.100   4.126 -0.7762 -1.8709 -2.3398
 9417TIP3   OH228214   4.828   5.091   4.018 -0.4809 -0.2650  0.3746
 9417TIP3    H128215   4.775   5.063   4.092 -1.2864 -1.3423 -0.5684
 9417TIP3    H228216   4.900   5.141   4.057 -2.3198  1.5188  1.6698
 9418TIP3   OH228217   0.711   2.154   2.052 -0.1813  0.2188 -0.2238
 9418TIP3    H128218   0.804   2.176   2.048  0.1258 -1.0257 -0.2424
 9418TIP3    H228219   0.678   2.175   1.964 -0.0139  1.0247 -0.1018
 9419TIP3   OH228220   2.637   1.921   4.770 -0.5998  0.3832  0.2694
 9419TIP3    H128221   2.605   1.838   4.736 -0.3582  0.4663 -0.1795
 9419TIP3    H228222   2.563   1.981   4.762 -1.6302 -0.3733  2.9631
 9420TIP3   OH228223   4.138   6.328   3.406 -0.5122  0.1101  0.4809
 9420TIP3    H128224   4.171   6.258   3.350 -1.5071  0.8994 -1.1777
 9420TIP3    H228225   4.183   6.316   3.490  2.1327 -0.3008 -0.8961
 9421TIP3   OH228226   3.932   2.230   4.705 -0.6257  0.5208 -0.1608
 9421TIP3    H128227   4.020   2.230   4.667 -0.1637 -1.7061  0.7725
 9421TIP3    H228228   3.875   2.256   4.632  0.7797  2.0843 -0.7545
 9422TIP3   OH228229   6.740   4.398   0.652  0.0622  0.0567  0.4681
 9422TIP3    H128230   6.782   4.421   0.735 -0.7155 -1.1639  1.2287
 9422TIP3    H228231   6.667   4.459   0.644 -0.9976 -1.0066  1.6526
 9423TIP3   OH228232   2.828   1.477   5.297 -0.2214 -0.0214  0.5012
 9423TIP3    H128233   2.891   1.419   5.338  0.5973  1.4932  1.4947
 9423TIP3    H228234   2.882   1.538   5.245 -0.8509  1.1470  1.1788
 9424TIP3   OH228235   2.814   2.640   2.828  0.2648  0.0972 -0.1266
 9424TIP3    H128236   2.790   2.551   2.804 -0.4729  0.9779 -3.1062
 9424TIP3    H228237   2.732   2.680   2.857 -0.2254  0.7030 -2.1511
 9425TIP3   OH228238   6.215   3.935   2.754  0.1666  0.0635  0.3482
 9425TIP3    H128239   6.231   3.842   2.767  1.9743  0.2357 -0.2408
 9425TIP3    H228240   6.145   3.939   2.689  0.6493 -0.9271 -0.2657
 9426TIP3   OH228241   5.445   4.075   4.248  0.0607  0.3651  0.2844
 9426TIP3    H128242   5.520   4.064   4.189 -0.1444  1.1466 -0.1295
 9426TIP3    H228243   5.368   4.070   4.191 -0.2942 -1.6688  0.8585
 9427TIP3   OH228244   2.235   0.794   0.350  0.0100  0.0537 -0.0336
 9427TIP3    H128245   2.307   0.834   0.399 -0.8598  0.6724  0.7969
 9427TIP3    H228246   2.181   0.752   0.417 -1.3475  1.1305 -0.4081
 9428TIP3   OH228247   7.196   1.055   3.380  0.3587 -0.4774  0.1986
 9428TIP3    H128248   7.224   1.067   3.471  2.4901  0.0512 -0.4731
 9428TIP3    H228249   7.143   1.131   3.361 -0.4060 -0.7675  1.0937
 9429TIP3   OH228250   4.576   0.229   4.267 -0.4752 -0.1302  0.3370
 9429TIP3    H128251   4.513   0.168   4.229  0.5174 -0.4382 -0.8870
 9429TIP3    H228252   4.649   0.174   4.296 -1.2952  0.0586  3.0516
 9430TIP3   OH228253   1.414   4.359   5.703 -0.0462 -0.1125 -0.4388
 9430TIP3    H128254   1.382   4.284   5.653 -0.6862  0.5411 -1.0270
 9430TIP3    H228255   1.493   4.387   5.656  1.6561 -1.8959  1.1690
 9431TIP3   OH228256   2.067   5.780   0.465 -0.3372  0.1380  0.3172
 9431TIP3    H128257   2.035   5.865   0.435 -1.2447  0.2584  1.5911
 9431TIP3    H228258   2.023   5.716   0.408 -0.2643  0.4716 -0.1190
 9432TIP3   OH228259   1.781   2.392   2.264 -0.4446 -0.1316  0.1769
 9432TIP3    H128260   1.793   2.301   2.289 -1.4597  0.2845  2.3507
 9432TIP3    H228261   1.690   2.398   2.237 -0.4742  0.3061  0.3615
 9433TIP3   OH228262   2.537   3.148   1.532 -0.2815  0.1820  0.3098
 9433TIP3    H128263   2.552   3.071   1.586 -0.3744  0.4214  0.6839
 9433TIP3    H228264   2.619   3.197   1.536  0.4059 -0.7591 -1.3714
 9434TIP3   OH228265   1.336   0.179   1.975 -0.1851 -0.1419  0.0930
 9434TIP3    H128266   1.401   0.202   1.908  0.4695  1.6648  1.2710
 9434TIP3    H228267   1.355   0.088   1.997  1.0558 -0.0678 -0.5604
 9435TIP3   OH228268   6.883   2.893   1.581  0.5803 -0.5504 -0.0718
 9435TIP3    H128269   6.972   2.920   1.560 -0.0355  0.2077 -1.8585
 9435TIP3    H228270   6.844   2.871   1.497 -1.5284  1.0310  0.4178
 9436TIP3   OH228271   3.784   3.667   3.148  0.1805 -0.3088 -0.1521
 9436TIP3    H128272   3.852   3.622   3.197  0.7097 -0.9923 -1.4739
 9436TIP3    H228273   3.808   3.656   3.056 -0.8834  0.7687 -0.5967
 9437TIP3   OH228274   6.012   6.420   1.457  0.2705 -0.0489  0.3795
 9437TIP3    H128275   5.976   6.503   1.426 -0.4701  0.3884  2.2700
 9437TIP3    H228276   6.093   6.445   1.502  0.7890 -0.5484 -0.2501
 9438TIP3   OH228277   4.832   0.829   0.265  0.0751  0.4631 -0.0414
 9438TIP3    H128278   4.872   0.772   0.199 -0.8091  0.6462 -0.7585
 9438TIP3    H228279   4.760   0.778   0.302 -1.2641  1.3698 -1.2928
 9439TIP3   OH228280   5.860   5.524   3.922  0.2427  0.0333 -0.2359
 9439TIP3    H128281   5.951   5.536   3.893 -0.3241  1.0266 -1.7236
 9439TIP3    H228282   5.842   5.601   3.976  0.2111 -0.0607 -0.1109
 9440TIP3   OH228283   5.844   2.341   4.223  0.2877 -0.0854 -0.0337
 9440TIP3    H128284   5.922   2.336   4.168  0.2957 -2.1427  0.1125
 9440TIP3    H228285   5.795   2.416   4.188  1.2738 -0.0882 -1.5131
 9441TIP3   OH228286   2.852   1.101   4.556  0.2496 -0.1582 -0.1604
 9441TIP3    H128287   2.942   1.132   4.552  0.3440 -0.3839  0.2120
 9441TIP3    H228288   2.832   1.075   4.466  0.5539 -0.1070 -0.2446
 9442TIP3   OH228289   5.206   5.064   4.848  0.0721  0.0584  0.2303
 9442TIP3    H128290   5.230   4.998   4.783  0.3966 -0.1841  0.5933
 9442TIP3    H228291   5.275   5.059   4.914 -1.2946 -1.1769  1.6724
 9443TIP3   OH228292   1.637   0.804   2.278  0.6619 -0.2245 -0.4114
 9443TIP3    H128293   1.715   0.812   2.223 -1.2291  3.0064 -3.0668
 9443TIP3    H228294   1.571   0.766   2.220 -0.8943  1.4234  0.1706
 9444TIP3   OH228295   5.874   4.701   4.185 -0.7443  0.3789 -0.0304
 9444TIP3    H128296   5.897   4.789   4.157 -1.0016  0.5509  0.2942
 9444TIP3    H228297   5.871   4.706   4.280  1.7246 -0.5811  0.1852
 9445TIP3   OH228298   0.204   5.581   2.606  0.5526 -0.2465  0.7248
 9445TIP3    H128299   0.135   5.518   2.584  0.1886  0.0280  1.0515
 9445TIP3    H228300   0.264   5.532   2.662  0.0491 -0.1958  1.3241
 9446TIP3   OH228301   5.105   3.341   3.617  0.9921  0.4586 -0.2789
 9446TIP3    H128302   5.169   3.270   3.621  2.3823  1.6852  0.1992
 9446TIP3    H228303   5.058   3.335   3.700  0.3338 -0.5519 -0.7010
 9447TIP3   OH228304   3.495   4.702   0.689 -0.2984  0.6315 -0.1202
 9447TIP3    H128305   3.579   4.743   0.666 -0.7223  0.9697 -1.0962
 9447TIP3    H228306   3.520   4.628   0.745  0.7534 -0.1052 -1.5068
 9448TIP3   OH228307   3.054   3.686   0.988 -0.1827 -0.2773 -0.3383
 9448TIP3    H128308   2.979   3.695   1.046 -0.1830 -1.4522 -0.1271
 9448TIP3    H228309   3.024   3.720   0.904 -0.8074 -0.3360 -0.1414
 9449TIP3   OH228310   2.676   0.625   2.724 -0.4984 -0.0647 -0.2837
 9449TIP3    H128311   2.675   0.541   2.771 -2.0881  0.4572  0.6742
 9449TIP3    H228312   2.746   0.675   2.766 -1.7491  0.3124  1.4681
 9450TIP3   OH228313   4.186   5.678   0.866  0.2279 -0.1526 -0.1217
 9450TIP3    H128314   4.194   5.749   0.802  0.4287  0.2745  0.3715
 9450TIP3    H228315   4.275   5.658   0.893  0.0902  0.3541  0.7566
 9451TIP3   OH228316   5.837   0.189   3.012 -0.6112 -0.3725 -0.1994
 9451TIP3    H128317   5.913   0.136   3.035 -0.5610  0.3352  1.3995
 9451TIP3    H228318   5.819   0.241   3.090 -1.1280  1.4207 -1.4477
 9452TIP3   OH228319   6.084   5.515   1.647 -0.5651  0.1116 -0.4908
 9452TIP3    H128320   6.064   5.603   1.614  0.5668  0.4626 -0.2755
 9452TIP3    H228321   6.107   5.465   1.569 -5.5655 -1.4046 -1.3911
 9453TIP3   OH228322   2.250   3.375   5.202 -0.5498 -0.4116  0.0737
 9453TIP3    H128323   2.312   3.312   5.164  0.8230  1.0055 -0.1517
 9453TIP3    H228324   2.216   3.331   5.280  0.6297 -1.3016  0.1153
 9454TIP3   OH228325   5.589   3.785   3.810  0.1823  0.5430  0.4058
 9454TIP3    H128326   5.596   3.723   3.882  0.9506  0.9342  0.6730
 9454TIP3    H228327   5.526   3.850   3.841 -0.4403  0.0493  0.2197
 9455TIP3   OH228328   2.538   3.106   4.746  0.2359  0.0612  0.1070
 9455TIP3    H128329   2.582   3.119   4.830 -0.8058  0.4111  0.6170
 9455TIP3    H228330   2.500   3.191   4.725  0.6747  0.0431 -0.8507
 9456TIP3   OH228331   0.746   0.425   4.143 -0.5592 -0.6284  0.4612
 9456TIP3    H128332   0.774   0.405   4.232 -0.0670 -1.3089  0.1588
 9456TIP3    H228333   0.698   0.508   4.151  1.9891  0.9364  0.9648
 9457TIP3   OH228334   2.164   1.824   0.224  0.2109  0.0955 -0.0306
 9457TIP3    H128335   2.130   1.907   0.193  1.9662  0.1196 -2.0695
 9457TIP3    H228336   2.116   1.758   0.173  1.5961  0.0570 -1.3520
 9458TIP3   OH228337   0.456   1.426   4.103  0.2571  0.6173  0.0413
 9458TIP3    H128338   0.433   1.517   4.117 -0.0594  0.6354 -0.5928
 9458TIP3    H228339   0.379   1.377   4.132 -0.2805  0.6407 -1.3062
 9459TIP3   OH228340   1.905   5.696   2.226  0.2176 -0.0696  0.1926
 9459TIP3    H128341   1.922   5.610   2.188 -1.1012  0.3348 -1.4648
 9459TIP3    H228342   1.981   5.749   2.200 -0.9373  0.3904 -2.7295
 9460TIP3   OH228343   2.960   1.801   1.929  0.2172  0.2473  0.2490
 9460TIP3    H128344   2.977   1.737   1.860  0.1464 -0.5707  0.9702
 9460TIP3    H228345   3.045   1.841   1.947  0.6560 -1.0304  1.1215
 9461TIP3   OH228346   6.551   3.892   1.293  0.3674  0.2896 -0.3442
 9461TIP3    H128347   6.514   3.868   1.208 -0.9001  1.4504 -0.1632
 9461TIP3    H228348   6.484   3.865   1.356  0.6680  0.6981  0.1536
 9462TIP3   OH228349   1.818   1.549   1.179 -0.1293 -0.2899 -0.1411
 9462TIP3    H128350   1.863   1.583   1.101  1.1586 -2.3845 -0.4008
 9462TIP3    H228351   1.736   1.514   1.146 -0.2386  0.1235 -0.3119
 9463TIP3   OH228352   1.705   6.522   3.075 -0.3885  0.0414  0.2336
 9463TIP3    H128353   1.766   6.553   3.008 -0.9201 -0.8023 -0.6751
 9463TIP3    H228354   1.621   6.513   3.030  0.0110 -4.1283 -0.1163
 9464TIP3   OH228355   1.669   5.398   0.942  0.3331 -0.1297  0.6646
 9464TIP3    H128356   1.649   5.484   0.981  0.8355  1.1908 -1.8064
 9464TIP3    H228357   1.757   5.408   0.907  0.0101 -1.3089 -0.5443
 9465TIP3   OH228358   6.434   3.822   5.799 -0.5681 -0.3128 -0.4899
 9465TIP3    H128359   6.476   3.771   5.730  1.0631 -0.8865  0.8304
 9465TIP3    H228360   6.434   3.764   5.875 -2.4378  0.2375 -0.0223
 9466TIP3   OH228361   4.356   3.773   5.867  0.5222 -0.6677  0.2677
 9466TIP3    H128362   4.365   3.806   5.778  0.3986 -0.5395  0.3030
 9466TIP3    H228363   4.441   3.733   5.886  0.1615 -1.7977 -0.3500
 9467TIP3   OH228364   6.451   6.191   3.335 -0.5202  0.2315  0.6397
 9467TIP3    H128365   6.431   6.249   3.262  2.1590  1.5227  0.8301
 9467TIP3    H228366   6.492   6.248   3.400 -0.1466 -1.4345  1.9269
 9468TIP3   OH228367   5.185   3.996   1.470  0.0125 -0.4511 -0.4203
 9468TIP3    H128368   5.270   3.974   1.509 -0.3933 -1.1212  0.1172
 9468TIP3    H228369   5.121   3.971   1.536 -0.7175 -1.9818 -1.6369
 9469TIP3   OH228370   1.167   3.395   5.392 -0.0572 -0.1080  0.5841
 9469TIP3    H128371   1.154   3.465   5.327  0.8561  0.0300  0.5401
 9469TIP3    H228372   1.183   3.317   5.340 -2.5971 -0.7109  0.5969
 9470TIP3   OH228373   6.107   2.169   3.011  0.3919 -0.6021  0.2951
 9470TIP3    H128374   6.075   2.079   3.008  1.9687 -1.1991  0.1729
 9470TIP3    H228375   6.071   2.210   2.932  1.3216 -1.7400 -0.7586
 9471TIP3   OH228376   5.535   4.319   0.614  0.3468 -0.1793  0.8170
 9471TIP3    H128377   5.469   4.314   0.684 -0.4187 -2.3608  0.0375
 9471TIP3    H228378   5.601   4.254   0.639  0.9415  0.2363  0.3454
 9472TIP3   OH228379   7.045   1.864   5.576 -0.3362 -0.4992  0.4476
 9472TIP3    H128380   7.030   1.778   5.536  1.5426 -0.2027 -1.0180
 9472TIP3    H228381   6.966   1.914   5.554 -1.7873 -2.0286  1.9681
 9473TIP3   OH228382   6.147   0.384   0.919 -0.6119 -0.0998  0.4895
 9473TIP3    H128383   6.199   0.352   0.993 -0.0254  0.8328  0.4990
 9473TIP3    H228384   6.105   0.464   0.952 -0.0709  0.5180 -0.2849
 9474TIP3   OH228385   3.437   0.929   4.561  0.0318  0.0322 -0.1629
 9474TIP3    H128386   3.387   1.001   4.600  1.5379  1.3970 -0.6460
 9474TIP3    H228387   3.522   0.967   4.539  1.4066 -2.2337  0.7861
 9475TIP3   OH228388   1.492   1.776   2.451 -0.3210 -0.5095 -0.2753
 9475TIP3    H128389   1.463   1.686   2.465  0.8736 -0.8216  0.3233
 9475TIP3    H228390   1.523   1.777   2.361 -0.0160 -0.7957 -0.1759
 9476TIP3   OH228391   6.417   5.528   5.340 -0.2385  0.0431 -0.0016
 9476TIP3    H128392   6.390   5.601   5.395  0.6418  0.3635  0.0159
 9476TIP3    H228393   6.373   5.542   5.257  0.5393  1.0340 -0.2612
 9477TIP3   OH228394   0.130   3.208   1.280 -0.2526 -0.1611 -0.5562
 9477TIP3    H128395   0.064   3.262   1.323  0.2689 -1.0599  1.5239
 9477TIP3    H228396   0.174   3.162   1.352 -0.1804 -2.7916 -2.1549
 9478TIP3   OH228397   5.956   5.631   2.859 -0.3214  0.1541 -0.2306
 9478TIP3    H128398   6.006   5.713   2.869 -0.8303  0.4943 -0.4598
 9478TIP3    H228399   5.977   5.602   2.770  0.3255 -0.2862  0.0530
 9479TIP3   OH228400   4.960   3.459   0.771  0.4941  0.0845 -0.0689
 9479TIP3    H128401   4.877   3.499   0.744  0.1346  2.1144  3.4386
 9479TIP3    H228402   4.935   3.395   0.838  1.6610 -0.9229 -0.5503
 9480TIP3   OH228403   1.112   1.150   2.005 -0.7900  0.4926 -0.0139
 9480TIP3    H128404   1.058   1.101   2.067  1.0424 -1.3581  0.2283
 9480TIP3    H228405   1.159   1.214   2.059 -0.5432  0.1090  0.2291
 9481TIP3   OH228406   4.550   4.110   1.757  0.5213  0.7068  0.2269
 9481TIP3    H128407   4.512   4.112   1.845 -1.4094 -2.3056 -0.3838
 9481TIP3    H228408   4.484   4.151   1.702  0.7460  0.6239 -0.1061
 9482TIP3   OH228409   2.693   2.752   0.888  0.4424 -0.2579  0.1956
 9482TIP3    H128410   2.753   2.693   0.842  1.5250  0.3456  0.7914
 9482TIP3    H228411   2.679   2.711   0.973  0.5228 -0.0928  0.2908
 9483TIP3   OH228412   4.091   3.327   3.108 -0.2401 -0.1399 -0.0409
 9483TIP3    H128413   4.019   3.264   3.102 -1.2796  1.1225 -1.7500
 9483TIP3    H228414   4.049   3.412   3.103  1.3187  0.6533 -0.3016
 9484TIP3   OH228415   3.132   3.251   3.685 -0.5731  0.4597  0.3074
 9484TIP3    H128416   3.113   3.165   3.721  1.1254  0.3212  0.9491
 9484TIP3    H228417   3.171   3.300   3.757  0.4085  1.0735 -0.5944
 9485TIP3   OH228418   2.943   4.577   5.089  0.0779 -0.1251 -0.5884
 9485TIP3    H128419   2.933   4.643   5.158 -2.6202  1.6106 -2.4339
 9485TIP3    H228420   2.917   4.494   5.131 -1.5006  0.8771  0.5443
 9486TIP3   OH228421   4.826   0.041   0.736 -0.3151 -0.3603 -0.0909
 9486TIP3    H128422   4.746   0.033   0.684  0.6135 -1.4604 -1.4301
 9486TIP3    H228423   4.876   0.110   0.692 -0.0634 -0.4127  0.1114
 9487TIP3   OH228424   4.199   3.100   4.479  0.3773  0.0838 -0.1617
 9487TIP3    H128425   4.173   3.185   4.444  1.6773  1.1001  1.2044
 9487TIP3    H228426   4.195   3.041   4.404  1.3914  1.7867 -1.6239
 9488TIP3   OH228427   1.481   0.487   3.805  0.1650 -0.2477  0.1499
 9488TIP3    H128428   1.502   0.414   3.747  0.4036 -1.5112  1.7475
 9488TIP3    H228429   1.488   0.450   3.893 -0.1013  1.6126  0.9989
 9489TIP3   OH228430   1.954   5.426   2.200 -0.2757  0.7997  0.3470
 9489TIP3    H128431   1.869   5.411   2.243 -0.2394 -1.1160 -0.1391
 9489TIP3    H228432   1.977   5.341   2.163  1.3849  1.5403 -0.4274
 9490TIP3   OH228433   1.898   1.176   0.259  0.2499 -0.2679 -0.4986
 9490TIP3    H128434   1.831   1.110   0.275 -0.2310 -0.0520 -1.5370
 9490TIP3    H228435   1.975   1.126   0.231 -0.4054 -0.3731 -2.2450
 9491TIP3   OH228436   3.482   2.508   3.274  0.4980 -0.0330  0.3547
 9491TIP3    H128437   3.438   2.590   3.298  0.3810 -0.3141  1.1062
 9491TIP3    H228438   3.426   2.439   3.309  0.1197 -0.4798 -1.0455
 9492TIP3   OH228439   5.518   4.292   3.263 -0.1614 -0.3569  0.3798
 9492TIP3    H128440   5.613   4.290   3.272 -0.1463 -1.0353  0.1496
 9492TIP3    H228441   5.486   4.228   3.327 -0.4702 -0.0561  0.5301
 9493TIP3   OH228442   5.306   5.005   2.516  0.0338  0.5385  0.0459
 9493TIP3    H128443   5.357   4.934   2.554  1.2824  1.8670  0.9814
 9493TIP3    H228444   5.282   4.974   2.429  1.6596 -0.5262 -0.0551
 9494TIP3   OH228445   4.665   2.005   0.526  0.3258 -0.4618  0.2214
 9494TIP3    H128446   4.606   2.015   0.601  1.9103 -2.6104  1.9176
 9494TIP3    H228447   4.655   2.085   0.475 -0.5191  1.3215  2.9886
 9495TIP3   OH228448   4.622   5.470   4.051 -0.0810 -0.3382  0.2210
 9495TIP3    H128449   4.702   5.454   4.101  0.5191  0.2823 -0.5085
 9495TIP3    H228450   4.640   5.432   3.965  1.1859  3.4357 -1.3941
 9496TIP3   OH228451   1.516   0.908   1.405 -0.2331 -0.0187  0.4317
 9496TIP3    H128452   1.540   0.820   1.433 -1.2619 -0.7323 -0.8568
 9496TIP3    H228453   1.429   0.922   1.442  0.6330  1.2296  2.1933
 9497TIP3   OH228454   2.479   2.139   3.624  0.9076  0.0621 -0.5247
 9497TIP3    H128455   2.490   2.062   3.679  0.5278  0.7154  0.4827
 9497TIP3    H228456   2.401   2.183   3.658  0.5793  0.4175 -1.6661
 9498TIP3   OH228457   6.667   2.688   5.201 -0.4913 -0.1407  0.0562
 9498TIP3    H128458   6.741   2.672   5.143 -1.7107 -0.6975 -1.4387
 9498TIP3    H228459   6.672   2.618   5.266 -0.9794 -1.6091 -1.4138
 9499TIP3   OH228460   0.163   4.375   3.827 -0.0089 -0.1065  0.1711
 9499TIP3    H128461   0.180   4.422   3.909  0.2328 -0.6283  0.4250
 9499TIP3    H228462   0.076   4.338   3.839  1.1411 -2.6556  1.4259
 9500TIP3   OH228463   0.689   4.812   3.921 -0.1242 -0.9395 -0.3701
 9500TIP3    H128464   0.758   4.769   3.871  1.5619 -0.4943  1.4401
 9500TIP3    H228465   0.720   4.902   3.932 -0.7972 -0.8268  0.8042
 9501TIP3   OH228466   3.420   3.002   3.313  0.5563  0.2610  0.2882
 9501TIP3    H128467   3.360   3.059   3.361  0.2801 -0.0570  0.3248
 9501TIP3    H228468   3.455   3.058   3.243  0.9350  0.7152  0.8330
 9502TIP3   OH228469   3.380   6.707   1.347 -0.0053 -0.0551 -0.6178
 9502TIP3    H128470   3.382   6.679   1.439  1.4965  3.1609  0.4895
 9502TIP3    H228471   3.464   6.677   1.312 -0.6597 -1.4540 -1.0819
 9503TIP3   OH228472   6.409   1.281   1.277 -0.1384 -0.0335 -0.4390
 9503TIP3    H128473   6.409   1.372   1.249  0.0019 -0.1097 -0.6888
 9503TIP3    H228474   6.473   1.278   1.349  0.7560 -0.1732 -1.2202
 9504TIP3   OH228475   1.945   2.661   2.469 -0.9095  0.0565  0.5410
 9504TIP3    H128476   1.989   2.684   2.386 -1.0524 -1.8202 -0.0974
 9504TIP3    H228477   1.901   2.742   2.495  2.2570  1.8440  0.8404
 9505TIP3   OH228478   5.589   5.145   1.578 -0.1550 -0.2083 -0.0184
 9505TIP3    H128479   5.671   5.188   1.554 -0.6078  1.0818  0.6399
 9505TIP3    H228480   5.534   5.154   1.500  0.4438 -1.4292 -0.6020
 9506TIP3   OH228481   1.479   4.567   1.960 -0.3701  0.5291  0.0922
 9506TIP3    H128482   1.522   4.532   1.882 -0.3645 -0.9159  0.7236
 9506TIP3    H228483   1.467   4.660   1.940  0.0959  0.2993 -1.4140
 9507TIP3   OH228484   4.538   2.037   3.642  0.0473 -0.0612  0.5512
 9507TIP3    H128485   4.561   2.025   3.550  1.5449  1.4395  0.6878
 9507TIP3    H228486   4.483   2.115   3.643  0.9140  0.5630  1.0118
 9508TIP3   OH228487   6.161   0.694   4.270  0.0483  0.5368 -0.4561
 9508TIP3    H128488   6.101   0.686   4.196 -0.1471 -0.9200 -0.1754
 9508TIP3    H228489   6.104   0.715   4.345  0.3173  2.6721 -0.7947
 9509TIP3   OH228490   5.945   3.460   5.741 -0.2808  0.4968 -0.3770
 9509TIP3    H128491   5.914   3.524   5.677  0.4188  2.7784  1.4343
 9509TIP3    H228492   5.890   3.472   5.817 -1.2289 -2.3177 -0.4819
 9510TIP3   OH228493   5.177   3.222   0.694  0.0242 -0.4490  0.5683
 9510TIP3    H128494   5.121   3.212   0.771  0.8962 -0.1059  1.2685
 9510TIP3    H228495   5.237   3.147   0.699 -0.8759 -1.2685 -0.6213
 9511TIP3   OH228496   0.580   2.756   2.967  0.4685 -0.0746  0.6455
 9511TIP3    H128497   0.586   2.676   3.019  0.4166 -0.3928  0.1681
 9511TIP3    H228498   0.663   2.801   2.982  0.1859  0.1636  1.5264
 9512TIP3   OH228499   3.827   4.988   5.723  0.2831  0.1502  0.2747
 9512TIP3    H128500   3.775   4.908   5.727  2.9591 -1.7522  0.2578
 9512TIP3    H228501   3.766   5.058   5.745 -2.4514 -1.7341 -0.7457
 9513TIP3   OH228502   4.488   6.106   3.324  0.1203 -0.7519 -0.0339
 9513TIP3    H128503   4.536   6.165   3.266 -1.5150 -2.0724 -2.9710
 9513TIP3    H228504   4.550   6.036   3.344  1.4351  0.8499  1.8593
 9514TIP3   OH228505   5.557   3.721   0.239 -0.1761  0.0085 -0.1529
 9514TIP3    H128506   5.598   3.701   0.155 -1.5243  1.0017 -1.0953
 9514TIP3    H228507   5.562   3.816   0.246 -1.0577  0.0277  0.3691
 9515TIP3   OH228508   2.787   1.605   2.362  0.2120  0.6265  0.0930
 9515TIP3    H128509   2.811   1.679   2.306 -0.3846  1.1340  0.4919
 9515TIP3    H228510   2.703   1.629   2.399  0.2298 -0.0503  0.6029
 9516TIP3   OH228511   6.121   1.015   1.880  0.1880  0.3526 -0.0057
 9516TIP3    H128512   6.187   1.084   1.871 -2.3405  2.9601 -0.1104
 9516TIP3    H228513   6.105   1.010   1.974  0.7261 -0.5095  0.0487
 9517TIP3   OH228514   6.856   4.047   2.842  0.1599  0.2033  0.1547
 9517TIP3    H128515   6.771   4.079   2.870  1.1499  0.3912  3.3062
 9517TIP3    H228516   6.839   3.958   2.809 -1.1846  0.0395  1.2149
 9518TIP3   OH228517   4.398   6.545   5.283  0.3327  0.6995 -0.3861
 9518TIP3    H128518   4.452   6.604   5.228 -0.7378  2.0813 -0.0079
 9518TIP3    H228519   4.308   6.566   5.258 -0.0760 -0.9724 -0.3866
 9519TIP3   OH228520   3.114   0.077   3.726  0.5437 -0.1067 -0.0262
 9519TIP3    H128521   3.168  -0.001   3.713 -0.0624 -0.4416 -0.5939
 9519TIP3    H228522   3.136   0.107   3.814  0.0250 -1.5154  0.6184
 9520TIP3   OH228523   6.941   2.214   5.536 -0.0227  0.2856 -0.1999
 9520TIP3    H128524   6.997   2.274   5.585  0.4528 -0.8752  0.7480
 9520TIP3    H228525   6.999   2.174   5.471 -0.1598  0.3071 -0.3360
 9521TIP3   OH228526   5.144   4.955   5.605  0.0512  0.3075 -0.4139
 9521TIP3    H128527   5.235   4.982   5.595  1.1999 -2.7565  0.4101
 9521TIP3    H228528   5.130   4.890   5.536 -1.8496  1.3911 -1.1132
 9522TIP3   OH228529   2.061   6.330   4.975  0.1675  0.5376 -0.0013
 9522TIP3    H128530   2.033   6.421   4.985  2.6170  1.5527 -1.3886
 9522TIP3    H228531   2.117   6.314   5.051  0.2323  0.4156 -0.0755
 9523TIP3   OH228532   2.744   6.521   0.585 -0.3188 -0.3645  0.0181
 9523TIP3    H128533   2.657   6.546   0.615 -0.0085 -0.0943  0.7114
 9523TIP3    H228534   2.794   6.503   0.665  0.6018  0.6518 -0.2966
 9524TIP3   OH228535   2.308   2.656   0.119 -0.1351 -0.0414 -0.9934
 9524TIP3    H128536   2.261   2.712   0.058 -1.7914  0.6151  0.8173
 9524TIP3    H228537   2.333   2.713   0.191  0.0261 -1.1819 -0.1040
 9525TIP3   OH228538   4.167   6.624   0.203 -0.4385  0.2050  0.3988
 9525TIP3    H128539   4.196   6.536   0.177 -1.4876  0.1871 -0.8187
 9525TIP3    H228540   4.200   6.635   0.292  1.1749 -0.7562 -0.0373
 9526TIP3   OH228541   0.389   3.384   5.834 -0.5616 -0.0403 -0.4406
 9526TIP3    H128542   0.322   3.352   5.774  0.4886 -3.1131 -0.1499
 9526TIP3    H228543   0.379   3.330   5.913  1.4668  0.2181  0.0540
 9527TIP3   OH228544   7.004   3.172   1.531  0.3682 -0.0930 -0.4645
 9527TIP3    H128545   7.066   3.193   1.600  1.4143 -2.5976 -0.5424
 9527TIP3    H228546   6.919   3.200   1.565  0.8611 -1.2116  1.8401
 9528TIP3   OH228547   5.652   5.722   3.637  0.1558 -0.4299 -0.4640
 9528TIP3    H128548   5.577   5.755   3.588 -1.2649 -0.5138  1.5056
 9528TIP3    H228549   5.670   5.791   3.702  1.2494 -0.7910 -0.3564
 9529TIP3   OH228550   4.321   5.022   3.187  0.4741 -0.0544  0.4136
 9529TIP3    H128551   4.313   5.017   3.092  0.5567 -0.4909  0.4268
 9529TIP3    H228552   4.234   5.043   3.218  0.0483 -1.5901  0.3500
 9530TIP3   OH228553   1.716   4.839   1.597  0.2957 -0.5719 -0.6267
 9530TIP3    H128554   1.774   4.842   1.521 -0.4776  0.3451 -1.1954
 9530TIP3    H228555   1.630   4.821   1.560 -0.1834  0.4293 -0.0295
 9531TIP3   OH228556   2.418   0.425   2.804 -0.1358 -0.2391  0.0931
 9531TIP3    H128557   2.449   0.363   2.737  0.5634  0.2654 -0.0545
 9531TIP3    H228558   2.379   0.496   2.753  1.2226  0.5860  0.1866
 9532TIP3   OH228559   1.121   5.093   2.165  0.0753  0.2110  0.2851
 9532TIP3    H128560   1.195   5.119   2.110  0.6915 -0.0659  0.9577
 9532TIP3    H228561   1.162   5.061   2.246 -0.7447 -0.6625  0.3744
 9533TIP3   OH228562   4.686   3.100   2.466 -0.2562  0.6257  0.3406
 9533TIP3    H128563   4.631   3.028   2.497 -1.1983  0.9052 -0.6703
 9533TIP3    H228564   4.734   3.128   2.545 -2.4572  1.2105  1.5400
 9534TIP3   OH228565   3.440   2.292   5.628 -0.0624  0.2272 -0.0116
 9534TIP3    H128566   3.514   2.231   5.633  0.1224  0.3356 -1.2333
 9534TIP3    H228567   3.480   2.376   5.603 -0.0600  1.3622  3.2237
 9535TIP3   OH228568   2.270   0.632   5.129 -0.0879  0.2327  0.9904
 9535TIP3    H128569   2.300   0.716   5.096  1.6588 -0.8124 -0.2140
 9535TIP3    H228570   2.343   0.599   5.181 -0.8469 -0.4437  1.6584
 9536TIP3   OH228571   2.322   4.375   4.965 -0.1747 -0.1825 -0.2482
 9536TIP3    H128572   2.330   4.469   4.980  0.5618  0.0521 -1.8792
 9536TIP3    H228573   2.412   4.344   4.958 -0.3904 -1.1609  0.9986
 9537TIP3   OH228574   1.992   0.106   1.008  0.3630 -0.5861 -0.2035
 9537TIP3    H128575   2.068   0.051   1.029  0.7820  0.6290  1.6841
 9537TIP3    H228576   2.011   0.190   1.049 -1.6886 -0.0149 -0.3087
 9538TIP3   OH228577   5.216   3.324   5.335 -0.8437 -0.0863 -0.2561
 9538TIP3    H128578   5.294   3.283   5.298 -0.1486 -0.2577  1.3275
 9538TIP3    H228579   5.178   3.257   5.392 -2.6796 -0.3201 -1.6715
 9539TIP3   OH228580   0.133   6.631   5.413  0.0176  0.7989 -0.4141
 9539TIP3    H128581   0.106   6.665   5.499 -2.5097  1.1672 -1.2858
 9539TIP3    H228582   0.058   6.581   5.382  1.4936 -0.7127 -1.7458
 9540TIP3   OH228583   3.909   0.744   3.897 -0.1740 -0.5968 -0.5657
 9540TIP3    H128584   3.921   0.774   3.987 -0.1926 -0.2429 -0.6801
 9540TIP3    H228585   3.997   0.739   3.860 -0.3204  2.1427 -1.4517
 9541TIP3   OH228586   3.070   1.997   0.225  0.1172  0.6474  0.4309
 9541TIP3    H128587   2.995   1.961   0.273  0.6100 -0.6883  0.2284
 9541TIP3    H228588   3.142   1.997   0.289  0.6349 -0.6337 -0.1309
 9542TIP3   OH228589   4.815   1.578   3.936 -0.2814 -0.2374 -0.4516
 9542TIP3    H128590   4.903   1.553   3.908 -0.2820 -0.7940  0.0063
 9542TIP3    H228591   4.764   1.497   3.930 -0.9160  0.1995 -1.2539
 9543TIP3   OH228592   3.882   2.600   3.472  0.0068 -0.3462 -0.2562
 9543TIP3    H128593   3.798   2.560   3.496  0.6886 -0.5663  2.0150
 9543TIP3    H228594   3.866   2.639   3.386 -2.5744  0.0189  0.2879
 9544TIP3   OH228595   3.767   0.128   4.746  0.2250  0.0663 -0.3535
 9544TIP3    H128596   3.847   0.130   4.798 -0.1301 -0.5568  0.2399
 9544TIP3    H228597   3.764   0.040   4.709 -1.5584 -0.9398  1.9189
 9545TIP3   OH228598   6.459   3.976   3.000 -0.0887  0.0509  0.0862
 9545TIP3    H128599   6.370   4.002   3.022 -0.5139 -0.1145 -1.3502
 9545TIP3    H228600   6.456   3.880   2.997  1.0100 -0.2072  3.4476
 9546TIP3   OH228601   6.671   2.373   0.557  0.2889 -0.2311 -0.4025
 9546TIP3    H128602   6.753   2.373   0.507  0.0726  1.4286 -0.8309
 9546TIP3    H228603   6.603   2.357   0.492  0.2545 -1.8362 -0.0129
 9547TIP3   OH228604   1.991   2.486   3.510  0.6120 -0.1121 -0.5121
 9547TIP3    H128605   2.038   2.483   3.426 -1.9218  0.2364 -2.0471
 9547TIP3    H228606   1.962   2.396   3.524 -0.6723  0.1975 -1.0778
 9548TIP3   OH228607   6.803   0.564   2.451  0.2274 -0.1518 -0.4307
 9548TIP3    H128608   6.743   0.627   2.413  2.2066  0.7507 -2.2655
 9548TIP3    H228609   6.803   0.584   2.545 -0.1244  1.7471 -0.8038
 9549TIP3   OH228610   1.451   5.399   3.914 -0.0634 -0.0412  0.0210
 9549TIP3    H128611   1.379   5.337   3.924 -1.5580  1.6469  0.1384
 9549TIP3    H228612   1.496   5.398   3.998  0.1504 -1.1970 -0.0923
 9550TIP3   OH228613   0.468   0.195   5.309  0.1555  0.0218 -0.0719
 9550TIP3    H128614   0.488   0.120   5.253 -2.6285 -1.0884  0.2959
 9550TIP3    H228615   0.524   0.184   5.385  0.1135 -1.4563 -0.2273
 9551TIP3   OH228616   1.748   6.490   5.804  0.3883 -0.3135  0.0134
 9551TIP3    H128617   1.669   6.466   5.853 -0.8120 -1.4740 -2.3464
 9551TIP3    H228618   1.771   6.576   5.838 -2.1131  0.2345  0.5403
 9552TIP3   OH228619   6.752   3.038   4.823 -0.1332  0.3221 -0.1519
 9552TIP3    H128620   6.688   3.083   4.878 -1.4365 -0.5395 -0.9279
 9552TIP3    H228621   6.775   3.101   4.755 -1.1928  0.1860 -0.6506
 9553TIP3   OH228622   1.272   4.172   2.507 -0.2879 -0.2230 -0.1627
 9553TIP3    H128623   1.186   4.212   2.493  0.1181  0.2749 -1.3073
 9553TIP3    H228624   1.268   4.088   2.462 -1.0264 -1.3965  1.9623
 9554TIP3   OH228625   0.277   1.593   4.421  0.1728 -0.3345  0.7006
 9554TIP3    H128626   0.216   1.663   4.445  0.0447 -0.5204  0.9300
 9554TIP3    H228627   0.278   1.594   4.325 -1.6504 -1.5425  0.6144
 9555TIP3   OH228628   7.178   4.570   0.347 -0.3763 -0.1412 -0.1262
 9555TIP3    H128629   7.229   4.502   0.303 -0.2924  0.5520 -1.1432
 9555TIP3    H228630   7.094   4.571   0.301 -0.4903  0.2271  0.0847
 9556TIP3   OH228631   2.735   5.550   2.481 -0.3357 -0.6012 -0.4403
 9556TIP3    H128632   2.706   5.639   2.499  0.7715 -0.4998  1.0889
 9556TIP3    H228633   2.729   5.542   2.386 -1.9988  0.5254 -0.4804
 9557TIP3   OH228634   1.873   1.714   5.851 -0.3786  0.1703 -0.3292
 9557TIP3    H128635   1.782   1.742   5.836 -0.5114  2.0288  2.8871
 9557TIP3    H228636   1.880   1.707   5.946  2.6796 -0.6353 -0.5196
 9558TIP3   OH228637   1.760   0.303   2.682 -0.2478 -0.0492  0.5100
 9558TIP3    H128638   1.716   0.343   2.607  0.3330 -0.9034 -0.3068
 9558TIP3    H228639   1.780   0.213   2.653  1.6909  0.1828  0.9622
 9559TIP3   OH228640   5.887   6.445   0.381 -0.3763  1.0845  0.2781
 9559TIP3    H128641   5.873   6.373   0.442 -0.7118  2.0503  1.3982
 9559TIP3    H228642   5.808   6.446   0.326  0.6162 -0.7844 -1.3100
 9560TIP3   OH228643   0.598   1.998   1.078  0.4246 -0.0963  0.0665
 9560TIP3    H128644   0.515   2.044   1.063  0.3825 -0.3970 -0.6559
 9560TIP3    H228645   0.576   1.930   1.142 -0.2706 -1.2014 -1.2920
 9561TIP3   OH228646   2.762   2.222   4.432 -0.4924  0.0084  0.3231
 9561TIP3    H128647   2.856   2.217   4.450 -0.3237 -0.2006 -0.5371
 9561TIP3    H228648   2.749   2.311   4.400 -0.0857 -0.7063 -2.0272
 9562TIP3   OH228649   7.006   3.597   5.459  0.5660  0.2788  0.4794
 9562TIP3    H128650   6.913   3.612   5.479  0.2332  0.9756 -1.3683
 9562TIP3    H228651   7.015   3.502   5.452 -0.7123  0.2467 -2.0683
 9563TIP3   OH228652   3.115   3.135   2.825  0.6022  0.2084  0.0228
 9563TIP3    H128653   3.208   3.116   2.836  0.2082 -1.0490  1.6727
 9563TIP3    H228654   3.112   3.230   2.813  2.2708 -0.0137 -3.1601
 9564TIP3   OH228655   6.643   3.683   1.736  0.1326 -0.1354 -0.0784
 9564TIP3    H128656   6.588   3.746   1.782  0.6608 -0.5893  1.2334
 9564TIP3    H228657   6.592   3.602   1.735 -0.0479 -0.0138 -0.6671
 9565TIP3   OH228658   6.561   0.837   2.657 -0.7602 -0.1735 -0.0819
 9565TIP3    H128659   6.538   0.916   2.608 -0.1339  1.2714  1.8047
 9565TIP3    H228660   6.657   0.840   2.664 -0.8806  0.3580  2.1780
 9566TIP3   OH228661   1.365   5.881   0.876  0.5652  0.1589  0.2251
 9566TIP3    H128662   1.289   5.871   0.934  2.1187  1.1732  2.6072
 9566TIP3    H228663   1.387   5.792   0.849 -2.1975 -0.0722 -1.6481
 9567TIP3   OH228664   3.449   5.843   0.473  0.0001 -0.0528  0.4344
 9567TIP3    H128665   3.426   5.756   0.439  2.4803 -0.9662  0.8281
 9567TIP3    H228666   3.372   5.897   0.457 -1.0712 -1.9447 -1.2080
 9568TIP3   OH228667   1.838   2.061   3.631 -0.3898  0.0353 -0.3432
 9568TIP3    H128668   1.748   2.062   3.663 -0.4507 -1.7854 -0.3586
 9568TIP3    H228669   1.890   2.034   3.706  0.2923  1.8420 -0.1088
 9569TIP3   OH228670   4.973   3.253   3.937  0.1051  0.7980  0.2200
 9569TIP3    H128671   4.937   3.308   3.867  1.0766  1.9686  0.6161
 9569TIP3    H228672   5.020   3.314   3.994  2.0796 -0.5455  0.1323
 9570TIP3   OH228673   2.977   2.273   4.653 -0.6172 -0.1625  0.0461
 9570TIP3    H128674   2.928   2.197   4.684  0.8219 -0.3498  1.9765
 9570TIP3    H228675   3.039   2.237   4.589 -0.2791 -0.5319  0.5813
 9571TIP3   OH228676   1.044   5.027   1.594 -0.8032  0.5638 -0.4566
 9571TIP3    H128677   1.058   5.101   1.536  0.3360  1.1528  0.5148
 9571TIP3    H228678   1.062   5.061   1.682  0.3353 -0.9761 -0.0391
 9572TIP3   OH228679   0.521   1.435   5.197 -0.1515 -0.6125 -0.3021
 9572TIP3    H128680   0.604   1.393   5.216  0.5297  0.6799 -0.3371
 9572TIP3    H228681   0.472   1.432   5.279  1.2509  1.5367  0.6822
 9573TIP3   OH228682   6.907   4.791   3.311 -0.1892  0.0928 -0.3729
 9573TIP3    H128683   6.852   4.725   3.269  0.6691 -0.5083 -0.5706
 9573TIP3    H228684   6.850   4.830   3.378 -1.0725 -0.0229 -1.0336
 9574TIP3   OH228685   5.166   5.474   2.552  0.2579  0.2525 -0.6565
 9574TIP3    H128686   5.155   5.526   2.631  1.5733  2.1888 -1.6746
 9574TIP3    H228687   5.092   5.499   2.496 -0.4729 -0.8462 -0.2042
 9575TIP3   OH228688   2.013   3.915   1.609  0.0694  0.2167 -0.3241
 9575TIP3    H128689   2.069   3.948   1.538 -1.1280  0.8291 -1.0139
 9575TIP3    H228690   1.924   3.927   1.577 -0.5197  0.8590  1.4388
 9576TIP3   OH228691   7.083   4.823   5.285 -0.0123  0.5015  0.5597
 9576TIP3    H128692   7.173   4.853   5.299  0.2108 -0.0062  0.2295
 9576TIP3    H228693   7.057   4.862   5.202 -0.3826  1.2947  1.0365
 9577TIP3   OH228694   2.432   2.323   4.473 -0.6421  0.3224 -0.4686
 9577TIP3    H128695   2.413   2.237   4.436 -0.0740  0.0905 -0.2237
 9577TIP3    H228696   2.359   2.339   4.534 -1.2512  0.4393 -1.2136
 9578TIP3   OH228697   1.733   1.445   2.736  0.2737 -0.0948  0.1042
 9578TIP3    H128698   1.763   1.489   2.815  0.1829 -1.8116  1.1382
 9578TIP3    H228699   1.808   1.393   2.708 -0.0258 -0.2759 -0.3770
 9579TIP3   OH228700   5.095   4.893   5.883 -0.0971  0.0061 -0.3447
 9579TIP3    H128701   5.160   4.827   5.906  1.8405  1.9346  0.0113
 9579TIP3    H228702   5.126   4.929   5.800 -0.2229  1.5247  0.2360
 9580TIP3   OH228703   3.045   4.901   1.827 -0.4189  0.1282  0.0399
 9580TIP3    H128704   3.039   4.924   1.920 -0.1115  1.1843 -0.1857
 9580TIP3    H228705   3.107   4.964   1.791  0.7178 -1.2802 -0.5725
 9581TIP3   OH228706   0.775   0.545   2.531  0.5966 -0.3511  0.3964
 9581TIP3    H128707   0.769   0.516   2.440  0.0602  2.5190 -0.6048
 9581TIP3    H228708   0.685   0.562   2.556  0.8959  0.8928  0.6945
 9582TIP3   OH228709   6.204   1.259   2.977  0.3609 -0.1510  0.0149
 9582TIP3    H128710   6.287   1.270   3.025 -0.2431  1.3598  0.7949
 9582TIP3    H228711   6.173   1.173   3.003  1.4690 -0.5638  0.0580
 9583TIP3   OH228712   6.879   2.441   5.839  0.6000 -0.2585  0.2439
 9583TIP3    H128713   6.857   2.534   5.849 -0.5773 -0.3752 -0.9793
 9583TIP3    H228714   6.935   2.439   5.761  0.9485 -0.5408  0.4992
 9584TIP3   OH228715   1.049   3.007   2.565  0.5928 -0.3532 -0.5261
 9584TIP3    H128716   1.031   3.101   2.572  1.6138 -0.2441  1.3231
 9584TIP3    H228717   1.097   2.986   2.645  0.3823 -2.4667 -0.8959
 9585TIP3   OH228718   5.587   1.398   3.418 -0.4298 -0.0388  0.0650
 9585TIP3    H128719   5.528   1.472   3.406  0.5639  0.4340 -2.7400
 9585TIP3    H228720   5.661   1.434   3.468 -0.2554  0.7211 -0.7107
 9586TIP3   OH228721   4.562   5.076   4.443 -0.5639 -0.3936  0.0050
 9586TIP3    H128722   4.602   5.113   4.521  0.1680 -0.1844 -0.4599
 9586TIP3    H228723   4.469   5.070   4.464 -0.2277 -1.3893  1.2996
 9587TIP3   OH228724   5.646   1.160   3.675 -0.2996 -0.0401 -0.1798
 9587TIP3    H128725   5.623   1.217   3.601 -0.5624  0.4997  0.3124
 9587TIP3    H228726   5.561   1.134   3.712 -0.2230 -1.6235 -1.0388
 9588TIP3   OH228727   5.656   1.043   1.020  0.1143 -0.8976  0.2120
 9588TIP3    H128728   5.727   1.040   1.083 -0.4665 -0.6094  0.8952
 9588TIP3    H228729   5.605   0.964   1.038 -0.5319 -0.3816  0.6861
 9589TIP3   OH228730   6.614   5.848   2.911  0.4946 -0.1653 -0.6033
 9589TIP3    H128731   6.707   5.826   2.918 -0.0621 -2.2948  1.2813
 9589TIP3    H228732   6.593   5.892   2.994 -0.3374 -0.4630 -0.6409
 9590TIP3   OH228733   0.386   0.913   3.287  0.0449  0.2532 -0.0726
 9590TIP3    H128734   0.433   0.920   3.204 -1.4979 -0.0644 -1.0026
 9590TIP3    H228735   0.414   0.829   3.324  1.9491  1.0937  0.5519
 9591TIP3   OH228736   3.941   2.064   5.414 -0.1134 -0.1247 -0.0846
 9591TIP3    H128737   3.872   2.127   5.436 -0.6303 -0.5190 -0.5529
 9591TIP3    H228738   3.995   2.108   5.349 -1.2894 -0.6542 -1.4752
 9592TIP3   OH228739   2.587   5.727   5.377  0.0938 -0.1558 -0.6711
 9592TIP3    H128740   2.664   5.675   5.398  0.1768  0.5024  0.8411
 9592TIP3    H228741   2.613   5.779   5.301  0.6754 -0.9096 -0.9927
 9593TIP3   OH228742   3.239   6.614   2.933  0.4541  0.3066 -0.1890
 9593TIP3    H128743   3.298   6.643   2.864 -0.7448  0.0524 -1.3546
 9593TIP3    H228744   3.208   6.695   2.973  1.6352  0.4421  0.5064
 9594TIP3   OH228745   3.389   6.601   4.261 -0.4742  0.0559  0.2267
 9594TIP3    H128746   3.385   6.693   4.235  0.1794  0.1048  0.2822
 9594TIP3    H228747   3.469   6.568   4.220 -0.2704 -0.2753  0.8759
 9595TIP3   OH228748   5.355   5.276   0.235  0.3897 -0.6004 -0.1965
 9595TIP3    H128749   5.390   5.365   0.237 -0.0186 -0.3983 -1.3029
 9595TIP3    H228750   5.393   5.237   0.156  2.3837 -2.2128  1.4512
 9596TIP3   OH228751   4.820   0.706   5.131  0.1053  0.0794 -0.0645
 9596TIP3    H128752   4.734   0.723   5.170  0.1881  0.3471 -0.0005
 9596TIP3    H228753   4.802   0.640   5.064 -0.4225  1.2513 -1.1288
 9597TIP3   OH228754   7.221   5.529   1.924 -0.1852 -0.8723 -0.1591
 9597TIP3    H128755   7.134   5.550   1.959 -0.5012  0.4756 -1.6863
 9597TIP3    H228756   7.258   5.469   1.989 -1.7050 -0.3946  1.2214
 9598TIP3   OH228757   0.753   3.845   1.328 -1.2241  0.3072 -0.1614
 9598TIP3    H128758   0.710   3.897   1.396  1.2759 -1.5875  3.1775
 9598TIP3    H228759   0.698   3.766   1.320 -0.7843 -0.1131  0.8020
 9599TIP3   OH228760   2.813   0.036   5.753 -0.3632 -0.0161  0.3245
 9599TIP3    H128761   2.833  -0.057   5.764 -2.0704 -0.5743 -0.8483
 9599TIP3    H228762   2.840   0.056   5.664 -0.3013  0.5347  0.4620
 9600TIP3   OH228763   0.587   4.167   4.522  0.7828 -0.0052 -0.4636
 9600TIP3    H128764   0.661   4.115   4.552 -0.8102 -2.0546  0.1436
 9600TIP3    H228765   0.557   4.124   4.442  0.2202  0.7871 -0.6957
 9601TIP3   OH228766   4.664   6.141   5.216  0.3203 -0.1073  0.0847
 9601TIP3    H128767   4.742   6.195   5.203  0.4881 -0.3708 -0.0122
 9601TIP3    H228768   4.692   6.052   5.193 -0.0126 -0.2008  0.0361
 9602TIP3   OH228769   6.489   6.047   0.536  0.5947  0.3674 -0.3802
 9602TIP3    H128770   6.510   5.968   0.485 -2.0708 -0.0184 -1.0229
 9602TIP3    H228771   6.501   6.119   0.475  1.0710  0.2780 -0.3976
 9603TIP3   OH228772   3.367   4.347   4.770  0.3629  0.0058  0.2128
 9603TIP3    H128773   3.376   4.381   4.859  0.2840 -0.6142  0.4622
 9603TIP3    H228774   3.433   4.277   4.764  0.2517 -0.0716 -0.1577
 9604TIP3   OH228775   4.320   0.491   2.855  0.8067 -0.2367  0.5324
 9604TIP3    H128776   4.273   0.467   2.775  0.5302  0.1739  0.5710
 9604TIP3    H228777   4.269   0.450   2.925 -0.6703  1.8113  0.7627
 9605TIP3   OH228778   1.635   0.129   3.273  0.0543  0.2737  0.6203
 9605TIP3    H128779   1.585   0.207   3.250  1.6925  1.3942  0.6984
 9605TIP3    H228780   1.713   0.162   3.317  1.6393 -1.2778 -0.8393
 9606TIP3   OH228781   1.816   1.127   1.903  0.6235 -0.3887 -0.5940
 9606TIP3    H128782   1.725   1.102   1.915  1.0730 -1.7348  0.3137
 9606TIP3    H228783   1.819   1.220   1.923 -0.4331 -0.4842  0.0420
 9607TIP3   OH228784   2.286   0.357   5.298 -0.4128  0.4052  0.5058
 9607TIP3    H128785   2.271   0.263   5.305  1.0224  0.1714  0.6494
 9607TIP3    H228786   2.374   0.365   5.262  0.1139  1.6883  1.9587
 9608TIP3   OH228787   2.532   2.210   4.015  0.0070  0.3733  0.2402
 9608TIP3    H128788   2.444   2.171   4.010 -0.2673  0.8726  1.0386
 9608TIP3    H228789   2.520   2.300   3.984  0.2244  0.4631  0.4177
 9609TIP3   OH228790   6.214   4.954   4.200 -0.6267  0.5271 -0.1948
 9609TIP3    H128791   6.254   5.041   4.208  1.7993 -0.5748  0.4141
 9609TIP3    H228792   6.139   4.957   4.260 -0.0678  1.9076  0.4970
 9610TIP3   OH228793   1.815   3.780   2.256  0.4738 -0.4108 -0.1814
 9610TIP3    H128794   1.761   3.751   2.330 -0.8696 -2.4361 -1.8407
 9610TIP3    H228795   1.856   3.700   2.224  1.7988  0.5811 -1.0544
 9611TIP3   OH228796   1.977   5.697   3.378  0.4296 -0.6869 -0.1272
 9611TIP3    H128797   1.885   5.723   3.384  0.9844  1.3386  0.3261
 9611TIP3    H228798   1.979   5.608   3.414 -1.3229 -0.7421 -0.0738
 9612TIP3   OH228799   3.882   6.396   1.645 -0.0095  0.2784 -0.4755
 9612TIP3    H128800   3.866   6.484   1.612  0.3532  0.5752  0.1087
 9612TIP3    H228801   3.918   6.410   1.733 -2.3844 -0.4828  0.7193
 9613TIP3   OH228802   6.012   5.738   1.501 -0.0200 -0.5249  0.2700
 9613TIP3    H128803   6.028   5.739   1.406  0.7806 -0.6020  0.3979
 9613TIP3    H228804   6.046   5.822   1.532 -0.3447 -0.4701  0.4870
 9614TIP3   OH228805   5.416   0.542   4.082  0.4988  0.3695  0.1821
 9614TIP3    H128806   5.344   0.507   4.029  0.0196  1.2957  0.2088
 9614TIP3    H228807   5.495   0.512   4.036  0.0950  0.2880 -0.4807
 9615TIP3   OH228808   3.671   4.542   3.122  0.0282 -0.2289 -0.0529
 9615TIP3    H128809   3.596   4.554   3.064 -0.4392 -1.4729  0.2431
 9615TIP3    H228810   3.648   4.591   3.201 -1.2935 -1.9428  0.7007
 9616TIP3   OH228811   3.297   1.430   4.362 -0.4283 -0.6530  0.1273
 9616TIP3    H128812   3.362   1.361   4.375 -0.5452 -0.8037 -0.0847
 9616TIP3    H228813   3.285   1.433   4.267  1.0421  0.9969 -0.0623
 9617TIP3   OH228814   6.808   2.014   0.563  0.5401  0.2192 -0.1074
 9617TIP3    H128815   6.865   1.953   0.517  1.6511 -0.7993  2.4442
 9617TIP3    H228816   6.720   1.991   0.533  1.1931 -0.3921 -1.6567
 9618TIP3   OH228817   1.743   1.452   4.433 -0.7117  0.8190 -0.1524
 9618TIP3    H128818   1.768   1.365   4.465  1.9463  1.3829 -0.4651
 9618TIP3    H228819   1.651   1.461   4.457 -0.2839 -0.8989  2.5487
 9619TIP3   OH228820   2.437   2.287   2.816  0.0285 -0.4048  0.2689
 9619TIP3    H128821   2.401   2.370   2.783  0.1477 -0.1738  0.7105
 9619TIP3    H228822   2.452   2.234   2.738  1.4870  0.5942 -0.1624
 9620TIP3   OH228823   6.784   3.774   5.591  0.4970 -0.2463  0.7144
 9620TIP3    H128824   6.833   3.715   5.648 -0.3139 -0.2804  1.3900
 9620TIP3    H228825   6.695   3.738   5.590  1.0627 -1.9398 -2.8632
 9621TIP3   OH228826   3.509   2.508   5.505  0.3236 -0.3802 -0.4565
 9621TIP3    H128827   3.571   2.537   5.572 -0.3096  0.7777 -0.3504
 9621TIP3    H228828   3.434   2.566   5.514 -0.8716 -1.8418 -0.4849
 9622TIP3   OH228829   6.495   6.599   1.792  0.3749  0.2001 -0.3634
 9622TIP3    H128830   6.582   6.578   1.826  1.0503  1.1017 -1.4475
 9622TIP3    H228831   6.512   6.636   1.705 -1.1231  0.0516 -0.7452
 9623TIP3   OH228832   6.851   4.429   0.887  0.0829 -0.5635 -0.1163
 9623TIP3    H128833   6.770   4.389   0.921  0.0391 -0.6209 -0.2861
 9623TIP3    H228834   6.915   4.358   0.888  0.2837 -0.3828  0.5295
 9624TIP3   OH228835   1.596   4.125   5.461  0.4155  0.4649  0.1438
 9624TIP3    H128836   1.581   4.034   5.436  0.6099  0.7132 -0.9119
 9624TIP3    H228837   1.642   4.119   5.545  1.0029 -0.4231 -0.2253
 9625TIP3   OH228838   2.535   0.334   3.136  0.2410 -0.9253  0.0146
 9625TIP3    H128839   2.474   0.273   3.176 -1.7150  0.0625 -1.2998
 9625TIP3    H228840   2.608   0.341   3.199 -2.4591  0.3366  3.3008
 9626TIP3   OH228841   5.664   6.723   0.849  0.2654 -0.0943 -0.6994
 9626TIP3    H128842   5.597   6.737   0.916  1.3333  2.0420 -0.0085
 9626TIP3    H228843   5.629   6.764   0.770  0.1392 -0.2863 -0.7445
 9627TIP3   OH228844   5.990   3.482   3.167 -0.1570 -0.1069 -0.0837
 9627TIP3    H128845   5.916   3.467   3.226 -0.4088 -0.8692 -0.5763
 9627TIP3    H228846   5.969   3.564   3.123  0.3142  0.7875  1.2847
 9628TIP3   OH228847   0.968   4.952   4.950 -0.0896  0.4603 -0.2803
 9628TIP3    H128848   0.919   4.977   5.028 -0.2213  1.9658 -0.8161
 9628TIP3    H228849   0.991   4.860   4.965 -2.7883 -0.2276  0.1151
 9629TIP3   OH228850   2.161   5.313   1.512 -0.6169 -0.2160 -0.2246
 9629TIP3    H128851   2.127   5.250   1.576  0.3878 -0.9909 -0.4224
 9629TIP3    H228852   2.094   5.381   1.507 -0.2419  0.4817  2.4914
 9630TIP3   OH228853   6.132   2.683   1.464  0.0039  0.3517  0.1217
 9630TIP3    H128854   6.139   2.604   1.517 -0.8225  0.8459  0.9926
 9630TIP3    H228855   6.180   2.663   1.384  1.2408 -0.4295  1.0325
 9631TIP3   OH228856   4.892   1.542   5.872  0.4057 -0.0099 -0.0383
 9631TIP3    H128857   4.887   1.549   5.777  0.2710  2.0509  0.0762
 9631TIP3    H228858   4.802   1.551   5.902  0.5175 -0.0907  0.3255
 9632TIP3   OH228859   0.845   4.878   1.676 -0.0522  0.3793  0.0585
 9632TIP3    H128860   0.819   4.942   1.742  0.3211 -0.2048  0.7962
 9632TIP3    H228861   0.916   4.921   1.628  0.0962  0.5755  0.4492
 9633TIP3   OH228862   2.765   6.567   1.320 -0.4344  1.0273  0.1299
 9633TIP3    H128863   2.808   6.483   1.330  1.8150  2.1014 -0.0550
 9633TIP3    H228864   2.732   6.588   1.407 -1.2255 -0.0917  0.1352
 9634TIP3   OH228865   6.141   2.669   4.356  0.4523  0.3044 -0.1641
 9634TIP3    H128866   6.046   2.671   4.369  0.2850  0.2734 -1.3019
 9634TIP3    H228867   6.153   2.679   4.261  1.6242  1.4213  0.0716
 9635TIP3   OH228868   3.081   4.700   2.612 -0.4165  0.3996 -0.3858
 9635TIP3    H128869   3.168   4.659   2.605 -1.3133 -1.6566 -0.2018
 9635TIP3    H228870   3.045   4.666   2.693 -1.2180  1.6303 -0.2085
 9636TIP3   OH228871   2.594   6.235   5.775  0.2197 -0.0049 -0.3260
 9636TIP3    H128872   2.540   6.287   5.715 -2.5879 -0.6526  1.4213
 9636TIP3    H228873   2.620   6.158   5.723 -0.6520  0.2845 -1.2375
 9637TIP3   OH228874   5.316   5.943   4.019  0.4286 -0.4367 -0.5679
 9637TIP3    H128875   5.273   5.909   4.097  1.1921 -0.1627 -0.0183
 9637TIP3    H228876   5.341   6.032   4.043 -2.1030  0.8352 -2.1807
 9638TIP3   OH228877   0.895   2.076   4.117  0.1389 -0.3980  0.1394
 9638TIP3    H128878   0.814   2.126   4.116 -0.0809 -0.6794  1.5059
 9638TIP3    H228879   0.867   1.985   4.128  0.6544 -0.3904  1.7137
 9639TIP3   OH228880   1.587   5.599   1.160  0.0540 -0.0810 -0.2154
 9639TIP3    H128881   1.667   5.633   1.120 -0.0923  0.7771  0.1807
 9639TIP3    H228882   1.589   5.634   1.250 -0.5526 -0.3926 -0.0751
 9640TIP3   OH228883   1.360   5.599   0.195 -0.4045 -0.1942  0.1286
 9640TIP3    H128884   1.410   5.597   0.277 -0.9174  1.0340  0.4926
 9640TIP3    H228885   1.408   5.541   0.137 -0.7397 -2.1529  1.6767
 9641TIP3   OH228886   3.585   3.497   5.004 -0.5294 -0.2837  0.0723
 9641TIP3    H128887   3.576   3.591   4.989  2.9823  0.0374 -0.7985
 9641TIP3    H228888   3.559   3.456   4.922  1.1189  0.2283 -0.7468
 9642TIP3   OH228889   3.239   2.319   2.032  0.3240 -0.0864  0.5048
 9642TIP3    H128890   3.327   2.330   2.067  0.4013  0.7363  0.0796
 9642TIP3    H228891   3.247   2.342   1.939 -0.6146  1.5015  0.7617
 9643TIP3   OH228892   1.662   2.418   4.551 -0.8498  0.7228  0.7205
 9643TIP3    H128893   1.664   2.376   4.465  0.2740  1.6212  0.2834
 9643TIP3    H228894   1.572   2.406   4.581 -0.9660 -0.5987 -0.0695
 9644TIP3   OH228895   5.996   3.237   3.030 -0.5898 -0.3295 -0.1151
 9644TIP3    H128896   5.998   3.324   3.070 -0.9461 -0.3521 -0.0448
 9644TIP3    H228897   5.913   3.234   2.983  0.7277  0.5117 -2.7021
 9645TIP3   OH228898   3.841   3.351   2.360 -0.0125  0.2827  0.6265
 9645TIP3    H128899   3.813   3.345   2.269 -0.0588  1.3990  0.5509
 9645TIP3    H228900   3.801   3.275   2.403 -0.7052  0.2285 -0.0966
 9646TIP3   OH228901   4.669   4.151   3.064  0.6399 -0.1281  0.0957
 9646TIP3    H128902   4.631   4.067   3.041 -0.9437  0.3809  0.7204
 9646TIP3    H228903   4.620   4.215   3.012  1.6185  0.4606 -0.1507
 9647TIP3   OH228904   4.768   6.274   4.445  0.0638 -0.0297  0.6162
 9647TIP3    H128905   4.818   6.356   4.449  0.3838 -0.1790 -0.2509
 9647TIP3    H228906   4.704   6.282   4.516  0.8192  0.4883  1.2587
 9648TIP3   OH228907   3.920   2.276   4.968 -0.0272 -0.3621  0.7194
 9648TIP3    H128908   3.827   2.284   4.986 -0.3809  0.6824 -1.2424
 9648TIP3    H228909   3.926   2.274   4.872  1.8553 -2.2076  0.7992
 9649TIP3   OH228910   0.011   2.503   4.046 -0.1122 -0.2573  0.4360
 9649TIP3    H128911   0.060   2.577   4.011 -0.9607  0.2999  0.3938
 9649TIP3    H228912   0.071   2.429   4.040  1.1742  0.6555  1.5963
 9650TIP3   OH228913   0.271   4.336   1.186 -0.4612  0.1346  0.1272
 9650TIP3    H128914   0.350   4.366   1.141 -0.3761  1.3731  1.0641
 9650TIP3    H228915   0.284   4.241   1.197  0.7535  0.2757  0.0180
 9651TIP3   OH228916   5.252   5.831   4.662  0.0358  0.4558 -0.3915
 9651TIP3    H128917   5.336   5.877   4.665  0.3060 -0.0646  1.2414
 9651TIP3    H228918   5.222   5.831   4.753 -1.6255  0.4161 -0.9112
 9652TIP3   OH228919   3.887   6.577   0.207  0.1512  0.3869  0.2023
 9652TIP3    H128920   3.981   6.580   0.224  0.4841  1.4972 -1.5584
 9652TIP3    H228921   3.867   6.484   0.198  1.4947  0.1796 -1.2280
 9653TIP3   OH228922   1.439   1.310   4.371 -0.0095 -0.7038  0.0591
 9653TIP3    H128923   1.469   1.230   4.415 -1.3481 -1.1940  0.1047
 9653TIP3    H228924   1.416   1.369   4.443  2.5439  0.3991  0.0741
 9654TIP3   OH228925   4.403   4.347   3.749 -0.3534 -0.1026  0.3871
 9654TIP3    H128926   4.351   4.293   3.690  0.8356  0.2895 -1.0710
 9654TIP3    H228927   4.431   4.422   3.696  1.3069 -0.0718  1.2166
 9655TIP3   OH228928  -0.019   0.467   0.077 -0.4290  0.5569  0.7886
 9655TIP3    H128929  -0.014   0.521  -0.002 -0.5501 -1.2173 -0.5131
 9655TIP3    H228930   0.067   0.425   0.083 -1.2744 -1.4471 -0.0709
 9656TIP3   OH228931   3.269   0.564   4.867 -0.2417 -0.2653  0.5249
 9656TIP3    H128932   3.312   0.646   4.892  0.2411 -0.7239  1.2381
 9656TIP3    H228933   3.186   0.565   4.913 -0.9976  0.5814 -0.7847
 9657TIP3   OH228934   0.391   0.581   5.819  0.1742 -0.4682  0.3535
 9657TIP3    H128935   0.367   0.668   5.848  0.4622 -0.6379  1.1101
 9657TIP3    H228936   0.384   0.526   5.897  2.6639 -0.5918  0.5707
 9658TIP3   OH228937   3.778   4.731   0.662 -0.7187 -0.2691 -0.2349
 9658TIP3    H128938   3.833   4.795   0.616 -0.5255 -0.6105 -0.4784
 9658TIP3    H228939   3.825   4.715   0.744 -1.9191  1.6565  0.9158
 9659TIP3   OH228940   4.719   1.595   1.551  0.5130 -0.1845  0.7429
 9659TIP3    H128941   4.676   1.561   1.472 -2.5787  1.6533  1.4697
 9659TIP3    H228942   4.724   1.519   1.610 -1.2588 -0.6529  0.3546
 9660TIP3   OH228943   7.164   1.140   5.091  0.6088  0.6179 -0.0050
 9660TIP3    H128944   7.201   1.067   5.141 -0.3421 -0.4002 -0.7387
 9660TIP3    H228945   7.190   1.123   5.000 -3.6056 -1.6342 -1.0729
 9661TIP3   OH228946   5.594   5.324   1.034  0.3990  0.0635  0.3506
 9661TIP3    H128947   5.664   5.363   1.087 -0.5346 -0.2312  1.8724
 9661TIP3    H228948   5.640   5.273   0.967  1.6401 -0.0149  1.2220
 9662TIP3   OH228949   3.567   1.956   2.841  0.3159 -0.0197  0.6516
 9662TIP3    H128950   3.480   1.987   2.816  1.1949  1.4390 -0.7333
 9662TIP3    H228951   3.574   1.869   2.802 -0.2577  0.1360  0.1966
 9663TIP3   OH228952   4.847   4.463   2.426 -0.7257  0.4966  0.1608
 9663TIP3    H128953   4.788   4.534   2.403 -1.9865 -0.7834 -0.7401
 9663TIP3    H228954   4.814   4.388   2.377  1.6852 -0.2820 -0.3915
 9664TIP3   OH228955   6.842   6.118   3.376  0.5583  0.1221  0.0766
 9664TIP3    H128956   6.932   6.134   3.347  0.4610  0.7396  0.1054
 9664TIP3    H228957   6.803   6.068   3.304  0.8077  0.1949 -0.1134
 9665TIP3   OH228958   2.527   6.260   1.119  0.0240 -0.4385 -0.1978
 9665TIP3    H128959   2.514   6.239   1.026 -1.3234  1.7976 -0.5745
 9665TIP3    H228960   2.540   6.174   1.160 -1.5202 -1.7185 -2.1249
 9666TIP3   OH228961   0.322   2.950   4.047 -0.7455  0.0968  0.4905
 9666TIP3    H128962   0.275   3.034   4.048 -0.7262  0.1311 -0.5092
 9666TIP3    H228963   0.370   2.951   3.964  0.1068 -0.4441  0.9679
 9667TIP3   OH228964   6.312   6.536   4.538  0.3212  0.1411 -0.4361
 9667TIP3    H128965   6.228   6.527   4.584  0.0965  0.4846 -0.7690
 9667TIP3    H228966   6.370   6.475   4.582  0.2687  0.8625  0.6765
 9668TIP3   OH228967   2.802   0.997   4.021 -0.2860  0.0257  0.2705
 9668TIP3    H128968   2.817   0.940   3.946  0.4240  1.6449 -0.8695
 9668TIP3    H228969   2.731   1.056   3.993  0.6723  1.3081  0.4489
 9669TIP3   OH228970   1.869   1.970   0.884 -0.2992  0.2402 -0.3140
 9669TIP3    H128971   1.881   1.949   0.792  0.1052 -2.7986  0.3307
 9669TIP3    H228972   1.778   1.948   0.903 -0.2791  0.4961  0.1147
 9670TIP3   OH228973   0.699   5.128   1.290  0.1380 -0.1604  0.0181
 9670TIP3    H128974   0.630   5.079   1.334  0.5685 -1.7140 -0.9458
 9670TIP3    H228975   0.654   5.176   1.221 -0.0727 -0.6087 -0.1590
 9671TIP3   OH228976   6.673   6.325   5.305 -0.3561 -0.3943 -0.4319
 9671TIP3    H128977   6.709   6.244   5.269 -1.0612 -0.4176 -1.1110
 9671TIP3    H228978   6.597   6.345   5.250 -1.3167 -0.2796  0.8713
 9672TIP3   OH228979   3.999   5.728   2.711 -0.2798 -0.1933  0.3229
 9672TIP3    H128980   3.957   5.783   2.645  1.2345 -0.5751 -1.0156
 9672TIP3    H228981   3.960   5.641   2.698 -0.8547 -0.0145  0.7728
 9673TIP3   OH228982   0.890   2.635   2.323  0.1978  0.2071  0.2286
 9673TIP3    H128983   0.844   2.670   2.400 -0.5014 -1.4815  0.6173
 9673TIP3    H228984   0.832   2.568   2.288  0.8303  0.4473 -1.3850
 9674TIP3   OH228985   2.283   4.352   0.608 -0.3287  0.0008  0.1090
 9674TIP3    H128986   2.247   4.304   0.533 -1.3955 -0.1707  0.7052
 9674TIP3    H228987   2.235   4.434   0.609  0.0912  0.2470  0.2709
 9675TIP3   OH228988   2.336   3.415   3.045  0.1652 -0.0011 -0.0922
 9675TIP3    H128989   2.281   3.393   2.970  0.1871 -0.4099  0.0093
 9675TIP3    H228990   2.425   3.400   3.014  0.3110  1.9024 -0.6753
 9676TIP3   OH228991   0.268   2.881   5.808 -0.0466  0.2802  0.6160
 9676TIP3    H128992   0.228   2.796   5.789 -1.4570  1.4979 -2.4251
 9676TIP3    H228993   0.361   2.861   5.819 -0.3413 -1.6775 -0.0307
 9677TIP3   OH228994   3.020   1.217   0.869  0.0918 -0.5968 -0.2868
 9677TIP3    H128995   3.102   1.170   0.854  1.5418  1.4483  0.8410
 9677TIP3    H228996   2.975   1.166   0.936  0.5608 -1.5707 -0.6935
 9678TIP3   OH228997   3.566   0.659   3.932  0.1536  0.3570  0.4743
 9678TIP3    H128998   3.646   0.662   3.880  0.2336 -0.4139  0.5380
 9678TIP3    H228999   3.530   0.571   3.917 -0.8785  0.8126  0.1559
 9679TIP3   OH229000   4.228   0.333   3.396  0.1748  0.0913 -0.1414
 9679TIP3    H129001   4.280   0.256   3.375 -1.0926 -1.0283  0.6788
 9679TIP3    H229002   4.142   0.299   3.420  0.6426  1.3486  4.2123
 9680TIP3   OH229003   3.624   6.481   0.617  0.0969  0.1077  0.5095
 9680TIP3    H129004   3.673   6.399   0.603  0.4709  0.2924  0.7431
 9680TIP3    H229005   3.665   6.543   0.557 -1.2122 -0.2742 -0.8666
 9681TIP3   OH229006   1.964   2.242   0.204 -0.0747  0.0060 -0.2717
 9681TIP3    H129007   1.886   2.274   0.159  1.3594  2.1693 -1.4044
 9681TIP3    H229008   2.022   2.318   0.208  0.9170 -0.7417  3.0406
 9682TIP3   OH229009   4.697   1.561   4.236 -0.1224 -0.4245  0.4257
 9682TIP3    H129010   4.782   1.553   4.193  0.4859  2.8746  0.7417
 9682TIP3    H229011   4.636   1.516   4.178  1.4441 -0.4959 -1.2516
 9683TIP3   OH229012   5.347   4.599   3.899  0.2239  0.5511 -0.3272
 9683TIP3    H129013   5.327   4.688   3.871  1.2126  0.6556 -0.7073
 9683TIP3    H229014   5.299   4.543   3.838 -1.2308  0.8045  0.5267
 9684TIP3   OH229015   6.962   6.638   1.056 -0.2798 -0.1504 -0.6074
 9684TIP3    H129016   6.996   6.562   1.104 -1.1673 -0.8878 -1.0985
 9684TIP3    H229017   7.035   6.699   1.051  0.1707 -0.5626  0.6440
 9685TIP3   OH229018   4.039   3.047   4.698  0.4055 -1.0583  0.4607
 9685TIP3    H129019   4.007   2.957   4.689  0.0925 -0.7969 -1.3590
 9685TIP3    H229020   4.086   3.064   4.617  1.7685 -0.0570  1.3992
 9686TIP3   OH229021   4.214   5.527   2.159  0.5967 -0.4802 -0.2160
 9686TIP3    H129022   4.261   5.561   2.236 -0.0543 -3.7983  1.8598
 9686TIP3    H229023   4.126   5.564   2.167  0.7307 -0.2449  0.2216
 9687TIP3   OH229024   5.520   4.148   1.637 -0.1522  0.4843 -0.0874
 9687TIP3    H129025   5.561   4.189   1.713 -0.9823 -0.1949  0.7679
 9687TIP3    H229026   5.531   4.211   1.566  1.6815  0.6322  0.2815
 9688TIP3   OH229027   1.794   5.060   2.748 -0.1527  0.3904  0.3472
 9688TIP3    H129028   1.765   5.132   2.805  0.4612  1.5332 -0.7407
 9688TIP3    H229029   1.851   5.102   2.684  0.1556 -1.0734 -0.3714
 9689TIP3   OH229030   0.487   0.142   1.539 -0.0002 -0.0380  0.4079
 9689TIP3    H129031   0.477   0.234   1.563 -0.8786 -0.4404  1.7076
 9689TIP3    H229032   0.580   0.124   1.548  0.2350  0.8149 -0.2328
 9690TIP3   OH229033   6.040   2.851   5.260  0.7983 -0.0255 -0.0917
 9690TIP3    H129034   6.014   2.800   5.336 -0.0748 -0.6792 -0.8007
 9690TIP3    H229035   6.122   2.812   5.231  1.7864  1.0156  1.2182
 9691TIP3   OH229036   4.276   4.897   4.777  0.5620  0.6964  0.2062
 9691TIP3    H129037   4.278   4.905   4.873  0.9092  0.7925  0.1925
 9691TIP3    H229038   4.322   4.975   4.745 -1.0354  1.5403 -0.0975
 9692TIP3   OH229039   4.661   1.821   3.997  0.5445 -0.5536 -0.3004
 9692TIP3    H129040   4.715   1.743   4.014  1.3729  0.3177  1.3395
 9692TIP3    H229041   4.580   1.786   3.960  1.0418 -2.1807  0.0423
 9693TIP3   OH229042   1.615   6.537   3.817  0.0642 -0.3754 -0.1086
 9693TIP3    H129043   1.663   6.465   3.858  1.8697 -0.3559 -1.9801
 9693TIP3    H229044   1.653   6.543   3.729 -1.6570  1.3710 -0.8024
 9694TIP3   OH229045   6.371   4.122   4.664 -0.0813 -0.2942  0.1929
 9694TIP3    H129046   6.420   4.040   4.669 -0.4180 -0.4592  0.8031
 9694TIP3    H229047   6.369   4.142   4.570  1.3169 -0.1825  0.1584
 9695TIP3   OH229048   0.907   4.839   5.899  0.2187 -0.0131 -0.1162
 9695TIP3    H129049   0.925   4.873   5.811 -1.2103 -1.6399 -1.0876
 9695TIP3    H229050   0.855   4.907   5.942 -0.3077  0.1899 -1.0598
 9696TIP3   OH229051   6.365   0.074   2.564  0.6126  0.7423  0.3818
 9696TIP3    H129052   6.396   0.162   2.540 -1.2191  0.5756 -3.4496
 9696TIP3    H229053   6.272   0.075   2.539  0.0862 -1.7616  1.9446
 9697TIP3   OH229054   6.173   5.114   2.671 -0.4271 -0.0486 -0.3494
 9697TIP3    H129055   6.248   5.161   2.708  0.2932 -0.8363 -0.7799
 9697TIP3    H229056   6.208   5.028   2.648 -2.0445 -1.4091  1.8590
 9698TIP3   OH229057   2.821   2.551   1.605 -0.2728  0.4723 -0.1066
 9698TIP3    H129058   2.821   2.471   1.552 -1.9658  0.7510 -0.5708
 9698TIP3    H229059   2.779   2.525   1.687 -1.1172  0.9481 -0.3812
 9699TIP3   OH229060   1.176   3.306   4.197  0.1303  0.1894 -0.8382
 9699TIP3    H129061   1.209   3.394   4.181 -1.1933  0.6047 -1.4238
 9699TIP3    H229062   1.208   3.284   4.285  1.1720  0.9097 -1.0240
 9700TIP3   OH229063   6.496   3.353   4.025 -0.2331  0.2267 -0.3607
 9700TIP3    H129064   6.438   3.308   4.085 -0.1040  1.1129  0.4602
 9700TIP3    H229065   6.515   3.436   4.068  2.3501 -0.3809 -0.1647
 9701TIP3   OH229066   1.284   4.593   5.129  0.2343  0.6035 -0.1573
 9701TIP3    H129067   1.314   4.638   5.050  1.1182  0.0628 -0.1509
 9701TIP3    H229068   1.364   4.583   5.182 -0.3504  1.0162  0.8372
 9702TIP3   OH229069   0.727   5.076   2.771  0.0716 -0.4921  0.3707
 9702TIP3    H129070   0.773   5.092   2.854 -0.5482  0.1895  0.5925
 9702TIP3    H229071   0.670   5.001   2.789 -0.9124  0.3737  0.9116
 9703TIP3   OH229072   6.372   0.993   2.818  0.0418 -0.0458 -0.5809
 9703TIP3    H129073   6.397   1.044   2.895  0.9727  2.5098 -2.4321
 9703TIP3    H229074   6.431   0.917   2.819  2.2253  1.5559 -0.3832
 9704TIP3   OH229075   0.699   5.223   2.555  0.3832  0.6869 -0.3612
 9704TIP3    H129076   0.698   5.179   2.640 -1.5580 -0.2651 -0.8304
 9704TIP3    H229077   0.707   5.316   2.577 -1.4561  0.5877  0.9907
 9705TIP3   OH229078   1.131   2.741   3.042  0.2363  0.0257 -0.3171
 9705TIP3    H129079   1.181   2.660   3.050  0.5343  0.1418 -0.9698
 9705TIP3    H229080   1.158   2.778   2.958 -0.3970  0.4647 -0.3341
 9706TIP3   OH229081   3.226   4.590   0.572  0.5408 -0.3159 -0.1307
 9706TIP3    H129082   3.306   4.613   0.618  1.0318 -0.9584 -0.6410
 9706TIP3    H229083   3.162   4.655   0.601  1.2128  0.1396  0.3636
 9707TIP3   OH229084   0.935   4.834   4.375  0.0204 -0.0035  0.6002
 9707TIP3    H129085   0.877   4.910   4.378 -0.8398 -0.6740  1.3857
 9707TIP3    H229086   0.892   4.768   4.429  1.5151 -0.5315  1.2166
 9708TIP3   OH229087   6.630   6.414   0.191 -0.1683  0.3186  0.3239
 9708TIP3    H129088   6.722   6.436   0.207 -0.1664  0.5009  0.0658
 9708TIP3    H229089   6.632   6.327   0.152 -0.2600 -0.8743  2.7670
 9709TIP3   OH229090   5.848   1.169   5.638  0.3336 -0.3416  0.2308
 9709TIP3    H129091   5.937   1.135   5.647  0.1636 -0.6276  0.9534
 9709TIP3    H229092   5.792   1.098   5.671  0.0395  1.1260  3.2495
 9710TIP3   OH229093   5.371   3.883   3.177 -0.1791 -0.2463 -0.1071
 9710TIP3    H129094   5.294   3.828   3.181  0.5965 -1.4700 -1.2245
 9710TIP3    H229095   5.354   3.944   3.105  0.1447 -0.9544 -0.7998
 9711TIP3   OH229096   1.190   4.581   5.611 -0.0953  0.0562 -0.1741
 9711TIP3    H129097   1.123   4.513   5.614 -0.7751  0.6591 -1.1577
 9711TIP3    H229098   1.263   4.545   5.661 -0.9458 -0.8327  0.4680
 9712TIP3   OH229099   3.830   5.172   2.570  0.3024 -0.5039 -0.0169
 9712TIP3    H129100   3.891   5.216   2.511  0.3937  0.0384  0.4731
 9712TIP3    H229101   3.869   5.182   2.656 -0.6627  0.1945  0.3587
 9713TIP3   OH229102   7.010   4.706   3.717 -0.1313  0.9377  0.5361
 9713TIP3    H129103   6.917   4.704   3.695  0.0012  0.3461 -0.0092
 9713TIP3    H229104   7.022   4.788   3.765 -0.9003  1.0913  0.4797
 9714TIP3   OH229105   4.068   0.919   4.320 -0.2300  0.3464  0.6974
 9714TIP3    H129106   4.049   0.827   4.301 -0.2449  0.3958  0.4715
 9714TIP3    H229107   3.986   0.954   4.353 -0.3263  0.3734  0.4272
 9715TIP3   OH229108   5.597   0.810   5.324 -0.2281  0.1600 -0.4146
 9715TIP3    H129109   5.662   0.783   5.388 -0.5214  2.8344  1.1956
 9715TIP3    H229110   5.549   0.730   5.303  2.3322 -1.5233 -0.2467
 9716TIP3   OH229111   4.295   4.813   0.421 -0.0018 -0.0141 -0.3163
 9716TIP3    H129112   4.350   4.754   0.472  0.8245 -0.1999 -1.3988
 9716TIP3    H229113   4.331   4.900   0.438  1.5205 -0.2537 -2.0514
 9717TIP3   OH229114   1.214   1.735   3.109 -0.2536  0.1324  0.3287
 9717TIP3    H129115   1.259   1.768   3.187  2.0325 -0.5769 -0.5938
 9717TIP3    H229116   1.206   1.811   3.052 -0.1110  0.2394  0.4499
 9718TIP3   OH229117   4.903   3.456   4.629  0.8835  0.0945 -0.0806
 9718TIP3    H129118   4.828   3.435   4.574 -0.4313  2.3906  0.7035
 9718TIP3    H229119   4.970   3.487   4.568 -0.0380  1.2030 -0.5698
 9719TIP3   OH229120   3.601   1.901   1.461  0.1793  0.1814  0.1424
 9719TIP3    H129121   3.578   1.935   1.375  0.6239 -1.2513 -0.5758
 9719TIP3    H229122   3.562   1.813   1.463 -1.3912  0.8382  2.1188
 9720TIP3   OH229123   4.517   3.823   0.443  0.2246  0.0176  0.3301
 9720TIP3    H129124   4.605   3.856   0.455 -0.2972  1.5265  0.2118
 9720TIP3    H229125   4.512   3.799   0.350  0.4118  0.2596  0.2575
 9721TIP3   OH229126   2.253   0.571   1.528  0.4824 -0.6513 -0.2866
 9721TIP3    H129127   2.163   0.540   1.520  0.1075  0.6226 -1.3660
 9721TIP3    H229128   2.301   0.525   1.459 -0.0037  0.8363 -1.6727
 9722TIP3   OH229129   3.096   2.397   3.454 -0.2902  0.1037  0.3669
 9722TIP3    H129130   3.054   2.314   3.430  0.4646 -0.0715 -0.4143
 9722TIP3    H229131   3.090   2.450   3.374 -2.6161  1.6155  1.4525
 9723TIP3   OH229132   6.747   0.141   3.919 -0.4435  0.1622  0.0944
 9723TIP3    H129133   6.839   0.167   3.931 -0.3661 -0.0654 -0.0102
 9723TIP3    H229134   6.751   0.047   3.900 -0.6542  0.2769 -0.5249
 9724TIP3   OH229135   4.750   5.031   3.318  0.3087  0.5940 -0.0936
 9724TIP3    H129136   4.770   5.044   3.410 -0.7627 -1.5750  0.5288
 9724TIP3    H229137   4.683   5.096   3.298 -0.0754  0.5183  0.9172
 9725TIP3   OH229138   0.919   3.005   4.691  0.4818  0.2187 -0.3286
 9725TIP3    H129139   0.864   2.985   4.766  0.5985 -1.8007 -0.7126
 9725TIP3    H229140   0.859   3.041   4.625  0.1632  0.8105  0.2776
 9726TIP3   OH229141   3.927   5.805   4.441 -0.1007  0.2883  0.2218
 9726TIP3    H129142   3.875   5.732   4.408  0.2059 -0.3831  1.1815
 9726TIP3    H229143   3.971   5.770   4.519  2.0485  0.7158 -0.7281
 9727TIP3   OH229144   1.181   5.816   0.174 -0.6863 -0.4948 -0.6355
 9727TIP3    H129145   1.105   5.762   0.196 -0.4505 -0.0935  1.2964
 9727TIP3    H229146   1.245   5.753   0.140 -1.2513 -1.0859 -0.6364
 9728TIP3   OH229147   4.045   3.684   4.099 -0.2707 -0.3107 -0.1904
 9728TIP3    H129148   3.968   3.664   4.153  0.4460  0.3561  1.1095
 9728TIP3    H229149   4.015   3.667   4.010 -1.1853 -2.4404  0.4359
 9729TIP3   OH229150   2.027   6.506   5.231 -0.4621 -0.0901 -0.2213
 9729TIP3    H129151   2.043   6.558   5.310  0.4181 -0.9577  0.1997
 9729TIP3    H229152   2.068   6.556   5.160 -2.1975  1.2355 -0.3397
 9730TIP3   OH229153   3.729   5.563   0.832  0.1217  0.6248  0.1418
 9730TIP3    H129154   3.677   5.498   0.878 -0.1914  0.3331 -0.6212
 9730TIP3    H229155   3.665   5.620   0.790  0.4105  0.5253 -0.4376
 9731TIP3   OH229156   1.422   5.284   5.431  0.4166  0.6258 -0.5619
 9731TIP3    H129157   1.484   5.216   5.404  0.1144  0.4620 -0.8427
 9731TIP3    H229158   1.391   5.322   5.349 -0.3526  0.2667 -0.4377
 9732TIP3   OH229159   0.531   5.958   5.553 -0.0468 -0.2506  0.3730
 9732TIP3    H129160   0.600   5.899   5.524 -2.5260 -2.7498 -0.9614
 9732TIP3    H229161   0.495   5.995   5.472  0.8706  2.5204  1.1401
 9733TIP3   OH229162   6.429   0.818   1.580 -0.4504 -0.0469  0.1867
 9733TIP3    H129163   6.359   0.802   1.643 -0.7569  2.1888  0.4833
 9733TIP3    H229164   6.404   0.766   1.503 -1.0128 -1.3673  1.2155
 9734TIP3   OH229165   5.986   5.907   2.700  0.4181  0.4178 -0.2346
 9734TIP3    H129166   5.935   5.840   2.654  0.6758  0.9126 -1.2823
 9734TIP3    H229167   6.076   5.896   2.667  0.5966  0.8295  0.0972
 9735TIP3   OH229168   1.582   6.484   1.954  0.8167 -0.0640 -0.6769
 9735TIP3    H129169   1.598   6.509   2.045 -0.0665  1.7673 -0.9741
 9735TIP3    H229170   1.488   6.465   1.951  0.6713  0.7398 -1.3823
 9736TIP3   OH229171   3.857   2.698   5.586 -0.8098  0.0681 -0.3830
 9736TIP3    H129172   3.947   2.705   5.619 -0.6999  1.1376 -0.8841
 9736TIP3    H229173   3.867   2.682   5.492 -1.1370  1.6155 -0.6984
 9737TIP3   OH229174   6.167   4.157   5.630 -0.8773 -0.3333 -0.2682
 9737TIP3    H129175   6.179   4.063   5.616 -0.8019 -0.2048 -1.0875
 9737TIP3    H229176   6.254   4.190   5.649 -0.0567  0.2789 -4.3314
 9738TIP3   OH229177   2.542   1.631   2.466  0.0822 -0.2110 -0.2791
 9738TIP3    H129178   2.567   1.614   2.557  0.6546  2.8382  0.2531
 9738TIP3    H229179   2.459   1.678   2.472 -0.5288 -1.0887 -1.4427
 9739TIP3   OH229180   6.273   3.509   4.291  0.0465  0.1019 -0.1657
 9739TIP3    H129181   6.312   3.487   4.376  0.8904  1.0750 -0.2735
 9739TIP3    H229182   6.183   3.535   4.311 -0.0839 -0.6967  0.2964
 9740TIP3   OH229183   0.414   2.842   1.569 -0.3889 -0.1712 -0.3098
 9740TIP3    H129184   0.401   2.770   1.631 -0.4917 -1.1445 -1.4315
 9740TIP3    H229185   0.409   2.921   1.623  0.7213 -1.0277  1.1189
 9741TIP3   OH229186   0.175   6.227   3.287  0.0005 -0.3749 -0.1322
 9741TIP3    H129187   0.243   6.289   3.313  0.2954 -0.3847 -0.8592
 9741TIP3    H229188   0.194   6.208   3.195 -0.4862 -1.0258 -0.1038
 9742TIP3   OH229189   1.876   4.161   2.819  0.0745 -0.7573 -0.2360
 9742TIP3    H129190   1.956   4.153   2.768  0.2874 -0.3053  0.0215
 9742TIP3    H229191   1.812   4.200   2.760  0.4184  0.0891 -0.0655
 9743TIP3   OH229192   6.227   2.973   2.228 -0.2295  0.5101 -0.2097
 9743TIP3    H129193   6.243   2.882   2.203 -0.6085 -0.7217  3.3279
 9743TIP3    H229194   6.135   2.975   2.254 -0.1223  1.7900  0.1632
 9744TIP3   OH229195   6.232   2.722   0.786 -0.1242  0.2205  0.8246
 9744TIP3    H129196   6.257   2.807   0.750  1.7474 -0.5147  0.2883
 9744TIP3    H229197   6.189   2.743   0.868  0.6969  1.6852  0.9166
 9745TIP3   OH229198   0.517   6.267   4.226  0.9108  0.1356 -0.0987
 9745TIP3    H129199   0.603   6.300   4.253  1.7664 -0.4636 -1.9293
 9745TIP3    H229200   0.537   6.187   4.178 -0.7776 -0.5585  0.2981
 9746TIP3   OH229201   1.721   3.587   2.674 -0.1440 -0.0752  0.0599
 9746TIP3    H129202   1.679   3.602   2.759 -0.3438 -0.9634  0.1346
 9746TIP3    H229203   1.815   3.585   2.695 -0.0048  2.2200 -0.1583
 9747TIP3   OH229204   0.499   5.025   2.407  0.5320  0.9415  0.3364
 9747TIP3    H129205   0.472   5.029   2.315  2.4388  1.3797 -0.2505
 9747TIP3    H229206   0.566   5.093   2.415  1.1191  0.2190  1.8112
 9748TIP3   OH229207   4.607   2.752   1.984  0.1008  0.2398 -0.4818
 9748TIP3    H129208   4.589   2.754   2.078  0.5715  0.2524 -0.3893
 9748TIP3    H229209   4.664   2.676   1.972  0.7530  0.7441 -0.6261
 9749TIP3   OH229210   3.248   1.713   4.184 -0.5559  0.4293 -0.3298
 9749TIP3    H129211   3.263   1.700   4.278 -1.9869  1.9398  0.1694
 9749TIP3    H229212   3.297   1.793   4.163 -1.1731  0.7591 -0.5637
   7.21596   6.80328   5.89179   0.00000   0.00000  -2.40532   0.00000  -2.40532  -3.40163
