Title
29212
    1ASP      N    1   1.559   1.685   2.005  0.1015  0.5616 -0.5322
    1ASP    HT1    2   1.572   1.676   2.108 -0.9975 -1.5105 -0.4955
    1ASP    HT2    3   1.648   1.661   1.958  0.2330  0.5702 -0.2914
    1ASP    HT3    4   1.488   1.615   1.975 -3.6010  3.2066  1.1992
    1ASP     CA    5   1.500   1.815   1.964 -0.9477 -0.9091 -0.3192
    1ASP     HA    6   1.509   1.816   1.856  2.8039  1.5268 -0.1715
    1ASP     CB    7   1.360   1.834   2.024 -0.1174 -0.0833  0.2843
    1ASP    HB1    8   1.315   1.926   1.979  1.6250 -0.6398 -2.9202
    1ASP    HB2    9   1.370   1.828   2.134  1.3651 -0.3408  0.1525
    1ASP     CG   10   1.257   1.733   1.977  0.3776 -0.4336 -0.0398
    1ASP    OD1   11   1.294   1.636   1.907  0.1648 -0.0776  0.3857
    1ASP    OD2   12   1.139   1.759   2.008 -0.5389  0.4877 -0.3716
    1ASP      C   13   1.588   1.936   2.001  0.3246  0.0674  0.1789
    1ASP      O   14   1.708   1.938   1.973 -0.3801 -0.4638  0.4732
    2GLY      N   15   1.535   2.040   2.061 -0.2293  0.9739  0.0166
    2GLY     HN   16   1.439   2.039   2.086 -0.5109  3.5486 -0.6863
    2GLY     CA   17   1.606   2.161   2.120 -0.0191  0.6363  0.2931
    2GLY    HA1   18   1.541   2.222   2.180 -1.1785 -0.2852  0.0217
    2GLY    HA2   19   1.651   2.209   2.034  0.7999  0.2181  0.4773
    2GLY      C   20   1.723   2.130   2.210  0.2111  0.3496 -0.8066
    2GLY      O   21   1.716   2.038   2.300 -0.5146 -0.1566 -0.6735
    3ASP      N   22   1.832   2.203   2.181  0.8114 -0.0795 -0.0280
    3ASP     HN   23   1.837   2.267   2.104  0.2027 -0.3160 -0.2735
    3ASP     CA   24   1.960   2.208   2.249  0.1481  0.4736 -0.4206
    3ASP     HA   25   1.992   2.104   2.247 -1.9470 -0.2041 -1.1025
    3ASP     CB   26   2.064   2.285   2.171 -0.0831 -0.2706 -0.0150
    3ASP    HB1   27   2.161   2.280   2.225  0.2481 -0.0189 -0.5788
    3ASP    HB2   28   2.051   2.395   2.159  0.7857 -0.2319 -0.7134
    3ASP     CG   29   2.105   2.220   2.042  0.9656  0.7821  0.3003
    3ASP    OD1   30   2.183   2.284   1.968  0.1999  0.3516  0.6765
    3ASP    OD2   31   2.067   2.102   2.015 -0.1811 -0.3196  0.1853
    3ASP      C   32   1.969   2.248   2.394 -0.2720 -0.8514 -0.2495
    3ASP      O   33   1.901   2.337   2.440  0.3191  0.3038  0.2532
    4GLY      N   34   2.051   2.181   2.473 -0.2270  0.7433 -0.0910
    4GLY     HN   35   2.090   2.097   2.437  0.2602  0.6340  0.6578
    4GLY     CA   36   2.082   2.223   2.611 -0.0116  0.1727  0.4212
    4GLY    HA1   37   2.114   2.129   2.652 -1.3722 -0.3963  0.2230
    4GLY    HA2   38   1.995   2.273   2.652  0.0197  0.6511 -0.0787
    4GLY      C   39   2.200   2.317   2.613  0.0627 -0.2268  0.5467
    4GLY      O   40   2.252   2.350   2.510 -0.1611 -0.3454  0.3121
    5PRO      N   41   2.230   2.361   2.731 -0.0473  0.0094  0.0548
    5PRO     CD   42   2.165   2.314   2.858  0.3274  0.3341  0.4184
    5PRO    HD1   43   2.205   2.211   2.874 -2.1418 -0.3291  3.1423
    5PRO    HD2   44   2.055   2.302   2.854  0.3673 -0.3105  1.0635
    5PRO     CA   45   2.354   2.439   2.757  0.2201 -0.5070  0.2409
    5PRO     HA   46   2.327   2.534   2.713  0.6440 -0.3695  0.2729
    5PRO     CB   47   2.365   2.441   2.910 -0.5934  0.0361 -0.0815
    5PRO    HB1   48   2.407   2.538   2.944  0.0496 -0.8266  1.7294
    5PRO    HB2   49   2.434   2.360   2.940  1.0060  1.4539  0.2295
    5PRO     CG   50   2.220   2.417   2.958  0.8075 -0.0920  0.1925
    5PRO    HG1   51   2.211   2.381   3.063  0.0558 -1.0672 -0.1823
    5PRO    HG2   52   2.149   2.501   2.949  0.1023 -0.7907 -1.2812
    5PRO      C   53   2.479   2.398   2.677 -0.4157  0.3276 -0.5518
    5PRO      O   54   2.504   2.277   2.668  0.1383 -0.0289 -0.0666
    6GLY      N   55   2.548   2.501   2.625 -0.4744 -0.1735  0.5472
    6GLY     HN   56   2.512   2.594   2.630  1.9731  0.9033 -0.3002
    6GLY     CA   57   2.669   2.487   2.547 -0.1186 -0.3129  0.2679
    6GLY    HA1   58   2.715   2.582   2.523  2.5154 -1.6697 -0.4336
    6GLY    HA2   59   2.644   2.447   2.450  1.6484  1.2439 -0.9184
    6GLY      C   60   2.776   2.401   2.600  0.4212  0.4087  0.1377
    6GLY      O   61   2.773   2.371   2.721 -0.2809  0.2399  0.0683
    7ASP      N   62   2.872   2.358   2.517 -0.0823 -0.7938  0.0741
    7ASP     HN   63   2.868   2.388   2.422  2.4982  0.9713  0.4090
    7ASP     CA   64   3.001   2.303   2.557  0.7256 -0.2207  0.1010
    7ASP     HA   65   2.970   2.241   2.640 -0.1508  0.4845  0.3149
    7ASP     CB   66   3.062   2.239   2.424  0.4138  0.3245 -0.4317
    7ASP    HB1   67   3.166   2.208   2.448  0.1171  0.4165  1.0620
    7ASP    HB2   68   3.056   2.318   2.346 -2.6336  2.0347  1.3429
    7ASP     CG   69   2.973   2.118   2.375 -1.2358 -0.1818 -0.0994
    7ASP    OD1   70   2.892   2.076   2.462  0.3671 -0.1707 -0.2045
    7ASP    OD2   71   2.986   2.079   2.259  0.5778  0.2446  0.1869
    7ASP      C   72   3.099   2.407   2.618  0.1446  0.7841  0.6558
    7ASP      O   73   3.076   2.529   2.606 -0.5439  0.3844 -0.5104
    8PRO      N   74   3.207   2.365   2.688  0.6728  0.4944  0.2624
    8PRO     CD   75   3.212   2.229   2.750 -0.4670 -0.7645  0.1636
    8PRO    HD1   76   3.239   2.166   2.662  0.9069  1.9050 -1.4645
    8PRO    HD2   77   3.112   2.203   2.790 -0.9855  0.5635 -0.2113
    8PRO     CA   78   3.317   2.448   2.728 -1.2667 -0.4536  0.1287
    8PRO     HA   79   3.272   2.517   2.797 -0.1140  2.5754 -1.9399
    8PRO     CB   80   3.421   2.351   2.790  0.0306 -0.3821 -0.1021
    8PRO    HB1   81   3.481   2.403   2.867  0.1090 -1.2303  0.4217
    8PRO    HB2   82   3.493   2.298   2.724 -0.5883 -1.2353 -0.1004
    8PRO     CG   83   3.327   2.249   2.852 -0.0653  0.5941 -0.2893
    8PRO    HG1   84   3.385   2.156   2.871  1.4609  1.9888  2.6650
    8PRO    HG2   85   3.277   2.293   2.941  1.0451 -3.0014  2.3102
    8PRO      C   86   3.386   2.537   2.619  0.0413  0.0503  0.1902
    8PRO      O   87   3.369   2.517   2.503 -0.3054 -0.2797  0.2250
    9GLY      N   88   3.477   2.622   2.664 -0.4830  0.0040 -0.6084
    9GLY     HN   89   3.506   2.620   2.759  0.0725  0.6308 -0.7532
    9GLY     CA   90   3.569   2.691   2.584  0.2771 -0.1370  0.0570
    9GLY    HA1   91   3.563   2.791   2.624  0.1670  0.8712 -2.3124
    9GLY    HA2   92   3.537   2.702   2.482  0.4742  2.5295  0.2295
    9GLY      C   93   3.716   2.648   2.601  0.4619 -0.3117  0.7692
    9GLY      O   94   3.744   2.540   2.646  0.0516 -0.0731 -0.5070
   10ASP      N   95   3.802   2.741   2.552 -0.3329  0.6443  0.7537
   10ASP     HN   96   3.779   2.819   2.495  1.6319 -0.7833 -2.2742
   10ASP     CA   97   3.942   2.707   2.536 -0.6220 -0.0779  0.1325
   10ASP     HA   98   3.951   2.600   2.548  0.3186  0.1723  1.9827
   10ASP     CB   99   3.998   2.729   2.390  0.2511  0.4488  0.3591
   10ASP    HB1  100   4.088   2.672   2.359 -0.6415 -2.2501  2.3630
   10ASP    HB2  101   4.023   2.837   2.381 -1.5559  0.8804  0.1160
   10ASP     CG  102   3.905   2.702   2.268  0.3333 -0.2555  0.1445
   10ASP    OD1  103   3.925   2.599   2.200 -0.0820  0.0130  0.1536
   10ASP    OD2  104   3.807   2.781   2.249 -0.4374  0.1869 -0.1316
   10ASP      C  105   4.036   2.760   2.635 -0.6768 -0.9173 -0.5118
   10ASP      O  106   4.158   2.744   2.618 -0.1845  0.4436  0.4612
   11GLY      N  107   3.991   2.829   2.744 -0.2953 -0.1222 -0.8264
   11GLY     HN  108   3.897   2.861   2.753 -0.7693 -1.2354 -1.5622
   11GLY     CA  109   4.078   2.879   2.849  0.0962 -0.4344 -0.5441
   11GLY    HA1  110   4.170   2.919   2.808 -1.1150  0.5236 -2.4420
   11GLY    HA2  111   4.097   2.802   2.922  3.3425  0.5191 -0.2223
   11GLY      C  112   4.004   2.994   2.922  0.0325  0.7245  0.2926
   11GLY    OT1  113   3.888   2.981   2.969  0.4112 -0.0247  0.0717
   11GLY    OT2  114   4.060   3.106   2.931 -0.1451 -0.2137  0.0184
   12SOD    SOD  115   3.192   4.162   2.382  0.0437 -0.0368  0.0274
   13SOD    SOD  116   0.183   4.018   3.393 -0.3688 -0.4651 -0.3467
   14SOD    SOD  117   6.336   5.114   1.485 -0.1587 -0.1413  0.3809
   15SOD    SOD  118   4.861   1.125   2.568  0.0483  0.4464  0.0940
   16SOD    SOD  119   0.330   6.511   2.089 -0.1904  0.6162 -0.1408
   17SOD    SOD  120   2.971   6.246   3.617  0.4233  0.3804 -0.4668
   18SOD    SOD  121   4.673   4.241   2.363  0.3005 -0.2497  0.2584
   19SOD    SOD  122   5.315   1.690   1.253 -0.8116 -0.4586  0.2371
   20SOD    SOD  123   6.475   3.291   5.779 -0.0368  0.0957  0.5331
   21SOD    SOD  124   5.501   1.836   4.907 -0.3166 -0.2433 -0.6395
   22SOD    SOD  125   5.242   1.674   2.113  0.0027 -0.0685 -0.7699
   23SOD    SOD  126   3.005   3.758   3.884  0.1988  0.2672 -0.0827
   24SOD    SOD  127   1.055   0.857   3.940  0.2142  0.1063 -0.3002
   25SOD    SOD  128   3.605   0.753   5.572  0.1463  0.1602 -0.2288
   26SOD    SOD  129   2.475   2.053   5.702 -0.1423  0.0518 -0.3361
   27SOD    SOD  130   2.598   6.361   0.297 -0.2838 -0.1198 -0.0082
   28SOD    SOD  131   4.721   3.784   5.779 -0.1864  0.3763 -0.1937
   29SOD    SOD  132   1.236   0.360   1.415  0.0268  0.2855 -0.0072
   30SOD    SOD  133   4.277   2.088   2.549  0.4794  0.1852 -0.0115
   31SOD    SOD  134   6.216   0.886   4.720 -0.7064 -0.2283  0.0395
   32SOD    SOD  135   2.736   5.619   0.173  0.3424 -0.1443 -0.2121
   33SOD    SOD  136   6.718   5.353   4.773 -0.1429 -0.0316  0.0040
   34SOD    SOD  137   5.095   2.451   1.588  0.2684  0.2733 -0.0176
   35SOD    SOD  138   6.145   0.034   1.892  0.2166 -0.2590 -0.0279
   36SOD    SOD  139   2.827   1.813   2.070 -0.2504  0.1988  0.4624
   37SOD    SOD  140   5.568   0.551   5.655 -0.3038 -0.6491  0.3387
   38SOD    SOD  141   1.644   5.258   3.672 -0.5317  0.0302 -0.5139
   39SOD    SOD  142   7.212   3.231   1.114 -0.0438  0.5712  0.4588
   40SOD    SOD  143   4.178   1.792   4.732 -0.0223  0.0605  0.1240
   41SOD    SOD  144   7.210   6.528   2.360 -0.2072  0.1506 -0.5953
   42SOD    SOD  145   3.595   2.086   0.906 -0.3989  0.4094  0.5329
   43CLA    CLA  146   0.484   4.172   4.575  0.2133  0.1034  0.1630
   44CLA    CLA  147   0.087   2.846   2.362 -0.0832  0.2422 -0.1624
   45CLA    CLA  148   3.580   3.697   0.338 -0.2928 -0.0148 -0.0349
   46CLA    CLA  149   4.356   1.439   3.730  0.4867 -0.0075 -0.4846
   47CLA    CLA  150   5.952   5.863   1.539  0.0274 -0.3594  0.0913
   48CLA    CLA  151   6.335   5.805   5.864  0.1550 -0.5473  0.2424
   49CLA    CLA  152   0.019   4.889   0.791  0.3467  0.0949 -0.1187
   50CLA    CLA  153   4.938   6.422   4.370  0.0564 -0.4769  0.3487
   51CLA    CLA  154   5.867   3.447   1.220 -0.0286  0.1489 -0.0594
   52CLA    CLA  155   5.924   2.514   4.869 -0.2291 -0.2132 -0.0435
   53CLA    CLA  156   4.485   0.347   3.893 -0.0206  0.1099  0.0001
   54CLA    CLA  157   4.518   5.333   1.043 -0.0413  0.4277 -0.1898
   55CLA    CLA  158   0.569   0.851   0.016  0.0677  0.0627 -0.4168
   56CLA    CLA  159   4.976   3.655   5.406 -0.0265 -0.0125  0.0456
   57CLA    CLA  160   5.827   3.922   1.834 -0.0333 -0.4457  0.1306
   58CLA    CLA  161   2.929   3.089   3.044 -0.1231  0.4086  0.3753
   59CLA    CLA  162   2.139   0.120   2.336 -0.3505 -0.3842 -0.0702
   60CLA    CLA  163   5.331   0.899   5.877 -0.2551 -0.1004  0.0496
   61CLA    CLA  164   3.520   4.724   4.192 -0.3860 -0.1307 -0.3534
   62CLA    CLA  165   1.319   4.706   3.036 -0.0920 -0.1229  0.2206
   63CLA    CLA  166   5.332   5.385   5.292  0.0487 -0.2149  0.0273
   64CLA    CLA  167   1.990   3.954   4.791 -0.6841 -0.0681 -0.6009
   65CLA    CLA  168   3.880   6.610   3.446 -0.2680  0.5305  0.3598
   66CLA    CLA  169   0.673   5.224   3.910  0.0485  0.5922 -0.1526
   67CLA    CLA  170   6.601   6.325   0.676 -0.0621 -0.0673 -0.3915
   68CLA    CLA  171   7.166   1.484   0.928 -0.2898 -0.0552 -0.2735
   69CLA    CLA  172   2.992   2.734   4.421 -0.1544  0.1368 -0.2629
   70TIP3   OH2  173   3.279   2.656   0.822  0.0861  0.0057 -0.4475
   70TIP3    H1  174   3.335   2.720   0.778 -0.9715  1.3975  0.1469
   70TIP3    H2  175   3.198   2.655   0.770 -0.0289 -0.6405 -0.2708
   71TIP3   OH2  176   2.148   2.152   3.602  0.0348 -0.0831 -0.2747
   71TIP3    H1  177   2.080   2.200   3.649 -2.1398 -1.9269 -1.3578
   71TIP3    H2  178   2.132   2.171   3.510  1.4684  0.0118 -0.5263
   72TIP3   OH2  179   3.505   4.730   0.055  0.1616 -0.3383  0.3037
   72TIP3    H1  180   3.573   4.732   0.122  1.2500 -1.2040 -0.7414
   72TIP3    H2  181   3.497   4.637   0.032  0.9304  0.0693 -1.8458
   73TIP3   OH2  182   0.763   6.418   2.327  0.4256 -0.1518  0.1048
   73TIP3    H1  183   0.731   6.507   2.343 -0.5667 -0.2182 -1.2770
   73TIP3    H2  184   0.775   6.380   2.414  2.9019  1.9739  0.7920
   74TIP3   OH2  185   6.125   3.675   3.880 -0.2480  0.3070  0.1295
   74TIP3    H1  186   6.193   3.627   3.832 -0.0480  1.8598 -1.2340
   74TIP3    H2  187   6.169   3.706   3.960  0.2318  0.0486 -0.0338
   75TIP3   OH2  188   1.403   5.169   5.776 -0.2102  0.3551 -0.1568
   75TIP3    H1  189   1.454   5.243   5.809  0.4862  0.4632 -1.4324
   75TIP3    H2  190   1.463   5.121   5.720 -1.5245  0.5385 -1.7918
   76TIP3   OH2  191   5.797   5.019   0.390 -0.0865  0.2294 -0.3144
   76TIP3    H1  192   5.766   4.943   0.440 -1.3331  0.4279 -0.7541
   76TIP3    H2  193   5.854   5.066   0.450 -2.1368  0.8810  1.2331
   77TIP3   OH2  194   4.346   4.375   5.062  0.3593 -0.5377  0.1603
   77TIP3    H1  195   4.430   4.347   5.097  1.0615  1.4532  0.1524
   77TIP3    H2  196   4.359   4.382   4.968  0.2814  0.0844  0.1925
   78TIP3   OH2  197   1.990   1.225   2.744  0.2666 -0.2310 -0.0244
   78TIP3    H1  198   1.975   1.161   2.813  0.9705 -0.4688 -0.0808
   78TIP3    H2  199   2.013   1.172   2.667 -0.0497  0.0517 -0.3203
   79TIP3   OH2  200   4.611   2.606   4.782  0.2399  0.3216  0.0592
   79TIP3    H1  201   4.627   2.585   4.690 -2.4294  0.0896 -0.4484
   79TIP3    H2  202   4.593   2.521   4.823 -0.8809  0.6318  0.2409
   80TIP3   OH2  203   6.026   0.576   4.958 -0.4219 -0.5726 -0.2075
   80TIP3    H1  204   5.970   0.515   5.006 -1.4570  1.5325  1.4520
   80TIP3    H2  205   5.965   0.635   4.913  0.5297 -0.3910 -1.3367
   81TIP3   OH2  206   3.918   5.096   5.525  1.0637 -0.2171 -0.0243
   81TIP3    H1  207   3.966   5.028   5.476 -0.1656 -0.0631 -1.5126
   81TIP3    H2  208   3.884   5.051   5.602  0.9929 -1.0798 -0.5520
   82TIP3   OH2  209   3.676   0.925   1.155  0.2524  0.6528 -0.2213
   82TIP3    H1  210   3.760   0.951   1.117  0.6908 -0.9433 -0.4137
   82TIP3    H2  211   3.637   1.007   1.186  1.2365  1.6000 -1.4009
   83TIP3   OH2  212   0.852   3.927   3.907 -0.4670 -0.5293 -0.6207
   83TIP3    H1  213   0.843   3.833   3.899 -1.4476 -0.4910 -0.0508
   83TIP3    H2  214   0.794   3.951   3.980 -1.9485  0.7930 -2.1574
   84TIP3   OH2  215   0.598   5.312   2.911 -0.3405 -0.5171  0.0645
   84TIP3    H1  216   0.528   5.342   2.970 -0.2440 -1.3893  0.6372
   84TIP3    H2  217   0.562   5.235   2.868  0.1918 -0.8354  0.1881
   85TIP3   OH2  218   0.809   0.611   4.720  0.0630 -0.1370  0.4277
   85TIP3    H1  219   0.809   0.633   4.813  0.1926  0.3047  0.3263
   85TIP3    H2  220   0.880   0.547   4.711  1.7995  1.7167  0.2135
   86TIP3   OH2  221   5.548   6.739   0.868 -0.0506  0.4388 -0.0015
   86TIP3    H1  222   5.614   6.731   0.936 -0.3044  1.9445  0.4615
   86TIP3    H2  223   5.551   6.831   0.843 -3.3851  1.1049  1.5113
   87TIP3   OH2  224   6.372   4.199   0.917 -0.2436 -0.4022 -0.5518
   87TIP3    H1  225   6.447   4.194   0.976  0.1354  0.9234 -0.9078
   87TIP3    H2  226   6.296   4.195   0.975 -0.0174 -3.5187 -0.2786
   88TIP3   OH2  227   4.486   3.548   4.862  0.6738 -0.0177  0.4961
   88TIP3    H1  228   4.452   3.598   4.936  0.7751  0.0159  0.5199
   88TIP3    H2  229   4.411   3.539   4.802  0.4453 -0.4985  0.8430
   89TIP3   OH2  230   3.053   6.322   0.723  0.4861  0.3927  1.4770
   89TIP3    H1  231   2.981   6.268   0.756  1.6338 -2.8020 -0.7082
   89TIP3    H2  232   3.130   6.291   0.771  0.8414  2.0316  2.0419
   90TIP3   OH2  233   6.017   1.566   2.902  0.4558 -0.0263 -0.5116
   90TIP3    H1  234   6.075   1.538   2.973 -0.2207  0.5117  0.2695
   90TIP3    H2  235   5.958   1.630   2.942 -1.4040 -1.3399 -0.9863
   91TIP3   OH2  236   5.437   0.371   1.126  0.4383 -0.0017 -0.1309
   91TIP3    H1  237   5.361   0.385   1.070  0.2662  1.6697  0.4556
   91TIP3    H2  238   5.464   0.459   1.153  1.5088 -0.6582  1.0898
   92TIP3   OH2  239   1.745   5.080   3.794 -0.4562  0.0387  0.5305
   92TIP3    H1  240   1.722   5.063   3.885 -1.1735  0.6924  0.4815
   92TIP3    H2  241   1.831   5.039   3.783 -1.4527 -2.3102  0.7801
   93TIP3   OH2  242   2.618   2.440   4.543  0.4621  0.5560  0.4283
   93TIP3    H1  243   2.709   2.426   4.517  0.5752  0.8873  0.6449
   93TIP3    H2  244   2.576   2.354   4.532  0.7452  0.4585  0.1115
   94TIP3   OH2  245   2.963   1.145   2.839  0.5775  0.3415 -0.1166
   94TIP3    H1  246   2.985   1.187   2.756  0.6512  1.0892  0.2757
   94TIP3    H2  247   2.948   1.217   2.900  2.7909 -0.1728  1.1339
   95TIP3   OH2  248   1.906   5.442   3.954 -0.1279  0.2972  0.2883
   95TIP3    H1  249   1.951   5.459   3.872 -0.5507 -0.8937 -0.2191
   95TIP3    H2  250   1.938   5.356   3.982  0.2647  0.8322  1.5609
   96TIP3   OH2  251   5.779   3.340   5.068 -0.5737 -0.4875 -0.1577
   96TIP3    H1  252   5.739   3.418   5.105  0.0101 -0.3188  0.1233
   96TIP3    H2  253   5.864   3.332   5.112 -0.2220 -0.7524 -0.8544
   97TIP3   OH2  254   3.968   4.804   0.330 -0.1271  0.4177  0.3424
   97TIP3    H1  255   4.014   4.809   0.247  2.8898  1.2469  1.9122
   97TIP3    H2  256   3.979   4.891   0.369 -0.6367 -0.2053  1.9943
   98TIP3   OH2  257   1.243   0.467   3.629  0.1305  0.0636  0.5848
   98TIP3    H1  258   1.147   0.469   3.624  0.1091  1.0036  1.0382
   98TIP3    H2  259   1.272   0.439   3.543 -0.5658 -0.8668  0.6388
   99TIP3   OH2  260   5.976   5.480   5.574 -0.3639 -0.2267 -0.3673
   99TIP3    H1  261   6.062   5.499   5.537 -0.8226 -1.3990 -2.1476
   99TIP3    H2  262   5.964   5.386   5.561 -1.2616 -0.3919  1.3290
  100TIP3   OH2  263   4.975   2.476   4.992 -0.0785 -0.4013 -0.4731
  100TIP3    H1  264   5.067   2.483   5.020 -0.1092 -0.3629 -0.3805
  100TIP3    H2  265   4.963   2.384   4.970 -0.1564 -0.5018 -0.0047
  101TIP3   OH2  266   0.397   0.245   2.020  0.0004  0.3436 -0.0397
  101TIP3    H1  267   0.420   0.328   2.062 -1.2499  0.1720  1.0637
  101TIP3    H2  268   0.480   0.196   2.016  0.2383  0.4643  2.0790
  102TIP3   OH2  269   1.846   2.813   3.545  0.2812  0.2203  0.9865
  102TIP3    H1  270   1.921   2.869   3.520 -0.7513  0.6708 -1.3645
  102TIP3    H2  271   1.780   2.831   3.479 -0.3906 -3.2979  0.5150
  103TIP3   OH2  272   0.902   1.263   5.619 -0.6425  1.0205  0.7578
  103TIP3    H1  273   0.866   1.179   5.648  1.1972  0.2582  1.0029
  103TIP3    H2  274   0.914   1.253   5.524 -1.3418  1.3901  0.6240
  104TIP3   OH2  275   4.725   5.063   3.336  0.7162 -0.2654 -0.2189
  104TIP3    H1  276   4.796   5.039   3.277  0.8307  0.4931 -0.3997
  104TIP3    H2  277   4.752   5.029   3.421  1.2686 -0.0274 -0.2959
  105TIP3   OH2  278   0.359   4.470   2.664 -0.0739 -0.7145 -0.2843
  105TIP3    H1  279   0.332   4.445   2.752  1.9805  0.7629  0.8541
  105TIP3    H2  280   0.337   4.563   2.658  0.5890 -0.5901 -0.9664
  106TIP3   OH2  281   5.297   6.380   1.644 -0.3093 -0.0635  0.5766
  106TIP3    H1  282   5.287   6.380   1.548 -2.3039  0.1292  0.7440
  106TIP3    H2  283   5.371   6.322   1.660  0.5577  0.5186 -1.1254
  107TIP3   OH2  284   2.091   6.732   1.780  0.1987  0.0509  0.2905
  107TIP3    H1  285   2.090   6.639   1.756  1.0252 -0.6100  2.5571
  107TIP3    H2  286   2.064   6.778   1.700 -0.2367 -2.1220 -0.8869
  108TIP3   OH2  287   0.450   3.206   5.633 -0.5381 -0.0148 -0.5666
  108TIP3    H1  288   0.530   3.154   5.642 -0.8032 -0.3223  0.0611
  108TIP3    H2  289   0.380   3.149   5.663 -0.9520  0.3869 -0.7461
  109TIP3   OH2  290   3.039   5.067   3.802  0.5776 -0.1977  0.5268
  109TIP3    H1  291   2.950   5.035   3.789  0.3395  0.7704 -0.2903
  109TIP3    H2  292   3.095   5.002   3.759  0.1470  0.0838 -0.4812
  110TIP3   OH2  293   0.313   5.447   2.677  0.1946 -0.0163  0.0365
  110TIP3    H1  294   0.377   5.512   2.707 -1.0985  1.6631 -0.7244
  110TIP3    H2  295   0.362   5.365   2.677  1.8781  0.9198  1.0585
  111TIP3   OH2  296   1.554   5.115   2.726  0.2071 -0.3772 -0.0888
  111TIP3    H1  297   1.567   5.046   2.791  1.1246 -0.4517 -0.3301
  111TIP3    H2  298   1.536   5.068   2.645 -1.8896 -0.2791  0.2498
  112TIP3   OH2  299   1.269   3.282   4.090 -0.0045 -0.6887 -0.1087
  112TIP3    H1  300   1.281   3.316   4.001 -2.0391  1.2679  0.2637
  112TIP3    H2  301   1.345   3.314   4.138 -0.9755  2.0690 -0.2113
  113TIP3   OH2  302   7.094   6.202   5.280 -0.5203  0.6259  0.0372
  113TIP3    H1  303   7.179   6.174   5.245 -0.7151 -0.9788  0.7445
  113TIP3    H2  304   7.107   6.294   5.305  1.0719  0.3587  0.3071
  114TIP3   OH2  305   4.612   3.194   2.460 -0.6258  0.0756 -0.8789
  114TIP3    H1  306   4.700   3.158   2.467 -0.5266  0.1743 -1.5070
  114TIP3    H2  307   4.564   3.131   2.406 -0.8640  0.1479 -0.7553
  115TIP3   OH2  308   4.471   4.395   1.410  0.0930  0.0662 -0.0734
  115TIP3    H1  309   4.534   4.367   1.343 -0.1087  0.5407 -0.4718
  115TIP3    H2  310   4.431   4.314   1.441  0.0431 -0.1461 -0.6818
  116TIP3   OH2  311   5.265   0.208   3.350 -0.4689  0.5334  0.1826
  116TIP3    H1  312   5.349   0.249   3.371 -0.7166  1.1862 -0.0614
  116TIP3    H2  313   5.213   0.218   3.430 -0.0824 -0.5197  0.5861
  117TIP3   OH2  314   2.565   2.740   5.523  0.7616  0.1818 -0.3239
  117TIP3    H1  315   2.493   2.779   5.473  0.2075  0.2103  0.4748
  117TIP3    H2  316   2.546   2.763   5.614 -1.0263 -3.9935  0.6170
  118TIP3   OH2  317   7.152   1.308   4.912 -0.0950 -0.3461  0.6041
  118TIP3    H1  318   7.166   1.216   4.893 -2.8429 -0.7489  0.0460
  118TIP3    H2  319   7.094   1.309   4.988 -0.0331  0.9095  0.6696
  119TIP3   OH2  320   0.193   2.261   4.019  0.0756 -0.0733 -0.0624
  119TIP3    H1  321   0.186   2.184   4.074  1.7013  0.5667  1.1416
  119TIP3    H2  322   0.242   2.324   4.072  0.4766  1.0870 -1.7190
  120TIP3   OH2  323   6.333   2.674   4.105 -0.3572 -0.0378 -0.1697
  120TIP3    H1  324   6.319   2.722   4.023 -2.2404 -0.3614 -0.0670
  120TIP3    H2  325   6.274   2.599   4.100 -0.6009  0.0003  1.5233
  121TIP3   OH2  326   6.948   3.077   5.483 -0.0884  0.1886 -0.4679
  121TIP3    H1  327   6.993   3.153   5.521 -0.9517  1.0250 -1.0672
  121TIP3    H2  328   6.927   3.022   5.558 -1.5256  1.6800  0.2908
  122TIP3   OH2  329   2.382   2.836   0.183 -0.3142 -0.0039  0.4248
  122TIP3    H1  330   2.293   2.811   0.207 -0.6757  1.1026  0.2995
  122TIP3    H2  331   2.435   2.813   0.259 -0.5404 -1.4992  0.1634
  123TIP3   OH2  332   2.084   4.786   4.072  0.3594  0.2524  0.4996
  123TIP3    H1  333   2.148   4.736   4.021 -0.6795 -0.4821 -0.1339
  123TIP3    H2  334   2.135   4.826   4.142  1.4354 -0.6865  0.2844
  124TIP3   OH2  335   5.242   2.117   4.483 -0.3544 -0.4164  0.1215
  124TIP3    H1  336   5.247   2.156   4.396 -0.2210  1.3779  0.8739
  124TIP3    H2  337   5.270   2.027   4.472  1.0938  0.1805 -1.4417
  125TIP3   OH2  338   2.575   5.430   0.186 -0.1805  0.6618  0.5341
  125TIP3    H1  339   2.483   5.448   0.204 -0.6960  0.1830 -1.3714
  125TIP3    H2  340   2.592   5.347   0.232 -0.7537  0.6499  0.7338
  126TIP3   OH2  341   6.143   4.351   2.256 -0.5217  0.4294  0.0091
  126TIP3    H1  342   6.063   4.396   2.280 -0.9970 -0.1810 -0.3967
  126TIP3    H2  343   6.123   4.258   2.267  0.1369  0.2687 -0.0662
  127TIP3   OH2  344   4.437   6.323   3.900 -0.0792 -0.0923  0.2030
  127TIP3    H1  345   4.347   6.290   3.897 -0.8773  1.7498  1.4636
  127TIP3    H2  346   4.428   6.418   3.893  1.6701  0.2186  1.3342
  128TIP3   OH2  347   0.992   5.388   5.723  0.6858  0.3104 -0.0556
  128TIP3    H1  348   1.077   5.407   5.764  1.1950 -0.2347 -0.8187
  128TIP3    H2  349   0.979   5.295   5.738  0.1564  0.4167  0.1554
  129TIP3   OH2  350   4.622   4.353   1.736 -0.6151  0.0102 -0.0318
  129TIP3    H1  351   4.688   4.370   1.669  0.7254 -0.4997  1.0989
  129TIP3    H2  352   4.576   4.436   1.748 -1.5650 -0.1351 -2.2445
  130TIP3   OH2  353   0.997   0.403   1.407  0.6975 -0.8416  0.5049
  130TIP3    H1  354   0.968   0.455   1.482 -1.1606 -0.4734 -0.4053
  130TIP3    H2  355   0.922   0.348   1.386  0.7073 -0.0800 -1.8075
  131TIP3   OH2  356   5.025   6.186   1.238  0.0914  0.3475  0.2164
  131TIP3    H1  357   5.106   6.226   1.206 -0.1553  1.2398  0.6632
  131TIP3    H2  358   4.971   6.175   1.161  1.1570 -1.5782 -0.3227
  132TIP3   OH2  359   5.905   1.697   4.149 -0.0739  0.0733 -0.0858
  132TIP3    H1  360   5.974   1.752   4.111 -0.6949  0.7620 -0.2492
  132TIP3    H2  361   5.853   1.758   4.202 -1.3080 -0.1624 -0.9959
  133TIP3   OH2  362   6.225   5.705   3.987 -0.2546  0.1842  0.2357
  133TIP3    H1  363   6.255   5.789   4.023 -0.7652 -0.1010  1.3702
  133TIP3    H2  364   6.133   5.699   4.014 -0.0992 -0.9442  0.5551
  134TIP3   OH2  365   0.312   4.820   0.920  0.0538 -0.6142 -0.6001
  134TIP3    H1  366   0.230   4.823   0.871  1.8200  1.0942 -3.8190
  134TIP3    H2  367   0.291   4.861   1.004 -2.1275  1.0989 -1.8585
  135TIP3   OH2  368   2.022   4.687   1.900  0.7258 -0.0448  0.1572
  135TIP3    H1  369   2.071   4.746   1.957  0.3201 -0.3939  0.8744
  135TIP3    H2  370   1.953   4.651   1.955 -0.2090  0.2643 -0.7817
  136TIP3   OH2  371   4.603   3.387   3.908 -0.0191 -0.0072 -0.2058
  136TIP3    H1  372   4.631   3.298   3.927 -0.9329  0.0414  1.5923
  136TIP3    H2  373   4.680   3.441   3.926 -0.0213 -0.2605  0.5906
  137TIP3   OH2  374   2.426   4.145   0.865  0.3509 -0.0591 -0.3504
  137TIP3    H1  375   2.432   4.054   0.836 -1.3851 -0.0474 -0.8758
  137TIP3    H2  376   2.459   4.196   0.791  1.8874 -0.2484  0.1662
  138TIP3   OH2  377   5.600   6.461   4.159  0.3591  0.0945  0.7270
  138TIP3    H1  378   5.602   6.549   4.197  0.3500 -0.0174  0.9812
  138TIP3    H2  379   5.560   6.406   4.226 -1.5860  0.2849 -0.2207
  139TIP3   OH2  380   5.995   2.041   1.181 -0.2685 -0.2505 -0.1769
  139TIP3    H1  381   6.035   1.965   1.138  0.4988  0.5656 -0.9576
  139TIP3    H2  382   5.997   2.019   1.274  2.5628 -0.0532 -0.0854
  140TIP3   OH2  383   1.350   6.010   1.308 -0.3874 -0.3030  1.0913
  140TIP3    H1  384   1.343   5.925   1.351  0.4739 -0.7545  0.3854
  140TIP3    H2  385   1.373   5.989   1.217  2.2602  0.6880  1.4306
  141TIP3   OH2  386   0.194   0.479   0.297  0.1214 -0.1600  0.0821
  141TIP3    H1  387   0.255   0.433   0.240  0.6077  1.2192 -0.5605
  141TIP3    H2  388   0.250   0.524   0.361 -0.1872  1.1170 -0.5143
  142TIP3   OH2  389   4.643   0.235   4.326 -0.0905 -0.6275 -0.9818
  142TIP3    H1  390   4.579   0.203   4.262 -1.7173 -0.7713  0.6727
  142TIP3    H2  391   4.624   0.186   4.406  0.6248  0.9330  0.1872
  143TIP3   OH2  392   6.845   4.475   1.617  0.2871  0.6148  0.0314
  143TIP3    H1  393   6.812   4.545   1.561 -1.1994  0.2230  0.3610
  143TIP3    H2  394   6.769   4.420   1.633  0.9845 -0.0083  1.3518
  144TIP3   OH2  395   5.262   4.632   1.571 -0.0210  0.0815  0.4018
  144TIP3    H1  396   5.286   4.720   1.601  0.1360 -0.2132  1.1760
  144TIP3    H2  397   5.204   4.647   1.496 -0.2498  0.8488  0.7197
  145TIP3   OH2  398   2.889   0.898   1.776 -0.3338  0.7922  0.2524
  145TIP3    H1  399   2.904   0.829   1.711  1.1282  1.0974  0.2312
  145TIP3    H2  400   2.913   0.979   1.731 -0.7326  1.1665  0.7044
  146TIP3   OH2  401   4.530   3.870   4.340 -0.3994 -0.1788 -0.0548
  146TIP3    H1  402   4.588   3.939   4.309 -0.5943  1.1963  2.3352
  146TIP3    H2  403   4.580   3.790   4.331  0.9686  0.6644 -0.2341
  147TIP3   OH2  404   0.833   0.950   1.216 -0.4555 -0.1352 -0.1461
  147TIP3    H1  405   0.831   0.856   1.231 -0.0755 -0.3867 -1.5316
  147TIP3    H2  406   0.810   0.960   1.124 -1.1092  1.1826  0.1387
  148TIP3   OH2  407   1.878   2.098   1.827  0.3597 -0.0080  0.0459
  148TIP3    H1  408   1.945   2.105   1.895  0.1435 -3.6839  0.8486
  148TIP3    H2  409   1.804   2.054   1.870 -0.1455 -1.6403 -2.3129
  149TIP3   OH2  410   5.472   5.390   0.633 -0.0563 -0.0211  0.1280
  149TIP3    H1  411   5.556   5.422   0.666  1.0672 -1.8337 -0.8118
  149TIP3    H2  412   5.495   5.331   0.562 -1.9547 -2.6457  1.5142
  150TIP3   OH2  413   6.883   0.987   4.899  0.2463 -0.1471 -0.1149
  150TIP3    H1  414   6.967   1.009   4.861  0.8815  1.2787  1.9431
  150TIP3    H2  415   6.904   0.939   4.978 -0.9248 -0.7712 -0.1558
  151TIP3   OH2  416   2.804   0.717   0.839 -0.2690 -0.6584 -0.2764
  151TIP3    H1  417   2.898   0.714   0.826 -0.2981 -0.7831 -0.4608
  151TIP3    H2  418   2.793   0.721   0.934 -0.1114 -1.9342 -0.1882
  152TIP3   OH2  419   1.015   1.497   0.488 -0.0011 -0.3910  0.0801
  152TIP3    H1  420   0.925   1.469   0.506 -0.0759  0.2698  0.7409
  152TIP3    H2  421   1.019   1.502   0.392 -0.0058 -2.5757 -0.0952
  153TIP3   OH2  422   5.400   3.267   1.643 -0.4038 -0.1880  0.0666
  153TIP3    H1  423   5.402   3.253   1.738  0.7738 -1.6387 -0.1490
  153TIP3    H2  424   5.425   3.359   1.632 -2.0956  0.4769  1.1993
  154TIP3   OH2  425   3.807   3.550   2.406 -0.1135  0.1932  0.2601
  154TIP3    H1  426   3.809   3.456   2.386  1.5512  0.1824  0.3137
  154TIP3    H2  427   3.718   3.566   2.437 -0.3376 -1.4291  0.5641
  155TIP3   OH2  428   1.621   5.278   0.819  0.0790 -0.3744 -0.5120
  155TIP3    H1  429   1.661   5.324   0.893  0.8105 -2.5442  0.5353
  155TIP3    H2  430   1.530   5.306   0.819  0.6751  1.6768 -0.4664
  156TIP3   OH2  431   2.101   6.398   1.243  0.3479  0.5344  0.1984
  156TIP3    H1  432   2.156   6.422   1.318  0.2837  0.0366  0.4077
  156TIP3    H2  433   2.026   6.458   1.248 -0.0937 -0.0665  1.0469
  157TIP3   OH2  434   3.612   5.208   5.637  0.0657  0.2445  0.0343
  157TIP3    H1  435   3.637   5.260   5.714 -3.1263  1.9043  0.1383
  157TIP3    H2  436   3.688   5.213   5.579  1.0448  2.5069  1.3607
  158TIP3   OH2  437   1.645   3.780   0.550 -0.0702  0.6724  0.3712
  158TIP3    H1  438   1.725   3.755   0.596 -0.5854 -2.9661 -0.3378
  158TIP3    H2  439   1.575   3.740   0.601 -1.0547  0.5261 -1.0341
  159TIP3   OH2  440   1.539   0.514   5.420  0.4345 -0.2253  0.2847
  159TIP3    H1  441   1.520   0.584   5.482  0.9234  1.9253 -1.8400
  159TIP3    H2  442   1.616   0.545   5.372 -0.2118 -1.5427 -1.7235
  160TIP3   OH2  443   3.343   2.390   3.612  0.0630  0.1946  0.0465
  160TIP3    H1  444   3.286   2.337   3.557  1.4396 -0.0149 -1.2475
  160TIP3    H2  445   3.294   2.471   3.627 -0.9312 -0.3381 -0.2776
  161TIP3   OH2  446   1.160   1.677   5.452 -0.3558 -0.2244  0.4664
  161TIP3    H1  447   1.136   1.769   5.456  0.9730  0.1402  0.7922
  161TIP3    H2  448   1.194   1.658   5.539  2.2464 -0.1430 -0.4435
  162TIP3   OH2  449   1.357   4.002   0.972  0.1329  0.8215 -0.0223
  162TIP3    H1  450   1.278   4.054   0.953 -0.4335  0.0722  0.2334
  162TIP3    H2  451   1.384   3.967   0.887 -1.1043 -0.7133  0.1787
  163TIP3   OH2  452   7.150   3.459   1.181 -0.6099 -0.3204 -0.0387
  163TIP3    H1  453   7.070   3.500   1.215 -0.6234  0.7543 -1.3145
  163TIP3    H2  454   7.219   3.492   1.238 -0.9453 -0.5108  0.4899
  164TIP3   OH2  455   1.128   5.654   5.145 -0.0950  0.3593  0.0377
  164TIP3    H1  456   1.057   5.686   5.089  0.5067 -1.9036 -2.2042
  164TIP3    H2  457   1.207   5.661   5.091  0.4015 -2.5766  0.1933
  165TIP3   OH2  458   6.437   0.108   3.032  0.2428 -0.4083 -0.3949
  165TIP3    H1  459   6.359   0.060   3.060  0.2046 -1.0517 -1.5311
  165TIP3    H2  460   6.404   0.190   2.996 -0.0900 -1.2894 -2.2343
  166TIP3   OH2  461   2.029   1.334   3.158 -0.2169 -0.3938 -0.0636
  166TIP3    H1  462   1.985   1.408   3.116 -1.6638 -1.7620 -1.0325
  166TIP3    H2  463   2.121   1.361   3.161 -0.6054  1.1961 -0.9471
  167TIP3   OH2  464   1.764   6.283   2.690 -0.5902  0.2494  0.4079
  167TIP3    H1  465   1.732   6.338   2.619  0.5682  2.1942  1.3033
  167TIP3    H2  466   1.741   6.331   2.770  1.0372 -0.2037  1.2016
  168TIP3   OH2  467   4.271   6.387   1.408  0.0924 -0.1269 -0.3931
  168TIP3    H1  468   4.339   6.321   1.395  0.4379  0.3210 -0.9480
  168TIP3    H2  469   4.196   6.354   1.359  0.4854  0.2016 -1.2450
  169TIP3   OH2  470   4.069   3.823   4.540  0.3125  0.1528 -0.2432
  169TIP3    H1  471   4.074   3.910   4.580  0.1376  0.2572 -0.4473
  169TIP3    H2  472   4.126   3.828   4.463  0.3149  0.0800 -0.2467
  170TIP3   OH2  473   1.023   4.983   0.530 -0.0928  0.0653 -0.4667
  170TIP3    H1  474   0.966   4.928   0.476 -0.5218 -0.3279  0.3589
  170TIP3    H2  475   1.029   4.936   0.613 -0.2653  1.1341  0.1718
  171TIP3   OH2  476   3.280   3.650   2.228  0.4164 -0.5776  0.2049
  171TIP3    H1  477   3.354   3.706   2.204 -0.4082 -0.6876 -3.1597
  171TIP3    H2  478   3.316   3.561   2.226  0.4318 -0.5658 -0.5677
  172TIP3   OH2  479   1.716   6.124   2.305  0.2933  0.1359 -0.2374
  172TIP3    H1  480   1.688   6.047   2.255  0.6396  0.8762 -1.6174
  172TIP3    H2  481   1.669   6.197   2.265 -0.3162  0.6231  1.2936
  173TIP3   OH2  482   6.377   4.574   2.652  0.0309  0.4262 -0.5651
  173TIP3    H1  483   6.346   4.487   2.627  1.8280  0.1340 -2.0288
  173TIP3    H2  484   6.316   4.634   2.611 -0.5976 -0.1291 -0.4634
  174TIP3   OH2  485   2.132   1.493   4.162  0.4493 -0.0250 -0.1395
  174TIP3    H1  486   2.120   1.425   4.095 -0.1847 -0.0109 -0.0426
  174TIP3    H2  487   2.205   1.460   4.215 -0.5210 -1.1674  0.5436
  175TIP3   OH2  488   2.535   6.360   5.161  0.0243  0.2785  0.3744
  175TIP3    H1  489   2.481   6.309   5.101 -1.5855  1.9792  0.2751
  175TIP3    H2  490   2.481   6.368   5.240  0.1233  1.8844  0.3269
  176TIP3   OH2  491   6.145   2.568   0.157  0.3402 -0.1199  0.2524
  176TIP3    H1  492   6.068   2.543   0.105  0.2758  0.1825  0.1981
  176TIP3    H2  493   6.179   2.486   0.191 -0.6643 -0.1566  1.2083
  177TIP3   OH2  494   0.905   1.365   1.636 -0.0356 -0.1997  0.6246
  177TIP3    H1  495   0.857   1.442   1.605 -0.5690 -0.5209  0.6342
  177TIP3    H2  496   0.962   1.399   1.705 -0.3372  0.1704  0.6993
  178TIP3   OH2  497   2.918   1.402   5.619 -0.6604  0.1688  0.3790
  178TIP3    H1  498   3.001   1.404   5.667 -1.5689  1.3471  2.0117
  178TIP3    H2  499   2.862   1.345   5.671 -1.3990  0.7552  0.2403
  179TIP3   OH2  500   3.308   3.928   1.682 -0.2737 -0.3563  0.0051
  179TIP3    H1  501   3.261   3.856   1.640 -0.1018 -1.4536  1.6293
  179TIP3    H2  502   3.342   3.980   1.609 -2.3096 -0.6220 -1.2244
  180TIP3   OH2  503   5.083   4.094   1.337 -0.0042 -0.0838 -0.2964
  180TIP3    H1  504   4.991   4.087   1.361 -0.2160 -1.0006 -1.2574
  180TIP3    H2  505   5.096   4.024   1.272  1.5910 -0.6092  0.5135
  181TIP3   OH2  506   3.476   3.900   2.541  0.0044 -0.2081  0.7577
  181TIP3    H1  507   3.515   3.836   2.482 -0.7530 -0.3749  0.4243
  181TIP3    H2  508   3.470   3.854   2.625 -0.1347 -0.4350  0.6272
  182TIP3   OH2  509   1.669   4.438   0.113  0.0346  0.3364 -0.2048
  182TIP3    H1  510   1.658   4.354   0.157  1.3843  0.7551  0.9967
  182TIP3    H2  511   1.580   4.465   0.091 -0.5890 -0.4244  1.2810
  183TIP3   OH2  512   4.278   0.800   5.784 -0.4695 -0.1745 -0.0304
  183TIP3    H1  513   4.348   0.748   5.744 -0.6700 -1.2490  0.9637
  183TIP3    H2  514   4.204   0.790   5.724 -0.5032 -1.0535  0.1409
  184TIP3   OH2  515   4.946   6.023   4.849 -0.4208  0.4631  0.1642
  184TIP3    H1  516   4.923   6.031   4.756  0.9107  0.4611 -0.1889
  184TIP3    H2  517   4.865   6.044   4.895 -1.4847 -0.8635 -1.0013
  185TIP3   OH2  518   2.344   2.946   4.336 -0.3774  0.3587  0.1200
  185TIP3    H1  519   2.288   2.932   4.412 -0.3340 -0.5487 -0.0103
  185TIP3    H2  520   2.432   2.921   4.366 -0.1947  0.8790  0.0401
  186TIP3   OH2  521   6.685   0.762   2.613  0.5538  0.1196  0.4313
  186TIP3    H1  522   6.737   0.826   2.660  0.7226  0.7701 -0.6110
  186TIP3    H2  523   6.750   0.710   2.564  0.2558  1.1415 -1.1302
  187TIP3   OH2  524   6.822   3.324   5.099  0.0935  0.2064 -0.2843
  187TIP3    H1  525   6.830   3.408   5.054 -1.5636  0.7090  0.2791
  187TIP3    H2  526   6.857   3.260   5.038  1.4798  1.2894 -0.6959
  188TIP3   OH2  527   0.948   5.932   1.118 -0.1487  0.1004 -0.1218
  188TIP3    H1  528   0.936   5.898   1.030  0.4923 -1.4322  0.3570
  188TIP3    H2  529   0.954   6.027   1.106 -1.3931  0.0363 -1.5566
  189TIP3   OH2  530   2.978   4.994   4.984  0.2399  0.3824  0.3518
  189TIP3    H1  531   3.049   5.046   5.022  0.4354  0.0576  0.4427
  189TIP3    H2  532   3.018   4.948   4.911  0.2039 -0.0372  0.5894
  190TIP3   OH2  533   3.441   0.028   2.673 -0.1084  0.2534  0.4580
  190TIP3    H1  534   3.519  -0.009   2.630  0.0705  0.3683  0.6787
  190TIP3    H2  535   3.464   0.030   2.765 -0.7093 -0.5286  0.6361
  191TIP3   OH2  536   7.034   6.593   3.794  0.4914  0.0591 -0.7372
  191TIP3    H1  537   7.045   6.514   3.741  1.6810  0.6584 -1.4242
  191TIP3    H2  538   7.056   6.665   3.735  0.6058  0.8267  0.2136
  192TIP3   OH2  539   0.341   6.303   2.653 -0.2210  0.1758 -0.1046
  192TIP3    H1  540   0.295   6.370   2.703 -0.7246 -0.0394 -0.2644
  192TIP3    H2  541   0.389   6.350   2.585 -0.4586  0.3846 -0.1268
  193TIP3   OH2  542   2.694   5.952   2.735  0.8921  0.7909 -0.0024
  193TIP3    H1  543   2.670   5.861   2.753 -0.0072  1.3152  1.6128
  193TIP3    H2  544   2.696   5.958   2.639  0.9757 -0.9209 -0.1276
  194TIP3   OH2  545   1.982   1.291   0.647  0.2765  0.7083 -0.3543
  194TIP3    H1  546   2.024   1.344   0.715  1.2168 -0.4670  0.0177
  194TIP3    H2  547   1.918   1.350   0.607 -2.0944  0.8172  3.0996
  195TIP3   OH2  548   1.009   2.857   1.930  0.9056  0.2351 -0.4976
  195TIP3    H1  549   0.934   2.873   1.873  1.1873  1.9836 -0.4461
  195TIP3    H2  550   0.990   2.909   2.008  1.4920 -0.4758  0.1190
  196TIP3   OH2  551   1.470   3.761   5.228  0.5044  0.3796  0.0973
  196TIP3    H1  552   1.464   3.666   5.222  1.2282  0.3411 -0.1157
  196TIP3    H2  553   1.421   3.783   5.307  0.9665 -0.2391  0.5664
  197TIP3   OH2  554   6.621   6.002   0.652 -0.0390  0.0487 -0.1945
  197TIP3    H1  555   6.601   6.096   0.649 -0.7837 -0.1123 -1.4695
  197TIP3    H2  556   6.537   5.960   0.631  0.5900 -0.8529 -0.9654
  198TIP3   OH2  557   0.284   3.935   4.360 -0.3452 -0.3937 -0.4271
  198TIP3    H1  558   0.233   4.001   4.408  0.9605  0.3039  0.0428
  198TIP3    H2  559   0.372   3.972   4.355 -0.0502 -1.2135 -1.9207
  199TIP3   OH2  560   5.598   4.760   2.504 -0.3267  0.4132 -0.3398
  199TIP3    H1  561   5.547   4.705   2.564  0.7872 -2.0569 -1.5069
  199TIP3    H2  562   5.642   4.824   2.560 -1.0830 -0.3529  1.1779
  200TIP3   OH2  563   4.002   4.848   1.485  0.4019 -0.0649 -0.0685
  200TIP3    H1  564   4.057   4.825   1.560 -1.1166  1.4314  1.6092
  200TIP3    H2  565   3.918   4.872   1.524 -0.1500  1.7056 -2.1739
  201TIP3   OH2  566   5.209   2.998   0.499  0.1530 -0.4914  0.3822
  201TIP3    H1  567   5.218   2.903   0.497 -0.1660 -0.5021 -1.0760
  201TIP3    H2  568   5.204   3.019   0.593 -2.5648 -2.1683  0.7243
  202TIP3   OH2  569   3.303   0.651   4.503 -0.0672 -0.0116 -0.3657
  202TIP3    H1  570   3.256   0.727   4.468 -0.1694 -0.7906 -1.9841
  202TIP3    H2  571   3.394   0.664   4.477  0.2644  0.4307  0.9301
  203TIP3   OH2  572   6.673   5.486   2.866  0.3858  0.0911 -0.0963
  203TIP3    H1  573   6.755   5.437   2.868  1.2441  1.4946  1.3066
  203TIP3    H2  574   6.699   5.576   2.847 -0.8434  0.5339  0.2231
  204TIP3   OH2  575   0.520   0.754   2.221 -0.0748 -0.5385 -0.0751
  204TIP3    H1  576   0.610   0.771   2.194 -0.7978  2.0067 -1.1793
  204TIP3    H2  577   0.506   0.813   2.295 -0.1573 -2.7082  1.7570
  205TIP3   OH2  578   2.439   0.774   5.375 -0.4181  1.3647 -0.4084
  205TIP3    H1  579   2.425   0.729   5.458 -1.2810  0.0550 -1.2273
  205TIP3    H2  580   2.354   0.815   5.356 -0.2835  1.4836 -0.7447
  206TIP3   OH2  581   6.969   1.424   2.634  0.1346 -0.0363  0.0645
  206TIP3    H1  582   7.016   1.484   2.692  1.7516 -2.5501  1.5159
  206TIP3    H2  583   7.026   1.414   2.558 -0.1415  0.1920 -0.1820
  207TIP3   OH2  584   6.471   1.174   0.093 -0.1347  0.5823 -0.1679
  207TIP3    H1  585   6.532   1.238   0.058 -0.2647  0.7059 -0.1704
  207TIP3    H2  586   6.513   1.090   0.079 -0.2301  0.6260 -0.7105
  208TIP3   OH2  587   6.812   3.081   3.376 -0.0309 -0.5395 -0.3261
  208TIP3    H1  588   6.729   3.034   3.375 -0.8478  0.7896 -2.5847
  208TIP3    H2  589   6.848   3.068   3.288  1.0556  0.7378 -0.1084
  209TIP3   OH2  590   4.308   6.071   3.818 -0.4541 -0.3299 -0.0522
  209TIP3    H1  591   4.266   6.088   3.733 -1.0343 -1.3874  0.0016
  209TIP3    H2  592   4.235   6.052   3.876 -0.2083  1.9763  1.1273
  210TIP3   OH2  593   2.881   2.922   3.713 -0.5738  0.5634  0.7658
  210TIP3    H1  594   2.909   2.974   3.638 -0.4817  0.1316  0.4956
  210TIP3    H2  595   2.962   2.892   3.753 -0.6296 -0.2689  0.2799
  211TIP3   OH2  596   5.665   5.201   0.116 -0.2896  0.4184  0.3579
  211TIP3    H1  597   5.582   5.161   0.140  0.9120 -1.0531  2.4355
  211TIP3    H2  598   5.725   5.127   0.105  0.6182  1.3950 -1.8660
  212TIP3   OH2  599   1.917   3.902   5.817  0.0449 -0.3233  0.5705
  212TIP3    H1  600   1.963   3.936   5.894 -1.5069  0.0483  1.3776
  212TIP3    H2  601   1.836   3.865   5.852 -0.5525 -0.4368 -0.8574
  213TIP3   OH2  602   6.681   3.175   4.749  0.4705  0.0087  0.0841
  213TIP3    H1  603   6.699   3.168   4.655 -2.7078  0.9961 -0.7326
  213TIP3    H2  604   6.671   3.268   4.765 -1.9586 -0.2648  0.6496
  214TIP3   OH2  605   2.179   2.352   1.023  0.1885  0.3994  0.0536
  214TIP3    H1  606   2.263   2.312   1.045 -0.5802 -0.7690  0.9620
  214TIP3    H2  607   2.191   2.445   1.043  1.2242  0.2352  0.2725
  215TIP3   OH2  608   6.477   3.634   2.666 -0.7641  0.2146 -0.0411
  215TIP3    H1  609   6.553   3.691   2.658 -1.3267  0.8065 -1.5560
  215TIP3    H2  610   6.479   3.582   2.586 -2.0482  0.3575 -0.1740
  216TIP3   OH2  611   6.184   3.965   4.865 -0.6367 -0.6261 -0.1490
  216TIP3    H1  612   6.158   4.048   4.904  1.9454  0.1923  0.0280
  216TIP3    H2  613   6.220   3.914   4.937  0.1732 -0.8451 -0.6892
  217TIP3   OH2  614   3.499   5.095   3.788  0.0110  0.1769  0.5326
  217TIP3    H1  615   3.538   5.011   3.813  0.0945  0.3627  1.0218
  217TIP3    H2  616   3.416   5.098   3.835  0.0344  0.3956  0.5590
  218TIP3   OH2  617   6.317   5.129   2.638  0.3183  0.3872 -0.2178
  218TIP3    H1  618   6.274   5.064   2.695  0.4673  0.4871  0.0113
  218TIP3    H2  619   6.359   5.189   2.699  0.7263  0.3291 -0.4398
  219TIP3   OH2  620   3.822   4.660   5.615 -1.2312 -0.3105  0.3977
  219TIP3    H1  621   3.819   4.704   5.700 -0.5647  0.0098  0.2713
  219TIP3    H2  622   3.914   4.669   5.588 -1.2225 -1.2772  0.0980
  220TIP3   OH2  623   4.911   2.897   4.506  0.3481  0.0328  0.2291
  220TIP3    H1  624   4.885   2.812   4.542 -0.5147 -0.8864 -2.3130
  220TIP3    H2  625   4.989   2.922   4.555  0.4434 -2.0774  1.2384
  221TIP3   OH2  626   6.209   5.891   4.283 -0.4634 -0.2031 -0.6105
  221TIP3    H1  627   6.275   5.838   4.237 -0.1416  0.3868 -0.8308
  221TIP3    H2  628   6.248   5.978   4.289 -0.9382 -0.0188 -0.1294
  222TIP3   OH2  629   1.608   6.572   1.408 -0.0368 -0.1132 -0.4925
  222TIP3    H1  630   1.556   6.652   1.400 -3.1467 -1.6769  1.9097
  222TIP3    H2  631   1.597   6.528   1.323  1.1113  1.5758 -1.5718
  223TIP3   OH2  632   2.331   1.424   3.110 -0.5197  0.3095  0.3733
  223TIP3    H1  633   2.412   1.381   3.136 -0.3689 -0.5540 -1.3383
  223TIP3    H2  634   2.340   1.436   3.015 -2.4022  0.1615  0.1317
  224TIP3   OH2  635   1.021   3.214   2.015 -0.4351 -0.2518 -0.2921
  224TIP3    H1  636   1.082   3.247   1.949  2.2627 -0.9968  1.6078
  224TIP3    H2  637   1.078   3.181   2.085 -3.0654 -1.8210  1.2872
  225TIP3   OH2  638   7.166   4.460   4.645  0.2536  0.1805 -0.4396
  225TIP3    H1  639   7.126   4.539   4.610 -1.3529  0.0178  0.9095
  225TIP3    H2  640   7.260   4.480   4.651  0.2536  1.0151 -2.5243
  226TIP3   OH2  641   5.931   1.170   0.041  0.0297 -0.1136  0.3931
  226TIP3    H1  642   6.026   1.174   0.030  0.1590 -0.9336  1.1523
  226TIP3    H2  643   5.900   1.251   0.001  0.9812 -0.1648 -0.5218
  227TIP3   OH2  644   4.905   1.109   0.482 -0.3629 -0.0782 -0.0218
  227TIP3    H1  645   4.864   1.122   0.567  0.0553  0.0544  0.1602
  227TIP3    H2  646   4.923   1.198   0.449  1.1587 -0.1292  0.5773
  228TIP3   OH2  647   4.259   2.884   1.974 -0.3261 -0.3744 -1.2940
  228TIP3    H1  648   4.239   2.884   2.068 -2.0794  0.4892 -1.6174
  228TIP3    H2  649   4.276   2.976   1.953  2.0653 -0.8017 -1.4817
  229TIP3   OH2  650   6.826   4.463   2.363 -0.0536  0.1959 -0.4782
  229TIP3    H1  651   6.918   4.437   2.360  0.1057  0.6468  0.2532
  229TIP3    H2  652   6.812   4.513   2.282 -0.3107 -1.9156 -1.8162
  230TIP3   OH2  653   0.647   5.684   3.755 -0.2454  0.0409 -0.3158
  230TIP3    H1  654   0.666   5.679   3.848  2.1273  0.7774 -0.6941
  230TIP3    H2  655   0.627   5.594   3.730 -1.0784 -0.1347  0.9183
  231TIP3   OH2  656   3.528   2.689   5.070 -0.1535  0.4710  0.2080
  231TIP3    H1  657   3.548   2.637   4.992  0.1800 -0.5328  0.9394
  231TIP3    H2  658   3.609   2.687   5.121 -0.4344  0.9449  0.6775
  232TIP3   OH2  659   0.936   6.246   3.736  0.2507 -0.1680 -0.2273
  232TIP3    H1  660   0.889   6.170   3.768 -0.9908  0.5522 -0.2833
  232TIP3    H2  661   1.021   6.212   3.708 -0.2114 -1.4865 -0.0765
  233TIP3   OH2  662   5.869   4.881   5.708 -0.6552  0.2493  0.5637
  233TIP3    H1  663   5.800   4.945   5.689 -1.4086 -0.2759  1.4680
  233TIP3    H2  664   5.910   4.864   5.623 -1.5650  0.6523  0.0331
  234TIP3   OH2  665   1.914   3.302   0.448  0.4559 -0.2705 -0.5866
  234TIP3    H1  666   1.986   3.354   0.483 -0.3542  0.0703  0.6138
  234TIP3    H2  667   1.925   3.216   0.489  0.5056 -0.3922 -0.8518
  235TIP3   OH2  668   7.206   5.805   2.015  0.0386 -0.0165  0.1682
  235TIP3    H1  669   7.155   5.830   1.938  1.4366 -0.1849 -0.8392
  235TIP3    H2  670   7.263   5.735   1.985  0.9930  0.2795  1.2201
  236TIP3   OH2  671   4.192   2.019   3.981 -0.3985 -0.3163  0.3392
  236TIP3    H1  672   4.263   1.958   4.001 -0.5674 -0.4443  0.5571
  236TIP3    H2  673   4.195   2.084   4.052  0.8490  0.9046 -0.7787
  237TIP3   OH2  674   4.653   1.125   2.666 -0.6620  0.2634  0.6922
  237TIP3    H1  675   4.580   1.089   2.616  0.5006  0.5056 -1.2867
  237TIP3    H2  676   4.618   1.205   2.706 -1.9082 -0.4947  1.1899
  238TIP3   OH2  677   1.365   0.290   4.262  0.7871  0.5607 -0.0193
  238TIP3    H1  678   1.359   0.337   4.346  0.9454  1.2576 -0.3854
  238TIP3    H2  679   1.429   0.221   4.277  2.1447  1.7717 -0.0492
  239TIP3   OH2  680   6.373   5.324   1.407 -0.1291 -0.0702  0.2822
  239TIP3    H1  681   6.340   5.384   1.340  1.9366 -1.7367 -2.4615
  239TIP3    H2  682   6.464   5.351   1.420 -0.1467 -0.5478  1.5479
  240TIP3   OH2  683   3.292   4.722   0.406  0.0690 -0.1271 -0.1911
  240TIP3    H1  684   3.295   4.758   0.494  0.8064 -3.6679  1.3930
  240TIP3    H2  685   3.378   4.740   0.368 -0.2516  1.4009 -0.2261
  241TIP3   OH2  686   1.723   1.556   5.478 -0.2897  0.4121 -0.4224
  241TIP3    H1  687   1.800   1.595   5.435 -1.0075  1.7126 -0.5825
  241TIP3    H2  688   1.682   1.630   5.523 -1.5702 -0.2185 -0.5317
  242TIP3   OH2  689   5.582   1.501   1.548  0.0842  0.4861 -0.2676
  242TIP3    H1  690   5.625   1.481   1.631  0.1676  0.7113 -0.2536
  242TIP3    H2  691   5.631   1.451   1.483  0.2558  0.6006 -0.2278
  243TIP3   OH2  692   5.749   2.223   4.336 -0.0325  0.1300 -0.2643
  243TIP3    H1  693   5.783   2.187   4.418  1.5396  0.7887 -0.5789
  243TIP3    H2  694   5.709   2.306   4.360  2.3196  1.3819 -0.3673
  244TIP3   OH2  695   1.878   5.241   5.119 -0.0940 -0.1298 -0.0875
  244TIP3    H1  696   1.907   5.331   5.108  1.5536 -0.1470  2.9375
  244TIP3    H2  697   1.892   5.200   5.033 -1.0130  2.4473 -1.5652
  245TIP3   OH2  698   5.719   4.793   0.571 -0.0657 -0.3722  0.3157
  245TIP3    H1  699   5.782   4.721   0.576 -0.2229 -0.4964  0.4726
  245TIP3    H2  700   5.648   4.759   0.516  0.4709  0.1127 -0.7025
  246TIP3   OH2  701   5.448   4.469   0.745 -0.1060 -0.1734  0.1689
  246TIP3    H1  702   5.429   4.376   0.757 -0.7726 -0.0832 -0.1133
  246TIP3    H2  703   5.510   4.471   0.672  0.8384 -0.4613  0.9415
  247TIP3   OH2  704   3.102   5.343   1.734 -0.2808 -0.5010 -0.1466
  247TIP3    H1  705   3.155   5.390   1.670  0.3727 -1.1951 -0.1272
  247TIP3    H2  706   3.077   5.409   1.798 -1.0876  0.2407 -1.1980
  248TIP3   OH2  707   3.118   1.676   0.657  0.8679 -0.1443 -0.1175
  248TIP3    H1  708   3.030   1.705   0.681 -0.1945 -2.9064 -0.2826
  248TIP3    H2  709   3.105   1.589   0.619  3.8592 -1.8269  2.2439
  249TIP3   OH2  710   6.317   2.684   5.325 -0.3079  0.5401  0.1871
  249TIP3    H1  711   6.377   2.634   5.270  0.9691  0.3983  1.6501
  249TIP3    H2  712   6.233   2.641   5.315  0.4473 -1.0027  0.2649
  250TIP3   OH2  713   6.083   2.543   5.215 -0.2142  0.3616 -0.2004
  250TIP3    H1  714   6.118   2.562   5.128 -1.5422 -0.4919 -0.9535
  250TIP3    H2  715   5.989   2.560   5.208 -0.3588  0.1999  1.0491
  251TIP3   OH2  716   3.602   3.796   0.041 -0.0467  0.5181  0.2159
  251TIP3    H1  717   3.537   3.866   0.047 -0.8269 -0.2179  0.5187
  251TIP3    H2  718   3.592   3.747   0.123  0.2136 -0.1779 -0.1615
  252TIP3   OH2  719   6.182   6.722   4.328  0.2516 -0.5450  0.2970
  252TIP3    H1  720   6.248   6.791   4.333 -1.5431  1.3763 -0.7919
  252TIP3    H2  721   6.231   6.644   4.301  2.1967  0.5606  0.4469
  253TIP3   OH2  722   3.630   6.045   2.353  0.7356  0.5811  0.2647
  253TIP3    H1  723   3.628   6.073   2.444  2.9933  0.5497  0.3895
  253TIP3    H2  724   3.598   5.955   2.354 -0.2347  0.9258  0.8608
  254TIP3   OH2  725   3.147   4.981   1.178 -0.1141 -0.6361  0.6470
  254TIP3    H1  726   3.133   4.907   1.119 -0.7815  0.8150 -1.1037
  254TIP3    H2  727   3.240   5.001   1.171 -0.0060 -1.0517  0.8439
  255TIP3   OH2  728   2.840   4.643   2.454  0.1884  0.6367 -0.0342
  255TIP3    H1  729   2.846   4.641   2.358  2.4974  0.6241  0.0516
  255TIP3    H2  730   2.880   4.561   2.482 -3.1696 -0.8449  0.9530
  256TIP3   OH2  731   5.167   5.640   3.386  0.4816 -0.8141 -0.4053
  256TIP3    H1  732   5.099   5.572   3.384 -1.0657  0.6740 -0.4777
  256TIP3    H2  733   5.184   5.660   3.294 -1.9308  1.5570 -0.4465
  257TIP3   OH2  734   3.695   0.899   5.435 -0.6544  0.1208 -0.3865
  257TIP3    H1  735   3.718   0.982   5.476  3.0329 -0.8304 -0.1092
  257TIP3    H2  736   3.716   0.912   5.343  1.6297 -0.8636 -0.0862
  258TIP3   OH2  737   3.769   6.697   1.509 -0.1705  0.2358 -0.1282
  258TIP3    H1  738   3.755   6.778   1.557 -0.5433 -0.8712  1.7137
  258TIP3    H2  739   3.718   6.708   1.428 -1.3799  1.2691  0.7345
  259TIP3   OH2  740   0.378   2.067   1.080  0.5102  0.3683  0.5896
  259TIP3    H1  741   0.396   2.112   1.163  0.4699  0.1390  0.7244
  259TIP3    H2  742   0.312   2.121   1.037  1.1776  0.9698  0.3039
  260TIP3   OH2  743   5.409   0.988   4.337  0.0042  0.2623  0.0077
  260TIP3    H1  744   5.474   1.006   4.270 -0.3086 -0.1264 -0.4036
  260TIP3    H2  745   5.356   0.916   4.302 -0.9302  0.8613  0.1437
  261TIP3   OH2  746   3.176   1.356   5.829 -0.0088  0.4886  0.0407
  261TIP3    H1  747   3.117   1.294   5.872 -0.3982  1.6767  1.2761
  261TIP3    H2  748   3.236   1.301   5.778 -1.2166 -0.8160 -0.0258
  262TIP3   OH2  749   1.816   2.961   4.480  0.2849  0.1215  0.1540
  262TIP3    H1  750   1.765   2.956   4.560  0.6662 -1.5634  0.3313
  262TIP3    H2  751   1.833   3.054   4.468 -0.7908  0.5017  1.3700
  263TIP3   OH2  752   1.895   6.575   1.392  0.0776  0.2672  0.5648
  263TIP3    H1  753   1.919   6.521   1.467  1.8477  0.8999  0.4899
  263TIP3    H2  754   1.799   6.578   1.395 -0.0381 -2.1473  1.0413
  264TIP3   OH2  755   6.452   2.266   3.287 -0.1134  0.0987 -0.2708
  264TIP3    H1  756   6.454   2.335   3.353 -1.4040 -2.5236  2.8162
  264TIP3    H2  757   6.377   2.289   3.231 -0.9357  0.9109  1.1000
  265TIP3   OH2  758   6.315   4.792   3.717  0.4363 -0.2294 -0.0710
  265TIP3    H1  759   6.378   4.723   3.738  0.7897 -0.2221 -1.0837
  265TIP3    H2  760   6.242   4.746   3.674 -0.8566 -0.4217  2.1490
  266TIP3   OH2  761   4.634   5.006   0.765  0.5037 -0.0961  0.2365
  266TIP3    H1  762   4.665   5.075   0.707 -2.3471  1.3102  0.2175
  266TIP3    H2  763   4.694   4.933   0.749  1.4677  1.1437 -2.4508
  267TIP3   OH2  764   0.544   6.747   5.182 -0.0646  0.0176 -0.4264
  267TIP3    H1  765   0.470   6.689   5.204  0.5583 -0.7132 -0.2135
  267TIP3    H2  766   0.620   6.706   5.223  0.4361  0.8754 -0.4649
  268TIP3   OH2  767   5.677   5.963   1.844  0.0436 -0.3144  0.0176
  268TIP3    H1  768   5.642   6.013   1.918 -1.4267 -0.6980 -0.3774
  268TIP3    H2  769   5.618   5.888   1.837  0.7437 -0.7869 -0.9511
  269TIP3   OH2  770   4.791   3.225   4.719  0.1450 -0.1400  0.3243
  269TIP3    H1  771   4.728   3.259   4.782  1.1098  0.3808  1.0305
  269TIP3    H2  772   4.738   3.172   4.658 -0.9844  0.4248  0.7857
  270TIP3   OH2  773   7.231   6.085   0.957  0.4148  0.2495 -0.3483
  270TIP3    H1  774   7.155   6.032   0.981 -0.2276  0.4431 -1.8053
  270TIP3    H2  775   7.259   6.126   1.039  0.2458 -1.4464  0.5990
  271TIP3   OH2  776   5.737   0.883   3.711  0.2354  0.2589  0.4799
  271TIP3    H1  777   5.667   0.929   3.758 -0.9986 -1.3682  0.3565
  271TIP3    H2  778   5.728   0.912   3.620 -1.0239 -0.7327  0.2599
  272TIP3   OH2  779   3.098   5.608   2.714 -0.1121  0.4131 -0.0222
  272TIP3    H1  780   3.105   5.702   2.729  0.9915  0.2789  0.4074
  272TIP3    H2  781   3.188   5.579   2.700 -0.1430 -0.9117  2.0372
  273TIP3   OH2  782   6.865   4.832   5.115 -0.0911  0.9385 -0.5308
  273TIP3    H1  783   6.820   4.750   5.138  0.5218  1.1079  1.4303
  273TIP3    H2  784   6.856   4.887   5.192  4.4609  0.5602  0.5368
  274TIP3   OH2  785   7.077   3.613   3.988 -0.2696 -0.0893 -0.0163
  274TIP3    H1  786   7.154   3.620   4.044 -0.0428 -0.3218 -0.2982
  274TIP3    H2  787   7.070   3.700   3.947 -0.8483  0.3055  0.9009
  275TIP3   OH2  788   6.183   0.260   3.050  0.4613 -0.3404 -0.1514
  275TIP3    H1  789   6.201   0.333   3.108 -0.6131  0.5152 -0.8582
  275TIP3    H2  790   6.165   0.186   3.109 -1.5646  0.7289  0.6644
  276TIP3   OH2  791   3.341   5.243   0.341 -0.1829 -0.2556 -0.3696
  276TIP3    H1  792   3.395   5.319   0.319 -1.8873  1.7193  1.7606
  276TIP3    H2  793   3.302   5.216   0.257  1.2070  0.5736 -1.3263
  277TIP3   OH2  794   0.417   1.070   4.980  0.0016  0.1225 -0.1672
  277TIP3    H1  795   0.491   1.100   4.927 -0.1042  0.7787  0.0471
  277TIP3    H2  796   0.366   1.150   4.997  1.1777  0.3706  2.7444
  278TIP3   OH2  797   3.797   0.606   3.737  0.0127 -0.1163  0.4256
  278TIP3    H1  798   3.719   0.630   3.688  0.0160 -0.8352  0.0429
  278TIP3    H2  799   3.773   0.525   3.783  1.3729 -2.1030 -2.0469
  279TIP3   OH2  800   1.771   4.356   5.022 -0.4694 -0.1081  0.1982
  279TIP3    H1  801   1.757   4.421   4.953 -0.0242  1.7660  1.7772
  279TIP3    H2  802   1.823   4.402   5.088  0.6441 -2.3701  1.0141
  280TIP3   OH2  803   1.611   1.176   0.886  0.1392 -0.4417 -0.3298
  280TIP3    H1  804   1.649   1.171   0.798 -2.6571  1.0353 -1.7396
  280TIP3    H2  805   1.531   1.123   0.880  1.0246 -2.2239  2.0856
  281TIP3   OH2  806   6.463   5.566   3.742  0.3749  0.4383  0.1883
  281TIP3    H1  807   6.505   5.548   3.658 -0.8392 -0.0822 -0.3247
  281TIP3    H2  808   6.389   5.507   3.746  0.4662  0.3695  1.6990
  282TIP3   OH2  809   6.166   3.142   5.230 -0.0421 -1.0683  0.5580
  282TIP3    H1  810   6.080   3.183   5.223  1.1699  1.8289  1.3258
  282TIP3    H2  811   6.150   3.049   5.210 -3.1108 -0.4383 -0.4350
  283TIP3   OH2  812   6.045   2.466   3.411 -0.1513 -0.0054  0.1070
  283TIP3    H1  813   5.981   2.394   3.410  0.5037 -0.5941 -0.3758
  283TIP3    H2  814   6.127   2.423   3.434  0.2249  0.6200 -0.0740
  284TIP3   OH2  815   0.949   1.056   5.069  0.6561  0.2640 -0.6044
  284TIP3    H1  816   0.978   1.064   4.978 -0.4220  1.6207 -0.8694
  284TIP3    H2  817   0.859   1.024   5.063  0.8959 -0.5705  0.0438
  285TIP3   OH2  818   3.080   3.560   3.972  0.2495 -0.6845 -0.2611
  285TIP3    H1  819   3.126   3.510   4.041  0.6831  0.8708  0.6199
  285TIP3    H2  820   3.016   3.498   3.937 -0.8888 -1.1866  2.4399
  286TIP3   OH2  821   0.776   4.408   2.418 -0.5332 -0.0651 -0.2807
  286TIP3    H1  822   0.721   4.405   2.496 -0.7885  0.4639 -0.4353
  286TIP3    H2  823   0.726   4.361   2.351 -0.9925  0.7609 -0.5339
  287TIP3   OH2  824   6.542   0.533   3.795 -0.0675  0.0621 -0.2849
  287TIP3    H1  825   6.534   0.444   3.829  0.9388 -0.4330 -1.2968
  287TIP3    H2  826   6.610   0.528   3.729  1.6605  2.0391  1.1962
  288TIP3   OH2  827   6.047   1.808   0.427 -0.0207 -0.4908 -0.4127
  288TIP3    H1  828   6.072   1.716   0.435 -0.1790 -0.4456  0.8873
  288TIP3    H2  829   6.092   1.839   0.348  0.2305 -1.6087 -0.7272
  289TIP3   OH2  830   5.142   1.433   1.473 -0.3839  0.5101  0.2995
  289TIP3    H1  831   5.132   1.425   1.379 -0.2827  1.6728  0.1823
  289TIP3    H2  832   5.061   1.396   1.509 -0.3413 -0.1112 -0.2287
  290TIP3   OH2  833   1.279   1.054   1.691 -0.0783  0.2580  0.2700
  290TIP3    H1  834   1.256   1.137   1.733 -0.0892  0.3439  0.0954
  290TIP3    H2  835   1.197   1.025   1.651  0.2056  0.7857 -0.7397
  291TIP3   OH2  836   4.471   6.788   5.015 -0.4305 -0.1592 -0.0929
  291TIP3    H1  837   4.516   6.705   5.032 -0.5128 -0.8411 -2.7193
  291TIP3    H2  838   4.381   6.773   5.043 -0.0239 -0.2646  1.2188
  292TIP3   OH2  839   0.489   3.718   1.898  0.2323 -0.5032 -0.0024
  292TIP3    H1  840   0.491   3.752   1.987  0.2229 -0.0067 -0.1894
  292TIP3    H2  841   0.401   3.737   1.867  0.7092  0.7281 -0.6509
  293TIP3   OH2  842   6.709   1.829   1.627 -0.0605 -0.3522  0.9935
  293TIP3    H1  843   6.798   1.813   1.657 -0.3456 -1.4354  1.3336
  293TIP3    H2  844   6.701   1.924   1.622  1.0117 -0.2425  1.2624
  294TIP3   OH2  845   4.662   0.806   1.609  0.2295  0.0996  0.1574
  294TIP3    H1  846   4.577   0.837   1.579  0.5181  0.1833 -0.6205
  294TIP3    H2  847   4.707   0.780   1.528 -0.1537 -2.8319  0.7996
  295TIP3   OH2  848   6.163   4.367   3.173 -0.1787 -0.3543 -0.0061
  295TIP3    H1  849   6.093   4.302   3.179 -1.5185  0.9044 -1.0371
  295TIP3    H2  850   6.196   4.375   3.262  1.0081 -3.4093 -0.0687
  296TIP3   OH2  851   7.166   6.071   0.173  0.1539  0.5606  0.3030
  296TIP3    H1  852   7.255   6.105   0.165  1.4448 -1.5859  3.3934
  296TIP3    H2  853   7.128   6.120   0.246 -0.1317 -0.3681  0.8037
  297TIP3   OH2  854   4.802   5.187   5.606  0.1054  0.0020 -0.1374
  297TIP3    H1  855   4.776   5.167   5.696 -2.0210  1.2899 -0.3783
  297TIP3    H2  856   4.861   5.262   5.614  1.2543 -0.9315  0.2620
  298TIP3   OH2  857   2.753   4.041   0.017 -0.5228 -0.5776 -0.6443
  298TIP3    H1  858   2.752   4.097   0.094 -1.9204 -3.8221  1.9097
  298TIP3    H2  859   2.665   4.050  -0.020  0.0380  0.7055 -1.7700
  299TIP3   OH2  860   6.278   6.147   5.041 -0.4800  0.4212  0.0728
  299TIP3    H1  861   6.212   6.179   5.102 -0.8004  1.2249 -0.6693
  299TIP3    H2  862   6.360   6.150   5.089 -0.9626 -0.5708  1.0055
  300TIP3   OH2  863   6.442   3.019   3.080  0.3425  0.7348 -0.3277
  300TIP3    H1  864   6.398   2.975   3.008  0.1402 -1.0451  0.7982
  300TIP3    H2  865   6.532   3.031   3.050 -0.2340  1.9455 -1.6382
  301TIP3   OH2  866   2.906   6.440   3.753 -0.0345 -0.4562  0.0338
  301TIP3    H1  867   2.827   6.427   3.805  0.4407  0.2833  0.9619
  301TIP3    H2  868   2.935   6.528   3.775  1.4404 -0.9683  0.2314
  302TIP3   OH2  869   6.199   0.306   4.934  0.6541 -0.1797 -0.2147
  302TIP3    H1  870   6.239   0.299   5.021 -0.1136  0.0721  0.1678
  302TIP3    H2  871   6.150   0.387   4.936 -0.0880 -0.6085 -0.5807
  303TIP3   OH2  872   2.943   0.857   4.953 -0.2644  0.3658  0.4657
  303TIP3    H1  873   2.976   0.888   5.038  0.7599 -0.8143  0.5145
  303TIP3    H2  874   3.022   0.840   4.901 -0.7693 -1.7211  0.2927
  304TIP3   OH2  875   1.585   0.783   0.752  0.3272 -0.3961 -0.1797
  304TIP3    H1  876   1.615   0.770   0.842  0.2648  0.3471 -0.0381
  304TIP3    H2  877   1.665   0.794   0.701  0.3804 -1.3380 -0.3104
  305TIP3   OH2  878   1.966   1.731   5.036 -0.2019  0.1962 -0.8331
  305TIP3    H1  879   1.886   1.765   5.075 -0.3767 -0.7123 -0.3686
  305TIP3    H2  880   1.936   1.672   4.967 -0.0636 -2.1544  0.9771
  306TIP3   OH2  881   5.775   2.996   1.216 -0.1204  0.2363 -0.0048
  306TIP3    H1  882   5.793   2.908   1.247  0.7227 -0.2849 -1.8664
  306TIP3    H2  883   5.814   3.054   1.282  1.0958 -0.8015  0.2010
  307TIP3   OH2  884   2.551   2.720   3.811 -0.2187 -0.4729  0.1254
  307TIP3    H1  885   2.530   2.629   3.830  0.2692 -0.7267 -0.5297
  307TIP3    H2  886   2.467   2.765   3.814 -0.4438 -0.9071  0.6032
  308TIP3   OH2  887   5.670   0.617   1.872  0.1863  0.1449 -0.4623
  308TIP3    H1  888   5.681   0.640   1.964  0.3642 -1.3106 -0.0992
  308TIP3    H2  889   5.759   0.620   1.836 -0.0988  2.7420 -1.1372
  309TIP3   OH2  890   5.137   6.395   0.935 -0.1689  0.3031 -0.4452
  309TIP3    H1  891   5.106   6.468   0.881  0.2304  0.7864 -0.0434
  309TIP3    H2  892   5.084   6.320   0.909 -2.5143  1.3258  1.0313
  310TIP3   OH2  893   2.679   1.933   0.628  0.0496 -0.7719 -0.5711
  310TIP3    H1  894   2.757   1.931   0.572  0.3646 -1.4501 -0.1269
  310TIP3    H2  895   2.606   1.921   0.568  0.4030 -1.8235 -0.8149
  311TIP3   OH2  896   5.688   4.673   2.021  0.0722 -0.1950 -0.1085
  311TIP3    H1  897   5.601   4.713   2.014 -0.0041 -0.4144 -0.3878
  311TIP3    H2  898   5.676   4.601   2.083  0.5699  1.2266  1.7406
  312TIP3   OH2  899   5.828   4.646   5.090  0.1589  0.1548  0.8570
  312TIP3    H1  900   5.837   4.553   5.110  2.7079  0.0434 -0.4486
  312TIP3    H2  901   5.767   4.648   5.015  0.3100 -0.4876  0.7102
  313TIP3   OH2  902   3.685   6.787   3.741  0.5567 -0.3020 -0.1094
  313TIP3    H1  903   3.658   6.705   3.783 -0.6717  0.4181  0.5785
  313TIP3    H2  904   3.702   6.762   3.650 -2.6582 -0.8833 -0.6751
  314TIP3   OH2  905   1.794   6.224   0.799 -0.6133  0.6651  0.4244
  314TIP3    H1  906   1.871   6.202   0.746 -0.0374  1.0539  1.0922
  314TIP3    H2  907   1.736   6.149   0.788  0.6872 -0.5619  1.4816
  315TIP3   OH2  908   5.857   4.421   2.037 -0.1737  0.2290 -0.1232
  315TIP3    H1  909   5.879   4.435   1.946  2.0854  1.3002  0.5305
  315TIP3    H2  910   5.893   4.334   2.058  0.9956  0.7732  0.2011
  316TIP3   OH2  911   1.065   4.035   3.550 -0.1321 -0.3734  0.0370
  316TIP3    H1  912   0.982   4.050   3.595 -0.5284 -2.0112 -0.0936
  316TIP3    H2  913   1.069   4.104   3.484 -2.0095 -1.0185 -0.8041
  317TIP3   OH2  914   0.824   0.927   5.537  0.1920  0.6686  0.1454
  317TIP3    H1  915   0.867   0.880   5.466 -0.9666 -0.3675  0.0918
  317TIP3    H2  916   0.750   0.972   5.495 -0.1516  0.5290  0.5890
  318TIP3   OH2  917   1.199   5.291   5.419 -0.3033 -0.8935  0.1435
  318TIP3    H1  918   1.220   5.265   5.330  1.8758 -1.1516  0.6597
  318TIP3    H2  919   1.129   5.356   5.410 -0.0137 -0.7994 -1.7540
  319TIP3   OH2  920   3.248   2.399   0.632  0.2926  0.1175 -0.0809
  319TIP3    H1  921   3.278   2.490   0.637  0.9678  0.1305 -2.6401
  319TIP3    H2  922   3.323   2.347   0.664 -0.5818  0.4213  2.7008
  320TIP3   OH2  923   6.298   0.522   5.568  0.1215  0.2156  0.0743
  320TIP3    H1  924   6.228   0.464   5.597  1.2945 -1.1160  0.3520
  320TIP3    H2  925   6.348   0.469   5.506  1.5167  0.7443  0.7143
  321TIP3   OH2  926   6.273   2.519   1.802  0.0445 -0.4983  0.0350
  321TIP3    H1  927   6.277   2.446   1.863  1.2578 -1.2834 -0.9361
  321TIP3    H2  928   6.350   2.572   1.822 -0.4024  0.0990  0.2128
  322TIP3   OH2  929   3.569   4.305   5.749  0.2461  0.7090  0.1444
  322TIP3    H1  930   3.612   4.315   5.834  2.3519 -1.8538 -0.4943
  322TIP3    H2  931   3.639   4.321   5.686 -0.2037 -1.4812 -0.9802
  323TIP3   OH2  932   1.444   3.686   3.101  0.2076  0.1853 -0.4059
  323TIP3    H1  933   1.534   3.655   3.092  0.7230  1.0338  1.3599
  323TIP3    H2  934   1.450   3.781   3.090 -0.0792  0.5138  1.7242
  324TIP3   OH2  935   1.530   3.732   5.779 -0.5715 -0.0911  0.2913
  324TIP3    H1  936   1.611   3.717   5.830  0.3715  0.1911 -1.0843
  324TIP3    H2  937   1.523   3.654   5.723  0.3263  1.1389 -1.6194
  325TIP3   OH2  938   2.394   4.474   4.337 -0.8561 -0.2483 -0.1031
  325TIP3    H1  939   2.314   4.423   4.327 -1.2752  0.8327 -3.2254
  325TIP3    H2  940   2.374   4.559   4.297  0.8824  1.2036  1.8906
  326TIP3   OH2  941   1.613   2.995   1.259 -0.3674 -0.5109  0.1835
  326TIP3    H1  942   1.597   2.900   1.255  1.2995 -0.8203 -0.0083
  326TIP3    H2  943   1.602   3.025   1.169  0.9801 -0.8959 -0.1389
  327TIP3   OH2  944   2.414   0.970   4.770 -0.5350  0.2572  0.7306
  327TIP3    H1  945   2.399   0.985   4.677 -2.2940 -2.0551  0.5706
  327TIP3    H2  946   2.509   0.958   4.777 -0.4616 -0.3610 -0.9071
  328TIP3   OH2  947   2.297   4.277   0.085 -0.2352  0.2134 -0.8391
  328TIP3    H1  948   2.355   4.303   0.156 -0.6467 -1.8831  0.3365
  328TIP3    H2  949   2.311   4.344   0.017 -0.4963  2.7940  1.4840
  329TIP3   OH2  950   3.726   2.154   3.405 -0.1305  0.1356 -0.0517
  329TIP3    H1  951   3.725   2.234   3.353 -0.1691  0.8951  1.0890
  329TIP3    H2  952   3.788   2.172   3.475 -0.6106 -0.6116  0.5789
  330TIP3   OH2  953   6.768   4.892   1.898 -0.7677  0.4142  0.4280
  330TIP3    H1  954   6.858   4.866   1.917 -0.9552 -0.5916  0.0047
  330TIP3    H2  955   6.744   4.951   1.970  0.1358  0.4786  0.6858
  331TIP3   OH2  956   5.234   6.090   4.116  0.4117  0.2924 -0.3960
  331TIP3    H1  957   5.328   6.092   4.104  0.4221  1.0051 -0.2441
  331TIP3    H2  958   5.218   6.147   4.192 -0.2401  1.1345 -1.1435
  332TIP3   OH2  959   6.474   4.609   2.204  0.4029 -0.0859  0.2200
  332TIP3    H1  960   6.563   4.576   2.216  1.1175  1.5456 -0.2914
  332TIP3    H2  961   6.485   4.703   2.191 -1.3153  0.0076 -0.8732
  333TIP3   OH2  962   5.579   3.362   4.466 -0.8425  0.0350  0.1449
  333TIP3    H1  963   5.518   3.331   4.399 -0.0337  0.0046 -0.6091
  333TIP3    H2  964   5.624   3.282   4.495  0.1042  0.2581 -0.6322
  334TIP3   OH2  965   2.215   0.458   1.599 -0.3060  0.4208 -0.5889
  334TIP3    H1  966   2.236   0.537   1.649 -1.4438  0.9519 -0.9132
  334TIP3    H2  967   2.134   0.424   1.639  0.4053 -0.8467 -0.1677
  335TIP3   OH2  968   5.916   2.938   0.279  0.0778 -0.2991 -0.1266
  335TIP3    H1  969   5.821   2.938   0.271 -0.0359  0.9971  0.9116
  335TIP3    H2  970   5.935   3.003   0.347  1.6487 -1.1748  0.3345
  336TIP3   OH2  971   0.114   3.391   2.877  0.2183 -0.0152 -0.2412
  336TIP3    H1  972   0.158   3.336   2.813 -1.0277 -0.0529 -1.1100
  336TIP3    H2  973   0.165   3.472   2.879  2.1558 -1.1716  1.1499
  337TIP3   OH2  974   6.664   2.110   0.223  0.5176 -0.4968 -0.3464
  337TIP3    H1  975   6.620   2.054   0.288 -0.0040 -1.0550 -1.1601
  337TIP3    H2  976   6.741   2.060   0.196  0.9974 -0.0565  0.1718
  338TIP3   OH2  977   4.458   2.616   2.847  0.0463 -0.4167  0.5557
  338TIP3    H1  978   4.375   2.572   2.867 -0.4583  0.6578  0.8895
  338TIP3    H2  979   4.451   2.701   2.891  0.3423  0.6481 -1.3525
  339TIP3   OH2  980   0.295   1.817   2.162  0.2481 -0.5103  0.1735
  339TIP3    H1  981   0.215   1.802   2.213 -0.6690  0.1386 -1.0158
  339TIP3    H2  982   0.268   1.805   2.071  0.9705  1.7965 -0.4098
  340TIP3   OH2  983   1.428   0.474   1.050  0.1688  0.2204 -0.3685
  340TIP3    H1  984   1.420   0.379   1.041 -1.0552  0.1862  0.6790
  340TIP3    H2  985   1.510   0.496   1.007 -0.6106 -1.0126 -2.6199
  341TIP3   OH2  986   0.051   2.266   4.564  0.1661 -0.0560  0.4878
  341TIP3    H1  987   0.000   2.267   4.645  0.9722 -0.8536  1.0288
  341TIP3    H2  988   0.031   2.349   4.522 -2.0811 -0.6055  0.3559
  342TIP3   OH2  989   2.808   1.441   0.936  0.0626 -0.0325  0.1966
  342TIP3    H1  990   2.774   1.386   0.865  0.2409  2.1683 -1.7203
  342TIP3    H2  991   2.733   1.492   0.965  0.5652  1.1253 -0.4525
  343TIP3   OH2  992   6.452   2.472   3.458 -0.0819  0.6661  0.7738
  343TIP3    H1  993   6.482   2.460   3.548 -0.3269  1.2977  0.9444
  343TIP3    H2  994   6.486   2.558   3.433 -0.1801  0.5759  0.3314
  344TIP3   OH2  995   1.879   2.556   0.484 -0.4178 -0.1196  0.7266
  344TIP3    H1  996   1.871   2.638   0.435 -0.2650 -1.1343 -1.1086
  344TIP3    H2  997   1.789   2.523   0.489 -0.1770 -1.2241 -1.1670
  345TIP3   OH2  998   1.934   0.113   5.738  0.1233  0.2611  0.1612
  345TIP3    H1  999   1.995   0.111   5.664  0.6389  0.2876  0.5908
  345TIP3    H2 1000   1.879   0.190   5.721  0.6732  0.6538  0.1587
  346TIP3   OH2 1001   4.420   0.678   5.289 -0.2826  0.9743 -0.2844
  346TIP3    H1 1002   4.381   0.614   5.348 -0.1923  0.2474 -0.9877
  346TIP3    H2 1003   4.514   0.671   5.306 -0.3039  1.2383 -0.0525
  347TIP3   OH2 1004   5.361   4.382   3.273  0.5148  0.5033 -0.3040
  347TIP3    H1 1005   5.420   4.398   3.347  0.6371  1.0227 -0.5063
  347TIP3    H2 1006   5.335   4.470   3.244  2.1255  0.4444 -2.1881
  348TIP3   OH2 1007   2.312   5.833   0.171 -0.1080 -0.6210  0.5917
  348TIP3    H1 1008   2.300   5.840   0.266 -0.1224 -0.9993  0.6205
  348TIP3    H2 1009   2.223   5.834   0.136 -0.0566  1.2446  0.4432
  349TIP3   OH2 1010   5.410   5.823   3.330  0.2619 -0.1164  0.4293
  349TIP3    H1 1011   5.417   5.902   3.276  1.8086  0.2285  1.0804
  349TIP3    H2 1012   5.364   5.760   3.274  0.9610  0.5471 -0.9415
  350TIP3   OH2 1013   3.854   1.741   4.088 -0.2538  0.0220  0.2094
  350TIP3    H1 1014   3.856   1.713   3.996  0.6856 -3.4720  1.1381
  350TIP3    H2 1015   3.938   1.713   4.123 -0.6507  1.1677  2.1972
  351TIP3   OH2 1016   7.140   2.528   1.233 -0.0640 -0.1451  0.1139
  351TIP3    H1 1017   7.058   2.481   1.251 -0.7321  0.0744 -2.0481
  351TIP3    H2 1018   7.190   2.520   1.314 -2.5071  0.3635  1.7931
  352TIP3   OH2 1019   1.447   1.903   2.379  0.5181  0.8553 -0.3538
  352TIP3    H1 1020   1.518   1.962   2.356 -0.4434  1.5368 -1.7493
  352TIP3    H2 1021   1.475   1.861   2.460  1.6423  2.5342  0.1746
  353TIP3   OH2 1022   6.760   5.517   0.586  0.3715  0.2085 -0.2902
  353TIP3    H1 1023   6.690   5.461   0.618 -1.1207  2.5542  0.7993
  353TIP3    H2 1024   6.840   5.478   0.622 -0.4639 -1.6752 -0.3236
  354TIP3   OH2 1025   5.790   5.676   4.257  0.1517  0.0361 -0.5319
  354TIP3    H1 1026   5.720   5.736   4.233 -1.1766 -0.2233  2.2911
  354TIP3    H2 1027   5.841   5.665   4.177 -2.6079  0.7789 -2.5320
  355TIP3   OH2 1028   1.467   1.772   0.325  0.1844 -0.4274 -0.4512
  355TIP3    H1 1029   1.477   1.867   0.320  2.2206 -0.5145  0.9295
  355TIP3    H2 1030   1.374   1.757   0.307 -0.1964  1.8110 -0.6382
  356TIP3   OH2 1031   3.300   1.252   3.814  1.1241 -0.1946  0.1071
  356TIP3    H1 1032   3.248   1.233   3.892 -0.2432 -0.6612 -0.8773
  356TIP3    H2 1033   3.295   1.172   3.761 -1.0095  1.2266 -2.0745
  357TIP3   OH2 1034   0.021   6.124   2.094 -0.2800  0.1826  0.1413
  357TIP3    H1 1035  -0.008   6.123   2.186 -1.6159 -0.0560 -0.2581
  357TIP3    H2 1036   0.098   6.068   2.093  1.1212  1.9316  1.5186
  358TIP3   OH2 1037   1.208   2.906   2.752 -0.0801  0.2042 -0.2083
  358TIP3    H1 1038   1.251   2.987   2.781  1.2305 -0.2008 -0.9329
  358TIP3    H2 1039   1.230   2.842   2.820 -0.4481  0.2555 -0.0391
  359TIP3   OH2 1040   1.299   6.707   2.434  0.2868 -0.2979  0.3231
  359TIP3    H1 1041   1.349   6.708   2.353 -1.3679 -1.3008 -0.7739
  359TIP3    H2 1042   1.325   6.786   2.480  2.7435 -0.7085 -0.2376
  360TIP3   OH2 1043   2.186   1.046   3.006  0.6727 -0.0866  0.2743
  360TIP3    H1 1044   2.220   1.132   2.981 -0.5276  0.4273  0.3296
  360TIP3    H2 1045   2.091   1.057   3.006  0.5037 -1.3728  0.4541
  361TIP3   OH2 1046   1.431   5.007   3.035  0.2697 -0.1804  0.6508
  361TIP3    H1 1047   1.411   4.915   3.016 -0.3041  0.5369 -2.7659
  361TIP3    H2 1048   1.349   5.041   3.072 -0.6593 -0.3263 -1.1532
  362TIP3   OH2 1049   5.811   1.348   5.327  0.2461 -0.3273 -1.1586
  362TIP3    H1 1050   5.843   1.261   5.350 -0.6277 -0.4671 -0.4373
  362TIP3    H2 1051   5.752   1.372   5.397  0.8832  1.0920 -1.0563
  363TIP3   OH2 1052   2.965   1.041   2.063  0.2967  0.1465  0.5978
  363TIP3    H1 1053   2.963   0.965   2.005  0.1376  1.9837 -1.9557
  363TIP3    H2 1054   3.031   1.019   2.129  1.7243 -1.3813 -1.2531
  364TIP3   OH2 1055   3.909   2.848   3.573 -0.0365  0.3461 -0.4345
  364TIP3    H1 1056   3.963   2.926   3.582 -2.1960  1.8104  0.6305
  364TIP3    H2 1057   3.829   2.868   3.621 -0.2609 -2.9617  0.9014
  365TIP3   OH2 1058   2.854   1.485   1.243 -0.1015 -0.4521 -0.2518
  365TIP3    H1 1059   2.765   1.467   1.273 -0.0315  0.7775  0.8095
  365TIP3    H2 1060   2.884   1.403   1.204 -1.5921 -0.9665 -0.3842
  366TIP3   OH2 1061   5.856   5.130   1.289  0.0701 -0.5798  0.2859
  366TIP3    H1 1062   5.903   5.205   1.325 -0.0779  0.4784 -1.5633
  366TIP3    H2 1063   5.925   5.072   1.255  0.1162 -0.0758 -0.4913
  367TIP3   OH2 1064   4.435   0.153   5.461  0.2808  0.2310  0.5260
  367TIP3    H1 1065   4.453   0.072   5.509  0.3284 -0.5188 -0.7078
  367TIP3    H2 1066   4.522   0.192   5.448  0.1633  1.1276  2.1491
  368TIP3   OH2 1067   6.002   0.421   1.336 -0.3738  0.2377 -0.3510
  368TIP3    H1 1068   5.940   0.437   1.265 -1.3710  0.0002  0.4413
  368TIP3    H2 1069   5.993   0.498   1.392 -0.7240 -0.2805  0.3104
  369TIP3   OH2 1070   3.566   4.478   0.025 -0.3668 -0.0880 -0.1397
  369TIP3    H1 1071   3.635   4.412   0.034  0.0642  0.4700  0.7365
  369TIP3    H2 1072   3.506   4.459   0.097 -0.5452  0.1137 -0.2383
  370TIP3   OH2 1073   6.035   6.469   2.740 -0.3721  0.4448  0.2740
  370TIP3    H1 1074   5.941   6.455   2.732 -0.0671 -2.2104  0.3341
  370TIP3    H2 1075   6.059   6.421   2.820  0.9795  1.5465  0.5728
  371TIP3   OH2 1076   6.505   1.076   2.305 -0.0432 -0.0263  0.5266
  371TIP3    H1 1077   6.414   1.048   2.312 -0.6141  1.1627 -1.2747
  371TIP3    H2 1078   6.545   1.051   2.388 -1.3276 -2.8906  0.3926
  372TIP3   OH2 1079   7.092   0.413   0.544 -0.3717  0.0074 -0.1822
  372TIP3    H1 1080   7.122   0.484   0.488 -0.8103  0.1880 -0.1875
  372TIP3    H2 1081   6.998   0.406   0.527 -0.3459 -0.5278 -0.1332
  373TIP3   OH2 1082   4.346   0.731   4.603  0.5824  0.3365  0.4819
  373TIP3    H1 1083   4.374   0.786   4.676 -0.8743  1.1629  0.4545
  373TIP3    H2 1084   4.362   0.785   4.525  2.6195 -0.7344  0.0845
  374TIP3   OH2 1085   2.228   5.219   2.894  0.0914  0.6664 -0.0610
  374TIP3    H1 1086   2.236   5.245   2.803  0.6861 -0.3775 -0.3243
  374TIP3    H2 1087   2.316   5.230   2.930  0.4252 -1.1318 -0.2468
  375TIP3   OH2 1088   1.875   5.118   1.522  0.1448 -0.2508  0.5166
  375TIP3    H1 1089   1.881   5.088   1.613  1.2003 -1.2852  0.1342
  375TIP3    H2 1090   1.950   5.177   1.512  0.2172 -0.3926  0.2282
  376TIP3   OH2 1091   2.761   3.291   2.736  0.7762 -0.1813 -0.7238
  376TIP3    H1 1092   2.822   3.284   2.662 -0.3350  0.6147 -1.7444
  376TIP3    H2 1093   2.814   3.329   2.807  1.3829  0.9057 -1.7204
  377TIP3   OH2 1094   1.934   0.220   1.213  0.1630  0.3463 -0.7465
  377TIP3    H1 1095   1.882   0.170   1.151 -0.3660 -0.0724  0.0298
  377TIP3    H2 1096   1.870   0.265   1.267  0.6231  0.6565 -0.4554
  378TIP3   OH2 1097   0.935   4.108   4.428  0.4984 -0.1600 -0.1053
  378TIP3    H1 1098   0.853   4.156   4.415 -0.4263 -1.5682  0.4006
  378TIP3    H2 1099   0.915   4.043   4.495  1.1204 -2.5841 -2.1325
  379TIP3   OH2 1100   6.073   6.791   3.021  0.1808  0.6091  0.1056
  379TIP3    H1 1101   6.141   6.757   2.962  0.1478 -3.1093  1.8765
  379TIP3    H2 1102   5.991   6.769   2.978  0.1611 -0.1205  0.4921
  380TIP3   OH2 1103   5.018   6.742   3.740 -0.3798 -0.1598  0.0703
  380TIP3    H1 1104   5.051   6.674   3.798 -1.8386  0.9322  2.3204
  380TIP3    H2 1105   5.027   6.823   3.791 -1.3043  0.9229 -1.4189
  381TIP3   OH2 1106   2.952   6.420   5.600 -0.6368 -0.1950  0.4862
  381TIP3    H1 1107   2.888   6.377   5.543 -0.9825  2.1739 -1.0347
  381TIP3    H2 1108   2.908   6.497   5.634  0.7392  0.3439  1.1390
  382TIP3   OH2 1109   5.664   5.859   3.772  0.0209 -0.2524  0.2097
  382TIP3    H1 1110   5.597   5.831   3.835  0.6638 -0.8038  0.6636
  382TIP3    H2 1111   5.717   5.781   3.758  0.5443  0.1698 -0.1803
  383TIP3   OH2 1112   2.343   0.978   5.572  0.1398  0.3308  0.6024
  383TIP3    H1 1113   2.348   1.047   5.638  2.5743  0.8675 -0.0343
  383TIP3    H2 1114   2.433   0.948   5.563 -0.3037 -0.4819 -1.6947
  384TIP3   OH2 1115   6.987   3.554   2.854  0.4050  0.0280 -0.0846
  384TIP3    H1 1116   6.913   3.506   2.890  0.4349 -0.2028 -0.3278
  384TIP3    H2 1117   7.044   3.571   2.930 -0.3961  1.1545  0.3034
  385TIP3   OH2 1118   4.446   3.661   2.870  0.0076  0.8366 -0.5652
  385TIP3    H1 1119   4.357   3.671   2.903 -0.0542  0.2867 -0.5614
  385TIP3    H2 1120   4.434   3.642   2.777 -0.0579 -2.4569 -0.0041
  386TIP3   OH2 1121   0.076   2.402   1.005 -0.0152  0.1682  0.0633
  386TIP3    H1 1122   0.011   2.402   0.935 -0.4914  1.0567  0.4918
  386TIP3    H2 1123   0.025   2.396   1.085  0.5861 -2.8146  0.3353
  387TIP3   OH2 1124   3.689   0.988   2.553  0.3823 -0.4031  0.6206
  387TIP3    H1 1125   3.770   1.037   2.546 -0.8975  1.8264  0.3093
  387TIP3    H2 1126   3.672   0.983   2.647  0.3913  0.0117  0.6460
  388TIP3   OH2 1127   5.701   0.238   0.076  0.3822 -0.0227 -0.5649
  388TIP3    H1 1128   5.764   0.286   0.128  0.9165 -0.6909 -0.5808
  388TIP3    H2 1129   5.737   0.239  -0.013  1.0782 -1.5275 -0.3407
  389TIP3   OH2 1130   3.563   4.514   1.162 -0.3247 -0.6002  0.9130
  389TIP3    H1 1131   3.503   4.463   1.215  0.4089 -0.8038  1.5481
  389TIP3    H2 1132   3.506   4.572   1.111 -1.1521 -1.9639  0.2532
  390TIP3   OH2 1133   2.049   1.661   3.570  0.2045 -0.0111 -0.1563
  390TIP3    H1 1134   2.114   1.703   3.514 -0.2219  0.9208  0.0254
  390TIP3    H2 1135   2.089   1.662   3.657  0.0057  0.4571 -0.0659
  391TIP3   OH2 1136   3.029   0.772   2.627 -0.1751 -0.2956 -0.1865
  391TIP3    H1 1137   3.049   0.689   2.670 -2.6873 -0.7044  0.3297
  391TIP3    H2 1138   2.933   0.778   2.627 -0.2021  1.2885 -2.7097
  392TIP3   OH2 1139   1.872   6.203   4.213 -0.2985  0.2983  0.5331
  392TIP3    H1 1140   1.918   6.286   4.221  0.8537 -0.3191  0.5754
  392TIP3    H2 1141   1.940   6.137   4.226 -0.6733 -0.6865 -1.9760
  393TIP3   OH2 1142   3.151   5.558   0.330 -0.0405 -0.1796 -0.1924
  393TIP3    H1 1143   3.058   5.581   0.328 -0.4262 -1.4327  1.6542
  393TIP3    H2 1144   3.174   5.556   0.422  1.1103 -2.5545 -0.4467
  394TIP3   OH2 1145   0.532   2.434   1.499  0.4540  0.1284  0.5271
  394TIP3    H1 1146   0.496   2.500   1.440  0.4519  0.3970  0.8295
  394TIP3    H2 1147   0.505   2.462   1.586  1.8715  0.6552  0.8271
  395TIP3   OH2 1148   1.564   3.448   4.142  0.0244  0.0272  0.0574
  395TIP3    H1 1149   1.583   3.398   4.062 -0.2963  1.7000 -1.1216
  395TIP3    H2 1150   1.648   3.454   4.186  0.8369  1.3042 -1.5298
  396TIP3   OH2 1151   3.548   2.943   0.323 -0.0978  0.0694  0.7640
  396TIP3    H1 1152   3.569   3.014   0.263  0.0891  0.0398  0.7942
  396TIP3    H2 1153   3.461   2.965   0.356 -0.0058  0.3291  0.8372
  397TIP3   OH2 1154   5.863   2.455   1.158 -0.1231  0.7358 -0.1356
  397TIP3    H1 1155   5.923   2.386   1.130  0.7445  0.7870  1.4818
  397TIP3    H2 1156   5.794   2.409   1.205 -0.0138  0.8774  0.1699
  398TIP3   OH2 1157   6.503   0.495   3.152  0.1119  0.1822 -0.5900
  398TIP3    H1 1158   6.567   0.430   3.123  1.9657 -0.4246  4.0181
  398TIP3    H2 1159   6.543   0.579   3.131  1.8925 -0.2073  0.9784
  399TIP3   OH2 1160   2.058   6.228   0.656 -0.2768 -0.3147 -0.3157
  399TIP3    H1 1161   2.127   6.287   0.626  1.4200 -1.9977  0.0520
  399TIP3    H2 1162   2.045   6.167   0.584 -1.3171 -0.0901 -0.3310
  400TIP3   OH2 1163   4.476   1.766   1.538  0.2482 -0.2859  0.0813
  400TIP3    H1 1164   4.464   1.687   1.591  0.3513 -2.1359 -2.5149
  400TIP3    H2 1165   4.568   1.789   1.549  0.5541 -1.3436 -0.2021
  401TIP3   OH2 1166   0.086   4.052   4.164 -0.1456 -0.3223 -0.5079
  401TIP3    H1 1167   0.132   3.977   4.201  1.6760  0.1885 -1.5747
  401TIP3    H2 1168   0.156   4.112   4.138 -1.5331  1.5158 -0.1810
  402TIP3   OH2 1169   1.895   6.508   3.318 -0.2097  0.0270 -0.0428
  402TIP3    H1 1170   1.861   6.508   3.229  0.0236 -3.1192 -0.2667
  402TIP3    H2 1171   1.970   6.567   3.315  0.0824 -0.3703 -2.0823
  403TIP3   OH2 1172   3.590   6.272   3.603 -0.2940  0.3425  0.6321
  403TIP3    H1 1173   3.635   6.353   3.578  1.8306 -0.9954 -0.1762
  403TIP3    H2 1174   3.650   6.230   3.665 -0.3044 -1.6036 -0.6096
  404TIP3   OH2 1175   6.088   1.639   5.158  0.3767 -0.8544 -0.4395
  404TIP3    H1 1176   6.145   1.566   5.179  0.9374  0.1430  1.7649
  404TIP3    H2 1177   6.026   1.644   5.231  0.3783  0.8500 -0.4976
  405TIP3   OH2 1178   0.703   0.477   0.147  0.2406 -0.0875  0.2604
  405TIP3    H1 1179   0.767   0.546   0.163  0.6808 -0.5785  0.6167
  405TIP3    H2 1180   0.637   0.519   0.091  1.4548  0.1016 -1.0946
  406TIP3   OH2 1181   3.432   4.100   4.155  0.3203 -0.6073  0.3437
  406TIP3    H1 1182   3.460   4.185   4.121  0.2581 -0.1026  1.5026
  406TIP3    H2 1183   3.439   4.040   4.080 -0.9930  0.6918 -0.8800
  407TIP3   OH2 1184   0.667   6.128   4.660  0.3245  0.4232 -0.2127
  407TIP3    H1 1185   0.586   6.168   4.631  1.2756  2.1800 -0.5960
  407TIP3    H2 1186   0.675   6.154   4.752 -0.1422 -0.7950  0.1844
  408TIP3   OH2 1187   0.614   5.747   5.693  0.0829  0.2508  0.2878
  408TIP3    H1 1188   0.692   5.690   5.692  0.9425  1.3432  1.4628
  408TIP3    H2 1189   0.643   5.826   5.739 -1.6092  0.8761  0.3418
  409TIP3   OH2 1190   5.981   0.876   0.269  0.0913 -0.8084  0.0994
  409TIP3    H1 1191   5.944   0.873   0.180  0.0208  2.4060 -0.0832
  409TIP3    H2 1192   6.071   0.906   0.256 -0.5756  1.9373  1.1494
  410TIP3   OH2 1193   1.694   3.394   1.108  0.4137 -0.1810  0.1120
  410TIP3    H1 1194   1.750   3.394   1.030 -0.1997  0.3746 -0.3372
  410TIP3    H2 1195   1.754   3.414   1.180  0.6854  1.0773 -0.4475
  411TIP3   OH2 1196   6.564   2.642   2.830 -0.0295 -0.2748  0.2168
  411TIP3    H1 1197   6.577   2.730   2.796  0.5787 -0.4032  0.0916
  411TIP3    H2 1198   6.577   2.585   2.754 -1.7654 -0.4192 -0.0094
  412TIP3   OH2 1199   5.124   3.897   1.142 -0.5916  0.5749  0.0849
  412TIP3    H1 1200   5.124   3.817   1.090 -1.2951 -0.3846  1.4752
  412TIP3    H2 1201   5.200   3.946   1.112 -2.1491  1.1542 -3.3786
  413TIP3   OH2 1202   4.978   3.458   4.380 -0.7689 -0.1509  0.2307
  413TIP3    H1 1203   4.902   3.516   4.384 -1.5398 -1.1944  1.1692
  413TIP3    H2 1204   5.050   3.515   4.353 -2.1148  0.6014 -2.0243
  414TIP3   OH2 1205   3.249   3.514   1.077  0.3266  0.0581  0.2752
  414TIP3    H1 1206   3.242   3.471   0.991 -2.4750  1.6912 -0.4691
  414TIP3    H2 1207   3.297   3.595   1.059  3.0009 -1.2467  1.0860
  415TIP3   OH2 1208   6.616   2.209   4.186 -0.3031 -0.3501  0.1243
  415TIP3    H1 1209   6.623   2.261   4.106  2.2459  0.5587  0.8336
  415TIP3    H2 1210   6.612   2.274   4.256 -0.2342 -1.1258  0.8627
  416TIP3   OH2 1211   5.879   1.260   2.272  0.1215 -0.0911 -0.5046
  416TIP3    H1 1212   5.881   1.264   2.176  1.9444 -1.9291 -0.6206
  416TIP3    H2 1213   5.959   1.213   2.295  0.2736  1.2663  2.0139
  417TIP3   OH2 1214   4.294   1.939   2.368  0.1368  0.1351 -0.3414
  417TIP3    H1 1215   4.340   1.945   2.285 -0.1404  1.3501 -0.4297
  417TIP3    H2 1216   4.232   1.867   2.357 -0.0568  0.4382 -1.2641
  418TIP3   OH2 1217   1.073   4.067   1.114  0.3004 -0.7885 -0.7339
  418TIP3    H1 1218   1.083   3.979   1.150  0.4036 -1.0753 -1.4574
  418TIP3    H2 1219   1.047   4.054   1.023 -0.3268 -0.0672 -0.6714
  419TIP3   OH2 1220   3.567   2.929   5.837 -0.0218 -0.1452  0.2109
  419TIP3    H1 1221   3.579   2.846   5.883 -1.3221  0.2044  1.2733
  419TIP3    H2 1222   3.559   2.994   5.907 -0.9315  0.5734 -0.5303
  420TIP3   OH2 1223   5.273   3.234   2.918  0.0346 -0.0800  0.4868
  420TIP3    H1 1224   5.345   3.263   2.863 -0.4716  1.8368  0.7456
  420TIP3    H2 1225   5.220   3.313   2.931 -0.9557 -0.9470  2.0352
  421TIP3   OH2 1226   2.263   5.579   2.918  0.1506 -0.0026  0.1565
  421TIP3    H1 1227   2.249   5.514   2.849  1.2472  1.0582 -1.1259
  421TIP3    H2 1228   2.355   5.568   2.942  1.3265  2.9753 -2.2650
  422TIP3   OH2 1229   2.471   0.587   5.164 -0.0056  0.0925  0.0631
  422TIP3    H1 1230   2.419   0.658   5.201 -1.4041 -0.3038 -1.0643
  422TIP3    H2 1231   2.407   0.523   5.133  1.1917 -1.0499 -0.1517
  423TIP3   OH2 1232   0.484   0.810   2.532  0.1623  0.1572 -0.2123
  423TIP3    H1 1233   0.429   0.737   2.504  1.1913 -0.4080 -0.8267
  423TIP3    H2 1234   0.525   0.780   2.613 -0.7617  0.7553  0.4928
  424TIP3   OH2 1235   2.483   6.398   0.110 -0.2158  0.1218 -0.3829
  424TIP3    H1 1236   2.439   6.350   0.040 -1.4718  0.3541  0.2299
  424TIP3    H2 1237   2.449   6.487   0.104 -0.8132  0.0007  0.8895
  425TIP3   OH2 1238   4.299   5.219   5.256  0.5329  0.3095 -0.4713
  425TIP3    H1 1239   4.274   5.265   5.336 -0.6047 -0.3310 -0.4309
  425TIP3    H2 1240   4.394   5.232   5.249  0.5966  0.6548  0.7924
  426TIP3   OH2 1241   0.343   3.838   3.725  0.7270 -0.1920 -0.2490
  426TIP3    H1 1242   0.387   3.905   3.778  1.6180 -0.0174 -1.1741
  426TIP3    H2 1243   0.303   3.887   3.653 -1.2252 -0.3189  0.6774
  427TIP3   OH2 1244   6.641   0.170   5.121  0.1967  0.2834 -0.2486
  427TIP3    H1 1245   6.555   0.153   5.082  0.7306 -1.1065 -0.8713
  427TIP3    H2 1246   6.632   0.144   5.213 -0.0452  0.1519 -0.3111
  428TIP3   OH2 1247   6.204   1.721   2.076 -0.1394 -0.8157  0.2442
  428TIP3    H1 1248   6.172   1.772   2.150 -0.7975 -0.0367 -0.5573
  428TIP3    H2 1249   6.298   1.740   2.073 -0.0816 -0.9790  0.9703
  429TIP3   OH2 1250   1.546   0.571   2.199  0.2253 -0.2495 -0.3622
  429TIP3    H1 1251   1.629   0.529   2.178  1.4581 -0.0603  3.4047
  429TIP3    H2 1252   1.568   0.638   2.264 -2.6094  1.3794 -0.9006
  430TIP3   OH2 1253   4.218   4.158   4.875 -0.2522 -0.1635  0.4827
  430TIP3    H1 1254   4.169   4.130   4.953 -0.0881 -0.3649  0.5142
  430TIP3    H2 1255   4.276   4.085   4.855 -0.5674 -0.2682 -0.0596
  431TIP3   OH2 1256   3.127   4.755   3.010  0.2390  0.0427  0.6500
  431TIP3    H1 1257   3.072   4.695   2.960  0.4903 -0.1304  0.5766
  431TIP3    H2 1258   3.086   4.758   3.097  0.0358  0.0237  0.5551
  432TIP3   OH2 1259   3.807   2.233   4.425 -0.4791 -0.1070  0.3456
  432TIP3    H1 1260   3.739   2.211   4.488 -1.2078 -1.5599 -0.8749
  432TIP3    H2 1261   3.871   2.162   4.433 -0.3561 -0.0675 -0.2418
  433TIP3   OH2 1262   6.892   5.943   0.550 -0.4416  0.0737  0.1547
  433TIP3    H1 1263   6.886   5.908   0.461 -0.1830 -0.0512  0.1864
  433TIP3    H2 1264   6.801   5.955   0.577 -0.5196  0.1117 -0.1269
  434TIP3   OH2 1265   1.782   2.553   3.631  0.2182  0.5706 -0.1268
  434TIP3    H1 1266   1.720   2.511   3.571  0.8369  0.4286 -0.6833
  434TIP3    H2 1267   1.762   2.646   3.627  0.3138  0.5715 -0.6326
  435TIP3   OH2 1268   4.585   1.660   3.933  0.7068  0.7378 -0.1843
  435TIP3    H1 1269   4.676   1.646   3.960  0.9761  0.2936 -1.2606
  435TIP3    H2 1270   4.548   1.572   3.925  0.2818  0.9047 -0.0553
  436TIP3   OH2 1271   4.983   2.201   3.223  0.2373  0.1259 -0.1191
  436TIP3    H1 1272   5.070   2.166   3.241 -0.6157 -1.8156  0.4777
  436TIP3    H2 1273   4.923   2.129   3.242 -1.5976  1.6964  0.4163
  437TIP3   OH2 1274   1.308   5.132   0.732  0.7056 -0.2654  0.7897
  437TIP3    H1 1275   1.334   5.221   0.757  1.1217 -0.3774  0.7727
  437TIP3    H2 1276   1.266   5.142   0.647  0.2284 -0.0121  1.0496
  438TIP3   OH2 1277   7.128   0.184   5.613  0.4253  0.3433 -0.0830
  438TIP3    H1 1278   7.105   0.109   5.667 -2.9718  0.0678 -1.6464
  438TIP3    H2 1279   7.113   0.260   5.669  0.7102 -0.0273  0.5038
  439TIP3   OH2 1280   5.426   5.698   5.776  0.1292  0.3370 -0.0695
  439TIP3    H1 1281   5.390   5.611   5.791 -1.6443  0.5769 -2.2981
  439TIP3    H2 1282   5.482   5.689   5.700 -0.4891  1.2178 -0.6482
  440TIP3   OH2 1283   3.843   4.049   3.610 -0.1240 -0.9966  0.0737
  440TIP3    H1 1284   3.859   4.015   3.698 -0.8921  1.8269  1.4266
  440TIP3    H2 1285   3.929   4.048   3.568  0.2333 -2.5047  0.7537
  441TIP3   OH2 1286   6.665   4.164   5.003 -0.8365 -0.5049  0.2983
  441TIP3    H1 1287   6.611   4.085   5.004  0.8191 -1.7176 -0.8523
  441TIP3    H2 1288   6.714   4.161   5.085 -1.0814 -0.4485  0.4469
  442TIP3   OH2 1289   3.436   4.252   0.545 -0.6820  0.2173  0.2469
  442TIP3    H1 1290   3.373   4.213   0.484 -0.3731 -0.2424  0.2172
  442TIP3    H2 1291   3.477   4.177   0.588  1.7027  0.3316 -1.5772
  443TIP3   OH2 1292   2.073   2.126   4.937 -0.1819  0.1427  0.3429
  443TIP3    H1 1293   2.110   2.194   4.881 -1.8282  0.1623 -0.7965
  443TIP3    H2 1294   2.120   2.046   4.914  0.6733  0.5751  0.5592
  444TIP3   OH2 1295   5.225   2.643   2.404  0.0385 -0.0749  0.1214
  444TIP3    H1 1296   5.286   2.702   2.360 -0.6057  0.5296  0.0121
  444TIP3    H2 1297   5.259   2.635   2.493  0.3487  0.1420  0.0230
  445TIP3   OH2 1298   6.816   1.313   1.049  0.4402 -0.2703  0.1440
  445TIP3    H1 1299   6.842   1.375   0.981 -0.0912  0.2641  0.4172
  445TIP3    H2 1300   6.724   1.293   1.030  0.7139 -1.2810 -0.1680
  446TIP3   OH2 1301   2.177   3.587   1.027  0.6908  0.6978 -0.2663
  446TIP3    H1 1302   2.095   3.628   1.053  0.8025  0.8798 -0.1924
  446TIP3    H2 1303   2.239   3.661   1.019  0.7566  0.6023 -0.6660
  447TIP3   OH2 1304   6.860   2.446   4.425 -0.1847  0.7626 -0.3560
  447TIP3    H1 1305   6.893   2.363   4.391  1.4176  0.4881  1.6699
  447TIP3    H2 1306   6.933   2.507   4.414 -1.2639  1.8917 -1.5991
  448TIP3   OH2 1307   0.778   1.941   5.695  0.5307  0.1003  0.0915
  448TIP3    H1 1308   0.799   1.849   5.681  0.0026 -0.1378  0.8063
  448TIP3    H2 1309   0.768   1.949   5.790 -1.1951  0.4880 -0.0996
  449TIP3   OH2 1310   5.411   4.412   0.250  0.4939  0.0248  0.4839
  449TIP3    H1 1311   5.388   4.357   0.176 -0.4720 -1.6729  1.9466
  449TIP3    H2 1312   5.507   4.418   0.247  0.4628 -0.0289 -0.8610
  450TIP3   OH2 1313   4.618   6.268   1.062  0.3556 -0.3944 -0.5463
  450TIP3    H1 1314   4.567   6.326   1.118  2.5645 -0.1659  1.3933
  450TIP3    H2 1315   4.595   6.180   1.091 -0.1297 -0.3613 -0.8218
  451TIP3   OH2 1316   5.864   5.697   5.686 -0.0990 -0.2002  0.2564
  451TIP3    H1 1317   5.862   5.679   5.780 -0.9494  0.6689  0.4171
  451TIP3    H2 1318   5.900   5.617   5.647  3.4598  0.5731  1.5462
  452TIP3   OH2 1319   4.819   1.778   4.151  0.4395 -0.1101  0.5791
  452TIP3    H1 1320   4.912   1.799   4.139 -0.0935  0.7273 -3.8390
  452TIP3    H2 1321   4.819   1.691   4.192  3.1263  0.1274  1.2763
  453TIP3   OH2 1322   5.233   1.139   0.175  0.1804 -0.3325 -0.5349
  453TIP3    H1 1323   5.273   1.062   0.134  0.3365 -0.2959 -0.4499
  453TIP3    H2 1324   5.208   1.195   0.101 -0.2360 -0.6148 -0.6085
  454TIP3   OH2 1325   0.911   2.659   0.688 -0.1543 -0.3440  0.6766
  454TIP3    H1 1326   0.856   2.718   0.739  0.2413 -0.1294  0.8619
  454TIP3    H2 1327   0.899   2.573   0.728 -0.1518 -0.2483  0.8818
  455TIP3   OH2 1328   5.096   4.436   3.662  0.0512  0.2389  0.9006
  455TIP3    H1 1329   5.150   4.383   3.603 -0.6843 -1.4281  1.6800
  455TIP3    H2 1330   5.058   4.503   3.604  1.1484  0.0628 -0.0709
  456TIP3   OH2 1331   0.739   2.603   5.301  0.1485  0.1036  0.1753
  456TIP3    H1 1332   0.739   2.519   5.346 -1.7206 -1.1987 -2.0772
  456TIP3    H2 1333   0.654   2.642   5.321  0.4739  0.8769  0.1171
  457TIP3   OH2 1334   2.963   1.792   4.253  0.2872  0.2052  0.5872
  457TIP3    H1 1335   2.883   1.822   4.209  0.1101 -0.8260  0.1927
  457TIP3    H2 1336   3.026   1.863   4.239  0.0506  0.1631 -0.8261
  458TIP3   OH2 1337  -0.011   3.507   4.475 -0.2594 -0.3942 -0.1198
  458TIP3    H1 1338  -0.035   3.527   4.385  0.1855  1.9999  0.2061
  458TIP3    H2 1339   0.075   3.549   4.487 -0.5047 -0.2883  1.5210
  459TIP3   OH2 1340   3.139   2.667   1.949 -0.1888  0.2905 -0.3957
  459TIP3    H1 1341   3.106   2.617   1.874  0.2976  0.2977 -0.6137
  459TIP3    H2 1342   3.183   2.743   1.910  1.5637 -0.5822 -0.1841
  460TIP3   OH2 1343   3.075   6.715   5.680  0.3560 -0.2427  0.5037
  460TIP3    H1 1344   2.989   6.680   5.701  0.1356 -0.0916 -0.1388
  460TIP3    H2 1345   3.130   6.690   5.755 -0.0450 -1.0543  0.5329
  461TIP3   OH2 1346   4.330   5.584   0.160  0.1223  0.1867  0.1925
  461TIP3    H1 1347   4.234   5.584   0.161  0.1106  0.2581 -0.4051
  461TIP3    H2 1348   4.355   5.499   0.195 -0.2159 -0.9159 -2.0384
  462TIP3   OH2 1349   5.570   6.284   1.177 -0.3402 -0.2560  0.2110
  462TIP3    H1 1350   5.585   6.339   1.254 -0.8958  1.0227 -0.5607
  462TIP3    H2 1351   5.578   6.344   1.103 -0.4890 -1.3231 -0.6866
  463TIP3   OH2 1352   7.153   6.088   2.358 -0.2796  0.2095  0.4550
  463TIP3    H1 1353   7.128   6.003   2.395 -0.6649  0.4788  0.8199
  463TIP3    H2 1354   7.077   6.144   2.373 -0.1464  0.5356 -0.0670
  464TIP3   OH2 1355   5.917   3.301   5.738 -0.1537  0.4423 -0.8362
  464TIP3    H1 1356   5.831   3.262   5.756 -1.0304  1.7870 -1.9252
  464TIP3    H2 1357   5.924   3.299   5.643  2.0018 -1.5833 -0.7177
  465TIP3   OH2 1358   3.710   0.171   5.834 -0.5280  0.1928 -0.1041
  465TIP3    H1 1359   3.667   0.256   5.824  0.5504  0.9542  1.4588
  465TIP3    H2 1360   3.744   0.170   5.923  0.6701 -1.3335 -0.5136
  466TIP3   OH2 1361   1.403   3.076   1.732  0.1607 -0.2946  0.0787
  466TIP3    H1 1362   1.484   3.026   1.746  1.5803  0.9044 -2.9294
  466TIP3    H2 1363   1.338   3.010   1.707  0.9268 -1.0450  0.0065
  467TIP3   OH2 1364   6.366   1.385   1.776  0.5611  0.1018  0.9502
  467TIP3    H1 1365   6.446   1.377   1.827  0.6212 -2.3317  0.6014
  467TIP3    H2 1366   6.396   1.395   1.685  0.4380  1.4237  1.0318
  468TIP3   OH2 1367   4.776   0.020   1.699 -0.1729  0.2110 -0.0346
  468TIP3    H1 1368   4.720  -0.044   1.743 -0.4370  0.1266 -0.4878
  468TIP3    H2 1369   4.744   0.105   1.729  0.5197  0.1333  0.9870
  469TIP3   OH2 1370   5.596   1.573   0.881  0.6383  0.7773  0.0118
  469TIP3    H1 1371   5.586   1.559   0.786 -0.8519  2.3098 -0.1048
  469TIP3    H2 1372   5.568   1.491   0.920 -1.3159  1.0069 -0.8188
  470TIP3   OH2 1373   2.354   4.650   1.082  0.2119  0.6777 -0.1377
  470TIP3    H1 1374   2.288   4.608   1.027  0.5604 -1.0653  0.6892
  470TIP3    H2 1375   2.396   4.714   1.025  0.3671 -0.8587 -1.8431
  471TIP3   OH2 1376   5.232   6.252   2.253 -0.2777 -0.1940  0.5956
  471TIP3    H1 1377   5.222   6.334   2.204  1.3321  0.4937  1.3392
  471TIP3    H2 1378   5.184   6.187   2.202 -1.0711  1.0866 -0.3405
  472TIP3   OH2 1379   2.512   3.100   5.676 -0.0410 -0.0487  0.4614
  472TIP3    H1 1380   2.418   3.085   5.682  0.0554 -2.5076 -1.9613
  472TIP3    H2 1381   2.527   3.124   5.584  1.6267  1.0868  0.9868
  473TIP3   OH2 1382   3.193   4.798   5.474 -0.0041  0.4235  0.6491
  473TIP3    H1 1383   3.266   4.738   5.456 -0.0751  0.3166  0.7111
  473TIP3    H2 1384   3.157   4.818   5.388 -0.4540 -0.2236  0.6795
  474TIP3   OH2 1385   5.661   5.047   1.111  0.2513 -0.3201 -0.1567
  474TIP3    H1 1386   5.731   5.073   1.172  1.9121 -1.3145 -1.5424
  474TIP3    H2 1387   5.699   4.975   1.060 -1.9960 -1.2571 -0.6328
  475TIP3   OH2 1388   6.016   0.538   5.676 -0.0705  0.1399  0.1467
  475TIP3    H1 1389   5.996   0.621   5.718  0.6337 -0.2615  1.3006
  475TIP3    H2 1390   6.096   0.508   5.718  0.3123 -0.5808 -1.0489
  476TIP3   OH2 1391   2.786   0.745   0.259  0.5068  0.0607  0.1898
  476TIP3    H1 1392   2.786   0.651   0.277  0.5973  0.2668  1.2987
  476TIP3    H2 1393   2.829   0.753   0.173 -2.1057 -1.1548 -1.3629
  477TIP3   OH2 1394   7.208   2.640   0.425  0.8407  0.2472 -0.5037
  477TIP3    H1 1395   7.208   2.639   0.330  1.7712  0.0729 -0.5132
  477TIP3    H2 1396   7.190   2.549   0.450 -1.6196  0.6661 -0.4617
  478TIP3   OH2 1397   0.733   6.679   0.728 -0.3063 -0.1539  0.1579
  478TIP3    H1 1398   0.829   6.680   0.723 -0.2526  0.2306  1.0930
  478TIP3    H2 1399   0.712   6.731   0.805 -1.4276  2.9718 -2.0849
  479TIP3   OH2 1400   4.632   1.282   5.522 -0.5695 -0.2609 -0.3409
  479TIP3    H1 1401   4.722   1.280   5.490 -0.6803 -0.8161 -0.6332
  479TIP3    H2 1402   4.586   1.341   5.463 -0.0959  1.1685  0.6520
  480TIP3   OH2 1403   6.550   1.681   1.468 -0.8205 -0.1878  0.3476
  480TIP3    H1 1404   6.613   1.734   1.518 -0.2690  0.6158 -1.1140
  480TIP3    H2 1405   6.479   1.742   1.448 -2.1562 -1.1146  2.0521
  481TIP3   OH2 1406   0.396   1.004   1.172  0.1310 -0.1023 -0.2871
  481TIP3    H1 1407   0.371   0.924   1.218 -0.9008 -0.6715 -1.7710
  481TIP3    H2 1408   0.321   1.062   1.181  0.4010  0.2437 -0.2387
  482TIP3   OH2 1409   7.015   0.969   3.974  0.2002  0.2671  0.2560
  482TIP3    H1 1410   6.999   0.960   3.880  2.3939 -0.3130 -0.1113
  482TIP3    H2 1411   6.980   1.055   3.997 -3.2951 -0.8139 -0.3467
  483TIP3   OH2 1412   1.565   0.544   3.749 -0.2029  0.3032 -0.2544
  483TIP3    H1 1413   1.529   0.488   3.818 -0.9298  2.6338  1.3794
  483TIP3    H2 1414   1.493   0.602   3.725  0.4912  0.5042 -1.9484
  484TIP3   OH2 1415   7.245   0.840   1.285  0.0136  0.2843  0.0001
  484TIP3    H1 1416   7.209   0.928   1.274  0.6972  0.9904  2.6677
  484TIP3    H2 1417   7.189   0.784   1.231 -1.5899  2.0930 -0.3125
  485TIP3   OH2 1418   5.724   1.771   4.597  0.1884 -0.6829  0.4651
  485TIP3    H1 1419   5.796   1.771   4.660  0.9099 -0.8252 -0.3270
  485TIP3    H2 1420   5.645   1.764   4.650  0.7753 -0.8671  1.3410
  486TIP3   OH2 1421   3.035   3.097   5.594  0.3869  0.2566 -0.6957
  486TIP3    H1 1422   2.979   3.145   5.655 -1.2700 -1.7921 -0.5235
  486TIP3    H2 1423   3.006   3.006   5.601  2.5778 -0.6057 -1.9227
  487TIP3   OH2 1424   6.961   4.586   5.395  0.3596 -0.4018  0.4243
  487TIP3    H1 1425   7.040   4.543   5.361  1.0684 -0.3847  1.9654
  487TIP3    H2 1426   6.976   4.679   5.382  0.5033 -0.4119  0.5130
  488TIP3   OH2 1427   3.085   0.751   0.808 -0.1481 -1.1982  0.4261
  488TIP3    H1 1428   3.173   0.718   0.792 -0.8684 -2.2446 -1.7786
  488TIP3    H2 1429   3.073   0.821   0.743 -0.7355 -0.6592  1.0959
  489TIP3   OH2 1430   5.202   2.148   5.203 -0.0369  0.0627  0.3874
  489TIP3    H1 1431   5.254   2.228   5.211  1.1017 -0.2926 -2.3129
  489TIP3    H2 1432   5.149   2.163   5.124 -0.8678 -1.2859  0.6670
  490TIP3   OH2 1433   2.754   3.279   3.712  0.8193  0.2695 -0.2581
  490TIP3    H1 1434   2.807   3.212   3.668 -0.4522 -2.8573  2.5097
  490TIP3    H2 1435   2.813   3.317   3.777  1.2037  1.0109 -1.0232
  491TIP3   OH2 1436   5.046   2.649   1.462 -0.0541 -0.7585  0.0585
  491TIP3    H1 1437   5.061   2.676   1.372 -1.1705 -2.0282 -0.5422
  491TIP3    H2 1438   5.063   2.728   1.514 -1.1507  0.5012 -1.3994
  492TIP3   OH2 1439   3.149   1.987   1.654 -0.0657 -0.6743  0.2743
  492TIP3    H1 1440   3.119   1.902   1.687  0.4730 -1.3262 -0.8310
  492TIP3    H2 1441   3.121   2.050   1.720 -2.3801 -1.4313  0.1043
  493TIP3   OH2 1442   4.134   2.468   4.830 -0.2550  0.3702 -0.3374
  493TIP3    H1 1443   4.074   2.514   4.771  0.5267 -0.6002 -1.9484
  493TIP3    H2 1444   4.082   2.398   4.868 -0.4604  0.2834 -0.7799
  494TIP3   OH2 1445   6.079   0.926   0.646 -0.3648  0.1839  0.5659
  494TIP3    H1 1446   5.989   0.915   0.676 -0.3220  0.6334  0.8646
  494TIP3    H2 1447   6.072   0.986   0.572 -0.6587 -2.1000 -1.3934
  495TIP3   OH2 1448   4.708   3.030   4.349  0.0883 -0.4822 -0.1525
  495TIP3    H1 1449   4.753   3.097   4.298 -0.9328  0.0181 -0.4019
  495TIP3    H2 1450   4.779   2.983   4.393  0.9484 -0.5345 -1.5322
  496TIP3   OH2 1451   5.858   4.478   5.752 -0.0148 -0.3768  0.0172
  496TIP3    H1 1452   5.789   4.545   5.748 -0.8368 -1.2088 -0.2955
  496TIP3    H2 1453   5.938   4.527   5.769 -0.6850  0.6257  0.4159
  497TIP3   OH2 1454   1.345   6.251   0.117 -0.0846  0.0096 -0.0650
  497TIP3    H1 1455   1.279   6.259   0.185  0.5888  0.3721  0.5602
  497TIP3    H2 1456   1.330   6.326   0.059 -0.2986  0.0132 -0.0053
  498TIP3   OH2 1457   7.199   5.451   3.958 -0.1425 -0.0364  0.0951
  498TIP3    H1 1458   7.217   5.460   3.864 -1.6062 -0.5251 -0.2661
  498TIP3    H2 1459   7.214   5.358   3.976 -1.0960 -0.2144  0.0342
  499TIP3   OH2 1460   0.454   5.124   5.436 -0.4934 -0.4639  0.4962
  499TIP3    H1 1461   0.471   5.217   5.453  0.6188 -0.6605  0.5091
  499TIP3    H2 1462   0.381   5.125   5.373  0.8739  0.5005 -1.1853
  500TIP3   OH2 1463   1.419   5.153   4.374  0.2678  0.1127  0.1176
  500TIP3    H1 1464   1.462   5.237   4.359 -0.8731  0.2902 -3.0162
  500TIP3    H2 1465   1.326   5.171   4.359  0.1593 -1.9315 -2.2916
  501TIP3   OH2 1466   6.678   6.410   5.892  0.1478 -0.1236 -0.2282
  501TIP3    H1 1467   6.646   6.473   5.957 -1.7086  0.5915 -1.7553
  501TIP3    H2 1468   6.612   6.411   5.823  1.9705 -0.9762 -2.0813
  502TIP3   OH2 1469   1.347   3.834   2.220  0.0461  0.5676 -0.1718
  502TIP3    H1 1470   1.440   3.813   2.209  0.2269  0.3259  1.5504
  502TIP3    H2 1471   1.340   3.869   2.309 -1.7060 -0.6960  0.2577
  503TIP3   OH2 1472   6.698   2.134   4.976  0.5914 -0.1941 -0.1642
  503TIP3    H1 1473   6.605   2.112   4.983  1.0437 -1.6342  2.8374
  503TIP3    H2 1474   6.739   2.054   4.943  0.8787  0.1768 -0.7241
  504TIP3   OH2 1475   5.036   6.307   2.700 -0.0613  0.1674  0.0225
  504TIP3    H1 1476   5.045   6.219   2.737  2.5652  1.0129  1.6676
  504TIP3    H2 1477   5.112   6.316   2.643 -1.7166  0.5028 -2.2490
  505TIP3   OH2 1478   2.881   1.638   4.898 -0.0208  0.1947  0.1283
  505TIP3    H1 1479   2.828   1.710   4.930  0.8080  0.4985  0.8678
  505TIP3    H2 1480   2.949   1.680   4.845 -1.4594 -0.3038 -2.2679
  506TIP3   OH2 1481   4.530   2.522   5.133 -0.6728  0.2692  0.3729
  506TIP3    H1 1482   4.490   2.512   5.219 -0.0701  1.6038  0.8329
  506TIP3    H2 1483   4.622   2.543   5.151 -0.2100 -0.8002 -0.6234
  507TIP3   OH2 1484   2.414   0.248   2.138  0.1057 -0.6103 -0.3616
  507TIP3    H1 1485   2.342   0.194   2.106  0.2830 -1.0988  0.0621
  507TIP3    H2 1486   2.391   0.337   2.109  1.2203 -1.2309 -3.6268
  508TIP3   OH2 1487   5.271   2.465   0.559  0.1800  0.0357 -0.6386
  508TIP3    H1 1488   5.182   2.462   0.594  1.2139 -2.1049  2.1760
  508TIP3    H2 1489   5.279   2.384   0.508  0.3133  0.6448 -1.6234
  509TIP3   OH2 1490   0.798   5.621   1.851 -0.1161 -0.5951 -0.3339
  509TIP3    H1 1491   0.710   5.645   1.820  0.6941  0.3139 -2.1184
  509TIP3    H2 1492   0.831   5.701   1.893 -0.6531 -1.3887  1.7242
  510TIP3   OH2 1493   6.708   3.504   2.196 -0.4097  0.3439  0.5559
  510TIP3    H1 1494   6.616   3.486   2.175 -0.1135  0.9666 -1.5117
  510TIP3    H2 1495   6.706   3.589   2.240 -0.8324  0.2540  0.7159
  511TIP3   OH2 1496   6.669   2.065   0.805  0.4054 -0.3632  0.5002
  511TIP3    H1 1497   6.629   2.031   0.885  0.6840  1.7943  1.6213
  511TIP3    H2 1498   6.657   2.160   0.810  2.2509  0.0166 -1.0137
  512TIP3   OH2 1499   3.255   1.227   5.501  0.2298  0.8873 -0.3602
  512TIP3    H1 1500   3.309   1.175   5.441 -0.1327  0.6496 -0.4869
  512TIP3    H2 1501   3.170   1.233   5.457 -0.1436  0.4212  0.2766
  513TIP3   OH2 1502   7.103   4.587   0.266 -0.0611  0.0767  0.1595
  513TIP3    H1 1503   7.107   4.553   0.355 -0.0198  0.2465  0.2240
  513TIP3    H2 1504   7.194   4.586   0.236 -0.1215 -0.3145 -0.0091
  514TIP3   OH2 1505   7.106   1.389   2.985  0.2925 -0.3313  0.0943
  514TIP3    H1 1506   7.012   1.393   2.965 -0.0558  2.6640  1.6224
  514TIP3    H2 1507   7.146   1.450   2.923  0.5715  1.4463  1.8978
  515TIP3   OH2 1508   5.718   4.637   4.375  0.0491 -0.1689  0.5659
  515TIP3    H1 1509   5.657   4.613   4.444  0.0017 -0.5870  0.3778
  515TIP3    H2 1510   5.748   4.554   4.338  0.4696  0.0387  0.4282
  516TIP3   OH2 1511   0.490   5.021   3.174 -0.2141 -0.0300  0.2609
  516TIP3    H1 1512   0.470   5.085   3.106  0.6537  0.7838  0.7506
  516TIP3    H2 1513   0.569   5.054   3.216  0.4429 -1.5853  0.3318
  517TIP3   OH2 1514   1.231   2.747   5.707 -0.1970 -0.3764  0.6982
  517TIP3    H1 1515   1.316   2.705   5.720  0.4109 -0.4341 -2.5171
  517TIP3    H2 1516   1.245   2.807   5.634 -2.5277  0.9165  1.2121
  518TIP3   OH2 1517   6.881   2.311   3.772 -0.0215 -0.1412 -0.1732
  518TIP3    H1 1518   6.925   2.227   3.754 -2.3693 -1.2293 -1.2611
  518TIP3    H2 1519   6.788   2.293   3.758 -1.2097  1.4822  3.9717
  519TIP3   OH2 1520   3.191   5.571   3.846 -0.1866  0.1260  0.1145
  519TIP3    H1 1521   3.273   5.526   3.824 -0.0515 -0.1636  1.1852
  519TIP3    H2 1522   3.142   5.507   3.897 -0.5933  0.6995  0.4493
  520TIP3   OH2 1523   6.746   4.349   5.419  0.6265 -0.4035  0.4730
  520TIP3    H1 1524   6.667   4.364   5.470  0.6940 -2.5914  1.3131
  520TIP3    H2 1525   6.814   4.330   5.485  1.3289 -0.7454 -0.3284
  521TIP3   OH2 1526   0.304   6.003   1.590  0.0101 -0.6693 -0.2447
  521TIP3    H1 1527   0.271   6.068   1.528  0.5219 -1.0401 -0.9174
  521TIP3    H2 1528   0.233   5.938   1.595 -0.2988 -0.3137  0.0568
  522TIP3   OH2 1529   3.586   2.597   1.939 -0.4338 -0.1347 -0.2499
  522TIP3    H1 1530   3.537   2.594   1.857  2.4346  0.8810 -2.2019
  522TIP3    H2 1531   3.664   2.544   1.922 -0.7143 -1.6046  2.6227
  523TIP3   OH2 1532   6.499   4.103   1.837  0.4623 -0.5553 -0.3329
  523TIP3    H1 1533   6.426   4.161   1.817 -2.0885 -3.8516 -1.4116
  523TIP3    H2 1534   6.496   4.094   1.932 -0.3478 -0.4470 -0.3402
  524TIP3   OH2 1535   6.229   2.732   3.522 -0.2722 -0.3290  0.4617
  524TIP3    H1 1536   6.204   2.812   3.568  1.2081 -0.8823  2.3482
  524TIP3    H2 1537   6.287   2.762   3.452 -0.6469  0.3374  0.4289
  525TIP3   OH2 1538   0.263   5.097   0.818 -0.2013  0.3870 -0.0851
  525TIP3    H1 1539   0.194   5.030   0.813  0.7284 -0.5901 -0.2123
  525TIP3    H2 1540   0.217   5.177   0.843 -1.1641 -0.5830  1.3963
  526TIP3   OH2 1541   2.912   3.983   5.810  0.1742  0.4757  0.0770
  526TIP3    H1 1542   2.908   3.975   5.714 -2.3299 -0.9445  0.2185
  526TIP3    H2 1543   2.931   4.076   5.825  3.5823  0.2187 -1.7327
  527TIP3   OH2 1544   3.952   1.569   0.371 -0.6438  0.3938 -0.5662
  527TIP3    H1 1545   3.909   1.654   0.366  0.1457  0.8181 -0.3233
  527TIP3    H2 1546   4.030   1.578   0.317  0.0684  0.2124  0.4052
  528TIP3   OH2 1547   2.665   5.377   2.214  0.1599 -0.1434  0.3115
  528TIP3    H1 1548   2.754   5.360   2.184  0.0020  0.3415 -0.4843
  528TIP3    H2 1549   2.635   5.449   2.158 -0.8494 -0.5325  0.3397
  529TIP3   OH2 1550   3.418   1.742   0.689 -0.5567  0.2547  0.1625
  529TIP3    H1 1551   3.509   1.762   0.666 -0.6620  0.1002 -0.3947
  529TIP3    H2 1552   3.395   1.806   0.756 -0.2725  0.7673 -0.2275
  530TIP3   OH2 1553   6.293   3.024   1.717  0.2132 -0.0528 -0.0945
  530TIP3    H1 1554   6.324   3.105   1.758  1.2906 -0.2904 -0.3942
  530TIP3    H2 1555   6.258   3.051   1.632 -0.8185  0.2758  0.4221
  531TIP3   OH2 1556   3.578   5.663   3.537 -0.0042  0.4183 -0.2608
  531TIP3    H1 1557   3.653   5.689   3.484 -0.5647  1.2037 -0.6863
  531TIP3    H2 1558   3.504   5.708   3.498 -0.5361  0.5050  0.8063
  532TIP3   OH2 1559   7.018   6.193   4.532 -0.0484  0.2219  0.0811
  532TIP3    H1 1560   6.984   6.105   4.520 -1.3420  0.3505  2.2646
  532TIP3    H2 1561   6.940   6.248   4.540  0.7313  1.3406  0.2457
  533TIP3   OH2 1562   2.248   4.949   3.665 -0.0799 -0.0905 -0.1110
  533TIP3    H1 1563   2.277   4.888   3.732 -2.3952 -2.0736 -0.7448
  533TIP3    H2 1564   2.298   4.925   3.587 -0.0394 -0.2914 -0.0230
  534TIP3   OH2 1565   2.340   2.870   1.217 -0.2060 -0.2782  0.6279
  534TIP3    H1 1566   2.391   2.856   1.298 -1.2803  0.0124  1.3707
  534TIP3    H2 1567   2.251   2.885   1.247 -0.3139  1.6422 -0.5098
  535TIP3   OH2 1568   0.268   6.522   5.375 -1.0999  0.0681  0.6192
  535TIP3    H1 1569   0.353   6.482   5.357 -1.5278  0.1271 -1.8550
  535TIP3    H2 1570   0.218   6.452   5.417 -0.2378 -0.3532  0.9745
  536TIP3   OH2 1571   0.675   1.973   3.912  0.7277  0.2142  0.1237
  536TIP3    H1 1572   0.616   2.048   3.904 -0.3298 -0.7495 -2.5121
  536TIP3    H2 1573   0.763   2.010   3.910  0.2239  1.4759  0.7504
  537TIP3   OH2 1574   3.833   0.582   4.919 -0.0743  0.1027  0.4545
  537TIP3    H1 1575   3.764   0.646   4.935  0.2238  0.4487  0.3809
  537TIP3    H2 1576   3.909   0.617   4.966  0.8686  1.2278 -1.7877
  538TIP3   OH2 1577   2.169   3.367   0.516 -0.4932  0.4858 -0.8007
  538TIP3    H1 1578   2.172   3.292   0.456  0.4540 -0.0368 -0.1323
  538TIP3    H2 1579   2.261   3.385   0.537 -0.6910  1.9473 -1.0622
  539TIP3   OH2 1580   2.060   5.260   4.378  0.4354 -0.3031  0.4023
  539TIP3    H1 1581   2.049   5.351   4.352  0.4198 -0.7010 -1.1131
  539TIP3    H2 1582   2.154   5.250   4.392  0.2954  0.2386  1.8210
  540TIP3   OH2 1583   0.968   2.238   2.696 -0.6738  0.7042  0.2372
  540TIP3    H1 1584   0.995   2.237   2.604 -0.6153  0.3627  0.2570
  540TIP3    H2 1585   0.891   2.295   2.697 -0.1952  1.3717  0.1197
  541TIP3   OH2 1586   3.151   0.467   0.862  0.0095 -0.3045 -0.0770
  541TIP3    H1 1587   3.169   0.553   0.822 -0.7729 -0.1949 -0.2108
  541TIP3    H2 1588   3.212   0.408   0.819  0.8703  0.2652  0.3333
  542TIP3   OH2 1589   5.744   2.689   3.047 -0.1509 -0.5233 -0.0212
  542TIP3    H1 1590   5.757   2.768   2.996 -1.5504  0.3964  0.9513
  542TIP3    H2 1591   5.700   2.719   3.127 -1.0157 -2.3156  0.2305
  543TIP3   OH2 1592   7.197   5.930   4.354  0.1690  0.4378  0.1676
  543TIP3    H1 1593   7.222   5.890   4.271  0.7897  0.8481  0.1478
  543TIP3    H2 1594   7.200   6.024   4.337 -0.3809  0.5151  0.4649
  544TIP3   OH2 1595   6.151   3.426   4.664 -0.3854 -0.0989  0.0759
  544TIP3    H1 1596   6.158   3.340   4.707 -1.6087 -0.7338 -0.9226
  544TIP3    H2 1597   6.117   3.484   4.731 -1.4173 -0.8707  0.2473
  545TIP3   OH2 1598   2.795   1.646   3.825 -0.0136 -0.1381 -0.7350
  545TIP3    H1 1599   2.781   1.555   3.800  0.0586 -0.8979  1.6934
  545TIP3    H2 1600   2.876   1.671   3.780 -0.7466 -0.8061 -2.4866
  546TIP3   OH2 1601   2.535   4.199   5.427  0.2599 -0.1317 -0.1355
  546TIP3    H1 1602   2.592   4.165   5.359 -1.2721 -1.1976 -0.9492
  546TIP3    H2 1603   2.544   4.136   5.499  1.1340  0.4610  0.2904
  547TIP3   OH2 1604   6.245   4.627   4.605  0.1600  0.1121 -0.6025
  547TIP3    H1 1605   6.160   4.624   4.561 -0.0163 -0.1640 -0.2417
  547TIP3    H2 1606   6.277   4.716   4.588 -0.8098  0.6761  0.4152
  548TIP3   OH2 1607   0.021   4.643   2.661  0.5409 -0.0245  0.0515
  548TIP3    H1 1608   0.102   4.694   2.656 -0.6273  1.9743  0.3881
  548TIP3    H2 1609  -0.032   4.676   2.589  0.2719 -1.8559 -0.6383
  549TIP3   OH2 1610   5.065   3.056   2.874  0.3794  0.0997 -0.5548
  549TIP3    H1 1611   5.145   3.108   2.883  1.4439 -1.6989  1.1244
  549TIP3    H2 1612   5.090   2.984   2.815 -0.7006  0.7383 -1.8429
  550TIP3   OH2 1613   2.833   6.758   4.471 -0.4259  0.3256  0.0705
  550TIP3    H1 1614   2.841   6.819   4.398 -1.1103 -1.4471 -1.5856
  550TIP3    H2 1615   2.764   6.697   4.444  0.2267 -1.1823  1.6092
  551TIP3   OH2 1616   0.294   1.557   5.856 -0.5990 -0.6087 -0.3723
  551TIP3    H1 1617   0.207   1.584   5.885  0.6829  1.7610  1.6666
  551TIP3    H2 1618   0.317   1.621   5.788  0.0729 -0.3149  0.1177
  552TIP3   OH2 1619   0.419   3.888   1.582 -0.4190  0.0668  0.6788
  552TIP3    H1 1620   0.478   3.936   1.640 -1.6031  0.9464  1.2031
  552TIP3    H2 1621   0.407   3.946   1.507  0.2963 -0.6230  0.0174
  553TIP3   OH2 1622   6.037   0.279   3.371  0.1306 -0.3440  0.2327
  553TIP3    H1 1623   6.103   0.304   3.307  0.4264  0.5005  0.8417
  553TIP3    H2 1624   6.085   0.278   3.455 -0.6495  0.4907  0.7105
  554TIP3   OH2 1625   2.051   2.389   1.757 -0.8202  0.1926  0.5396
  554TIP3    H1 1626   2.063   2.353   1.845 -2.0612 -0.1666  0.5889
  554TIP3    H2 1627   2.027   2.313   1.704 -0.9824  0.5535  0.0917
  555TIP3   OH2 1628   3.980   1.343   3.999 -0.2857  0.9037 -0.3799
  555TIP3    H1 1629   3.982   1.364   3.906 -2.5308  1.0766 -0.4605
  555TIP3    H2 1630   3.903   1.390   4.032 -1.5155 -1.7174  0.8422
  556TIP3   OH2 1631   1.401   0.588   5.840  0.3026  0.1647  0.4222
  556TIP3    H1 1632   1.349   0.613   5.916  0.3116  1.0474  0.1423
  556TIP3    H2 1633   1.343   0.529   5.791 -2.0239  3.9060 -1.7968
  557TIP3   OH2 1634   3.532   6.508   0.729  0.0675 -0.4205 -0.3497
  557TIP3    H1 1635   3.601   6.573   0.741 -0.7211  0.7225 -1.7435
  557TIP3    H2 1636   3.576   6.424   0.741  1.4478  0.3091 -0.1086
  558TIP3   OH2 1637   0.090   5.220   2.533 -0.2103 -0.7446  0.3587
  558TIP3    H1 1638   0.072   5.313   2.524  1.0586 -0.4815  0.3424
  558TIP3    H2 1639   0.063   5.182   2.449  0.2199 -0.2220 -0.0207
  559TIP3   OH2 1640   5.143   4.596   4.549 -0.3225  0.1625  0.0194
  559TIP3    H1 1641   5.092   4.645   4.614 -1.1334 -1.0009  0.3062
  559TIP3    H2 1642   5.082   4.530   4.515  0.7560 -0.7587 -0.2217
  560TIP3   OH2 1643   5.335   0.246   1.761  0.0643  0.1599 -1.5436
  560TIP3    H1 1644   5.331   0.253   1.856  0.0567 -0.8139 -1.4661
  560TIP3    H2 1645   5.394   0.317   1.734  0.6615 -0.0265 -0.7521
  561TIP3   OH2 1646   4.717   1.964   3.034 -0.3496 -0.2112  0.0246
  561TIP3    H1 1647   4.798   1.970   3.085  0.3130 -0.5561 -0.9442
  561TIP3    H2 1648   4.682   2.053   3.034 -0.4462 -0.2400  1.1952
  562TIP3   OH2 1649   4.192   6.728   0.950  0.3318  0.7021  0.5248
  562TIP3    H1 1650   4.124   6.795   0.964 -0.1511  0.0782  1.2659
  562TIP3    H2 1651   4.236   6.721   1.035  1.2420  0.9971  0.0865
  563TIP3   OH2 1652   1.239   3.000   4.021  0.4670 -0.2669 -0.1495
  563TIP3    H1 1653   1.273   3.011   3.932 -0.3914  1.4075 -0.3281
  563TIP3    H2 1654   1.252   3.086   4.061 -0.2998 -0.6398  0.9301
  564TIP3   OH2 1655   3.713   1.277   0.987  0.6842  0.1142 -0.2894
  564TIP3    H1 1656   3.622   1.253   0.969  0.8477 -0.7265 -0.0139
  564TIP3    H2 1657   3.713   1.373   0.981 -0.3717  0.1783  0.3919
  565TIP3   OH2 1658   1.331   0.775   2.854 -0.1845  0.3506  0.0085
  565TIP3    H1 1659   1.271   0.802   2.785  0.0339  1.3691  0.1958
  565TIP3    H2 1660   1.276   0.731   2.919 -0.6011  0.5879 -0.1823
  566TIP3   OH2 1661   6.714   5.110   2.437 -0.1998  0.6431  0.0169
  566TIP3    H1 1662   6.686   5.193   2.399 -1.6781  0.5668  0.8692
  566TIP3    H2 1663   6.752   5.134   2.522  1.1819  0.6082 -0.5591
  567TIP3   OH2 1664   6.644   2.302   3.927  0.3655  0.2116 -0.2013
  567TIP3    H1 1665   6.629   2.273   3.837 -3.2578 -3.1526  1.1790
  567TIP3    H2 1666   6.594   2.383   3.935 -1.6801 -0.9222 -0.6568
  568TIP3   OH2 1667   3.551   6.615   2.839  0.2722  0.2887  0.1501
  568TIP3    H1 1668   3.588   6.527   2.841  1.9271  0.9177 -0.5675
  568TIP3    H2 1669   3.457   6.602   2.850  0.5542 -1.4976  0.8058
  569TIP3   OH2 1670   3.441   3.340   0.904  0.2830  0.2438  0.0606
  569TIP3    H1 1671   3.501   3.414   0.898  0.4604 -0.0095 -2.3954
  569TIP3    H2 1672   3.363   3.368   0.857 -0.2382 -0.5937  0.4075
  570TIP3   OH2 1673   6.224   5.380   2.974 -0.0311 -0.5969  0.4588
  570TIP3    H1 1674   6.315   5.348   2.976  0.0421 -0.3947  0.4008
  570TIP3    H2 1675   6.187   5.353   3.058  0.2167 -0.2946  0.6678
  571TIP3   OH2 1676   0.195   2.263   1.965 -0.6256  0.0952 -0.1349
  571TIP3    H1 1677   0.237   2.217   2.038 -0.9082  0.3943  0.2234
  571TIP3    H2 1678   0.211   2.208   1.889  2.1490  1.1418 -0.4279
  572TIP3   OH2 1679   5.312   0.380   5.160 -0.2106  0.0742 -0.2858
  572TIP3    H1 1680   5.260   0.347   5.087  2.2498 -2.8205 -0.9146
  572TIP3    H2 1681   5.351   0.301   5.199  1.1476  1.8116  2.1202
  573TIP3   OH2 1682   0.722   5.063   0.368 -0.0087  0.5901 -0.2100
  573TIP3    H1 1683   0.630   5.082   0.351 -0.1267 -1.9402 -3.5282
  573TIP3    H2 1684   0.726   4.967   0.374  2.3929  0.6333 -0.0255
  574TIP3   OH2 1685   4.871   3.722   1.688 -0.1550 -0.0255 -0.2265
  574TIP3    H1 1686   4.859   3.804   1.737 -0.4288 -0.7451  0.9432
  574TIP3    H2 1687   4.818   3.658   1.736  1.0718 -1.1801 -0.3819
  575TIP3   OH2 1688   6.938   4.735   2.510  1.0276 -0.4348 -0.1293
  575TIP3    H1 1689   6.859   4.763   2.557  2.6055  0.0946  2.3990
  575TIP3    H2 1690   6.918   4.646   2.482 -0.4003 -0.3902  0.6448
  576TIP3   OH2 1691   0.147   1.625   3.081 -0.4460  0.8364  0.1591
  576TIP3    H1 1692   0.197   1.559   3.129 -0.5308  0.7911  0.1866
  576TIP3    H2 1693   0.098   1.672   3.149 -1.4226  0.0445  0.0271
  577TIP3   OH2 1694   1.074   3.537   0.604  0.1397  0.3949  0.2571
  577TIP3    H1 1695   1.133   3.576   0.539  0.1776  0.0050  0.0556
  577TIP3    H2 1696   0.986   3.555   0.571  0.1577  0.2793  0.1464
  578TIP3   OH2 1697   1.964   1.445   5.181 -0.2802 -0.5584  0.4638
  578TIP3    H1 1698   1.920   1.446   5.096  0.7395 -2.9907 -0.1607
  578TIP3    H2 1699   1.939   1.528   5.222  0.3832  1.3988 -2.7983
  579TIP3   OH2 1700   4.838   6.744   2.336 -0.1895  0.2134 -0.0833
  579TIP3    H1 1701   4.752   6.770   2.370  0.4071  2.2415  0.0012
  579TIP3    H2 1702   4.872   6.823   2.294  2.4820  0.0982  1.6566
  580TIP3   OH2 1703   1.556   2.802   2.652  0.2199 -0.4515  0.5221
  580TIP3    H1 1704   1.542   2.877   2.711  2.5849 -0.0829  0.7314
  580TIP3    H2 1705   1.612   2.743   2.702  2.0548 -0.2708 -1.1969
  581TIP3   OH2 1706   0.313   3.041   5.101  0.2311  0.0318  0.0510
  581TIP3    H1 1707   0.396   3.087   5.114  0.0355  0.5782 -0.5633
  581TIP3    H2 1708   0.338   2.957   5.063  0.4128  1.1462 -2.4991
  582TIP3   OH2 1709   4.769   2.140   1.669  0.2942 -0.2485  0.4466
  582TIP3    H1 1710   4.806   2.151   1.757  0.3360 -1.5154  0.6135
  582TIP3    H2 1711   4.843   2.155   1.610 -0.0471  2.0548  0.5154
  583TIP3   OH2 1712   4.892   3.033   3.505 -0.1477  0.1613  0.0093
  583TIP3    H1 1713   4.826   3.010   3.570  0.0023 -2.4419 -0.6263
  583TIP3    H2 1714   4.851   3.101   3.452 -0.9226  1.1077  1.7375
  584TIP3   OH2 1715   4.390   1.897   0.881  0.5823  0.4660 -0.7011
  584TIP3    H1 1716   4.452   1.865   0.815  0.2918 -2.5795  0.3011
  584TIP3    H2 1717   4.379   1.822   0.941 -0.3567  2.5311  1.9160
  585TIP3   OH2 1718   3.601   2.100   5.057 -0.4236  0.0189  0.1284
  585TIP3    H1 1719   3.604   2.181   5.108  0.1194  1.1978 -1.6656
  585TIP3    H2 1720   3.513   2.099   5.019 -0.4548 -0.2777  0.2052
  586TIP3   OH2 1721   1.409   2.302   0.004  0.3684 -0.6506 -0.0463
  586TIP3    H1 1722   1.348   2.278   0.073 -0.2915  0.5371 -0.1979
  586TIP3    H2 1723   1.465   2.225  -0.006 -1.3071 -1.9091 -0.1436
  587TIP3   OH2 1724   4.295   1.741   3.074 -0.7872 -0.2660  0.2949
  587TIP3    H1 1725   4.229   1.810   3.067 -1.3840 -0.5764  2.2542
  587TIP3    H2 1726   4.270   1.692   3.152  0.4195 -1.8671 -0.2732
  588TIP3   OH2 1727   0.670   0.348   0.380  0.1521  0.2069 -0.0050
  588TIP3    H1 1728   0.679   0.426   0.435  1.6507  0.6025 -0.7650
  588TIP3    H2 1729   0.676   0.381   0.291 -0.5099 -0.6369 -0.3714
  589TIP3   OH2 1730   5.854   1.753   0.244  0.3057 -0.6415 -0.3311
  589TIP3    H1 1731   5.909   1.677   0.221  0.5289 -1.3790  2.3263
  589TIP3    H2 1732   5.886   1.780   0.330  0.8659  3.1281 -1.5519
  590TIP3   OH2 1733   3.642   3.050   3.093 -0.3296  0.9511 -0.1390
  590TIP3    H1 1734   3.626   3.010   3.179  0.3106 -1.2783 -0.9719
  590TIP3    H2 1735   3.735   3.073   3.094 -0.1430  0.2420 -0.4679
  591TIP3   OH2 1736   0.403   2.651   1.326 -0.1524  0.0874 -0.0483
  591TIP3    H1 1737   0.352   2.732   1.321 -0.0137  0.1784  0.0267
  591TIP3    H2 1738   0.385   2.606   1.244 -1.0498 -0.2876  0.3360
  592TIP3   OH2 1739   3.735   2.452   1.628  0.1216 -0.2807 -0.1269
  592TIP3    H1 1740   3.810   2.511   1.626 -0.4532  0.4335 -2.0110
  592TIP3    H2 1741   3.773   2.365   1.637  1.1452  0.1250 -0.4543
  593TIP3   OH2 1742   2.497   1.820   5.688  0.1164 -0.0850 -0.0080
  593TIP3    H1 1743   2.576   1.792   5.734 -0.1651 -0.3333  0.3294
  593TIP3    H2 1744   2.479   1.748   5.626  0.3924  0.1654 -0.3815
  594TIP3   OH2 1745   3.062   5.615   4.392  0.2908  0.0249  0.2186
  594TIP3    H1 1746   3.152   5.585   4.400 -0.1534 -1.4881 -0.0738
  594TIP3    H2 1747   3.067   5.694   4.338  1.5275  0.5839  1.0945
  595TIP3   OH2 1748   3.251   1.905   2.634  0.1782 -0.4571  0.6022
  595TIP3    H1 1749   3.333   1.955   2.631  0.0925 -0.2758  1.0809
  595TIP3    H2 1750   3.276   1.821   2.672  0.4067 -0.9622 -0.6390
  596TIP3   OH2 1751   5.371   1.643   5.256 -0.0603 -0.8285 -0.3518
  596TIP3    H1 1752   5.328   1.728   5.249 -2.6416 -2.0105 -0.2073
  596TIP3    H2 1753   5.389   1.632   5.349  1.6120  0.0990 -0.5271
  597TIP3   OH2 1754   6.852   0.785   4.436 -0.5768 -0.5137 -0.1322
  597TIP3    H1 1755   6.772   0.736   4.417  0.4069 -1.7422 -1.2504
  597TIP3    H2 1756   6.892   0.800   4.351  0.5794 -0.2642  0.4376
  598TIP3   OH2 1757   0.706   2.687   3.831 -0.1934 -0.0765  0.0976
  598TIP3    H1 1758   0.733   2.641   3.910 -1.5435  0.4510  0.9161
  598TIP3    H2 1759   0.786   2.727   3.797  0.5587 -1.0297  0.6966
  599TIP3   OH2 1760   4.027   3.103   3.470 -0.2279 -0.5592  0.3796
  599TIP3    H1 1761   3.997   3.150   3.392 -1.9701 -0.6314  0.9462
  599TIP3    H2 1762   4.071   3.169   3.523  1.4739 -0.6280 -0.8731
  600TIP3   OH2 1763   5.324   0.875   3.768 -0.0327  0.1289 -0.2809
  600TIP3    H1 1764   5.408   0.830   3.772  0.5297  1.1777  0.0594
  600TIP3    H2 1765   5.259   0.804   3.771  0.8021 -0.6277  0.8954
  601TIP3   OH2 1766   7.155   1.165   5.477 -0.6834  0.4980 -0.2873
  601TIP3    H1 1767   7.112   1.129   5.399 -1.0594 -0.7746  0.4792
  601TIP3    H2 1768   7.124   1.256   5.482 -3.1344 -0.2946  0.1084
  602TIP3   OH2 1769   1.037   5.840   3.696  0.0167  0.1968  0.0652
  602TIP3    H1 1770   0.954   5.885   3.680  0.7711  1.2077 -1.0861
  602TIP3    H2 1771   1.030   5.811   3.787 -0.5424  2.5555  0.8414
  603TIP3   OH2 1772   4.218   6.295   2.516  0.4869 -0.2009 -0.3121
  603TIP3    H1 1773   4.282   6.239   2.473  1.8321 -0.1029  1.4510
  603TIP3    H2 1774   4.260   6.321   2.598 -1.2975  0.9580  0.2949
  604TIP3   OH2 1775   0.663   0.927   1.849  0.6111 -0.3291 -0.1504
  604TIP3    H1 1776   0.713   0.997   1.807  0.4980 -0.6204 -0.7831
  604TIP3    H2 1777   0.589   0.912   1.790 -0.4274  0.3292  0.9357
  605TIP3   OH2 1778   0.865   1.165   0.398 -0.0852  0.0893 -0.3549
  605TIP3    H1 1779   0.783   1.136   0.438  0.5969 -1.2660  0.0917
  605TIP3    H2 1780   0.924   1.179   0.472  0.4032  0.0521 -0.7329
  606TIP3   OH2 1781   3.743   5.395   5.420 -0.3521  0.5254 -0.1701
  606TIP3    H1 1782   3.827   5.365   5.385 -0.1740 -0.5228  1.0982
  606TIP3    H2 1783   3.677   5.345   5.372 -0.2038  0.5221 -0.3727
  607TIP3   OH2 1784   2.897   5.796   4.104 -0.1613 -0.0625  0.1325
  607TIP3    H1 1785   2.926   5.705   4.114 -1.7592 -0.8599 -1.8640
  607TIP3    H2 1786   2.948   5.844   4.170 -1.5932 -2.8275  3.6125
  608TIP3   OH2 1787   7.102   3.219   2.952 -0.1622 -0.0126  0.6164
  608TIP3    H1 1788   7.131   3.157   2.885 -0.0296  1.5550 -0.8332
  608TIP3    H2 1789   7.143   3.302   2.928 -0.6499  0.7571  2.2736
  609TIP3   OH2 1790   2.833   4.762   4.361 -0.3327  0.6163 -0.3879
  609TIP3    H1 1791   2.897   4.822   4.324  0.6323  0.2217  0.5907
  609TIP3    H2 1792   2.879   4.719   4.433 -0.9664 -1.3658 -1.1058
  610TIP3   OH2 1793   0.706   1.937   2.173 -0.3686 -0.4832  0.1151
  610TIP3    H1 1794   0.674   1.938   2.263  0.6844  0.9358  0.5194
  610TIP3    H2 1795   0.800   1.921   2.181 -0.3184 -0.6739 -0.7527
  611TIP3   OH2 1796   3.783   4.945   0.858 -0.4129  0.4437  0.1780
  611TIP3    H1 1797   3.777   4.869   0.916  0.7013  0.1502 -0.0608
  611TIP3    H2 1798   3.858   4.926   0.802 -0.7992  1.2276 -0.6283
  612TIP3   OH2 1799   0.340   5.668   5.295  0.0196  0.0157 -0.1742
  612TIP3    H1 1800   0.335   5.642   5.203 -0.9469 -0.4315 -0.0075
  612TIP3    H2 1801   0.305   5.757   5.297 -2.0142 -0.7499  0.0475
  613TIP3   OH2 1802   6.485   4.346   5.511  0.6248  0.0369 -0.2345
  613TIP3    H1 1803   6.466   4.392   5.593 -0.7189 -0.1465 -0.4205
  613TIP3    H2 1804   6.448   4.259   5.523  0.3206  0.0451 -1.0722
  614TIP3   OH2 1805   4.811   4.452   4.661  0.5166 -0.7071 -0.1711
  614TIP3    H1 1806   4.874   4.426   4.729  0.7062 -0.3953 -0.2233
  614TIP3    H2 1807   4.859   4.440   4.579  2.0443  3.4397 -0.0883
  615TIP3   OH2 1808   2.253   1.301   2.169  0.4092  0.2582  0.1739
  615TIP3    H1 1809   2.209   1.338   2.092  0.0780  1.8145  1.0802
  615TIP3    H2 1810   2.346   1.319   2.154  0.4039  0.0517 -0.1201
  616TIP3   OH2 1811   1.484   3.770   3.646 -0.0097 -0.1693 -0.1806
  616TIP3    H1 1812   1.492   3.860   3.616  1.4017 -0.8326 -2.0156
  616TIP3    H2 1813   1.391   3.749   3.636 -0.0422  0.5247 -1.5644
  617TIP3   OH2 1814   3.540   0.455   4.699  0.1331  0.4591 -0.5000
  617TIP3    H1 1815   3.592   0.377   4.715 -0.4657  0.0115 -0.6782
  617TIP3    H2 1816   3.473   0.427   4.636 -0.7981  0.7985  0.2995
  618TIP3   OH2 1817   5.728   1.771   0.590 -0.3418  0.5048 -0.2173
  618TIP3    H1 1818   5.691   1.857   0.570 -1.7733 -0.1347 -0.4621
  618TIP3    H2 1819   5.805   1.789   0.644  0.8728  2.0485 -2.3682
  619TIP3   OH2 1820   2.551   5.185   2.415  0.0268  0.4619  0.2636
  619TIP3    H1 1821   2.620   5.121   2.433 -0.6799 -0.3470  0.1449
  619TIP3    H2 1822   2.598   5.265   2.392  0.9260  0.3516  1.6326
  620TIP3   OH2 1823   0.092   6.290   3.008 -0.2033  0.1346  0.2030
  620TIP3    H1 1824   0.182   6.260   3.002 -0.7031 -1.4474  0.1986
  620TIP3    H2 1825   0.066   6.272   3.099 -0.5842  0.3626  0.1442
  621TIP3   OH2 1826   5.987   5.223   0.748 -0.7338 -0.1682 -0.4858
  621TIP3    H1 1827   5.957   5.219   0.839  1.6308 -3.2532  0.3425
  621TIP3    H2 1828   6.059   5.286   0.750 -0.0149 -0.9762  0.0824
  622TIP3   OH2 1829   5.795   6.194   5.087  0.0708  0.3733  0.7164
  622TIP3    H1 1830   5.830   6.252   5.155 -0.5147  0.8429  0.6259
  622TIP3    H2 1831   5.773   6.113   5.133  1.2153  0.0876  0.7839
  623TIP3   OH2 1832   3.721   6.700   5.061 -0.6032 -0.1608  0.1189
  623TIP3    H1 1833   3.703   6.776   5.115  0.1950  0.4159 -0.4120
  623TIP3    H2 1834   3.750   6.736   4.977 -1.4561 -1.0381 -0.5756
  624TIP3   OH2 1835   2.478   5.567   1.172 -0.1284 -0.7292  0.8013
  624TIP3    H1 1836   2.452   5.477   1.188 -0.5743 -1.2739 -2.4087
  624TIP3    H2 1837   2.445   5.587   1.085 -0.2396  2.6547  1.4783
  625TIP3   OH2 1838   2.865   5.511   0.322 -0.1615 -0.0504 -0.6961
  625TIP3    H1 1839   2.911   5.430   0.301 -1.6412 -1.4657  1.1125
  625TIP3    H2 1840   2.858   5.510   0.418  0.0803  2.4261 -0.5834
  626TIP3   OH2 1841   1.563   3.942   3.168 -0.1687 -0.3041 -0.4822
  626TIP3    H1 1842   1.516   3.985   3.096 -0.7597 -0.8079 -0.4065
  626TIP3    H2 1843   1.495   3.917   3.230 -0.1481 -3.1952 -1.4742
  627TIP3   OH2 1844   2.726   2.645   1.468 -0.4209 -0.2858 -0.9382
  627TIP3    H1 1845   2.722   2.680   1.379  2.2937 -0.6714 -1.3044
  627TIP3    H2 1846   2.772   2.713   1.517 -1.9161 -0.0687  0.2176
  628TIP3   OH2 1847   2.172   3.160   3.592 -0.3447 -0.0247  0.3251
  628TIP3    H1 1848   2.174   3.256   3.594  0.6589  0.0506 -1.9144
  628TIP3    H2 1849   2.216   3.134   3.674  0.1008  1.4276  0.5799
  629TIP3   OH2 1850   7.174   0.538   2.680  0.5575  0.1961 -0.0906
  629TIP3    H1 1851   7.234   0.470   2.651  0.7279  0.1699  0.3257
  629TIP3    H2 1852   7.205   0.618   2.637  0.9575  0.2043  0.2145
  630TIP3   OH2 1853   1.205   1.473   2.106 -0.0619 -0.6528 -0.8210
  630TIP3    H1 1854   1.238   1.513   2.187 -2.0586 -2.1221  0.8292
  630TIP3    H2 1855   1.178   1.547   2.052  2.2977  0.4037 -0.6594
  631TIP3   OH2 1856   6.281   3.326   3.573 -0.1597  0.0833  0.1071
  631TIP3    H1 1857   6.273   3.301   3.665 -1.0512 -2.6450 -0.6034
  631TIP3    H2 1858   6.195   3.309   3.536  0.2516  0.8718 -1.2907
  632TIP3   OH2 1859   1.907   3.953   1.243 -0.2841 -0.0917 -0.4334
  632TIP3    H1 1860   1.891   3.965   1.337  1.2612  0.4226 -0.1995
  632TIP3    H2 1861   1.964   4.026   1.220 -0.5072 -0.3219 -1.7431
  633TIP3   OH2 1862   3.214   3.721   3.521  0.0719  0.3405  0.4821
  633TIP3    H1 1863   3.280   3.758   3.580 -0.0066 -0.7421  1.2701
  633TIP3    H2 1864   3.261   3.653   3.473 -1.0108 -2.4578  3.0465
  634TIP3   OH2 1865   6.161   3.771   2.443  0.3049 -0.1196 -0.3486
  634TIP3    H1 1866   6.220   3.717   2.390 -0.7335 -0.8706 -0.7628
  634TIP3    H2 1867   6.108   3.708   2.492 -0.3719  0.5447 -0.2159
  635TIP3   OH2 1868   3.048   2.201   4.293  0.0073  0.2831 -0.0995
  635TIP3    H1 1869   3.088   2.140   4.232  0.2019 -0.4788  0.7738
  635TIP3    H2 1870   2.954   2.191   4.280  0.0345 -0.4015  0.2272
  636TIP3   OH2 1871   6.904   6.403   2.218 -0.1440 -0.0850  0.0026
  636TIP3    H1 1872   6.992   6.434   2.196 -0.8121  0.3945 -2.3248
  636TIP3    H2 1873   6.862   6.391   2.133 -2.4288 -0.0575  1.0717
  637TIP3   OH2 1874   2.782   4.568   2.152  0.7920  0.1768  0.7189
  637TIP3    H1 1875   2.775   4.663   2.140  2.6532  0.2883  0.2326
  637TIP3    H2 1876   2.795   4.533   2.064  0.9657 -0.4422  0.9853
  638TIP3   OH2 1877   6.406   5.310   4.472  0.1403 -0.6413 -0.3076
  638TIP3    H1 1878   6.499   5.291   4.459  0.4062  1.0916 -1.2864
  638TIP3    H2 1879   6.362   5.227   4.454  1.5388 -1.7638  1.1871
  639TIP3   OH2 1880   6.417   1.355   0.368 -0.2925  0.2249  0.0221
  639TIP3    H1 1881   6.432   1.279   0.312  1.0311  0.3621  0.1576
  639TIP3    H2 1882   6.377   1.319   0.447 -0.8981 -0.1482 -0.4466
  640TIP3   OH2 1883   2.536   2.239   5.506 -0.1389  0.1854  0.1582
  640TIP3    H1 1884   2.455   2.265   5.461 -0.7356 -2.1000 -0.2221
  640TIP3    H2 1885   2.602   2.237   5.436  0.3526  2.3026  0.5148
  641TIP3   OH2 1886   0.760   1.891   4.251 -0.5722 -0.0361  0.1039
  641TIP3    H1 1887   0.717   1.973   4.231  0.5915  0.7163  0.5640
  641TIP3    H2 1888   0.717   1.826   4.195 -0.7273  1.0913 -1.1310
  642TIP3   OH2 1889   3.487   5.279   1.324  0.1119  0.0700  0.0763
  642TIP3    H1 1890   3.491   5.264   1.419  0.1819  1.5558  0.3319
  642TIP3    H2 1891   3.399   5.315   1.309 -0.0826 -0.6097 -0.5190
  643TIP3   OH2 1892   2.278   3.203   2.376 -0.0953 -0.5514  0.1862
  643TIP3    H1 1893   2.275   3.108   2.390 -0.2130 -0.8869 -1.8582
  643TIP3    H2 1894   2.369   3.221   2.353  0.6161  0.3269  3.1599
  644TIP3   OH2 1895   2.470   0.488   3.385 -0.0582 -0.0204  0.3437
  644TIP3    H1 1896   2.452   0.580   3.367  2.1896  0.3879 -0.0755
  644TIP3    H2 1897   2.388   0.443   3.364 -1.3018  1.8867  0.8608
  645TIP3   OH2 1898   3.939   3.545   4.924 -0.2881 -0.0494  0.0946
  645TIP3    H1 1899   3.869   3.596   4.965  1.3477  1.4937  1.1439
  645TIP3    H2 1900   3.937   3.570   4.832 -0.1341  1.2156  0.4200
  646TIP3   OH2 1901   4.467   2.183   5.402  0.1294  0.1653 -0.2789
  646TIP3    H1 1902   4.389   2.196   5.456  0.2550  0.9366 -0.2653
  646TIP3    H2 1903   4.537   2.163   5.465  0.1061  0.2715 -0.2180
  647TIP3   OH2 1904   0.058   1.721   2.295  0.4663 -0.1551 -0.0901
  647TIP3    H1 1905   0.026   1.631   2.293  1.4409 -0.6742  3.0431
  647TIP3    H2 1906  -0.022   1.774   2.301 -0.0837 -0.7907 -1.2369
  648TIP3   OH2 1907   6.608   5.003   4.120  0.0743  0.2382 -0.3771
  648TIP3    H1 1908   6.545   5.076   4.120 -0.8863 -0.5510 -1.5485
  648TIP3    H2 1909   6.566   4.935   4.067  1.2162 -0.9477  0.1864
  649TIP3   OH2 1910   5.252   1.590   2.665  0.0207  0.2503  0.0643
  649TIP3    H1 1911   5.306   1.547   2.732  0.0885  1.3383  0.7479
  649TIP3    H2 1912   5.314   1.645   2.617  0.0330 -0.8053 -1.1469
  650TIP3   OH2 1913   1.082   0.043   0.759 -0.3930 -0.4461  0.0853
  650TIP3    H1 1914   1.021   0.009   0.693 -1.2888  0.2860  0.5068
  650TIP3    H2 1915   1.052   0.133   0.775 -0.2698 -0.6437  1.5685
  651TIP3   OH2 1916   6.284   2.132   1.403 -0.6247 -0.1850 -0.4109
  651TIP3    H1 1917   6.340   2.190   1.351 -1.2063 -0.5337 -1.4571
  651TIP3    H2 1918   6.215   2.105   1.343 -0.8091 -1.3367  0.2825
  652TIP3   OH2 1919   5.316  -0.021   2.566 -0.5616 -0.0742  0.0710
  652TIP3    H1 1920   5.233  -0.000   2.521 -0.4122  2.2902  0.7557
  652TIP3    H2 1921   5.374   0.052   2.543  1.3246 -1.6124 -0.2646
  653TIP3   OH2 1922   1.827   0.130   1.666  0.5777  0.2720 -0.7733
  653TIP3    H1 1923   1.834   0.065   1.596 -1.2286  1.0156 -1.7145
  653TIP3    H2 1924   1.793   0.081   1.740  0.0253 -0.0352 -1.2203
  654TIP3   OH2 1925   3.881   0.872   4.606 -0.5058 -0.4347 -0.4801
  654TIP3    H1 1926   3.792   0.902   4.625  0.0435  1.1023 -0.1903
  654TIP3    H2 1927   3.901   0.910   4.521  0.2860  0.2162 -0.0142
  655TIP3   OH2 1928   1.499   2.508   3.314  0.1177 -0.2723 -0.2269
  655TIP3    H1 1929   1.548   2.445   3.367  0.6411  0.4627  0.1781
  655TIP3    H2 1930   1.450   2.454   3.252  2.2806 -1.0241 -1.3878
  656TIP3   OH2 1931   2.578   4.568   3.643  0.2942 -0.1910  0.0437
  656TIP3    H1 1932   2.521   4.549   3.568 -0.2523 -0.1751  0.4426
  656TIP3    H2 1933   2.626   4.647   3.617 -1.9615  1.5480  0.7727
  657TIP3   OH2 1934   4.379   0.826   1.965  0.2549  0.0715  0.1964
  657TIP3    H1 1935   4.331   0.863   1.891 -1.1676  0.7485  1.4060
  657TIP3    H2 1936   4.370   0.891   2.034  0.6959 -0.9905  1.2947
  658TIP3   OH2 1937   5.974   5.993   5.865  0.1023 -0.1734 -0.1343
  658TIP3    H1 1938   6.012   6.027   5.784  0.4651  0.0958  0.1467
  658TIP3    H2 1939   5.893   6.043   5.876  1.6661  2.2408  1.4187
  659TIP3   OH2 1940   4.670   0.861   0.485  0.3977 -0.0674 -0.6720
  659TIP3    H1 1941   4.699   0.949   0.462 -0.3794  0.2725 -0.3943
  659TIP3    H2 1942   4.740   0.804   0.454  0.2147  0.5124 -2.2621
  660TIP3   OH2 1943   3.949   1.000   0.659  0.3202  0.8730 -0.1964
  660TIP3    H1 1944   3.955   1.027   0.751  3.1424 -1.7270  0.5341
  660TIP3    H2 1945   4.020   1.048   0.616  0.6027  0.2023 -0.4813
  661TIP3   OH2 1946   4.617   3.497   1.456 -0.3182 -0.2074 -0.3544
  661TIP3    H1 1947   4.549   3.435   1.429 -0.2177  0.1179 -1.3711
  661TIP3    H2 1948   4.583   3.582   1.429  0.4236 -0.0283 -0.7338
  662TIP3   OH2 1949   1.051   0.410   4.841 -0.0442 -0.1686  0.1903
  662TIP3    H1 1950   1.124   0.349   4.838  0.1543  0.1097 -1.9387
  662TIP3    H2 1951   0.982   0.363   4.888 -0.2940 -2.5567 -2.3277
  663TIP3   OH2 1952   6.782   0.619   5.321 -0.2308 -0.0489  0.1307
  663TIP3    H1 1953   6.783   0.566   5.400  0.3847  0.0514  0.1977
  663TIP3    H2 1954   6.734   0.567   5.257  0.3636 -0.6850  0.1992
  664TIP3   OH2 1955   3.951   0.959  -0.001 -0.3065  0.0370 -0.1030
  664TIP3    H1 1956   3.948   0.994   0.088 -0.0947 -1.0278  0.3476
  664TIP3    H2 1957   4.042   0.931  -0.012  0.0361  1.4658 -1.2020
  665TIP3   OH2 1958   6.372   3.407   3.155 -0.4503 -0.2622 -0.1768
  665TIP3    H1 1959   6.408   3.435   3.071  0.2352 -0.4509  0.0470
  665TIP3    H2 1960   6.424   3.455   3.220 -1.7145  0.7385  0.1209
  666TIP3   OH2 1961   5.492   3.284   2.743  0.5014  0.2403  0.4950
  666TIP3    H1 1962   5.497   3.260   2.650  0.5899  0.4456  0.4469
  666TIP3    H2 1963   5.498   3.379   2.744 -0.5252  0.3155  0.6377
  667TIP3   OH2 1964   6.933   6.395   3.370  0.6995  0.0204 -0.1367
  667TIP3    H1 1965   6.955   6.369   3.459  0.0608 -0.3750 -0.0835
  667TIP3    H2 1966   7.013   6.434   3.335  1.4375 -1.2626  0.0694
  668TIP3   OH2 1967   4.496   4.685   3.275  0.1992  0.4012 -1.0852
  668TIP3    H1 1968   4.495   4.605   3.222  2.0088  0.0349 -0.6242
  668TIP3    H2 1969   4.446   4.748   3.224 -1.7394 -1.1382 -1.2371
  669TIP3   OH2 1970   6.894   1.684   4.662  0.1948  0.2670  0.3492
  669TIP3    H1 1971   6.815   1.702   4.714 -1.8561 -2.1467 -1.6400
  669TIP3    H2 1972   6.966   1.697   4.724 -1.7450  1.9659  2.4667
  670TIP3   OH2 1973   7.001   6.510   1.812  0.6394 -0.1251  0.3330
  670TIP3    H1 1974   7.087   6.509   1.853  0.3823  2.3346  1.0836
  670TIP3    H2 1975   6.979   6.603   1.803 -2.3026 -0.6446  0.9997
  671TIP3   OH2 1976   1.140   5.248   2.625 -0.5146 -0.0920  0.4889
  671TIP3    H1 1977   1.210   5.264   2.688  2.7783 -1.9111 -2.3407
  671TIP3    H2 1978   1.087   5.179   2.666 -0.1422  0.6746  2.3497
  672TIP3   OH2 1979   3.339   1.647   4.308 -0.1886  0.2445  0.8078
  672TIP3    H1 1980   3.366   1.672   4.219  0.2980  0.3587  0.9868
  672TIP3    H2 1981   3.252   1.686   4.318 -1.3847 -1.8857 -0.5421
  673TIP3   OH2 1982   2.566   4.245   3.980 -0.2174 -0.4598 -0.4300
  673TIP3    H1 1983   2.477   4.214   3.962 -1.9875  3.3497  0.8735
  673TIP3    H2 1984   2.586   4.214   4.068 -0.9993  0.0952 -0.0499
  674TIP3   OH2 1985   3.108   2.190   1.837 -1.0960  0.5778 -0.2789
  674TIP3    H1 1986   3.133   2.192   1.929 -0.1627  0.6195 -0.5175
  674TIP3    H2 1987   3.025   2.237   1.833 -2.1455 -1.1149  0.8253
  675TIP3   OH2 1988   5.556   0.430   4.219  0.6334 -0.2795 -0.3103
  675TIP3    H1 1989   5.640   0.412   4.262  0.1559 -0.4254  0.5979
  675TIP3    H2 1990   5.497   0.365   4.257  0.6300 -1.8111 -2.7151
  676TIP3   OH2 1991   1.045   0.662   0.823  0.5579 -0.4348 -0.5504
  676TIP3    H1 1992   1.140   0.662   0.823  0.5962 -0.4129  1.3988
  676TIP3    H2 1993   1.020   0.611   0.746  2.1333 -0.3956 -1.1071
  677TIP3   OH2 1994   4.594   1.000   3.397 -0.4988  0.2423  0.2691
  677TIP3    H1 1995   4.657   0.937   3.363 -1.6182 -0.6930 -0.1459
  677TIP3    H2 1996   4.555   1.039   3.319 -2.4988 -1.3244  0.3844
  678TIP3   OH2 1997   1.155   0.886   2.670 -0.3806 -0.0515  0.7353
  678TIP3    H1 1998   1.147   0.889   2.574  0.6370  0.0396  0.6372
  678TIP3    H2 1999   1.127   0.973   2.698 -0.6520 -0.0660  0.5233
  679TIP3   OH2 2000   1.122   4.542   1.333  0.3158  0.5207  0.4034
  679TIP3    H1 2001   1.093   4.452   1.314 -1.5258  0.9468  1.0315
  679TIP3    H2 2002   1.158   4.537   1.422 -1.8052  0.7630  1.3487
  680TIP3   OH2 2003   3.505   0.222   2.406  0.1976  0.6545 -0.4728
  680TIP3    H1 2004   3.476   0.313   2.392  0.2669  0.5071 -1.7509
  680TIP3    H2 2005   3.441   0.169   2.358  0.2294  0.0340  0.1620
  681TIP3   OH2 2006   1.354   2.957   4.508 -0.0664  0.0709 -0.1577
  681TIP3    H1 2007   1.287   3.010   4.551  0.6990  2.4563 -1.7327
  681TIP3    H2 2008   1.401   3.018   4.452  2.6807 -1.7531 -0.0251
  682TIP3   OH2 2009   0.768   1.751   0.470  0.2338  0.3232  0.3512
  682TIP3    H1 2010   0.719   1.675   0.440 -0.6170  0.3817  1.5087
  682TIP3    H2 2011   0.800   1.726   0.557  1.1185  0.7906  0.1730
  683TIP3   OH2 2012   2.944   1.060   3.746  0.2772 -0.6074 -0.1952
  683TIP3    H1 2013   2.958   0.968   3.723 -1.5245 -1.3389  1.4074
  683TIP3    H2 2014   2.973   1.066   3.837  3.2762  1.2129 -1.1361
  684TIP3   OH2 2015   7.081   4.678   4.392  0.5412 -0.0969 -0.6319
  684TIP3    H1 2016   7.033   4.707   4.470 -0.5116  0.5925 -1.5033
  684TIP3    H2 2017   7.168   4.716   4.402  0.4399 -0.0622  0.2324
  685TIP3   OH2 2018   5.565   2.925   0.552 -0.2091  0.5640  0.4593
  685TIP3    H1 2019   5.624   2.867   0.601  0.2952  1.7696  1.3347
  685TIP3    H2 2020   5.485   2.874   0.541  0.5182 -0.6107  0.4503
  686TIP3   OH2 2021   7.063   4.273   4.815 -0.2083  0.0351 -0.6107
  686TIP3    H1 2022   7.107   4.319   4.743  0.6393  1.4855  0.7391
  686TIP3    H2 2023   7.124   4.203   4.839  0.2438  0.5003 -0.3546
  687TIP3   OH2 2024   4.307   2.284   1.685 -0.3591  0.3164 -0.3194
  687TIP3    H1 2025   4.307   2.260   1.593 -1.0649  1.3081 -0.5920
  687TIP3    H2 2026   4.394   2.323   1.699 -0.6838  1.2855 -0.8873
  688TIP3   OH2 2027   0.729   1.602   2.435 -0.4791 -0.2517  0.5237
  688TIP3    H1 2028   0.741   1.519   2.481 -2.5694  0.1107  1.8599
  688TIP3    H2 2029   0.648   1.638   2.472 -0.6566  1.4778 -1.3812
  689TIP3   OH2 2030   4.352   6.427   4.484 -0.3524  0.1723 -1.0295
  689TIP3    H1 2031   4.375   6.409   4.575 -1.5773 -0.9157 -0.9045
  689TIP3    H2 2032   4.435   6.447   4.442  0.1241  1.9107  0.5634
  690TIP3   OH2 2033   4.491   6.393   5.206 -0.2253  0.2470 -0.4727
  690TIP3    H1 2034   4.462   6.434   5.288 -0.6156 -0.3988 -0.2742
  690TIP3    H2 2035   4.424   6.417   5.142 -1.2296 -1.1912 -0.0283
  691TIP3   OH2 2036   1.413   6.727   3.761 -0.6223 -0.5227  0.5598
  691TIP3    H1 2037   1.436   6.634   3.764  3.0693  0.2201  0.6748
  691TIP3    H2 2038   1.490   6.771   3.798 -0.4525  2.7908 -3.1498
  692TIP3   OH2 2039   3.153   1.815   3.883 -0.7040 -0.4665 -0.4783
  692TIP3    H1 2040   3.194   1.900   3.867 -0.1680 -0.6901 -0.3272
  692TIP3    H2 2041   3.085   1.807   3.816  0.5500 -0.7761 -1.7643
  693TIP3   OH2 2042   3.536   4.698   5.715  0.0974 -0.2078 -0.1532
  693TIP3    H1 2043   3.592   4.636   5.762  0.9361 -0.2556 -1.1942
  693TIP3    H2 2044   3.527   4.772   5.776 -1.6041 -1.6271  1.4600
  694TIP3   OH2 2045   3.304   2.485   1.420  0.3650  0.2897  0.5930
  694TIP3    H1 2046   3.277   2.567   1.378  0.5803  0.5143  0.8839
  694TIP3    H2 2047   3.326   2.510   1.509 -2.1561 -0.5405  1.5211
  695TIP3   OH2 2048   2.594   1.131   1.250 -0.2699 -0.0559 -0.6553
  695TIP3    H1 2049   2.524   1.100   1.307  0.2642  0.5690  0.3814
  695TIP3    H2 2050   2.579   1.088   1.167 -1.7108 -0.1583 -0.3622
  696TIP3   OH2 2051   0.653   0.303   3.897  0.4606  0.2955 -0.0255
  696TIP3    H1 2052   0.711   0.377   3.878  0.3366 -0.0795 -2.1215
  696TIP3    H2 2053   0.702   0.250   3.960  1.9540  0.5332 -0.9400
  697TIP3   OH2 2054   2.339   3.682   4.225 -0.3151 -0.4843 -0.3547
  697TIP3    H1 2055   2.304   3.740   4.157 -2.5841 -0.1630  0.9752
  697TIP3    H2 2056   2.379   3.609   4.177 -0.0660  0.6910 -2.0183
  698TIP3   OH2 2057   5.709   3.576   0.159  0.1249  0.3289  0.0299
  698TIP3    H1 2058   5.627   3.578   0.208 -0.0612  1.2149 -0.2975
  698TIP3    H2 2059   5.769   3.524   0.214 -0.1198  1.1758  1.1306
  699TIP3   OH2 2060   6.230   4.686   2.427  0.4036 -0.0023  0.6486
  699TIP3    H1 2061   6.291   4.632   2.376  0.6255  0.7893  0.0597
  699TIP3    H2 2062   6.178   4.732   2.361 -1.1382 -0.9825  1.1431
  700TIP3   OH2 2063   5.588   1.695   0.341  0.1456  0.1400 -0.4051
  700TIP3    H1 2064   5.651   1.723   0.274 -0.8304 -0.0093 -1.4073
  700TIP3    H2 2065   5.639   1.693   0.422  1.3400  0.3793 -1.1265
  701TIP3   OH2 2066   3.947   5.803   0.323  0.0309  0.0940  0.4261
  701TIP3    H1 2067   3.859   5.771   0.342  0.5450 -0.8340  1.3442
  701TIP3    H2 2068   4.005   5.736   0.358  1.1166  1.0408  0.5102
  702TIP3   OH2 2069   5.715   2.540   1.531  0.0506 -0.1157  0.0388
  702TIP3    H1 2070   5.667   2.535   1.614 -0.8098 -0.9968 -0.4892
  702TIP3    H2 2071   5.667   2.482   1.472  0.9968  0.0313 -0.9082
  703TIP3   OH2 2072   6.996   2.653   2.565  0.7108  0.5845 -0.3800
  703TIP3    H1 2073   7.037   2.575   2.604  0.5498  1.0835  0.8281
  703TIP3    H2 2074   6.935   2.618   2.501 -0.4797 -0.3845  1.2199
  704TIP3   OH2 2075   0.739   4.267   4.803 -0.4522 -0.4915 -1.0649
  704TIP3    H1 2076   0.745   4.205   4.875 -1.6688  1.4380  0.8048
  704TIP3    H2 2077   0.661   4.239   4.754  0.0373 -1.4472 -1.3402
  705TIP3   OH2 2078   5.041   3.078   0.044  0.0406 -0.0734  0.0795
  705TIP3    H1 2079   5.125   3.123   0.044  1.1071 -1.6737 -3.1261
  705TIP3    H2 2080   5.001   3.098   0.128  3.9348  0.2092  2.0456
  706TIP3   OH2 2081   4.868   0.811   0.067 -0.4158  0.2484 -0.3205
  706TIP3    H1 2082   4.886   0.878   0.133 -0.9672 -0.0378  0.1373
  706TIP3    H2 2083   4.951   0.799   0.021 -0.2136  0.9649 -0.1532
  707TIP3   OH2 2084   4.813   5.712   4.649 -0.2365  0.3671  0.0992
  707TIP3    H1 2085   4.780   5.742   4.734 -0.6937  1.2791 -0.3842
  707TIP3    H2 2086   4.906   5.696   4.664 -0.7837 -2.0868  1.4413
  708TIP3   OH2 2087   2.545   0.713   1.460 -0.0056  0.0468  0.3763
  708TIP3    H1 2088   2.473   0.755   1.507  0.3520 -0.3312  1.2723
  708TIP3    H2 2089   2.611   0.782   1.452 -0.4549  0.4029 -0.4718
  709TIP3   OH2 2090   1.325   4.180   1.541  0.0601 -0.3647  0.5060
  709TIP3    H1 2091   1.361   4.248   1.598 -0.3283  0.9240 -0.7352
  709TIP3    H2 2092   1.358   4.202   1.454  0.8971 -2.4750  0.2376
  710TIP3   OH2 2093   0.937   3.586   1.372 -0.3618 -0.4735  0.0268
  710TIP3    H1 2094   0.858   3.575   1.425 -1.1309  0.7679 -0.8163
  710TIP3    H2 2095   0.989   3.651   1.420 -0.0197 -1.0039  0.3834
  711TIP3   OH2 2096   5.316   2.689   3.736 -0.6302 -0.1105  0.2309
  711TIP3    H1 2097   5.402   2.730   3.747 -0.4243 -0.2299 -0.8346
  711TIP3    H2 2098   5.255   2.753   3.773 -0.1127  0.0873  0.7722
  712TIP3   OH2 2099   2.883   5.038   0.372  0.3679 -0.1260 -0.3146
  712TIP3    H1 2100   2.948   5.021   0.440 -1.1939  1.4167  1.6804
  712TIP3    H2 2101   2.866   4.952   0.334  0.4250 -1.2666  2.0837
  713TIP3   OH2 2102   3.416   3.429   3.359  0.4632  0.1387 -0.4283
  713TIP3    H1 2103   3.436   3.423   3.266  1.7222  0.8894 -0.2186
  713TIP3    H2 2104   3.486   3.483   3.396  0.2675 -0.5613  1.0382
  714TIP3   OH2 2105   2.747   1.957   2.227 -0.2047  0.3348 -0.0651
  714TIP3    H1 2106   2.662   1.975   2.267 -2.1199  1.1991 -4.0431
  714TIP3    H2 2107   2.798   2.037   2.242 -1.3059  1.1237 -0.4110
  715TIP3   OH2 2108   4.650   1.945   1.944  0.3585  0.3439 -0.0353
  715TIP3    H1 2109   4.564   1.968   1.908 -0.8677 -0.0483  2.4050
  715TIP3    H2 2110   4.689   1.887   1.879 -1.7759 -0.4539 -0.6963
  716TIP3   OH2 2111   1.098   4.340   4.361 -1.0947  0.5354  0.5444
  716TIP3    H1 2112   1.079   4.250   4.388  0.2438  0.4729  1.4076
  716TIP3    H2 2113   1.042   4.394   4.417 -0.7877  0.2701  1.1269
  717TIP3   OH2 2114   6.897   4.012   3.382  0.5696  0.3042 -0.1148
  717TIP3    H1 2115   6.880   4.105   3.366  0.7641  0.4010  0.2381
  717TIP3    H2 2116   6.858   3.967   3.307  0.4086  0.6653 -0.2470
  718TIP3   OH2 2117   1.290   5.304   0.251 -0.4459 -0.1111  0.0354
  718TIP3    H1 2118   1.380   5.338   0.249 -0.1587 -0.8870 -1.7684
  718TIP3    H2 2119   1.240   5.365   0.197 -1.3019  0.9747  1.9580
  719TIP3   OH2 2120   2.163   0.536   4.529 -0.4038 -0.6466 -0.0332
  719TIP3    H1 2121   2.096   0.495   4.474  0.1163 -0.3715 -0.8954
  719TIP3    H2 2122   2.239   0.478   4.519  0.7124  1.0452 -2.1710
  720TIP3   OH2 2123   4.271   5.360   4.434 -0.5626 -0.0973 -0.7223
  720TIP3    H1 2124   4.274   5.421   4.508 -3.5397  0.6206 -1.0551
  720TIP3    H2 2125   4.323   5.285   4.462 -2.0370 -0.1030  2.3867
  721TIP3   OH2 2126   6.446   2.682   4.345  0.0100  0.3958 -0.1682
  721TIP3    H1 2127   6.528   2.636   4.330 -0.5182 -0.5687 -0.1412
  721TIP3    H2 2128   6.408   2.693   4.258  0.7622  2.0130 -0.3318
  722TIP3   OH2 2129   0.078   1.259   1.801  0.0683  0.0367 -0.1168
  722TIP3    H1 2130   0.062   1.238   1.709  0.6925 -0.4859 -0.1127
  722TIP3    H2 2131   0.173   1.248   1.813 -0.1905 -1.3287  0.9336
  723TIP3   OH2 2132   4.082   4.746   5.647 -0.1028 -0.2933  0.0649
  723TIP3    H1 2133   4.151   4.803   5.614  0.2193 -1.9834 -2.3858
  723TIP3    H2 2134   4.126   4.664   5.668 -0.8899 -0.3600  1.6484
  724TIP3   OH2 2135   4.924   5.202   0.806  0.3188  0.1375  0.0302
  724TIP3    H1 2136   4.850   5.224   0.750 -0.6956  2.1849  2.0165
  724TIP3    H2 2137   4.996   5.185   0.745 -1.0085  1.1007 -1.9140
  725TIP3   OH2 2138   2.546   2.541   1.088 -0.2516  0.3559 -0.5803
  725TIP3    H1 2139   2.474   2.527   1.149  0.4417 -0.7596  0.0275
  725TIP3    H2 2140   2.541   2.633   1.065  0.5805  1.3137  2.6526
  726TIP3   OH2 2141   2.035   2.754   5.263  0.9733 -0.1767 -0.0057
  726TIP3    H1 2142   2.100   2.722   5.326 -0.8011  0.1709  2.1281
  726TIP3    H2 2143   2.035   2.849   5.275 -0.0853 -0.1939  0.2116
  727TIP3   OH2 2144   6.384   6.159   4.277  0.1360  0.3562 -0.1852
  727TIP3    H1 2145   6.393   6.211   4.197  0.5162  0.4070 -0.1118
  727TIP3    H2 2146   6.464   6.107   4.281 -0.0389  0.0992 -0.0181
  728TIP3   OH2 2147   0.894   1.645   4.108  0.2733  0.1919 -0.0675
  728TIP3    H1 2148   0.893   1.651   4.203  1.3216  1.4622 -0.1089
  728TIP3    H2 2149   0.970   1.590   4.088  0.8719  1.0401 -0.1884
  729TIP3   OH2 2150   1.740   3.830   4.658  0.0006 -0.8395  0.2825
  729TIP3    H1 2151   1.761   3.744   4.622  0.1201 -1.3053  1.4341
  729TIP3    H2 2152   1.810   3.848   4.721  0.4085  0.4584 -0.4962
  730TIP3   OH2 2153   3.942   2.951   0.524 -0.5176 -0.2849  0.8259
  730TIP3    H1 2154   3.919   2.999   0.445 -0.6378 -1.8233 -0.1274
  730TIP3    H2 2155   3.919   2.860   0.504 -0.7690 -0.6877  2.7211
  731TIP3   OH2 2156   6.942   1.165   0.709  0.3794 -0.5036  0.5569
  731TIP3    H1 2157   7.008   1.131   0.770 -0.0853 -0.4282  1.1146
  731TIP3    H2 2158   6.876   1.205   0.766 -1.1300 -2.2816  0.1428
  732TIP3   OH2 2159   7.183   1.087   0.307  0.2908 -0.2042 -0.2829
  732TIP3    H1 2160   7.257   1.134   0.270  0.1027  0.9731  0.7861
  732TIP3    H2 2161   7.134   1.153   0.356  0.8152 -1.7722  2.5239
  733TIP3   OH2 2162   2.631   4.445   3.165 -0.3997  0.0429 -0.0463
  733TIP3    H1 2163   2.616   4.409   3.077 -1.9472 -0.6738  0.4860
  733TIP3    H2 2164   2.650   4.537   3.149  0.4051 -0.2892 -1.2028
  734TIP3   OH2 2165   4.967   4.107   1.022  0.0996 -0.3480  0.3393
  734TIP3    H1 2166   4.951   4.045   1.093 -0.4592 -0.3968  0.1782
  734TIP3    H2 2167   5.051   4.081   0.986 -0.2014 -1.1149  0.1760
  735TIP3   OH2 2168   7.065   4.960   5.679  0.0281 -0.1207  0.4618
  735TIP3    H1 2169   6.983   5.000   5.650  0.8463  0.7807 -0.6946
  735TIP3    H2 2170   7.120   5.034   5.704  1.3950 -0.4757 -1.2555
  736TIP3   OH2 2171   2.994   1.502   0.248 -0.5103 -0.5013 -0.2364
  736TIP3    H1 2172   2.942   1.445   0.192 -1.9478  0.7936 -0.2983
  736TIP3    H2 2173   2.943   1.583   0.253  2.4829  1.7546 -2.1518
  737TIP3   OH2 2174   0.375   4.479   3.484 -0.5418 -0.4050  0.1632
  737TIP3    H1 2175   0.288   4.516   3.493 -0.4535 -0.3106  0.6560
  737TIP3    H2 2176   0.375   4.437   3.398 -0.3997  1.3959 -0.7578
  738TIP3   OH2 2177   0.213   2.857   1.935  0.2195 -0.0359  0.4279
  738TIP3    H1 2178   0.239   2.942   1.898  1.2781  0.4473  2.1468
  738TIP3    H2 2179   0.294   2.807   1.941 -0.6345 -1.9865 -2.2909
  739TIP3   OH2 2180   0.838   6.710   4.468  0.4613  0.2862  0.0353
  739TIP3    H1 2181   0.770   6.699   4.534  1.1148 -0.8993  0.5568
  739TIP3    H2 2182   0.882   6.625   4.465  3.1414  1.4905  1.1157
  740TIP3   OH2 2183   0.050   0.606   2.286 -0.6406 -0.1625 -0.3670
  740TIP3    H1 2184   0.127   0.549   2.285 -1.0353 -0.7115  0.2803
  740TIP3    H2 2185  -0.024   0.546   2.282 -1.0556  0.3237 -0.0074
  741TIP3   OH2 2186   6.431   5.231   1.002 -0.0480  0.4695  0.1630
  741TIP3    H1 2187   6.476   5.263   0.924 -0.4196  1.8259  0.4761
  741TIP3    H2 2188   6.408   5.310   1.051 -3.6989 -0.0022 -0.4765
  742TIP3   OH2 2189   5.261   0.047   3.059  0.0761  0.3243 -0.4158
  742TIP3    H1 2190   5.181   0.088   3.091 -0.9154 -1.9240  0.1503
  742TIP3    H2 2191   5.312   0.031   3.139 -0.7093 -1.8396 -0.3081
  743TIP3   OH2 2192   1.925   4.526   5.166  0.6646  0.1198 -0.8555
  743TIP3    H1 2193   1.908   4.593   5.231 -1.2251 -0.6786 -0.4338
  743TIP3    H2 2194   2.003   4.480   5.197 -0.5863 -0.6914  1.2703
  744TIP3   OH2 2195   2.225   0.979   0.979 -0.1629  0.1941  0.2507
  744TIP3    H1 2196   2.149   1.022   1.018 -1.4955  0.0587 -2.0125
  744TIP3    H2 2197   2.229   1.015   0.890  2.6842  0.4805  0.4148
  745TIP3   OH2 2198   0.991   1.822   2.223 -0.4531  0.0263 -0.0178
  745TIP3    H1 2199   1.001   1.757   2.293 -1.4372  0.1552  0.2561
  745TIP3    H2 2200   1.055   1.795   2.157  0.9718  0.2809  1.1969
  746TIP3   OH2 2201   4.816   1.051   3.957 -0.2280 -0.3132  0.1752
  746TIP3    H1 2202   4.792   1.033   3.867 -1.4010 -0.8293  0.5700
  746TIP3    H2 2203   4.787   0.974   4.006  0.5496 -0.1235  0.9724
  747TIP3   OH2 2204   5.771   2.580   3.401 -0.0900 -0.3764  0.1899
  747TIP3    H1 2205   5.798   2.491   3.379 -0.5061 -0.8937  1.6658
  747TIP3    H2 2206   5.681   2.571   3.433  0.3780  0.3267  1.8146
  748TIP3   OH2 2207   1.756   3.588   5.271  0.4698  0.4140 -0.5529
  748TIP3    H1 2208   1.679   3.533   5.261  0.5566  0.3987 -1.1279
  748TIP3    H2 2209   1.772   3.624   5.184  1.3882  0.0483 -0.5492
  749TIP3   OH2 2210   4.880   5.945   1.350 -0.1827  0.0808 -0.4145
  749TIP3    H1 2211   4.857   5.909   1.265  2.4866 -0.4289 -0.9896
  749TIP3    H2 2212   4.974   5.965   1.345 -0.0573  0.6294  2.1920
  750TIP3   OH2 2213   0.109   0.499   5.604  0.4292  0.5209  0.3131
  750TIP3    H1 2214   0.117   0.488   5.510 -1.0130 -1.7800  0.4078
  750TIP3    H2 2215   0.057   0.579   5.615  0.3938  0.6614 -0.8186
  751TIP3   OH2 2216   1.124   3.967   4.004  0.1820 -0.5355  0.0843
  751TIP3    H1 2217   1.160   3.966   3.915 -0.3391  0.1881 -0.1477
  751TIP3    H2 2218   1.030   3.956   3.992 -0.0637  0.9349  0.4259
  752TIP3   OH2 2219   5.388   3.656   1.979 -0.5286  0.2352 -0.0835
  752TIP3    H1 2220   5.442   3.711   1.922  0.8009  1.0950  1.8857
  752TIP3    H2 2221   5.325   3.716   2.018 -1.4203 -0.3434 -0.5907
  753TIP3   OH2 2222   5.931   5.613   4.034 -0.6650 -0.0938  0.3967
  753TIP3    H1 2223   5.971   5.526   4.025 -2.2266 -1.0830  2.3359
  753TIP3    H2 2224   5.878   5.623   3.955 -0.1458 -0.7149 -0.0449
  754TIP3   OH2 2225   3.001   6.408   0.464  0.4771 -0.0843 -0.1477
  754TIP3    H1 2226   3.020   6.366   0.548  1.8648  0.7518 -0.0104
  754TIP3    H2 2227   3.032   6.497   0.474 -2.2056  1.0025 -0.4977
  755TIP3   OH2 2228   3.246   3.400   2.805  0.1210 -0.2294 -0.3169
  755TIP3    H1 2229   3.212   3.313   2.829  0.8776 -1.0144 -1.9364
  755TIP3    H2 2230   3.226   3.455   2.881 -1.2548 -1.5763  0.3542
  756TIP3   OH2 2231   2.625   3.715   1.378 -0.4932 -0.1015  0.4402
  756TIP3    H1 2232   2.684   3.778   1.335 -1.4192 -0.5342 -1.6234
  756TIP3    H2 2233   2.549   3.768   1.403 -1.6209 -0.3927 -2.0003
  757TIP3   OH2 2234   4.494   0.388   1.942  0.5667  0.2466  0.2443
  757TIP3    H1 2235   4.480   0.481   1.926  0.4191  0.0677 -0.7547
  757TIP3    H2 2236   4.417   0.360   1.991 -0.3059  0.2830 -1.0513
  758TIP3   OH2 2237   3.384   6.314   2.823 -0.2100  0.4167 -0.0236
  758TIP3    H1 2238   3.315   6.376   2.847 -0.9890 -0.7076  0.7469
  758TIP3    H2 2239   3.350   6.272   2.743 -0.5534 -0.3200  0.5022
  759TIP3   OH2 2240   2.702   2.374   1.958  0.3933 -0.2801 -0.3893
  759TIP3    H1 2241   2.713   2.330   2.043  0.6046  0.1947 -0.1663
  759TIP3    H2 2242   2.609   2.366   1.939  0.3298 -0.3206 -0.0754
  760TIP3   OH2 2243   6.355   6.528   1.926  0.1451  0.1561 -0.3941
  760TIP3    H1 2244   6.415   6.456   1.906  0.1869 -0.0447  0.4054
  760TIP3    H2 2245   6.269   6.497   1.899 -0.0177 -0.6590  0.9798
  761TIP3   OH2 2246   2.459   6.535   1.679  0.4217  0.1905  0.5146
  761TIP3    H1 2247   2.431   6.621   1.647  0.7605 -0.6239 -2.1722
  761TIP3    H2 2248   2.555   6.539   1.675  0.4275 -0.4234  0.0856
  762TIP3   OH2 2249   5.136   2.571   3.349  0.1659  0.6249 -0.3981
  762TIP3    H1 2250   5.068   2.588   3.283  0.5975  1.6521 -0.5972
  762TIP3    H2 2251   5.087   2.549   3.428 -0.4101  1.2324 -0.5702
  763TIP3   OH2 2252   5.197   1.068   5.651  0.3189 -0.0686  0.1653
  763TIP3    H1 2253   5.244   1.058   5.568 -1.3928 -3.0271 -0.5750
  763TIP3    H2 2254   5.250   1.018   5.714 -0.9865 -2.2537 -0.3755
  764TIP3   OH2 2255   1.165   1.016   3.759  0.0720  0.2884 -0.7210
  764TIP3    H1 2256   1.123   1.059   3.685  1.0267  2.3629 -0.1356
  764TIP3    H2 2257   1.259   1.026   3.741  0.3391 -1.5163 -0.4924
  765TIP3   OH2 2258   5.924   1.674   2.087  0.1022  0.0312  0.1195
  765TIP3    H1 2259   5.955   1.716   2.167 -1.7474  1.7815 -0.0032
  765TIP3    H2 2260   5.981   1.708   2.018 -0.0882  0.7949  0.3240
  766TIP3   OH2 2261   6.539   0.651   4.988 -0.6100  0.5633 -0.0886
  766TIP3    H1 2262   6.447   0.633   4.969 -1.6889  2.0147  3.0439
  766TIP3    H2 2263   6.537   0.723   5.051  2.6770  0.4050  0.3854
  767TIP3   OH2 2264   1.329   1.319   0.467  0.5162  0.6526 -0.0882
  767TIP3    H1 2265   1.291   1.255   0.407 -0.2045 -0.8181  1.8237
  767TIP3    H2 2266   1.403   1.356   0.419 -0.4909  0.1425 -2.1436
  768TIP3   OH2 2267   5.134   1.185   1.826  0.4942  0.2872  0.2659
  768TIP3    H1 2268   5.115   1.259   1.884 -0.8501 -0.3060  0.6182
  768TIP3    H2 2269   5.146   1.110   1.885 -0.1027 -0.1621 -0.1691
  769TIP3   OH2 2270   4.008   6.039   2.448  0.4976  0.4621  0.8286
  769TIP3    H1 2271   4.046   6.111   2.497 -1.1508  0.5168  2.0968
  769TIP3    H2 2272   4.030   6.058   2.357  0.5159  2.2929  1.1857
  770TIP3   OH2 2273   3.699   4.127   0.759  0.0410  0.0711  0.1731
  770TIP3    H1 2274   3.633   4.196   0.756 -0.7252 -0.5978  1.0198
  770TIP3    H2 2275   3.650   4.046   0.775  0.9354 -0.6462 -0.5671
  771TIP3   OH2 2276   4.366   5.772   3.625  0.2172 -0.3496 -0.3754
  771TIP3    H1 2277   4.309   5.781   3.702  0.1568 -1.0878 -0.3195
  771TIP3    H2 2278   4.437   5.834   3.640 -0.9753  1.1852 -0.8413
  772TIP3   OH2 2279   4.898   3.835   5.143 -0.0156  0.4910 -0.1214
  772TIP3    H1 2280   4.814   3.805   5.110 -0.6610  2.2247 -0.1479
  772TIP3    H2 2281   4.913   3.783   5.222 -1.1020  0.1489 -0.1296
  773TIP3   OH2 2282   4.669   0.262   1.780  0.4594 -0.0794  0.5436
  773TIP3    H1 2283   4.580   0.287   1.806  0.2343 -0.7030  0.3828
  773TIP3    H2 2284   4.725   0.328   1.821 -0.0290 -0.0357  1.1523
  774TIP3   OH2 2285   6.062   0.824   2.702 -0.5535 -0.2300  0.0489
  774TIP3    H1 2286   6.080   0.833   2.796  1.2092 -0.2074 -0.2556
  774TIP3    H2 2287   6.022   0.907   2.677 -0.9099 -0.1817  0.7404
  775TIP3   OH2 2288   3.362   3.885   1.332  0.0636  0.0156  0.0671
  775TIP3    H1 2289   3.360   3.839   1.249 -1.6998 -0.7248  0.4693
  775TIP3    H2 2290   3.325   3.972   1.313  0.6679  0.2353 -0.1201
  776TIP3   OH2 2291   6.774   6.021   3.412  0.5777  0.1513  0.4404
  776TIP3    H1 2292   6.840   6.073   3.365 -0.3006  0.8464 -0.0642
  776TIP3    H2 2293   6.756   6.072   3.491 -0.0608  0.4786  0.0952
  777TIP3   OH2 2294   5.154   1.769   3.603  0.0306  0.1159 -0.7273
  777TIP3    H1 2295   5.241   1.760   3.642 -0.5336  0.1944  0.6004
  777TIP3    H2 2296   5.140   1.686   3.557  0.9695  0.2758 -1.3447
  778TIP3   OH2 2297   5.409   4.376   3.874 -0.0839 -0.4157  0.2300
  778TIP3    H1 2298   5.451   4.436   3.934 -1.0863  2.2968 -1.5974
  778TIP3    H2 2299   5.330   4.347   3.920  0.5606 -0.6194  1.2418
  779TIP3   OH2 2300   1.602   2.011   4.285  0.2839  0.3285 -0.0034
  779TIP3    H1 2301   1.605   2.107   4.288  0.2268  0.3214  0.3722
  779TIP3    H2 2302   1.691   1.985   4.261  1.0105  0.4017  2.3362
  780TIP3   OH2 2303   0.190   1.689   3.456  0.2655  0.0649  0.6728
  780TIP3    H1 2304   0.105   1.652   3.478  0.8011 -1.3363  0.5137
  780TIP3    H2 2305   0.181   1.783   3.473 -0.8579 -0.2531  2.0368
  781TIP3   OH2 2306   3.068   3.648   1.838 -0.1566 -0.4592  0.2278
  781TIP3    H1 2307   3.136   3.646   1.771 -1.9506 -0.1722 -1.6853
  781TIP3    H2 2308   3.062   3.557   1.868 -0.4716 -0.9525 -1.2332
  782TIP3   OH2 2309   4.643   6.596   1.598 -0.2178 -0.0537  0.7289
  782TIP3    H1 2310   4.548   6.595   1.601 -0.2366 -0.7594  0.0932
  782TIP3    H2 2311   4.666   6.551   1.517  0.6744 -0.9606  1.4459
  783TIP3   OH2 2312   5.554   0.962   2.368 -0.2252 -0.8513 -0.3941
  783TIP3    H1 2313   5.489   0.932   2.304  0.7659 -2.2088 -0.7848
  783TIP3    H2 2314   5.581   1.048   2.336 -0.4375 -1.1074 -1.2777
  784TIP3   OH2 2315   4.760   2.561   2.922  0.0883  0.2445  0.0725
  784TIP3    H1 2316   4.803   2.521   2.846 -0.3827  0.7199 -0.4515
  784TIP3    H2 2317   4.670   2.576   2.894 -0.1814  0.1235  0.8445
  785TIP3   OH2 2318   4.350   4.495   2.587  0.3161  0.0597 -0.0226
  785TIP3    H1 2319   4.256   4.510   2.600  0.3066 -0.6286  0.7657
  785TIP3    H2 2320   4.392   4.574   2.622  0.0553  0.1789  0.0282
  786TIP3   OH2 2321   6.193   0.650   4.760 -0.4056  0.2015 -0.4364
  786TIP3    H1 2322   6.236   0.575   4.718  1.6091  1.1863 -0.2294
  786TIP3    H2 2323   6.168   0.618   4.846  0.3081 -0.2961 -0.4021
  787TIP3   OH2 2324   4.195   3.744   0.116  0.2825  0.1355  0.0045
  787TIP3    H1 2325   4.235   3.772   0.033  0.5878  1.4088  0.5608
  787TIP3    H2 2326   4.139   3.818   0.141 -0.9276 -0.8316  0.2120
  788TIP3   OH2 2327   1.663   3.919   1.822 -0.4705 -0.8413  0.4673
  788TIP3    H1 2328   1.710   3.911   1.904 -0.1655 -0.7479  0.3027
  788TIP3    H2 2329   1.606   3.841   1.819 -0.3570 -0.9312  0.6856
  789TIP3   OH2 2330   3.720   6.782   2.709  0.0660  0.0619 -0.2052
  789TIP3    H1 2331   3.762   6.749   2.789 -0.2710 -0.1331 -0.1087
  789TIP3    H2 2332   3.659   6.713   2.684  0.2833  0.0490 -0.7243
  790TIP3   OH2 2333   4.708   6.514   2.202 -0.0026  0.5872 -0.1884
  790TIP3    H1 2334   4.762   6.585   2.237  1.3341 -0.1215 -0.7645
  790TIP3    H2 2335   4.679   6.466   2.280 -2.1414  2.5353  0.3420
  791TIP3   OH2 2336   5.688   0.753   4.070  0.6592  1.2107  0.0092
  791TIP3    H1 2337   5.748   0.723   4.002 -0.7926 -0.3585 -0.6425
  791TIP3    H2 2338   5.646   0.830   4.033 -0.0113  0.4536 -0.8577
  792TIP3   OH2 2339   3.827   1.290   1.583 -0.2802  0.0453  0.7873
  792TIP3    H1 2340   3.764   1.224   1.611  1.2582 -1.6583  0.4596
  792TIP3    H2 2341   3.839   1.275   1.490  1.3248 -0.3490  1.0273
  793TIP3   OH2 2342   4.598   0.022   2.010 -0.5925 -0.1952 -0.7042
  793TIP3    H1 2343   4.550   0.006   1.928 -0.7158 -0.0381 -0.6630
  793TIP3    H2 2344   4.530   0.021   2.078 -0.9616  2.6237 -0.9199
  794TIP3   OH2 2345   5.488   2.233   3.886 -0.1342  0.2026 -0.0579
  794TIP3    H1 2346   5.504   2.327   3.896  0.9315 -0.0473  0.8791
  794TIP3    H2 2347   5.424   2.213   3.954  0.4583  0.0691  0.4693
  795TIP3   OH2 2348   6.159   6.125   2.748 -0.2653  0.3407  0.2074
  795TIP3    H1 2349   6.195   6.071   2.678 -0.4019  0.6763 -0.1257
  795TIP3    H2 2350   6.236   6.161   2.793 -0.0314 -2.8259  2.6324
  796TIP3   OH2 2351   0.064   1.816   4.949  0.0233 -0.2963 -0.6280
  796TIP3    H1 2352   0.009   1.804   4.871  0.4465  0.5379 -1.0594
  796TIP3    H2 2353   0.024   1.889   4.996 -0.4924 -1.0769  0.1867
  797TIP3   OH2 2354   5.827   2.284   1.774 -0.2227 -0.6117 -0.2823
  797TIP3    H1 2355   5.895   2.237   1.823 -0.1190 -0.2763 -0.0992
  797TIP3    H2 2356   5.874   2.326   1.702 -0.6040 -2.4056 -1.6380
  798TIP3   OH2 2357   1.633   4.291   4.685  0.7114  0.3311 -0.7858
  798TIP3    H1 2358   1.584   4.316   4.607 -1.0529  0.2324  0.2339
  798TIP3    H2 2359   1.648   4.374   4.731  0.1672  0.2021 -0.3668
  799TIP3   OH2 2360   2.431   2.908   1.476  0.4624 -0.0481  0.2294
  799TIP3    H1 2361   2.526   2.899   1.485  0.3637 -2.2868 -0.4139
  799TIP3    H2 2362   2.407   2.973   1.541  2.2332 -0.7636  1.6885
  800TIP3   OH2 2363   0.534   6.029   3.018 -0.0633 -0.1755  0.1795
  800TIP3    H1 2364   0.599   6.005   2.952 -1.9239 -0.5748 -1.5880
  800TIP3    H2 2365   0.476   6.091   2.974 -2.6482 -2.1053  0.6765
  801TIP3   OH2 2366   2.846   3.362   1.882  0.6430  0.1792 -0.0485
  801TIP3    H1 2367   2.935   3.334   1.903  0.0591 -0.4663  1.8084
  801TIP3    H2 2368   2.799   3.281   1.861  0.0261  0.2579  0.9617
  802TIP3   OH2 2369   5.265   3.531   5.313  0.1735  0.0122  0.3804
  802TIP3    H1 2370   5.322   3.585   5.367 -0.9474  0.1184  1.4843
  802TIP3    H2 2371   5.178   3.570   5.322 -0.4283 -1.2290  0.1951
  803TIP3   OH2 2372   5.085   1.032   4.765  0.3898  0.5716 -0.0130
  803TIP3    H1 2373   5.166   1.030   4.714  0.3686 -0.0414 -0.0201
  803TIP3    H2 2374   5.019   1.065   4.704  0.6766  1.2935  0.0578
  804TIP3   OH2 2375   6.109   3.967   0.697  0.6648  0.0297  0.7970
  804TIP3    H1 2376   6.182   3.912   0.725  1.2034  0.1150 -0.3718
  804TIP3    H2 2377   6.031   3.917   0.721  1.1368 -0.8585  0.5461
  805TIP3   OH2 2378   4.669   1.942   4.007  0.2475  0.0907  0.0523
  805TIP3    H1 2379   4.579   1.912   3.996  0.2044 -0.4169  1.5117
  805TIP3    H2 2380   4.709   1.877   4.065  1.3734  0.6449 -0.0731
  806TIP3   OH2 2381   5.112   5.494   5.109  0.1140 -0.1929 -0.3300
  806TIP3    H1 2382   5.187   5.529   5.061  0.3282 -1.3175 -0.8488
  806TIP3    H2 2383   5.149   5.458   5.189  0.3249 -1.7881 -1.1095
  807TIP3   OH2 2384   3.322   0.049   5.045  1.0044 -0.1039  0.7302
  807TIP3    H1 2385   3.258   0.113   5.015  0.7779 -1.3986 -1.7535
  807TIP3    H2 2386   3.399   0.102   5.068  0.1171  1.2162  0.7759
  808TIP3   OH2 2387   2.619   3.152   1.739 -0.9104  0.6096  0.1014
  808TIP3    H1 2388   2.629   3.235   1.691 -1.5351  0.8149  0.3174
  808TIP3    H2 2389   2.661   3.087   1.683  0.0982  1.1577  0.1984
  809TIP3   OH2 2390   3.710   4.845   5.417 -0.0877 -0.1023  0.0704
  809TIP3    H1 2391   3.654   4.776   5.381  0.2878 -0.5468  0.3351
  809TIP3    H2 2392   3.751   4.806   5.494  1.3643 -0.1208 -0.6769
  810TIP3   OH2 2393   0.212   2.562   0.609  0.3410 -0.2494  0.0756
  810TIP3    H1 2394   0.241   2.525   0.692 -0.3498 -1.0868 -0.0372
  810TIP3    H2 2395   0.262   2.514   0.543 -0.4197 -0.8752 -0.0628
  811TIP3   OH2 2396   1.068   6.058   3.482 -0.4849  0.2177 -0.1972
  811TIP3    H1 2397   1.090   6.059   3.389 -0.2081  0.9251 -0.1268
  811TIP3    H2 2398   0.974   6.079   3.484 -0.3833  0.6845 -0.2881
  812TIP3   OH2 2399   2.109   1.571   5.696 -0.5133 -0.2154  0.1270
  812TIP3    H1 2400   2.128   1.658   5.663  0.8127 -0.4810  0.1512
  812TIP3    H2 2401   2.179   1.516   5.661 -2.4839 -1.7341 -1.7099
  813TIP3   OH2 2402   1.479   1.733   1.597  0.3830  0.2402 -0.1903
  813TIP3    H1 2403   1.561   1.705   1.556  0.0867  0.0439 -0.6612
  813TIP3    H2 2404   1.496   1.823   1.624  0.8490  0.1038 -0.0175
  814TIP3   OH2 2405   2.696   6.074   2.003  0.2769 -0.5319 -0.3358
  814TIP3    H1 2406   2.771   6.129   2.025 -0.0944 -0.5798  1.1090
  814TIP3    H2 2407   2.689   6.011   2.075 -1.3812 -0.2784 -0.2288
  815TIP3   OH2 2408   0.332   0.467   0.872 -0.8455  0.3567  0.0235
  815TIP3    H1 2409   0.264   0.447   0.808 -1.9787  0.3419  1.1766
  815TIP3    H2 2410   0.317   0.405   0.943  1.2439 -0.5583 -0.2470
  816TIP3   OH2 2411   2.490   6.071   1.841 -0.6216  0.0770 -0.4503
  816TIP3    H1 2412   2.571   6.087   1.889  0.0389 -0.1847 -1.4455
  816TIP3    H2 2413   2.438   6.151   1.854 -0.3058  0.1592  0.3699
  817TIP3   OH2 2414   5.775   2.099   4.567 -0.5624 -0.1114  0.1369
  817TIP3    H1 2415   5.847   2.102   4.630 -0.1661  2.0228 -0.3401
  817TIP3    H2 2416   5.723   2.022   4.593 -0.0053  0.2671  2.6054
  818TIP3   OH2 2417   0.613   2.145   2.848 -0.0251 -0.5072 -0.3794
  818TIP3    H1 2418   0.643   2.114   2.763  1.4958 -0.9160  0.2804
  818TIP3    H2 2419   0.602   2.239   2.838  1.3916 -0.3635 -0.6793
  819TIP3   OH2 2420   6.074   0.899   2.982 -0.1819  0.4158  0.1065
  819TIP3    H1 2421   6.116   0.976   3.020  0.5417  0.3362 -0.5105
  819TIP3    H2 2422   6.014   0.868   3.050  2.0713 -0.5539  1.7697
  820TIP3   OH2 2423   2.766   0.734   1.146 -0.0868  0.3561  0.1344
  820TIP3    H1 2424   2.671   0.736   1.135  0.0482  0.1122 -1.1238
  820TIP3    H2 2425   2.784   0.648   1.184 -0.1745 -0.5276 -1.7305
  821TIP3   OH2 2426   0.925   2.979   5.350  0.7283 -0.1539  0.1676
  821TIP3    H1 2427   0.931   3.016   5.438  0.3903 -0.4306  0.3114
  821TIP3    H2 2428   1.011   2.993   5.312  0.9907 -0.3539  0.6741
  822TIP3   OH2 2429   3.149   4.155   4.159 -1.1141 -0.8926  0.3939
  822TIP3    H1 2430   3.157   4.072   4.206 -1.7120 -1.1770  0.0110
  822TIP3    H2 2431   3.238   4.187   4.150 -0.9392 -1.1477  1.1652
  823TIP3   OH2 2432   5.215   0.768   0.214  0.2707  0.5880  0.0784
  823TIP3    H1 2433   5.283   0.810   0.161  0.0215  1.6275  0.5738
  823TIP3    H2 2434   5.143   0.831   0.215  0.2197  0.5307  1.5491
  824TIP3   OH2 2435   3.616   3.167   2.463  0.2575 -0.0948 -0.1988
  824TIP3    H1 2436   3.581   3.094   2.412 -0.2598  0.5560 -0.8062
  824TIP3    H2 2437   3.637   3.129   2.548 -0.8811 -0.7617 -0.1860
  825TIP3   OH2 2438   5.052   4.307   0.838  0.3206 -0.2741  0.0857
  825TIP3    H1 2439   5.104   4.295   0.917  0.0746 -0.3179  0.2431
  825TIP3    H2 2440   4.963   4.280   0.863 -0.2820  1.8596  0.4716
  826TIP3   OH2 2441   5.426   4.929   5.553 -0.1366  0.6505  0.1700
  826TIP3    H1 2442   5.332   4.916   5.540  0.1959 -1.0604 -0.8931
  826TIP3    H2 2443   5.457   4.969   5.471  0.2539  0.0077 -0.0034
  827TIP3   OH2 2444   3.398   4.719   3.629 -0.2124 -0.1053  0.0057
  827TIP3    H1 2445   3.469   4.778   3.603 -0.2606 -0.1263 -0.1688
  827TIP3    H2 2446   3.438   4.632   3.628 -0.4673 -0.2228 -0.9338
  828TIP3   OH2 2447   1.886   1.923   4.212 -0.1221 -0.6207 -0.1921
  828TIP3    H1 2448   1.932   1.988   4.159  1.7324 -1.1837  0.6307
  828TIP3    H2 2449   1.884   1.844   4.158  0.4805 -0.7754  0.0002
  829TIP3   OH2 2450   0.483   4.690   2.001 -0.0474  0.0406 -0.3146
  829TIP3    H1 2451   0.431   4.715   2.077  0.4327 -1.6277  0.6232
  829TIP3    H2 2452   0.443   4.608   1.971  0.6660 -0.0852 -0.9560
  830TIP3   OH2 2453   1.807   1.867   1.277 -0.4348  0.2291 -0.0526
  830TIP3    H1 2454   1.774   1.957   1.273 -1.3963 -0.1181 -0.1246
  830TIP3    H2 2455   1.728   1.813   1.284  0.1560 -0.5867  0.4003
  831TIP3   OH2 2456   5.016   3.176   5.585  0.9338 -0.4403 -0.1970
  831TIP3    H1 2457   4.973   3.259   5.566  0.1005 -1.0237 -0.9624
  831TIP3    H2 2458   5.033   3.138   5.499 -0.8918 -2.1442  0.1074
  832TIP3   OH2 2459   2.364   4.803   3.389  0.7197  0.1520 -0.0423
  832TIP3    H1 2460   2.415   4.723   3.391  0.5716  0.0664  0.4773
  832TIP3    H2 2461   2.283   4.779   3.343 -0.6474 -0.8205  2.6323
  833TIP3   OH2 2462   0.378   2.428   0.146 -0.2424  0.2826 -0.2590
  833TIP3    H1 2463   0.292   2.424   0.189 -1.7169  0.0469 -2.9750
  833TIP3    H2 2464   0.441   2.429   0.218 -2.5346  3.3050  2.0127
  834TIP3   OH2 2465   1.278   2.837   1.706 -0.3099  0.2298  0.2514
  834TIP3    H1 2466   1.189   2.821   1.677 -0.3690  0.2506  0.4234
  834TIP3    H2 2467   1.294   2.771   1.774  0.6371 -1.3951 -1.4444
  835TIP3   OH2 2468   4.993   2.661   2.206 -0.8021  0.1558  0.0929
  835TIP3    H1 2469   5.087   2.674   2.197 -0.8987  0.5331 -0.4140
  835TIP3    H2 2470   4.976   2.676   2.299 -0.5369  1.3749 -0.0291
  836TIP3   OH2 2471   5.021   3.658   0.978 -0.3163 -0.1708 -0.2779
  836TIP3    H1 2472   5.019   3.564   0.963  0.0612 -0.0398 -1.2103
  836TIP3    H2 2473   4.949   3.693   0.926  0.6327  0.2273 -1.3638
  837TIP3   OH2 2474   4.981   4.047   4.822 -0.2324  0.1779 -0.0731
  837TIP3    H1 2475   4.998   3.955   4.798 -1.0143 -0.3532  1.2920
  837TIP3    H2 2476   5.064   4.077   4.860 -1.0721 -1.3640  3.4558
  838TIP3   OH2 2477   6.019   4.578   3.038 -0.6665 -0.0175  0.5461
  838TIP3    H1 2478   5.936   4.604   2.999 -0.7728 -1.9181 -0.6111
  838TIP3    H2 2479   6.072   4.547   2.965 -0.0645 -1.6838  1.6256
  839TIP3   OH2 2480   0.522   3.467   5.670  0.0340 -0.2736 -0.2293
  839TIP3    H1 2481   0.491   3.381   5.642  0.8097 -0.7777  0.4135
  839TIP3    H2 2482   0.571   3.501   5.595 -0.1958 -0.4293 -0.4517
  840TIP3   OH2 2483   0.088   6.599   0.709  0.0118 -0.1342 -0.2538
  840TIP3    H1 2484   0.127   6.595   0.796 -1.1382 -0.7068  0.2541
  840TIP3    H2 2485   0.155   6.640   0.654  0.3799  1.1268  1.0965
  841TIP3   OH2 2486   0.868   6.342   2.069  0.4109 -0.2244 -0.2405
  841TIP3    H1 2487   0.845   6.302   2.152  0.9923 -1.7658 -0.7920
  841TIP3    H2 2488   0.910   6.425   2.093 -0.8063  0.0938  0.9214
  842TIP3   OH2 2489   0.437   3.459   3.045 -0.9457 -0.0513  0.2529
  842TIP3    H1 2490   0.479   3.441   3.128 -1.3747 -1.2085  0.2396
  842TIP3    H2 2491   0.504   3.440   2.979 -0.6909  0.6069  0.3157
  843TIP3   OH2 2492   1.812   4.889   1.822  0.4814  0.1823  0.3693
  843TIP3    H1 2493   1.776   4.806   1.855  1.4860 -0.8072 -0.8859
  843TIP3    H2 2494   1.905   4.871   1.809  0.3676  0.8199 -1.8420
  844TIP3   OH2 2495   3.150   0.024   1.817  0.8421  0.3032 -0.1577
  844TIP3    H1 2496   3.202  -0.056   1.817  2.3436  1.1210 -3.1684
  844TIP3    H2 2497   3.183   0.074   1.891  0.1230 -1.6496  1.5580
  845TIP3   OH2 2498   2.126   4.309   1.701 -0.3839  0.1696  0.3513
  845TIP3    H1 2499   2.100   4.220   1.676 -0.9189  0.1555  0.9229
  845TIP3    H2 2500   2.205   4.326   1.651 -1.4925  0.2146 -1.4972
  846TIP3   OH2 2501   0.066   5.076   4.539 -0.1480 -0.9729 -0.1094
  846TIP3    H1 2502   0.148   5.094   4.586  0.3757 -2.1463 -0.5273
  846TIP3    H2 2503   0.005   5.143   4.569  0.4138 -1.2028  1.6159
  847TIP3   OH2 2504   4.990   4.661   3.484  0.1364 -0.3621  0.0418
  847TIP3    H1 2505   4.904   4.699   3.466  0.5321  1.7187  1.9687
  847TIP3    H2 2506   5.051   4.715   3.434  0.4883 -0.1987  0.6304
  848TIP3   OH2 2507   0.419   3.403   1.307 -0.1605  0.8390 -0.8230
  848TIP3    H1 2508   0.509   3.379   1.282 -0.2430 -0.7689  0.2761
  848TIP3    H2 2509   0.428   3.487   1.350  0.6001  1.4308 -2.0838
  849TIP3   OH2 2510   4.932   1.549   3.310  0.2575 -0.2424  0.2969
  849TIP3    H1 2511   4.874   1.622   3.333 -0.6118 -1.7362  3.3657
  849TIP3    H2 2512   4.990   1.540   3.385  1.9253 -1.2638 -1.0525
  850TIP3   OH2 2513   5.985   6.423   3.733  0.1809  0.7242 -0.3330
  850TIP3    H1 2514   5.934   6.492   3.690 -0.7305  0.4753  0.3284
  850TIP3    H2 2515   5.971   6.438   3.826 -1.2592 -1.2210 -0.1793
  851TIP3   OH2 2516   3.827   3.297   2.926 -0.1233  0.3781 -0.1364
  851TIP3    H1 2517   3.784   3.323   3.008 -0.9044 -3.2328  0.7450
  851TIP3    H2 2518   3.871   3.215   2.947 -1.8004 -1.6387 -3.7540
  852TIP3   OH2 2519   2.565   2.689   5.828 -0.2923  0.7439 -0.4654
  852TIP3    H1 2520   2.531   2.652   5.909 -0.1935  0.2442 -0.6521
  852TIP3    H2 2521   2.527   2.635   5.759  0.4360  0.5249 -0.7057
  853TIP3   OH2 2522   2.603   1.482   2.371  0.7867  0.1866  0.6505
  853TIP3    H1 2523   2.603   1.386   2.363  0.6801  0.2627 -0.4378
  853TIP3    H2 2524   2.549   1.499   2.448  1.3137 -0.6507  1.2261
  854TIP3   OH2 2525   1.279   0.684   2.392 -0.4102  0.0827 -0.2536
  854TIP3    H1 2526   1.313   0.616   2.335 -0.0611 -0.7647  0.9214
  854TIP3    H2 2527   1.227   0.638   2.457 -0.9932  1.0404 -0.0136
  855TIP3   OH2 2528   6.050   6.769   0.382  0.4312 -0.0299 -0.2990
  855TIP3    H1 2529   6.001   6.851   0.379 -0.9783 -0.8538 -0.4237
  855TIP3    H2 2530   6.072   6.751   0.290  3.0453  1.4914 -0.0771
  856TIP3   OH2 2531   6.084   3.659   1.804 -0.0395 -0.4058  0.1107
  856TIP3    H1 2532   6.129   3.742   1.822 -0.2534 -0.3874  0.5717
  856TIP3    H2 2533   6.082   3.615   1.889  1.0862 -1.3895 -0.3377
  857TIP3   OH2 2534   2.890   6.280   5.225  0.4722  0.3544  0.3498
  857TIP3    H1 2535   2.851   6.293   5.139  2.0772  1.5252 -0.2532
  857TIP3    H2 2536   2.984   6.276   5.209  0.9622  2.3334  2.1870
  858TIP3   OH2 2537   7.196   3.375   2.142  0.2715 -0.0017 -0.6577
  858TIP3    H1 2538   7.163   3.299   2.191  0.5574  0.2794 -0.0148
  858TIP3    H2 2539   7.121   3.409   2.095 -0.0300 -0.2240 -0.3382
  859TIP3   OH2 2540   4.831   6.033   2.663  0.2344  0.2474  0.1571
  859TIP3    H1 2541   4.913   6.004   2.624 -0.7196 -1.2519 -0.8885
  859TIP3    H2 2542   4.797   5.956   2.708 -0.7985  0.6988  0.1978
  860TIP3   OH2 2543   0.632   2.202   0.617 -0.0331 -0.6024  0.3335
  860TIP3    H1 2544   0.699   2.197   0.685 -1.2842  1.5949  1.8560
  860TIP3    H2 2545   0.554   2.165   0.659 -0.1040 -2.1433 -1.0554
  861TIP3   OH2 2546   5.341   5.955   3.690  0.1067 -0.2939 -0.2381
  861TIP3    H1 2547   5.373   5.867   3.671 -1.9198 -1.0134 -0.6292
  861TIP3    H2 2548   5.287   5.944   3.769  1.2241  0.9663  0.7532
  862TIP3   OH2 2549   0.638   3.011   5.332  0.3987  0.2807  0.3642
  862TIP3    H1 2550   0.629   2.987   5.424  0.2462 -0.9346  0.0435
  862TIP3    H2 2551   0.724   2.979   5.306  1.0988  1.9720  0.4578
  863TIP3   OH2 2552   5.182   5.137   2.044 -0.0764 -0.5105  0.3757
  863TIP3    H1 2553   5.156   5.139   1.951  0.3367  1.0592  0.2648
  863TIP3    H2 2554   5.275   5.116   2.042 -0.1611 -0.9132  0.4767
  864TIP3   OH2 2555   5.391   4.222   0.054  0.5061  0.4195  0.2998
  864TIP3    H1 2556   5.327   4.157   0.082  1.2627 -0.4300  0.0677
  864TIP3    H2 2557   5.476   4.182   0.072  1.0209  0.3756 -2.0181
  865TIP3   OH2 2558   3.562   6.046   1.263 -0.6047  0.4559 -0.0028
  865TIP3    H1 2559   3.590   5.958   1.238  1.1712  0.5896  1.3095
  865TIP3    H2 2560   3.497   6.033   1.332  0.0257  0.1629  0.5447
  866TIP3   OH2 2561   0.369   0.437   5.619 -0.3400  0.0040  0.0249
  866TIP3    H1 2562   0.280   0.459   5.647 -0.2068 -1.1324  1.4473
  866TIP3    H2 2563   0.383   0.348   5.651  0.5060 -0.7232 -2.1821
  867TIP3   OH2 2564   6.461   4.220   1.478  0.1512  0.0644  0.5995
  867TIP3    H1 2565   6.394   4.194   1.540  1.6572 -0.4385  2.0850
  867TIP3    H2 2566   6.487   4.138   1.435 -0.2454  0.2725 -0.0489
  868TIP3   OH2 2567   4.432   0.564   0.470  0.5513  0.0641  0.0971
  868TIP3    H1 2568   4.509   0.612   0.443 -0.2190  0.4906 -1.4227
  868TIP3    H2 2569   4.464   0.475   0.487  1.5318  0.4748  0.4979
  869TIP3   OH2 2570   0.430   6.242   4.604 -0.2051 -0.0228  0.6229
  869TIP3    H1 2571   0.389   6.260   4.689  0.7397  3.0981  0.5169
  869TIP3    H2 2572   0.357   6.243   4.542 -0.6394 -0.1759  1.1168
  870TIP3   OH2 2573   3.228   4.628   4.664 -0.1580  0.3229 -0.6984
  870TIP3    H1 2574   3.284   4.581   4.726  0.4547  1.3954 -0.3982
  870TIP3    H2 2575   3.139   4.616   4.699 -0.1900 -1.7033 -1.3876
  871TIP3   OH2 2576   5.233   6.707   2.292 -0.4674 -0.8031 -0.2569
  871TIP3    H1 2577   5.238   6.648   2.367  0.5892 -0.1250  0.2396
  871TIP3    H2 2578   5.285   6.783   2.318 -0.9070 -0.1241 -1.2978
  872TIP3   OH2 2579   0.390   5.678   3.485  0.6282 -0.1306 -0.2055
  872TIP3    H1 2580   0.463   5.740   3.490  0.5897 -0.0963 -0.0448
  872TIP3    H2 2581   0.423   5.607   3.431  0.5569  0.1838 -0.6617
  873TIP3   OH2 2582   5.365   1.470   2.113  0.5542  0.0778 -0.2783
  873TIP3    H1 2583   5.459   1.477   2.125  0.6762 -1.8918  0.1615
  873TIP3    H2 2584   5.354   1.399   2.051 -0.6677 -0.2580  0.2956
  874TIP3   OH2 2585   2.058   1.601   2.058  0.5143  0.3981 -0.5754
  874TIP3    H1 2586   2.154   1.610   2.059  0.5216  0.5093 -1.5245
  874TIP3    H2 2587   2.027   1.688   2.084  0.6667  0.1208  0.5841
  875TIP3   OH2 2588   5.368   3.259   1.936  0.7298  0.0848  0.0837
  875TIP3    H1 2589   5.428   3.304   1.995  0.9776 -0.1729  0.0315
  875TIP3    H2 2590   5.375   3.166   1.961  2.3290 -0.3081 -1.6372
  876TIP3   OH2 2591   4.285   3.371   4.004  0.0606 -0.2778  0.0096
  876TIP3    H1 2592   4.277   3.459   4.042 -1.5533  0.2484 -1.4326
  876TIP3    H2 2593   4.348   3.383   3.933 -0.1644 -0.2813 -0.1907
  877TIP3   OH2 2594   4.332   3.753   3.171  0.9823  0.1557  0.1585
  877TIP3    H1 2595   4.243   3.771   3.201  1.2566 -0.6998  1.5603
  877TIP3    H2 2596   4.337   3.794   3.085 -0.5963  0.6702  0.2864
  878TIP3   OH2 2597   5.764   6.799   1.475  0.2118 -0.2420  0.3407
  878TIP3    H1 2598   5.791   6.765   1.390  0.8057  0.7592  0.1083
  878TIP3    H2 2599   5.815   6.749   1.538  0.4810 -0.3366  0.0516
  879TIP3   OH2 2600   7.203   5.420   1.146  0.1911  0.0413 -0.5925
  879TIP3    H1 2601   7.167   5.378   1.068 -0.5481  2.8647 -1.9214
  879TIP3    H2 2602   7.273   5.477   1.112  0.6230  0.4818  0.9468
  880TIP3   OH2 2603   6.137   0.724   4.369  0.0242 -0.3161 -0.3912
  880TIP3    H1 2604   6.160   0.816   4.364  0.6643 -0.5012 -1.1084
  880TIP3    H2 2605   6.199   0.686   4.431  0.0735 -0.3542 -0.4634
  881TIP3   OH2 2606   0.917   4.857   2.750 -0.3498  0.2141  0.3707
  881TIP3    H1 2607   0.882   4.919   2.685 -0.4865  1.4488  1.5602
  881TIP3    H2 2608   0.926   4.909   2.830 -0.7411 -1.3913  1.5137
  882TIP3   OH2 2609   0.553   5.708   0.462  0.5001 -0.2419 -0.1172
  882TIP3    H1 2610   0.635   5.711   0.511  1.6167 -1.7372 -1.7666
  882TIP3    H2 2611   0.501   5.780   0.497  1.8763 -0.2410  2.0748
  883TIP3   OH2 2612   0.427   4.447   1.893 -0.0196 -0.6376 -0.0199
  883TIP3    H1 2613   0.332   4.444   1.903 -0.0496  0.5090  0.2617
  883TIP3    H2 2614   0.441   4.467   1.801  0.0070 -2.2912 -0.3997
  884TIP3   OH2 2615   2.697   0.577   5.356 -0.4889 -0.2999  0.1509
  884TIP3    H1 2616   2.770   0.603   5.301  0.4152  1.6522  2.1280
  884TIP3    H2 2617   2.619   0.599   5.306  0.2290 -1.4827 -1.5748
  885TIP3   OH2 2618   1.870   4.416   1.698 -0.0635  0.4892 -0.2371
  885TIP3    H1 2619   1.963   4.393   1.708 -0.4691 -0.9599  0.5050
  885TIP3    H2 2620   1.827   4.332   1.680 -1.2589  1.1204 -0.3803
  886TIP3   OH2 2621   0.129   1.486   0.654 -0.1299  0.5502  0.0832
  886TIP3    H1 2622   0.131   1.487   0.750 -1.4667  0.8295  0.1195
  886TIP3    H2 2623   0.124   1.394   0.631  0.6994  0.4491  0.2456
  887TIP3   OH2 2624   6.382   3.972   2.188  0.2944  0.5897 -0.6718
  887TIP3    H1 2625   6.432   4.051   2.166  0.3287 -0.0587 -3.2711
  887TIP3    H2 2626   6.434   3.900   2.153 -0.9338 -0.3711 -0.5913
  888TIP3   OH2 2627   2.030   5.362   0.502  0.0497  0.4436 -0.4879
  888TIP3    H1 2628   2.003   5.452   0.519 -0.3957  0.1353  0.5484
  888TIP3    H2 2629   1.956   5.308   0.530  0.8820 -0.3153  0.3665
  889TIP3   OH2 2630   3.726   6.507   4.650  0.2003  0.4234 -0.0117
  889TIP3    H1 2631   3.703   6.492   4.742 -0.3792 -0.2288 -0.2547
  889TIP3    H2 2632   3.759   6.597   4.648 -1.1738  0.9676  0.5855
  890TIP3   OH2 2633   6.135   5.249   4.811  0.0228 -0.0624 -0.2548
  890TIP3    H1 2634   6.130   5.326   4.868 -0.2172  0.1238 -0.5252
  890TIP3    H2 2635   6.134   5.284   4.722 -1.4629 -0.4114 -0.4171
  891TIP3   OH2 2636   0.417   3.673   5.810  0.6224  0.0093 -0.0895
  891TIP3    H1 2637   0.451   3.605   5.751  0.8977  1.7416 -2.0254
  891TIP3    H2 2638   0.486   3.739   5.813 -0.1649  0.8110  0.7408
  892TIP3   OH2 2639   3.203   1.797   5.185 -0.3325 -0.4998 -0.7443
  892TIP3    H1 2640   3.255   1.719   5.164  1.7387  0.7885 -0.6457
  892TIP3    H2 2641   3.252   1.841   5.255 -0.6526  1.6392 -1.7822
  893TIP3   OH2 2642   1.564   3.762   2.486 -0.6041 -0.3151  0.1615
  893TIP3    H1 2643   1.556   3.681   2.437 -1.6679 -0.7355  0.9924
  893TIP3    H2 2644   1.653   3.792   2.469 -0.3532 -1.4070 -0.5223
  894TIP3   OH2 2645   6.679   4.624   3.159 -0.1826  0.0955  0.1181
  894TIP3    H1 2646   6.720   4.707   3.182  1.0110 -0.3551 -0.2872
  894TIP3    H2 2647   6.707   4.608   3.068 -0.5190 -0.6651  0.1405
  895TIP3   OH2 2648   5.966   4.288   3.376 -0.2871 -0.3999 -0.3023
  895TIP3    H1 2649   5.982   4.221   3.442 -0.1169 -0.1966 -0.1355
  895TIP3    H2 2650   5.875   4.274   3.350 -0.6721  0.1408  0.6979
  896TIP3   OH2 2651   2.169   3.609   4.810  0.5038 -0.1931  0.0224
  896TIP3    H1 2652   2.079   3.585   4.831  0.3726 -0.5554 -0.8642
  896TIP3    H2 2653   2.166   3.703   4.791  0.1580 -0.3475 -0.7246
  897TIP3   OH2 2654   0.044   0.369   4.892  0.2742  0.1612  0.2049
  897TIP3    H1 2655  -0.043   0.409   4.897  1.5291  3.0177  0.8575
  897TIP3    H2 2656   0.053   0.345   4.800 -0.6779  1.0980 -0.1588
  898TIP3   OH2 2657   2.448   3.243   4.374  0.8854 -0.5821  0.4312
  898TIP3    H1 2658   2.454   3.295   4.454 -0.9749  1.0457 -0.4033
  898TIP3    H2 2659   2.402   3.163   4.400 -0.7240  0.4289  0.8262
  899TIP3   OH2 2660   6.759   6.712   0.991  0.2509  0.0363  0.2036
  899TIP3    H1 2661   6.716   6.746   0.913  1.3293 -0.6256 -0.7040
  899TIP3    H2 2662   6.848   6.748   0.987  0.2011  0.3257  1.3573
  900TIP3   OH2 2663   5.906   4.456   0.041  0.1285  0.1335 -0.0157
  900TIP3    H1 2664   5.862   4.524  -0.011 -1.1134 -0.0033  0.7989
  900TIP3    H2 2665   5.912   4.494   0.129  2.4594  0.4817 -0.2731
  901TIP3   OH2 2666   4.196   6.440   1.888 -0.1626 -0.2224  0.0190
  901TIP3    H1 2667   4.217   6.438   1.981  2.6794 -0.0601 -0.5527
  901TIP3    H2 2668   4.235   6.360   1.852  0.5986  0.7206 -1.3497
  902TIP3   OH2 2669   5.954   6.469   1.016  0.3326  0.0128  0.1675
  902TIP3    H1 2670   6.012   6.444   1.088  0.5521  1.7173  0.6274
  902TIP3    H2 2671   6.012   6.497   0.946  0.1244 -1.8083 -0.7878
  903TIP3   OH2 2672   2.143   4.242   2.333 -0.2743  0.7602 -0.4050
  903TIP3    H1 2673   2.056   4.248   2.372 -0.3585  1.6194 -0.7030
  903TIP3    H2 2674   2.165   4.332   2.310  1.6295  0.9278  1.7118
  904TIP3   OH2 2675   6.288   0.357   0.567  0.3516  0.5389 -0.7582
  904TIP3    H1 2676   6.203   0.322   0.593 -0.4808  1.1476 -2.5385
  904TIP3    H2 2677   6.339   0.281   0.542  0.0126  0.2494 -0.5772
  905TIP3   OH2 2678   3.217   1.687   1.028 -0.0841  0.2085  0.7480
  905TIP3    H1 2679   3.214   1.781   1.044 -0.9730  0.7328 -1.9329
  905TIP3    H2 2680   3.281   1.653   1.091  2.2450  3.0002  0.0683
  906TIP3   OH2 2681   1.457   5.509   4.936  0.1032  0.0323  0.0447
  906TIP3    H1 2682   1.466   5.431   4.882 -1.3366  0.0466 -0.2344
  906TIP3    H2 2683   1.496   5.485   5.020  1.8612 -0.1669 -0.7848
  907TIP3   OH2 2684   1.396   5.159   0.016  0.0381 -0.3973 -0.1285
  907TIP3    H1 2685   1.394   5.221  -0.056 -1.4416  1.7606  1.6474
  907TIP3    H2 2686   1.341   5.198   0.083  1.7555 -2.0359  2.4184
  908TIP3   OH2 2687   2.121   0.169   4.220 -0.3639 -0.1864  0.4498
  908TIP3    H1 2688   2.084   0.237   4.275  0.8959  1.1404 -0.2701
  908TIP3    H2 2689   2.047   0.112   4.199 -1.0365 -0.2197  2.7234
  909TIP3   OH2 2690   4.174   2.989   4.500  0.3705 -0.3901 -0.2990
  909TIP3    H1 2691   4.097   2.990   4.443 -0.0831 -0.2003  0.3078
  909TIP3    H2 2692   4.242   2.945   4.448 -0.1589 -0.6023 -0.8199
  910TIP3   OH2 2693   4.170   0.466   2.868  0.0084  0.0797  0.2022
  910TIP3    H1 2694   4.256   0.425   2.876 -0.0684  0.1209  1.3822
  910TIP3    H2 2695   4.109   0.399   2.898 -0.3088  0.2761 -0.0110
  911TIP3   OH2 2696   3.353   6.203   1.577 -0.2057  0.3347 -0.1097
  911TIP3    H1 2697   3.414   6.272   1.605 -0.9075  0.6970  0.5538
  911TIP3    H2 2698   3.377   6.127   1.630 -2.5843  1.4598  2.8696
  912TIP3   OH2 2699   2.537   0.720   2.444  0.1384  0.4052  0.0914
  912TIP3    H1 2700   2.552   0.679   2.360 -0.9040 -0.1277  0.1493
  912TIP3    H2 2701   2.443   0.712   2.458 -0.1497  2.8990  0.0490
  913TIP3   OH2 2702   1.416   4.295   2.193 -0.2665 -0.3155  0.2289
  913TIP3    H1 2703   1.476   4.264   2.261 -0.8453 -0.6972  0.5662
  913TIP3    H2 2704   1.381   4.215   2.153  1.1813 -0.1315 -1.5399
  914TIP3   OH2 2705   0.334   3.930   1.197  0.0443 -0.2396  0.0333
  914TIP3    H1 2706   0.315   4.002   1.257  0.8564  0.3766 -0.4328
  914TIP3    H2 2707   0.427   3.912   1.209 -0.2721 -1.6628  0.6087
  915TIP3   OH2 2708   3.930   0.364   1.995 -0.2114  0.5218 -0.0770
  915TIP3    H1 2709   3.904   0.323   2.078 -0.5590 -1.7892 -1.2713
  915TIP3    H2 2710   3.850   0.364   1.943 -0.0133  2.0384 -0.4464
  916TIP3   OH2 2711   0.673   3.344   1.233 -0.0085 -0.1925  0.5434
  916TIP3    H1 2712   0.759   3.362   1.269  0.9536 -0.0075 -1.6722
  916TIP3    H2 2713   0.673   3.249   1.216 -0.6600 -0.3761  1.4741
  917TIP3   OH2 2714   4.576   6.341   5.715 -0.1514 -0.4001  0.0820
  917TIP3    H1 2715   4.627   6.393   5.777 -1.3980  1.6220 -0.4993
  917TIP3    H2 2716   4.641   6.294   5.663  1.1949  1.9707 -0.5335
  918TIP3   OH2 2717   4.689   5.574   4.063  0.5716  0.5126 -0.6458
  918TIP3    H1 2718   4.660   5.537   3.979  2.2988  1.0689 -1.5375
  918TIP3    H2 2719   4.647   5.520   4.129  1.2785 -1.6625 -1.8891
  919TIP3   OH2 2720   3.426   6.771   5.330 -0.0100 -0.1686  0.0569
  919TIP3    H1 2721   3.333   6.760   5.350 -0.2261  0.0434 -0.7909
  919TIP3    H2 2722   3.431   6.769   5.234  0.6802  1.2420  0.0329
  920TIP3   OH2 2723   3.077   4.283   5.131 -0.4164  0.3741 -0.5878
  920TIP3    H1 2724   3.019   4.263   5.058 -0.3324  1.5853 -1.0084
  920TIP3    H2 2725   3.159   4.237   5.110  0.0113  1.6385 -1.8806
  921TIP3   OH2 2726   2.998   0.741   3.108  0.5245 -0.1488 -0.3108
  921TIP3    H1 2727   2.929   0.759   3.172 -0.3706  1.6905 -1.7053
  921TIP3    H2 2728   3.068   0.701   3.159 -1.5316 -2.0944  1.1584
  922TIP3   OH2 2729   6.654   5.524   3.987 -0.0642 -0.4925  0.5272
  922TIP3    H1 2730   6.603   5.547   4.065  0.4743  0.4093  0.6277
  922TIP3    H2 2731   6.596   5.544   3.914 -0.0678 -0.0190  0.6576
  923TIP3   OH2 2732   5.432   5.413   1.917  0.3282  0.1416 -0.1310
  923TIP3    H1 2733   5.484   5.337   1.888  0.2436 -0.1152  0.3722
  923TIP3    H2 2734   5.399   5.451   1.836 -0.3666 -0.8904 -0.3549
  924TIP3   OH2 2735   4.507   6.649   1.161  0.5329  0.2101 -0.4037
  924TIP3    H1 2736   4.566   6.594   1.213  1.1442  1.0554 -0.1707
  924TIP3    H2 2737   4.532   6.631   1.071  2.9695  2.4026 -0.2820
  925TIP3   OH2 2738   0.569   4.044   0.197  0.5441 -0.1643  0.5791
  925TIP3    H1 2739   0.567   4.130   0.155  0.9277 -0.5865 -0.3333
  925TIP3    H2 2740   0.478   4.027   0.221  0.1777 -0.1889 -0.7132
  926TIP3   OH2 2741   7.135   0.898   1.922  0.0799  0.2737 -0.0733
  926TIP3    H1 2742   7.109   0.845   1.998 -0.4669 -0.5288 -0.8021
  926TIP3    H2 2743   7.170   0.978   1.960 -2.3345  0.8963  0.9872
  927TIP3   OH2 2744   0.888   0.639   5.761  0.1592  0.7216  0.4236
  927TIP3    H1 2745   0.896   0.645   5.666  0.0499 -1.7787  0.1948
  927TIP3    H2 2746   0.963   0.687   5.795  2.0950 -1.0710 -1.0466
  928TIP3   OH2 2747   6.283   6.720   0.513  0.2240 -0.3473 -0.4871
  928TIP3    H1 2748   6.313   6.787   0.451  1.2817 -0.6010 -0.2783
  928TIP3    H2 2749   6.197   6.694   0.481  0.4384  0.0503 -1.4244
  929TIP3   OH2 2750   0.516   3.837   4.623  0.2544 -0.2377  0.1207
  929TIP3    H1 2751   0.500   3.932   4.622  0.0346 -0.2719  0.2558
  929TIP3    H2 2752   0.437   3.800   4.663 -0.3245 -0.6082 -1.2866
  930TIP3   OH2 2753   2.738   2.639   5.327 -0.4902 -0.0230 -0.5895
  930TIP3    H1 2754   2.679   2.674   5.394 -0.6365 -0.0647 -0.6964
  930TIP3    H2 2755   2.823   2.633   5.371 -0.4877  0.3613 -0.5342
  931TIP3   OH2 2756   1.577   4.780   0.046 -0.3680  0.3161 -0.0173
  931TIP3    H1 2757   1.484   4.792   0.064 -0.1681  0.8147  0.7393
  931TIP3    H2 2758   1.617   4.767   0.133  0.1641 -0.6334 -0.3886
  932TIP3   OH2 2759   6.446   2.589   4.888 -0.4156 -0.0761  0.5674
  932TIP3    H1 2760   6.487   2.579   4.802 -0.5283 -2.5140  0.7476
  932TIP3    H2 2761   6.411   2.678   4.887  1.0737  0.5538 -1.2412
  933TIP3   OH2 2762   5.162   0.902   1.867  0.4390 -0.2318 -0.2167
  933TIP3    H1 2763   5.089   0.861   1.821 -0.8047  2.7112 -1.1096
  933TIP3    H2 2764   5.235   0.840   1.857 -1.7168 -3.0142  0.2536
  934TIP3   OH2 2765   3.415   1.453   2.355  0.4793  0.0187  0.2127
  934TIP3    H1 2766   3.408   1.545   2.381  1.0593  0.6232 -1.6412
  934TIP3    H2 2767   3.334   1.414   2.385  0.4873  0.9732  1.6024
  935TIP3   OH2 2768   4.975   4.437   2.078 -0.1439  0.4918 -0.4751
  935TIP3    H1 2769   4.971   4.381   2.000 -0.1470  0.9939 -0.8479
  935TIP3    H2 2770   4.913   4.398   2.139  0.5496 -0.4490 -0.3587
  936TIP3   OH2 2771   5.876   6.635   1.288  0.3552  0.2627 -0.6840
  936TIP3    H1 2772   5.862   6.540   1.287 -1.3247  0.4707 -0.2503
  936TIP3    H2 2773   5.971   6.645   1.277  0.5564 -1.4519 -0.8707
  937TIP3   OH2 2774   1.157   0.854   4.864  0.4899 -0.5043  0.8336
  937TIP3    H1 2775   1.115   0.815   4.940  1.1900 -2.6528  0.1871
  937TIP3    H2 2776   1.230   0.796   4.844  0.5545  0.2041 -1.2426
  938TIP3   OH2 2777   3.070   1.843   2.144 -0.3035  0.2050  0.1806
  938TIP3    H1 2778   3.049   1.927   2.184  0.0357 -0.4655  1.8427
  938TIP3    H2 2779   3.101   1.865   2.056 -1.2255  1.7212  0.2001
  939TIP3   OH2 2780   2.901   3.035   1.184 -0.4823  0.4893 -0.2918
  939TIP3    H1 2781   2.987   2.994   1.173 -1.4452 -2.1244  0.9264
  939TIP3    H2 2782   2.915   3.103   1.250  0.6618  0.1631 -0.1809
  940TIP3   OH2 2783   7.001   4.892   3.360  0.3914  0.1120  0.3354
  940TIP3    H1 2784   7.027   4.967   3.306  1.1204 -0.2276  0.2115
  940TIP3    H2 2785   7.082   4.844   3.376  0.1023 -0.0763  1.3050
  941TIP3   OH2 2786   4.952   6.321   4.042 -0.5665 -0.3418  0.0313
  941TIP3    H1 2787   4.877   6.266   4.018 -0.4134 -1.0603  1.1684
  941TIP3    H2 2788   4.960   6.311   4.137  0.4730  0.3722  0.0317
  942TIP3   OH2 2789   6.373   2.783   0.415  0.3517 -0.4663  0.3158
  942TIP3    H1 2790   6.377   2.863   0.363  0.9754 -1.7488 -1.7084
  942TIP3    H2 2791   6.279   2.764   0.421  0.0142  1.4099  2.5544
  943TIP3   OH2 2792   0.831   5.327   3.074  0.3499 -0.5380 -0.0387
  943TIP3    H1 2793   0.909   5.289   3.033  0.7681  1.1420 -0.8569
  943TIP3    H2 2794   0.761   5.309   3.012  0.2126 -1.3900  0.3478
  944TIP3   OH2 2795   6.543   0.529   0.118  0.1979  0.3807 -0.9230
  944TIP3    H1 2796   6.447   0.533   0.115 -0.0221 -1.1306  1.5093
  944TIP3    H2 2797   6.568   0.603   0.175  0.0148 -1.6640  2.0754
  945TIP3   OH2 2798   1.651   4.569   1.576 -0.3529  0.0982 -0.3509
  945TIP3    H1 2799   1.723   4.560   1.638 -0.4242  0.7959 -0.1566
  945TIP3    H2 2800   1.668   4.651   1.530 -1.0312  0.2856 -0.2865
  946TIP3   OH2 2801   6.229   1.946   1.684 -0.3060  0.6998  0.4769
  946TIP3    H1 2802   6.186   1.872   1.640 -0.5012 -0.6396  2.7876
  946TIP3    H2 2803   6.299   1.906   1.735  0.2346  2.2471  1.0062
  947TIP3   OH2 2804   1.840   4.254   1.950  0.3186  0.4280  0.0680
  947TIP3    H1 2805   1.838   4.222   2.040  0.4394 -0.1537 -0.1294
  947TIP3    H2 2806   1.891   4.334   1.953 -0.3826  0.8682  0.6587
  948TIP3   OH2 2807   5.678   6.432   0.987  0.1194  0.3326 -0.2447
  948TIP3    H1 2808   5.669   6.484   0.907 -1.1210 -1.2456 -1.1989
  948TIP3    H2 2809   5.772   6.430   1.004  0.3619  1.1021 -1.3798
  949TIP3   OH2 2810   0.766   4.856   2.465 -0.1068  0.5381 -0.3629
  949TIP3    H1 2811   0.840   4.816   2.419  0.2945  1.5689 -0.6307
  949TIP3    H2 2812   0.699   4.867   2.398  0.0241  0.9140 -0.4317
  950TIP3   OH2 2813   6.262   5.332   0.760  0.6099  0.1072 -0.8110
  950TIP3    H1 2814   6.308   5.254   0.790  0.3506 -0.3037 -1.4703
  950TIP3    H2 2815   6.233   5.311   0.671  1.7911  1.4634 -1.5793
  951TIP3   OH2 2816   3.306   3.218   5.718  0.3196  0.4102  0.4208
  951TIP3    H1 2817   3.242   3.206   5.649  1.2532  1.0915 -0.5963
  951TIP3    H2 2818   3.287   3.304   5.755  0.3507  0.4037  0.4529
  952TIP3   OH2 2819   5.729   2.621   5.628  0.5270  0.2626  0.3316
  952TIP3    H1 2820   5.797   2.687   5.646  1.0686 -0.8417  2.5874
  952TIP3    H2 2821   5.773   2.537   5.642 -0.6734 -0.5514 -0.6046
  953TIP3   OH2 2822   6.556   3.592   4.444  0.2375  0.6671 -0.7063
  953TIP3    H1 2823   6.646   3.581   4.415  1.2636 -0.7543  2.5470
  953TIP3    H2 2824   6.519   3.504   4.441 -1.1092  1.2403 -2.0469
  954TIP3   OH2 2825   1.623   3.224   3.473  0.0797 -0.0989 -0.1850
  954TIP3    H1 2826   1.633   3.304   3.421  0.4084  0.7850  1.1945
  954TIP3    H2 2827   1.666   3.157   3.420 -1.3944  0.3060 -2.0128
  955TIP3   OH2 2828   4.964   1.914   3.141  0.1038  0.1551  0.4314
  955TIP3    H1 2829   5.005   1.905   3.227  0.6495 -0.3434  0.1292
  955TIP3    H2 2830   5.032   1.886   3.079 -0.5167 -0.1606 -0.1214
  956TIP3   OH2 2831   6.488   5.863   0.263  0.0813 -0.2640  0.2958
  956TIP3    H1 2832   6.514   5.830   0.177 -0.5186 -2.2308  0.8069
  956TIP3    H2 2833   6.511   5.792   0.323 -1.0346  0.3837  1.5364
  957TIP3   OH2 2834   2.687   3.788   3.237  0.0982 -0.2612  0.5417
  957TIP3    H1 2835   2.665   3.704   3.197  2.7215 -1.6556  1.7886
  957TIP3    H2 2836   2.765   3.817   3.190  1.6467 -0.6235  2.7411
  958TIP3   OH2 2837   6.351   3.012   1.097 -0.4623 -0.7518  0.1207
  958TIP3    H1 2838   6.391   3.049   1.175  0.4924 -1.1014 -0.1783
  958TIP3    H2 2839   6.327   2.922   1.122  0.5062 -1.1108 -0.1723
  959TIP3   OH2 2840   3.378   0.736   2.107 -0.5108 -0.4027 -0.4502
  959TIP3    H1 2841   3.324   0.797   2.056  0.5553  0.2716 -0.8163
  959TIP3    H2 2842   3.316   0.671   2.140 -1.4753  0.0936 -1.2148
  960TIP3   OH2 2843   0.707   5.416   0.993 -0.2150  0.4270 -0.1096
  960TIP3    H1 2844   0.785   5.367   1.019 -0.1306 -0.0620 -1.2352
  960TIP3    H2 2845   0.714   5.425   0.898 -1.2085  0.9375 -0.1520
  961TIP3   OH2 2846   2.279   3.139   2.675 -0.1619 -0.0116  0.2645
  961TIP3    H1 2847   2.300   3.073   2.609  3.0291  1.0061  0.0966
  961TIP3    H2 2848   2.290   3.094   2.758  0.9387 -0.0187  0.1309
  962TIP3   OH2 2849   0.527   3.475   3.309  0.1170  0.3252  0.0381
  962TIP3    H1 2850   0.611   3.521   3.303 -0.2314  1.0288  0.4650
  962TIP3    H2 2851   0.480   3.519   3.380 -0.5023 -0.2450 -0.0079
  963TIP3   OH2 2852   2.119   0.824   4.487 -0.1245 -0.0447 -0.7057
  963TIP3    H1 2853   2.156   0.885   4.423  1.6580  0.7457  0.9888
  963TIP3    H2 2854   2.168   0.743   4.474  1.4807  0.6375  0.7287
  964TIP3   OH2 2855   6.871   2.261   4.757  0.2401 -0.1521  0.4481
  964TIP3    H1 2856   6.818   2.265   4.836 -0.7492 -1.2064 -0.1356
  964TIP3    H2 2857   6.825   2.317   4.694 -0.4524 -1.3940 -0.1887
  965TIP3   OH2 2858   4.349   0.435   5.780 -0.2235 -0.0974 -0.0328
  965TIP3    H1 2859   4.262   0.428   5.741  0.7718 -0.3425 -2.4291
  965TIP3    H2 2860   4.382   0.519   5.750  1.3997 -1.2272 -1.6502
  966TIP3   OH2 2861   4.223   0.974   0.789 -0.1446 -0.6587 -0.5081
  966TIP3    H1 2862   4.270   1.058   0.787  1.0852 -1.3163 -0.5558
  966TIP3    H2 2863   4.264   0.923   0.719 -0.4022 -1.5329 -0.0324
  967TIP3   OH2 2864   0.983   0.013   1.859 -0.1134 -0.5534 -0.3874
  967TIP3    H1 2865   0.933  -0.040   1.921 -0.1335 -0.7153 -0.5399
  967TIP3    H2 2866   1.009   0.090   1.908 -1.0039 -0.1952 -0.4645
  968TIP3   OH2 2867   3.412   3.146   1.546 -0.2314 -0.3128 -0.1949
  968TIP3    H1 2868   3.462   3.200   1.607  1.4628 -1.2436 -0.7168
  968TIP3    H2 2869   3.417   3.058   1.582 -1.2238 -0.4880 -0.4484
  969TIP3   OH2 2870   4.330   4.951   2.403  0.1400  0.0858  0.2095
  969TIP3    H1 2871   4.395   4.898   2.356  0.2646  1.9586 -1.8670
  969TIP3    H2 2872   4.380   4.998   2.469  0.8068  0.9230 -0.8621
  970TIP3   OH2 2873   4.167   4.585   0.881 -0.3047 -0.6153  0.0516
  970TIP3    H1 2874   4.246   4.553   0.924  1.2816  0.0490 -2.1714
  970TIP3    H2 2875   4.154   4.526   0.807 -1.6919 -0.4941  0.1769
  971TIP3   OH2 2876   3.131   2.930   1.067 -0.7969 -0.4029 -0.2307
  971TIP3    H1 2877   3.198   2.874   1.108 -1.8461 -1.6625 -0.1604
  971TIP3    H2 2878   3.167   2.950   0.980 -0.3568 -1.1262 -0.2283
  972TIP3   OH2 2879   5.862   5.760   5.420 -0.5364 -0.2107  0.6521
  972TIP3    H1 2880   5.880   5.681   5.369  0.5160  0.4962 -0.1254
  972TIP3    H2 2881   5.877   5.734   5.511  3.0029 -0.1879  0.2284
  973TIP3   OH2 2882   1.022   2.514   2.319  0.7448 -0.0875 -0.0494
  973TIP3    H1 2883   0.981   2.529   2.233  1.6777 -1.2376 -0.7243
  973TIP3    H2 2884   1.005   2.595   2.367  0.3330  0.6567 -1.3710
  974TIP3   OH2 2885   1.895   1.633   4.760 -0.5733 -0.0930 -0.1555
  974TIP3    H1 2886   1.813   1.650   4.713 -2.0535 -1.7500  1.6869
  974TIP3    H2 2887   1.963   1.661   4.698 -2.4690  3.4412 -0.9179
  975TIP3   OH2 2888   3.272   4.878   2.237 -0.1751  0.4978 -0.0008
  975TIP3    H1 2889   3.309   4.872   2.325  0.7827 -0.4876 -0.4601
  975TIP3    H2 2890   3.334   4.932   2.188 -0.4222  0.5791 -0.2294
  976TIP3   OH2 2891   6.629   6.634   0.606  0.6164  0.1252 -0.0463
  976TIP3    H1 2892   6.646   6.641   0.512  0.3037  1.8424 -0.0057
  976TIP3    H2 2893   6.652   6.543   0.628 -0.3262 -0.6239 -1.9703
  977TIP3   OH2 2894   1.300   5.320   1.879 -0.9177  0.0285  0.1312
  977TIP3    H1 2895   1.210   5.344   1.857 -0.7252 -0.3066 -1.1302
  977TIP3    H2 2896   1.352   5.394   1.848 -0.6564 -0.3294 -0.2886
  978TIP3   OH2 2897   3.749   1.018   1.484  0.5314  0.7395  0.5515
  978TIP3    H1 2898   3.694   1.056   1.415  0.4209  0.1416  0.3000
  978TIP3    H2 2899   3.698   0.945   1.517  1.3422 -0.0907  0.0144
  979TIP3   OH2 2900   5.151   2.369   1.362  0.0145  0.2337 -0.0020
  979TIP3    H1 2901   5.088   2.404   1.299  1.0514  0.4837 -0.9378
  979TIP3    H2 2902   5.200   2.303   1.313  0.7332  0.3113  0.5893
  980TIP3   OH2 2903   0.550   2.262   4.733  0.3506 -0.3479 -0.1230
  980TIP3    H1 2904   0.498   2.183   4.717  0.5378 -0.4174 -0.3908
  980TIP3    H2 2905   0.630   2.229   4.773 -0.4891 -0.1071  1.8844
  981TIP3   OH2 2906   2.012   6.745   2.218 -0.2625  0.0944  0.1886
  981TIP3    H1 2907   1.917   6.759   2.217 -0.3563 -0.4712 -0.9121
  981TIP3    H2 2908   2.023   6.651   2.233  0.1224  0.1734  0.4108
  982TIP3   OH2 2909   1.352   0.402   2.321 -0.0814 -0.3896  0.8982
  982TIP3    H1 2910   1.284   0.360   2.268  0.5149 -0.2752  0.0312
  982TIP3    H2 2911   1.422   0.423   2.260  0.7397 -0.4818  1.7780
  983TIP3   OH2 2912   3.642   4.207   3.525  0.1903 -0.2725 -0.2886
  983TIP3    H1 2913   3.629   4.226   3.618  0.0661 -1.3632 -0.0672
  983TIP3    H2 2914   3.714   4.144   3.522  0.8790  0.5286 -1.0150
  984TIP3   OH2 2915   4.777   4.829   4.149 -0.0270  0.8088 -0.0272
  984TIP3    H1 2916   4.854   4.850   4.096  0.3624 -0.3767  0.0408
  984TIP3    H2 2917   4.705   4.826   4.087  0.5360 -1.2769 -0.6625
  985TIP3   OH2 2918   0.412   5.478   4.775 -0.4864  0.1931 -0.3601
  985TIP3    H1 2919   0.338   5.482   4.834 -0.5623  0.0234 -0.4404
  985TIP3    H2 2920   0.465   5.554   4.796 -0.3496 -0.0402  0.1413
  986TIP3   OH2 2921   0.181   6.684   2.135 -0.2854 -0.6686  0.0956
  986TIP3    H1 2922   0.212   6.730   2.056  0.1031 -1.8757 -0.4812
  986TIP3    H2 2923   0.106   6.735   2.164  0.6748  0.8433  0.0096
  987TIP3   OH2 2924   5.384   3.867   0.852  0.2230  0.2497 -0.5549
  987TIP3    H1 2925   5.304   3.919   0.855 -0.2197 -0.4221 -0.5367
  987TIP3    H2 2926   5.436   3.898   0.926 -0.1831  0.4338 -0.3447
  988TIP3   OH2 2927   1.335   5.181   5.206  0.4704 -0.8661  0.2458
  988TIP3    H1 2928   1.279   5.220   5.139  1.2079 -0.5377 -0.1957
  988TIP3    H2 2929   1.424   5.196   5.174  0.9353  1.0454  2.2258
  989TIP3   OH2 2930   0.856   4.084   1.728  0.2582 -0.2679 -0.7881
  989TIP3    H1 2931   0.899   4.011   1.774  1.0688  0.2922 -0.6198
  989TIP3    H2 2932   0.814   4.134   1.798  0.0347 -0.3604 -0.8571
  990TIP3   OH2 2933   0.649   6.749   1.212 -0.3990 -0.0644 -0.5739
  990TIP3    H1 2934   0.657   6.711   1.300 -1.5835 -1.3430 -0.9961
  990TIP3    H2 2935   0.681   6.839   1.222 -1.1661  0.0361  1.3260
  991TIP3   OH2 2936   6.390   4.795   1.049 -0.4071 -0.3967  0.4978
  991TIP3    H1 2937   6.432   4.728   0.996  1.6399 -0.0147  1.5578
  991TIP3    H2 2938   6.299   4.795   1.019  0.4058 -0.9048 -2.2779
  992TIP3   OH2 2939   2.011   1.289   4.860 -0.1506 -0.0239 -0.9394
  992TIP3    H1 2940   2.045   1.268   4.773 -0.2198 -0.0867 -0.9511
  992TIP3    H2 2941   2.080   1.342   4.900  0.8170 -1.6865 -0.2694
  993TIP3   OH2 2942   5.850   5.976   3.519  0.6784 -0.3825  0.3178
  993TIP3    H1 2943   5.846   6.038   3.591 -0.0633  0.3545 -0.3433
  993TIP3    H2 2944   5.765   5.931   3.521 -0.0157  0.7860 -1.0721
  994TIP3   OH2 2945   0.808   1.663   2.066 -0.0970 -0.1254 -0.0713
  994TIP3    H1 2946   0.718   1.659   2.100 -0.0069 -1.6371  0.0696
  994TIP3    H2 2947   0.857   1.712   2.132 -0.6257 -0.1096  0.3174
  995TIP3   OH2 2948   5.609   3.356   1.031 -0.9565 -0.6055 -0.3795
  995TIP3    H1 2949   5.586   3.316   1.115 -2.5582  0.4063 -0.3000
  995TIP3    H2 2950   5.680   3.417   1.052 -1.6252 -0.0538  0.3380
  996TIP3   OH2 2951   4.021   1.404   2.246  0.1780  0.3445 -0.0454
  996TIP3    H1 2952   4.024   1.500   2.238 -1.0121  0.4693  0.8199
  996TIP3    H2 2953   3.933   1.380   2.218  0.1829 -0.4066  0.5508
  997TIP3   OH2 2954   3.690   6.364   2.794 -0.3796 -0.4686  0.0286
  997TIP3    H1 2955   3.761   6.348   2.856 -0.1419 -0.3961 -0.2215
  997TIP3    H2 2956   3.619   6.308   2.824 -1.2935  1.6012  2.0668
  998TIP3   OH2 2957   1.986   4.167   4.545  0.3480 -0.0862 -0.1912
  998TIP3    H1 2958   1.902   4.137   4.512 -0.3149  1.4291  0.0245
  998TIP3    H2 2959   2.001   4.113   4.623 -0.9687  0.3605  0.4016
  999TIP3   OH2 2960   5.150   5.909   3.917 -0.0686  0.2646  0.4903
  999TIP3    H1 2961   5.158   5.967   3.993 -1.3735  0.0673  0.8062
  999TIP3    H2 2962   5.059   5.918   3.890  0.0879 -0.5511 -0.3444
 1000TIP3   OH2 2963   7.173   5.056   3.850 -0.0169 -0.3227  0.2311
 1000TIP3    H1 2964   7.207   5.085   3.935  0.6771 -0.5165  0.0271
 1000TIP3    H2 2965   7.139   4.968   3.868 -2.1253  0.5505  0.8492
 1001TIP3   OH2 2966   2.942   0.274   4.709  0.0520 -0.2252  0.3019
 1001TIP3    H1 2967   2.855   0.311   4.694  0.1553 -0.5479 -1.3258
 1001TIP3    H2 2968   2.926   0.183   4.731 -0.0202 -0.4252 -0.5412
 1002TIP3   OH2 2969   5.163   4.674   5.031 -0.8624  0.1858 -0.2849
 1002TIP3    H1 2970   5.258   4.666   5.036 -0.8921 -0.5161 -0.7827
 1002TIP3    H2 2971   5.148   4.730   4.955 -0.8561 -0.1402 -0.5320
 1003TIP3   OH2 2972   1.887   1.357   1.751 -0.2016 -0.0953  0.3188
 1003TIP3    H1 2973   1.809   1.408   1.770  0.3992  1.1820 -0.5319
 1003TIP3    H2 2974   1.957   1.422   1.741  1.0530 -1.2210  1.3606
 1004TIP3   OH2 2975   4.595   5.340   3.062 -0.0924 -0.6125  0.9805
 1004TIP3    H1 2976   4.622   5.330   3.153  1.8735  0.9563  0.6431
 1004TIP3    H2 2977   4.586   5.434   3.050  0.1741 -0.7562 -0.5676
 1005TIP3   OH2 2978   4.491   4.147   5.725  0.3834 -0.3523  0.4578
 1005TIP3    H1 2979   4.530   4.212   5.666 -0.1622 -0.5555 -0.1308
 1005TIP3    H2 2980   4.565   4.114   5.776  0.5497  1.3862  1.4299
 1006TIP3   OH2 2981   2.632   6.087   4.367 -0.1028 -0.0630  0.2947
 1006TIP3    H1 2982   2.600   6.175   4.390 -0.0294  0.3621 -1.1126
 1006TIP3    H2 2983   2.713   6.077   4.418 -0.0883  0.7024  0.4430
 1007TIP3   OH2 2984   1.781   1.822   3.288 -0.5767  0.9784  0.3766
 1007TIP3    H1 2985   1.778   1.753   3.223  0.3949  0.0468  1.2728
 1007TIP3    H2 2986   1.691   1.830   3.320 -0.6927  0.1187  0.2721
 1008TIP3   OH2 2987   6.210   5.878   2.638 -0.0128  0.5255  0.0757
 1008TIP3    H1 2988   6.146   5.807   2.626  2.2536 -1.9801  1.6033
 1008TIP3    H2 2989   6.278   5.860   2.574  1.1990  0.4986  1.3139
 1009TIP3   OH2 2990   2.396   0.981   3.601 -0.1329  0.0415 -0.1143
 1009TIP3    H1 2991   2.363   1.032   3.674 -0.3516 -0.5210  0.1891
 1009TIP3    H2 2992   2.485   1.014   3.586 -0.3927  0.7264 -0.1391
 1010TIP3   OH2 2993   1.715   5.688   2.994  0.1397 -0.1422  0.2327
 1010TIP3    H1 2994   1.717   5.599   3.029  1.6400  0.1754  1.0763
 1010TIP3    H2 2995   1.795   5.729   3.029 -1.3720  2.0730  1.3083
 1011TIP3   OH2 2996   6.110   3.916   1.984 -0.3647 -0.4816 -0.4959
 1011TIP3    H1 2997   6.085   4.006   2.006  0.2503  0.2208 -2.4283
 1011TIP3    H2 2998   6.032   3.879   1.942 -1.9840 -2.2387  3.5941
 1012TIP3   OH2 2999   1.674   1.729   2.259  0.4905  1.1566 -0.1648
 1012TIP3    H1 3000   1.758   1.684   2.264  0.2391  0.8481  2.1174
 1012TIP3    H2 3001   1.671   1.784   2.337 -1.4499  1.1212 -0.1597
 1013TIP3   OH2 3002   3.939   0.412   2.473 -0.2389  0.9358 -0.3181
 1013TIP3    H1 3003   3.885   0.460   2.535  0.6297 -0.1128  1.2999
 1013TIP3    H2 3004   4.010   0.375   2.525  0.2665 -0.3840 -1.8462
 1014TIP3   OH2 3005   1.467   2.765   1.231  0.4538  0.5281 -0.1935
 1014TIP3    H1 3006   1.453   2.807   1.146 -0.4723  0.3883 -0.1154
 1014TIP3    H2 3007   1.386   2.782   1.280 -0.0238 -1.4708 -0.2238
 1015TIP3   OH2 3008   0.580   6.467   2.080  0.2290  0.2358 -0.9546
 1015TIP3    H1 3009   0.562   6.374   2.093  0.6293  0.2207 -0.4573
 1015TIP3    H2 3010   0.662   6.482   2.127 -0.4814  1.1011  0.0853
 1016TIP3   OH2 3011   7.134   0.402   3.599 -0.3766  0.0883  0.0723
 1016TIP3    H1 3012   7.109   0.312   3.618  2.0659 -0.6399  0.2273
 1016TIP3    H2 3013   7.064   0.436   3.544 -0.6626 -2.3986 -1.2050
 1017TIP3   OH2 3014   3.055   1.572   5.348 -0.1900 -0.0700 -0.3351
 1017TIP3    H1 3015   3.006   1.632   5.405  0.1480  0.4020 -0.5330
 1017TIP3    H2 3016   3.133   1.551   5.398 -0.3092 -0.3463 -0.2662
 1018TIP3   OH2 3017   1.950   4.693   0.461 -0.6187 -0.3984 -0.0162
 1018TIP3    H1 3018   1.912   4.748   0.528 -2.8755 -0.8234 -0.8680
 1018TIP3    H2 3019   1.901   4.611   0.465 -0.5563 -0.5906 -1.8861
 1019TIP3   OH2 3020   5.803   2.259   3.156 -0.5636 -0.1598  0.4934
 1019TIP3    H1 3021   5.790   2.260   3.251 -2.0322 -1.8781  0.3651
 1019TIP3    H2 3022   5.830   2.170   3.137 -1.6072 -0.2083 -0.8481
 1020TIP3   OH2 3023   2.663   3.645   5.219  0.3361 -0.2852  0.3415
 1020TIP3    H1 3024   2.603   3.702   5.171  3.5462  1.1845 -2.3444
 1020TIP3    H2 3025   2.606   3.587   5.269 -3.2533  1.1908 -1.6533
 1021TIP3   OH2 3026   2.660   1.743   2.531 -0.2917 -0.0774 -0.2082
 1021TIP3    H1 3027   2.615   1.826   2.543 -1.6350 -0.2903 -2.9575
 1021TIP3    H2 3028   2.744   1.766   2.492 -0.1544  0.0687  0.1788
 1022TIP3   OH2 3029   6.266   6.521   1.635 -0.0772  0.4325 -0.1623
 1022TIP3    H1 3030   6.231   6.570   1.710  1.2502 -1.0116  1.4778
 1022TIP3    H2 3031   6.199   6.455   1.617  0.2935 -0.2321  0.8186
 1023TIP3   OH2 3032   5.302   5.422   3.609 -0.3172  0.3309 -0.1689
 1023TIP3    H1 3033   5.308   5.436   3.515 -0.4192 -1.4010 -0.4596
 1023TIP3    H2 3034   5.208   5.414   3.626 -0.3111  0.8006  0.1246
 1024TIP3   OH2 3035   5.669   5.962   0.483 -0.6767 -0.5478  0.3357
 1024TIP3    H1 3036   5.744   6.021   0.486  0.1568 -1.5474 -0.0028
 1024TIP3    H2 3037   5.593   6.019   0.486  0.0979  0.5535 -0.3732
 1025TIP3   OH2 3038   0.143   1.288   0.089  0.0515 -0.2841  0.1270
 1025TIP3    H1 3039   0.202   1.217   0.064  0.3277  0.3441 -1.1170
 1025TIP3    H2 3040   0.089   1.303   0.011 -0.6958  0.1898  0.7207
 1026TIP3   OH2 3041   4.767   6.179   3.156  0.0729 -0.4533  0.4905
 1026TIP3    H1 3042   4.851   6.135   3.168  0.1843 -0.0441  1.2965
 1026TIP3    H2 3043   4.790   6.269   3.133 -0.1505 -0.5051  0.0466
 1027TIP3   OH2 3044   2.117   4.155   3.826  0.8157 -0.3727 -0.2866
 1027TIP3    H1 3045   2.158   4.074   3.795  1.7608  0.4307 -1.2261
 1027TIP3    H2 3046   2.035   4.161   3.779 -0.4942 -2.0114  1.6214
 1028TIP3   OH2 3047   2.333   2.844   3.474 -0.2798  0.2685 -0.0431
 1028TIP3    H1 3048   2.337   2.887   3.388 -1.0365  0.2558 -0.0924
 1028TIP3    H2 3049   2.373   2.907   3.534  2.1384 -0.5406 -0.6819
 1029TIP3   OH2 3050   5.244   1.070   3.925  0.3545 -0.4892 -0.4711
 1029TIP3    H1 3051   5.226   1.004   3.858  1.2511 -1.5411  0.2763
 1029TIP3    H2 3052   5.208   1.032   4.006  0.7594  0.0014 -0.0552
 1030TIP3   OH2 3053   6.926   5.330   0.731 -0.0662  0.4622  0.1915
 1030TIP3    H1 3054   6.864   5.260   0.749  0.0302  0.7009  1.5486
 1030TIP3    H2 3055   7.011   5.287   0.727 -0.0827  0.4156  0.3574
 1031TIP3   OH2 3056   0.110   4.462   1.226 -0.1067  0.4730 -0.5067
 1031TIP3    H1 3057   0.062   4.421   1.154 -0.0936 -0.4509 -0.0021
 1031TIP3    H2 3058   0.190   4.495   1.186 -0.1893  0.1525 -0.9485
 1032TIP3   OH2 3059   4.297   3.440   0.674 -0.0629 -0.2266  0.0691
 1032TIP3    H1 3060   4.278   3.438   0.580 -0.9213 -1.1619  0.2516
 1032TIP3    H2 3061   4.222   3.397   0.715  0.0499  0.6165  1.2346
 1033TIP3   OH2 3062   0.953   0.793   3.746 -0.3115 -0.0697 -0.0482
 1033TIP3    H1 3063   0.984   0.765   3.660 -0.5984 -3.0653  0.7092
 1033TIP3    H2 3064   0.858   0.802   3.735 -0.1908  0.8618 -0.3543
 1034TIP3   OH2 3065   2.299   2.370   5.366  0.1036 -0.5107 -0.3000
 1034TIP3    H1 3066   2.244   2.446   5.345  1.9235  0.9617 -0.0668
 1034TIP3    H2 3067   2.351   2.356   5.287  0.7983 -0.5730  0.1591
 1035TIP3   OH2 3068   2.662   5.219   1.592  0.1110 -0.1569  0.0980
 1035TIP3    H1 3069   2.706   5.304   1.584  1.3005 -0.7785 -0.2316
 1035TIP3    H2 3070   2.732   5.155   1.578 -1.1731 -1.2001 -1.9488
 1036TIP3   OH2 3071   2.204   3.701   5.257  0.5030 -0.8212  0.2483
 1036TIP3    H1 3072   2.287   3.725   5.215 -0.3812  1.6268 -0.2660
 1036TIP3    H2 3073   2.143   3.690   5.185  0.0677 -1.3708  0.6941
 1037TIP3   OH2 3074   1.570   3.243   5.829 -0.1356  0.2464  0.0246
 1037TIP3    H1 3075   1.651   3.213   5.787  1.5482  2.3765  1.5046
 1037TIP3    H2 3076   1.509   3.256   5.757  1.1475 -0.5393 -1.2540
 1038TIP3   OH2 3077   1.925   4.209   2.511  0.1731 -0.2806 -0.6333
 1038TIP3    H1 3078   1.861   4.163   2.566  0.6895  1.6162  1.7424
 1038TIP3    H2 3079   2.010   4.187   2.550  0.4565  2.1932  0.3010
 1039TIP3   OH2 3080   2.394   6.519   4.438  0.1417 -0.3135 -0.0968
 1039TIP3    H1 3081   2.344   6.527   4.357 -0.5272 -0.0800  0.3333
 1039TIP3    H2 3082   2.428   6.607   4.454 -0.4396 -0.1632  0.3264
 1040TIP3   OH2 3083   3.981   1.956   0.650  0.1457  0.8520 -0.0666
 1040TIP3    H1 3084   4.075   1.968   0.667  0.3169  0.8649 -0.9377
 1040TIP3    H2 3085   3.969   1.988   0.560 -0.4274 -0.4437 -0.4822
 1041TIP3   OH2 3086   3.153   4.835   3.681 -0.1757  0.6192 -0.3032
 1041TIP3    H1 3087   3.239   4.832   3.638 -0.3004  2.2005 -0.7369
 1041TIP3    H2 3088   3.157   4.766   3.748  0.9482 -0.1984 -1.1636
 1042TIP3   OH2 3089   2.352   2.595   3.551  0.1354  0.5265  0.3420
 1042TIP3    H1 3090   2.346   2.682   3.511  2.0466  0.2204 -0.7173
 1042TIP3    H2 3091   2.363   2.535   3.477 -0.7190 -0.5933  1.0839
 1043TIP3   OH2 3092   6.077   1.334   4.534  0.6551  0.4632  0.4035
 1043TIP3    H1 3093   6.090   1.418   4.577  0.6396 -0.0389  1.4219
 1043TIP3    H2 3094   6.027   1.354   4.456  1.0883  1.4628  0.3706
 1044TIP3   OH2 3095   6.316   2.355   3.812  0.6060 -0.2477 -0.3550
 1044TIP3    H1 3096   6.332   2.264   3.787  0.5607 -0.4650  0.3798
 1044TIP3    H2 3097   6.250   2.387   3.751  1.3791 -0.3884 -1.2762
 1045TIP3   OH2 3098   1.840   0.088   1.975 -0.1194 -0.4277  0.8011
 1045TIP3    H1 3099   1.864   0.017   2.034  1.1578 -0.4483  0.2887
 1045TIP3    H2 3100   1.764   0.056   1.927 -0.1134 -1.0793  1.2213
 1046TIP3   OH2 3101   4.695   4.027   5.419  0.1227 -0.0748  0.1998
 1046TIP3    H1 3102   4.745   4.070   5.350  1.4942 -1.6378  0.1436
 1046TIP3    H2 3103   4.606   4.059   5.408  0.5663  0.6882 -1.4859
 1047TIP3   OH2 3104   2.506   5.066   3.409 -0.1029  0.2376 -0.4953
 1047TIP3    H1 3105   2.457   4.984   3.396 -0.5776  0.4524 -0.0817
 1047TIP3    H2 3106   2.461   5.130   3.354 -1.9833  1.0981  1.8500
 1048TIP3   OH2 3107   6.918   4.822   0.200  0.1888 -0.2504 -0.4649
 1048TIP3    H1 3108   6.976   4.759   0.244  1.7749  1.3187 -0.2041
 1048TIP3    H2 3109   6.973   4.862   0.133 -1.0434  0.2825 -1.1956
 1049TIP3   OH2 3110   3.155   3.441   0.131  0.4399 -0.3729  0.6309
 1049TIP3    H1 3111   3.071   3.399   0.147  0.0156  0.5537  0.9139
 1049TIP3    H2 3112   3.139   3.496   0.054  1.2289 -1.3800 -0.2811
 1050TIP3   OH2 3113   2.288   6.482   1.431 -0.0102 -0.0501 -0.2337
 1050TIP3    H1 3114   2.362   6.469   1.491 -0.0456  1.1813  0.0855
 1050TIP3    H2 3115   2.266   6.574   1.439 -0.6701 -0.0891 -1.3982
 1051TIP3   OH2 3116   5.132   5.297   1.455 -0.0597  0.2500  0.5959
 1051TIP3    H1 3117   5.052   5.344   1.481 -0.6029  0.5487 -1.4797
 1051TIP3    H2 3118   5.143   5.317   1.362  1.9925 -0.4612  0.6395
 1052TIP3   OH2 3119   3.829   2.943   0.795  0.2271  0.1484  0.6136
 1052TIP3    H1 3120   3.793   3.025   0.828 -1.7641 -0.8131  0.9619
 1052TIP3    H2 3121   3.867   2.966   0.711 -2.1835  1.0905 -0.3033
 1053TIP3   OH2 3122   6.885   6.512   2.973 -0.2627  0.2344 -0.0902
 1053TIP3    H1 3123   6.871   6.467   2.890 -1.7718 -0.6409  0.5954
 1053TIP3    H2 3124   6.816   6.578   2.977 -1.4757 -1.0351  1.2958
 1054TIP3   OH2 3125   5.538   5.838   4.809 -0.6654  0.0181  0.2209
 1054TIP3    H1 3126   5.515   5.797   4.893  0.1971  1.3625  1.1565
 1054TIP3    H2 3127   5.456   5.839   4.760 -1.4820  0.2910  1.5267
 1055TIP3   OH2 3128   0.182   5.773   5.785 -0.4229 -0.1073  0.1392
 1055TIP3    H1 3129   0.095   5.751   5.751 -0.4103 -0.6938  0.4826
 1055TIP3    H2 3130   0.176   5.865   5.809 -1.3452 -0.4707  1.3656
 1056TIP3   OH2 3131   6.623   5.820   2.460 -0.2190 -0.2954 -0.7480
 1056TIP3    H1 3132   6.714   5.808   2.435 -0.4165 -3.0899 -0.4116
 1056TIP3    H2 3133   6.627   5.867   2.543  1.0815 -2.2203  0.3529
 1057TIP3   OH2 3134   4.865   3.622   3.322 -0.2093 -0.3295 -0.1267
 1057TIP3    H1 3135   4.908   3.540   3.296 -0.3120 -0.4068 -0.0515
 1057TIP3    H2 3136   4.817   3.649   3.244 -0.2981 -0.4201 -0.1032
 1058TIP3   OH2 3137   6.325   0.241   3.507  0.0883 -0.3808 -0.0105
 1058TIP3    H1 3138   6.253   0.285   3.551  1.3228  0.0204  1.7358
 1058TIP3    H2 3139   6.343   0.164   3.561  1.9722  0.3840  0.5241
 1059TIP3   OH2 3140   5.969   1.660   5.390 -0.6794  0.8573 -0.4884
 1059TIP3    H1 3141   5.932   1.617   5.467 -0.5297  0.6082 -0.5577
 1059TIP3    H2 3142   5.942   1.752   5.400  2.7595  1.7865  2.0461
 1060TIP3   OH2 3143   2.105   1.831   5.606 -0.3756  0.0139 -0.8657
 1060TIP3    H1 3144   2.143   1.810   5.521 -0.8491 -1.0262 -0.8255
 1060TIP3    H2 3145   2.011   1.831   5.592 -0.4930 -0.9468 -0.1770
 1061TIP3   OH2 3146   5.769   0.512   2.428  0.4827 -0.4088 -0.0762
 1061TIP3    H1 3147   5.808   0.595   2.400  0.5138 -0.4316 -0.1004
 1061TIP3    H2 3148   5.689   0.538   2.474 -0.1463 -0.4277 -1.1343
 1062TIP3   OH2 3149   0.551   4.036   3.208 -0.0848 -0.0247  0.5353
 1062TIP3    H1 3150   0.545   3.976   3.134  1.0238  1.3710 -0.7474
 1062TIP3    H2 3151   0.644   4.059   3.213 -0.6743  2.8586 -0.1144
 1063TIP3   OH2 3152   5.905   0.038   3.369 -0.0937  0.0534  0.0063
 1063TIP3    H1 3153   5.932   0.129   3.380 -3.2385  1.1243  0.1215
 1063TIP3    H2 3154   5.890   0.029   3.275  5.2674 -2.1717 -0.9667
 1064TIP3   OH2 3155   3.565   5.028   5.072 -0.1829  0.4216  0.1579
 1064TIP3    H1 3156   3.642   5.064   5.115  0.1272  0.7400 -0.6514
 1064TIP3    H2 3157   3.566   4.935   5.094  0.4066  0.4351  0.1853
 1065TIP3   OH2 3158   6.890   6.277   0.810  0.6978  0.3852 -0.4722
 1065TIP3    H1 3159   6.875   6.184   0.822  2.7340 -0.3474 -2.7811
 1065TIP3    H2 3160   6.818   6.307   0.756  0.7768 -0.1769 -0.8893
 1066TIP3   OH2 3161   4.994   4.311   5.098 -0.4547 -0.3053  0.1357
 1066TIP3    H1 3162   4.923   4.249   5.078 -0.7520 -0.5434  1.7767
 1066TIP3    H2 3163   4.955   4.371   5.162 -0.0060  1.2718 -1.0239
 1067TIP3   OH2 3164   5.729   4.700   3.346  0.3791  0.0305  0.2000
 1067TIP3    H1 3165   5.792   4.641   3.304  1.6475  0.3612  1.5642
 1067TIP3    H2 3166   5.733   4.780   3.293 -1.5262 -1.0913 -1.8051
 1068TIP3   OH2 3167   2.847   6.160   0.812  0.0212 -0.3682  0.0837
 1068TIP3    H1 3168   2.821   6.105   0.738  0.7554 -1.0263  0.3005
 1068TIP3    H2 3169   2.776   6.224   0.820  0.1745  0.0425 -1.4974
 1069TIP3   OH2 3170   2.806   0.298   1.068  0.2504  0.0476  0.3747
 1069TIP3    H1 3171   2.768   0.371   1.118 -2.4872 -0.9656 -0.0081
 1069TIP3    H2 3172   2.785   0.221   1.120  0.6897 -0.6893 -0.5255
 1070TIP3   OH2 3173   6.287   6.100   0.441 -0.6506  0.3476 -0.5726
 1070TIP3    H1 3174   6.296   6.041   0.515  0.4266  0.8235 -0.3067
 1070TIP3    H2 3175   6.239   6.176   0.475 -1.1864  0.0589 -0.6717
 1071TIP3   OH2 3176   0.543   1.663   2.191 -0.1657 -0.2701 -0.4036
 1071TIP3    H1 3177   0.458   1.700   2.214  0.3305  0.4383  0.3407
 1071TIP3    H2 3178   0.606   1.713   2.243  0.9028  0.5800 -2.4042
 1072TIP3   OH2 3179   4.959   5.198   5.363 -0.2862 -0.0452 -0.1389
 1072TIP3    H1 3180   4.963   5.271   5.426 -0.0676 -0.4248  0.2926
 1072TIP3    H2 3181   4.893   5.139   5.400  0.2850 -0.5671  0.0565
 1073TIP3   OH2 3182   3.764   1.753   2.199  0.0821 -0.0743 -0.1348
 1073TIP3    H1 3183   3.733   1.835   2.162 -1.6904 -0.8503 -0.4731
 1073TIP3    H2 3184   3.836   1.727   2.142 -0.6158  0.2768 -1.2126
 1074TIP3   OH2 3185   3.659   1.875   4.210 -0.5491  0.3390  0.1181
 1074TIP3    H1 3186   3.725   1.815   4.174 -0.2608  1.3320 -1.0818
 1074TIP3    H2 3187   3.673   1.872   4.305  0.2211 -0.5910 -0.0069
 1075TIP3   OH2 3188   6.615   5.498   1.010  0.2821 -0.0282 -0.2224
 1075TIP3    H1 3189   6.705   5.473   0.992  0.6430  0.4788  0.7853
 1075TIP3    H2 3190   6.567   5.475   0.931  0.2064 -5.3812  1.0190
 1076TIP3   OH2 3191   2.502   1.286   0.553  0.6006 -0.0255 -0.3107
 1076TIP3    H1 3192   2.503   1.377   0.582  0.3921 -0.5971  1.5836
 1076TIP3    H2 3193   2.418   1.276   0.507 -1.2321 -0.1859  2.7911
 1077TIP3   OH2 3194   2.396   2.263   5.778 -0.2802 -0.2194 -0.6806
 1077TIP3    H1 3195   2.306   2.272   5.806 -0.5801 -1.3749 -1.2030
 1077TIP3    H2 3196   2.416   2.346   5.734 -0.1848  1.1196  1.7508
 1078TIP3   OH2 3197   5.023   2.670   0.407 -0.1561 -0.5579 -0.2653
 1078TIP3    H1 3198   5.039   2.580   0.376 -0.9800 -0.3188 -1.4168
 1078TIP3    H2 3199   4.993   2.658   0.497 -0.6765 -1.4818 -0.5395
 1079TIP3   OH2 3200   1.277   6.422   5.417 -0.4797 -0.2014  0.4006
 1079TIP3    H1 3201   1.233   6.388   5.495  0.7475  0.1117  1.2608
 1079TIP3    H2 3202   1.308   6.509   5.443  0.6174 -0.4001 -0.1641
 1080TIP3   OH2 3203   6.115   5.357   4.541  0.1187 -0.5727 -0.2347
 1080TIP3    H1 3204   6.058   5.313   4.477  1.2544 -0.4162 -1.4046
 1080TIP3    H2 3205   6.158   5.426   4.491  0.1594  0.3410  1.0117
 1081TIP3   OH2 3206   0.214   2.720   3.533 -0.2356  0.9005  0.4935
 1081TIP3    H1 3207   0.258   2.804   3.518  0.7272  0.4690  0.7968
 1081TIP3    H2 3208   0.122   2.737   3.514  0.0541  1.8455 -0.1515
 1082TIP3   OH2 3209   6.942   5.100   3.180  0.4380 -0.1544  0.1178
 1082TIP3    H1 3210   6.895   5.179   3.208 -0.4005 -0.2785 -0.9034
 1082TIP3    H2 3211   6.961   5.115   3.087  2.1913 -0.2357  0.4191
 1083TIP3   OH2 3212   1.590   5.951   4.095  0.2539  0.5996 -0.2597
 1083TIP3    H1 3213   1.574   6.041   4.124 -0.1764 -0.2442  2.3793
 1083TIP3    H2 3214   1.684   5.938   4.107  0.3325  0.7210 -0.7350
 1084TIP3   OH2 3215   1.199   4.911   5.095  0.7611 -0.2337 -0.0220
 1084TIP3    H1 3216   1.243   4.912   5.180  0.3211 -1.0993  0.2185
 1084TIP3    H2 3217   1.142   4.988   5.096  0.2251 -0.6410  0.7418
 1085TIP3   OH2 3218   2.766   6.665   2.889 -0.1440  0.0695  0.2230
 1085TIP3    H1 3219   2.676   6.698   2.888 -0.0678  0.2968 -1.0156
 1085TIP3    H2 3220   2.816   6.734   2.933 -0.6594 -0.3765  1.5864
 1086TIP3   OH2 3221   3.029   1.658   1.395  0.4912 -0.2616  0.3538
 1086TIP3    H1 3222   3.096   1.661   1.326  0.1141  1.8253  0.0082
 1086TIP3    H2 3223   2.961   1.600   1.360 -0.2346  1.6318 -1.6220
 1087TIP3   OH2 3224   6.092   0.453   0.353  0.4238 -0.1701  0.1164
 1087TIP3    H1 3225   6.095   0.440   0.447  1.5764 -4.9011 -0.3370
 1087TIP3    H2 3226   6.182   0.474   0.328  0.2018  0.6543 -0.0456
 1088TIP3   OH2 3227   0.702   6.718   2.371  0.2861 -0.4498  0.6122
 1088TIP3    H1 3228   0.746   6.690   2.452  0.7836  1.1564  0.9301
 1088TIP3    H2 3229   0.744   6.801   2.349 -0.3120 -0.5432 -0.9421
 1089TIP3   OH2 3230   3.794   5.092   3.935  0.0346 -0.4589 -0.8863
 1089TIP3    H1 3231   3.818   5.167   3.881  0.8365 -0.8295 -1.0676
 1089TIP3    H2 3232   3.726   5.125   3.994 -2.4403 -0.5591 -3.4975
 1090TIP3   OH2 3233   0.180   0.694   2.550 -0.6399 -0.5496 -0.0192
 1090TIP3    H1 3234   0.158   0.735   2.466  1.5803 -0.6682 -0.7151
 1090TIP3    H2 3235   0.180   0.600   2.531 -1.4531 -0.6693  0.4923
 1091TIP3   OH2 3236   4.733   6.686   3.532  0.1567 -0.2771 -0.9065
 1091TIP3    H1 3237   4.824   6.687   3.561 -0.2932  0.8931  0.5361
 1091TIP3    H2 3238   4.695   6.611   3.577  0.3621 -0.7105 -1.4376
 1092TIP3   OH2 3239   1.396   0.104   5.194  0.2697  1.4028  0.0498
 1092TIP3    H1 3240   1.385   0.052   5.274 -2.9830  0.4902 -0.8773
 1092TIP3    H2 3241   1.469   0.063   5.149  0.8283  0.6430  1.5542
 1093TIP3   OH2 3242   4.267   2.439   0.608 -0.4327  0.1023  0.1581
 1093TIP3    H1 3243   4.219   2.419   0.687  1.8802 -2.7130  1.0215
 1093TIP3    H2 3244   4.359   2.433   0.633  0.4113  1.5208 -2.2169
 1094TIP3   OH2 3245   5.158   2.865   3.389 -0.5186 -0.6059  0.1217
 1094TIP3    H1 3246   5.179   2.894   3.477 -0.2908 -1.1838  0.2625
 1094TIP3    H2 3247   5.086   2.803   3.400 -0.0124 -1.2275 -0.0216
 1095TIP3   OH2 3248   1.764   0.049   5.411  0.2429  0.1490  0.1938
 1095TIP3    H1 3249   1.698   0.115   5.390  0.8191  0.2278 -1.5277
 1095TIP3    H2 3250   1.732   0.008   5.492 -1.7481  0.3863 -0.4147
 1096TIP3   OH2 3251   7.001   5.411   1.564 -0.2588  0.0198  0.3525
 1096TIP3    H1 3252   6.935   5.479   1.553  0.2076  0.3223 -0.7809
 1096TIP3    H2 3253   7.024   5.386   1.474 -0.5472 -1.7573  0.7535
 1097TIP3   OH2 3254   4.136   5.470   0.886  0.1335  0.1586 -0.6486
 1097TIP3    H1 3255   4.169   5.557   0.908 -0.9749  0.3475  0.3937
 1097TIP3    H2 3256   4.093   5.440   0.967 -0.7784 -0.7278 -1.4422
 1098TIP3   OH2 3257   7.049   5.633   1.254  0.0488  0.0396 -0.3336
 1098TIP3    H1 3258   7.101   5.561   1.219 -0.8605 -0.5934 -0.4035
 1098TIP3    H2 3259   6.995   5.663   1.181  1.5109  1.8422 -0.7476
 1099TIP3   OH2 3260   3.088   4.191   1.384  0.3831  0.0399 -0.0056
 1099TIP3    H1 3261   3.006   4.151   1.414  0.1135  1.0997  0.6872
 1099TIP3    H2 3262   3.146   4.188   1.460  1.1031 -0.9431 -0.5652
 1100TIP3   OH2 3263   2.612   6.463   3.569 -0.1769  0.5260  0.1311
 1100TIP3    H1 3264   2.679   6.525   3.541 -0.3256  0.6042 -0.0469
 1100TIP3    H2 3265   2.536   6.517   3.589 -0.5989  0.3300 -0.8779
 1101TIP3   OH2 3266   5.397   5.476   3.885  0.0221  0.0216  0.7049
 1101TIP3    H1 3267   5.313   5.511   3.916 -0.7147 -1.6085  0.6664
 1101TIP3    H2 3268   5.379   5.448   3.795  0.5947 -0.3904  0.7173
 1102TIP3   OH2 3269   4.481   3.693   5.124  0.6282 -0.1517 -0.0726
 1102TIP3    H1 3270   4.461   3.696   5.217  0.2490  0.8975 -0.1827
 1102TIP3    H2 3271   4.397   3.700   5.080  0.8784  0.2474 -0.5010
 1103TIP3   OH2 3272   1.821   0.009   2.482  0.2561  0.3456  0.0228
 1103TIP3    H1 3273   1.821   0.096   2.442 -1.0607  1.1454  1.6223
 1103TIP3    H2 3274   1.782   0.022   2.568  2.0331 -1.4666  1.1970
 1104TIP3   OH2 3275   0.860   2.950   2.273  0.2676  0.0629 -0.1594
 1104TIP3    H1 3276   0.858   3.036   2.316  0.8819  0.4675 -0.9131
 1104TIP3    H2 3277   0.953   2.932   2.260  0.1557 -0.8261  0.1741
 1105TIP3   OH2 3278   0.494   3.071   4.763 -0.2425 -0.2078 -0.4590
 1105TIP3    H1 3279   0.581   3.106   4.780 -0.7976  0.8105  0.4420
 1105TIP3    H2 3280   0.438   3.149   4.757 -1.3042 -0.8879  0.2836
 1106TIP3   OH2 3281   4.033   5.232   5.788  0.1152 -0.2910 -0.0852
 1106TIP3    H1 3282   4.011   5.222   5.696 -2.7457 -0.7200  0.5517
 1106TIP3    H2 3283   4.062   5.144   5.815  0.6368 -0.2457 -0.4812
 1107TIP3   OH2 3284   2.019   6.023   3.629 -0.3894  0.8960  0.3262
 1107TIP3    H1 3285   2.078   5.959   3.589  0.9565  1.4204  1.3959
 1107TIP3    H2 3286   1.956   5.970   3.677 -0.7418  0.3237 -0.7381
 1108TIP3   OH2 3287   6.243   2.415   4.059  0.0840 -0.0505 -0.1219
 1108TIP3    H1 3288   6.294   2.401   3.979 -1.5317 -1.5146 -0.9689
 1108TIP3    H2 3289   6.152   2.413   4.030 -0.5479 -0.7293  1.7579
 1109TIP3   OH2 3290   3.584   3.694   3.524 -0.0611 -0.1346  0.3522
 1109TIP3    H1 3291   3.557   3.694   3.432 -0.6413 -0.5700  0.5164
 1109TIP3    H2 3292   3.525   3.756   3.566 -2.5676 -2.8266  1.1754
 1110TIP3   OH2 3293   1.048   1.531   3.043 -0.6619 -0.4424 -0.4403
 1110TIP3    H1 3294   1.106   1.495   3.110 -1.3151  1.9671  1.5632
 1110TIP3    H2 3295   0.994   1.456   3.016 -1.1437 -1.3577  2.5934
 1111TIP3   OH2 3296   6.123   3.989   3.509 -0.3005 -0.4528  0.3266
 1111TIP3    H1 3297   6.182   3.994   3.433 -0.4569  1.6237  0.2630
 1111TIP3    H2 3298   6.181   3.971   3.583 -0.0085 -1.4751 -0.1380
 1112TIP3   OH2 3299   0.143   2.462   1.426 -0.4765 -0.1819  0.9220
 1112TIP3    H1 3300   0.194   2.543   1.427  0.3927 -0.7063  0.7892
 1112TIP3    H2 3301   0.097   2.461   1.510 -0.8503  0.6544  0.7383
 1113TIP3   OH2 3302   3.374   0.842   4.206  0.1520  0.5566  0.3108
 1113TIP3    H1 3303   3.436   0.816   4.274  1.2356  0.4976 -0.6453
 1113TIP3    H2 3304   3.289   0.845   4.249  0.6466 -0.4977  1.4123
 1114TIP3   OH2 3305   2.877   0.203   5.191 -0.1105  0.5040 -0.4121
 1114TIP3    H1 3306   2.822   0.212   5.113 -0.2766  0.1672 -0.3353
 1114TIP3    H2 3307   2.914   0.115   5.184 -0.3568  0.3656  0.0405
 1115TIP3   OH2 3308   1.191   3.390   0.231 -0.1305 -0.3972  0.0027
 1115TIP3    H1 3309   1.192   3.327   0.159 -0.3421 -0.2568 -0.1214
 1115TIP3    H2 3310   1.276   3.435   0.224 -1.1673  1.4787 -1.8001
 1116TIP3   OH2 3311   2.818   3.484   3.495  0.4035  0.3278  0.0142
 1116TIP3    H1 3312   2.812   3.578   3.512 -0.3688  0.5834 -1.5215
 1116TIP3    H2 3313   2.792   3.444   3.578  0.4869  1.4558  0.6132
 1117TIP3   OH2 3314   3.702   5.494   0.508 -0.6455 -0.3437 -0.2641
 1117TIP3    H1 3315   3.770   5.454   0.562 -0.4154  0.5184  0.1031
 1117TIP3    H2 3316   3.748   5.526   0.431 -0.9051 -1.1997 -0.7782
 1118TIP3   OH2 3317   3.520   6.184   5.804 -0.1881 -0.5677  0.5165
 1118TIP3    H1 3318   3.555   6.126   5.872  2.4355  0.4690  0.1721
 1118TIP3    H2 3319   3.468   6.249   5.853  2.8329  1.0428  1.8686
 1119TIP3   OH2 3320   5.257   2.765   3.144 -0.5054  0.2249  0.0650
 1119TIP3    H1 3321   5.222   2.769   3.233  0.1533  0.7143  0.3054
 1119TIP3    H2 3322   5.280   2.855   3.123 -2.1778  0.4013 -1.2284
 1120TIP3   OH2 3323   6.284   1.370   2.202  0.6120 -0.3685  0.3138
 1120TIP3    H1 3324   6.323   1.455   2.225  0.0554  0.0145 -0.1397
 1120TIP3    H2 3325   6.261   1.378   2.110 -1.0855 -0.3582  0.7154
 1121TIP3   OH2 3326   3.623   2.260   4.763 -0.6619 -0.4667 -0.9226
 1121TIP3    H1 3327   3.677   2.187   4.794  0.2471 -0.3357 -2.1265
 1121TIP3    H2 3328   3.568   2.222   4.695 -1.5857 -0.4354 -0.2070
 1122TIP3   OH2 3329   0.970   1.733   1.582  0.0507  0.1125  0.1649
 1122TIP3    H1 3330   1.002   1.645   1.601  0.7644  0.4184  0.4461
 1122TIP3    H2 3331   0.908   1.752   1.653  1.7667  0.7680  1.5942
 1123TIP3   OH2 3332   1.856   5.905   5.155  0.3239 -0.0800 -0.7039
 1123TIP3    H1 3333   1.931   5.873   5.206 -0.6126  0.3375  0.9968
 1123TIP3    H2 3334   1.864   6.000   5.157  0.3609 -0.0536 -1.5229
 1124TIP3   OH2 3335   2.731   3.877   4.224 -0.0631  0.5247 -0.2349
 1124TIP3    H1 3336   2.641   3.844   4.225  0.6372 -1.5731  0.2135
 1124TIP3    H2 3337   2.723   3.968   4.196 -2.2496  0.1871 -0.9322
 1125TIP3   OH2 3338   1.452   5.159   3.663  0.6967 -0.5757 -0.3129
 1125TIP3    H1 3339   1.397   5.186   3.737 -1.6989 -0.7088 -1.9325
 1125TIP3    H2 3340   1.438   5.065   3.656  1.2523 -0.6329 -0.6683
 1126TIP3   OH2 3341   1.208   6.278   0.443 -0.1733 -0.6064  0.2475
 1126TIP3    H1 3342   1.134   6.313   0.392  0.6626  1.7258  0.5114
 1126TIP3    H2 3343   1.167   6.233   0.517 -1.3522  0.5122  0.3138
 1127TIP3   OH2 3344   5.545   2.371   2.038 -0.4889 -0.6814 -0.2010
 1127TIP3    H1 3345   5.594   2.436   2.088 -0.7519  0.4065 -1.3358
 1127TIP3    H2 3346   5.524   2.303   2.102 -2.3255  1.4559  1.6668
 1128TIP3   OH2 3347   0.426   0.290   0.500 -0.2556  0.7323 -0.1379
 1128TIP3    H1 3348   0.448   0.358   0.564  0.1773  0.8676 -0.4254
 1128TIP3    H2 3349   0.489   0.303   0.429 -0.3050  0.1631 -0.2885
 1129TIP3   OH2 3350   3.215   5.096   5.073 -0.3888  0.0956  0.5271
 1129TIP3    H1 3351   3.213   5.079   5.167  0.3728  0.3744  0.5927
 1129TIP3    H2 3352   3.304   5.074   5.045 -0.4218  0.6105 -0.0150
 1130TIP3   OH2 3353   6.739   1.383   3.197  0.5481  0.7790 -0.1425
 1130TIP3    H1 3354   6.806   1.392   3.264  1.8688  3.0142 -1.6296
 1130TIP3    H2 3355   6.772   1.433   3.122 -2.4255  1.3780 -1.2236
 1131TIP3   OH2 3356   6.566   4.128   1.128 -0.5143 -0.6226  0.2278
 1131TIP3    H1 3357   6.659   4.121   1.107 -0.1349 -0.0051  1.5893
 1131TIP3    H2 3358   6.546   4.050   1.179 -0.1494  0.2945  1.8657
 1132TIP3   OH2 3359   6.285   5.746   1.184 -0.0008 -0.8721 -0.1231
 1132TIP3    H1 3360   6.340   5.801   1.129  0.7658 -0.1613  1.3128
 1132TIP3    H2 3361   6.281   5.792   1.268 -1.6222 -1.6301  0.2533
 1133TIP3   OH2 3362   6.132   1.608   4.572  0.1856  0.4307 -0.1388
 1133TIP3    H1 3363   6.150   1.669   4.501  1.1619 -0.4691 -0.7047
 1133TIP3    H2 3364   6.062   1.649   4.622  0.4499  1.7503 -0.7995
 1134TIP3   OH2 3365   2.345   3.193   1.575 -0.0095  0.4238  0.4736
 1134TIP3    H1 3366   2.416   3.215   1.635 -0.8689  1.0292  1.2967
 1134TIP3    H2 3367   2.357   3.250   1.500  0.6321  0.2049  0.4100
 1135TIP3   OH2 3368   0.706   2.650   2.776  0.3766  0.0106 -0.5178
 1135TIP3    H1 3369   0.786   2.692   2.808  0.7703  0.7014 -2.3292
 1135TIP3    H2 3370   0.656   2.721   2.735 -1.3824 -0.3303  0.8849
 1136TIP3   OH2 3371   3.852   6.331   3.242  0.3046 -0.1971 -0.3207
 1136TIP3    H1 3372   3.848   6.421   3.274  0.5962  0.9753 -3.2551
 1136TIP3    H2 3373   3.929   6.294   3.284  1.2531  1.5421 -0.4418
 1137TIP3   OH2 3374   1.004   5.280   3.891 -0.7183 -0.8532  0.3057
 1137TIP3    H1 3375   0.908   5.285   3.893 -0.6827  0.0557  0.9836
 1137TIP3    H2 3376   1.026   5.215   3.957 -0.8511 -0.3443  0.8635
 1138TIP3   OH2 3377   5.823   2.631   5.171  0.2775 -0.1855  0.3356
 1138TIP3    H1 3378   5.800   2.721   5.147  2.6783  0.6062  0.7797
 1138TIP3    H2 3379   5.846   2.589   5.088  1.7897  0.4495  0.4163
 1139TIP3   OH2 3380   1.832   5.891   0.502  0.6420 -0.0425  0.3350
 1139TIP3    H1 3381   1.832   5.823   0.435 -2.6759  0.7862 -0.6857
 1139TIP3    H2 3382   1.903   5.950   0.476 -0.0427 -0.1570 -2.0121
 1140TIP3   OH2 3383   0.653   1.556   0.355  0.1779 -0.3586  0.1689
 1140TIP3    H1 3384   0.668   1.487   0.290 -1.5454 -0.4193 -0.1972
 1140TIP3    H2 3385   0.576   1.527   0.404 -0.5374  1.2559  0.0601
 1141TIP3   OH2 3386   4.801   6.204   3.671 -0.1042  0.5951 -0.1214
 1141TIP3    H1 3387   4.896   6.215   3.676  0.0866 -1.1923  1.8688
 1141TIP3    H2 3388   4.779   6.225   3.580  2.2311  0.7858 -0.7119
 1142TIP3   OH2 3389   7.012   1.752   0.096  0.1834 -0.7977  0.1230
 1142TIP3    H1 3390   6.998   1.842   0.125  0.2403 -0.3373 -1.2267
 1142TIP3    H2 3391   7.108   1.743   0.089  0.1523 -0.7237 -0.4447
 1143TIP3   OH2 3392   3.446   1.615   4.554  0.2380 -0.9633  0.1898
 1143TIP3    H1 3393   3.436   1.630   4.460 -1.3931  1.1576  0.6329
 1143TIP3    H2 3394   3.357   1.609   4.588  0.7903 -1.6725  1.6348
 1144TIP3   OH2 3395   6.689   0.320   0.235 -0.2590  0.4316  0.0718
 1144TIP3    H1 3396   6.652   0.388   0.179 -0.3881  0.0395 -0.3314
 1144TIP3    H2 3397   6.726   0.256   0.173  1.8371  1.1903  0.4565
 1145TIP3   OH2 3398   1.905   3.491   1.234 -0.8285  0.3080 -0.4550
 1145TIP3    H1 3399   1.911   3.575   1.189  0.2412  0.5173  0.0297
 1145TIP3    H2 3400   1.985   3.487   1.287 -1.3868 -0.5350  0.3526
 1146TIP3   OH2 3401   1.046   4.385   3.686  0.0596  0.2657  0.0914
 1146TIP3    H1 3402   0.993   4.368   3.764  1.0277  1.8571  1.1642
 1146TIP3    H2 3403   1.127   4.336   3.702 -0.1993 -0.3652 -0.4959
 1147TIP3   OH2 3404   5.676   1.293   4.444  0.2703 -0.5329  0.0235
 1147TIP3    H1 3405   5.720   1.371   4.479 -0.3159  1.7415 -3.7014
 1147TIP3    H2 3406   5.587   1.298   4.478  0.5232 -0.1704  0.6394
 1148TIP3   OH2 3407   2.040   1.540   0.297  0.6361 -0.4138  0.1932
 1148TIP3    H1 3408   2.001   1.577   0.376 -1.2059  0.8480 -1.2420
 1148TIP3    H2 3409   2.114   1.598   0.277 -0.5097  0.8607 -0.4589
 1149TIP3   OH2 3410   3.649   4.118   4.455 -0.2864  0.0067 -0.1753
 1149TIP3    H1 3411   3.700   4.152   4.529  0.7006  0.1007 -0.8727
 1149TIP3    H2 3412   3.710   4.061   4.409 -1.6072 -1.9518  0.3846
 1150TIP3   OH2 3413   0.147   4.798   5.480 -0.0275  0.4310  0.0427
 1150TIP3    H1 3414   0.226   4.834   5.441  0.2959  0.4053  0.6664
 1150TIP3    H2 3415   0.176   4.762   5.564 -0.1164 -2.1791 -0.9440
 1151TIP3   OH2 3416   4.615   5.901   2.320  0.4302  0.1806 -0.0808
 1151TIP3    H1 3417   4.613   5.811   2.285 -1.3873 -0.4127  1.4130
 1151TIP3    H2 3418   4.593   5.956   2.245  1.3745 -0.5959 -0.9780
 1152TIP3   OH2 3419   3.541   6.648   0.392 -0.1626  0.4962  0.5786
 1152TIP3    H1 3420   3.614   6.593   0.421 -0.3655  0.5543  1.2228
 1152TIP3    H2 3421   3.582   6.731   0.368 -0.1981  1.2402  2.8560
 1153TIP3   OH2 3422   4.565   5.809   1.367  0.5803 -0.1225  0.5372
 1153TIP3    H1 3423   4.616   5.788   1.445  1.9259  0.7862 -0.0555
 1153TIP3    H2 3424   4.548   5.725   1.325  3.8548 -0.3616 -0.5994
 1154TIP3   OH2 3425   4.511   2.461   0.738 -0.3991 -0.0851  0.0986
 1154TIP3    H1 3426   4.569   2.536   0.752  0.8384 -0.4149 -2.4971
 1154TIP3    H2 3427   4.569   2.385   0.741 -0.3626 -0.3711 -3.2939
 1155TIP3   OH2 3428   5.487   2.450   4.802  0.0594 -0.2376  0.1599
 1155TIP3    H1 3429   5.539   2.520   4.841  3.4961 -1.7984 -1.2297
 1155TIP3    H2 3430   5.454   2.487   4.720 -0.2958  0.4883  0.6219
 1156TIP3   OH2 3431   4.097   4.804   2.402 -0.5823  0.2920  0.2379
 1156TIP3    H1 3432   4.097   4.714   2.435 -0.3586 -0.2400 -1.1308
 1156TIP3    H2 3433   4.190   4.829   2.404 -0.4860  0.0334 -0.5091
 1157TIP3   OH2 3434   2.389   5.229   1.551 -0.1553 -0.4457 -0.2772
 1157TIP3    H1 3435   2.481   5.222   1.577 -0.2498  0.7769  0.5342
 1157TIP3    H2 3436   2.392   5.252   1.458  0.5805  3.2396  0.4909
 1158TIP3   OH2 3437   6.097   5.468   4.987 -0.2328 -0.2737 -0.2113
 1158TIP3    H1 3438   6.128   5.479   5.077 -1.5398 -1.7777  0.4761
 1158TIP3    H2 3439   6.135   5.542   4.940  2.1444 -0.5170  1.1111
 1159TIP3   OH2 3440   5.869   6.769   2.155 -0.7593  0.1398 -0.3597
 1159TIP3    H1 3441   5.825   6.766   2.241 -0.4866  1.7293 -0.1349
 1159TIP3    H2 3442   5.893   6.679   2.137 -1.8357 -0.3849  0.7202
 1160TIP3   OH2 3443   5.572   3.042   2.840 -0.0981  0.2350 -0.5080
 1160TIP3    H1 3444   5.526   3.123   2.817 -1.3997 -0.1396  0.6687
 1160TIP3    H2 3445   5.504   2.986   2.878  1.2279 -0.5353  0.8258
 1161TIP3   OH2 3446   1.740   5.280   2.631  0.3039  0.1794  0.6996
 1161TIP3    H1 3447   1.724   5.364   2.673 -2.3198  0.1957 -0.1584
 1161TIP3    H2 3448   1.659   5.230   2.644  0.4490 -0.8721 -1.7892
 1162TIP3   OH2 3449   0.120   1.590   3.963  0.1218  0.5708  0.6563
 1162TIP3    H1 3450   0.210   1.608   3.990  0.2387  2.0308 -0.5561
 1162TIP3    H2 3451   0.106   1.646   3.886 -1.3503 -0.7243 -0.0735
 1163TIP3   OH2 3452   3.215   4.106   5.813  0.1582 -0.3962  0.3569
 1163TIP3    H1 3453   3.133   4.139   5.848  1.0297  1.3725  0.8627
 1163TIP3    H2 3454   3.280   4.126   5.881  1.7825  2.4777 -1.8050
 1164TIP3   OH2 3455   4.411   0.335   1.134  0.2928 -0.4174 -0.0882
 1164TIP3    H1 3456   4.388   0.418   1.093 -0.6921 -0.2794  0.6933
 1164TIP3    H2 3457   4.366   0.337   1.219  0.9047 -1.4047  0.2783
 1165TIP3   OH2 3458   1.070   5.650   0.886  0.6656 -0.0586 -0.8578
 1165TIP3    H1 3459   1.006   5.583   0.910  1.2128  0.1303  1.3150
 1165TIP3    H2 3460   1.017   5.724   0.856 -0.2236  0.2983  1.4287
 1166TIP3   OH2 3461   7.182   2.159   1.760  0.1519 -0.0865 -0.2108
 1166TIP3    H1 3462   7.236   2.118   1.692  0.7208  1.4719 -0.7400
 1166TIP3    H2 3463   7.204   2.252   1.756 -4.0144  1.0691 -1.8898
 1167TIP3   OH2 3464   3.165   4.211   1.941  0.1456 -0.1624 -0.1746
 1167TIP3    H1 3465   3.123   4.166   2.015  0.5413  0.2772  0.3287
 1167TIP3    H2 3466   3.257   4.186   1.947 -0.2636 -2.5111 -2.3020
 1168TIP3   OH2 3467   5.447   5.198   3.494  0.0565  0.0503  0.4200
 1168TIP3    H1 3468   5.418   5.288   3.510 -0.0861  0.1845 -0.5100
 1168TIP3    H2 3469   5.540   5.198   3.519  0.7916  1.1787 -1.9170
 1169TIP3   OH2 3470   4.918   6.658   0.244 -0.1502  1.2112  0.1662
 1169TIP3    H1 3471   4.947   6.692   0.160 -1.2176  2.0307  0.1007
 1169TIP3    H2 3472   4.994   6.612   0.280  0.1161  0.2505 -1.5452
 1170TIP3   OH2 3473   5.860   3.029   4.396 -0.8794  0.1109  0.0426
 1170TIP3    H1 3474   5.815   3.051   4.478  0.3263 -0.2839  0.8412
 1170TIP3    H2 3475   5.953   3.043   4.416 -0.5095 -0.7384 -1.0215
 1171TIP3   OH2 3476   4.833   0.536   2.024  0.4589  0.6159  0.2399
 1171TIP3    H1 3477   4.748   0.568   1.993 -0.5142 -1.7366  0.2558
 1171TIP3    H2 3478   4.820   0.519   2.117  0.7334 -0.3172  0.1204
 1172TIP3   OH2 3479   5.252   3.080   0.755  0.4333  0.3799 -0.6419
 1172TIP3    H1 3480   5.261   3.174   0.768  0.6076  0.0541  2.3779
 1172TIP3    H2 3481   5.337   3.044   0.780 -0.2433 -0.6916  0.2151
 1173TIP3   OH2 3482   5.715   4.604   2.307  0.3236  0.6423  0.3031
 1173TIP3    H1 3483   5.676   4.519   2.287  0.5866  0.9704 -1.8673
 1173TIP3    H2 3484   5.664   4.637   2.381 -1.0518 -0.5658 -0.0513
 1174TIP3   OH2 3485   6.632   0.289   5.556  0.5188  0.0952 -0.2691
 1174TIP3    H1 3486   6.648   0.227   5.627  3.5369  1.2525  0.1818
 1174TIP3    H2 3487   6.611   0.234   5.480 -0.0114 -1.2848  0.8372
 1175TIP3   OH2 3488   2.102   4.665   2.804  0.0599  0.7723 -0.4487
 1175TIP3    H1 3489   2.195   4.682   2.815 -0.0433  1.3346 -0.4298
 1175TIP3    H2 3490   2.062   4.702   2.883 -0.0755 -0.3690  0.0358
 1176TIP3   OH2 3491   4.704   5.705   4.897 -0.0242 -0.4092  0.4773
 1176TIP3    H1 3492   4.759   5.627   4.889 -0.1529 -0.4119 -0.4478
 1176TIP3    H2 3493   4.665   5.697   4.985  0.1645 -1.2518  0.4933
 1177TIP3   OH2 3494   3.096   3.721   5.526  0.6257 -0.2176 -0.0777
 1177TIP3    H1 3495   3.003   3.736   5.543  1.0033  0.0037  2.1833
 1177TIP3    H2 3496   3.099   3.686   5.437 -1.7231 -1.2073  0.1459
 1178TIP3   OH2 3497   2.354   2.549   4.707  0.2477 -0.2775  0.5262
 1178TIP3    H1 3498   2.275   2.501   4.680 -2.0456  2.6614  1.4275
 1178TIP3    H2 3499   2.409   2.551   4.629 -1.9321 -0.0033 -1.1047
 1179TIP3   OH2 3500   4.443   2.510   3.545 -0.2118 -0.0884  0.1476
 1179TIP3    H1 3501   4.366   2.504   3.602  0.5470  1.1754  1.3672
 1179TIP3    H2 3502   4.450   2.423   3.505 -1.6527 -0.5415  0.8117
 1180TIP3   OH2 3503   7.027   4.829   3.867  0.0966  0.0170 -0.2204
 1180TIP3    H1 3504   7.090   4.777   3.816  0.0197  0.0889 -0.3880
 1180TIP3    H2 3505   6.960   4.766   3.892 -0.8913  0.3662 -1.8667
 1181TIP3   OH2 3506   1.808   0.753   2.908  0.5964  0.4647  0.5003
 1181TIP3    H1 3507   1.786   0.660   2.899  2.1846  0.1565 -0.4308
 1181TIP3    H2 3508   1.778   0.776   2.996 -1.0919 -0.5423  0.2383
 1182TIP3   OH2 3509   2.645   4.226   1.983 -0.4603 -0.3646 -0.2290
 1182TIP3    H1 3510   2.663   4.139   1.947  3.0665 -0.5353  1.5252
 1182TIP3    H2 3511   2.606   4.208   2.069  2.7324 -0.4992  1.3489
 1183TIP3   OH2 3512   2.297   5.060   4.264  0.4825  0.2560  0.2425
 1183TIP3    H1 3513   2.281   4.970   4.237 -0.9235  0.3611  0.6258
 1183TIP3    H2 3514   2.294   5.058   4.360 -0.4597  0.8385  0.2407
 1184TIP3   OH2 3515   5.510   4.973   0.804 -0.3244 -0.1010 -0.0291
 1184TIP3    H1 3516   5.535   4.886   0.772  0.8442  0.6505 -1.2871
 1184TIP3    H2 3517   5.575   4.994   0.871 -0.0684  0.1617 -0.3577
 1185TIP3   OH2 3518   5.750   1.004   1.773  0.6994  0.3352 -0.3414
 1185TIP3    H1 3519   5.727   0.962   1.856  2.0751  1.6125  0.7760
 1185TIP3    H2 3520   5.844   1.021   1.781  0.8635  0.4724 -2.1989
 1186TIP3   OH2 3521   1.855   4.522   2.104  0.1853  0.1600  0.3070
 1186TIP3    H1 3522   1.848   4.597   2.162  2.5300  0.7600 -0.0995
 1186TIP3    H2 3523   1.814   4.450   2.152 -0.7288  1.3281  1.3345
 1187TIP3   OH2 3524   2.239   2.043   5.644  0.1302  0.0848  0.7347
 1187TIP3    H1 3525   2.191   2.084   5.716 -0.2678 -1.4424  1.3735
 1187TIP3    H2 3526   2.189   1.964   5.623  1.5047 -0.7206  0.3490
 1188TIP3   OH2 3527   3.151   5.446   0.064  0.1593  0.0833  0.1651
 1188TIP3    H1 3528   3.081   5.507   0.040 -0.6227 -1.4008 -1.6467
 1188TIP3    H2 3529   3.174   5.469   0.154 -1.6524  1.5593  0.3146
 1189TIP3   OH2 3530   3.457   1.566   2.083  0.4688 -0.4431 -0.2638
 1189TIP3    H1 3531   3.385   1.570   2.145  0.0332 -0.5904 -0.7486
 1189TIP3    H2 3532   3.532   1.536   2.134 -0.4079 -2.7845 -0.2392
 1190TIP3   OH2 3533   6.151   4.267   5.491 -0.3390  0.2021  0.8179
 1190TIP3    H1 3534   6.183   4.259   5.581  1.5693 -0.0599  0.1600
 1190TIP3    H2 3535   6.115   4.356   5.486 -0.4182  0.2347  1.8238
 1191TIP3   OH2 3536   4.266   0.687   1.562  0.0350 -0.3528 -0.3666
 1191TIP3    H1 3537   4.342   0.631   1.547  0.2981 -0.1309  0.1202
 1191TIP3    H2 3538   4.202   0.631   1.606 -0.5492 -0.8701 -1.8262
 1192TIP3   OH2 3539   6.695   6.489   1.148 -0.4718  0.1467  0.2510
 1192TIP3    H1 3540   6.784   6.484   1.113 -1.0278 -0.9616 -1.1083
 1192TIP3    H2 3541   6.656   6.564   1.104 -0.4256  0.2321  0.3538
 1193TIP3   OH2 3542   1.650   5.013   0.330 -0.5506 -0.0367 -0.3702
 1193TIP3    H1 3543   1.681   5.101   0.353  1.1734 -0.5244 -0.6674
 1193TIP3    H2 3544   1.558   5.026   0.305 -0.5893  1.5244  0.4279
 1194TIP3   OH2 3545   2.505   5.164   4.813  0.1903  0.4883  0.0484
 1194TIP3    H1 3546   2.523   5.225   4.741 -1.0097  0.3782 -0.3727
 1194TIP3    H2 3547   2.471   5.086   4.770  0.7703 -0.1079  0.6559
 1195TIP3   OH2 3548   0.138   1.145   1.545  0.1356 -0.4295 -0.1557
 1195TIP3    H1 3549   0.205   1.167   1.481 -1.8443 -0.0089 -2.2159
 1195TIP3    H2 3550   0.129   1.050   1.540  0.1406 -0.4207 -0.3184
 1196TIP3   OH2 3551   1.223   1.514   4.545 -0.2372 -0.2270  0.4133
 1196TIP3    H1 3552   1.298   1.517   4.485 -1.9427 -1.5931 -1.9910
 1196TIP3    H2 3553   1.165   1.584   4.515 -0.8468 -0.5486  0.8203
 1197TIP3   OH2 3554   1.983   2.922   5.821 -0.1354 -0.0974 -0.1668
 1197TIP3    H1 3555   1.919   2.973   5.872  0.9566  2.0368 -0.7793
 1197TIP3    H2 3556   1.940   2.910   5.736  0.1086  1.0447 -0.4702
 1198TIP3   OH2 3557   3.644   1.219   2.953 -0.1947  0.4238 -0.6553
 1198TIP3    H1 3558   3.591   1.144   2.925 -0.3844  0.5686 -0.6846
 1198TIP3    H2 3559   3.612   1.240   3.041  0.7103 -0.3185 -0.1252
 1199TIP3   OH2 3560   3.035   3.179   3.849 -0.7118 -0.2942 -0.2035
 1199TIP3    H1 3561   3.070   3.130   3.774 -0.8240  0.1377 -0.5390
 1199TIP3    H2 3562   3.041   3.117   3.922  1.9188  0.1508  0.0664
 1200TIP3   OH2 3563   6.718   0.120   0.577  0.0900  0.5324  0.1685
 1200TIP3    H1 3564   6.765   0.112   0.660  0.6115 -1.2955 -0.2575
 1200TIP3    H2 3565   6.763   0.059   0.518 -0.9786  0.9521 -1.1299
 1201TIP3   OH2 3566   3.867   3.295   2.058  0.3273  0.0933  0.4077
 1201TIP3    H1 3567   3.885   3.298   2.152  0.2346 -0.3745  0.4420
 1201TIP3    H2 3568   3.852   3.202   2.039  4.7277 -0.6171 -0.8678
 1202TIP3   OH2 3569   2.404   0.420   4.484 -0.5160  0.4612 -0.0066
 1202TIP3    H1 3570   2.389   0.329   4.510  0.4814  0.7185  1.5777
 1202TIP3    H2 3571   2.495   0.422   4.457 -0.2962  1.1485  0.7464
 1203TIP3   OH2 3572   3.036   0.825   3.706 -0.1813  0.0501 -0.3659
 1203TIP3    H1 3573   3.051   0.751   3.647 -0.4974  0.9729 -1.6643
 1203TIP3    H2 3574   3.023   0.785   3.792 -1.6710 -1.5043 -1.2505
 1204TIP3   OH2 3575   5.242   1.152   1.576  0.0484 -0.5206 -0.2252
 1204TIP3    H1 3576   5.196   1.148   1.660  0.7490 -0.7358  0.1527
 1204TIP3    H2 3577   5.274   1.063   1.562  0.0148 -0.4618 -0.6754
 1205TIP3   OH2 3578   0.932   5.372   0.702  0.4672 -0.5626 -0.5227
 1205TIP3    H1 3579   0.931   5.280   0.728 -1.4051 -0.6491 -0.7686
 1205TIP3    H2 3580   0.978   5.416   0.773  0.9113 -1.6143 -0.1346
 1206TIP3   OH2 3581   7.151   2.373   0.453 -0.3540  0.5647  0.0608
 1206TIP3    H1 3582   7.160   2.322   0.533  2.7291  0.5271 -0.1831
 1206TIP3    H2 3583   7.083   2.327   0.402  2.1605 -3.4040 -0.1228
 1207TIP3   OH2 3584   0.786   4.893   4.602 -0.0030  0.1481 -0.0348
 1207TIP3    H1 3585   0.853   4.832   4.634  1.0577  1.9544  1.3769
 1207TIP3    H2 3586   0.737   4.917   4.680  0.8969  2.5733 -0.1384
 1208TIP3   OH2 3587   1.197   4.325   1.774 -0.5226 -0.3116  0.3669
 1208TIP3    H1 3588   1.197   4.230   1.762 -1.6152  0.0269 -3.9354
 1208TIP3    H2 3589   1.287   4.346   1.800 -0.3052 -2.4759  1.5227
 1209TIP3   OH2 3590   0.232   3.603   3.180  0.1928 -0.5958 -0.2299
 1209TIP3    H1 3591   0.151   3.553   3.174  0.4303 -0.8250 -2.4090
 1209TIP3    H2 3592   0.301   3.540   3.157  0.5522  0.5066 -2.4568
 1210TIP3   OH2 3593   0.767   5.929   3.729  0.6671  0.4196  0.1287
 1210TIP3    H1 3594   0.716   5.852   3.752  1.5962  0.0860  1.1526
 1210TIP3    H2 3595   0.726   5.962   3.649 -0.2192 -0.6813  0.1057
 1211TIP3   OH2 3596   1.830   1.739   1.570  1.1481 -0.2509  0.3031
 1211TIP3    H1 3597   1.787   1.819   1.540  1.2740 -0.4547 -0.4252
 1211TIP3    H2 3598   1.914   1.769   1.606  0.9945 -0.0061  0.4601
 1212TIP3   OH2 3599   2.884   4.554   3.919 -0.3014 -0.5052 -0.4571
 1212TIP3    H1 3600   2.936   4.498   3.976 -0.3421  0.6410  0.7295
 1212TIP3    H2 3601   2.810   4.499   3.893 -0.6995 -0.8021  1.2377
 1213TIP3   OH2 3602   4.354   5.321   0.226  0.6814  0.4699 -0.6631
 1213TIP3    H1 3603   4.384   5.242   0.181  1.1124 -1.8033  3.1977
 1213TIP3    H2 3604   4.288   5.290   0.289  1.1702  3.0748  1.3188
 1214TIP3   OH2 3605   1.192   6.531   2.022  0.6576 -0.5761  0.6196
 1214TIP3    H1 3606   1.213   6.487   1.940  0.8365 -1.2289  1.0026
 1214TIP3    H2 3607   1.272   6.577   2.047  0.3535  0.2980  0.0252
 1215TIP3   OH2 3608   4.200   6.529   3.017 -0.0784 -0.0071  0.0524
 1215TIP3    H1 3609   4.224   6.453   3.069 -1.9211 -0.5827  0.1550
 1215TIP3    H2 3610   4.181   6.597   3.082 -1.6613 -0.5044  0.1586
 1216TIP3   OH2 3611   3.278   3.931   4.834  0.1782 -0.4486 -0.2307
 1216TIP3    H1 3612   3.279   3.849   4.884  0.1995 -0.4828 -0.2868
 1216TIP3    H2 3613   3.364   3.935   4.794  0.0684 -0.5506 -0.4748
 1217TIP3   OH2 3614   6.738   3.910   1.923 -0.0808  0.3827  0.0956
 1217TIP3    H1 3615   6.738   3.820   1.888  0.2194  0.8059 -1.0473
 1217TIP3    H2 3616   6.758   3.965   1.847  0.4549  1.3733  0.9296
 1218TIP3   OH2 3617   1.492   5.575   1.567  0.2289  0.0861  0.2416
 1218TIP3    H1 3618   1.552   5.644   1.593 -0.9618  0.5620  1.9573
 1218TIP3    H2 3619   1.425   5.575   1.635 -2.0537 -0.0082 -1.8573
 1219TIP3   OH2 3620   4.336   4.626   1.446 -0.7452 -0.0963 -0.5735
 1219TIP3    H1 3621   4.378   4.540   1.449 -1.5652 -0.5448 -1.4068
 1219TIP3    H2 3622   4.328   4.645   1.353 -2.5927 -0.1374 -0.4554
 1220TIP3   OH2 3623   0.490   1.454   0.565 -0.0091  0.0052 -0.1927
 1220TIP3    H1 3624   0.488   1.538   0.610  0.9090  0.4106 -0.8723
 1220TIP3    H2 3625   0.406   1.413   0.586  0.2925  0.2590  1.6867
 1221TIP3   OH2 3626   4.331   4.574   4.860 -0.0272  0.1857  0.2313
 1221TIP3    H1 3627   4.328   4.669   4.851 -1.1749  0.2767  1.2904
 1221TIP3    H2 3628   4.386   4.545   4.787 -1.3539  1.4932 -1.3914
 1222TIP3   OH2 3629   0.354   2.120   0.726 -0.0450  0.1305  0.2605
 1222TIP3    H1 3630   0.347   2.029   0.756 -0.0463 -0.0395 -0.2480
 1222TIP3    H2 3631   0.322   2.172   0.799  0.3518 -0.2599  0.7170
 1223TIP3   OH2 3632   1.131   4.735   3.845  0.3139  0.1155 -0.0921
 1223TIP3    H1 3633   1.192   4.662   3.839  0.4847  0.3572 -3.3067
 1223TIP3    H2 3634   1.062   4.704   3.904  2.5702 -0.8266  2.2267
 1224TIP3   OH2 3635   3.423   6.262   0.477 -0.3812 -0.0273  0.3185
 1224TIP3    H1 3636   3.414   6.268   0.572 -0.1165 -0.0556  0.3458
 1224TIP3    H2 3637   3.427   6.353   0.448  0.3425 -0.0214  0.4148
 1225TIP3   OH2 3638   6.527   1.765   5.631  0.3399  0.5687  0.0589
 1225TIP3    H1 3639   6.470   1.710   5.684  0.9782  1.5213  1.8178
 1225TIP3    H2 3640   6.579   1.814   5.695  1.1620  1.7607 -1.4633
 1226TIP3   OH2 3641   3.834   0.699   4.388 -0.5508 -0.3996 -0.1682
 1226TIP3    H1 3642   3.852   0.678   4.480  2.2468  0.3393 -0.4544
 1226TIP3    H2 3643   3.889   0.775   4.370 -0.7836 -0.7312 -2.5574
 1227TIP3   OH2 3644   1.853   2.886   2.822  0.3329  0.0656 -0.1186
 1227TIP3    H1 3645   1.819   2.860   2.736 -0.5732 -1.0990  0.5575
 1227TIP3    H2 3646   1.866   2.980   2.815 -0.6750  0.1436 -1.2284
 1228TIP3   OH2 3647   1.632   0.034   4.782 -0.9659  0.2262 -0.1636
 1228TIP3    H1 3648   1.571  -0.035   4.758 -0.2303 -0.3498 -0.4322
 1228TIP3    H2 3649   1.583   0.115   4.771 -1.4013 -0.1709 -1.2675
 1229TIP3   OH2 3650   7.044   0.352   0.808  0.1700  0.0809  0.2718
 1229TIP3    H1 3651   7.049   0.358   0.712  0.3569 -0.8358  0.2189
 1229TIP3    H2 3652   7.087   0.432   0.838 -0.1235  0.5092 -0.4113
 1230TIP3   OH2 3653   4.062   4.811   0.998 -0.0068  0.1327  0.0710
 1230TIP3    H1 3654   4.015   4.795   1.080  0.5724  0.1157  0.4027
 1230TIP3    H2 3655   4.101   4.726   0.976 -1.7129 -0.3825 -1.2397
 1231TIP3   OH2 3656   3.947   5.373   2.259 -0.1634 -0.1879  0.2676
 1231TIP3    H1 3657   3.932   5.386   2.352 -1.0123  0.4463  0.0579
 1231TIP3    H2 3658   3.980   5.457   2.228  1.7146 -0.8683  0.2720
 1232TIP3   OH2 3659   1.433   2.022   1.714 -0.3427  0.1660  0.0001
 1232TIP3    H1 3660   1.346   2.000   1.678 -1.3198  0.6036  1.9551
 1232TIP3    H2 3661   1.435   2.118   1.714 -0.1670  0.1649  0.6534
 1233TIP3   OH2 3662   2.166   0.154   4.501 -0.5030  0.0582 -0.3720
 1233TIP3    H1 3663   2.173   0.142   4.406 -0.4331  1.7542 -0.6097
 1233TIP3    H2 3664   2.077   0.188   4.515 -0.5946 -0.3942  0.2041
 1234TIP3   OH2 3665   2.056   4.117   0.971  0.6033  0.0541 -0.0742
 1234TIP3    H1 3666   2.121   4.152   1.032 -0.7880  0.2862  1.3269
 1234TIP3    H2 3667   2.012   4.195   0.936  0.7596 -0.1191 -0.6689
 1235TIP3   OH2 3668   6.802   5.030   0.373 -0.2007  0.0186 -0.3777
 1235TIP3    H1 3669   6.833   4.964   0.312 -1.3466 -2.1293  1.2320
 1235TIP3    H2 3670   6.879   5.082   0.394  0.8291 -1.0505 -1.4184
 1236TIP3   OH2 3671   5.225   5.941   2.310 -0.3105  0.5919 -0.3690
 1236TIP3    H1 3672   5.250   5.849   2.306  0.1133  0.5497  1.8358
 1236TIP3    H2 3673   5.209   5.966   2.219  0.1782 -1.4761 -1.0720
 1237TIP3   OH2 3674   2.215   2.740   0.845  0.4691  0.9777  0.0938
 1237TIP3    H1 3675   2.177   2.732   0.758 -0.3640  0.8171  0.4615
 1237TIP3    H2 3676   2.223   2.835   0.859 -0.9325  1.0781  0.4621
 1238TIP3   OH2 3677   2.776   4.814   2.003 -0.3822 -0.1908 -0.0679
 1238TIP3    H1 3678   2.795   4.886   2.063 -1.0882 -1.0219  1.2008
 1238TIP3    H2 3679   2.830   4.832   1.926  0.0106  1.2874  0.5203
 1239TIP3   OH2 3680   5.724   5.066   1.837  0.0522 -0.0572 -0.6531
 1239TIP3    H1 3681   5.758   5.052   1.749 -0.1443 -0.8847 -0.6032
 1239TIP3    H2 3682   5.633   5.092   1.824 -0.0585 -0.4566 -0.6873
 1240TIP3   OH2 3683   7.213   5.311   3.093 -0.0861  0.6034  0.0943
 1240TIP3    H1 3684   7.144   5.259   3.051  2.3695 -1.5128 -1.6931
 1240TIP3    H2 3685   7.243   5.256   3.165  1.5489  0.1771 -0.8794
 1241TIP3   OH2 3686   6.453   0.414   1.405 -0.4788  0.3285  0.0117
 1241TIP3    H1 3687   6.512   0.435   1.477 -0.4307 -2.3684  0.8598
 1241TIP3    H2 3688   6.505   0.362   1.344 -1.8266 -1.9468  0.6878
 1242TIP3   OH2 3689   2.859   5.561   2.416 -0.2427 -0.3117 -0.4512
 1242TIP3    H1 3690   2.843   5.549   2.322 -1.3494  1.2355 -0.5073
 1242TIP3    H2 3691   2.917   5.638   2.420 -1.3616  0.5293  0.1558
 1243TIP3   OH2 3692   5.075   6.745   1.103 -0.1787  0.2341 -0.2536
 1243TIP3    H1 3693   5.161   6.711   1.080 -0.4299 -0.1632 -0.6198
 1243TIP3    H2 3694   5.017   6.669   1.099 -0.6648  0.6179 -0.6391
 1244TIP3   OH2 3695   4.535   5.345   5.039 -0.2658 -0.3012 -0.4382
 1244TIP3    H1 3696   4.471   5.402   4.995 -1.8258 -1.9823 -0.4791
 1244TIP3    H2 3697   4.603   5.330   4.973 -2.1972 -2.1978 -2.1508
 1245TIP3   OH2 3698   0.207   6.511   4.474  0.2402  0.0825 -0.8761
 1245TIP3    H1 3699   0.206   6.588   4.417 -0.8166 -0.3084 -1.3912
 1245TIP3    H2 3700   0.193   6.437   4.416  0.8347 -0.4761 -0.3216
 1246TIP3   OH2 3701   3.872   2.793   1.674 -0.7870  0.0584 -0.2819
 1246TIP3    H1 3702   3.874   2.772   1.768  1.1960  1.6025  0.0945
 1246TIP3    H2 3703   3.910   2.716   1.632 -1.2755 -0.4675  0.2203
 1247TIP3   OH2 3704   0.321   3.409   5.098 -0.2809 -0.0684 -0.2211
 1247TIP3    H1 3705   0.341   3.392   5.190  0.1988 -1.0979 -0.5110
 1247TIP3    H2 3706   0.261   3.340   5.072 -0.0943 -0.0258 -0.7940
 1248TIP3   OH2 3707   0.279   2.553   3.746 -0.2863 -0.4247  0.0420
 1248TIP3    H1 3708   0.270   2.628   3.688  0.9264 -0.3902 -0.1242
 1248TIP3    H2 3709   0.252   2.585   3.832 -1.3297 -0.2596 -0.3349
 1249TIP3   OH2 3710   6.526   3.467   1.561 -0.2885 -0.1537  0.2093
 1249TIP3    H1 3711   6.532   3.489   1.468 -1.3864 -0.7581 -0.0096
 1249TIP3    H2 3712   6.547   3.374   1.565  0.1344 -0.0479  0.6297
 1250TIP3   OH2 3713   1.117   1.074   2.178 -0.0803  0.7096 -0.0246
 1250TIP3    H1 3714   1.110   1.050   2.085 -2.2469 -1.4630  0.5876
 1250TIP3    H2 3715   1.055   1.146   2.189  1.0882  1.8209 -0.4467
 1251TIP3   OH2 3716   4.394   4.656   5.166 -0.4374  0.0419  0.0449
 1251TIP3    H1 3717   4.357   4.614   5.243  0.3841 -3.2387 -1.2038
 1251TIP3    H2 3718   4.347   4.618   5.092  1.1854  0.4160 -1.2398
 1252TIP3   OH2 3719   2.866   0.731   0.571  0.1731 -0.3826 -0.1271
 1252TIP3    H1 3720   2.809   0.757   0.499  1.9845 -0.4545 -1.6890
 1252TIP3    H2 3721   2.807   0.715   0.644 -1.6442  0.8873 -1.2340
 1253TIP3   OH2 3722   4.172   3.075   3.992  0.0214  0.4363 -0.1584
 1253TIP3    H1 3723   4.174   3.041   3.902  4.2233  2.0472 -0.8840
 1253TIP3    H2 3724   4.205   3.164   3.985 -0.7318  1.0691  2.8971
 1254TIP3   OH2 3725   0.449   1.859   5.905 -0.2169 -0.9301  0.2709
 1254TIP3    H1 3726   0.421   1.832   5.818  1.3715  0.5685 -0.7682
 1254TIP3    H2 3727   0.521   1.801   5.927  0.1457 -0.5598  0.0691
 1255TIP3   OH2 3728   7.009   0.527   4.926 -0.1004 -0.4287  0.7140
 1255TIP3    H1 3729   6.967   0.441   4.934 -0.5190 -0.2217  0.7976
 1255TIP3    H2 3730   6.989   0.555   4.836  0.8381 -0.8253  0.3687
 1256TIP3   OH2 3731   4.743   4.772   4.583  0.2415  0.3072  0.2969
 1256TIP3    H1 3732   4.784   4.846   4.538  0.5137  0.5519  0.9309
 1256TIP3    H2 3733   4.813   4.736   4.639 -0.5691  1.2225  1.9974
 1257TIP3   OH2 3734   5.190   6.776   4.862  0.4634 -0.1147  0.1351
 1257TIP3    H1 3735   5.247   6.792   4.788  2.3350 -1.1813  1.2566
 1257TIP3    H2 3736   5.205   6.684   4.885 -2.7590 -0.8914 -0.3317
 1258TIP3   OH2 3737   5.551   1.152   3.472  0.0928  0.0682 -0.0566
 1258TIP3    H1 3738   5.617   1.189   3.414 -0.6296  0.0992 -0.8860
 1258TIP3    H2 3739   5.576   1.060   3.480  0.4413  0.1599 -0.0748
 1259TIP3   OH2 3740   1.772   5.025   2.200 -0.6954 -0.3940  0.8706
 1259TIP3    H1 3741   1.751   4.943   2.155  2.0274 -1.6410  1.6371
 1259TIP3    H2 3742   1.794   5.086   2.130 -0.1279 -1.1676  0.3525
 1260TIP3   OH2 3743   5.902   0.681   0.448 -0.1870  0.3251  0.3948
 1260TIP3    H1 3744   5.932   0.763   0.407  1.7910 -0.3955  0.2965
 1260TIP3    H2 3745   5.851   0.638   0.380 -0.4038  1.0127  0.1065
 1261TIP3   OH2 3746   7.136   1.984   2.162  0.5492  1.0951 -0.1027
 1261TIP3    H1 3747   7.191   2.010   2.236  0.1255  0.3743  0.4747
 1261TIP3    H2 3748   7.142   2.058   2.101  1.4218  1.4186  0.3551
 1262TIP3   OH2 3749   3.874   2.694   5.812 -0.4749  0.5479 -0.4298
 1262TIP3    H1 3750   3.789   2.665   5.778  0.5281 -2.9561 -0.3578
 1262TIP3    H2 3751   3.879   2.655   5.899  1.0908  0.9409 -0.3179
 1263TIP3   OH2 3752   2.397   5.914   2.903 -0.0545 -0.2610  0.3297
 1263TIP3    H1 3753   2.460   5.920   2.832 -0.2048  0.2940  0.2386
 1263TIP3    H2 3754   2.450   5.926   2.982  0.4210 -2.7224  0.4681
 1264TIP3   OH2 3755   2.706   4.383   3.797 -0.2142  0.5622 -0.7791
 1264TIP3    H1 3756   2.663   4.325   3.859  0.4158  0.3992 -0.4818
 1264TIP3    H2 3757   2.635   4.432   3.756 -0.5966  1.3612  0.7667
 1265TIP3   OH2 3758   5.280   6.745   2.802  0.4727  0.1942 -0.2769
 1265TIP3    H1 3759   5.202   6.781   2.843  0.8013  2.2108 -1.2738
 1265TIP3    H2 3760   5.346   6.814   2.810  1.1381 -0.1028 -2.3578
 1266TIP3   OH2 3761   6.543   2.143   2.227 -0.6859 -0.6054 -0.1065
 1266TIP3    H1 3762   6.586   2.196   2.160 -1.3525  0.2796  0.1388
 1266TIP3    H2 3763   6.613   2.122   2.289 -0.1776 -0.9909 -0.8026
 1267TIP3   OH2 3764   0.348   1.555   0.116 -0.1786 -0.2399  0.3991
 1267TIP3    H1 3765   0.385   1.642   0.100 -2.0382  0.8767  1.8665
 1267TIP3    H2 3766   0.307   1.531   0.033  0.5941  0.1275 -0.1073
 1268TIP3   OH2 3767   4.149   0.114   4.244  0.4322  0.0744  0.6596
 1268TIP3    H1 3768   4.226   0.083   4.291 -0.0366  1.2740  2.3092
 1268TIP3    H2 3769   4.079   0.054   4.271  0.4726 -0.1480  0.2823
 1269TIP3   OH2 3770   4.215   5.775   5.383 -0.4374  0.6388 -0.5427
 1269TIP3    H1 3771   4.183   5.717   5.314 -2.9116  0.0960  0.9569
 1269TIP3    H2 3772   4.310   5.761   5.383 -0.8224 -2.8353 -0.7997
 1270TIP3   OH2 3773   3.974   6.153   0.896 -0.0655  0.2712  0.1410
 1270TIP3    H1 3774   4.005   6.122   0.811 -0.0504  0.2508  0.1541
 1270TIP3    H2 3775   3.903   6.094   0.920 -1.5018  1.5265 -0.8445
 1271TIP3   OH2 3776   3.461   1.681   4.891 -0.1372 -0.1864  0.1357
 1271TIP3    H1 3777   3.452   1.621   4.817 -0.0336 -1.6043  1.2263
 1271TIP3    H2 3778   3.511   1.754   4.856 -1.5744  0.0215 -1.6399
 1272TIP3   OH2 3779   6.091   4.120   4.336 -0.0670 -0.3313 -0.2023
 1272TIP3    H1 3780   6.065   4.089   4.422  0.1858 -1.6869 -0.5817
 1272TIP3    H2 3781   6.183   4.144   4.345 -0.5134  1.2950  0.3304
 1273TIP3   OH2 3782   0.715   2.782   2.080 -0.6188  0.3073 -0.1662
 1273TIP3    H1 3783   0.707   2.873   2.052  0.1205  0.7423  0.9623
 1273TIP3    H2 3784   0.779   2.784   2.151 -0.1295 -1.1841 -0.5203
 1274TIP3   OH2 3785   4.863   1.116   5.113  0.0680 -0.0445 -0.4770
 1274TIP3    H1 3786   4.798   1.060   5.072 -1.4364  0.6981  0.7591
 1274TIP3    H2 3787   4.940   1.110   5.056 -1.0779 -0.9332 -2.0172
 1275TIP3   OH2 3788   0.315   0.905   0.397  1.0055 -0.0620 -0.4607
 1275TIP3    H1 3789   0.323   0.883   0.305 -0.8972  2.4934 -1.3673
 1275TIP3    H2 3790   0.390   0.963   0.414  0.9138  0.1143 -0.6488
 1276TIP3   OH2 3791   5.389   1.578   0.179 -0.3890 -0.1959 -0.5808
 1276TIP3    H1 3792   5.453   1.615   0.240  0.0232 -0.0802 -1.0687
 1276TIP3    H2 3793   5.375   1.647   0.114 -1.1744 -0.1456 -0.3672
 1277TIP3   OH2 3794   4.835   6.001   4.567 -0.1008 -0.4146  0.1054
 1277TIP3    H1 3795   4.821   5.907   4.563  2.3396 -0.8410 -0.5450
 1277TIP3    H2 3796   4.766   6.038   4.512 -1.2911 -1.7609  0.6294
 1278TIP3   OH2 3797   5.604   5.790   3.501  0.2344 -0.4492  0.4581
 1278TIP3    H1 3798   5.548   5.798   3.424  0.3514 -1.6249  0.2365
 1278TIP3    H2 3799   5.546   5.806   3.576  0.2978  1.5949  0.1285
 1279TIP3   OH2 3800   3.084   5.746   0.865  0.2237 -0.1901  0.2736
 1279TIP3    H1 3801   3.012   5.782   0.915  0.2822  0.1563  0.1111
 1279TIP3    H2 3802   3.049   5.665   0.827 -0.6165  0.8157 -1.1756
 1280TIP3   OH2 3803   5.479   0.193   2.517 -0.2180 -0.0305 -0.1228
 1280TIP3    H1 3804   5.525   0.205   2.600 -0.8094  1.7204 -0.0182
 1280TIP3    H2 3805   5.538   0.229   2.451  0.3360 -1.5948 -0.5212
 1281TIP3   OH2 3806   0.088   1.224   0.630  0.1721 -0.1011 -0.2684
 1281TIP3    H1 3807   0.015   1.231   0.569  1.0565  0.0429 -1.3689
 1281TIP3    H2 3808   0.123   1.136   0.616  0.4008 -0.0541 -0.0016
 1282TIP3   OH2 3809   2.007   4.801   3.576  0.3758 -0.2875 -0.1465
 1282TIP3    H1 3810   2.076   4.862   3.602 -0.8076  0.9496  0.2357
 1282TIP3    H2 3811   1.986   4.753   3.657 -0.7833  0.9883  0.3519
 1283TIP3   OH2 3812   6.339   3.324   3.865  0.4672  0.1381  0.2385
 1283TIP3    H1 3813   6.318   3.416   3.882  2.3803  0.5133  0.7449
 1283TIP3    H2 3814   6.355   3.287   3.952 -0.3373 -0.7189  0.0423
 1284TIP3   OH2 3815   4.637   4.192   2.144 -0.0297 -0.1193 -0.3382
 1284TIP3    H1 3816   4.581   4.237   2.080  1.2642  2.2607  0.0736
 1284TIP3    H2 3817   4.688   4.131   2.091 -0.9737 -0.2474 -1.1400
 1285TIP3   OH2 3818   5.499   3.677   0.700 -0.2005 -0.1928  0.0589
 1285TIP3    H1 3819   5.485   3.762   0.741 -0.7144 -0.2922  0.0935
 1285TIP3    H2 3820   5.468   3.614   0.764  1.1947 -0.4705  0.4839
 1286TIP3   OH2 3821   1.167   1.738   0.811  0.1072 -0.7829 -0.2582
 1286TIP3    H1 3822   1.160   1.651   0.850  0.3247 -2.4842 -3.6391
 1286TIP3    H2 3823   1.203   1.722   0.723  0.8651  2.8170 -0.7523
 1287TIP3   OH2 3824   1.620   3.161   5.536  0.2423  0.0093  0.3713
 1287TIP3    H1 3825   1.711   3.170   5.508  0.4757 -1.1505  0.6924
 1287TIP3    H2 3826   1.569   3.170   5.455  0.7029 -0.1549  0.0562
 1288TIP3   OH2 3827   7.030   5.172   2.920  0.4880  0.3969 -0.1638
 1288TIP3    H1 3828   6.976   5.240   2.879  1.4576  1.2796 -0.0095
 1288TIP3    H2 3829   7.067   5.123   2.846 -1.5171 -1.0720 -0.2776
 1289TIP3   OH2 3830   7.145   3.708   0.265 -0.1200  0.3425  0.4716
 1289TIP3    H1 3831   7.128   3.667   0.350 -1.0213  0.1920  0.2369
 1289TIP3    H2 3832   7.066   3.759   0.247 -0.6414 -0.9113 -1.0026
 1290TIP3   OH2 3833   4.422   1.635   3.486 -0.4533  0.1217  0.2942
 1290TIP3    H1 3834   4.508   1.672   3.505  0.6979 -1.8698 -0.6724
 1290TIP3    H2 3835   4.411   1.564   3.549 -0.4356 -0.9473 -0.8598
 1291TIP3   OH2 3836   6.458   5.567   2.203  0.5886  0.0048 -0.2429
 1291TIP3    H1 3837   6.442   5.577   2.297 -1.8359  0.9809 -0.6797
 1291TIP3    H2 3838   6.453   5.655   2.168  0.9386 -0.4104 -1.3737
 1292TIP3   OH2 3839   3.234   0.704   0.071 -0.6382  0.1422  0.6852
 1292TIP3    H1 3840   3.223   0.769   0.002  1.0005 -0.8028 -0.5279
 1292TIP3    H2 3841   3.174   0.732   0.140  0.3747  3.2063  0.4467
 1293TIP3   OH2 3842   2.605   6.021   1.128 -0.4137 -0.3895 -0.5068
 1293TIP3    H1 3843   2.530   5.981   1.172 -1.3426  0.7436 -1.0112
 1293TIP3    H2 3844   2.571   6.103   1.091  0.6928 -0.5763 -2.0498
 1294TIP3   OH2 3845   4.599   1.840   1.157  0.4246 -0.5383 -0.0853
 1294TIP3    H1 3846   4.651   1.782   1.212 -0.9447 -0.7288  1.0612
 1294TIP3    H2 3847   4.581   1.789   1.078 -0.5061 -1.5960  0.7803
 1295TIP3   OH2 3848   2.516   2.016   1.883  0.3027 -0.0653  0.1745
 1295TIP3    H1 3849   2.529   2.106   1.914  0.8665 -0.2106  0.3589
 1295TIP3    H2 3850   2.485   2.026   1.793 -0.8231  0.3484  0.5902
 1296TIP3   OH2 3851   5.572   2.433   5.138  0.4249 -0.3282  0.0732
 1296TIP3    H1 3852   5.635   2.363   5.123  0.4734 -0.0653 -1.0304
 1296TIP3    H2 3853   5.613   2.488   5.205  0.1026 -1.6741  1.4200
 1297TIP3   OH2 3854   6.348   1.048   5.403  0.0831 -0.9181 -0.2002
 1297TIP3    H1 3855   6.332   1.136   5.436  2.6087  0.5553 -2.4627
 1297TIP3    H2 3856   6.398   1.005   5.473 -1.1534 -0.5810  0.9122
 1298TIP3   OH2 3857   5.529   5.771   5.148  0.3518 -0.6493 -0.4651
 1298TIP3    H1 3858   5.620   5.749   5.126  0.4864 -0.8411  0.2466
 1298TIP3    H2 3859   5.528   5.867   5.150  0.5573 -0.6476 -0.3886
 1299TIP3   OH2 3860   0.814   5.971   5.236 -0.3109 -1.0596 -0.1979
 1299TIP3    H1 3861   0.808   5.973   5.140 -0.3648 -1.9748 -0.2235
 1299TIP3    H2 3862   0.907   5.984   5.254 -0.3116 -0.8090 -0.3785
 1300TIP3   OH2 3863   3.050   4.896   0.660 -0.0787 -0.5818  0.1577
 1300TIP3    H1 3864   3.102   4.960   0.611  0.2556 -1.2917 -0.4179
 1300TIP3    H2 3865   3.113   4.829   0.686 -0.4666 -0.7722  0.6070
 1301TIP3   OH2 3866   7.099   1.066   4.763 -0.1758 -0.1460 -0.0239
 1301TIP3    H1 3867   7.181   1.016   4.770  0.5481  1.0375  0.2488
 1301TIP3    H2 3868   7.083   1.072   4.669 -0.3481 -1.0045 -0.0553
 1302TIP3   OH2 3869   0.972   2.877   5.778  0.2876 -0.6631  0.0872
 1302TIP3    H1 3870   1.043   2.871   5.715  0.1138 -0.3067 -0.1458
 1302TIP3    H2 3871   1.013   2.907   5.858  0.4549 -0.8004  0.0535
 1303TIP3   OH2 3872   6.786   4.556   5.177 -0.2370 -0.0022  1.0930
 1303TIP3    H1 3873   6.786   4.508   5.259 -2.1957 -1.5971  0.2359
 1303TIP3    H2 3874   6.737   4.501   5.116  1.1267  1.1082 -1.1778
 1304TIP3   OH2 3875   6.365   4.107   5.644  0.1478  0.1562 -0.3076
 1304TIP3    H1 3876   6.361   4.021   5.602  0.8436  0.5768 -1.2647
 1304TIP3    H2 3877   6.391   4.089   5.734 -0.3184 -0.6769 -0.3288
 1305TIP3   OH2 3878   1.711   3.475   2.868 -0.0125  0.1614  0.0220
 1305TIP3    H1 3879   1.789   3.514   2.830  1.6381 -0.5819  2.3653
 1305TIP3    H2 3880   1.740   3.389   2.898 -1.7202 -0.1214  1.0101
 1306TIP3   OH2 3881   6.165   6.745   4.725 -0.2227  0.3111 -0.1828
 1306TIP3    H1 3882   6.087   6.692   4.740 -0.0854  0.1722  0.0496
 1306TIP3    H2 3883   6.131   6.830   4.695 -0.4297 -0.0421 -0.9769
 1307TIP3   OH2 3884   6.839   6.711   2.150 -0.3513  0.3739  0.3251
 1307TIP3    H1 3885   6.754   6.682   2.183 -0.7634  1.0123 -0.1374
 1307TIP3    H2 3886   6.867   6.778   2.212 -0.6063  0.7884 -0.0005
 1308TIP3   OH2 3887   4.746   5.876   4.107  0.1584  0.1221 -0.5980
 1308TIP3    H1 3888   4.724   5.788   4.077  2.3187 -0.2069 -1.3626
 1308TIP3    H2 3889   4.715   5.879   4.197 -1.0819 -0.9565 -0.9576
 1309TIP3   OH2 3890   5.240   5.675   0.032  0.0755  0.4626  0.4745
 1309TIP3    H1 3891   5.277   5.669   0.120  1.4842  0.2338 -0.0995
 1309TIP3    H2 3892   5.287   5.747  -0.009 -1.5616  1.4915  0.3367
 1310TIP3   OH2 3893   0.719   6.413   3.701  0.0270  0.5816  0.5576
 1310TIP3    H1 3894   0.739   6.469   3.626  0.4624  0.0992  0.3087
 1310TIP3    H2 3895   0.785   6.344   3.698  0.3444  0.8255  1.6711
 1311TIP3   OH2 3896   4.027   3.073   5.062  0.1484 -0.1990  0.4372
 1311TIP3    H1 3897   4.001   3.077   4.970  1.3548 -2.6812 -0.0985
 1311TIP3    H2 3898   4.121   3.051   5.060  0.1447 -0.5822  2.2332
 1312TIP3   OH2 3899   2.453   5.820   4.072  0.0160  0.2260  0.2813
 1312TIP3    H1 3900   2.367   5.799   4.036  0.9792  0.7891 -2.6273
 1312TIP3    H2 3901   2.485   5.737   4.108 -1.0992 -0.3589 -0.0420
 1313TIP3   OH2 3902   0.274   0.436   2.293  0.2892 -0.2700 -0.4650
 1313TIP3    H1 3903   0.364   0.445   2.261  0.4639  1.4106  0.3333
 1313TIP3    H2 3904   0.234   0.371   2.236  1.9209 -0.8126 -1.0455
 1314TIP3   OH2 3905   5.078   1.542   2.254  0.3510  0.3836  0.2338
 1314TIP3    H1 3906   5.022   1.593   2.313  1.4896  1.3559  0.5247
 1314TIP3    H2 3907   5.136   1.493   2.313 -0.8239 -1.4456 -0.0327
 1315TIP3   OH2 3908   1.526   3.159   0.801  0.1423  0.0692 -0.0357
 1315TIP3    H1 3909   1.550   3.249   0.776  1.1360  0.3329  1.6831
 1315TIP3    H2 3910   1.434   3.166   0.827  0.4407  0.7920  0.8814
 1316TIP3   OH2 3911   3.052   5.994   1.809 -0.3051  0.3196  0.4994
 1316TIP3    H1 3912   3.077   6.086   1.803  0.0604  0.2550  0.9304
 1316TIP3    H2 3913   3.107   5.949   1.744  1.1749  0.0937  1.8448
 1317TIP3   OH2 3914   1.332   1.374   4.970  0.9633 -0.0074 -0.3831
 1317TIP3    H1 3915   1.422   1.349   4.994  0.9814  1.3265  1.1033
 1317TIP3    H2 3916   1.344   1.444   4.906  0.9406 -0.8300 -1.3152
 1318TIP3   OH2 3917   1.183   2.886   3.697 -0.9408 -0.2187 -0.5204
 1318TIP3    H1 3918   1.255   2.879   3.634  0.1690  0.6459  0.5974
 1318TIP3    H2 3919   1.200   2.817   3.761 -0.3795  0.7648  0.4213
 1319TIP3   OH2 3920   2.099   4.059   2.672 -0.4872  0.3827 -0.1266
 1319TIP3    H1 3921   2.065   4.080   2.759 -1.6320  1.3073 -0.7739
 1319TIP3    H2 3922   2.194   4.070   2.680 -0.5121 -0.1712  1.1577
 1320TIP3   OH2 3923   1.529   6.747   3.014  0.4663 -0.0699 -0.2568
 1320TIP3    H1 3924   1.461   6.809   3.041 -0.3463 -0.7428 -0.7202
 1320TIP3    H2 3925   1.532   6.683   3.085  0.8898  0.1628 -0.0597
 1321TIP3   OH2 3926   6.328   1.168   5.776 -0.5352  0.2134 -0.7556
 1321TIP3    H1 3927   6.363   1.236   5.833  1.3521 -0.9312 -0.4805
 1321TIP3    H2 3928   6.327   1.208   5.689 -0.6410  0.9879 -0.4075
 1322TIP3   OH2 3929   0.102   4.821   4.464 -0.1047 -0.1514 -0.3723
 1322TIP3    H1 3930   0.093   4.898   4.521  3.5433  0.1312  0.0664
 1322TIP3    H2 3931   0.107   4.857   4.376  0.6046  0.0671 -0.2530
 1323TIP3   OH2 3932   1.154   4.500   4.152  0.1008  0.1146  0.0826
 1323TIP3    H1 3933   1.095   4.516   4.078 -1.7877  0.6320  1.6244
 1323TIP3    H2 3934   1.113   4.428   4.200  1.3493 -0.2696  0.6160
 1324TIP3   OH2 3935   0.384   4.480   1.387  0.1555  0.3638 -0.4006
 1324TIP3    H1 3936   0.353   4.400   1.428  0.8423 -0.2345 -0.9973
 1324TIP3    H2 3937   0.434   4.449   1.311 -0.0506  1.3832 -0.9639
 1325TIP3   OH2 3938   4.998   0.433   5.829  0.0289 -0.2714 -0.0548
 1325TIP3    H1 3939   5.048   0.370   5.777 -1.0435 -0.7296 -0.5442
 1325TIP3    H2 3940   4.991   0.510   5.773  0.5966 -0.0295  0.2039
 1326TIP3   OH2 3941   5.109   3.864   1.877 -0.3925 -0.1714 -0.1356
 1326TIP3    H1 3942   5.135   3.784   1.832  2.0746  1.1545 -1.2569
 1326TIP3    H2 3943   5.014   3.862   1.876 -0.4255 -3.2612  0.2586
 1327TIP3   OH2 3944   5.371   0.680   5.655  1.1341  0.6149 -0.0940
 1327TIP3    H1 3945   5.368   0.744   5.726 -0.7026  0.6273 -0.1331
 1327TIP3    H2 3946   5.300   0.706   5.596  0.4158 -1.3437 -0.1838
 1328TIP3   OH2 3947   4.355   0.606   0.181 -0.3843  0.5713 -0.1290
 1328TIP3    H1 3948   4.446   0.586   0.202 -0.9346 -4.1638 -1.1180
 1328TIP3    H2 3949   4.356   0.631   0.088 -0.1370 -0.1334 -0.3185
 1329TIP3   OH2 3950   5.606   6.200   2.635  0.3025 -0.3521  0.1355
 1329TIP3    H1 3951   5.513   6.221   2.642  0.4631 -0.1927  2.9468
 1329TIP3    H2 3952   5.609   6.105   2.630 -0.0243 -0.3737  0.3190
 1330TIP3   OH2 3953   3.848   3.472   0.596  0.3823 -0.4838  0.1189
 1330TIP3    H1 3954   3.875   3.409   0.663  1.2327 -0.4453 -0.1795
 1330TIP3    H2 3955   3.853   3.423   0.514  0.5859 -0.1613 -0.0630
 1331TIP3   OH2 3956   3.963   4.307   5.114  0.1547  0.0294 -0.4450
 1331TIP3    H1 3957   3.988   4.216   5.102  1.8162  0.2805  0.7401
 1331TIP3    H2 3958   4.008   4.354   5.044  2.4419  0.3527  1.1150
 1332TIP3   OH2 3959   6.498   2.748   0.758  0.1081  0.0315  0.6881
 1332TIP3    H1 3960   6.473   2.824   0.705  0.9895 -0.7783 -0.9461
 1332TIP3    H2 3961   6.585   2.724   0.728  0.0225 -1.3903  1.4570
 1333TIP3   OH2 3962   4.537   0.578   2.537  0.1133 -0.3065  0.6151
 1333TIP3    H1 3963   4.492   0.644   2.483 -0.1881 -0.0025  1.2296
 1333TIP3    H2 3964   4.537   0.499   2.482  0.4367  0.1883 -0.1106
 1334TIP3   OH2 3965   5.905   5.964   2.813 -0.4413  0.2296  0.2393
 1334TIP3    H1 3966   5.901   6.059   2.819  1.7047  0.3298  0.6435
 1334TIP3    H2 3967   5.980   5.946   2.757 -1.3808 -1.2459 -0.6326
 1335TIP3   OH2 3968   6.664   2.524   4.288  0.4912 -0.1040  0.0705
 1335TIP3    H1 3969   6.719   2.503   4.363 -1.1177 -0.6937  1.1302
 1335TIP3    H2 3970   6.725   2.527   4.214  2.0472  0.0706  1.3059
 1336TIP3   OH2 3971   4.786   2.600   5.232 -0.6099  0.2889  0.0580
 1336TIP3    H1 3972   4.865   2.569   5.187 -0.1653 -0.0057  1.0208
 1336TIP3    H2 3973   4.800   2.694   5.244  0.5032 -0.0669  1.9426
 1337TIP3   OH2 3974   5.710   1.442   2.977 -0.5261 -0.0258 -0.9479
 1337TIP3    H1 3975   5.630   1.416   3.021 -0.1815 -1.6772 -1.2212
 1337TIP3    H2 3976   5.777   1.382   3.011  0.4428  0.8183 -1.2895
 1338TIP3   OH2 3977   6.749   3.531   0.420  0.2030 -0.0393 -0.1659
 1338TIP3    H1 3978   6.796   3.590   0.478  0.5717 -0.7146  0.2385
 1338TIP3    H2 3979   6.669   3.578   0.398  0.1291  0.3028  0.7697
 1339TIP3   OH2 3980   6.972   5.508   1.927  0.8566 -0.6391  0.0566
 1339TIP3    H1 3981   6.933   5.594   1.942 -0.2208 -0.7246 -1.9252
 1339TIP3    H2 3982   7.027   5.520   1.850  1.1337 -1.5994  0.0974
 1340TIP3   OH2 3983   4.401   3.886   3.494  0.9590 -0.9670  0.6388
 1340TIP3    H1 3984   4.395   3.799   3.534 -2.1102 -0.6633  1.0391
 1340TIP3    H2 3985   4.376   3.946   3.564 -0.6933 -0.1125 -0.6198
 1341TIP3   OH2 3986   3.749   6.411   4.904 -0.2119 -0.1048 -0.6479
 1341TIP3    H1 3987   3.770   6.321   4.878  0.8175  0.2943 -1.2622
 1341TIP3    H2 3988   3.756   6.411   4.999  3.2574  0.0952 -0.7856
 1342TIP3   OH2 3989   6.199   0.581   3.619 -0.3376  0.0160 -0.0967
 1342TIP3    H1 3990   6.133   0.576   3.549  0.0646 -1.5037 -0.4221
 1342TIP3    H2 3991   6.282   0.586   3.572  0.0899 -2.8649  0.1292
 1343TIP3   OH2 3992   3.226   5.812   3.746  0.1457 -0.0613  0.0017
 1343TIP3    H1 3993   3.214   5.722   3.777 -1.1781  0.4933  1.2216
 1343TIP3    H2 3994   3.317   5.833   3.766 -0.1032 -0.4397  1.6432
 1344TIP3   OH2 3995   2.892   1.749   0.282  0.4702  0.4223  0.3646
 1344TIP3    H1 3996   2.897   1.807   0.357 -0.8922 -0.8982  1.5364
 1344TIP3    H2 3997   2.814   1.777   0.235  0.9822  0.8568 -0.2422
 1345TIP3   OH2 3998   2.217   5.903   5.591 -0.3342  0.3275  0.4572
 1345TIP3    H1 3999   2.189   5.821   5.552  0.0817 -0.1029  1.0540
 1345TIP3    H2 4000   2.310   5.911   5.569 -0.6985  1.3552 -0.8300
 1346TIP3   OH2 4001   1.308   1.991   4.642  0.0576  0.1712  0.0785
 1346TIP3    H1 4002   1.372   1.985   4.571  1.6206  0.1827  1.4117
 1346TIP3    H2 4003   1.327   2.075   4.684 -1.0270  0.2964  0.3506
 1347TIP3   OH2 4004   1.073   4.580   3.505  0.6773 -0.0097 -0.6053
 1347TIP3    H1 4005   1.058   4.674   3.515 -1.0716 -0.3759  0.4759
 1347TIP3    H2 4006   1.042   4.541   3.586  2.3459 -1.4635 -0.5889
 1348TIP3   OH2 4007   2.012   3.248   4.638  0.2216  0.8577  0.5925
 1348TIP3    H1 4008   2.060   3.327   4.612 -1.1054  1.1424 -1.1888
 1348TIP3    H2 4009   1.940   3.242   4.576  1.0316 -2.5400 -0.2300
 1349TIP3   OH2 4010   4.218   5.597   3.158  0.2048  0.3113  0.4092
 1349TIP3    H1 4011   4.285   5.631   3.217  0.1718  0.8733  0.1290
 1349TIP3    H2 4012   4.178   5.675   3.120 -0.6781 -0.0206  0.6513
 1350TIP3   OH2 4013   3.029   0.267   4.040  0.4733 -0.1403 -0.2270
 1350TIP3    H1 4014   3.116   0.230   4.025  0.9232  0.8487 -0.1519
 1350TIP3    H2 4015   3.043   0.336   4.105 -0.6226 -0.9617  0.9295
 1351TIP3   OH2 4016   6.649   1.434   1.222 -0.3090 -0.1716 -0.1975
 1351TIP3    H1 4017   6.719   1.381   1.183  1.7273  2.3852 -0.3637
 1351TIP3    H2 4018   6.580   1.372   1.244  1.2630 -2.6216 -1.7030
 1352TIP3   OH2 4019   1.594   1.698   1.285  0.1837 -0.6282  0.3857
 1352TIP3    H1 4020   1.604   1.605   1.305 -0.7130 -0.5113  1.5360
 1352TIP3    H2 4021   1.499   1.710   1.275  0.3229  0.0829 -0.1784
 1353TIP3   OH2 4022   6.051   0.105   5.212  0.0407 -0.6677 -0.0546
 1353TIP3    H1 4023   5.996   0.056   5.273 -2.3846  2.2227  0.3033
 1353TIP3    H2 4024   6.045   0.196   5.242  0.6103  0.5519 -3.2524
 1354TIP3   OH2 4025   7.060   6.406   0.044  0.5812  0.1448 -0.3232
 1354TIP3    H1 4026   6.988   6.386  -0.015  0.6033 -0.6955 -0.0722
 1354TIP3    H2 4027   7.038   6.492   0.080 -0.1637  0.0084 -0.4469
 1355TIP3   OH2 4028   2.171   2.535   3.743  0.3862 -0.2035  0.0927
 1355TIP3    H1 4029   2.244   2.543   3.682 -0.3215  1.5134 -0.6025
 1355TIP3    H2 4030   2.118   2.463   3.708 -0.0767  0.8366 -1.4554
 1356TIP3   OH2 4031   3.570   0.937   4.602  0.0801 -0.3197  0.0896
 1356TIP3    H1 4032   3.639   1.001   4.590 -0.9112  0.6816 -0.4282
 1356TIP3    H2 4033   3.499   0.986   4.643  0.5888 -1.8995  3.1712
 1357TIP3   OH2 4034   3.770   6.297   2.249 -0.1716  0.3383  0.1197
 1357TIP3    H1 4035   3.709   6.363   2.215  0.9419  1.0595 -0.5635
 1357TIP3    H2 4036   3.714   6.231   2.289 -1.4816  0.3718 -1.5236
 1358TIP3   OH2 4037   5.485   3.929   2.737  0.1912 -0.3128  0.0203
 1358TIP3    H1 4038   5.553   3.910   2.671  0.9209  0.2566  0.5915
 1358TIP3    H2 4039   5.472   4.023   2.731  1.4353  0.0154  1.7683
 1359TIP3   OH2 4040   4.027   2.291   3.948  0.4461 -0.2667 -0.5074
 1359TIP3    H1 4041   4.121   2.299   3.964  0.2906 -1.3756  1.1901
 1359TIP3    H2 4042   3.993   2.247   4.026 -1.7563  1.5932 -0.3040
 1360TIP3   OH2 4043   6.361   5.065   4.363 -0.1718 -0.0644 -0.0566
 1360TIP3    H1 4044   6.354   4.996   4.297  0.8638 -0.3232  0.0866
 1360TIP3    H2 4045   6.309   5.033   4.437 -1.3030  0.2104 -0.7238
 1361TIP3   OH2 4046   4.522   1.658   4.277 -0.1762 -0.0697  0.3595
 1361TIP3    H1 4047   4.613   1.629   4.273 -0.0263  0.3305  0.8705
 1361TIP3    H2 4048   4.526   1.748   4.309 -0.7047  0.2041 -0.3127
 1362TIP3   OH2 4049   5.929   4.777   2.610 -0.2544 -0.5200  0.9392
 1362TIP3    H1 4050   5.933   4.841   2.539  1.1758  0.1027  1.5399
 1362TIP3    H2 4051   5.972   4.699   2.574  2.7207  0.5746  1.8144
 1363TIP3   OH2 4052   6.892   3.012   5.834  0.0910  0.5382 -0.5740
 1363TIP3    H1 4053   6.854   2.926   5.822 -1.4194  0.4664  3.1378
 1363TIP3    H2 4054   6.983   3.003   5.805  0.2181 -2.5979  0.4003
 1364TIP3   OH2 4055   3.076   1.128   3.489 -0.3734 -0.6755  0.0868
 1364TIP3    H1 4056   3.036   1.117   3.576  0.7497  0.8679  0.8508
 1364TIP3    H2 4057   3.133   1.204   3.499  2.0053 -2.1725 -1.1993
 1365TIP3   OH2 4058   6.078   2.755   4.446 -0.1452 -0.3101  0.7088
 1365TIP3    H1 4059   6.115   2.840   4.470 -0.8316  0.0341  0.5676
 1365TIP3    H2 4060   6.043   2.768   4.358 -0.3833 -0.6960  0.7423
 1366TIP3   OH2 4061   0.974   5.441   2.668 -0.6312  0.0576  0.8988
 1366TIP3    H1 4062   1.005   5.507   2.730 -0.7223 -0.0024  1.0097
 1366TIP3    H2 4063   1.052   5.391   2.645 -0.4290  0.6536  0.2641
 1367TIP3   OH2 4064   2.679   4.063   3.073  1.0260  0.1028 -0.0190
 1367TIP3    H1 4065   2.608   3.999   3.077  1.7013 -0.6117  1.2422
 1367TIP3    H2 4066   2.648   4.129   3.011  1.3712 -2.7022 -3.5213
 1368TIP3   OH2 4067   5.430   3.180   1.391 -0.1042  0.2176 -0.4574
 1368TIP3    H1 4068   5.408   3.209   1.480 -1.5021 -0.4636 -0.5701
 1368TIP3    H2 4069   5.371   3.229   1.334 -0.2482 -0.4636 -0.8981
 1369TIP3   OH2 4070   5.129   4.655   1.836  0.2947 -0.4178 -0.2800
 1369TIP3    H1 4071   5.073   4.598   1.784 -0.1443  0.9155 -1.3131
 1369TIP3    H2 4072   5.214   4.651   1.793  0.7432 -1.5839  0.6495
 1370TIP3   OH2 4073   6.018   0.385   5.245  0.7137  0.1570 -0.4371
 1370TIP3    H1 4074   5.999   0.364   5.336  1.6721  0.4987 -0.1543
 1370TIP3    H2 4075   6.093   0.445   5.248 -0.5277  1.8644 -1.3251
 1371TIP3   OH2 4076   1.658   4.445   4.420 -0.6743  0.0247  0.0808
 1371TIP3    H1 4077   1.573   4.403   4.409 -0.1485 -1.0098 -0.1895
 1371TIP3    H2 4078   1.706   4.424   4.340  0.5424 -1.1719  1.0572
 1372TIP3   OH2 4079   0.125   2.799   4.611 -0.0404 -0.6770 -0.3141
 1372TIP3    H1 4080   0.132   2.844   4.695  0.0048 -1.2151 -0.0188
 1372TIP3    H2 4081   0.216   2.782   4.585 -0.0393 -2.5765  0.6949
 1373TIP3   OH2 4082   3.410   6.145   3.069 -0.7590 -0.0843 -0.1003
 1373TIP3    H1 4083   3.347   6.183   3.130 -1.9771 -0.2903 -1.1894
 1373TIP3    H2 4084   3.413   6.207   2.996 -0.5846 -0.6570 -0.5897
 1374TIP3   OH2 4085   2.559   5.289   5.131 -0.0534 -0.1818 -0.6472
 1374TIP3    H1 4086   2.477   5.294   5.181  0.3123 -0.6311  0.0058
 1374TIP3    H2 4087   2.563   5.198   5.101  0.2978 -0.2119 -0.5132
 1375TIP3   OH2 4088   3.818   1.259   0.707 -0.5641  0.2473 -0.1850
 1375TIP3    H1 4089   3.749   1.198   0.736 -0.7639 -0.0477 -1.2413
 1375TIP3    H2 4090   3.835   1.234   0.616 -0.5394  1.6830 -0.5949
 1376TIP3   OH2 4091   1.485   5.698   4.718 -0.3126  0.2644  0.5170
 1376TIP3    H1 4092   1.505   5.656   4.802  1.2168  1.1768  0.6507
 1376TIP3    H2 4093   1.502   5.630   4.653  2.3074  0.6196  0.7123
 1377TIP3   OH2 4094   0.174   2.345   5.396  0.4232 -0.6323  0.0552
 1377TIP3    H1 4095   0.115   2.313   5.464  1.3321 -0.6627  0.8484
 1377TIP3    H2 4096   0.176   2.275   5.331 -1.7787  0.0902 -0.8908
 1378TIP3   OH2 4097   0.254   5.837   2.932 -0.2075  0.2368 -0.5560
 1378TIP3    H1 4098   0.327   5.798   2.979  0.0126  0.9507 -0.3072
 1378TIP3    H2 4099   0.292   5.869   2.850 -0.5877 -1.0075 -1.2576
 1379TIP3   OH2 4100   3.373   3.294   4.782  0.0800 -0.3917 -0.5017
 1379TIP3    H1 4101   3.289   3.287   4.738 -0.4167 -0.6858  0.4532
 1379TIP3    H2 4102   3.372   3.222   4.846 -0.0025  1.0905  1.2458
 1380TIP3   OH2 4103   1.249   1.448   3.185  0.0263 -0.2605 -0.2957
 1380TIP3    H1 4104   1.283   1.391   3.116 -0.0883 -1.5525  0.6567
 1380TIP3    H2 4105   1.281   1.407   3.266  1.5842  2.1247  0.3925
 1381TIP3   OH2 4106   2.431   4.905   4.753  0.4121 -0.5861  0.0098
 1381TIP3    H1 4107   2.368   4.834   4.763 -1.1704  0.7342 -0.1586
 1381TIP3    H2 4108   2.469   4.916   4.840 -3.2040  1.7722  1.4748
 1382TIP3   OH2 4109   3.825   1.891   1.688 -0.6377  0.3138  0.2247
 1382TIP3    H1 4110   3.892   1.863   1.751 -1.6674 -0.3331  1.0582
 1382TIP3    H2 4111   3.859   1.861   1.603  0.1749  0.0876  0.6136
 1383TIP3   OH2 4112   2.155   5.365   1.669  0.5230 -0.1152 -0.0308
 1383TIP3    H1 4113   2.211   5.442   1.675  1.6533 -0.6945 -2.1753
 1383TIP3    H2 4114   2.213   5.295   1.638 -1.0762 -1.1134 -0.8845
 1384TIP3   OH2 4115   3.039   2.892   5.127  0.1173 -0.2802 -0.4127
 1384TIP3    H1 4116   3.039   2.988   5.123 -0.6156 -0.2478  0.0378
 1384TIP3    H2 4117   3.128   2.866   5.104  0.4037  0.5261 -0.2336
 1385TIP3   OH2 4118   3.902   1.585   5.610 -0.1806  0.2400  0.2887
 1385TIP3    H1 4119   3.956   1.614   5.536 -0.5595 -0.5493 -0.3181
 1385TIP3    H2 4120   3.960   1.531   5.663  0.1865  1.0765  0.7644
 1386TIP3   OH2 4121   6.194   1.210   0.049  0.4009  0.4812  0.4064
 1386TIP3    H1 4122   6.175   1.275  -0.018  1.4861  1.2153  0.7728
 1386TIP3    H2 4123   6.290   1.214   0.059  0.3768 -0.4494  1.1628
 1387TIP3   OH2 4124   3.753   1.155   4.595  0.0964 -0.0556  0.2757
 1387TIP3    H1 4125   3.824   1.174   4.534  0.5970  1.4311  1.2740
 1387TIP3    H2 4126   3.691   1.228   4.584 -1.7324 -1.7215 -1.1573
 1388TIP3   OH2 4127   2.793   1.221   4.386 -0.4981 -0.2208  0.4125
 1388TIP3    H1 4128   2.772   1.136   4.424  1.5618 -1.5807 -1.2803
 1388TIP3    H2 4129   2.886   1.215   4.362 -0.7308  1.8688 -1.3598
 1389TIP3   OH2 4130   1.365   0.530   4.121 -0.0767  0.0440  0.5389
 1389TIP3    H1 4131   1.283   0.560   4.159 -1.6417 -2.0359 -0.9983
 1389TIP3    H2 4132   1.375   0.440   4.153  0.8288 -0.2366 -0.4725
 1390TIP3   OH2 4133   6.628   6.075   4.873 -0.2692 -0.6916 -0.2858
 1390TIP3    H1 4134   6.585   5.989   4.869 -0.5811 -0.5471 -0.0917
 1390TIP3    H2 4135   6.610   6.106   4.962  0.0484 -0.5300 -0.2787
 1391TIP3   OH2 4136   6.117   0.122   0.025  0.4343 -0.2111  0.5129
 1391TIP3    H1 4137   6.179   0.170   0.079  0.3328 -1.4130  1.7530
 1391TIP3    H2 4138   6.167   0.046  -0.007 -0.2990 -1.0605  1.3293
 1392TIP3   OH2 4139   1.700   5.466   1.037 -0.2264 -0.7697 -0.0388
 1392TIP3    H1 4140   1.776   5.409   1.025  1.2503  1.0910  0.0056
 1392TIP3    H2 4141   1.666   5.443   1.123  2.0240  0.2278  1.2042
 1393TIP3   OH2 4142   4.648   4.416   4.040  0.7082 -0.0055  0.2357
 1393TIP3    H1 4143   4.721   4.416   3.978  0.6331 -0.6469  0.1449
 1393TIP3    H2 4144   4.638   4.325   4.067 -1.0163 -0.1958 -0.8780
 1394TIP3   OH2 4145   1.111   0.384   2.896  0.0820 -0.4675 -0.3931
 1394TIP3    H1 4146   1.052   0.311   2.914  0.7472 -0.4695  2.1901
 1394TIP3    H2 4147   1.056   0.462   2.902 -0.1332 -0.6131 -0.4861
 1395TIP3   OH2 4148   5.683   5.310   2.587  0.2059  0.3219 -0.1719
 1395TIP3    H1 4149   5.674   5.215   2.572 -0.7781  0.3457  0.1696
 1395TIP3    H2 4150   5.777   5.325   2.592  0.4796 -0.2909 -2.3837
 1396TIP3   OH2 4151   7.123   1.823   3.939  0.2973 -0.4912  0.0323
 1396TIP3    H1 4152   7.072   1.783   3.869  0.5110  3.2711 -2.5390
 1396TIP3    H2 4153   7.059   1.854   4.002 -0.3232  0.4952 -1.0603
 1397TIP3   OH2 4154   1.678   6.051   3.797 -0.1672 -0.2195 -0.6381
 1397TIP3    H1 4155   1.717   6.108   3.731  0.1669  0.9914  0.5812
 1397TIP3    H2 4156   1.603   6.099   3.830  0.6181 -0.0582  1.0282
 1398TIP3   OH2 4157   1.624   1.207   2.348  0.0102 -0.3157 -0.2094
 1398TIP3    H1 4158   1.719   1.208   2.339 -0.0858  1.3884 -1.6719
 1398TIP3    H2 4159   1.592   1.186   2.261 -0.9535 -0.3531  0.1423
 1399TIP3   OH2 4160   4.650   2.647   2.596  0.0508  0.3735  0.3526
 1399TIP3    H1 4161   4.686   2.717   2.651 -1.3648 -0.0665  1.8998
 1399TIP3    H2 4162   4.557   2.645   2.616 -0.0831 -1.4272 -0.2652
 1400TIP3   OH2 4163   4.701   1.359   4.074  0.1239  0.1955 -0.3807
 1400TIP3    H1 4164   4.785   1.317   4.058  0.4929  0.0111  1.6679
 1400TIP3    H2 4165   4.645   1.332   4.001  0.6729 -2.9399  0.2151
 1401TIP3   OH2 4166   2.564   1.307   4.961  0.6679 -0.0243 -0.1707
 1401TIP3    H1 4167   2.635   1.268   5.012  0.2867 -0.9959 -0.3581
 1401TIP3    H2 4168   2.596   1.305   4.871  1.3941  1.8095  0.0089
 1402TIP3   OH2 4169   4.071   1.340   4.660 -0.5540  0.7423  0.0151
 1402TIP3    H1 4170   4.010   1.305   4.595  0.7681 -0.1937 -0.7885
 1402TIP3    H2 4171   4.146   1.370   4.609  0.0721  0.9673  1.0341
 1403TIP3   OH2 4172   0.932   3.901   0.482 -0.5442 -0.3945 -0.1417
 1403TIP3    H1 4173   0.931   3.825   0.424 -1.7610 -0.6547  0.1950
 1403TIP3    H2 4174   0.847   3.943   0.469  0.2348  1.1181 -0.5744
 1404TIP3   OH2 4175   1.840   1.036   1.470  0.8911 -0.2165 -0.4211
 1404TIP3    H1 4176   1.796   1.108   1.425  0.6594  0.3817  0.7224
 1404TIP3    H2 4177   1.920   1.022   1.419 -0.2029 -0.7972 -2.0693
 1405TIP3   OH2 4178   1.518   0.066   3.613  0.6687  0.4029 -0.3255
 1405TIP3    H1 4179   1.531   0.125   3.538  0.9033  1.9885  0.9155
 1405TIP3    H2 4180   1.518   0.124   3.689  0.0215 -1.1295  0.8814
 1406TIP3   OH2 4181   1.726   0.733   0.996 -0.2964 -0.8954  0.5301
 1406TIP3    H1 4182   1.775   0.650   0.996  0.1692 -0.6965 -1.7631
 1406TIP3    H2 4183   1.793   0.801   0.994 -0.6781 -0.4248  2.2570
 1407TIP3   OH2 4184   1.519   2.448   2.682  0.2175  0.1178 -0.0479
 1407TIP3    H1 4185   1.491   2.437   2.773  1.3619 -1.4816  0.1590
 1407TIP3    H2 4186   1.610   2.476   2.688  1.1464 -2.4942 -0.6238
 1408TIP3   OH2 4187   1.548   1.741   5.663  0.1423  0.1195 -0.3154
 1408TIP3    H1 4188   1.492   1.683   5.714 -0.4366 -1.4401 -2.5798
 1408TIP3    H2 4189   1.488   1.808   5.630  0.1932  0.1527 -0.3396
 1409TIP3   OH2 4190   2.333   6.737   1.119  0.1283 -0.1563  0.7654
 1409TIP3    H1 4191   2.377   6.801   1.176 -0.3170 -0.1412  1.1014
 1409TIP3    H2 4192   2.262   6.703   1.173  0.0123 -0.5168  0.3857
 1410TIP3   OH2 4193   4.517   2.341   2.799  0.5942 -0.3284 -0.0562
 1410TIP3    H1 4194   4.493   2.432   2.817  0.2664 -0.5537  0.6992
 1410TIP3    H2 4195   4.457   2.313   2.731  0.5049 -0.0731 -0.0850
 1411TIP3   OH2 4196   2.266   4.299   1.039  0.4309  0.4291 -0.2353
 1411TIP3    H1 4197   2.336   4.254   0.993 -0.1825 -0.8744  0.0773
 1411TIP3    H2 4198   2.241   4.370   0.980  1.0819  0.0725 -0.9576
 1412TIP3   OH2 4199   5.245   4.627   3.819  0.2225  0.0862  0.2215
 1412TIP3    H1 4200   5.307   4.563   3.855  0.9718  0.2459 -0.7430
 1412TIP3    H2 4201   5.170   4.574   3.791  0.5769 -0.3036 -0.0077
 1413TIP3   OH2 4202   1.605   1.658   3.891 -0.1597 -0.5916 -0.4786
 1413TIP3    H1 4203   1.537   1.626   3.950 -0.7302  0.6809 -0.4134
 1413TIP3    H2 4204   1.624   1.584   3.833 -2.7643 -0.5152 -1.5492
 1414TIP3   OH2 4205   6.508   3.170   3.554 -0.1323 -0.2233 -0.5393
 1414TIP3    H1 4206   6.439   3.232   3.528 -1.4857 -1.7593 -0.7483
 1414TIP3    H2 4207   6.515   3.109   3.480 -0.1648 -1.4320  0.4203
 1415TIP3   OH2 4208   4.498   1.806   0.651 -0.4628 -0.5140  0.1245
 1415TIP3    H1 4209   4.403   1.801   0.650 -0.4402 -1.6818  1.1227
 1415TIP3    H2 4210   4.526   1.741   0.586 -0.3169  2.2517 -2.8325
 1416TIP3   OH2 4211   2.129   6.094   1.640 -0.8086  0.3926  0.6355
 1416TIP3    H1 4212   2.179   6.176   1.641 -1.6609  0.9111  0.9246
 1416TIP3    H2 4213   2.196   6.026   1.629 -0.1524  1.1635 -0.2549
 1417TIP3   OH2 4214   6.901   3.891   0.916 -0.3822  0.3923 -0.4096
 1417TIP3    H1 4215   6.991   3.863   0.901 -0.6001 -0.4733 -0.1356
 1417TIP3    H2 4216   6.851   3.810   0.922 -0.8744  0.7742  1.3905
 1418TIP3   OH2 4217   6.259   1.012   0.415 -0.4435  0.1420 -0.2171
 1418TIP3    H1 4218   6.235   0.961   0.492 -2.0531  2.0934  0.6387
 1418TIP3    H2 4219   6.285   1.097   0.449 -0.3044  0.7617 -1.7733
 1419TIP3   OH2 4220   1.819   0.233   3.469  0.1445 -0.1281  0.2540
 1419TIP3    H1 4221   1.736   0.279   3.483  0.2163  0.4737 -1.1852
 1419TIP3    H2 4222   1.847   0.207   3.557 -0.7110  1.1563  0.9295
 1420TIP3   OH2 4223   0.275   3.678   5.216 -0.0966 -0.5210 -0.4642
 1420TIP3    H1 4224   0.311   3.600   5.173 -0.9300 -1.3177  0.2380
 1420TIP3    H2 4225   0.206   3.644   5.273 -0.4693  0.7409 -0.1353
 1421TIP3   OH2 4226   5.224   5.905   4.810 -0.1060  0.1454 -0.0800
 1421TIP3    H1 4227   5.134   5.909   4.843  0.0632  1.1233  0.3093
 1421TIP3    H2 4228   5.215   5.887   4.717 -0.7362  0.8787 -0.1708
 1422TIP3   OH2 4229   1.735   6.199   0.421  0.2923 -0.2201  0.0071
 1422TIP3    H1 4230   1.644   6.171   0.421  0.5661 -1.2558  1.5568
 1422TIP3    H2 4231   1.731   6.295   0.420 -0.8909 -0.2031  1.6956
 1423TIP3   OH2 4232   1.746   0.348   0.605 -0.4011 -0.2811  0.3103
 1423TIP3    H1 4233   1.730   0.255   0.588  1.1901 -0.6298  0.5031
 1423TIP3    H2 4234   1.662   0.382   0.635 -0.9307 -1.7400  0.5601
 1424TIP3   OH2 4235   4.442   4.697   2.362 -0.7023  0.7616 -0.8064
 1424TIP3    H1 4236   4.399   4.612   2.352  1.7466 -0.5387 -1.0199
 1424TIP3    H2 4237   4.457   4.705   2.456 -1.4716  1.2897 -0.7154
 1425TIP3   OH2 4238   6.549   6.475   4.223 -0.0296 -0.1350 -0.0746
 1425TIP3    H1 4239   6.603   6.396   4.225 -0.1890 -0.4074 -2.7599
 1425TIP3    H2 4240   6.491   6.463   4.147 -3.4366  0.4589  2.2025
 1426TIP3   OH2 4241   0.108   0.049   3.078 -0.5585  0.2535  0.1957
 1426TIP3    H1 4242   0.103  -0.036   3.122  0.6599 -0.7364 -1.4871
 1426TIP3    H2 4243   0.018   0.066   3.050 -0.9356 -0.1554  1.0944
 1427TIP3   OH2 4244   4.046   2.584   3.166 -0.5199  0.1272  0.1281
 1427TIP3    H1 4245   3.966   2.533   3.180  0.0780 -0.8940 -0.0807
 1427TIP3    H2 4246   4.075   2.607   3.254 -1.1821  0.7335  0.1947
 1428TIP3   OH2 4247   3.915   0.360   5.825  0.2788 -0.4212 -0.1221
 1428TIP3    H1 4248   3.854   0.302   5.778  0.2988 -1.0851  0.6472
 1428TIP3    H2 4249   3.960   0.302   5.886  2.8441 -0.2740 -1.7338
 1429TIP3   OH2 4250   2.684   2.876   5.154  0.0836  0.1711 -0.2200
 1429TIP3    H1 4251   2.644   2.792   5.178 -0.5014  0.2398 -0.9128
 1429TIP3    H2 4252   2.776   2.867   5.178 -0.2192 -0.2082  0.8682
 1430TIP3   OH2 4253   0.787   6.769   5.697 -0.2444  0.3377 -0.4287
 1430TIP3    H1 4254   0.759   6.748   5.786  0.6907  0.4751 -0.0915
 1430TIP3    H2 4255   0.877   6.737   5.691 -0.6519 -0.6832 -1.7050
 1431TIP3   OH2 4256   6.758   2.283   5.176 -0.0886 -0.3651  0.2163
 1431TIP3    H1 4257   6.776   2.370   5.139 -0.7504  0.3502  1.5044
 1431TIP3    H2 4258   6.739   2.228   5.100  0.5940  0.5477 -0.6448
 1432TIP3   OH2 4259   6.672   1.022   0.834 -0.4853  0.7635  0.1286
 1432TIP3    H1 4260   6.757   0.984   0.813 -0.1587  0.4296  1.8876
 1432TIP3    H2 4261   6.672   1.106   0.788  0.3597  0.3271 -0.7121
 1433TIP3   OH2 4262   4.007   1.109   4.143 -0.5585 -0.2409 -0.0868
 1433TIP3    H1 4263   4.001   1.051   4.067  2.7507 -0.1766 -0.5282
 1433TIP3    H2 4264   4.007   1.197   4.107 -0.4979 -0.1406  0.1555
 1434TIP3   OH2 4265   2.824   0.285   2.635 -0.0291  0.9931  0.0542
 1434TIP3    H1 4266   2.813   0.206   2.689  1.6009  3.0115  3.7069
 1434TIP3    H2 4267   2.753   0.342   2.662  0.5877  1.9120 -0.2305
 1435TIP3   OH2 4268   6.118   4.229   4.992  0.2884  0.5393 -0.2462
 1435TIP3    H1 4269   6.100   4.196   5.080  0.7598  1.7898  0.3458
 1435TIP3    H2 4270   6.096   4.322   4.997  1.9444  0.9968 -0.9629
 1436TIP3   OH2 4271   4.415   2.788   3.249  0.5440 -0.3970  0.4027
 1436TIP3    H1 4272   4.364   2.756   3.323 -0.6059 -1.5934 -0.8380
 1436TIP3    H2 4273   4.463   2.712   3.217  0.3836 -0.1136 -0.5751
 1437TIP3   OH2 4274   2.659   1.332   0.036  0.1069 -0.1127  0.1037
 1437TIP3    H1 4275   2.623   1.420   0.038 -0.1737 -0.2357  1.2574
 1437TIP3    H2 4276   2.751   1.343   0.060  0.3468 -0.0250 -0.8229
 1438TIP3   OH2 4277   1.632   5.743   5.202  0.1002  0.4175 -0.6565
 1438TIP3    H1 4278   1.687   5.795   5.261 -0.5064  0.2268  0.0852
 1438TIP3    H2 4279   1.670   5.758   5.115  0.3466  1.5700 -0.3673
 1439TIP3   OH2 4280   4.387   4.498   1.016 -0.2249  0.3898 -0.2677
 1439TIP3    H1 4281   4.464   4.454   0.980 -0.4815  0.4784 -0.9384
 1439TIP3    H2 4282   4.420   4.583   1.046  0.2132 -0.1289  0.7699
 1440TIP3   OH2 4283   3.312   2.252   4.803  0.0391 -0.0734  0.8270
 1440TIP3    H1 4284   3.406   2.259   4.823 -0.0421  0.2450  1.1014
 1440TIP3    H2 4285   3.279   2.187   4.865  0.3337 -1.2205 -0.1661
 1441TIP3   OH2 4286   3.051   0.753   1.974 -0.1536  0.5133 -0.3925
 1441TIP3    H1 4287   3.101   0.823   2.017  0.2963 -0.1332  0.1827
 1441TIP3    H2 4288   3.017   0.792   1.894 -1.4098  1.9089  0.7804
 1442TIP3   OH2 4289   1.426   3.398   4.527  0.2314 -0.3958  0.3729
 1442TIP3    H1 4290   1.366   3.460   4.570 -1.1227 -1.2183 -0.2538
 1442TIP3    H2 4291   1.488   3.454   4.480  1.4015  0.5116  2.8505
 1443TIP3   OH2 4292   5.199   4.620   2.121 -0.5144  0.1775 -0.4150
 1443TIP3    H1 4293   5.176   4.600   2.030 -1.5805  1.1221 -0.3710
 1443TIP3    H2 4294   5.208   4.715   2.123  3.0982 -0.0025 -0.3273
 1444TIP3   OH2 4295   1.198   3.473   4.362  0.7923 -0.1066  0.4566
 1444TIP3    H1 4296   1.202   3.564   4.332  2.2007 -0.6469 -1.1381
 1444TIP3    H2 4297   1.262   3.469   4.434  0.6046  0.1887  0.6431
 1445TIP3   OH2 4298   3.001   0.513   2.387  0.2987  0.0109  0.1927
 1445TIP3    H1 4299   2.987   0.591   2.440 -0.8029 -0.7345  1.0493
 1445TIP3    H2 4300   2.957   0.531   2.304  0.5591  0.5255  0.1675
 1446TIP3   OH2 4301   4.583   5.871   4.352 -0.4289  0.0610  0.0784
 1446TIP3    H1 4302   4.489   5.889   4.349 -0.5642 -0.4673  0.7231
 1446TIP3    H2 4303   4.624   5.957   4.361 -0.6774  0.5446 -2.6789
 1447TIP3   OH2 4304   2.292   1.020   0.707 -0.0200 -0.0595  0.1761
 1447TIP3    H1 4305   2.262   0.934   0.677 -0.9857  0.3597 -0.0736
 1447TIP3    H2 4306   2.381   1.004   0.739  0.0086 -1.0472 -0.3629
 1448TIP3   OH2 4307   0.688   6.261   1.412 -0.2521 -0.0066 -0.0007
 1448TIP3    H1 4308   0.776   6.254   1.449  0.3617  3.3844 -0.5474
 1448TIP3    H2 4309   0.636   6.303   1.480 -0.5756  1.0535 -0.8873
 1449TIP3   OH2 4310   7.149   1.457   1.278  0.0354 -0.1068 -0.1844
 1449TIP3    H1 4311   7.073   1.406   1.248 -1.2133  2.4472 -1.7107
 1449TIP3    H2 4312   7.194   1.483   1.197  2.6708 -1.5919  0.6837
 1450TIP3   OH2 4313   0.705   3.371   5.072 -0.0867  0.6364  0.1103
 1450TIP3    H1 4314   0.664   3.456   5.057  1.5157  1.6295  1.0413
 1450TIP3    H2 4315   0.797   3.384   5.049 -0.1255 -1.3757 -1.4581
 1451TIP3   OH2 4316   3.026   6.241   1.025  0.1962  0.1597 -0.2723
 1451TIP3    H1 4317   2.961   6.263   1.092  1.2317  3.6244 -0.1888
 1451TIP3    H2 4318   2.975   6.232   0.945 -0.7040 -0.5603  0.3558
 1452TIP3   OH2 4319   1.367   0.463   3.105 -0.4282  0.0707  0.5459
 1452TIP3    H1 4320   1.368   0.391   3.041  1.1267  0.8193 -0.3317
 1452TIP3    H2 4321   1.279   0.462   3.141 -1.1377 -0.8367 -1.1082
 1453TIP3   OH2 4322   2.561   5.674   5.265 -0.5161  0.3686  0.5115
 1453TIP3    H1 4323   2.614   5.624   5.327 -2.9961 -3.3528 -0.0573
 1453TIP3    H2 4324   2.607   5.665   5.181  0.4975  1.5904  0.8964
 1454TIP3   OH2 4325   3.426   2.381   0.136 -0.6398 -0.1925 -0.0786
 1454TIP3    H1 4326   3.352   2.333   0.098  0.0076 -0.3016 -1.2571
 1454TIP3    H2 4327   3.434   2.459   0.080  2.5247 -2.0306 -2.4888
 1455TIP3   OH2 4328   4.176   0.519   4.366 -0.6110  0.3158 -0.0009
 1455TIP3    H1 4329   4.187   0.522   4.461 -0.6019 -0.6673  0.0333
 1455TIP3    H2 4330   4.102   0.460   4.352  0.9203 -1.4999 -0.6998
 1456TIP3   OH2 4331   0.395   2.903   3.403 -0.1015 -0.4660  0.1906
 1456TIP3    H1 4332   0.443   2.870   3.480  0.4101 -0.2137 -0.0140
 1456TIP3    H2 4333   0.461   2.950   3.352 -0.9398  1.6226  0.8909
 1457TIP3   OH2 4334   1.118   6.410   5.145  0.1334  0.4460  0.0459
 1457TIP3    H1 4335   1.185   6.392   5.211  1.2417 -0.3091 -1.2094
 1457TIP3    H2 4336   1.165   6.400   5.061 -1.5554 -0.1438 -0.8711
 1458TIP3   OH2 4337   1.237   4.612   2.019  0.1507 -0.7891  0.2154
 1458TIP3    H1 4338   1.287   4.613   1.938 -1.2235 -1.6205 -0.6809
 1458TIP3    H2 4339   1.187   4.693   2.017  0.1500 -0.7884  0.2578
 1459TIP3   OH2 4340   1.400   0.239   1.312  0.3838  0.0706 -0.0036
 1459TIP3    H1 4341   1.404   0.197   1.225 -1.0402 -4.5557  1.8375
 1459TIP3    H2 4342   1.491   0.260   1.332  0.8940  0.1786 -2.1115
 1460TIP3   OH2 4343   4.087   1.760   2.363 -0.3044  0.1340  0.9559
 1460TIP3    H1 4344   4.046   1.782   2.279  0.4018 -0.5799  0.4076
 1460TIP3    H2 4345   4.027   1.698   2.403 -1.3234  1.4993  1.6183
 1461TIP3   OH2 4346   5.009   6.595   4.017 -0.3971 -0.2466  0.3617
 1461TIP3    H1 4347   5.071   6.622   4.084 -0.1524  0.4647 -0.1325
 1461TIP3    H2 4348   5.007   6.500   4.022  2.2580 -0.4401 -0.9209
 1462TIP3   OH2 4349   5.261   3.238   4.547 -0.0848  0.1415  0.5402
 1462TIP3    H1 4350   5.340   3.251   4.600 -0.3159  2.2051  0.4450
 1462TIP3    H2 4351   5.235   3.326   4.520 -2.2535 -0.5136  0.2975
 1463TIP3   OH2 4352   7.160   0.536   3.181 -0.0725 -0.2207  0.4924
 1463TIP3    H1 4353   7.205   0.582   3.251 -0.7463 -0.1780  0.9040
 1463TIP3    H2 4354   7.159   0.444   3.209  0.5800 -0.3757  0.0395
 1464TIP3   OH2 4355   5.675   2.270   2.316 -0.1741  0.3334  0.1063
 1464TIP3    H1 4356   5.743   2.231   2.371 -1.8046 -0.3158  1.7764
 1464TIP3    H2 4357   5.652   2.201   2.254  0.8257  0.6390 -0.6201
 1465TIP3   OH2 4358   6.514   3.760   2.076 -0.4341  0.0044  0.0883
 1465TIP3    H1 4359   6.604   3.792   2.082 -0.0560 -1.2676  3.2265
 1465TIP3    H2 4360   6.513   3.703   2.000  1.4786 -0.1218  0.1187
 1466TIP3   OH2 4361   2.386   0.603   3.121  0.5202 -0.3368 -0.2632
 1466TIP3    H1 4362   2.416   0.529   3.172  0.2705  1.2090  2.3151
 1466TIP3    H2 4363   2.466   0.648   3.094  0.6428 -0.3749  0.0329
 1467TIP3   OH2 4364   2.051   4.130   3.420  0.1073  0.1648  0.2064
 1467TIP3    H1 4365   2.071   4.207   3.367  1.0969 -1.0320 -1.2561
 1467TIP3    H2 4366   1.962   4.106   3.394  0.0511  0.4231  0.1596
 1468TIP3   OH2 4367   5.960   0.245   0.557 -0.3081 -0.1856 -1.1786
 1468TIP3    H1 4368   5.948   0.308   0.627 -0.1327  0.1982 -1.4923
 1468TIP3    H2 4369   5.897   0.175   0.577  0.3311 -0.4876 -0.1856
 1469TIP3   OH2 4370   2.449   2.631   0.742  0.0408  0.2171  0.4601
 1469TIP3    H1 4371   2.500   2.669   0.813 -0.5748  0.4282  0.7952
 1469TIP3    H2 4372   2.358   2.640   0.770 -0.1309 -2.6580  1.1724
 1470TIP3   OH2 4373   2.602   4.255   0.054 -0.5180  0.1834 -0.8612
 1470TIP3    H1 4374   2.574   4.299   0.134 -0.2357 -1.0722 -0.0292
 1470TIP3    H2 4375   2.666   4.314   0.014 -0.0768  0.4921  0.2644
 1471TIP3   OH2 4376   1.250   3.544   1.833 -0.3828 -0.4447 -0.1764
 1471TIP3    H1 4377   1.159   3.549   1.863 -0.2871 -0.4941  0.1304
 1471TIP3    H2 4378   1.282   3.461   1.868  0.3277  0.4031  1.3061
 1472TIP3   OH2 4379   1.404   3.500   4.877  1.1197 -0.4329  0.6159
 1472TIP3    H1 4380   1.371   3.550   4.802  2.1784  0.2847  0.6021
 1472TIP3    H2 4381   1.408   3.563   4.948  3.4953 -0.1670  0.3219
 1473TIP3   OH2 4382   6.033   3.960   3.076  0.3764  0.4334  0.2242
 1473TIP3    H1 4383   6.045   3.888   3.014 -0.3603 -0.1898  0.7891
 1473TIP3    H2 4384   6.111   4.015   3.064 -0.9948  1.8833 -3.2183
 1474TIP3   OH2 4385   5.511   5.099   2.979  0.1461 -0.2732 -0.4022
 1474TIP3    H1 4386   5.479   5.037   3.044  0.5302 -0.3529 -0.2855
 1474TIP3    H2 4387   5.579   5.051   2.932  1.3352  0.4458  0.5048
 1475TIP3   OH2 4388   6.914   0.618   2.581 -0.2656  0.3315  0.2114
 1475TIP3    H1 4389   6.947   0.708   2.579  1.7694 -0.3391  0.8805
 1475TIP3    H2 4390   6.989   0.566   2.610 -1.4732 -1.5572  0.1034
 1476TIP3   OH2 4391   2.006   2.010   3.947 -0.3139 -0.7630  0.0496
 1476TIP3    H1 4392   1.939   1.952   3.910 -0.4429  0.4285 -1.7471
 1476TIP3    H2 4393   1.965   2.097   3.946  0.9869 -0.1247 -0.4490
 1477TIP3   OH2 4394   0.193   2.840   1.285 -0.1431  0.2823 -0.1073
 1477TIP3    H1 4395   0.144   2.850   1.203 -0.1642 -0.3118 -0.1726
 1477TIP3    H2 4396   0.131   2.865   1.353  0.0442  1.3108 -0.2997
 1478TIP3   OH2 4397   3.842   1.322   0.421 -0.8920 -0.1543  0.1886
 1478TIP3    H1 4398   3.876   1.409   0.402 -0.9677 -0.0802  0.3958
 1478TIP3    H2 4399   3.748   1.335   0.433 -0.5849  0.1525  2.7309
 1479TIP3   OH2 4400   0.719   5.511   2.758  0.1421 -0.0187  0.4650
 1479TIP3    H1 4401   0.690   5.436   2.810  0.3151 -0.8352 -0.5833
 1479TIP3    H2 4402   0.810   5.491   2.735 -0.0605  0.0929 -0.5063
 1480TIP3   OH2 4403   1.797   0.739   0.549 -0.0301  0.2282 -0.3710
 1480TIP3    H1 4404   1.789   0.819   0.496  2.8192  2.0141  1.6424
 1480TIP3    H2 4405   1.824   0.672   0.486 -1.1756  1.1016 -1.8787
 1481TIP3   OH2 4406   2.554   3.353   0.863  0.0531  0.3875  0.2951
 1481TIP3    H1 4407   2.571   3.439   0.825  1.9675 -0.5531 -1.0992
 1481TIP3    H2 4408   2.535   3.297   0.788  1.0737 -0.8904  0.9551
 1482TIP3   OH2 4409   3.166   6.652   4.538 -0.0465 -0.1001 -0.5526
 1482TIP3    H1 4410   3.168   6.706   4.459  0.5015 -0.2423 -0.6357
 1482TIP3    H2 4411   3.073   6.649   4.562 -0.0040  1.6696  0.0065
 1483TIP3   OH2 4412   3.963   4.984   0.637  0.1072 -0.2074 -0.3494
 1483TIP3    H1 4413   3.926   5.071   0.652 -0.2238 -0.2235 -1.0138
 1483TIP3    H2 4414   4.058   4.997   0.645 -0.0088 -0.0785  0.9458
 1484TIP3   OH2 4415   2.765   6.112   5.699 -0.1890  0.6237 -0.6913
 1484TIP3    H1 4416   2.846   6.096   5.748 -0.3855 -1.1514 -0.9028
 1484TIP3    H2 4417   2.701   6.135   5.766  0.7636  3.5477 -0.6274
 1485TIP3   OH2 4418   3.329   6.231   4.544 -0.5915  0.0231 -0.3941
 1485TIP3    H1 4419   3.419   6.242   4.512 -0.1797 -1.7522  0.0354
 1485TIP3    H2 4420   3.311   6.312   4.592  0.1978  1.0662 -1.7502
 1486TIP3   OH2 4421   0.066   3.608   4.191 -0.2913  0.3527  0.0298
 1486TIP3    H1 4422   0.027   3.693   4.212  0.2623  1.0329 -1.5231
 1486TIP3    H2 4423   0.148   3.630   4.147  0.3680 -1.0200  0.5226
 1487TIP3   OH2 4424   5.767   0.401   2.810  0.1394  0.1990 -0.0993
 1487TIP3    H1 4425   5.701   0.344   2.770  0.0936 -0.4154  0.8279
 1487TIP3    H2 4426   5.845   0.388   2.757  0.0492 -0.5229 -0.0607
 1488TIP3   OH2 4427   3.994   2.306   5.007  0.3466 -0.2490 -0.0523
 1488TIP3    H1 4428   3.939   2.385   5.007  0.8592  0.2069 -2.8808
 1488TIP3    H2 4429   4.033   2.304   5.095 -0.5381  2.0227  0.4612
 1489TIP3   OH2 4430   1.258   2.691   4.849  0.6866 -0.4082  0.2687
 1489TIP3    H1 4431   1.232   2.621   4.789  0.5323 -1.8827  1.9755
 1489TIP3    H2 4432   1.179   2.711   4.899  1.1755 -0.2594  0.9957
 1490TIP3   OH2 4433   6.805   6.336   1.967  0.2311 -0.9015 -0.1627
 1490TIP3    H1 4434   6.821   6.248   1.934  1.8123 -0.9457  0.6542
 1490TIP3    H2 4435   6.846   6.394   1.903  0.7484 -0.8431  0.2238
 1491TIP3   OH2 4436   1.615   2.989   0.595  0.0783 -0.1168 -0.7943
 1491TIP3    H1 4437   1.605   3.042   0.674  1.0225  0.7030 -1.1915
 1491TIP3    H2 4438   1.698   3.019   0.557  1.3003 -2.7751 -0.4041
 1492TIP3   OH2 4439   5.387   5.736   0.966 -0.8302 -0.3784  0.7415
 1492TIP3    H1 4440   5.471   5.689   0.969 -0.4578  0.1601 -0.5792
 1492TIP3    H2 4441   5.397   5.805   1.032  0.8014  1.2701 -1.1029
 1493TIP3   OH2 4442   0.161   1.071   3.464  0.1334  0.1233 -0.3066
 1493TIP3    H1 4443   0.075   1.037   3.437  0.4166 -1.3225  0.4737
 1493TIP3    H2 4444   0.141   1.136   3.531 -0.3959  0.9395 -1.2240
 1494TIP3   OH2 4445   1.408   6.555   4.297  0.0118 -0.2027 -0.1820
 1494TIP3    H1 4446   1.434   6.615   4.367 -0.8605  0.6357 -0.5639
 1494TIP3    H2 4447   1.433   6.601   4.216  2.4943 -1.8303 -0.4611
 1495TIP3   OH2 4448   6.246   3.103   3.269 -0.1926 -0.5980 -0.1628
 1495TIP3    H1 4449   6.313   3.060   3.215 -0.1455 -0.2982 -0.3465
 1495TIP3    H2 4450   6.211   3.172   3.213  0.9239  0.7196  0.6944
 1496TIP3   OH2 4451   1.501   1.145   5.437  0.1995 -0.3898  0.0392
 1496TIP3    H1 4452   1.417   1.160   5.481  1.1559 -1.3267  2.3259
 1496TIP3    H2 4453   1.551   1.225   5.453  1.1065 -1.2990  2.1557
 1497TIP3   OH2 4454   0.628   2.389   2.370  0.9380  0.5556  0.1538
 1497TIP3    H1 4455   0.575   2.463   2.342  1.1847  0.9368  0.6700
 1497TIP3    H2 4456   0.683   2.369   2.295  2.5583  2.4289  0.7419
 1498TIP3   OH2 4457   4.926   4.750   3.743  0.1820 -0.3839 -0.3112
 1498TIP3    H1 4458   4.904   4.667   3.787  0.3666 -0.1790  0.1801
 1498TIP3    H2 4459   4.982   4.724   3.670  0.4508 -0.6808 -0.0102
 1499TIP3   OH2 4460   3.145   6.281   5.115  0.1032 -0.1295 -0.4094
 1499TIP3    H1 4461   3.218   6.237   5.159  0.9738  1.1466 -0.5164
 1499TIP3    H2 4462   3.186   6.333   5.046 -1.0826 -0.6520 -1.5554
 1500TIP3   OH2 4463   3.383   6.667   3.548 -0.2335  0.1957  0.3766
 1500TIP3    H1 4464   3.297   6.698   3.519  0.0017  0.2233 -0.3162
 1500TIP3    H2 4465   3.445   6.715   3.493  0.1492 -1.3744 -0.6171
 1501TIP3   OH2 4466   3.087   4.454   3.453  0.3319 -0.1853 -0.3268
 1501TIP3    H1 4467   3.006   4.448   3.504 -0.1294  1.5543 -0.7784
 1501TIP3    H2 4468   3.157   4.440   3.517 -0.2868 -1.9379  0.0359
 1502TIP3   OH2 4469   7.148   0.545   1.665 -0.3541  0.0170  0.9851
 1502TIP3    H1 4470   7.229   0.546   1.716 -0.0416  0.8821  0.4935
 1502TIP3    H2 4471   7.127   0.637   1.650 -0.4982 -0.2031 -0.3336
 1503TIP3   OH2 4472   0.333   6.310   5.731 -0.3909  0.1483  0.7398
 1503TIP3    H1 4473   0.300   6.348   5.650  1.6217  1.3216  0.4057
 1503TIP3    H2 4474   0.293   6.363   5.801 -1.3203 -0.2049  0.4805
 1504TIP3   OH2 4475   3.840   1.536   1.120  0.3375 -0.3599  0.2676
 1504TIP3    H1 4476   3.906   1.486   1.072 -1.5898 -2.5092 -0.3547
 1504TIP3    H2 4477   3.873   1.541   1.209  2.3674  0.6563 -0.4890
 1505TIP3   OH2 4478   1.577   6.453   2.500 -0.4800 -0.1570 -0.1729
 1505TIP3    H1 4479   1.555   6.419   2.413 -0.2893 -0.1689 -0.2165
 1505TIP3    H2 4480   1.609   6.541   2.485  0.7741 -0.6077 -0.2532
 1506TIP3   OH2 4481   7.082   1.682   3.676 -0.0149 -0.0673  0.1871
 1506TIP3    H1 4482   7.061   1.732   3.597  0.7262 -1.0160 -0.6373
 1506TIP3    H2 4483   7.129   1.605   3.643  1.9526  0.4277  1.6938
 1507TIP3   OH2 4484   1.466   0.375   0.317 -0.2319  0.1426  0.7272
 1507TIP3    H1 4485   1.494   0.465   0.333  0.3515 -0.1209  1.2532
 1507TIP3    H2 4486   1.402   0.381   0.246 -0.7266  1.0506  1.2272
 1508TIP3   OH2 4487   6.278   6.171   1.872  0.7020 -0.3070  0.0211
 1508TIP3    H1 4488   6.270   6.200   1.963  0.4788  1.5257 -0.5513
 1508TIP3    H2 4489   6.354   6.217   1.838  0.6495 -0.7971 -0.7936
 1509TIP3   OH2 4490   1.031   5.594   3.936  0.1632 -0.4380 -0.4975
 1509TIP3    H1 4491   1.051   5.500   3.937  2.1194 -0.1223 -2.1771
 1509TIP3    H2 4492   1.117   5.636   3.939 -0.6462  1.2929 -0.5331
 1510TIP3   OH2 4493   3.146   2.514   5.848 -0.2868  0.1390 -0.1106
 1510TIP3    H1 4494   3.145   2.426   5.885  1.0863 -0.1039 -0.5809
 1510TIP3    H2 4495   3.060   2.524   5.807 -0.9352 -0.4817  1.0377
 1511TIP3   OH2 4496   3.912   2.905   4.693 -0.3023 -0.3118 -0.9658
 1511TIP3    H1 4497   3.830   2.930   4.650 -0.9999  3.6857  2.0972
 1511TIP3    H2 4498   3.891   2.823   4.739 -2.4581  0.3193 -0.6951
 1512TIP3   OH2 4499   3.323   4.329   1.733  0.3049  0.0414  0.2134
 1512TIP3    H1 4500   3.318   4.405   1.676  0.6328  0.1842  0.3715
 1512TIP3    H2 4501   3.236   4.322   1.772  0.4139  0.6381  0.5813
 1513TIP3   OH2 4502   7.070   3.699   0.560 -0.1250  0.6242  0.3015
 1513TIP3    H1 4503   7.108   3.776   0.604  0.7148 -0.2846  1.2147
 1513TIP3    H2 4504   6.978   3.720   0.551  0.5898  3.2664 -2.6868
 1514TIP3   OH2 4505   2.714   6.423   1.781 -0.3039  0.2286  0.1440
 1514TIP3    H1 4506   2.699   6.349   1.724  1.5910 -0.5455  0.5673
 1514TIP3    H2 4507   2.803   6.409   1.816 -1.4316  0.4803  3.4887
 1515TIP3   OH2 4508   2.004   1.141   3.336 -0.0182  0.0896 -0.1783
 1515TIP3    H1 4509   1.997   1.209   3.269 -0.2419  0.6473  0.4082
 1515TIP3    H2 4510   2.097   1.140   3.359 -0.2790  1.4726  1.1025
 1516TIP3   OH2 4511   0.092   0.697   3.666  0.2702  0.5050 -0.2736
 1516TIP3    H1 4512   0.156   0.766   3.683 -0.3352  0.8124  0.8735
 1516TIP3    H2 4513   0.051   0.681   3.751 -0.9706  0.1125 -0.9198
 1517TIP3   OH2 4514   2.440   5.696   3.454 -0.3382 -0.0982  0.2777
 1517TIP3    H1 4515   2.515   5.718   3.510 -1.0621  0.6620  0.9554
 1517TIP3    H2 4516   2.470   5.717   3.366 -0.4983  2.4214  0.7366
 1518TIP3   OH2 4517   2.728   5.781   3.087  0.0213  0.2871  0.5093
 1518TIP3    H1 4518   2.777   5.817   3.161  0.9912  0.4075 -0.1729
 1518TIP3    H2 4519   2.784   5.711   3.054 -0.0698  0.7065 -0.5474
 1519TIP3   OH2 4520   0.680   3.215   4.255 -0.1136  0.0086  0.1372
 1519TIP3    H1 4521   0.714   3.298   4.289 -0.8260  0.2927  0.1642
 1519TIP3    H2 4522   0.624   3.181   4.324 -0.5487 -0.0435 -0.2346
 1520TIP3   OH2 4523   1.871   4.947   3.377  0.5336 -0.3654 -0.5700
 1520TIP3    H1 4524   1.786   4.958   3.420  0.2751 -0.8893 -0.9218
 1520TIP3    H2 4525   1.929   4.916   3.446  0.0238 -1.5958 -0.6694
 1521TIP3   OH2 4526   0.444   5.264   1.396 -0.4019 -0.2550  0.3350
 1521TIP3    H1 4527   0.355   5.242   1.369  0.1987 -1.3679 -0.9024
 1521TIP3    H2 4528   0.484   5.299   1.317 -0.1041  1.5239  1.2297
 1522TIP3   OH2 4529   4.711   5.135   2.932 -0.0410  0.2343  0.1919
 1522TIP3    H1 4530   4.674   5.205   2.986  0.2512  0.0564  0.6233
 1522TIP3    H2 4531   4.699   5.055   2.984  0.1852  0.0534 -0.0325
 1523TIP3   OH2 4532   6.802   6.347   4.528  0.0066 -0.0069  0.0976
 1523TIP3    H1 4533   6.848   6.404   4.466  1.0353 -1.0584 -0.1639
 1523TIP3    H2 4534   6.805   6.394   4.611 -0.1713  0.8154 -0.3560
 1524TIP3   OH2 4535   7.110   5.758   4.746 -0.4584 -0.7027  0.3708
 1524TIP3    H1 4536   7.041   5.781   4.683 -0.8533 -0.7185  0.7868
 1524TIP3    H2 4537   7.152   5.841   4.768 -0.1803 -0.7250 -0.0686
 1525TIP3   OH2 4538   6.171   4.421   5.216  0.3047 -0.2081 -0.0909
 1525TIP3    H1 4539   6.246   4.471   5.185  0.2499  1.1423  1.8231
 1525TIP3    H2 4540   6.144   4.464   5.297 -1.4206 -1.7523  0.2363
 1526TIP3   OH2 4541   7.040   0.808   1.656 -1.0650 -0.2168 -0.5114
 1526TIP3    H1 4542   7.012   0.872   1.590 -0.7873  0.3745 -0.0640
 1526TIP3    H2 4543   7.077   0.861   1.727 -0.4697 -0.8946 -0.3051
 1527TIP3   OH2 4544   4.429   4.514   0.600 -0.3336  0.0656  0.0843
 1527TIP3    H1 4545   4.460   4.426   0.581 -1.1084  0.1977 -2.1354
 1527TIP3    H2 4546   4.500   4.572   0.570 -0.5725  0.2225 -0.1896
 1528TIP3   OH2 4547   3.857   5.476   4.367 -0.1334  0.9708  0.2600
 1528TIP3    H1 4548   3.802   5.417   4.316 -0.0548  1.1223 -0.0001
 1528TIP3    H2 4549   3.877   5.427   4.447  2.1332 -0.4604 -1.0681
 1529TIP3   OH2 4550   5.425   4.541   1.253 -0.0678 -0.0620 -0.5208
 1529TIP3    H1 4551   5.391   4.479   1.318  1.2638 -0.9104 -0.5703
 1529TIP3    H2 4552   5.461   4.485   1.184  0.9370  0.7658 -0.7003
 1530TIP3   OH2 4553   6.944   5.970   2.660 -0.7095  0.3547 -0.1121
 1530TIP3    H1 4554   6.987   5.902   2.712  0.0208  0.9883  0.1348
 1530TIP3    H2 4555   7.005   6.044   2.662 -1.1886  0.7874 -0.9311
 1531TIP3   OH2 4556   4.938   2.988   5.846 -0.0665  0.5913 -0.4257
 1531TIP3    H1 4557   4.843   2.985   5.855  0.0432  0.8411  0.9765
 1531TIP3    H2 4558   4.956   3.078   5.819 -0.3064  0.1708 -2.1046
 1532TIP3   OH2 4559   4.313   1.516   2.549 -0.7052 -0.4551  0.5960
 1532TIP3    H1 4560   4.383   1.513   2.614 -1.1470 -0.2451  1.0941
 1532TIP3    H2 4561   4.234   1.533   2.600 -1.4617 -2.7036  0.2873
 1533TIP3   OH2 4562   4.752   4.584   4.278 -0.2108  0.5922  0.8630
 1533TIP3    H1 4563   4.782   4.655   4.222  2.6875 -0.5229  0.7838
 1533TIP3    H2 4564   4.679   4.545   4.231 -1.7035  3.2410  0.7893
 1534TIP3   OH2 4565   3.782   0.599   5.552 -0.1617 -0.7032 -0.0676
 1534TIP3    H1 4566   3.758   0.511   5.525  0.0849 -1.4284  1.8829
 1534TIP3    H2 4567   3.844   0.586   5.624 -0.2621  1.0584  0.3890
 1535TIP3   OH2 4568   7.103   6.193   5.574 -0.5620  0.2523  0.3373
 1535TIP3    H1 4569   7.142   6.190   5.662 -1.3628 -0.3570  0.6797
 1535TIP3    H2 4570   7.010   6.180   5.589 -0.4333 -2.7714 -0.7988
 1536TIP3   OH2 4571   5.297   1.710   0.557  0.6048  0.4515 -0.8273
 1536TIP3    H1 4572   5.303   1.681   0.466  0.6666  0.3793 -0.8000
 1536TIP3    H2 4573   5.204   1.702   0.578  0.7111 -0.3288 -0.6242
 1537TIP3   OH2 4574   5.584   4.960   5.782 -0.3394  0.2046 -0.5347
 1537TIP3    H1 4575   5.542   4.921   5.706 -1.2225  0.4859 -0.2059
 1537TIP3    H2 4576   5.607   5.049   5.755 -2.1780  0.8903  0.0215
 1538TIP3   OH2 4577   6.328   5.064   0.740  0.3372 -0.4907 -0.1821
 1538TIP3    H1 4578   6.405   5.019   0.707  0.7581 -1.3336  1.8515
 1538TIP3    H2 4579   6.254   5.021   0.696  0.8784 -1.5870 -0.0461
 1539TIP3   OH2 4580   6.279   3.122   0.595  0.1281  0.6421  0.4896
 1539TIP3    H1 4581   6.255   3.155   0.682 -0.4908 -0.4268  0.7351
 1539TIP3    H2 4582   6.223   3.046   0.582  0.9580  0.1671 -0.4148
 1540TIP3   OH2 4583   6.827   6.173   1.148  0.1464  0.1552 -0.1141
 1540TIP3    H1 4584   6.795   6.263   1.155  1.3202  0.6920 -1.2773
 1540TIP3    H2 4585   6.850   6.162   1.056 -0.1759 -1.4283 -0.0405
 1541TIP3   OH2 4586   0.292   0.298   4.356 -0.3231 -0.2345 -0.6778
 1541TIP3    H1 4587   0.231   0.371   4.348  0.4381  0.5610  0.4379
 1541TIP3    H2 4588   0.241   0.221   4.330 -2.0352  0.3055  0.8234
 1542TIP3   OH2 4589   2.343   0.178   4.082  0.3579  0.1309 -0.3674
 1542TIP3    H1 4590   2.272   0.149   4.139  1.2934  0.6551  1.1005
 1542TIP3    H2 4591   2.309   0.256   4.038 -0.8318 -1.0064 -1.5595
 1543TIP3   OH2 4592   4.587   5.492   1.491 -0.3182  0.0412 -0.3302
 1543TIP3    H1 4593   4.524   5.419   1.488 -1.7496  1.2180 -0.0293
 1543TIP3    H2 4594   4.593   5.522   1.400 -0.2090 -0.0408 -0.3510
 1544TIP3   OH2 4595   5.527   0.878   2.987  0.0583 -0.8253 -0.4962
 1544TIP3    H1 4596   5.486   0.834   3.062 -2.0867  1.4864 -0.1821
 1544TIP3    H2 4597   5.522   0.813   2.917 -0.5246 -2.0392  0.6184
 1545TIP3   OH2 4598   5.329   3.473   1.292  0.6247 -0.0809  0.3261
 1545TIP3    H1 4599   5.315   3.536   1.222  1.6491  1.8662  1.7593
 1545TIP3    H2 4600   5.414   3.498   1.330  0.3731 -1.4142  1.8891
 1546TIP3   OH2 4601   4.161   2.323   0.985 -0.3647 -0.4124 -0.0261
 1546TIP3    H1 4602   4.248   2.301   1.017 -0.8529 -2.0602  0.2884
 1546TIP3    H2 4603   4.145   2.261   0.913 -0.8170  0.6538 -0.8629
 1547TIP3   OH2 4604   4.267   0.304   5.019  0.0344 -0.2128 -0.7053
 1547TIP3    H1 4605   4.225   0.382   4.982  0.3180 -0.4240 -1.5002
 1547TIP3    H2 4606   4.342   0.338   5.068  0.1812  0.0176 -1.0796
 1548TIP3   OH2 4607   1.969   6.181   2.845  0.0284 -0.1125  0.5216
 1548TIP3    H1 4608   1.917   6.233   2.784  0.5472  1.5934  1.4538
 1548TIP3    H2 4609   1.974   6.094   2.805 -1.4745  0.3396 -0.7571
 1549TIP3   OH2 4610   6.948   6.464   1.036 -0.2818  0.1904 -0.1848
 1549TIP3    H1 4611   6.969   6.409   0.962  0.5183 -0.4731  0.5121
 1549TIP3    H2 4612   7.026   6.518   1.049  0.1400 -0.6404  0.9764
 1550TIP3   OH2 4613   4.482   4.322   3.668 -0.0331  0.3941 -0.5091
 1550TIP3    H1 4614   4.403   4.376   3.674 -0.4704 -0.2436 -0.3890
 1550TIP3    H2 4615   4.473   4.276   3.584  0.4563  0.6872 -0.7263
 1551TIP3   OH2 4616   6.884   2.278   2.615 -0.3892 -0.5797 -0.1574
 1551TIP3    H1 4617   6.913   2.312   2.700 -0.6814  1.3221 -0.7849
 1551TIP3    H2 4618   6.944   2.205   2.597  0.8813  0.1851  0.8178
 1552TIP3   OH2 4619   7.155   4.545   5.159 -0.1182 -0.2699  0.1689
 1552TIP3    H1 4620   7.124   4.454   5.152  1.7112 -0.9763  0.6118
 1552TIP3    H2 4621   7.091   4.596   5.108 -2.2115 -1.5184  1.4034
 1553TIP3   OH2 4622   4.960   4.004   1.681  0.0043 -0.2470  0.1534
 1553TIP3    H1 4623   4.918   4.007   1.595 -0.7502  2.5814  0.5091
 1553TIP3    H2 4624   5.053   4.016   1.662  0.1093 -1.6810 -0.3502
 1554TIP3   OH2 4625   3.119   1.006   1.012 -0.3790  0.5544 -0.2731
 1554TIP3    H1 4626   3.151   1.026   0.923  0.3969 -1.7263 -0.5674
 1554TIP3    H2 4627   3.023   1.007   1.003 -0.3119 -0.4500 -1.3585
 1555TIP3   OH2 4628   0.939   2.857   0.487 -0.0151  0.2500 -0.0123
 1555TIP3    H1 4629   0.945   2.787   0.552 -1.2281 -0.3470 -0.5073
 1555TIP3    H2 4630   0.872   2.827   0.425 -1.1840  2.1901  0.2102
 1556TIP3   OH2 4631   6.772   2.840   5.649  0.5361  0.5823  0.6096
 1556TIP3    H1 4632   6.698   2.895   5.623 -0.2831 -0.1186  1.4405
 1556TIP3    H2 4633   6.736   2.753   5.660  1.6751  0.0216  0.1191
 1557TIP3   OH2 4634   1.638   5.610   4.170  0.0557  0.0768 -0.2952
 1557TIP3    H1 4635   1.549   5.641   4.185 -0.4784 -1.3609 -0.3561
 1557TIP3    H2 4636   1.671   5.666   4.099 -1.0222  0.2000 -0.7160
 1558TIP3   OH2 4637   7.168   6.676   4.030  0.0989 -0.0641 -0.2003
 1558TIP3    H1 4638   7.168   6.765   3.996 -3.3880  0.5008  0.9088
 1558TIP3    H2 4639   7.135   6.623   3.958  0.2827 -0.1452 -0.2251
 1559TIP3   OH2 4640   2.321   4.799   4.197 -0.3541 -0.1255  0.1682
 1559TIP3    H1 4641   2.331   4.737   4.125 -1.1436 -0.9955  0.7917
 1559TIP3    H2 4642   2.390   4.775   4.259  1.2818  1.5385 -0.8796
 1560TIP3   OH2 4643   5.860   5.994   5.280 -0.5267  0.4326 -0.0779
 1560TIP3    H1 4644   5.881   6.063   5.343 -2.6019  0.2717  0.8518
 1560TIP3    H2 4645   5.851   5.915   5.333  1.0311 -0.4310 -1.0342
 1561TIP3   OH2 4646   6.503   1.198   4.917  0.0768  1.0797 -0.0555
 1561TIP3    H1 4647   6.470   1.239   4.997  2.4545 -0.5230  1.8843
 1561TIP3    H2 4648   6.517   1.106   4.940 -0.0192  0.3279 -2.6251
 1562TIP3   OH2 4649   6.212   4.389   4.078  0.7895  0.0202  0.4774
 1562TIP3    H1 4650   6.210   4.295   4.064 -3.1594  0.0514 -0.1746
 1562TIP3    H2 4651   6.217   4.399   4.173 -0.6707 -0.9502  0.6836
 1563TIP3   OH2 4652   1.474   2.261   5.213 -0.2315  0.2025  0.0667
 1563TIP3    H1 4653   1.491   2.179   5.167 -0.0755 -0.9416  2.0550
 1563TIP3    H2 4654   1.526   2.326   5.166  1.4538 -1.2798 -0.2017
 1564TIP3   OH2 4655   5.942   2.751   5.424 -0.2354  0.3689  0.1415
 1564TIP3    H1 4656   5.998   2.679   5.455 -0.0716  0.3346 -0.2274
 1564TIP3    H2 4657   5.880   2.709   5.365 -1.4477  0.2020  1.4705
 1565TIP3   OH2 4658   0.470   5.765   4.999 -0.1054 -0.0520 -0.2314
 1565TIP3    H1 4659   0.401   5.724   4.946  1.1550 -0.8850 -1.3044
 1565TIP3    H2 4660   0.437   5.853   5.017 -0.8844  0.0293 -1.8629
 1566TIP3   OH2 4661   0.268   5.823   4.644 -0.6243 -0.0282 -0.4733
 1566TIP3    H1 4662   0.274   5.751   4.708  0.6623  0.9414  0.5469
 1566TIP3    H2 4663   0.181   5.859   4.658  0.0553  0.9479  1.6627
 1567TIP3   OH2 4664   0.049   0.830   5.038  0.5420  0.4908  0.2890
 1567TIP3    H1 4665   0.132   0.789   5.015  0.3376  0.2959 -0.1051
 1567TIP3    H2 4666   0.001   0.764   5.088  0.6251  0.6063  0.5241
 1568TIP3   OH2 4667   4.773   1.184   0.715  0.4935  0.1405  0.1580
 1568TIP3    H1 4668   4.693   1.197   0.663  0.4710 -1.2878 -0.2308
 1568TIP3    H2 4669   4.743   1.186   0.806  0.0588 -0.0628  0.0228
 1569TIP3   OH2 4670   4.413   4.800   4.225  0.3991 -0.0807 -0.3376
 1569TIP3    H1 4671   4.406   4.708   4.250  0.2340 -0.0615 -0.3134
 1569TIP3    H2 4672   4.377   4.804   4.137  0.6688 -0.0882 -0.4473
 1570TIP3   OH2 4673   0.557   0.360   4.500  0.8840  0.2069 -0.0928
 1570TIP3    H1 4674   0.540   0.435   4.442 -0.3567  0.0713  0.0626
 1570TIP3    H2 4675   0.491   0.296   4.475  0.9540 -0.2321  0.8185
 1571TIP3   OH2 4676   0.260   0.894   3.695 -0.2851 -0.2916  0.5148
 1571TIP3    H1 4677   0.229   0.944   3.619  0.3083 -0.7272 -0.0285
 1571TIP3    H2 4678   0.305   0.959   3.749 -0.7560  0.0330  0.5197
 1572TIP3   OH2 4679   2.781   4.544   4.212  0.5054 -0.1925 -0.2509
 1572TIP3    H1 4680   2.748   4.481   4.276  2.1281 -1.9421 -1.0220
 1572TIP3    H2 4681   2.811   4.619   4.265 -0.2005 -0.6389  0.8163
 1573TIP3   OH2 4682   4.882   2.610   4.528  0.2809 -0.8719 -0.5022
 1573TIP3    H1 4683   4.890   2.623   4.623 -0.1822  0.5659 -0.6488
 1573TIP3    H2 4684   4.799   2.563   4.518  0.1967 -0.7867 -0.2187
 1574TIP3   OH2 4685   2.861   6.340   1.370  0.5226 -0.3262 -0.2046
 1574TIP3    H1 4686   2.928   6.399   1.336  0.7293 -0.0134  0.7140
 1574TIP3    H2 4687   2.778   6.386   1.352  0.6799  0.2412  0.4713
 1575TIP3   OH2 4688   1.884   5.021   2.716 -0.0613 -0.1582  0.0657
 1575TIP3    H1 4689   1.815   5.059   2.770  1.1336  1.2445  0.6889
 1575TIP3    H2 4690   1.898   5.085   2.647  1.2172  0.0334  0.4795
 1576TIP3   OH2 4691   5.546   3.447   2.044  0.0957  0.0706 -0.2175
 1576TIP3    H1 4692   5.498   3.527   2.025 -1.8146 -0.8892  0.2710
 1576TIP3    H2 4693   5.632   3.459   2.004  0.4239  2.9779  1.1680
 1577TIP3   OH2 4694   3.019   0.975   5.203 -0.8940 -0.3756 -0.0175
 1577TIP3    H1 4695   3.059   1.056   5.171  0.5230 -1.0383  0.0066
 1577TIP3    H2 4696   2.994   0.995   5.293  4.4217 -1.4222  2.0556
 1578TIP3   OH2 4697   2.504   5.277   3.600 -0.1703 -0.3308 -0.0728
 1578TIP3    H1 4698   2.495   5.218   3.525  0.5680  1.2565 -1.4882
 1578TIP3    H2 4699   2.598   5.277   3.619  0.0314  1.2472 -0.8879
 1579TIP3   OH2 4700   0.847   2.848   1.078  0.8642  0.0476 -0.0483
 1579TIP3    H1 4701   0.923   2.841   1.020  1.0060 -0.2664  0.1708
 1579TIP3    H2 4702   0.878   2.814   1.161  1.0441  1.6484  0.5824
 1580TIP3   OH2 4703   3.090   5.728   1.441 -0.0905 -0.1797 -0.2823
 1580TIP3    H1 4704   3.121   5.773   1.363  1.2739  0.8382  0.7981
 1580TIP3    H2 4705   3.160   5.665   1.463 -0.7346 -0.8915 -0.2189
 1581TIP3   OH2 4706   3.017   3.224   5.348  0.0500  0.5581  0.2234
 1581TIP3    H1 4707   2.961   3.300   5.333  2.3115  2.0409 -1.3737
 1581TIP3    H2 4708   3.012   3.208   5.443 -1.2540  2.0433  0.4324
 1582TIP3   OH2 4709   2.193   4.676   5.158  0.4183  0.7727  0.3537
 1582TIP3    H1 4710   2.226   4.633   5.079 -1.5069 -0.4093  0.1158
 1582TIP3    H2 4711   2.237   4.631   5.230  0.7833  0.5561 -0.0019
 1583TIP3   OH2 4712   6.822   0.390   0.479  0.2717 -0.3789  0.1865
 1583TIP3    H1 4713   6.772   0.385   0.398  0.5586 -0.6473  0.0209
 1583TIP3    H2 4714   6.823   0.300   0.512 -0.0317 -0.2332  0.6046
 1584TIP3   OH2 4715   6.187   1.530   3.106 -0.6082  0.2048  0.1396
 1584TIP3    H1 4716   6.147   1.506   3.189 -1.5569  2.0484  0.2682
 1584TIP3    H2 4717   6.276   1.496   3.111 -1.4817 -2.1250  0.7372
 1585TIP3   OH2 4718   6.791   0.455   2.108 -0.1890 -0.2090 -0.5175
 1585TIP3    H1 4719   6.832   0.474   2.023  2.9313 -1.6104  0.5142
 1585TIP3    H2 4720   6.777   0.361   2.108 -1.8162  0.0042 -0.0925
 1586TIP3   OH2 4721   6.055   3.041   2.960  0.2547  0.0120  0.0184
 1586TIP3    H1 4722   6.120   2.984   3.001 -0.7653 -1.2771 -0.1218
 1586TIP3    H2 4723   5.976   2.988   2.954 -0.4877  1.1673 -0.8895
 1587TIP3   OH2 4724   1.768   5.509   5.792  0.0201 -0.6815  0.0306
 1587TIP3    H1 4725   1.863   5.502   5.788  0.0518 -0.8021  0.7934
 1587TIP3    H2 4726   1.751   5.567   5.866 -0.4786  0.1293 -0.7059
 1588TIP3   OH2 4727   2.341   3.096   5.298  0.2890 -0.3894  0.3895
 1588TIP3    H1 4728   2.324   3.136   5.213 -0.8096 -1.0899  0.2577
 1588TIP3    H2 4729   2.434   3.112   5.314  0.2540  0.7129 -0.4231
 1589TIP3   OH2 4730   2.739   1.868   4.126  0.1878 -1.0040 -0.5931
 1589TIP3    H1 4731   2.714   1.906   4.042  1.5606  2.3695  0.3476
 1589TIP3    H2 4732   2.668   1.807   4.148 -1.4092 -0.1460 -3.0288
 1590TIP3   OH2 4733   5.610   2.719   4.190  0.1412 -0.1158  1.0299
 1590TIP3    H1 4734   5.610   2.645   4.251  0.1987 -0.9782  0.0216
 1590TIP3    H2 4735   5.655   2.686   4.112  0.6470  1.1619  0.7446
 1591TIP3   OH2 4736   4.958   1.491   1.065  0.3546 -0.0054  0.2342
 1591TIP3    H1 4737   4.980   1.398   1.066 -0.8397 -0.3855 -2.0028
 1591TIP3    H2 4738   4.865   1.494   1.088  0.5955  0.7662  1.2188
 1592TIP3   OH2 4739   1.336   5.899   0.795 -0.2122 -0.1431 -0.3892
 1592TIP3    H1 4740   1.348   5.927   0.885  1.1799  0.9984 -0.8871
 1592TIP3    H2 4741   1.268   5.958   0.760  0.6833  0.7889 -0.6239
 1593TIP3   OH2 4742   5.696   4.271   3.307 -0.1799 -0.0309 -0.2880
 1593TIP3    H1 4743   5.675   4.190   3.260  1.7523 -0.9133  0.2358
 1593TIP3    H2 4744   5.620   4.288   3.362  0.0032 -2.4336  0.8001
 1594TIP3   OH2 4745   5.147   2.726   0.165 -0.4867 -0.1595  0.2771
 1594TIP3    H1 4746   5.221   2.786   0.165  0.4422 -1.2512  1.1145
 1594TIP3    H2 4747   5.111   2.732   0.253  0.8605 -2.2194  1.0584
 1595TIP3   OH2 4748   2.790   5.728   5.800  0.1052  0.0959 -0.1925
 1595TIP3    H1 4749   2.792   5.763   5.890  3.4845  0.4161 -0.2379
 1595TIP3    H2 4750   2.825   5.639   5.808 -2.7901 -1.2157 -0.8638
 1596TIP3   OH2 4751   0.027   5.770   3.808  0.7796  0.0814  0.0992
 1596TIP3    H1 4752   0.064   5.703   3.866  0.0195 -1.7582 -1.4203
 1596TIP3    H2 4753  -0.067   5.752   3.807  0.7334  0.2667 -1.4192
 1597TIP3   OH2 4754   3.593   3.717   5.221 -0.0583 -0.3785  0.4006
 1597TIP3    H1 4755   3.628   3.709   5.132 -1.3538  0.6784 -0.2405
 1597TIP3    H2 4756   3.651   3.781   5.263  0.9602 -1.3762  0.5627
 1598TIP3   OH2 4757   2.823   1.178   0.737  0.1444 -0.0993  0.0180
 1598TIP3    H1 4758   2.847   1.235   0.664  2.0038  1.6659  1.8635
 1598TIP3    H2 4759   2.763   1.114   0.699  2.0594 -0.1146 -3.3139
 1599TIP3   OH2 4760   5.699   2.077   4.057  0.3539 -0.1244  0.3396
 1599TIP3    H1 4761   5.637   2.112   3.992  0.4854  0.2805  0.4306
 1599TIP3    H2 4762   5.669   2.113   4.141  0.5711 -0.1247  0.4182
 1600TIP3   OH2 4763   6.037   3.612   4.819  0.2270 -0.1637  0.0655
 1600TIP3    H1 4764   6.079   3.611   4.905  0.9549  0.1799 -0.2749
 1600TIP3    H2 4765   5.986   3.693   4.818  1.6251  0.7611 -0.4588
 1601TIP3   OH2 4766   5.473   6.558   0.426 -0.2045  0.0766 -0.0812
 1601TIP3    H1 4767   5.549   6.513   0.388 -0.5144  0.1190 -0.7719
 1601TIP3    H2 4768   5.474   6.644   0.384 -0.6665  0.0573 -0.1301
 1602TIP3   OH2 4769   6.418   4.680   0.462 -0.0546  0.4087  0.2521
 1602TIP3    H1 4770   6.476   4.689   0.386 -1.2443  0.8904 -0.6257
 1602TIP3    H2 4771   6.361   4.606   0.440 -1.7975  1.8381 -0.3182
 1603TIP3   OH2 4772   1.798   0.057   3.114 -0.2360 -0.1575  0.1179
 1603TIP3    H1 4773   1.792   0.152   3.124  0.3661 -0.0627 -0.3675
 1603TIP3    H2 4774   1.729   0.022   3.171 -1.5169  0.6241 -0.9001
 1604TIP3   OH2 4775   6.642   1.415   5.710 -0.2039 -0.3454 -0.2632
 1604TIP3    H1 4776   6.596   1.442   5.790 -1.7753  1.6045 -1.7086
 1604TIP3    H2 4777   6.711   1.482   5.699 -0.4722 -0.1737 -0.9163
 1605TIP3   OH2 4778   1.904   1.551   3.020  0.0132  0.1888  0.3654
 1605TIP3    H1 4779   1.834   1.611   2.994  1.0880  2.0424  1.4920
 1605TIP3    H2 4780   1.980   1.579   2.969  0.0987 -1.4472 -0.4516
 1606TIP3   OH2 4781   3.391   3.125   4.488 -0.6476  0.3682  0.4613
 1606TIP3    H1 4782   3.469   3.072   4.472 -0.3613  0.6354  0.9569
 1606TIP3    H2 4783   3.332   3.066   4.536 -0.1369  0.6343  1.4424
 1607TIP3   OH2 4784   4.537   1.420   2.147  0.3678  0.2316 -0.0856
 1607TIP3    H1 4785   4.483   1.494   2.175  2.0197  1.5642 -0.2866
 1607TIP3    H2 4786   4.560   1.375   2.228 -0.4059  0.1059  0.0687
 1608TIP3   OH2 4787   2.386   4.333   4.662  0.2575  0.2774 -0.2352
 1608TIP3    H1 4788   2.327   4.364   4.731 -0.1372  0.3691 -0.6098
 1608TIP3    H2 4789   2.439   4.265   4.705  1.2146  1.5050  0.6280
 1609TIP3   OH2 4790   2.987   1.519   3.362  0.2463 -0.5411 -0.2338
 1609TIP3    H1 4791   3.056   1.584   3.352  0.2619 -0.4537  0.3815
 1609TIP3    H2 4792   3.012   1.469   3.440 -0.9306  0.2163  0.6749
 1610TIP3   OH2 4793   1.150   0.903   1.936  0.0030  0.3352  0.2843
 1610TIP3    H1 4794   1.245   0.911   1.931 -0.1105  0.8552 -2.0141
 1610TIP3    H2 4795   1.121   0.896   1.845 -1.9464 -2.8249  0.9776
 1611TIP3   OH2 4796   2.978   3.683   3.667  0.1067  0.4635 -0.1705
 1611TIP3    H1 4797   3.048   3.708   3.606 -0.5176  1.6154 -0.4290
 1611TIP3    H2 4798   2.898   3.719   3.629 -0.7142 -1.1402 -0.0608
 1612TIP3   OH2 4799   0.502   0.633   1.037 -0.0907 -0.0222 -0.2824
 1612TIP3    H1 4800   0.440   0.684   1.088  0.4682  0.4387 -0.0484
 1612TIP3    H2 4801   0.448   0.580   0.978 -0.6633  1.2052 -0.8956
 1613TIP3   OH2 4802   2.206   0.452   5.195 -0.0846 -0.0369  0.1266
 1613TIP3    H1 4803   2.133   0.514   5.193  1.0018  1.3014  0.3590
 1613TIP3    H2 4804   2.222   0.436   5.288 -0.4805 -0.8371  0.0652
 1614TIP3   OH2 4805   4.839   0.276   4.842  0.3402  0.4284 -0.2279
 1614TIP3    H1 4806   4.851   0.370   4.834  2.3442  0.4233  1.5764
 1614TIP3    H2 4807   4.903   0.239   4.781  1.3012  0.2984  0.8199
 1615TIP3   OH2 4808   6.860   2.536   1.334  0.1244 -0.5548 -0.4977
 1615TIP3    H1 4809   6.783   2.510   1.385  1.0405  0.2844  1.3774
 1615TIP3    H2 4810   6.934   2.523   1.392  1.1418  1.1816 -1.3195
 1616TIP3   OH2 4811   4.739   2.690   3.178  0.2855 -0.3815  0.1221
 1616TIP3    H1 4812   4.817   2.712   3.229 -0.5211  1.4578  0.6605
 1616TIP3    H2 4813   4.769   2.688   3.087  1.0311 -0.0140  0.3528
 1617TIP3   OH2 4814   3.808   2.572   1.163  0.1929 -0.1763  0.0731
 1617TIP3    H1 4815   3.852   2.654   1.143  0.9569 -0.5428  0.1771
 1617TIP3    H2 4816   3.793   2.531   1.078  0.2373 -0.1421  0.0489
 1618TIP3   OH2 4817   1.586   1.224   3.284 -0.1319 -0.0187 -0.6290
 1618TIP3    H1 4818   1.494   1.239   3.265 -0.4170 -0.7911  0.1148
 1618TIP3    H2 4819   1.628   1.308   3.264 -0.6657 -0.2344 -2.9091
 1619TIP3   OH2 4820   0.955   0.766   0.163  0.7947  0.1108 -0.0253
 1619TIP3    H1 4821   0.991   0.853   0.178  1.1859  0.0643 -0.6495
 1619TIP3    H2 4822   0.877   0.762   0.219  0.6070  0.9732 -0.2107
 1620TIP3   OH2 4823   0.865   5.025   4.070  0.1110  0.3114 -0.0181
 1620TIP3    H1 4824   0.804   5.091   4.035  0.6267  1.3104  0.9195
 1620TIP3    H2 4825   0.813   4.945   4.073 -0.5056  0.6273 -1.2757
 1621TIP3   OH2 4826   4.395   2.038   0.202  0.4115  0.0000  0.1732
 1621TIP3    H1 4827   4.379   2.127   0.236 -0.4141 -0.4876  1.1304
 1621TIP3    H2 4828   4.337   2.030   0.127  2.4133  1.1712 -1.6241
 1622TIP3   OH2 4829   0.772   3.285   0.044 -0.5124 -0.2780 -0.5538
 1622TIP3    H1 4830   0.783   3.203   0.091  0.1417  0.3766  0.4932
 1622TIP3    H2 4831   0.707   3.333   0.094  0.6276  0.6753  0.0641
 1623TIP3   OH2 4832   3.967   2.875   1.231  0.1465 -0.6464 -0.0726
 1623TIP3    H1 4833   4.017   2.794   1.230 -0.7113 -1.1827 -0.4026
 1623TIP3    H2 4834   3.891   2.857   1.286  0.4688  0.2687  0.7114
 1624TIP3   OH2 4835   5.588   0.860   4.706  0.0398  0.1672  0.1631
 1624TIP3    H1 4836   5.657   0.925   4.692  0.3493 -0.1457  0.2393
 1624TIP3    H2 4837   5.513   0.895   4.657  0.7825 -0.3732 -1.4214
 1625TIP3   OH2 4838   2.170   6.774   5.196  0.0278  0.4532  0.5739
 1625TIP3    H1 4839   2.123   6.735   5.122  0.2912  1.3408 -0.0764
 1625TIP3    H2 4840   2.115   6.847   5.224  0.7052  1.1324  0.1875
 1626TIP3   OH2 4841   3.356   3.439   0.519  0.0190  0.6864  0.1566
 1626TIP3    H1 4842   3.410   3.517   0.530  0.0067  0.7363 -0.1273
 1626TIP3    H2 4843   3.379   3.406   0.432  0.2813  0.1735  0.4150
 1627TIP3   OH2 4844   1.704   4.699   3.975  0.2949 -0.1287  0.3326
 1627TIP3    H1 4845   1.619   4.729   3.942  0.5258  0.3849  0.1959
 1627TIP3    H2 4846   1.702   4.718   4.068 -0.0718 -0.9120  0.4994
 1628TIP3   OH2 4847   1.861   0.264   2.796 -0.3607  0.4898  0.4923
 1628TIP3    H1 4848   1.823   0.345   2.829  0.1987  1.1214 -0.3728
 1628TIP3    H2 4849   1.940   0.291   2.750 -2.1568  0.0020 -3.2838
 1629TIP3   OH2 4850   4.539   3.404   4.231  0.3098  0.1736  0.0861
 1629TIP3    H1 4851   4.495   3.351   4.298 -1.2722 -0.3906 -1.3203
 1629TIP3    H2 4852   4.612   3.349   4.203 -0.8498 -0.9862 -0.7965
 1630TIP3   OH2 4853   0.441   0.335   3.186 -0.6683 -0.2277 -0.5725
 1630TIP3    H1 4854   0.461   0.321   3.279  0.6533 -2.0067 -1.0662
 1630TIP3    H2 4855   0.346   0.327   3.181 -0.8070  0.3534  0.6885
 1631TIP3   OH2 4856   3.929   3.665   2.178  0.1247 -0.1780  0.1968
 1631TIP3    H1 4857   3.981   3.595   2.139  1.2661  1.0379 -0.5579
 1631TIP3    H2 4858   3.885   3.624   2.253 -0.9032 -2.2064 -1.4216
 1632TIP3   OH2 4859   5.727   5.406   4.407  0.5272 -0.2771 -0.0611
 1632TIP3    H1 4860   5.754   5.497   4.393  0.5600 -0.4892 -1.5691
 1632TIP3    H2 4861   5.764   5.359   4.332 -0.4177 -1.3339  0.1207
 1633TIP3   OH2 4862   0.554   4.397   0.317  0.0911  0.1513  0.2727
 1633TIP3    H1 4863   0.479   4.378   0.373  0.3784 -2.3371 -0.0719
 1633TIP3    H2 4864   0.519   4.392   0.228  0.2221  1.2540  0.1493
 1634TIP3   OH2 4865   6.367   4.221   3.715 -0.6334  0.3441  0.3915
 1634TIP3    H1 4866   6.285   4.172   3.710 -0.1789 -0.4749  0.7639
 1634TIP3    H2 4867   6.435   4.154   3.727 -0.1775  1.1231  2.8506
 1635TIP3   OH2 4868   6.716   3.817   3.259  0.6902 -0.7376  0.0445
 1635TIP3    H1 4869   6.760   3.739   3.290  1.8347 -0.6652 -1.3174
 1635TIP3    H2 4870   6.687   3.795   3.171 -0.4636 -0.1781  0.2637
 1636TIP3   OH2 4871   3.791   3.031   3.890 -0.2866  0.7253 -0.3383
 1636TIP3    H1 4872   3.744   3.017   3.972 -0.6450  1.0203 -0.4945
 1636TIP3    H2 4873   3.742   2.980   3.826  1.4330 -1.6376  0.0849
 1637TIP3   OH2 4874   7.089   5.893   1.067  0.4953  0.6600 -0.5071
 1637TIP3    H1 4875   6.996   5.885   1.046  0.4177 -2.7768  0.5472
 1637TIP3    H2 4876   7.134   5.842   1.000  1.2721 -0.4952  0.8229
 1638TIP3   OH2 4877   1.354   5.961   3.964  0.5593  0.4405  0.0535
 1638TIP3    H1 4878   1.274   5.928   4.005  0.7021 -0.2744 -0.2370
 1638TIP3    H2 4879   1.425   5.924   4.015  0.7232  1.6351  0.7452
 1639TIP3   OH2 4880   1.287   5.261   3.835 -0.7259  0.2946 -0.7104
 1639TIP3    H1 4881   1.199   5.262   3.871 -0.0530 -1.0556  1.1000
 1639TIP3    H2 4882   1.339   5.311   3.898  0.1448 -0.5442 -0.7395
 1640TIP3   OH2 4883   1.928   2.589   3.361  0.0070  0.2015  0.1701
 1640TIP3    H1 4884   1.887   2.640   3.431  1.5082  1.1848  0.3808
 1640TIP3    H2 4885   1.946   2.504   3.401 -2.2289 -0.4618 -0.0875
 1641TIP3   OH2 4886   0.369   1.828   3.730  0.2234  0.3344  0.2198
 1641TIP3    H1 4887   0.338   1.835   3.640  0.1027  0.2090  0.2513
 1641TIP3    H2 4888   0.460   1.857   3.727 -0.1369  1.5164  0.2727
 1642TIP3   OH2 4889   3.849   0.723   1.476 -0.0386 -0.0182  0.4793
 1642TIP3    H1 4890   3.889   0.810   1.476 -0.3339  0.1178  0.3745
 1642TIP3    H2 4891   3.774   0.731   1.417  1.3511 -1.0098 -1.5546
 1643TIP3   OH2 4892   2.036   1.832   2.594  1.1748  0.3706 -0.4487
 1643TIP3    H1 4893   2.091   1.855   2.519  2.0687 -0.4765 -0.0667
 1643TIP3    H2 4894   1.979   1.763   2.562 -0.5233  2.0066 -1.1787
 1644TIP3   OH2 4895   2.750   5.831   2.225 -0.1203 -0.4550 -0.4917
 1644TIP3    H1 4896   2.700   5.888   2.285  1.6926  2.9377 -1.9378
 1644TIP3    H2 4897   2.828   5.807   2.275 -0.1026 -0.2544 -0.4198
 1645TIP3   OH2 4898   5.635   3.391   3.676 -0.6686  0.3495  0.0666
 1645TIP3    H1 4899   5.577   3.337   3.623  0.8907 -3.2911  1.7308
 1645TIP3    H2 4900   5.713   3.403   3.622 -0.7935  0.5030 -0.0847
 1646TIP3   OH2 4901   6.468   3.040   0.133 -0.0834  0.2751  0.1218
 1646TIP3    H1 4902   6.410   2.969   0.157 -0.5640  0.8043  0.5493
 1646TIP3    H2 4903   6.469   3.098   0.209  1.5015 -0.0366  0.3619
 1647TIP3   OH2 4904   4.217   6.181   1.777 -0.2051 -0.0507 -0.3959
 1647TIP3    H1 4905   4.245   6.149   1.691  0.0844  0.8758 -0.6648
 1647TIP3    H2 4906   4.123   6.193   1.769 -1.2537 -4.9121  1.0653
 1648TIP3   OH2 4907   2.573   0.065   4.949 -0.0891  0.1774  0.3313
 1648TIP3    H1 4908   2.597   0.036   5.037  1.2994  3.7230  1.3396
 1648TIP3    H2 4909   2.478   0.062   4.947 -0.0960 -2.9752  0.6822
 1649TIP3   OH2 4910   4.857   1.989   2.797 -0.2299  0.4826 -0.0663
 1649TIP3    H1 4911   4.800   1.981   2.874 -1.6264  0.5155 -1.0489
 1649TIP3    H2 4912   4.944   1.963   2.828 -0.8638 -0.0077  1.3892
 1650TIP3   OH2 4913   1.543   5.212   3.176 -0.1321  0.2175  0.8710
 1650TIP3    H1 4914   1.520   5.147   3.110  0.2414  1.6475 -0.7022
 1650TIP3    H2 4915   1.506   5.176   3.258 -1.9604 -0.8455 -0.3439
 1651TIP3   OH2 4916   3.538   2.387   0.584  0.0266 -0.6362  0.0854
 1651TIP3    H1 4917   3.513   2.334   0.508  0.5473  0.1049 -0.6221
 1651TIP3    H2 4918   3.502   2.474   0.564 -1.9797 -0.9861  1.8278
 1652TIP3   OH2 4919   4.502   0.073   3.734 -0.0047 -0.2272 -0.7864
 1652TIP3    H1 4920   4.449   0.075   3.655 -2.2278 -1.4684  0.5717
 1652TIP3    H2 4921   4.481   0.154   3.779 -2.0406 -1.3278  0.4328
 1653TIP3   OH2 4922   1.493   6.520   4.931 -0.1190 -0.0595 -0.1576
 1653TIP3    H1 4923   1.525   6.525   4.841  2.1649 -2.1580  0.4628
 1653TIP3    H2 4924   1.411   6.471   4.924 -0.9074  1.3370 -1.2452
 1654TIP3   OH2 4925   2.609   6.103   3.790 -0.4568  0.0229  0.1577
 1654TIP3    H1 4926   2.646   6.022   3.824  1.3924  0.4550 -0.7406
 1654TIP3    H2 4927   2.514   6.093   3.804 -0.2582 -2.1460  0.3342
 1655TIP3   OH2 4928   6.563   5.103   0.287 -0.1545  0.3250 -0.3890
 1655TIP3    H1 4929   6.642   5.074   0.332 -0.9790 -0.3652  0.7065
 1655TIP3    H2 4930   6.506   5.025   0.287 -0.7662  0.7557 -1.2810
 1656TIP3   OH2 4931   5.920   0.611   1.794  0.8813 -0.2096 -0.2313
 1656TIP3    H1 4932   5.965   0.528   1.778  1.5073  0.1744 -0.4731
 1656TIP3    H2 4933   5.964   0.647   1.871  0.8923  0.1032 -0.3857
 1657TIP3   OH2 4934   5.492   0.118   1.558  0.1153 -0.1794 -0.0507
 1657TIP3    H1 4935   5.453   0.187   1.611 -1.2823  0.9092 -2.3266
 1657TIP3    H2 4936   5.423   0.092   1.496  1.8805 -0.6866 -1.9353
 1658TIP3   OH2 4937   2.963   4.483   4.725  0.0567  0.2882 -0.3752
 1658TIP3    H1 4938   2.873   4.452   4.720  0.4214 -0.8796  0.0194
 1658TIP3    H2 4939   3.007   4.445   4.649  0.1242  1.2367 -0.8329
 1659TIP3   OH2 4940   5.002   3.431   3.154 -1.0327  0.8938  0.3074
 1659TIP3    H1 4941   5.011   3.335   3.158  1.0149  0.8487 -2.3275
 1659TIP3    H2 4942   5.083   3.464   3.192 -2.0481  1.6794  1.8857
 1660TIP3   OH2 4943   3.115   3.904   0.022  0.0442  0.0763  0.1246
 1660TIP3    H1 4944   3.087   3.955   0.097  1.3766  1.0265  0.0071
 1660TIP3    H2 4945   3.176   3.961  -0.025  0.1830 -0.9512 -1.0004
 1661TIP3   OH2 4946   0.857   1.736   0.205 -0.0470 -0.4422  0.3955
 1661TIP3    H1 4947   0.842   1.751   0.298 -2.0281 -0.9158  0.1988
 1661TIP3    H2 4948   0.887   1.645   0.200 -1.3199 -0.8864  0.4864
 1662TIP3   OH2 4949   3.951   5.644   4.101 -0.7174 -0.5355  0.0541
 1662TIP3    H1 4950   3.942   5.591   4.180  0.3127 -1.7737 -0.6287
 1662TIP3    H2 4951   4.031   5.613   4.059 -1.3381 -0.0657 -1.5934
 1663TIP3   OH2 4952   0.114   2.095   0.196 -0.1521 -0.3006 -0.5107
 1663TIP3    H1 4953   0.111   2.189   0.213 -0.8208 -0.0079 -2.0390
 1663TIP3    H2 4954   0.196   2.066   0.236 -2.0334  0.0048  4.1174
 1664TIP3   OH2 4955   3.976   0.501   3.171 -0.1640  0.2025  0.3510
 1664TIP3    H1 4956   4.070   0.488   3.155  0.1834  2.1017  0.6337
 1664TIP3    H2 4957   3.948   0.560   3.101 -1.2250 -0.5599  0.1176
 1665TIP3   OH2 4958   1.164   1.462   0.877 -0.3618  0.1756  0.2678
 1665TIP3    H1 4959   1.238   1.407   0.850  0.3144  1.6940 -1.1567
 1665TIP3    H2 4960   1.175   1.472   0.972  0.1415 -1.1708  0.3741
 1666TIP3   OH2 4961   1.272   5.037   1.965  0.2610 -0.3152 -0.0939
 1666TIP3    H1 4962   1.339   4.974   1.988  0.2053  0.1245  1.3666
 1666TIP3    H2 4963   1.320   5.119   1.951  0.5527 -0.9233 -3.6249
 1667TIP3   OH2 4964   0.279   2.671   2.192 -0.5548 -0.1905  0.8324
 1667TIP3    H1 4965   0.200   2.630   2.157 -1.2357  1.2993  0.5005
 1667TIP3    H2 4966   0.246   2.743   2.246  0.5711  0.3676  0.8094
 1668TIP3   OH2 4967   4.934   0.420   1.273  0.5578  0.1106 -0.6945
 1668TIP3    H1 4968   4.961   0.492   1.330 -1.4755 -0.7176  1.4443
 1668TIP3    H2 4969   4.838   0.425   1.271  0.5006 -0.2314 -3.6945
 1669TIP3   OH2 4970   2.721   1.748   5.883 -0.7753 -0.5467 -0.1912
 1669TIP3    H1 4971   2.804   1.760   5.837 -1.0469  1.1434 -0.2770
 1669TIP3    H2 4972   2.722   1.656   5.910  1.6919 -0.2643  0.9122
 1670TIP3   OH2 4973   1.455   0.724   0.005  0.1122 -0.3508 -0.0266
 1670TIP3    H1 4974   1.493   0.684  -0.073  0.9107 -1.1713  0.7649
 1670TIP3    H2 4975   1.473   0.662   0.076  1.3376  1.3314  1.2369
 1671TIP3   OH2 4976   2.635   1.840   0.221 -0.0943 -0.4368  0.1574
 1671TIP3    H1 4977   2.622   1.853   0.315  2.2013 -0.9854  0.6025
 1671TIP3    H2 4978   2.586   1.911   0.180  0.9088  1.3477  1.8960
 1672TIP3   OH2 4979   4.088   2.780   5.259 -0.3997  0.2594  0.1532
 1672TIP3    H1 4980   4.026   2.849   5.234  0.0580  0.9058  0.7636
 1672TIP3    H2 4981   4.042   2.698   5.239 -0.3910  0.7067 -1.9863
 1673TIP3   OH2 4982   3.357   5.427   5.341 -0.5351  0.3392  0.5985
 1673TIP3    H1 4983   3.299   5.424   5.418 -0.5572 -1.7544  0.5355
 1673TIP3    H2 4984   3.429   5.485   5.368 -0.1337 -0.9560  2.5104
 1674TIP3   OH2 4985   0.365   1.212   0.441 -0.7602 -0.4935  0.1575
 1674TIP3    H1 4986   0.403   1.245   0.360 -1.8141  1.0548  0.2332
 1674TIP3    H2 4987   0.287   1.267   0.455 -0.0374  0.0245  2.7605
 1675TIP3   OH2 4988   4.909   5.550   3.405 -0.4464  0.0129  0.6430
 1675TIP3    H1 4989   4.903   5.644   3.387 -0.8975 -0.2688 -0.7628
 1675TIP3    H2 4990   4.818   5.520   3.402 -0.2693 -0.5357  0.7041
 1676TIP3   OH2 4991   1.700   0.948   5.020 -0.2440  0.0640  0.3753
 1676TIP3    H1 4992   1.618   0.997   5.028  0.2633  0.9062  0.5550
 1676TIP3    H2 4993   1.769   1.015   5.027  0.4621 -0.6452  0.3643
 1677TIP3   OH2 4994   3.357   5.498   3.389 -0.5043  0.0981 -0.7124
 1677TIP3    H1 4995   3.389   5.456   3.469  0.9509  0.1202 -1.2543
 1677TIP3    H2 4996   3.371   5.592   3.405  0.2903  0.0679 -1.1850
 1678TIP3   OH2 4997   1.221   2.411   2.825  0.0497  0.3138  0.1687
 1678TIP3    H1 4998   1.168   2.471   2.774  1.3473 -0.3006 -2.0305
 1678TIP3    H2 4999   1.209   2.326   2.783 -1.5153 -1.0412  3.0217
 1679TIP3   OH2 5000   6.361   1.847   1.182  0.4518 -0.5479 -0.1976
 1679TIP3    H1 5001   6.385   1.867   1.273  4.0917  1.2085 -1.3739
 1679TIP3    H2 5002   6.393   1.757   1.169  1.1587 -0.3253 -0.0710
 1680TIP3   OH2 5003   5.910   1.558   5.636 -0.2913  0.3384  0.2241
 1680TIP3    H1 5004   5.899   1.609   5.716 -0.1906  0.3319  0.2416
 1680TIP3    H2 5005   5.844   1.489   5.642  0.2188 -0.1191  0.6562
 1681TIP3   OH2 5006   5.184   2.004   1.027  0.4551 -0.3294 -0.1960
 1681TIP3    H1 5007   5.131   2.072   0.984  1.4401 -0.3008 -1.4006
 1681TIP3    H2 5008   5.242   1.971   0.958  0.2504 -2.1618  0.4475
 1682TIP3   OH2 5009   4.385   5.262   2.885  0.1391 -0.2797 -0.4050
 1682TIP3    H1 5010   4.428   5.252   2.970 -0.9583  0.0843  0.2193
 1682TIP3    H2 5011   4.438   5.327   2.839 -0.0790  0.6338  0.5933
 1683TIP3   OH2 5012   6.546   3.728   3.702 -0.6172  0.0332  0.2014
 1683TIP3    H1 5013   6.554   3.804   3.644 -0.0795  0.8215  1.2706
 1683TIP3    H2 5014   6.636   3.702   3.720 -0.7891 -0.3710  0.4835
 1684TIP3   OH2 5015   3.373   5.781   2.129 -0.2040  0.4634 -0.3381
 1684TIP3    H1 5016   3.434   5.773   2.055  0.0214  0.6928 -0.1744
 1684TIP3    H2 5017   3.428   5.800   2.204 -0.2020 -1.7313  0.2832
 1685TIP3   OH2 5018   6.180   2.065   5.321  0.3649  0.7960  0.0914
 1685TIP3    H1 5019   6.269   2.087   5.291  0.0511  1.5127 -0.3576
 1685TIP3    H2 5020   6.187   2.062   5.416  1.0239  0.1233  0.0394
 1686TIP3   OH2 5021   2.942   2.946   0.750 -0.4050 -0.0590 -0.3861
 1686TIP3    H1 5022   2.973   3.034   0.771 -3.0325  0.9614 -0.4417
 1686TIP3    H2 5023   2.941   2.943   0.655  0.0121 -0.3007 -0.3872
 1687TIP3   OH2 5024   5.031   1.386   5.053  1.0520  0.5763 -0.3441
 1687TIP3    H1 5025   5.003   1.470   5.090 -0.3384 -0.2062  0.4746
 1687TIP3    H2 5026   4.964   1.365   4.988  1.9733  0.5874 -1.3356
 1688TIP3   OH2 5027   2.533   0.543   0.595  0.1993  0.3176  0.3485
 1688TIP3    H1 5028   2.452   0.578   0.557 -0.4918 -1.6078 -0.0468
 1688TIP3    H2 5029   2.537   0.581   0.683 -1.8509 -0.5641  0.8647
 1689TIP3   OH2 5030   2.093   4.639   5.501  0.2050  0.1067 -0.2108
 1689TIP3    H1 5031   2.172   4.634   5.448  0.4149 -1.6632  0.1755
 1689TIP3    H2 5032   2.046   4.558   5.481  0.3825 -0.7290  2.3538
 1690TIP3   OH2 5033   3.278   1.223   2.910  0.6189  0.3842  0.7916
 1690TIP3    H1 5034   3.217   1.175   2.966  0.8781 -1.0311 -0.0930
 1690TIP3    H2 5035   3.244   1.313   2.908 -1.1786 -0.2654  0.6766
 1691TIP3   OH2 5036   3.148   2.206   2.094  0.5884 -0.5216  0.3319
 1691TIP3    H1 5037   3.188   2.261   2.162  1.5733 -1.9513  0.9603
 1691TIP3    H2 5038   3.084   2.153   2.141 -0.2511 -0.0431 -0.2439
 1692TIP3   OH2 5039   6.892   1.563   5.707  0.0149  0.5370 -0.4962
 1692TIP3    H1 5040   6.890   1.630   5.776  2.6480  1.0009 -0.7532
 1692TIP3    H2 5041   6.929   1.609   5.631  1.7256 -1.1222 -0.7312
 1693TIP3   OH2 5042   2.053   2.198   0.381 -0.5671 -0.0243  0.1846
 1693TIP3    H1 5043   1.975   2.193   0.325 -0.3507 -0.8235 -0.0590
 1693TIP3    H2 5044   2.068   2.108   0.408  1.4624 -0.2262 -1.4156
 1694TIP3   OH2 5045   2.711   3.638   1.890  0.3793 -0.3263  0.3131
 1694TIP3    H1 5046   2.763   3.559   1.905  0.4904 -0.2938  0.1023
 1694TIP3    H2 5047   2.722   3.656   1.796 -1.1449 -1.1511 -0.0606
 1695TIP3   OH2 5048   1.436   3.477   5.222 -0.5441  0.1583  0.0425
 1695TIP3    H1 5049   1.510   3.434   5.178 -0.9542 -0.3167 -0.1930
 1695TIP3    H2 5050   1.360   3.426   5.196 -0.8246 -0.0080  1.1589
 1696TIP3   OH2 5051   5.250   5.353   3.330  0.0462  0.2135  0.2386
 1696TIP3    H1 5052   5.214   5.269   3.357 -1.3332 -0.3657 -2.9846
 1696TIP3    H2 5053   5.199   5.378   3.253  1.6433  3.1329 -0.0316
 1697TIP3   OH2 5054   1.008   4.968   5.389 -0.1126  0.2451 -0.0077
 1697TIP3    H1 5055   1.003   4.873   5.405 -0.4685  0.3037  0.2481
 1697TIP3    H2 5056   1.102   4.987   5.389  0.0206 -0.3082 -1.2884
 1698TIP3   OH2 5057   7.048   2.561   1.553 -0.3368  0.8215 -0.2170
 1698TIP3    H1 5058   7.112   2.614   1.600 -2.8648  2.3823  1.7658
 1698TIP3    H2 5059   7.061   2.472   1.587  1.2076  0.9479 -0.4160
 1699TIP3   OH2 5060   5.207   6.191   3.593 -0.1893 -0.2686  0.4378
 1699TIP3    H1 5061   5.173   6.200   3.682  1.4509 -0.0027  1.0651
 1699TIP3    H2 5062   5.283   6.134   3.602  1.1192  1.2501 -0.4877
 1700TIP3   OH2 5063   1.412   1.621   2.875 -0.1748 -0.0167 -0.0886
 1700TIP3    H1 5064   1.484   1.613   2.813 -0.8144  1.9421 -1.1908
 1700TIP3    H2 5065   1.348   1.556   2.847  0.6107 -0.9061  0.1305
 1701TIP3   OH2 5066   7.098   4.398   0.555 -0.3846 -0.0452 -0.4740
 1701TIP3    H1 5067   7.086   4.328   0.619 -1.0258 -1.3438 -1.9404
 1701TIP3    H2 5068   7.166   4.454   0.592 -1.3266 -0.2436  1.7225
 1702TIP3   OH2 5069   3.168   1.600   2.146 -0.1130  0.4475 -0.0736
 1702TIP3    H1 5070   3.126   1.682   2.172 -0.5278  0.2185 -0.0071
 1702TIP3    H2 5071   3.189   1.613   2.053  0.0942  0.7381  0.0117
 1703TIP3   OH2 5072   0.725   3.058   3.174  0.0977 -0.1828  0.2520
 1703TIP3    H1 5073   0.653   3.108   3.136 -1.0034 -1.0395  1.1402
 1703TIP3    H2 5074   0.731   3.089   3.264 -1.0293 -2.0586  1.0109
 1704TIP3   OH2 5075   5.258   1.521   4.756 -0.1104 -0.4260  0.6387
 1704TIP3    H1 5076   5.277   1.450   4.817 -0.4659 -0.7459  0.3842
 1704TIP3    H2 5077   5.168   1.546   4.774 -0.5307 -1.1442 -0.3501
 1705TIP3   OH2 5078   3.671   3.927   4.822 -0.1024  0.3922  0.2592
 1705TIP3    H1 5079   3.733   3.974   4.766 -0.7798  2.2620  0.9913
 1705TIP3    H2 5080   3.592   3.919   4.768 -0.7919  2.2887  0.8982
 1706TIP3   OH2 5081   5.759   0.635   0.207  0.8513  0.7745 -0.0203
 1706TIP3    H1 5082   5.801   0.554   0.180 -0.2693  0.6512 -1.4672
 1706TIP3    H2 5083   5.774   0.696   0.135 -1.6133  0.6506 -0.7090
 1707TIP3   OH2 5084   4.681   2.657   0.801  0.2446 -0.4924 -0.1770
 1707TIP3    H1 5085   4.767   2.617   0.789  0.7002  0.7671 -1.4442
 1707TIP3    H2 5086   4.687   2.740   0.754 -1.7327 -0.4586 -0.4376
 1708TIP3   OH2 5087   5.411   4.617   2.632  0.0132  0.0615  0.3765
 1708TIP3    H1 5088   5.440   4.526   2.636 -0.2971 -0.0683 -0.2410
 1708TIP3    H2 5089   5.359   4.622   2.552  1.3971  1.1653 -0.5094
 1709TIP3   OH2 5090   6.796   2.901   0.418 -0.5370  0.0719  0.3473
 1709TIP3    H1 5091   6.790   2.827   0.357 -0.3105  2.1198 -2.3992
 1709TIP3    H2 5092   6.887   2.902   0.447 -0.6875 -1.0393  0.9040
 1710TIP3   OH2 5093   1.381   4.523   0.196  0.2261 -0.6244  0.3891
 1710TIP3    H1 5094   1.426   4.533   0.280  2.3556  0.1266 -0.7815
 1710TIP3    H2 5095   1.364   4.613   0.167  0.6765 -0.8516 -0.5891
 1711TIP3   OH2 5096   6.332   5.611   5.373 -0.0380  0.8465  0.7301
 1711TIP3    H1 5097   6.252   5.576   5.334  0.8553  0.2978 -0.6830
 1711TIP3    H2 5098   6.307   5.631   5.464 -0.5846 -3.7557  1.8630
 1712TIP3   OH2 5099   2.181   4.879   1.212 -0.4136 -0.4444  0.3475
 1712TIP3    H1 5100   2.249   4.813   1.203 -0.0247 -0.0922  0.6706
 1712TIP3    H2 5101   2.105   4.830   1.244 -1.1827 -1.3330 -2.5367
 1713TIP3   OH2 5102   1.672   2.111   5.483  0.4242  0.4965 -0.0619
 1713TIP3    H1 5103   1.620   2.105   5.403 -2.9279 -1.4158  2.0022
 1713TIP3    H2 5104   1.653   2.198   5.518  0.0066  0.4769 -0.2339
 1714TIP3   OH2 5105   0.924   2.747   1.336  0.2719  0.0416  0.1868
 1714TIP3    H1 5106   0.984   2.673   1.329 -0.0773 -0.2039 -0.3376
 1714TIP3    H2 5107   0.868   2.727   1.411  0.8306  0.2647  0.6653
 1715TIP3   OH2 5108   4.476   5.805   2.768  0.1897  0.1200 -0.2062
 1715TIP3    H1 5109   4.482   5.743   2.695 -0.2265 -2.4744  1.7979
 1715TIP3    H2 5110   4.567   5.824   2.791  0.4088 -1.6971  0.6032
 1716TIP3   OH2 5111   1.453   3.595   3.382  0.6725  0.3741  0.0724
 1716TIP3    H1 5112   1.460   3.618   3.290  1.1097  0.5732  0.1557
 1716TIP3    H2 5113   1.442   3.679   3.427 -1.6120  0.1677  0.0217
 1717TIP3   OH2 5114   1.742   0.703   3.602 -0.2056  0.0692  0.1930
 1717TIP3    H1 5115   1.733   0.613   3.635  0.3411  0.4671  1.4779
 1717TIP3    H2 5116   1.825   0.702   3.554 -1.0497 -0.5356 -1.3232
 1718TIP3   OH2 5117   2.725   1.552   3.497 -0.2625  0.2177  0.6046
 1718TIP3    H1 5118   2.802   1.608   3.496  0.9112 -1.3321  0.3748
 1718TIP3    H2 5119   2.667   1.592   3.562  1.5232  0.4090  2.1659
 1719TIP3   OH2 5120   5.986   4.648   4.458  0.0570 -0.2062 -0.5457
 1719TIP3    H1 5121   6.004   4.557   4.434  2.1326  0.1427 -0.5514
 1719TIP3    H2 5122   5.893   4.660   4.441  0.0459 -1.9026 -1.9709
 1720TIP3   OH2 5123   6.176   1.788   4.928 -0.0354  0.1100  0.5129
 1720TIP3    H1 5124   6.169   1.720   4.996  0.8722 -1.0730 -0.5387
 1720TIP3    H2 5125   6.167   1.870   4.976 -0.6315 -0.7218  1.8998
 1721TIP3   OH2 5126   5.620   2.840   5.288  0.1612  0.0873 -0.0341
 1721TIP3    H1 5127   5.648   2.883   5.207 -0.1024 -0.3678 -0.3705
 1721TIP3    H2 5128   5.661   2.891   5.358 -2.3143  2.5821 -0.2455
 1722TIP3   OH2 5129   3.421   2.165   2.349  0.0869 -0.7947 -0.3962
 1722TIP3    H1 5130   3.430   2.122   2.434  0.0890 -1.9815 -0.9768
 1722TIP3    H2 5131   3.397   2.094   2.288 -0.6621  0.1485 -1.2472
 1723TIP3   OH2 5132   3.991   0.291   4.378  0.5665  0.0096 -0.0713
 1723TIP3    H1 5133   4.055   0.247   4.322  0.8376 -0.1142  0.3296
 1723TIP3    H2 5134   3.912   0.238   4.371  0.1397  0.7845 -1.4542
 1724TIP3   OH2 5135   1.978   6.815   1.279 -0.1899 -0.0447 -0.1483
 1724TIP3    H1 5136   2.012   6.858   1.358  0.3366 -1.3158  0.3486
 1724TIP3    H2 5137   1.950   6.729   1.309 -0.5399 -0.3292 -1.2529
 1725TIP3   OH2 5138   3.764   5.662   4.663  0.2431 -0.6010  0.2028
 1725TIP3    H1 5139   3.731   5.686   4.749  1.8331 -0.5723  0.8455
 1725TIP3    H2 5140   3.797   5.573   4.674 -0.0198 -0.7958 -0.5191
 1726TIP3   OH2 5141   2.425   4.234   3.352 -0.2894 -0.7337 -0.5359
 1726TIP3    H1 5142   2.514   4.268   3.342 -0.2233 -0.2941  1.1848
 1726TIP3    H2 5143   2.389   4.235   3.264  0.7540  0.9580 -0.9955
 1727TIP3   OH2 5144   2.583   2.859   3.293 -0.0833 -0.0379 -0.0418
 1727TIP3    H1 5145   2.584   2.889   3.384  2.3515  1.4947 -0.4635
 1727TIP3    H2 5146   2.571   2.940   3.242  1.3551 -0.4308 -1.0942
 1728TIP3   OH2 5147   1.805   4.744   4.294 -0.2212 -0.5135  0.1968
 1728TIP3    H1 5148   1.889   4.702   4.311  0.4205  1.0547  1.1784
 1728TIP3    H2 5149   1.770   4.762   4.381  0.5494  2.7953 -0.0284
 1729TIP3   OH2 5150   7.109   4.784   1.055 -0.5854  0.0450 -0.4496
 1729TIP3    H1 5151   7.071   4.703   1.020 -1.1648  0.0830  0.0618
 1729TIP3    H2 5152   7.134   4.835   0.978  0.4472 -0.9180 -0.7816
 1730TIP3   OH2 5153   2.973   4.522   4.448  0.3468 -0.0496 -0.2586
 1730TIP3    H1 5154   3.062   4.539   4.416  0.5948 -0.4681  0.1826
 1730TIP3    H2 5155   2.944   4.446   4.397 -0.6520  1.4584 -2.0315
 1731TIP3   OH2 5156   3.674   4.928   0.270 -0.2059  0.6487 -0.4752
 1731TIP3    H1 5157   3.728   4.986   0.215  0.8120  0.7819  0.6166
 1731TIP3    H2 5158   3.699   4.840   0.242  1.1092  0.6901  0.4442
 1732TIP3   OH2 5159   2.996   6.370   3.414  1.0597 -0.2836 -0.0941
 1732TIP3    H1 5160   3.081   6.356   3.374  0.6669 -3.4201 -0.0702
 1732TIP3    H2 5161   2.935   6.376   3.340  0.9127 -1.3762 -0.0702
 1733TIP3   OH2 5162   6.579   1.641   4.485  0.0051  0.3325  0.2242
 1733TIP3    H1 5163   6.564   1.548   4.468 -1.5156  0.1481  2.2019
 1733TIP3    H2 5164   6.536   1.657   4.569  2.3187  2.3049  1.1361
 1734TIP3   OH2 5165   5.743   5.163   3.529  0.7659 -0.4315  0.4589
 1734TIP3    H1 5166   5.693   5.082   3.520 -2.0820  1.0826  1.4055
 1734TIP3    H2 5167   5.752   5.196   3.440 -0.8849 -0.2392  0.3463
 1735TIP3   OH2 5168   6.832   4.053   1.713  0.6171  0.1768  0.5307
 1735TIP3    H1 5169   6.883   3.988   1.665  0.0653  0.0925  0.0465
 1735TIP3    H2 5170   6.786   4.103   1.645  0.0636  0.2546  0.9588
 1736TIP3   OH2 5171   3.475   3.969   5.060 -0.7650 -0.5054  0.3540
 1736TIP3    H1 5172   3.423   3.889   5.066  0.1758 -1.1210  0.4084
 1736TIP3    H2 5173   3.559   3.941   5.024 -0.9926  0.7246 -1.2673
 1737TIP3   OH2 5174   2.910   1.966   1.930 -0.0947 -0.7678 -0.0570
 1737TIP3    H1 5175   2.997   1.941   1.898  0.0414 -1.5121  0.8586
 1737TIP3    H2 5176   2.868   2.007   1.855  2.5553  3.5961  0.5273
 1738TIP3   OH2 5177   2.909   3.133   3.536 -0.0873 -0.2971 -0.3734
 1738TIP3    H1 5178   2.992   3.107   3.497 -0.8614 -3.3964 -0.2146
 1738TIP3    H2 5179   2.847   3.136   3.463 -0.1124  0.8496 -0.3237
 1739TIP3   OH2 5180   6.733   2.228   2.049  1.1456  0.1500 -0.2593
 1739TIP3    H1 5181   6.802   2.180   2.004  1.3889  0.1791  0.0848
 1739TIP3    H2 5182   6.702   2.291   1.984  0.6285 -0.6467 -0.8143
 1740TIP3   OH2 5183   7.076   5.708   1.724  0.3108  0.9734 -0.3678
 1740TIP3    H1 5184   7.008   5.774   1.738  0.1479  0.6582  0.3974
 1740TIP3    H2 5185   7.091   5.708   1.630 -0.2997  1.4962 -0.4721
 1741TIP3   OH2 5186   4.088   6.224   3.315 -0.3457  0.1491  0.0630
 1741TIP3    H1 5187   4.130   6.189   3.393 -1.8797  1.3589  1.5068
 1741TIP3    H2 5188   4.141   6.300   3.291 -0.5133  0.4501  0.6336
 1742TIP3   OH2 5189   1.201   4.931   1.709  0.5505  0.3244  0.2095
 1742TIP3    H1 5190   1.182   4.973   1.793  0.3887 -0.6074  0.6443
 1742TIP3    H2 5191   1.149   4.851   1.709  1.0495 -0.0155 -0.4974
 1743TIP3   OH2 5192   4.183   4.265   2.200  0.4169 -0.2042 -0.0649
 1743TIP3    H1 5193   4.239   4.314   2.140  0.4938 -1.4024 -1.0101
 1743TIP3    H2 5194   4.168   4.181   2.156 -3.1275  0.4686 -0.4953
 1744TIP3   OH2 5195   1.387   4.203   3.136 -0.0967  0.4847 -0.2148
 1744TIP3    H1 5196   1.334   4.283   3.134 -0.5590  0.1688 -0.7050
 1744TIP3    H2 5197   1.323   4.132   3.137  0.2483  0.1110  2.4154
 1745TIP3   OH2 5198   0.525   6.175   2.044  0.2335 -0.4509 -0.1339
 1745TIP3    H1 5199   0.518   6.214   1.957  0.4898  2.6792  1.1244
 1745TIP3    H2 5200   0.435   6.151   2.067 -0.0985  0.2868 -0.6164
 1746TIP3   OH2 5201   0.760   1.518   4.519 -0.1867 -0.1294  0.1681
 1746TIP3    H1 5202   0.776   1.435   4.565  0.8454 -1.4003 -2.3069
 1746TIP3    H2 5203   0.686   1.499   4.461  0.6333  0.3595 -1.0847
 1747TIP3   OH2 5204   6.618   3.873   4.921 -0.5911 -0.0994 -0.0039
 1747TIP3    H1 5205   6.576   3.800   4.876 -0.8769 -0.0165  0.1218
 1747TIP3    H2 5206   6.711   3.853   4.920 -0.5981 -0.1304 -0.5823
 1748TIP3   OH2 5207   2.944   4.471   2.927 -0.1476  0.1458  0.2079
 1748TIP3    H1 5208   2.849   4.469   2.935 -0.1345 -1.2407  0.2169
 1748TIP3    H2 5209   2.975   4.454   3.016  0.0857 -0.8112 -0.0450
 1749TIP3   OH2 5210   0.548   0.158   5.096  0.1157 -0.0422  0.2948
 1749TIP3    H1 5211   0.485   0.212   5.143  0.9083  1.7061 -0.5522
 1749TIP3    H2 5212   0.513   0.153   5.007  0.9155  0.5590 -0.0670
 1750TIP3   OH2 5213   6.531   3.133   0.897  0.9223 -0.3819  0.2258
 1750TIP3    H1 5214   6.554   3.121   0.805  1.2814  0.5598  0.1721
 1750TIP3    H2 5215   6.472   3.061   0.918  0.1801 -0.1453 -0.9706
 1751TIP3   OH2 5216   0.427   2.182   1.325 -0.2434 -0.4101  0.3144
 1751TIP3    H1 5217   0.491   2.239   1.368 -0.5265 -1.4476  2.2172
 1751TIP3    H2 5218   0.429   2.101   1.376 -1.7800 -1.1179 -0.6829
 1752TIP3   OH2 5219   6.349   6.228   5.522  0.0680  0.0365  0.1567
 1752TIP3    H1 5220   6.313   6.302   5.570  1.0330  0.8092 -0.2639
 1752TIP3    H2 5221   6.401   6.181   5.587 -0.9672 -0.5782  0.5501
 1753TIP3   OH2 5222   0.991   2.817   4.415  0.1420 -0.2253 -0.1745
 1753TIP3    H1 5223   1.059   2.758   4.448 -0.3083 -0.3532  0.5408
 1753TIP3    H2 5224   1.006   2.821   4.320  1.3301 -0.0091  0.0155
 1754TIP3   OH2 5225   6.393   4.519   0.770  0.0787 -0.0354  0.6914
 1754TIP3    H1 5226   6.399   4.439   0.717 -2.0367 -1.2886  2.1850
 1754TIP3    H2 5227   6.300   4.528   0.788  0.5460  1.3616  2.6709
 1755TIP3   OH2 5228   2.027   5.458   3.701 -0.5292  0.4783  0.0699
 1755TIP3    H1 5229   2.006   5.366   3.683 -1.7079  0.2488  2.2633
 1755TIP3    H2 5230   2.122   5.459   3.712 -0.4539 -0.3874 -0.4146
 1756TIP3   OH2 5231   1.935   5.976   1.491 -0.7297 -0.0142 -0.3318
 1756TIP3    H1 5232   1.865   6.036   1.516 -0.9641  0.6754 -2.4988
 1756TIP3    H2 5233   2.012   6.007   1.540 -0.7605  2.3280 -1.6071
 1757TIP3   OH2 5234   4.933   4.847   5.316 -0.1193 -0.4935 -0.3224
 1757TIP3    H1 5235   4.962   4.866   5.227  1.0831  2.6003  0.6330
 1757TIP3    H2 5236   4.855   4.901   5.328  0.7915  0.5719  1.0656
 1758TIP3   OH2 5237   1.781   1.041   1.077  0.0351 -0.1801  0.1681
 1758TIP3    H1 5238   1.723   1.087   1.016  1.2798 -0.1919 -1.0849
 1758TIP3    H2 5239   1.725   1.019   1.152 -1.9562 -1.4373 -1.5545
 1759TIP3   OH2 5240   3.126   6.756   2.055 -0.3491  0.3385  0.0452
 1759TIP3    H1 5241   3.171   6.770   1.972 -1.1925  0.2941 -0.4251
 1759TIP3    H2 5242   3.194   6.718   2.112  0.4200  1.0308 -0.3914
 1760TIP3   OH2 5243   3.982   3.272   4.324 -0.3403 -0.3450 -0.0076
 1760TIP3    H1 5244   4.073   3.276   4.293 -1.0371 -0.7136 -2.2815
 1760TIP3    H2 5245   3.970   3.180   4.349 -0.5020 -0.6536 -1.1622
 1761TIP3   OH2 5246   4.310   5.064   4.278 -0.6447  0.2476 -0.3019
 1761TIP3    H1 5247   4.322   4.977   4.240 -0.4394 -0.4337  1.2596
 1761TIP3    H2 5248   4.232   5.098   4.235 -0.4994 -0.5266 -1.2263
 1762TIP3   OH2 5249   0.283   3.033   0.030  0.5240 -0.1373 -0.2795
 1762TIP3    H1 5250   0.237   2.979  -0.034  0.6150 -0.6239  0.0615
 1762TIP3    H2 5251   0.213   3.079   0.078  0.3818 -0.8445  0.2114
 1763TIP3   OH2 5252   0.144   4.119   0.485 -0.3857  0.2021  0.1882
 1763TIP3    H1 5253   0.056   4.088   0.506 -0.6966 -0.2475 -1.6358
 1763TIP3    H2 5254   0.130   4.201   0.439  0.2454  0.8757  1.1547
 1764TIP3   OH2 5255   0.954   4.651   4.027  0.0461  0.2741 -0.3277
 1764TIP3    H1 5256   0.867   4.651   3.986 -0.6284  1.7519  0.9769
 1764TIP3    H2 5257   0.939   4.690   4.113  1.6005 -1.7519  0.9185
 1765TIP3   OH2 5258   2.306   3.227   5.057 -0.2750  0.2554 -0.6415
 1765TIP3    H1 5259   2.344   3.309   5.028 -0.5382  0.7814  0.4619
 1765TIP3    H2 5260   2.236   3.210   4.995 -2.4711  2.6349  0.9906
 1766TIP3   OH2 5261   2.308   5.571   5.032 -0.1358  0.2430  0.2337
 1766TIP3    H1 5262   2.279   5.481   5.017 -1.1407  0.4825  0.6518
 1766TIP3    H2 5263   2.392   5.577   4.989 -0.5383 -0.6032 -0.6910
 1767TIP3   OH2 5264   0.232   0.922   4.479  0.4277 -0.1372 -0.1642
 1767TIP3    H1 5265   0.159   0.984   4.479  0.1850 -0.4041  0.5415
 1767TIP3    H2 5266   0.291   0.954   4.548  0.0098 -0.9919  0.6277
 1768TIP3   OH2 5267   3.748   6.009   2.838 -0.0086 -0.2633  0.2722
 1768TIP3    H1 5268   3.713   5.955   2.908 -1.6325 -0.1343 -0.3924
 1768TIP3    H2 5269   3.794   6.081   2.882 -1.5586  0.1780  1.2189
 1769TIP3   OH2 5270   3.468   0.624   5.697  0.4966 -0.3536  0.2039
 1769TIP3    H1 5271   3.395   0.564   5.682  0.1616  0.3716 -1.3136
 1769TIP3    H2 5272   3.435   0.684   5.764  0.1393 -0.7400  0.3810
 1770TIP3   OH2 5273   2.209   3.420   3.602 -0.3456  0.2089  0.4034
 1770TIP3    H1 5274   2.288   3.421   3.547 -0.2218 -0.5119  0.5563
 1770TIP3    H2 5275   2.144   3.467   3.550  0.0455  0.3826  0.0591
 1771TIP3   OH2 5276   4.661   5.029   2.138 -0.3213 -0.5306 -0.3408
 1771TIP3    H1 5277   4.683   5.015   2.230  0.0405  0.2143 -0.3028
 1771TIP3    H2 5278   4.739   5.071   2.102 -1.3122  1.3265 -0.4306
 1772TIP3   OH2 5279   3.744   6.140   3.802  0.1069  0.4876 -0.6661
 1772TIP3    H1 5280   3.674   6.173   3.859  0.2251 -0.8062  0.2798
 1772TIP3    H2 5281   3.745   6.046   3.818  1.9319  0.4500 -0.8220
 1773TIP3   OH2 5282   6.240   1.578   3.535  0.1762 -0.4500  0.4480
 1773TIP3    H1 5283   6.216   1.656   3.585  1.9199  0.6682 -0.3632
 1773TIP3    H2 5284   6.189   1.507   3.575 -1.9351  1.1747  0.8202
 1774TIP3   OH2 5285   5.533   2.101   2.137 -0.0635 -0.5182  0.0525
 1774TIP3    H1 5286   5.507   2.057   2.218  2.0000  0.0760  1.1039
 1774TIP3    H2 5287   5.595   2.041   2.096 -1.8153 -1.2668 -1.6707
 1775TIP3   OH2 5288   6.671   0.838   0.526 -0.2189  0.0334 -0.4103
 1775TIP3    H1 5289   6.739   0.824   0.592 -0.2432  0.3460 -0.3158
 1775TIP3    H2 5290   6.703   0.912   0.473  0.2135 -0.7658 -1.3001
 1776TIP3   OH2 5291   3.312   3.033   2.259  0.0016  0.3864 -0.1620
 1776TIP3    H1 5292   3.400   3.052   2.227  0.7253  0.5334  1.7841
 1776TIP3    H2 5293   3.315   2.942   2.288 -0.8075  0.0691 -1.0156
 1777TIP3   OH2 5294   0.808   1.793   5.019 -0.3069 -0.6570 -0.1209
 1777TIP3    H1 5295   0.897   1.818   5.045 -0.6057 -0.3234  0.6168
 1777TIP3    H2 5296   0.764   1.875   5.000 -0.0966 -0.8937 -1.7692
 1778TIP3   OH2 5297   1.982   6.362   5.689 -0.2341  0.1364 -0.5042
 1778TIP3    H1 5298   2.057   6.383   5.745 -1.2025 -1.1067  1.3540
 1778TIP3    H2 5299   1.995   6.270   5.665 -1.3263 -0.2113  0.1564
 1779TIP3   OH2 5300   4.475   1.572   1.740  0.2162 -0.1888  0.1149
 1779TIP3    H1 5301   4.501   1.498   1.795  2.5162  0.1983 -0.3602
 1779TIP3    H2 5302   4.428   1.631   1.799 -0.4413 -1.3590  0.8055
 1780TIP3   OH2 5303   1.041   3.302   2.666  0.2793 -0.7521 -0.1965
 1780TIP3    H1 5304   1.091   3.371   2.708  0.0884 -0.7827  0.0824
 1780TIP3    H2 5305   1.083   3.290   2.581  0.2426 -0.2198 -0.2891
 1781TIP3   OH2 5306   6.486   2.678   3.661  0.8505  0.7525  0.3501
 1781TIP3    H1 5307   6.421   2.664   3.592  0.8279 -1.1771  0.7243
 1781TIP3    H2 5308   6.442   2.736   3.723 -0.5373 -0.4852  0.5799
 1782TIP3   OH2 5309   7.118   2.217   3.227 -0.1997  0.2616 -0.3172
 1782TIP3    H1 5310   7.164   2.300   3.216 -0.4803  0.3480 -0.8549
 1782TIP3    H2 5311   7.051   2.217   3.158  1.9870 -1.9083 -2.6523
 1783TIP3   OH2 5312   4.336   2.719   0.029  0.0017 -0.1809  0.4768
 1783TIP3    H1 5313   4.312   2.667   0.105  0.5783 -0.5858  0.3910
 1783TIP3    H2 5314   4.350   2.807   0.063 -2.5861  0.3450  0.3753
 1784TIP3   OH2 5315   4.160   5.887   5.056 -0.0936 -0.0024  0.6705
 1784TIP3    H1 5316   4.086   5.905   4.998 -0.7345 -2.3798  0.6237
 1784TIP3    H2 5317   4.222   5.958   5.040  0.2797 -1.0172 -3.7865
 1785TIP3   OH2 5318   4.315   1.064   5.559  0.2457 -0.0464 -0.5751
 1785TIP3    H1 5319   4.334   1.031   5.471 -1.6287  3.8288 -2.6676
 1785TIP3    H2 5320   4.249   1.003   5.594  2.0291 -2.4466 -1.1387
 1786TIP3   OH2 5321   2.022   4.297   0.187 -0.1599 -0.5068  0.2059
 1786TIP3    H1 5322   1.989   4.262   0.105 -1.7129  1.6001 -0.1510
 1786TIP3    H2 5323   2.117   4.301   0.175 -0.2446 -1.4379 -0.9445
 1787TIP3   OH2 5324   0.959   6.787   2.285 -0.2719  0.0910 -0.0989
 1787TIP3    H1 5325   0.936   6.738   2.206 -1.0939 -0.1509  0.2722
 1787TIP3    H2 5326   0.952   6.722   2.356  0.2675  0.3499  0.1963
 1788TIP3   OH2 5327   3.275   2.921   5.467  0.8115  0.5425  0.1632
 1788TIP3    H1 5328   3.210   2.903   5.536  1.7411  0.3138  0.9964
 1788TIP3    H2 5329   3.354   2.947   5.514  2.0537 -1.4104 -0.7154
 1789TIP3   OH2 5330   5.934   4.187   0.291  0.1528  0.4357  0.1965
 1789TIP3    H1 5331   5.916   4.117   0.354  0.6522 -0.7922 -0.9787
 1789TIP3    H2 5332   5.992   4.147   0.226 -1.0220  1.3901 -1.5149
 1790TIP3   OH2 5333   1.138   6.368   3.388 -0.1292 -0.4065  0.5937
 1790TIP3    H1 5334   1.135   6.414   3.304 -0.6234  2.4492  2.0455
 1790TIP3    H2 5335   1.060   6.312   3.387 -1.6359  1.5708  0.1251
 1791TIP3   OH2 5336   5.685   4.329   0.245 -0.1461 -0.1481  0.7199
 1791TIP3    H1 5337   5.779   4.329   0.258 -0.0439  0.8420  0.1052
 1791TIP3    H2 5338   5.664   4.238   0.224  0.6904 -0.3495  0.7227
 1792TIP3   OH2 5339   5.365   1.017   4.596  0.0041  0.0881  0.1159
 1792TIP3    H1 5340   5.387   1.103   4.630 -0.8789  0.0417  0.8375
 1792TIP3    H2 5341   5.399   1.017   4.506 -1.3503  1.7579 -0.4482
 1793TIP3   OH2 5342   5.126   3.632   1.706  0.2456 -0.1490 -0.2729
 1793TIP3    H1 5343   5.170   3.651   1.623 -0.4661  1.2937 -0.3472
 1793TIP3    H2 5344   5.035   3.658   1.691 -0.2082 -1.2312  0.5126
 1794TIP3   OH2 5345   5.042   0.193   3.154  0.3932 -0.8519 -0.2370
 1794TIP3    H1 5346   5.092   0.248   3.215 -1.0023 -0.8833  0.9829
 1794TIP3    H2 5347   4.964   0.245   3.133 -0.2553 -1.7861 -0.1766
 1795TIP3   OH2 5348   2.373   2.185   1.119 -0.1570  0.0272  0.3567
 1795TIP3    H1 5349   2.433   2.209   1.048  1.1072  0.3602  1.4962
 1795TIP3    H2 5350   2.407   2.232   1.195 -1.1627 -0.7472  1.3087
 1796TIP3   OH2 5351   1.443   5.457   3.995  0.1853  0.3110 -0.1097
 1796TIP3    H1 5352   1.420   5.547   3.972  1.5511  0.8653  0.5672
 1796TIP3    H2 5353   1.532   5.446   3.962  1.2261  0.2865  2.4595
 1797TIP3   OH2 5354   2.333   5.113   1.313 -0.5687  0.2074 -0.1366
 1797TIP3    H1 5355   2.334   5.030   1.265 -0.7052  0.6175 -0.8633
 1797TIP3    H2 5356   2.275   5.097   1.387 -0.6388 -0.3341 -0.3026
 1798TIP3   OH2 5357   3.864   2.679   4.422  1.0498 -0.2240 -0.2871
 1798TIP3    H1 5358   3.929   2.661   4.489  1.4099  0.0443 -0.5619
 1798TIP3    H2 5359   3.853   2.596   4.376  0.2950 -0.5987  0.5308
 1799TIP3   OH2 5360   3.001   4.215   2.507  0.1861 -0.0224  0.5113
 1799TIP3    H1 5361   3.018   4.284   2.571 -1.8785 -0.0058  1.1326
 1799TIP3    H2 5362   2.905   4.209   2.504  0.2935 -2.2450 -0.1886
 1800TIP3   OH2 5363   3.487   2.138   5.545 -0.0131  0.3046 -0.2045
 1800TIP3    H1 5364   3.392   2.127   5.541  0.1908 -2.4734  0.3517
 1800TIP3    H2 5365   3.504   2.173   5.632 -0.4390 -1.6775  0.7386
 1801TIP3   OH2 5366   0.474   1.732   4.260  0.3287  0.4015  1.2297
 1801TIP3    H1 5367   0.389   1.688   4.258  0.5742 -0.1234  1.7904
 1801TIP3    H2 5368   0.501   1.737   4.169  0.6309 -1.3075  1.1837
 1802TIP3   OH2 5369   0.363   4.162   5.215  0.2753  0.4506  0.1488
 1802TIP3    H1 5370   0.364   4.210   5.132 -0.8075  1.4810  0.7137
 1802TIP3    H2 5371   0.413   4.083   5.197 -0.6372  0.2533 -1.7342
 1803TIP3   OH2 5372   0.109   0.602   3.405  0.4398  0.2077  0.5302
 1803TIP3    H1 5373   0.184   0.651   3.372  1.6481 -0.9842  1.3915
 1803TIP3    H2 5374   0.092   0.639   3.492  0.6741 -0.1926  0.7469
 1804TIP3   OH2 5375   0.261   3.184   0.540  0.4020  0.5712  0.1487
 1804TIP3    H1 5376   0.173   3.212   0.513  0.0743  1.1081  1.6862
 1804TIP3    H2 5377   0.308   3.265   0.558  0.4959  0.2498  1.4574
 1805TIP3   OH2 5378   6.036   4.952   4.349  0.4591 -0.2537  0.0469
 1805TIP3    H1 5379   6.048   4.922   4.439  0.5396 -0.4337 -0.0229
 1805TIP3    H2 5380   6.076   4.883   4.295  2.5243  0.9412 -0.0337
 1806TIP3   OH2 5381   3.933   4.408   1.055 -0.4292 -0.2481 -0.4104
 1806TIP3    H1 5382   3.937   4.397   0.960  1.5355 -0.8343 -0.3122
 1806TIP3    H2 5383   4.024   4.399   1.084 -0.9176  0.3877  1.4855
 1807TIP3   OH2 5384   0.681   2.812   2.444 -0.2799  0.2880 -0.0838
 1807TIP3    H1 5385   0.684   2.838   2.536  0.4962  1.7413 -0.4811
 1807TIP3    H2 5386   0.743   2.870   2.400  1.4617 -2.2139 -1.1317
 1808TIP3   OH2 5387   6.066   5.172   5.645 -0.0110 -0.2431  0.3234
 1808TIP3    H1 5388   6.003   5.117   5.692 -0.1469 -0.5041 -0.1606
 1808TIP3    H2 5389   6.141   5.115   5.629 -0.2369 -0.3533 -0.3620
 1809TIP3   OH2 5390   6.629   4.363   2.538 -0.4691 -0.4812  0.0889
 1809TIP3    H1 5391   6.549   4.371   2.487 -0.3981  0.5662  0.1351
 1809TIP3    H2 5392   6.699   4.382   2.476 -0.2619 -1.1985  0.0959
 1810TIP3   OH2 5393   1.364   5.704   1.270 -0.3611  0.1634 -0.6796
 1810TIP3    H1 5394   1.398   5.631   1.322 -1.1661  0.0654 -0.2825
 1810TIP3    H2 5395   1.269   5.694   1.273 -0.4372 -0.0119 -2.3926
 1811TIP3   OH2 5396   4.301   1.417   4.543  0.1486 -0.0652 -0.0595
 1811TIP3    H1 5397   4.384   1.374   4.564 -0.2736 -1.7983 -1.6577
 1811TIP3    H2 5398   4.311   1.445   4.452 -0.0577  2.2239  0.5653
 1812TIP3   OH2 5399   3.966   1.532   1.952 -0.8740 -0.3524 -0.4998
 1812TIP3    H1 5400   4.002   1.448   1.924 -1.5261 -0.2516 -1.7041
 1812TIP3    H2 5401   3.913   1.561   1.878 -0.0281  1.4935 -0.4337
 1813TIP3   OH2 5402   4.712   4.192   2.659  0.3330  0.5805 -0.2169
 1813TIP3    H1 5403   4.630   4.150   2.684  0.6121  0.0330 -0.1967
 1813TIP3    H2 5404   4.685   4.273   2.614 -0.1983  0.6917  0.2907
 1814TIP3   OH2 5405   6.326   6.704   2.142  0.4244  0.5330  0.2415
 1814TIP3    H1 5406   6.240   6.742   2.126 -0.7489 -0.7613  2.7677
 1814TIP3    H2 5407   6.334   6.634   2.077  0.1931  1.5191 -0.8750
 1815TIP3   OH2 5408   2.116   4.769   3.277  0.0813 -0.0111  0.0356
 1815TIP3    H1 5409   2.068   4.805   3.203 -2.1951  2.4340  2.5069
 1815TIP3    H2 5410   2.050   4.725   3.331  1.5104 -0.9940  1.0862
 1816TIP3   OH2 5411   6.601   1.824   2.590 -0.4444 -0.3860 -0.2543
 1816TIP3    H1 5412   6.507   1.838   2.589 -0.4714 -0.5437 -0.0382
 1816TIP3    H2 5413   6.629   1.851   2.677  0.2984  3.2840 -1.4382
 1817TIP3   OH2 5414   1.231   0.713   3.951 -0.4473 -0.0075  0.5366
 1817TIP3    H1 5415   1.221   0.619   3.934 -1.2116  0.3658 -1.2866
 1817TIP3    H2 5416   1.292   0.717   4.024  1.3598 -1.8915 -0.7410
 1818TIP3   OH2 5417   1.674   3.171   2.442  0.3776 -0.4040 -0.2075
 1818TIP3    H1 5418   1.762   3.199   2.416  1.1937 -0.7529  1.9756
 1818TIP3    H2 5419   1.658   3.091   2.391  0.6407  0.5018 -1.7693
 1819TIP3   OH2 5420   3.351   0.828   5.868  0.0112 -0.3137 -0.1601
 1819TIP3    H1 5421   3.312   0.871   5.792  0.8654 -1.3833 -1.2501
 1819TIP3    H2 5422   3.344   0.892   5.939  0.8626  1.4741 -1.6130
 1820TIP3   OH2 5423   4.938   2.459   3.175 -0.6109  0.1731 -0.3610
 1820TIP3    H1 5424   4.963   2.368   3.163  0.4022  0.3541  0.2318
 1820TIP3    H2 5425   4.882   2.479   3.100 -3.0467 -1.6473  0.8379
 1821TIP3   OH2 5426   0.134   3.900   0.720  0.0097 -0.4473 -0.0140
 1821TIP3    H1 5427   0.121   3.966   0.788 -1.1675 -0.6015 -0.0713
 1821TIP3    H2 5428   0.065   3.918   0.656  0.0213 -1.3967 -0.3007
 1822TIP3   OH2 5429   0.862   3.754   5.704 -0.3719  0.3891 -0.4048
 1822TIP3    H1 5430   0.955   3.731   5.706 -0.4563  0.0622  1.0222
 1822TIP3    H2 5431   0.825   3.699   5.635  0.0950 -1.1518  0.5200
 1823TIP3   OH2 5432   3.340   6.494   3.260 -0.3587  0.1197  0.1198
 1823TIP3    H1 5433   3.305   6.406   3.278 -0.7574  0.1175 -0.6635
 1823TIP3    H2 5434   3.263   6.548   3.246 -0.0811  0.4025 -0.3156
 1824TIP3   OH2 5435   3.557   1.736   1.187 -0.3975  0.6251  0.4980
 1824TIP3    H1 5436   3.499   1.660   1.182 -0.2171  0.5450 -3.1465
 1824TIP3    H2 5437   3.644   1.698   1.194 -0.4567  0.5856  1.0496
 1825TIP3   OH2 5438   1.055   0.724   3.493 -0.2119 -0.3031  0.1879
 1825TIP3    H1 5439   1.113   0.773   3.435  0.5094  1.3905  2.2142
 1825TIP3    H2 5440   0.978   0.706   3.440 -0.2164  2.4436 -0.9141
 1826TIP3   OH2 5441   0.258   1.522   1.621  0.3675  0.4753 -0.0863
 1826TIP3    H1 5442   0.293   1.526   1.532 -0.3995 -0.2558 -0.4364
 1826TIP3    H2 5443   0.163   1.520   1.609  0.2775 -0.6964  0.6921
 1827TIP3   OH2 5444   3.187   0.227   5.797  0.0670 -0.7228  0.1335
 1827TIP3    H1 5445   3.192   0.155   5.733  0.4296  0.4238 -1.1886
 1827TIP3    H2 5446   3.241   0.197   5.870 -1.0633 -2.4487  0.3367
 1828TIP3   OH2 5447   3.290   6.546   2.208  0.0355 -0.8269  0.4360
 1828TIP3    H1 5448   3.289   6.636   2.240 -0.2732 -0.4956 -0.4714
 1828TIP3    H2 5449   3.253   6.494   2.279  1.2052 -0.3940  1.3945
 1829TIP3   OH2 5450   3.122   4.036   2.180  0.5295 -0.0602  0.3380
 1829TIP3    H1 5451   3.176   3.967   2.140  2.0064  0.3126  1.5952
 1829TIP3    H2 5452   3.040   3.993   2.201  0.7449 -0.9598 -0.5703
 1830TIP3   OH2 5453   3.079   1.376   0.922 -0.5425 -0.2575  0.1552
 1830TIP3    H1 5454   3.096   1.327   0.841  0.2663 -1.3253  0.9418
 1830TIP3    H2 5455   2.985   1.390   0.922 -0.6016 -0.5803 -0.7857
 1831TIP3   OH2 5456   5.910   1.813   5.833  0.3785 -0.2547 -0.5017
 1831TIP3    H1 5457   5.931   1.892   5.882  0.0887 -0.8151  0.5596
 1831TIP3    H2 5458   5.855   1.843   5.760  0.7447  0.5806 -0.4424
 1832TIP3   OH2 5459   3.291   6.435   1.959  0.4175 -0.1922 -0.0146
 1832TIP3    H1 5460   3.283   6.489   2.037 -0.4213  0.9502 -0.8524
 1832TIP3    H2 5461   3.321   6.495   1.891 -0.3263 -0.8105 -0.9239
 1833TIP3   OH2 5462   1.709   4.257   5.691  0.0481 -0.5369  0.5597
 1833TIP3    H1 5463   1.666   4.206   5.623  1.7028 -0.9803 -0.2278
 1833TIP3    H2 5464   1.712   4.346   5.656 -1.1176 -0.2866  1.0746
 1834TIP3   OH2 5465   5.585   3.543   2.781 -0.3072  0.4830 -0.1491
 1834TIP3    H1 5466   5.657   3.481   2.770 -1.0740 -0.1700 -1.7228
 1834TIP3    H2 5467   5.625   3.629   2.764  0.3520  0.2482  0.1748
 1835TIP3   OH2 5468   6.762   5.776   4.101  0.3393  0.1961 -0.4832
 1835TIP3    H1 5469   6.739   5.697   4.053 -0.8721 -0.6958  1.4319
 1835TIP3    H2 5470   6.793   5.744   4.186  4.2713  1.5927 -1.1741
 1836TIP3   OH2 5471   6.125   0.899   5.463 -0.1367 -0.2309  0.3060
 1836TIP3    H1 5472   6.175   0.981   5.460 -1.5892  0.7131  1.0987
 1836TIP3    H2 5473   6.102   0.888   5.555 -1.1405 -0.7925  0.0047
 1837TIP3   OH2 5474   5.645   6.120   0.129 -0.5222 -0.4007 -0.2799
 1837TIP3    H1 5475   5.638   6.115   0.224  0.3448 -2.5709 -0.2824
 1837TIP3    H2 5476   5.592   6.048   0.096 -0.8436  0.3421 -1.4749
 1838TIP3   OH2 5477   0.972   2.747   2.861 -0.2344  0.0577 -0.2474
 1838TIP3    H1 5478   1.057   2.790   2.865 -0.3165  0.1437  1.1743
 1838TIP3    H2 5479   0.989   2.663   2.819  0.2684  0.6830 -1.3318
 1839TIP3   OH2 5480   4.770   0.265   0.091  0.6343  0.2846 -0.1195
 1839TIP3    H1 5481   4.828   0.291   0.162 -0.0385  0.3628  0.4095
 1839TIP3    H2 5482   4.704   0.211   0.133  0.8467 -0.5897 -0.8671
 1840TIP3   OH2 5483   5.942   1.011   3.487 -0.3088 -0.4584 -0.2261
 1840TIP3    H1 5484   5.887   1.071   3.537 -0.6720 -0.5782 -0.4839
 1840TIP3    H2 5485   6.019   0.997   3.544 -0.1240  0.3989 -0.2512
 1841TIP3   OH2 5486   0.832   6.663   2.615  0.0610  0.9356 -0.3949
 1841TIP3    H1 5487   0.896   6.734   2.612  0.6408  0.4433  0.0308
 1841TIP3    H2 5488   0.885   6.583   2.607 -0.3630  0.4615  1.2029
 1842TIP3   OH2 5489   2.461   5.037   4.033 -0.6926 -0.1462 -0.1444
 1842TIP3    H1 5490   2.552   5.036   4.063 -0.9053 -0.6425  0.5059
 1842TIP3    H2 5491   2.409   5.036   4.113 -1.2842 -2.6370 -0.4684
 1843TIP3   OH2 5492   0.777   0.575   0.479  0.4106  0.1141  0.6596
 1843TIP3    H1 5493   0.860   0.613   0.508  0.4442 -0.8406  1.8974
 1843TIP3    H2 5494   0.744   0.636   0.413  1.7634  0.8544  0.6386
 1844TIP3   OH2 5495   3.726   4.549   5.321 -0.3004  0.4248 -0.3636
 1844TIP3    H1 5496   3.818   4.557   5.345 -0.6408  1.6560  0.6405
 1844TIP3    H2 5497   3.707   4.456   5.331  1.2429 -0.1437 -2.2609
 1845TIP3   OH2 5498   0.572   2.408   0.338 -0.1371  0.8124 -0.0482
 1845TIP3    H1 5499   0.666   2.400   0.358  0.3072  1.5179 -1.6797
 1845TIP3    H2 5500   0.551   2.499   0.361 -0.5966  0.4955  0.8603
 1846TIP3   OH2 5501   4.875   6.053   0.187 -0.5841  0.3528  0.3064
 1846TIP3    H1 5502   4.808   5.990   0.215 -0.0154  0.6131  2.3859
 1846TIP3    H2 5503   4.923   6.074   0.266  2.7214 -0.6454 -1.2396
 1847TIP3   OH2 5504   3.334   5.585   2.373  0.3189  0.3916 -0.5073
 1847TIP3    H1 5505   3.417   5.557   2.412 -0.5101  0.0920  1.1137
 1847TIP3    H2 5506   3.319   5.673   2.408  0.7883  1.2137 -2.2145
 1848TIP3   OH2 5507   3.927   2.147   4.153 -0.4825  0.0005  0.4388
 1848TIP3    H1 5508   3.984   2.108   4.218 -0.9360 -0.6618  0.4565
 1848TIP3    H2 5509   3.838   2.128   4.184 -0.7443  1.9827  0.9977
 1849TIP3   OH2 5510   1.985   5.080   2.421  0.1575 -0.4112 -0.6951
 1849TIP3    H1 5511   1.931   5.068   2.344  0.4334  1.1438 -1.1518
 1849TIP3    H2 5512   2.067   5.034   2.400  0.0083 -0.5096 -1.0690
 1850TIP3   OH2 5513   3.840   1.551   1.701  0.4543 -0.2665  0.4755
 1850TIP3    H1 5514   3.837   1.468   1.655 -1.4969  0.0742 -0.1081
 1850TIP3    H2 5515   3.846   1.617   1.631 -0.2344  0.1523  0.7966
 1851TIP3   OH2 5516   0.800   6.019   1.793  0.7643 -0.1841 -0.0848
 1851TIP3    H1 5517   0.799   6.007   1.888 -0.5022  1.6910  0.1855
 1851TIP3    H2 5518   0.712   5.997   1.764  1.5599 -2.3155 -1.1199
 1852TIP3   OH2 5519   7.030   1.035   5.233 -0.2993 -0.2684  0.4851
 1852TIP3    H1 5520   6.943   1.028   5.272 -0.0624  0.0512  1.0751
 1852TIP3    H2 5521   7.039   0.956   5.180 -1.8050  0.6755 -1.3299
 1853TIP3   OH2 5522   4.984   1.893   4.377 -0.0739  0.6345 -0.1106
 1853TIP3    H1 5523   4.918   1.933   4.321  0.5033  0.2166 -1.1200
 1853TIP3    H2 5524   5.030   1.830   4.320 -0.7076 -1.2174  1.3052
 1854TIP3   OH2 5525   3.481   2.251   5.789 -0.1538  0.4843  0.3993
 1854TIP3    H1 5526   3.570   2.221   5.810  0.4011  1.8213  0.0885
 1854TIP3    H2 5527   3.460   2.312   5.860 -1.6116 -1.2240  1.5166
 1855TIP3   OH2 5528   2.023   6.070   5.678 -0.5687  0.2697  0.3937
 1855TIP3    H1 5529   2.083   6.020   5.623 -0.7960  1.4857 -1.0299
 1855TIP3    H2 5530   1.959   6.006   5.708  0.8751 -0.8772  1.2104
 1856TIP3   OH2 5531   1.515   6.737   4.114  0.4592  0.5002  0.4437
 1856TIP3    H1 5532   1.508   6.791   4.193  3.5545  0.9804  0.5231
 1856TIP3    H2 5533   1.528   6.800   4.043  0.0206 -0.0104 -0.0929
 1857TIP3   OH2 5534   2.056   6.092   4.800  0.0011  0.3715 -0.3239
 1857TIP3    H1 5535   2.106   6.035   4.858  1.3538  1.2286 -0.5875
 1857TIP3    H2 5536   2.043   6.172   4.851 -2.6741 -0.4314  0.3808
 1858TIP3   OH2 5537   1.331   4.879   1.278  0.1545 -0.5191 -0.7202
 1858TIP3    H1 5538   1.365   4.852   1.363 -1.4049  0.7803  0.3655
 1858TIP3    H2 5539   1.357   4.808   1.219  1.7046 -1.2167  0.7112
 1859TIP3   OH2 5540   1.094   1.261   0.603  0.3254  0.8180  0.1756
 1859TIP3    H1 5541   1.107   1.355   0.591 -0.8563  0.9323 -0.3886
 1859TIP3    H2 5542   1.135   1.220   0.527  0.5818  0.8972  0.2708
 1860TIP3   OH2 5543   2.072   1.569   1.735  0.5682  0.2093  0.0304
 1860TIP3    H1 5544   2.167   1.578   1.723  1.0602 -0.5112  2.7742
 1860TIP3    H2 5545   2.045   1.650   1.776 -0.3666  1.0673 -2.1138
 1861TIP3   OH2 5546   6.991   3.822   3.033  0.2687  0.1624  0.4099
 1861TIP3    H1 5547   7.080   3.825   2.996 -0.3087  1.1024 -0.9817
 1861TIP3    H2 5548   6.935   3.798   2.959 -0.5416 -1.7523  1.5541
 1862TIP3   OH2 5549   4.369   6.138   0.129  0.1703  0.2713  0.2390
 1862TIP3    H1 5550   4.376   6.181   0.044  2.8111  1.0679  0.7594
 1862TIP3    H2 5551   4.364   6.045   0.108 -0.1137  0.5039 -0.8020
 1863TIP3   OH2 5552   6.686   0.726   4.715  0.0694  0.4291  0.2012
 1863TIP3    H1 5553   6.701   0.649   4.661  3.0598  1.4826 -0.6792
 1863TIP3    H2 5554   6.647   0.691   4.796 -0.7121 -1.6726 -1.0040
 1864TIP3   OH2 5555   6.124   6.500   2.398 -0.4547 -0.4731  0.3488
 1864TIP3    H1 5556   6.137   6.518   2.304  0.3248 -0.5040  0.4528
 1864TIP3    H2 5557   6.121   6.405   2.404  1.8730 -0.5806  0.6509
 1865TIP3   OH2 5558   6.383   0.774   3.827 -0.2498  0.0567 -0.2957
 1865TIP3    H1 5559   6.420   0.695   3.787 -0.6233  0.5631 -1.7127
 1865TIP3    H2 5560   6.322   0.741   3.893  1.4420 -0.7948  0.8949
 1866TIP3   OH2 5561   5.746   3.743   2.658 -0.5217 -0.2807 -0.3626
 1866TIP3    H1 5562   5.726   3.835   2.639 -1.7002 -0.2598  0.8112
 1866TIP3    H2 5563   5.732   3.699   2.575 -0.2336  0.5618 -0.8749
 1867TIP3   OH2 5564   4.327   5.171   3.926  0.5219 -0.3355 -0.1046
 1867TIP3    H1 5565   4.295   5.258   3.902 -0.6867 -0.3808  1.2150
 1867TIP3    H2 5566   4.248   5.118   3.937  1.2328 -1.5801 -0.7525
 1868TIP3   OH2 5567   2.147   1.574   2.909 -0.2137  0.4347  0.3315
 1868TIP3    H1 5568   2.189   1.652   2.873  1.1204  0.0305  0.9567
 1868TIP3    H2 5569   2.153   1.509   2.839 -1.3982  0.8864 -0.2201
 1869TIP3   OH2 5570   5.139   1.932   2.815  0.3952  0.2148  0.4399
 1869TIP3    H1 5571   5.178   1.990   2.881 -0.4286  1.4282 -0.0989
 1869TIP3    H2 5572   5.204   1.928   2.745  0.1370  1.1550  0.1311
 1870TIP3   OH2 5573   6.656   4.603   0.610  0.0338 -0.3044 -0.4341
 1870TIP3    H1 5574   6.574   4.616   0.563  2.0374  1.8105 -3.8022
 1870TIP3    H2 5575   6.698   4.530   0.566  0.1875 -1.0990  0.9832
 1871TIP3   OH2 5576   1.540   6.222   1.339 -0.0152 -0.1224 -0.0198
 1871TIP3    H1 5577   1.498   6.305   1.363  1.3246  0.4193  0.5139
 1871TIP3    H2 5578   1.469   6.157   1.345 -0.8123  0.7878  0.7365
 1872TIP3   OH2 5579   5.284   3.259   5.415  0.1744  0.0199 -0.1215
 1872TIP3    H1 5580   5.215   3.201   5.383 -0.8507 -0.8385  3.1703
 1872TIP3    H2 5581   5.249   3.347   5.402 -0.5685 -0.3174 -0.4647
 1873TIP3   OH2 5582   3.629   3.336   5.806 -0.1545  0.5124  0.0958
 1873TIP3    H1 5583   3.702   3.386   5.844 -0.1817  0.4505  0.2305
 1873TIP3    H2 5584   3.590   3.396   5.742 -1.2526  1.3214  1.4522
 1874TIP3   OH2 5585   7.153   2.845   3.010  0.3118 -0.6649  0.2790
 1874TIP3    H1 5586   7.179   2.809   3.095 -0.4347 -0.8364  0.4438
 1874TIP3    H2 5587   7.225   2.902   2.985  0.9264 -1.2682  0.6288
 1875TIP3   OH2 5588   6.392   5.365   0.113 -0.4042  0.3072 -0.1898
 1875TIP3    H1 5589   6.438   5.344   0.032  0.0128  1.1978 -0.1946
 1875TIP3    H2 5590   6.436   5.311   0.179 -1.0228 -0.7406 -0.6086
 1876TIP3   OH2 5591   3.495   4.716   4.581 -0.1225  0.2001 -0.4701
 1876TIP3    H1 5592   3.405   4.686   4.592 -0.5319  1.3180 -0.7321
 1876TIP3    H2 5593   3.548   4.642   4.610 -1.1172 -0.5397 -0.4894
 1877TIP3   OH2 5594   3.882   0.166   4.612 -0.0045  0.3240  0.4354
 1877TIP3    H1 5595   3.927   0.099   4.664 -1.8343 -0.6231  0.8800
 1877TIP3    H2 5596   3.795   0.172   4.651 -0.4943  1.6448 -0.7814
 1878TIP3   OH2 5597   4.508   3.866   5.673  0.6457 -0.0074  0.4413
 1878TIP3    H1 5598   4.489   3.960   5.674  0.5662 -0.0158  1.6398
 1878TIP3    H2 5599   4.427   3.825   5.704  0.1236 -0.6165 -1.5932
 1879TIP3   OH2 5600   1.869   3.215   5.737 -0.2231  0.0416 -0.5054
 1879TIP3    H1 5601   1.904   3.189   5.652 -0.3554  0.6576 -0.7534
 1879TIP3    H2 5602   1.945   3.214   5.795 -0.0527  0.0307 -0.7270
 1880TIP3   OH2 5603   1.827   2.588   5.138  0.1828 -0.0119 -0.4746
 1880TIP3    H1 5604   1.897   2.538   5.098 -0.4105 -1.1000 -0.1880
 1880TIP3    H2 5605   1.870   2.666   5.174  1.2128 -0.5893 -0.4364
 1881TIP3   OH2 5606   3.741   4.255   2.338 -0.3060 -0.6918  0.6998
 1881TIP3    H1 5607   3.708   4.249   2.248 -0.1378 -1.1458  0.6663
 1881TIP3    H2 5608   3.746   4.349   2.355  1.4178 -0.5429 -0.4057
 1882TIP3   OH2 5609   1.126   2.030   3.402 -0.0950  0.2208 -0.3373
 1882TIP3    H1 5610   1.078   2.007   3.322  0.9038 -1.2303 -0.5565
 1882TIP3    H2 5611   1.213   2.055   3.371 -0.0655  0.8339  0.2180
 1883TIP3   OH2 5612   4.888   1.719   5.176  0.1823 -0.0191  0.1950
 1883TIP3    H1 5613   4.876   1.814   5.186  0.5694  0.2024 -1.3342
 1883TIP3    H2 5614   4.973   1.709   5.133 -0.0947 -1.0420 -0.1427
 1884TIP3   OH2 5615   6.757   1.209   0.196 -0.2956 -0.2825  0.0131
 1884TIP3    H1 5616   6.713   1.125   0.183 -0.4749 -0.1554 -0.2000
 1884TIP3    H2 5617   6.847   1.194   0.167 -0.3016 -0.4299  0.0733
 1885TIP3   OH2 5618   3.430   1.040   3.407 -0.3164 -0.1484  0.1006
 1885TIP3    H1 5619   3.406   1.088   3.328 -0.2252 -0.8530 -0.3638
 1885TIP3    H2 5620   3.349   0.995   3.433 -1.1462  2.2445  2.0215
 1886TIP3   OH2 5621   1.458   4.954   5.569  0.1207  0.8094  0.0844
 1886TIP3    H1 5622   1.516   4.890   5.610 -0.4440  0.5327  0.4693
 1886TIP3    H2 5623   1.515   5.028   5.548  0.5641  0.6586  0.7102
 1887TIP3   OH2 5624   1.693   3.717   0.901 -1.0562  0.6922  0.1562
 1887TIP3    H1 5625   1.683   3.721   0.997  0.6510 -0.9370  0.4700
 1887TIP3    H2 5626   1.715   3.806   0.876 -1.3678  1.1136  1.3092
 1888TIP3   OH2 5627   6.427   1.695   3.314 -0.1643  0.8603 -0.0329
 1888TIP3    H1 5628   6.493   1.721   3.379 -0.0296  1.3579 -0.3580
 1888TIP3    H2 5629   6.346   1.687   3.363  0.3219 -0.7543  0.5630
 1889TIP3   OH2 5630   0.189   3.156   2.507  0.0238 -0.1195  0.3412
 1889TIP3    H1 5631   0.268   3.190   2.465 -0.6502  0.1459 -0.7390
 1889TIP3    H2 5632   0.182   3.066   2.475  1.0044 -0.8668  2.0653
 1890TIP3   OH2 5633   1.246   4.446   3.178  0.5861 -0.2286  0.0314
 1890TIP3    H1 5634   1.280   4.524   3.133  0.2671 -0.2660 -0.2730
 1890TIP3    H2 5635   1.151   4.459   3.180  0.6666  0.2564  1.5877
 1891TIP3   OH2 5636   1.427   2.811   3.409  0.4909 -0.1153  0.1952
 1891TIP3    H1 5637   1.383   2.896   3.418 -0.3845 -0.4987 -0.2821
 1891TIP3    H2 5638   1.472   2.798   3.493  1.3598  1.2000 -0.0410
 1892TIP3   OH2 5639   4.048   0.474   1.055 -0.1727 -0.1488  0.0543
 1892TIP3    H1 5640   4.024   0.496   1.146  0.3242  0.8279 -0.0440
 1892TIP3    H2 5641   4.136   0.509   1.044 -0.7143  0.8821 -1.2080
 1893TIP3   OH2 5642   1.395   3.990   5.115 -0.2542  0.0479  0.0409
 1893TIP3    H1 5643   1.378   3.970   5.023  0.8080  2.4213 -0.7436
 1893TIP3    H2 5644   1.437   3.910   5.149  0.5902 -0.4005 -1.9000
 1894TIP3   OH2 5645   2.709   5.049   1.305 -0.2542 -0.0422 -0.0905
 1894TIP3    H1 5646   2.704   5.142   1.326  0.8587  0.6698 -2.5922
 1894TIP3    H2 5647   2.800   5.025   1.323 -0.2118 -0.3065 -0.6374
 1895TIP3   OH2 5648   6.908   3.506   4.729 -0.2460  0.5786  0.0709
 1895TIP3    H1 5649   6.969   3.432   4.730 -0.4411  0.3685  2.3600
 1895TIP3    H2 5650   6.927   3.553   4.648  1.6372 -0.5486 -0.1828
 1896TIP3   OH2 5651   2.981   3.754   3.112  0.0103 -0.1062 -0.0159
 1896TIP3    H1 5652   3.077   3.746   3.112  0.1982  1.4509  1.6908
 1896TIP3    H2 5653   2.964   3.836   3.159 -2.1331  0.4105 -1.5433
 1897TIP3   OH2 5654   6.753   2.642   1.621 -0.3872 -0.0683  0.2366
 1897TIP3    H1 5655   6.824   2.586   1.652 -2.5593 -1.3180  3.5250
 1897TIP3    H2 5656   6.696   2.583   1.572  0.0273  0.5631 -1.0303
 1898TIP3   OH2 5657   3.879   6.227   2.975 -0.4019  0.3248  0.3191
 1898TIP3    H1 5658   3.856   6.265   3.060 -0.7777 -0.2952  0.4972
 1898TIP3    H2 5659   3.963   6.184   2.990 -0.3698  0.3875  0.3214
 1899TIP3   OH2 5660   2.471   6.130   1.485 -0.2324  0.1040  0.2131
 1899TIP3    H1 5661   2.417   6.157   1.410  1.2148  0.9270 -0.5692
 1899TIP3    H2 5662   2.412   6.137   1.560 -1.5224 -0.0678 -0.7361
 1900TIP3   OH2 5663   5.559   2.806   3.784 -0.0111  0.0972 -1.0773
 1900TIP3    H1 5664   5.563   2.875   3.717 -1.5182  2.2013  0.8219
 1900TIP3    H2 5665   5.622   2.833   3.850 -0.4107 -0.4947 -0.4358
 1901TIP3   OH2 5666   1.613   6.346   3.316  0.4484 -0.5048  0.0784
 1901TIP3    H1 5667   1.640   6.297   3.239  0.9734 -0.6098  0.3199
 1901TIP3    H2 5668   1.627   6.438   3.292  1.7215 -0.5773  0.4294
 1902TIP3   OH2 5669   3.548   0.989   2.839 -0.3788  0.7865  0.1520
 1902TIP3    H1 5670   3.467   0.959   2.798 -0.3343  0.6999  0.1287
 1902TIP3    H2 5671   3.558   0.935   2.917 -1.1878  1.8589  1.0369
 1903TIP3   OH2 5672   1.116   0.539   0.044  0.1314  0.1326  0.7262
 1903TIP3    H1 5673   1.118   0.613  -0.017  0.9114 -0.0664  0.5137
 1903TIP3    H2 5674   1.135   0.578   0.129 -1.0393  0.4239  0.8828
 1904TIP3   OH2 5675   4.855   0.185   5.103  0.6256 -0.4040 -0.2415
 1904TIP3    H1 5676   4.877   0.205   5.012 -1.0749 -0.3103 -0.6726
 1904TIP3    H2 5677   4.763   0.159   5.100  0.0648  1.1268  1.6493
 1905TIP3   OH2 5678   4.604   3.736   3.210  0.2729 -0.0096  0.1523
 1905TIP3    H1 5679   4.509   3.731   3.220  0.3840 -0.6789  1.0696
 1905TIP3    H2 5680   4.626   3.662   3.153  0.3247 -0.4073  0.6792
 1906TIP3   OH2 5681   2.667   6.444   3.892  0.2535  0.2415  0.6666
 1906TIP3    H1 5682   2.629   6.382   3.830  1.5274 -0.4195  0.5169
 1906TIP3    H2 5683   2.632   6.418   3.977  0.6661 -0.5911  0.5835
 1907TIP3   OH2 5684   2.252   3.962   0.172  0.6778 -0.9980  0.0793
 1907TIP3    H1 5685   2.221   4.043   0.211  2.4299 -0.4732  0.4569
 1907TIP3    H2 5686   2.325   3.989   0.116  0.1522 -2.1095 -1.1944
 1908TIP3   OH2 5687   6.697   2.916   4.487 -0.2165  0.3915  0.1487
 1908TIP3    H1 5688   6.675   2.905   4.579 -2.5740 -0.0062 -0.3941
 1908TIP3    H2 5689   6.745   2.998   4.482 -0.0661  0.4119  1.7208
 1909TIP3   OH2 5690   6.323   4.856   1.492 -0.5962  0.6046  0.2426
 1909TIP3    H1 5691   6.338   4.854   1.586 -1.8539 -0.5554  0.4385
 1909TIP3    H2 5692   6.242   4.808   1.479  0.9956 -1.7950 -1.7130
 1910TIP3   OH2 5693   4.291   2.993   5.007 -0.2441 -0.3492 -0.0758
 1910TIP3    H1 5694   4.322   2.909   5.043 -2.0177 -1.1764 -0.3911
 1910TIP3    H2 5695   4.314   2.989   4.914 -1.1006 -0.8985 -0.2786
 1911TIP3   OH2 5696   7.213   0.481   0.977 -0.8154  0.4921  0.1547
 1911TIP3    H1 5697   7.145   0.474   1.044  1.2243 -0.8926  2.1854
 1911TIP3    H2 5698   7.281   0.420   1.004 -0.4369 -1.2714 -3.9675
 1912TIP3   OH2 5699   6.120   1.241   4.052  0.0584 -0.4515 -0.3178
 1912TIP3    H1 5700   6.075   1.178   3.996  0.8178 -3.1627  1.9298
 1912TIP3    H2 5701   6.147   1.311   3.992 -1.2661 -1.9803 -2.8686
 1913TIP3   OH2 5702   3.134   5.830   4.234  0.6404 -0.0426  0.1851
 1913TIP3    H1 5703   3.138   5.894   4.304  1.0905 -0.7123  0.7887
 1913TIP3    H2 5704   3.225   5.810   4.213  0.6521  2.3578 -2.7193
 1914TIP3   OH2 5705   2.699   6.205   4.696  0.0036  0.3839  0.7603
 1914TIP3    H1 5706   2.656   6.241   4.619 -2.2923  2.2799  2.7455
 1914TIP3    H2 5707   2.680   6.111   4.693  0.0976  0.3971 -1.0089
 1915TIP3   OH2 5708   3.385   2.560   3.166  0.5144  0.7137 -0.3936
 1915TIP3    H1 5709   3.301   2.545   3.121  0.2200 -0.9597  0.6572
 1915TIP3    H2 5710   3.364   2.624   3.234  0.2039  0.6601 -0.4352
 1916TIP3   OH2 5711   3.337   0.089   0.921 -0.1478 -0.1922 -0.0195
 1916TIP3    H1 5712   3.244   0.105   0.940  0.3485  0.0957  2.6299
 1916TIP3    H2 5713   3.379   0.174   0.934  0.3247  0.1207 -3.0152
 1917TIP3   OH2 5714   2.951   4.616   5.367 -0.0481 -0.2538 -0.1270
 1917TIP3    H1 5715   3.013   4.654   5.305  0.2753 -0.0879  0.2954
 1917TIP3    H2 5716   2.991   4.534   5.395  1.4559  1.1784  2.3778
 1918TIP3   OH2 5717   1.468   4.571   2.184  0.1012 -0.0775  0.2982
 1918TIP3    H1 5718   1.470   4.475   2.180  0.9015 -0.0418 -0.3179
 1918TIP3    H2 5719   1.384   4.594   2.144  1.1542 -0.4246 -2.3246
 1919TIP3   OH2 5720   6.019   0.985   1.847 -0.3181 -0.5868  0.1185
 1919TIP3    H1 5721   6.044   0.904   1.891  0.4118 -0.3453  0.1570
 1919TIP3    H2 5722   6.093   1.044   1.859 -1.5488  0.7488  1.6895
 1920TIP3   OH2 5723   4.018   4.419   5.843  0.0381  0.0136  0.0235
 1920TIP3    H1 5724   4.042   4.329   5.863 -0.6482 -0.3025 -0.5168
 1920TIP3    H2 5725   3.927   4.413   5.813  0.2156  0.7917 -0.7004
 1921TIP3   OH2 5726   5.055   0.295   1.799 -0.7199 -0.5334 -0.4589
 1921TIP3    H1 5727   5.015   0.211   1.820 -1.7087  0.5329  2.4526
 1921TIP3    H2 5728   5.137   0.273   1.754 -1.1207 -3.0201 -0.0726
 1922TIP3   OH2 5729   1.652   4.751   2.131  0.1220 -0.4951  0.3375
 1922TIP3    H1 5730   1.605   4.670   2.151  0.8989 -1.0069  0.1418
 1922TIP3    H2 5731   1.699   4.772   2.212 -0.2670 -0.1074  0.4633
 1923TIP3   OH2 5732   2.662   3.495   4.233 -0.2707 -0.5612 -0.3950
 1923TIP3    H1 5733   2.591   3.431   4.238 -0.3990 -0.3782  0.1262
 1923TIP3    H2 5734   2.690   3.492   4.141 -0.6342 -0.9752 -0.4954
 1924TIP3   OH2 5735   2.199   5.518   4.320 -0.7608  0.3805 -0.3705
 1924TIP3    H1 5736   2.214   5.548   4.409  1.0495 -0.3653 -0.3756
 1924TIP3    H2 5737   2.283   5.481   4.293 -1.5064 -0.1551 -2.0949
 1925TIP3   OH2 5738   2.417   2.991   2.182 -0.0028  0.3101 -0.6388
 1925TIP3    H1 5739   2.401   2.916   2.125  0.6234 -1.0141  0.8621
 1925TIP3    H2 5740   2.483   3.042   2.134  0.4098 -0.6894 -1.1795
 1926TIP3   OH2 5741   5.333   4.866   4.211 -0.7281 -0.1694 -0.1741
 1926TIP3    H1 5742   5.251   4.908   4.236  0.4100  1.5843  0.7720
 1926TIP3    H2 5743   5.401   4.922   4.247  0.9334 -0.9335 -1.9665
 1927TIP3   OH2 5744   5.923   6.763   4.171  0.4153 -0.2884  0.4663
 1927TIP3    H1 5745   6.008   6.731   4.203  0.7548 -0.0412 -0.1556
 1927TIP3    H2 5746   5.868   6.766   4.249  0.6936 -1.3428  0.7223
 1928TIP3   OH2 5747   3.250   6.791   1.799 -0.4681  0.6701  0.0973
 1928TIP3    H1 5748   3.267   6.875   1.756 -3.5607  1.8811  1.0023
 1928TIP3    H2 5749   3.320   6.734   1.768  1.1245  3.2526 -1.4210
 1929TIP3   OH2 5750   4.030   3.546   3.474 -0.0017 -0.3703 -0.2496
 1929TIP3    H1 5751   4.107   3.510   3.518  2.0309  0.6049 -2.7198
 1929TIP3    H2 5752   4.034   3.640   3.493 -0.4057 -0.2649 -0.6778
 1930TIP3   OH2 5753   5.245   2.322   3.445  0.2388 -0.0193 -0.9006
 1930TIP3    H1 5754   5.211   2.404   3.409 -0.3007  0.1856  0.0415
 1930TIP3    H2 5755   5.170   2.281   3.487  0.7471 -0.4601 -0.4021
 1931TIP3   OH2 5756   2.005   3.967   4.295 -0.5151  0.2343  0.4199
 1931TIP3    H1 5757   1.913   3.984   4.315 -0.9786  1.4890 -2.3448
 1931TIP3    H2 5758   2.029   4.036   4.233  2.7044  0.7538  2.0398
 1932TIP3   OH2 5759   4.722   4.514   2.235 -0.0245  0.3475 -0.8338
 1932TIP3    H1 5760   4.644   4.489   2.185 -1.9188  2.3318  0.9411
 1932TIP3    H2 5761   4.741   4.604   2.206  0.0562  0.7865  0.5074
 1933TIP3   OH2 5762   2.311   1.799   3.470 -0.0472 -0.0344  0.1311
 1933TIP3    H1 5763   2.325   1.891   3.446  0.8022 -0.1082  0.3141
 1933TIP3    H2 5764   2.301   1.754   3.386  1.6562 -0.0935 -0.0760
 1934TIP3   OH2 5765   3.598   4.478   4.325 -0.4010 -0.4697  0.0894
 1934TIP3    H1 5766   3.554   4.555   4.288  0.7370  0.8106  1.2652
 1934TIP3    H2 5767   3.542   4.451   4.397 -1.5463 -1.6839 -1.1977
 1935TIP3   OH2 5768   2.919   0.220   5.851 -0.0928  0.6721 -0.4326
 1935TIP3    H1 5769   2.882   0.280   5.915  2.1377  1.0936  0.5580
 1935TIP3    H2 5770   3.014   0.231   5.860  0.4707 -3.2171  0.0630
 1936TIP3   OH2 5771   6.067   6.345   1.540 -0.1330 -0.9614 -0.1342
 1936TIP3    H1 5772   6.080   6.255   1.569 -0.9258 -1.0199  0.0576
 1936TIP3    H2 5773   6.082   6.342   1.445  1.9068 -0.8760  0.1522
 1937TIP3   OH2 5774   1.779   5.768   3.314 -0.2807  0.0025  0.0786
 1937TIP3    H1 5775   1.771   5.738   3.405 -0.8144  0.4708  0.2010
 1937TIP3    H2 5776   1.871   5.758   3.293 -0.1639 -0.1849  0.6544
 1938TIP3   OH2 5777   0.650   4.204   5.416  0.5092 -0.4017 -0.3498
 1938TIP3    H1 5778   0.735   4.163   5.401 -0.1726 -1.3651 -1.8939
 1938TIP3    H2 5779   0.638   4.263   5.341 -0.2892 -0.5118 -0.3206
 1939TIP3   OH2 5780   6.491   5.325   2.696  0.2028  0.4404 -0.2872
 1939TIP3    H1 5781   6.524   5.394   2.754  0.2436  0.5295 -0.4154
 1939TIP3    H2 5782   6.497   5.363   2.608  0.8419  0.0383 -0.4288
 1940TIP3   OH2 5783   6.431   6.781   1.803 -0.0759 -0.2520  0.1965
 1940TIP3    H1 5784   6.401   6.702   1.847 -1.1487 -0.1727 -0.3636
 1940TIP3    H2 5785   6.351   6.829   1.780  0.5207  0.6308 -0.1420
 1941TIP3   OH2 5786   0.038   6.319   2.460 -0.3684 -0.1582  0.4193
 1941TIP3    H1 5787   0.054   6.307   2.554 -1.1608 -1.4791  0.4095
 1941TIP3    H2 5788   0.013   6.232   2.428  1.8082 -0.1931 -1.4395
 1942TIP3   OH2 5789   1.105   4.815   1.433 -0.4119  0.0169  0.1931
 1942TIP3    H1 5790   1.177   4.845   1.377  0.9455 -1.8835  0.8290
 1942TIP3    H2 5791   1.089   4.725   1.406 -2.6759  0.4113  0.0077
 1943TIP3   OH2 5792   4.352   4.524   2.960 -0.1958  0.2533 -0.0212
 1943TIP3    H1 5793   4.355   4.440   3.004 -0.1291 -0.9629 -2.2065
 1943TIP3    H2 5794   4.435   4.529   2.912 -0.4663  1.2941 -0.4158
 1944TIP3   OH2 5795   7.148   3.820   4.290 -0.1957 -0.0041 -0.0672
 1944TIP3    H1 5796   7.174   3.830   4.382  0.2942 -0.2010 -0.1836
 1944TIP3    H2 5797   7.136   3.910   4.259 -0.7400  0.0499  0.2974
 1945TIP3   OH2 5798   6.177   0.916   0.959  0.0255  0.1060  0.0230
 1945TIP3    H1 5799   6.238   0.851   0.995  0.7261  0.9489  0.4210
 1945TIP3    H2 5800   6.152   0.882   0.874 -0.6309 -1.3022  0.7468
 1946TIP3   OH2 5801   3.374   4.328   4.466  0.8730 -0.4250  0.3786
 1946TIP3    H1 5802   3.307   4.305   4.530  0.4476 -1.3407 -0.3842
 1946TIP3    H2 5803   3.437   4.257   4.470  1.7870  0.3851  1.0249
 1947TIP3   OH2 5804  -0.013   5.874   2.793  0.9924  0.5300 -0.6507
 1947TIP3    H1 5805   0.019   5.877   2.702  0.9569 -1.9529 -0.8135
 1947TIP3    H2 5806   0.066   5.858   2.845  0.6903 -0.7719 -0.5596
 1948TIP3   OH2 5807   3.501   5.797   1.052 -0.7102 -0.2492 -0.8087
 1948TIP3    H1 5808   3.527   5.747   0.974 -3.7187 -3.0822 -0.2359
 1948TIP3    H2 5809   3.482   5.730   1.117  0.5499  1.9895  2.0615
 1949TIP3   OH2 5810   6.444   4.525   1.568  0.7824  0.4924 -0.3280
 1949TIP3    H1 5811   6.396   4.504   1.648  1.6063 -1.3340 -0.2604
 1949TIP3    H2 5812   6.506   4.453   1.558  2.4677  1.9951 -1.2279
 1950TIP3   OH2 5813   2.584   5.426   4.690  0.2066  0.0662 -0.1270
 1950TIP3    H1 5814   2.629   5.452   4.770  1.9058  1.2001 -1.3772
 1950TIP3    H2 5815   2.654   5.397   4.631 -0.9036 -0.0039 -1.4667
 1951TIP3   OH2 5816   1.084   6.006   5.515 -0.2895  0.4679  0.1847
 1951TIP3    H1 5817   1.102   6.052   5.596  0.8636 -0.4064  0.4611
 1951TIP3    H2 5818   1.052   6.073   5.455 -0.0196  1.3414  1.0031
 1952TIP3   OH2 5819   6.532   5.002   4.784 -0.3337  0.5255 -0.3397
 1952TIP3    H1 5820   6.620   4.965   4.784  0.0676  1.4391  0.1750
 1952TIP3    H2 5821   6.481   4.945   4.841 -0.0574  0.0325 -0.5857
 1953TIP3   OH2 5822   1.151   6.502   4.290 -0.1093 -0.0994  0.9693
 1953TIP3    H1 5823   1.230   6.550   4.261 -2.3198  2.2154 -1.8661
 1953TIP3    H2 5824   1.181   6.412   4.301  3.4547  1.0862  2.6740
 1954TIP3   OH2 5825   6.729   4.540   2.059 -0.0736  0.2107 -0.7756
 1954TIP3    H1 5826   6.650   4.557   2.007 -1.1815  1.6476  1.2440
 1954TIP3    H2 5827   6.801   4.567   2.002 -1.1905  1.0767 -1.8367
 1955TIP3   OH2 5828   0.232   1.827   1.086  0.1483  0.1625  0.5426
 1955TIP3    H1 5829   0.251   1.916   1.056  0.8694 -0.3679 -0.6452
 1955TIP3    H2 5830   0.196   1.839   1.174 -1.5964  1.7426 -0.3056
 1956TIP3   OH2 5831   6.130   4.293   1.886 -0.0164 -0.3367  0.0864
 1956TIP3    H1 5832   6.194   4.351   1.926 -0.3904 -0.5323  0.9769
 1956TIP3    H2 5833   6.066   4.352   1.846  2.1142 -0.0494 -3.3080
 1957TIP3   OH2 5834   1.056   0.281   5.689  0.2480 -0.0520  0.6470
 1957TIP3    H1 5835   1.096   0.368   5.687  0.3604 -0.1099 -1.0224
 1957TIP3    H2 5836   1.069   0.250   5.779  0.2868  1.6092  1.2450
 1958TIP3   OH2 5837   0.580   4.925   2.284 -0.4625  0.1163 -0.0270
 1958TIP3    H1 5838   0.574   5.017   2.260 -3.6268  0.1190  0.4497
 1958TIP3    H2 5839   0.502   4.884   2.246 -0.8546 -1.7089  2.4875
 1959TIP3   OH2 5840   2.332   2.335   0.664  0.0182 -0.1116 -0.4362
 1959TIP3    H1 5841   2.399   2.330   0.732 -0.5437 -0.0454  0.1256
 1959TIP3    H2 5842   2.249   2.324   0.710 -0.3125 -1.3420 -1.2602
 1960TIP3   OH2 5843   6.670   5.805   0.019 -0.5280 -0.1998  0.8115
 1960TIP3    H1 5844   6.678   5.891  -0.022 -1.5425 -0.5925 -0.2642
 1960TIP3    H2 5845   6.755   5.764   0.006 -0.6746 -0.1305 -0.4994
 1961TIP3   OH2 5846   4.406   5.978   3.312 -0.2549 -0.3196 -0.3181
 1961TIP3    H1 5847   4.373   5.974   3.223 -0.2837  1.2286 -0.4019
 1961TIP3    H2 5848   4.461   6.057   3.315  1.1655 -1.2818  0.5735
 1962TIP3   OH2 5849   3.077   6.550   5.217  0.0628 -0.1436 -0.0223
 1962TIP3    H1 5850   3.017   6.586   5.151 -0.0568 -0.8984 -0.3310
 1962TIP3    H2 5851   3.076   6.456   5.202 -1.4544 -0.5762  2.2789
 1963TIP3   OH2 5852   5.065   1.965   0.049  0.6906  0.1730  0.0828
 1963TIP3    H1 5853   5.105   2.040   0.093  2.3472 -2.9359  4.7266
 1963TIP3    H2 5854   4.971   1.980   0.057  0.9649  1.9660  0.3735
 1964TIP3   OH2 5855   6.677   3.280   1.983 -0.0792 -0.1880 -0.7888
 1964TIP3    H1 5856   6.615   3.350   2.004  0.6036  0.1535  0.1223
 1964TIP3    H2 5857   6.695   3.238   2.067  0.1060 -0.9672 -1.2130
 1965TIP3   OH2 5858   5.349   1.325   4.065  0.3138  0.4802 -0.0399
 1965TIP3    H1 5859   5.307   1.255   4.014  0.7524 -0.3181  0.6580
 1965TIP3    H2 5860   5.392   1.279   4.137 -1.3231  1.6441  1.7967
 1966TIP3   OH2 5861   5.075   1.981   3.406  0.7306  0.0113 -0.0275
 1966TIP3    H1 5862   5.013   2.009   3.473 -0.7743 -1.4012 -0.7721
 1966TIP3    H2 5863   5.136   1.924   3.452  2.5668  2.6559  1.0580
 1967TIP3   OH2 5864   4.304   0.937   4.417 -0.1758 -0.2901 -0.5046
 1967TIP3    H1 5865   4.350   0.888   4.349  0.4492  1.5877 -1.5078
 1967TIP3    H2 5866   4.355   1.017   4.427 -1.0713  0.1094  1.1756
 1968TIP3   OH2 5867   7.179   3.710   2.703  0.2231 -0.6654  1.1949
 1968TIP3    H1 5868   7.230   3.647   2.652  0.1894  2.0146 -2.5478
 1968TIP3    H2 5869   7.106   3.660   2.738  2.0000 -3.3222  1.3866
 1969TIP3   OH2 5870   1.034   0.819   4.525  0.0289 -0.1426 -0.3128
 1969TIP3    H1 5871   1.011   0.737   4.570  0.0091 -0.3244 -0.6563
 1969TIP3    H2 5872   0.989   0.814   4.441 -0.2355  0.3678 -0.2099
 1970TIP3   OH2 5873   6.861   2.173   3.108  0.0418  0.4500  0.5081
 1970TIP3    H1 5874   6.791   2.140   3.164  0.9128  0.0651  1.4062
 1970TIP3    H2 5875   6.901   2.094   3.071  0.3397  0.6370  0.4302
 1971TIP3   OH2 5876   5.057   5.358   3.728 -0.4419  0.1582 -0.0691
 1971TIP3    H1 5877   5.013   5.443   3.724  1.4686  1.3436  1.8222
 1971TIP3    H2 5878   5.087   5.351   3.818  0.6982 -1.8931 -0.5470
 1972TIP3   OH2 5879   3.230   5.286   3.279 -0.1926 -0.2466 -0.4477
 1972TIP3    H1 5880   3.163   5.298   3.212 -1.4030  2.2606  1.0568
 1972TIP3    H2 5881   3.269   5.373   3.290  1.6324 -1.1178  0.4615
 1973TIP3   OH2 5882   6.814   6.167   3.926 -0.3213  0.2226 -0.6160
 1973TIP3    H1 5883   6.738   6.117   3.957 -0.2445  1.4260  1.7367
 1973TIP3    H2 5884   6.780   6.255   3.911  0.0968  0.1443 -2.1564
 1974TIP3   OH2 5885   6.200   3.672   0.638  1.0235  0.1748 -0.2731
 1974TIP3    H1 5886   6.220   3.645   0.728  2.7915  1.3609 -0.2589
 1974TIP3    H2 5887   6.171   3.591   0.595 -1.3693 -0.1334  1.6932
 1975TIP3   OH2 5888   0.162   5.595   2.216 -0.2171  0.2178  0.1500
 1975TIP3    H1 5889   0.229   5.528   2.208  1.0918  1.3252  1.3367
 1975TIP3    H2 5890   0.104   5.581   2.141  1.7376 -0.3291 -1.3206
 1976TIP3   OH2 5891   3.711   3.644   4.058  0.1309  0.1660  0.4346
 1976TIP3    H1 5892   3.706   3.549   4.072 -0.8121  0.0147 -0.7583
 1976TIP3    H2 5893   3.704   3.654   3.963 -1.4379  1.5215  0.6542
 1977TIP3   OH2 5894   4.761   5.182   1.566 -0.0826  0.3709  0.1739
 1977TIP3    H1 5895   4.685   5.125   1.580  0.5627 -0.3759  0.7266
 1977TIP3    H2 5896   4.754   5.210   1.475 -0.4962 -0.4897 -0.0696
 1978TIP3   OH2 5897   1.478   1.508   2.226 -0.2096 -0.4185  0.3188
 1978TIP3    H1 5898   1.454   1.456   2.303 -0.8362 -1.1732 -0.3718
 1978TIP3    H2 5899   1.549   1.565   2.258 -0.1919 -0.9797  1.3541
 1979TIP3   OH2 5900   7.053   6.191   3.804  0.3937  0.7527 -0.3450
 1979TIP3    H1 5901   7.125   6.227   3.855  0.5306 -0.5886  0.4635
 1979TIP3    H2 5902   6.975   6.209   3.855  0.1884  1.7957 -0.9978
 1980TIP3   OH2 5903   5.725   0.839   4.329  0.2168 -0.6706 -0.4732
 1980TIP3    H1 5904   5.691   0.774   4.390  0.7324 -0.0870  0.4723
 1980TIP3    H2 5905   5.703   0.806   4.242 -3.1667 -0.0900  0.0490
 1981TIP3   OH2 5906   3.111   0.943   0.307 -0.0533  0.0241  0.4364
 1981TIP3    H1 5907   3.056   0.920   0.232  0.9904 -0.1633 -0.3105
 1981TIP3    H2 5908   3.071   1.022   0.343 -0.8148 -0.1201 -0.0679
 1982TIP3   OH2 5909   6.021   5.299   1.029 -1.3446  0.3591 -0.3348
 1982TIP3    H1 5910   6.025   5.308   1.124  1.2307 -0.0589 -0.3354
 1982TIP3    H2 5911   6.027   5.388   0.996  1.0440  0.3531 -0.0820
 1983TIP3   OH2 5912   1.907   5.287   0.967  0.2672  0.0021  0.4130
 1983TIP3    H1 5913   1.908   5.201   0.926  2.0893  0.0434  0.2730
 1983TIP3    H2 5914   1.984   5.287   1.025 -0.0291  1.3187  0.8459
 1984TIP3   OH2 5915   2.083   3.523   0.081 -0.7542 -0.2420 -0.0557
 1984TIP3    H1 5916   2.168   3.539   0.122 -1.3590  0.1583  1.1073
 1984TIP3    H2 5917   2.048   3.611   0.066  0.4334 -0.2259 -3.7580
 1985TIP3   OH2 5918   4.694   6.062   1.669  0.2478 -0.2476 -0.0137
 1985TIP3    H1 5919   4.717   5.974   1.639 -1.0584 -0.8816  0.7423
 1985TIP3    H2 5920   4.759   6.083   1.735  0.1528 -0.9632  0.3141
 1986TIP3   OH2 5921   6.658   3.814   2.367  0.0945  0.4907  0.2372
 1986TIP3    H1 5922   6.700   3.812   2.453  1.7358  0.2135 -0.5286
 1986TIP3    H2 5923   6.725   3.848   2.308 -1.1423  1.1178 -0.8819
 1987TIP3   OH2 5924   3.849   2.395   5.619 -0.3319  0.4014 -0.5289
 1987TIP3    H1 5925   3.807   2.464   5.670  0.8081 -0.5606  1.9050
 1987TIP3    H2 5926   3.942   2.403   5.640  0.0599 -0.6757 -1.7301
 1988TIP3   OH2 5927   0.590   2.303   5.398  0.2355  0.1509 -0.3232
 1988TIP3    H1 5928   0.667   2.247   5.412  0.0551 -0.1790 -0.6147
 1988TIP3    H2 5929   0.515   2.244   5.410  0.0442  0.2792 -0.8234
 1989TIP3   OH2 5930   0.675   1.153   3.283  0.1191  0.5203 -0.6938
 1989TIP3    H1 5931   0.718   1.239   3.288 -0.6570  0.9416 -0.9964
 1989TIP3    H2 5932   0.747   1.091   3.275  0.6798  1.1944 -1.0526
 1990TIP3   OH2 5933   1.565   5.437   3.558  1.0686 -0.6346 -0.0364
 1990TIP3    H1 5934   1.552   5.455   3.465 -0.6494 -1.1903  0.0545
 1990TIP3    H2 5935   1.501   5.492   3.602  1.5007 -0.7768  0.7921
 1991TIP3   OH2 5936   2.370   5.646  -0.025  0.5331  0.2570 -0.0976
 1991TIP3    H1 5937   2.327   5.572   0.016 -2.0069  0.6402 -1.8212
 1991TIP3    H2 5938   2.359   5.718   0.037  2.5667 -0.5677  1.3525
 1992TIP3   OH2 5939   6.241   5.969   1.352 -0.4123 -0.5066 -0.3556
 1992TIP3    H1 5940   6.148   5.986   1.362 -0.6480 -2.2597  0.8895
 1992TIP3    H2 5941   6.282   6.056   1.358 -1.8352  0.1134  1.0812
 1993TIP3   OH2 5942   4.676   4.656   1.381 -0.8057 -0.2916 -0.0570
 1993TIP3    H1 5943   4.599   4.613   1.344 -0.1499 -1.7188  0.1599
 1993TIP3    H2 5944   4.686   4.736   1.330 -2.4425 -0.0655 -0.0607
 1994TIP3   OH2 5945   4.359   2.663   4.570 -0.4988 -0.5549  0.1776
 1994TIP3    H1 5946   4.417   2.606   4.620 -1.3099 -1.6173 -0.0618
 1994TIP3    H2 5947   4.412   2.693   4.496 -0.5884 -2.4846 -0.7107
 1995TIP3   OH2 5948   1.641   0.339   1.950  0.7104  0.0708  0.1043
 1995TIP3    H1 5949   1.706   0.355   2.019  1.2144  1.4645 -0.6466
 1995TIP3    H2 5950   1.606   0.426   1.930 -0.9073 -0.5842  0.0089
 1996TIP3   OH2 5951   5.085  -0.007   0.791  0.1379  0.0944 -0.0938
 1996TIP3    H1 5952   5.035   0.064   0.749 -1.8329 -0.3131  1.3739
 1996TIP3    H2 5953   5.126   0.035   0.866  1.1358  0.1899 -0.6777
 1997TIP3   OH2 5954   4.664   0.641   5.413 -0.4973 -0.3109 -0.6133
 1997TIP3    H1 5955   4.723   0.621   5.340 -0.3610 -0.9079 -0.3471
 1997TIP3    H2 5956   4.710   0.708   5.464  0.8074 -2.0266  0.5916
 1998TIP3   OH2 5957   5.587   0.104   3.172 -0.5826  0.2135  0.2958
 1998TIP3    H1 5958   5.549   0.030   3.219 -1.0658  0.4417  0.2774
 1998TIP3    H2 5959   5.671   0.072   3.140 -1.4999 -0.8784 -1.1431
 1999TIP3   OH2 5960   2.841   4.772   0.294 -0.1256  0.0317  0.8857
 1999TIP3    H1 5961   2.919   4.717   0.291 -0.6570 -0.7287  0.7243
 1999TIP3    H2 5962   2.808   4.773   0.204 -0.4817  0.0716  1.0121
 2000TIP3   OH2 5963   3.721   4.875   0.532 -0.4291  0.4748  0.1285
 2000TIP3    H1 5964   3.810   4.909   0.540 -0.2699 -0.0537  0.6655
 2000TIP3    H2 5965   3.699   4.885   0.439  1.1461 -1.6877 -0.5534
 2001TIP3   OH2 5966   1.818   3.867   3.101  0.1861 -0.0035 -0.6869
 2001TIP3    H1 5967   1.844   3.949   3.059 -0.4921  1.1592  1.0803
 2001TIP3    H2 5968   1.739   3.889   3.150  0.9766 -1.2631  1.2619
 2002TIP3   OH2 5969   3.030   1.667   3.677 -0.3703  0.2148  0.4646
 2002TIP3    H1 5970   3.024   1.726   3.601  2.4338 -0.1084 -0.1253
 2002TIP3    H2 5971   3.119   1.632   3.673 -0.2907 -0.2407  3.6295
 2003TIP3   OH2 5972   7.098   4.582   1.479  0.3431 -0.3799 -0.2501
 2003TIP3    H1 5973   7.086   4.663   1.528  0.9695  0.0807 -0.8315
 2003TIP3    H2 5974   7.049   4.516   1.528 -2.3989  0.8539 -1.1544
 2004TIP3   OH2 5975   3.012   6.651   1.685 -0.1186  0.4060 -0.3524
 2004TIP3    H1 5976   3.082   6.713   1.709  1.3706 -1.4290  0.2921
 2004TIP3    H2 5977   3.012   6.587   1.756 -2.4109  0.2530 -0.4173
 2005TIP3   OH2 5978   4.000   6.532   0.589 -0.0586 -0.1708  0.4454
 2005TIP3    H1 5979   4.027   6.451   0.546  2.1076  0.2512  0.9186
 2005TIP3    H2 5980   4.076   6.589   0.583 -1.4234  1.7451  0.4136
 2006TIP3   OH2 5981   6.191   4.239   1.138  0.4489  0.1855 -0.1799
 2006TIP3    H1 5982   6.124   4.294   1.096 -1.2113 -1.5406  0.0560
 2006TIP3    H2 5983   6.230   4.295   1.204 -1.2532  1.0732  0.1343
 2007TIP3   OH2 5984   6.085   4.708   1.057  0.4229 -0.0193 -0.4245
 2007TIP3    H1 5985   6.035   4.683   0.979 -1.4577  1.8126  0.1008
 2007TIP3    H2 5986   6.069   4.637   1.120 -1.8507  0.6252 -0.1757
 2008TIP3   OH2 5987   7.018   1.320   5.785 -0.4158  0.0817  0.1198
 2008TIP3    H1 5988   6.954   1.388   5.806 -0.3770  0.2553 -0.3320
 2008TIP3    H2 5989   6.965   1.241   5.775 -0.7460  0.4736 -1.6070
 2009TIP3   OH2 5990   1.772   3.452   5.661 -0.3976  0.0677 -0.0317
 2009TIP3    H1 5991   1.778   3.501   5.744  0.3926 -0.0093 -0.0283
 2009TIP3    H2 5992   1.804   3.365   5.683 -0.0181  0.0962 -0.4493
 2010TIP3   OH2 5993   1.817   6.304   3.065  0.2287  0.6948 -0.4944
 2010TIP3    H1 5994   1.891   6.273   3.013 -1.9490 -2.3161 -2.0277
 2010TIP3    H2 5995   1.763   6.353   3.003  0.5700  2.3835  0.4809
 2011TIP3   OH2 5996   6.876   1.744   1.880 -0.2055 -0.6079  0.1859
 2011TIP3    H1 5997   6.948   1.734   1.943  0.8532  0.9506 -0.7092
 2011TIP3    H2 5998   6.819   1.810   1.920 -0.3383 -0.7267  0.1936
 2012TIP3   OH2 5999   6.913   3.527   0.066 -0.1521 -0.1705  0.0606
 2012TIP3    H1 6000   6.839   3.487   0.021 -0.3077 -0.8451  0.8740
 2012TIP3    H2 6001   6.901   3.621   0.055 -0.2202 -0.3154 -1.2203
 2013TIP3   OH2 6002   3.280   0.733   1.630 -0.1520  0.2499  0.3788
 2013TIP3    H1 6003   3.209   0.678   1.595  0.0736  0.3178 -0.2010
 2013TIP3    H2 6004   3.325   0.676   1.692 -0.7027  0.2000  0.7435
 2014TIP3   OH2 6005   6.906   3.957   2.803  0.5800  0.1708 -0.6255
 2014TIP3    H1 6006   6.989   3.992   2.770 -0.0327  1.2499 -1.0817
 2014TIP3    H2 6007   6.855   4.035   2.825 -0.7903 -0.4284 -1.5638
 2015TIP3   OH2 6008   6.481   1.750   3.912 -0.3204 -0.0280 -0.0821
 2015TIP3    H1 6009   6.504   1.715   3.826  0.2772 -0.1144  0.1109
 2015TIP3    H2 6010   6.526   1.834   3.917 -2.1909  1.0685 -0.7632
 2016TIP3   OH2 6011   4.627   2.487   4.536  0.6613  0.7942  0.0721
 2016TIP3    H1 6012   4.651   2.463   4.446  0.7356  0.7484  0.1045
 2016TIP3    H2 6013   4.554   2.427   4.557  2.3479 -1.0501  0.9974
 2017TIP3   OH2 6014   3.696   5.705   0.230 -0.0195 -0.1977 -0.4745
 2017TIP3    H1 6015   3.641   5.767   0.181 -2.3981 -1.6570  0.1715
 2017TIP3    H2 6016   3.643   5.626   0.237  2.1925 -1.7069  0.2978
 2018TIP3   OH2 6017   1.459   6.234   2.998  0.0538  0.0059 -0.4110
 2018TIP3    H1 6018   1.389   6.171   2.983  0.7377 -1.1244  0.9379
 2018TIP3    H2 6019   1.539   6.188   2.973  0.4455  0.8340 -0.7219
 2019TIP3   OH2 6020   3.779   1.147   3.189  0.0246  0.1810 -0.2587
 2019TIP3    H1 6021   3.831   1.215   3.232  0.9668 -0.3814 -0.4960
 2019TIP3    H2 6022   3.768   1.177   3.099 -1.4348  1.0641  0.1769
 2020TIP3   OH2 6023   3.192   2.222   3.190 -0.1033  0.1775 -0.2119
 2020TIP3    H1 6024   3.115   2.199   3.139 -1.5354  2.6714  0.6805
 2020TIP3    H2 6025   3.244   2.277   3.131 -0.9518  1.7028  0.4325
 2021TIP3   OH2 6026   0.087   2.471   2.093  0.9007 -0.0552 -0.2643
 2021TIP3    H1 6027   0.079   2.383   2.056  0.6549  0.3675 -1.2480
 2021TIP3    H2 6028   0.035   2.468   2.174  0.0246 -0.5288 -0.8222
 2022TIP3   OH2 6029   5.994   2.789   0.981 -0.1567 -0.0855 -0.4659
 2022TIP3    H1 6030   5.954   2.810   1.066  1.3642 -0.3496  0.3556
 2022TIP3    H2 6031   6.027   2.700   0.992  0.4558  0.0461 -1.1804
 2023TIP3   OH2 6032   2.655   0.468   3.984 -0.0984 -0.0275 -0.4069
 2023TIP3    H1 6033   2.569   0.461   3.942 -0.5969  1.4837  0.2792
 2023TIP3    H2 6034   2.696   0.383   3.968 -1.8038 -0.8890 -0.5538
 2024TIP3   OH2 6035   2.922   1.852   3.192  0.2463 -0.4315 -0.5831
 2024TIP3    H1 6036   2.847   1.854   3.133  0.0234  1.9712 -0.3071
 2024TIP3    H2 6037   2.979   1.784   3.156 -0.9558 -0.6396 -2.1832
 2025TIP3   OH2 6038   5.416   2.382   2.306 -0.2177  0.1576 -0.5944
 2025TIP3    H1 6039   5.502   2.346   2.327 -0.6911 -0.6315  0.0275
 2025TIP3    H2 6040   5.384   2.418   2.388 -0.5168  0.3794 -0.8055
 2026TIP3   OH2 6041   5.357   1.504   3.652 -0.2137 -0.4025  0.3079
 2026TIP3    H1 6042   5.335   1.562   3.725 -0.5522  0.4385 -0.4510
 2026TIP3    H2 6043   5.322   1.419   3.678  0.6846 -0.4034  1.6351
 2027TIP3   OH2 6044   3.360   6.117   5.231 -0.2974 -0.1311 -0.2070
 2027TIP3    H1 6045   3.379   6.202   5.272  0.4242 -0.0599 -0.6763
 2027TIP3    H2 6046   3.390   6.053   5.295 -3.5240 -0.1580  1.5153
 2028TIP3   OH2 6047   4.158   3.169   5.518 -0.3157  0.1896  0.1636
 2028TIP3    H1 6048   4.069   3.136   5.509 -0.5819  0.6824  0.9949
 2028TIP3    H2 6049   4.202   3.139   5.438 -0.7685 -1.4613  0.4959
 2029TIP3   OH2 6050   2.179   1.854   4.906  0.2339  0.1481  0.0813
 2029TIP3    H1 6051   2.164   1.788   4.838 -1.9751  0.3622  0.2927
 2029TIP3    H2 6052   2.108   1.840   4.969  1.4615  0.8245  1.6713
 2030TIP3   OH2 6053   4.700   4.216   0.749 -0.3211 -0.0989 -0.0513
 2030TIP3    H1 6054   4.682   4.267   0.828 -0.3298 -0.4776  0.1930
 2030TIP3    H2 6055   4.658   4.265   0.678  0.6006  0.8038  0.0138
 2031TIP3   OH2 6056   1.321   4.151   4.896 -0.3993  0.1602 -0.2620
 2031TIP3    H1 6057   1.331   4.245   4.885  2.3412 -0.0301 -0.2788
 2031TIP3    H2 6058   1.409   4.116   4.880 -1.4398 -2.4628 -0.7974
 2032TIP3   OH2 6059   0.552   0.443   0.699 -0.0681  0.3899  0.2205
 2032TIP3    H1 6060   0.604   0.375   0.743  1.1384  0.9323 -0.3375
 2032TIP3    H2 6061   0.481   0.461   0.761  1.6190  1.1810  2.0470
 2033TIP3   OH2 6062   2.282   5.245   3.969  0.5848 -0.1729  0.1865
 2033TIP3    H1 6063   2.325   5.169   3.930  1.2573  1.6519 -3.0278
 2033TIP3    H2 6064   2.263   5.219   4.059  2.5528 -3.3856 -0.1727
 2034TIP3   OH2 6065   1.786   5.753   2.293 -0.0899  0.2465  0.1413
 2034TIP3    H1 6066   1.840   5.689   2.339  1.1103 -0.2736 -1.8338
 2034TIP3    H2 6067   1.847   5.796   2.232 -2.0384 -1.5076 -3.3992
 2035TIP3   OH2 6068   3.335   6.684   4.109  0.2530 -0.6137  0.3412
 2035TIP3    H1 6069   3.263   6.661   4.168  1.1433  0.6760  2.0007
 2035TIP3    H2 6070   3.333   6.780   4.105 -1.6878 -0.5809 -4.2373
 2036TIP3   OH2 6071   3.545   4.838   3.896 -0.1120  0.1833 -0.5240
 2036TIP3    H1 6072   3.491   4.776   3.847 -1.4750  0.6850  0.2849
 2036TIP3    H2 6073   3.563   4.793   3.979  1.5591 -0.3645 -1.1392
 2037TIP3   OH2 6074   6.973   6.412   5.116  0.1229  0.0948 -0.3988
 2037TIP3    H1 6075   6.962   6.471   5.191  0.1311 -0.2563 -0.1142
 2037TIP3    H2 6076   7.068   6.405   5.104  0.1280 -0.0248 -0.2956
 2038TIP3   OH2 6077   6.885   1.331   2.252  0.1652  0.3039 -0.2451
 2038TIP3    H1 6078   6.799   1.316   2.213 -0.0199 -1.6954  0.8004
 2038TIP3    H2 6079   6.905   1.250   2.298  1.2530  1.8139  2.1392
 2039TIP3   OH2 6080   2.031   4.822   0.114  0.2251 -0.2038 -1.5131
 2039TIP3    H1 6081   1.988   4.739   0.093 -0.1933  0.4128 -3.2486
 2039TIP3    H2 6082   1.963   4.888   0.105  0.1561  0.2527  1.3463
 2040TIP3   OH2 6083   0.794   1.070   0.047 -0.0506  0.4038 -0.0054
 2040TIP3    H1 6084   0.801   1.116  -0.037 -1.2242 -0.5063 -0.6272
 2040TIP3    H2 6085   0.712   1.021   0.041 -0.1136  0.2474  1.6447
 2041TIP3   OH2 6086   1.476   0.078   1.581  0.1807 -0.3758  0.2617
 2041TIP3    H1 6087   1.549   0.031   1.540 -0.0362 -1.3078  0.9291
 2041TIP3    H2 6088   1.398   0.030   1.553  0.0466 -1.2229  1.9982
 2042TIP3   OH2 6089   3.840   3.102   5.784  0.4232  0.1921 -0.4118
 2042TIP3    H1 6090   3.749   3.131   5.782  0.3254 -0.1374 -1.2399
 2042TIP3    H2 6091   3.868   3.104   5.692  1.1563 -0.0048 -0.2018
 2043TIP3   OH2 6092   4.513   1.762   0.185 -0.1070  0.5442  0.2506
 2043TIP3    H1 6093   4.594   1.776   0.135 -0.0112 -0.3585  0.1300
 2043TIP3    H2 6094   4.478   1.850   0.200  1.6230  1.0835  1.5087
 2044TIP3   OH2 6095   3.872   3.791   1.162  0.1271  0.2942  0.4913
 2044TIP3    H1 6096   3.909   3.874   1.190  0.1053  0.8781 -1.1258
 2044TIP3    H2 6097   3.887   3.788   1.068 -0.5079 -1.2121  0.4073
 2045TIP3   OH2 6098   5.061   5.653   5.411 -0.0329  0.2208  0.3065
 2045TIP3    H1 6099   5.153   5.664   5.388  0.4071  1.9937  2.5064
 2045TIP3    H2 6100   5.013   5.692   5.337  1.0296  0.5621 -0.2234
 2046TIP3   OH2 6101   3.479   6.691   4.736  0.3143 -0.0444  0.2230
 2046TIP3    H1 6102   3.532   6.753   4.786  0.7814 -2.0665  2.4218
 2046TIP3    H2 6103   3.417   6.656   4.800 -1.8993  0.2302 -1.6324
 2047TIP3   OH2 6104   6.100   2.915   5.568  0.0421 -0.1398  0.8940
 2047TIP3    H1 6105   6.057   2.990   5.608 -0.2332  0.6730 -0.8199
 2047TIP3    H2 6106   6.032   2.874   5.514  1.5089  1.9515 -2.9467
 2048TIP3   OH2 6107   3.793   6.542   0.380 -0.0255  0.7795 -0.0680
 2048TIP3    H1 6108   3.839   6.548   0.464 -1.5003  0.0829  0.8478
 2048TIP3    H2 6109   3.845   6.479   0.329 -0.3493 -0.6362  1.2505
 2049TIP3   OH2 6110   2.159   0.626   1.375 -0.1962  0.0433 -0.0690
 2049TIP3    H1 6111   2.197   0.705   1.413  1.3622 -0.4402 -0.5487
 2049TIP3    H2 6112   2.179   0.557   1.438  0.6944 -0.4080 -0.8238
 2050TIP3   OH2 6113   1.827   5.480   4.493 -0.2664  0.4682  0.0315
 2050TIP3    H1 6114   1.841   5.571   4.520 -1.9193  0.9927 -0.7363
 2050TIP3    H2 6115   1.858   5.428   4.567 -1.4908  1.7433  1.5127
 2051TIP3   OH2 6116   5.534   3.010   4.609 -0.2525 -0.7655  0.6784
 2051TIP3    H1 6117   5.616   3.032   4.652  0.3983 -0.1700 -0.8017
 2051TIP3    H2 6118   5.473   3.078   4.637 -0.0534 -0.8104  1.2289
 2052TIP3   OH2 6119   0.636   2.575   4.576  0.3675 -0.6337 -0.1429
 2052TIP3    H1 6120   0.724   2.541   4.558  0.1560 -1.3119  0.0895
 2052TIP3    H2 6121   0.629   2.574   4.671 -0.0696 -1.0398 -0.1761
 2053TIP3   OH2 6122   2.646   6.332   0.905  0.3336 -0.3461  0.0896
 2053TIP3    H1 6123   2.596   6.297   0.978  1.9288  0.8831  1.8680
 2053TIP3    H2 6124   2.626   6.426   0.905  1.4075 -0.1042 -0.1631
 2054TIP3   OH2 6125   3.600   0.693   0.233  0.3053  0.2451  0.2277
 2054TIP3    H1 6126   3.638   0.605   0.237  0.7888  0.4875  1.5508
 2054TIP3    H2 6127   3.651   0.738   0.166  0.9704 -0.0673  0.5143
 2055TIP3   OH2 6128   3.919   5.413   1.872 -0.3899  0.2034 -0.2966
 2055TIP3    H1 6129   4.011   5.401   1.892 -0.3548 -1.2650 -1.1790
 2055TIP3    H2 6130   3.895   5.336   1.820 -1.7392  1.2800 -1.3738
 2056TIP3   OH2 6131   0.629   6.547   3.079  0.8974  0.8650  0.7219
 2056TIP3    H1 6132   0.646   6.456   3.101  2.0876  0.9460  0.1939
 2056TIP3    H2 6133   0.646   6.553   2.985 -1.5045  1.1168  0.2542
 2057TIP3   OH2 6134   5.480   5.043   4.362 -0.0380 -0.3411 -0.5384
 2057TIP3    H1 6135   5.486   5.137   4.381 -0.4729 -0.4011 -0.1058
 2057TIP3    H2 6136   5.566   5.008   4.388 -0.8524 -0.5556  2.1201
 2058TIP3   OH2 6137   2.286   2.537   2.060 -0.2495 -0.1724  0.0693
 2058TIP3    H1 6138   2.207   2.580   2.093  0.1806  0.7514 -0.0439
 2058TIP3    H2 6139   2.260   2.447   2.041 -1.1455 -0.0041  0.4874
 2059TIP3   OH2 6140   0.854   5.232   5.478  0.1655  0.1250 -0.1305
 2059TIP3    H1 6141   0.942   5.211   5.450  0.1299 -1.4432  0.8024
 2059TIP3    H2 6142   0.857   5.325   5.502  1.3383  0.2824 -0.8552
 2060TIP3   OH2 6143   5.520   1.942   2.349 -0.2511 -0.2358 -0.1683
 2060TIP3    H1 6144   5.537   1.948   2.443 -1.7824 -0.4115  0.1343
 2060TIP3    H2 6145   5.541   1.852   2.327 -2.3626 -0.9481  0.5530
 2061TIP3   OH2 6146   2.958   1.308   0.042 -0.0160  0.2098  0.0583
 2061TIP3    H1 6147   3.051   1.298   0.024  0.0058 -3.0424  1.2925
 2061TIP3    H2 6148   2.915   1.278  -0.038  0.0539 -1.8566  0.7578
 2062TIP3   OH2 6149   2.707   1.534   2.729 -0.0531  0.4424  0.2123
 2062TIP3    H1 6150   2.702   1.583   2.646 -0.6032  0.1068  0.0429
 2062TIP3    H2 6151   2.748   1.594   2.790  1.8892  0.1540 -0.7208
 2063TIP3   OH2 6152   4.415   2.546   2.328 -0.0127  0.2144 -0.1486
 2063TIP3    H1 6153   4.383   2.579   2.244  0.3006  1.5063  0.2145
 2063TIP3    H2 6154   4.464   2.467   2.306 -0.8314 -0.0576 -1.0487
 2064TIP3   OH2 6155   1.408   0.039   5.677  0.2349 -0.0402  0.1159
 2064TIP3    H1 6156   1.407   0.134   5.668 -0.6297 -0.1991 -2.1116
 2064TIP3    H2 6157   1.358   0.022   5.756  1.1232  1.3657  1.0341
 2065TIP3   OH2 6158   1.803   4.785   5.886  0.2775 -0.5327 -0.4988
 2065TIP3    H1 6159   1.866   4.789   5.814 -0.2138 -0.4241 -0.9304
 2065TIP3    H2 6160   1.856   4.794   5.965  0.5010  3.5250 -0.9151
 2066TIP3   OH2 6161   1.474   1.064   5.171  0.0284  0.1550  0.1744
 2066TIP3    H1 6162   1.381   1.083   5.155  0.2111  0.5507 -0.4618
 2066TIP3    H2 6163   1.490   1.093   5.261 -0.7376 -0.9782  0.6962
 2067TIP3   OH2 6164   3.020   2.058   4.045  0.4081 -0.6001  0.0578
 2067TIP3    H1 6165   3.005   1.968   4.017 -0.7923 -1.1725  2.2726
 2067TIP3    H2 6166   2.934   2.099   4.044  0.8043  0.2591 -0.0337
 2068TIP3   OH2 6167   3.496   1.699   3.483 -0.4145  0.3757  0.2589
 2068TIP3    H1 6168   3.507   1.792   3.503 -2.9621  0.8158  0.0657
 2068TIP3    H2 6169   3.510   1.654   3.566  1.6551  0.8099  0.1758
 2069TIP3   OH2 6170   3.228   5.767   5.376  0.0704 -0.4742 -0.2679
 2069TIP3    H1 6171   3.170   5.703   5.416 -1.5994  1.3951  0.4096
 2069TIP3    H2 6172   3.276   5.717   5.309  0.2497 -2.8221  1.4905
 2070TIP3   OH2 6173   4.946   1.227   1.061 -0.1641 -0.1591  0.5129
 2070TIP3    H1 6174   4.950   1.179   1.144  0.3988 -1.1246 -0.0594
 2070TIP3    H2 6175   5.004   1.179   1.002  0.7104  1.4342  0.0061
 2071TIP3   OH2 6176   4.093   4.923   3.552 -0.0478  0.2087 -0.1165
 2071TIP3    H1 6177   4.090   4.912   3.457  1.4333  3.3551 -0.6492
 2071TIP3    H2 6178   4.009   4.963   3.574 -0.0839  0.1902 -0.2216
 2072TIP3   OH2 6179   1.478   1.194   4.734 -0.0854  0.6620 -0.5387
 2072TIP3    H1 6180   1.501   1.268   4.790  1.7631 -0.9288  0.9532
 2072TIP3    H2 6181   1.432   1.134   4.791 -0.2165 -0.0069 -1.3325
 2073TIP3   OH2 6182   0.864   4.296   3.470 -0.3488  0.1196  0.3689
 2073TIP3    H1 6183   0.937   4.342   3.511  0.1077 -0.7922  0.6257
 2073TIP3    H2 6184   0.833   4.235   3.538 -0.4469 -0.4695 -0.1872
 2074TIP3   OH2 6185   3.003   1.943   5.289 -0.5168  0.1330 -0.3948
 2074TIP3    H1 6186   3.059   1.891   5.231 -0.0523  1.1231 -0.8744
 2074TIP3    H2 6187   2.953   1.879   5.339  0.5039 -0.7727 -0.4957
 2075TIP3   OH2 6188   4.703   2.237   2.990  0.0530 -0.2527 -0.0004
 2075TIP3    H1 6189   4.641   2.271   2.926  0.4067 -2.3316 -1.5540
 2075TIP3    H2 6190   4.788   2.273   2.964  0.2622 -1.4300 -0.9912
 2076TIP3   OH2 6191   1.775   3.063   3.324  0.5051 -0.2594 -0.2625
 2076TIP3    H1 6192   1.869   3.064   3.339  0.2559  0.1971  1.4193
 2076TIP3    H2 6193   1.754   2.970   3.312  1.2294 -0.3145 -1.2305
 2077TIP3   OH2 6194   6.982   5.963   4.048 -0.1576  0.0958  0.0155
 2077TIP3    H1 6195   6.926   6.030   4.009  0.8199  0.3343 -1.0274
 2077TIP3    H2 6196   6.930   5.883   4.043 -0.9251  0.5692  0.2978
 2078TIP3   OH2 6197   6.986   1.439   4.043 -0.0476  0.2512 -0.1781
 2078TIP3    H1 6198   6.948   1.508   3.988  1.9696  0.6000 -1.2490
 2078TIP3    H2 6199   7.019   1.486   4.121  0.6227  0.4123 -0.5447
 2079TIP3   OH2 6200   5.732   0.746   0.722  0.2420  0.0917  0.2789
 2079TIP3    H1 6201   5.654   0.692   0.707  0.1262 -0.3356  2.1931
 2079TIP3    H2 6202   5.790   0.724   0.650  0.3762 -2.9788  1.1866
 2080TIP3   OH2 6203   5.021   3.900   4.452  0.0309  0.1803  0.0124
 2080TIP3    H1 6204   4.979   3.857   4.527 -2.1182 -1.1876 -1.8745
 2080TIP3    H2 6205   4.994   3.991   4.459 -1.8954 -0.3335 -0.1862
 2081TIP3   OH2 6206   6.241   5.956   2.174 -0.4931 -0.0524  0.0509
 2081TIP3    H1 6207   6.266   6.049   2.174 -0.2889 -0.1068 -0.1606
 2081TIP3    H2 6208   6.146   5.957   2.159 -0.4027  0.1028 -0.5629
 2082TIP3   OH2 6209   5.081   3.451   2.813  0.3784 -0.0385 -0.2960
 2082TIP3    H1 6210   5.147   3.463   2.745  2.0317 -0.5739  1.1342
 2082TIP3    H2 6211   5.086   3.531   2.866 -0.1233 -0.0759 -0.1904
 2083TIP3   OH2 6212   2.297   1.434   5.520  0.9346  0.2599  0.0401
 2083TIP3    H1 6213   2.364   1.377   5.558  1.6885  0.1269 -1.4088
 2083TIP3    H2 6214   2.273   1.392   5.437  2.5096  2.6559 -1.7736
 2084TIP3   OH2 6215   5.481   2.302   1.061  0.2783  0.1270  0.2563
 2084TIP3    H1 6216   5.521   2.224   1.024 -0.3014 -0.3146  0.5380
 2084TIP3    H2 6217   5.537   2.374   1.032  0.6481 -0.3581 -0.2578
 2085TIP3   OH2 6218   3.535   3.217   3.737  0.5057  0.3010 -0.5805
 2085TIP3    H1 6219   3.508   3.193   3.826 -0.8391  0.7664 -0.8392
 2085TIP3    H2 6220   3.550   3.311   3.741  1.9354  0.0895 -0.5032
 2086TIP3   OH2 6221   2.793   2.193   3.921  0.1665  0.1758  0.0472
 2086TIP3    H1 6222   2.756   2.274   3.887 -0.4935 -0.1524 -0.0417
 2086TIP3    H2 6223   2.739   2.124   3.881 -0.5196 -0.2338  1.5889
 2087TIP3   OH2 6224   1.675   0.282   5.665 -0.0843 -0.7441  0.3822
 2087TIP3    H1 6225   1.652   0.280   5.572 -0.6851 -1.6342  0.5408
 2087TIP3    H2 6226   1.592   0.272   5.711  0.1446  0.2009  1.0396
 2088TIP3   OH2 6227   0.252   5.505   5.671 -0.2777  0.2469  0.0240
 2088TIP3    H1 6228   0.270   5.446   5.744 -2.0528 -0.8240 -0.3500
 2088TIP3    H2 6229   0.237   5.590   5.713  1.1909  0.2121  0.6651
 2089TIP3   OH2 6230   3.740   0.968   0.314  0.1324  0.1065  0.0090
 2089TIP3    H1 6231   3.658   0.928   0.282 -0.3599  0.3044  1.0009
 2089TIP3    H2 6232   3.761   1.035   0.249  0.7706 -1.4648 -1.5035
 2090TIP3   OH2 6233   5.949   0.149   1.840 -0.1603 -0.1220  0.1664
 2090TIP3    H1 6234   5.857   0.173   1.851  0.0403  0.6731  0.1525
 2090TIP3    H2 6235   5.981   0.209   1.772  0.8668  0.9241  1.5327
 2091TIP3   OH2 6236   0.392   1.491   3.423 -0.2365 -0.1723 -0.0075
 2091TIP3    H1 6237   0.317   1.550   3.416  1.6530  2.4434  0.4781
 2091TIP3    H2 6238   0.452   1.536   3.482  1.5500 -2.3825 -0.0374
 2092TIP3   OH2 6239   4.608   4.755   3.924  0.4690  0.0099 -0.2073
 2092TIP3    H1 6240   4.630   4.754   3.831 -1.9401 -0.4202 -0.8572
 2092TIP3    H2 6241   4.579   4.665   3.943  0.0234  0.3318  0.7019
 2093TIP3   OH2 6242   6.084   5.145   2.468  0.2497 -0.3140 -0.0766
 2093TIP3    H1 6243   6.114   5.153   2.377  1.0128  2.7590  0.3190
 2093TIP3    H2 6244   6.165   5.135   2.519 -0.0880 -0.8797  0.3507
 2094TIP3   OH2 6245   0.290   4.085   5.868  0.4490  0.2715  0.5127
 2094TIP3    H1 6246   0.343   4.098   5.947  0.2420 -1.8050  1.0623
 2094TIP3    H2 6247   0.350   4.042   5.806 -0.0074 -0.1692  0.3714
 2095TIP3   OH2 6248   5.315   0.402   0.681  0.3395 -0.1140 -0.4399
 2095TIP3    H1 6249   5.261   0.406   0.602 -0.4271 -2.9774 -0.1464
 2095TIP3    H2 6250   5.337   0.310   0.691  0.7666  0.2119  2.4858
 2096TIP3   OH2 6251   3.125   4.590   3.800 -0.2990 -0.4082  0.1827
 2096TIP3    H1 6252   3.031   4.573   3.807 -0.2477 -0.4352  0.9625
 2096TIP3    H2 6253   3.158   4.519   3.745 -0.6590 -0.7174  0.3538
 2097TIP3   OH2 6254   5.226   3.137   3.912 -0.1082  0.1074 -0.1844
 2097TIP3    H1 6255   5.308   3.183   3.926 -0.4237  0.5519  0.2601
 2097TIP3    H2 6256   5.161   3.207   3.900 -0.7345 -0.1808  1.2887
 2098TIP3   OH2 6257   5.577   3.618   3.395  0.1716  0.7827  0.3213
 2098TIP3    H1 6258   5.497   3.664   3.419  0.8880  2.2875 -0.0441
 2098TIP3    H2 6259   5.634   3.628   3.471 -0.5976 -1.8909  1.3328
 2099TIP3   OH2 6260   4.114   3.364   5.059 -0.5481  0.1526  0.1241
 2099TIP3    H1 6261   4.114   3.275   5.025 -0.4468  0.0603  0.3586
 2099TIP3    H2 6262   4.044   3.409   5.012 -0.4313  0.0204 -0.1779
 2100TIP3   OH2 6263   6.761   3.132   2.585 -0.0519  0.9328 -0.3133
 2100TIP3    H1 6264   6.796   3.181   2.511 -1.8808 -0.0150 -1.9074
 2100TIP3    H2 6265   6.804   3.047   2.581  0.2935  1.0868  0.0906
 2101TIP3   OH2 6266   2.469   6.261   3.437  0.3713  0.4040 -0.2519
 2101TIP3    H1 6267   2.515   6.336   3.474 -0.3514  0.0459  1.4956
 2101TIP3    H2 6268   2.405   6.237   3.504 -0.0696 -1.1699 -1.1798
 2102TIP3   OH2 6269   6.500   0.031   2.177  0.2801  0.1429  0.3351
 2102TIP3    H1 6270   6.424   0.034   2.119 -0.5001  0.2961  1.3407
 2102TIP3    H2 6271   6.504  -0.061   2.206  0.5601  0.1052  0.1764
 2103TIP3   OH2 6272   4.311   3.709   5.811 -0.3508 -0.1715 -0.0416
 2103TIP3    H1 6273   4.400   3.677   5.829  0.0763  1.0159  0.0246
 2103TIP3    H2 6274   4.258   3.673   5.882  0.0825 -0.8155 -0.0318
 2104TIP3   OH2 6275   7.100   2.802   4.720  0.5748  0.1621  0.1704
 2104TIP3    H1 6276   7.143   2.840   4.796  0.2946 -0.1331  0.4792
 2104TIP3    H2 6277   7.171   2.789   4.657  1.0256 -0.6855  0.8171
 2105TIP3   OH2 6278   5.611   2.159   1.857  0.0121  0.4356  0.3934
 2105TIP3    H1 6279   5.679   2.208   1.812 -1.0425  0.9543 -0.6792
 2105TIP3    H2 6280   5.574   2.222   1.919 -2.0678  1.4503 -1.7236
 2106TIP3   OH2 6281   1.308   3.302   1.954 -0.5009 -0.0415 -0.1332
 2106TIP3    H1 6282   1.350   3.249   1.887  0.5954  0.9231 -0.2317
 2106TIP3    H2 6283   1.332   3.260   2.036 -1.1628 -0.7440 -0.2846
 2107TIP3   OH2 6284   1.824   2.423   0.826  0.3034 -0.2187 -0.2430
 2107TIP3    H1 6285   1.785   2.347   0.871  1.3549 -0.0335  1.0560
 2107TIP3    H2 6286   1.865   2.386   0.748 -0.0987 -0.8359 -0.1751
 2108TIP3   OH2 6287   7.058   1.755   2.054  0.1122  0.3773 -0.1034
 2108TIP3    H1 6288   7.118   1.824   2.083 -1.1301  0.9315  1.2567
 2108TIP3    H2 6289   7.075   1.682   2.112 -0.4486  0.5078  0.2348
 2109TIP3   OH2 6290   6.536   0.619   1.583 -0.3615  0.1853  0.0998
 2109TIP3    H1 6291   6.556   0.704   1.543 -0.8839  1.0866  1.6839
 2109TIP3    H2 6292   6.592   0.615   1.660  1.1614 -1.8444 -0.9992
 2110TIP3   OH2 6293   3.415   1.342   5.191 -0.6408 -0.4448 -0.5229
 2110TIP3    H1 6294   3.391   1.430   5.221 -1.3186 -1.1220  0.9908
 2110TIP3    H2 6295   3.340   1.315   5.137 -0.0634  0.2068 -1.6844
 2111TIP3   OH2 6296   3.129   6.636   3.826  0.2450 -0.1589  0.0687
 2111TIP3    H1 6297   3.209   6.592   3.797  0.9217  0.7793  0.4551
 2111TIP3    H2 6298   3.152   6.675   3.910 -0.0609  1.5891 -0.6060
 2112TIP3   OH2 6299   5.074   3.131   3.214  0.2637 -0.3012  0.4291
 2112TIP3    H1 6300   5.086   3.074   3.289 -0.8227 -0.2922  0.6286
 2112TIP3    H2 6301   4.999   3.093   3.167 -0.7494  1.1617  0.7895
 2113TIP3   OH2 6302   5.821   1.526   5.104  0.3902  0.1017 -0.4888
 2113TIP3    H1 6303   5.905   1.570   5.094  0.4967 -0.0486 -0.2651
 2113TIP3    H2 6304   5.831   1.474   5.184  0.0405  0.1877 -0.3896
 2114TIP3   OH2 6305   0.267   4.897   1.164 -0.3013  0.1736 -0.1581
 2114TIP3    H1 6306   0.182   4.901   1.209  0.4407  0.4726  1.2686
 2114TIP3    H2 6307   0.291   4.988   1.149 -0.8323  0.0742 -1.7966
 2115TIP3   OH2 6308   5.017   6.152   1.635 -0.7370 -0.6860  0.1657
 2115TIP3    H1 6309   5.074   6.076   1.636  1.3116  0.7071 -1.1936
 2115TIP3    H2 6310   5.033   6.193   1.550 -3.8358 -0.1917 -0.3030
 2116TIP3   OH2 6311   1.870   1.205   3.795  0.2011 -0.7534 -0.0465
 2116TIP3    H1 6312   1.824   1.185   3.713 -1.3897  0.9543  0.3835
 2116TIP3    H2 6313   1.850   1.131   3.852 -2.7201  0.2549  0.3799
 2117TIP3   OH2 6314   2.415   0.177   4.594 -0.6202  0.4148 -0.0262
 2117TIP3    H1 6315   2.324   0.151   4.581 -0.4960 -0.7817  1.2910
 2117TIP3    H2 6316   2.465   0.125   4.530 -0.6171 -0.8942  1.0102
 2118TIP3   OH2 6317   3.926   4.729   5.171  0.0102  0.0045  0.0806
 2118TIP3    H1 6318   3.911   4.822   5.188 -0.4532  0.3195 -1.8102
 2118TIP3    H2 6319   3.945   4.725   5.077  0.6211 -1.7500  0.2471
 2119TIP3   OH2 6320   3.533   4.482   4.724 -0.0581  0.0154 -0.2061
 2119TIP3    H1 6321   3.539   4.387   4.712 -2.1816 -0.1163 -0.6544
 2119TIP3    H2 6322   3.473   4.493   4.797  1.7168  1.0469  1.1918
 2120TIP3   OH2 6323   5.345   2.913   0.207  0.2128 -0.0120 -0.0258
 2120TIP3    H1 6324   5.297   2.982   0.253 -2.3318 -1.3057 -0.5351
 2120TIP3    H2 6325   5.395   2.960   0.140 -1.1374  1.4159 -0.1083
 2121TIP3   OH2 6326   4.041   4.970   5.884  0.0443  0.0225 -0.4432
 2121TIP3    H1 6327   3.975   4.920   5.933  0.8201  0.2517  0.8723
 2121TIP3    H2 6328   4.057   4.917   5.806 -0.8236 -0.6361 -0.1999
 2122TIP3   OH2 6329   2.000   4.109   5.626 -0.1964  0.3948  0.1944
 2122TIP3    H1 6330   2.006   4.057   5.547  1.5534  1.0719 -0.1581
 2122TIP3    H2 6331   1.958   4.052   5.690 -1.2642 -0.2972 -1.0778
 2123TIP3   OH2 6332   2.305   6.436   4.123 -0.2463 -0.4219 -0.8086
 2123TIP3    H1 6333   2.293   6.497   4.050  2.0198  0.1131 -0.8148
 2123TIP3    H2 6334   2.400   6.436   4.138 -0.4446 -2.1647  0.7386
 2124TIP3   OH2 6335   7.227   5.204   4.114  0.0336 -0.0865 -0.4549
 2124TIP3    H1 6336   7.139   5.179   4.143  0.8533 -2.3624  0.3175
 2124TIP3    H2 6337   7.279   5.207   4.195  0.8203  0.5301 -0.9674
 2125TIP3   OH2 6338   4.014   6.524   2.142 -0.4184 -0.0954  0.0548
 2125TIP3    H1 6339   3.989   6.432   2.131 -1.0561 -0.0996  1.3810
 2125TIP3    H2 6340   4.084   6.523   2.206  0.9753  0.2024 -1.3956
 2126TIP3   OH2 6341   2.639   3.528   3.166  0.3372  0.2499 -0.0421
 2126TIP3    H1 6342   2.662   3.469   3.094 -1.6658 -0.0527 -0.5046
 2126TIP3    H2 6343   2.657   3.478   3.245  0.0026 -0.4622 -0.4092
 2127TIP3   OH2 6344   3.553   3.203   1.250  0.0517 -0.6225 -0.0792
 2127TIP3    H1 6345   3.563   3.135   1.317  0.7289  0.1230  0.5895
 2127TIP3    H2 6346   3.470   3.246   1.270  1.0242  0.6965  1.3313
 2128TIP3   OH2 6347   0.283   2.658   3.058 -0.0188  0.1459  0.1668
 2128TIP3    H1 6348   0.301   2.740   3.012  0.5908 -0.6793 -1.1436
 2128TIP3    H2 6349   0.370   2.617   3.068 -0.4401 -0.9352 -0.4058
 2129TIP3   OH2 6350   6.768   4.027   0.697 -0.0034  0.2288 -0.1184
 2129TIP3    H1 6351   6.724   3.945   0.675 -0.2906  0.0670  1.0122
 2129TIP3    H2 6352   6.835   4.002   0.761 -0.9525  1.0477  1.2357
 2130TIP3   OH2 6353   0.738   0.059   3.639 -0.3072 -0.2106  0.2380
 2130TIP3    H1 6354   0.723  -0.034   3.658 -1.9667 -0.3041 -1.2764
 2130TIP3    H2 6355   0.687   0.105   3.706 -1.7733 -0.4618 -0.6648
 2131TIP3   OH2 6356   5.786   1.539   3.753  0.6227  0.6483  0.2115
 2131TIP3    H1 6357   5.724   1.558   3.683  1.1833 -0.8170 -0.7321
 2131TIP3    H2 6358   5.738   1.482   3.814  0.4411  1.1109  0.5006
 2132TIP3   OH2 6359   2.043   1.541   4.455  0.4108 -0.2504  0.0858
 2132TIP3    H1 6360   2.080   1.515   4.371  1.5855  0.2690  0.4233
 2132TIP3    H2 6361   1.972   1.479   4.470  2.2328 -2.4375  0.2252
 2133TIP3   OH2 6362   0.939   3.319   1.304 -0.1038 -0.0728  0.5549
 2133TIP3    H1 6363   0.958   3.411   1.323 -1.7087  0.2043  1.0024
 2133TIP3    H2 6364   1.012   3.271   1.342  1.3432  1.0761 -0.6852
 2134TIP3   OH2 6365   6.001   2.411   5.773  0.0195  0.5811 -0.9267
 2134TIP3    H1 6366   5.964   2.386   5.858  1.1926  0.1198 -0.5291
 2134TIP3    H2 6367   6.066   2.478   5.794  3.2740 -2.3209 -0.8715
 2135TIP3   OH2 6368   3.438   0.713   3.592  0.5414 -0.5445  0.1819
 2135TIP3    H1 6369   3.440   0.690   3.499  0.6815  0.1581  0.0066
 2135TIP3    H2 6370   3.393   0.798   3.595 -0.1587 -0.9262  0.8401
 2136TIP3   OH2 6371   5.694   5.933   5.789  0.2427  0.2584 -0.9507
 2136TIP3    H1 6372   5.604   5.960   5.773 -0.9103 -2.4312  0.4445
 2136TIP3    H2 6373   5.719   5.886   5.709 -0.2896 -0.5798 -0.6393
 2137TIP3   OH2 6374   4.462   0.734   0.910 -0.2840 -0.3445  0.4421
 2137TIP3    H1 6375   4.521   0.733   0.834  0.7873 -2.0426  1.2418
 2137TIP3    H2 6376   4.474   0.821   0.948 -0.9563  0.6035 -1.3730
 2138TIP3   OH2 6377   3.713   4.131   0.399  0.0465 -0.2277 -0.3022
 2138TIP3    H1 6378   3.629   4.105   0.439 -0.2585 -1.6062 -1.6990
 2138TIP3    H2 6379   3.769   4.154   0.473 -1.0571 -0.8665  0.7777
 2139TIP3   OH2 6380   3.197   3.035   3.675 -0.0138  0.3166  0.5379
 2139TIP3    H1 6381   3.237   3.087   3.606 -0.6024 -0.5890 -0.5261
 2139TIP3    H2 6382   3.152   2.964   3.629  0.9484 -1.2838  1.9157
 2140TIP3   OH2 6383   1.717   0.812   4.484 -0.1455 -0.3584 -0.0200
 2140TIP3    H1 6384   1.635   0.861   4.476  0.1741  0.4366  1.3569
 2140TIP3    H2 6385   1.781   0.877   4.516  0.6629 -1.3119  0.3514
 2141TIP3   OH2 6386   1.707   0.473   4.141 -0.2548 -0.1817  0.1003
 2141TIP3    H1 6387   1.756   0.527   4.202 -1.4594 -0.6161  1.5108
 2141TIP3    H2 6388   1.629   0.447   4.190 -2.7251  1.7389 -2.4697
 2142TIP3   OH2 6389   1.755   4.004   5.028  0.1666 -0.4567 -0.0108
 2142TIP3    H1 6390   1.692   4.021   4.957 -0.0471 -1.0268  0.0360
 2142TIP3    H2 6391   1.839   3.994   4.983  0.3845  1.1119 -0.0034
 2143TIP3   OH2 6392   1.812   4.201   1.440  0.5345 -0.4764 -0.0750
 2143TIP3    H1 6393   1.749   4.156   1.384  0.2752 -1.4632  0.9706
 2143TIP3    H2 6394   1.790   4.172   1.528  0.4025  1.6759  0.6426
 2144TIP3   OH2 6395   2.277   5.466   3.354  0.4765  0.0229 -0.2070
 2144TIP3    H1 6396   2.208   5.509   3.305 -0.1871  0.7814  1.3316
 2144TIP3    H2 6397   2.341   5.535   3.372  0.4121 -0.0848  0.4906
 2145TIP3   OH2 6398   0.516   6.081   4.205  0.1985 -0.5416  0.0207
 2145TIP3    H1 6399   0.477   6.036   4.280 -0.0466 -1.1637 -0.4667
 2145TIP3    H2 6400   0.485   6.032   4.129  1.0534 -0.3901 -0.4427
 2146TIP3   OH2 6401   3.811   6.148   4.823  0.0555  1.0689 -0.5489
 2146TIP3    H1 6402   3.746   6.079   4.828  0.7211  0.5224  0.9362
 2146TIP3    H2 6403   3.855   6.134   4.739  0.7899 -0.8950  0.1171
 2147TIP3   OH2 6404   4.668   2.620   2.098 -0.0610 -0.1722  0.3041
 2147TIP3    H1 6405   4.616   2.680   2.044 -0.7555 -1.6506 -0.7428
 2147TIP3    H2 6406   4.605   2.555   2.129  0.9384 -1.3108  0.0239
 2148TIP3   OH2 6407   4.952   0.524   0.211 -0.2659 -0.1850 -0.3207
 2148TIP3    H1 6408   5.013   0.452   0.227 -0.2226 -0.5045 -1.7402
 2148TIP3    H2 6409   4.996   0.579   0.146 -1.1188  0.0354 -0.7357
 2149TIP3   OH2 6410   6.257   5.046   3.501 -0.5721 -0.2264  0.2741
 2149TIP3    H1 6411   6.319   5.072   3.569  2.0078 -2.4809 -1.0209
 2149TIP3    H2 6412   6.202   4.980   3.542 -1.4987  1.0281  1.1289
 2150TIP3   OH2 6413   2.216   6.439   5.786  0.2009  0.5555 -0.4660
 2150TIP3    H1 6414   2.269   6.460   5.710  0.7987  0.0077 -0.2095
 2150TIP3    H2 6415   2.218   6.519   5.839 -1.1400  1.3372 -1.5200
 2151TIP3   OH2 6416   1.414   5.436   5.546  0.0379 -0.5484  0.0027
 2151TIP3    H1 6417   1.373   5.510   5.590  0.7778 -0.1214 -0.0280
 2151TIP3    H2 6418   1.342   5.374   5.532 -0.7540  0.5279 -0.7611
 2152TIP3   OH2 6419   4.645   6.747   4.764 -0.5050 -0.0129 -0.3318
 2152TIP3    H1 6420   4.712   6.716   4.703 -1.8852 -0.7554 -1.5252
 2152TIP3    H2 6421   4.680   6.726   4.851  1.2310  0.5130 -0.8690
 2153TIP3   OH2 6422   0.308   3.725   4.785  0.6878  0.2193 -0.3254
 2153TIP3    H1 6423   0.226   3.679   4.765  1.3515 -1.4516  0.5946
 2153TIP3    H2 6424   0.283   3.789   4.851  0.1735 -0.5090  0.2076
 2154TIP3   OH2 6425   1.287   0.278   5.415  0.1356  0.2712  0.7054
 2154TIP3    H1 6426   1.293   0.309   5.325  3.0597 -0.2139  0.6246
 2154TIP3    H2 6427   1.256   0.188   5.408 -3.0928  1.2720  0.5479
 2155TIP3   OH2 6428   2.441   2.548   2.303  0.0221 -0.3046  0.1149
 2155TIP3    H1 6429   2.386   2.533   2.226 -3.8922  0.2400  2.4816
 2155TIP3    H2 6430   2.523   2.583   2.268 -1.6836  0.3678 -3.7590
 2156TIP3   OH2 6431   4.981   0.980   1.402 -0.1825  0.4456 -0.8165
 2156TIP3    H1 6432   4.923   0.977   1.478  1.3684  0.3616  0.4056
 2156TIP3    H2 6433   5.050   1.041   1.427  1.1263 -0.6699 -1.5874
 2157TIP3   OH2 6434   4.730   3.835   4.600  0.5111  0.6055 -0.5340
 2157TIP3    H1 6435   4.634   3.825   4.603  0.4905  0.9180 -0.0412
 2157TIP3    H2 6436   4.760   3.795   4.682  0.8465  0.1014 -0.8928
 2158TIP3   OH2 6437   0.181   3.912   3.150 -0.5094 -0.0381 -0.0089
 2158TIP3    H1 6438   0.167   3.821   3.123 -1.7836  0.0841  0.2058
 2158TIP3    H2 6439   0.200   3.958   3.068 -3.0519  0.0837 -0.5942
 2159TIP3   OH2 6440   2.052   4.435   2.675 -0.1214  0.5036  0.1035
 2159TIP3    H1 6441   2.133   4.426   2.624  0.5728  1.1494  1.0635
 2159TIP3    H2 6442   2.058   4.521   2.716 -1.4756  0.7158 -0.0856
 2160TIP3   OH2 6443   6.793   6.028   0.902  0.5258 -0.0149  0.1781
 2160TIP3    H1 6444   6.779   5.940   0.939 -1.7776  0.2147  0.0064
 2160TIP3    H2 6445   6.750   6.024   0.817  2.6612  0.5524 -0.9813
 2161TIP3   OH2 6446   6.721   0.395   2.503 -1.0648 -0.2563  0.0488
 2161TIP3    H1 6447   6.814   0.381   2.484 -1.2765 -0.8066 -0.6041
 2161TIP3    H2 6448   6.678   0.314   2.475 -1.9642  0.6291 -1.2249
 2162TIP3   OH2 6449   1.427   4.802   3.953  0.2139 -0.6928 -0.5999
 2162TIP3    H1 6450   1.398   4.715   3.980 -1.1084  0.0538  0.5807
 2162TIP3    H2 6451   1.419   4.855   4.033 -0.4228  0.8368 -1.6380
 2163TIP3   OH2 6452   0.393   4.757   3.266 -0.0100  0.9136  0.5859
 2163TIP3    H1 6453   0.404   4.834   3.210 -0.0834  0.5597  0.0707
 2163TIP3    H2 6454   0.411   4.788   3.354 -0.1663  1.5492  0.3992
 2164TIP3   OH2 6455   1.268   4.230   5.714 -0.4244  0.3602 -0.0138
 2164TIP3    H1 6456   1.311   4.313   5.692  1.1439 -0.3273  0.3160
 2164TIP3    H2 6457   1.331   4.185   5.770 -1.1322 -1.1798 -0.4074
 2165TIP3   OH2 6458   0.481   2.387   3.762 -0.0030 -0.8094 -0.2725
 2165TIP3    H1 6459   0.413   2.454   3.753  0.8824  0.6887  2.9952
 2165TIP3    H2 6460   0.433   2.306   3.779 -1.0377  0.0473  1.0638
 2166TIP3   OH2 6461   3.500   0.009   5.317 -0.2605 -0.4728 -0.1661
 2166TIP3    H1 6462   3.513   0.080   5.254 -0.8921  1.4846  1.7404
 2166TIP3    H2 6463   3.571   0.020   5.380 -1.1590 -0.6357  0.9105
 2167TIP3   OH2 6464   1.444   1.853   4.124 -0.6162 -0.5318  0.0090
 2167TIP3    H1 6465   1.492   1.771   4.124 -2.1075 -1.4384  0.0974
 2167TIP3    H2 6466   1.495   1.910   4.182  0.0762 -1.6029  0.4861
 2168TIP3   OH2 6467   5.209   4.134   1.919  0.5466 -0.0671 -0.0311
 2168TIP3    H1 6468   5.208   4.040   1.937  1.1607  0.0168  0.4777
 2168TIP3    H2 6469   5.120   4.153   1.890  0.7772 -1.0582 -1.4796
 2169TIP3   OH2 6470   6.697   2.970   3.015 -0.0185 -0.4604 -0.4418
 2169TIP3    H1 6471   6.709   2.891   3.068  0.6860 -1.0922 -1.5083
 2169TIP3    H2 6472   6.778   3.019   3.027  0.3748 -0.8690 -1.3376
 2170TIP3   OH2 6473   3.080   4.796   5.218 -0.9670  0.4278 -0.1571
 2170TIP3    H1 6474   3.045   4.884   5.208 -0.1099  0.6974 -0.8110
 2170TIP3    H2 6475   3.145   4.787   5.149 -0.4768 -0.4381  0.3949
 2171TIP3   OH2 6476   6.451   0.886   4.813  0.3367  0.7307 -0.4390
 2171TIP3    H1 6477   6.518   0.830   4.775 -0.4605 -1.1075  0.7228
 2171TIP3    H2 6478   6.482   0.906   4.901  0.0831  1.1945 -0.4481
 2172TIP3   OH2 6479   0.995   1.176   1.128 -0.1314 -0.4479  0.3776
 2172TIP3    H1 6480   1.006   1.114   1.056  0.6882  0.7952 -0.6010
 2172TIP3    H2 6481   0.940   1.129   1.192  1.7245 -2.7689  0.4042
 2173TIP3   OH2 6482   6.040   2.976   3.932 -0.0344  0.0610 -0.5160
 2173TIP3    H1 6483   5.992   2.907   3.886 -1.2554 -0.6771  1.7133
 2173TIP3    H2 6484   6.117   2.993   3.877 -0.2634 -2.2853 -1.6693
 2174TIP3   OH2 6485   1.265   2.696   0.161  0.7514  0.3121  0.4895
 2174TIP3    H1 6486   1.274   2.785   0.196  2.6919 -0.1064  1.1550
 2174TIP3    H2 6487   1.344   2.651   0.190 -0.3338 -1.7378  0.4369
 2175TIP3   OH2 6488   2.255   5.862   1.617 -0.1982 -0.1138  0.1778
 2175TIP3    H1 6489   2.309   5.809   1.675 -0.4965 -0.3825  0.2113
 2175TIP3    H2 6490   2.277   5.832   1.529 -3.1166 -3.1000  0.2376
 2176TIP3   OH2 6491   5.377   4.321   5.622 -0.1911 -0.3702  0.5075
 2176TIP3    H1 6492   5.306   4.366   5.668  0.3778  1.3927 -0.2702
 2176TIP3    H2 6493   5.357   4.332   5.530  1.4164  0.7352  0.2618
 2177TIP3   OH2 6494   0.437   5.140   1.060  0.0237 -0.3399 -0.6456
 2177TIP3    H1 6495   0.428   5.105   0.972  0.5692  0.3587 -0.9917
 2177TIP3    H2 6496   0.517   5.194   1.056 -0.1723  0.0265  0.1595
 2178TIP3   OH2 6497   3.831   3.574   0.184 -0.0520 -0.3974 -0.4164
 2178TIP3    H1 6498   3.760   3.511   0.201  0.2216 -0.3450  1.0703
 2178TIP3    H2 6499   3.801   3.655   0.227  1.1140 -0.5211  0.6824
 2179TIP3   OH2 6500   0.875   6.094   0.789  0.4779 -0.1526  0.1508
 2179TIP3    H1 6501   0.804   6.134   0.738 -0.4510 -0.7675  0.9321
 2179TIP3    H2 6502   0.895   6.160   0.856  2.7444  1.3189 -1.8340
 2180TIP3   OH2 6503   6.437   6.317   2.596 -0.2064  0.3113  0.3817
 2180TIP3    H1 6504   6.424   6.302   2.502 -0.5276  2.2736  0.0685
 2180TIP3    H2 6505   6.378   6.389   2.617 -0.7138 -0.6079  2.2853
 2181TIP3   OH2 6506   4.741   1.595   1.996 -0.1326  0.0571 -0.2343
 2181TIP3    H1 6507   4.695   1.577   2.078  0.6622  1.0340  0.4411
 2181TIP3    H2 6508   4.720   1.520   1.940 -2.6980  0.5239 -0.0250
 2182TIP3   OH2 6509   4.293   6.400   2.749 -0.3797  0.0920 -0.1489
 2182TIP3    H1 6510   4.373   6.439   2.714 -1.9050  1.5862 -2.2601
 2182TIP3    H2 6511   4.275   6.450   2.829  0.0253  0.7976 -0.4842
 2183TIP3   OH2 6512   5.714   4.740   3.981 -0.2811 -0.0244 -0.4450
 2183TIP3    H1 6513   5.749   4.689   4.054  1.1882  0.3661 -0.8371
 2183TIP3    H2 6514   5.773   4.722   3.908 -0.5145  1.1702 -0.9580
 2184TIP3   OH2 6515   6.675   4.370   2.815  0.6093 -0.1359 -0.5450
 2184TIP3    H1 6516   6.698   4.363   2.722  3.3370  0.0182  0.0357
 2184TIP3    H2 6517   6.692   4.461   2.838 -0.3822 -0.0830  0.0607
 2185TIP3   OH2 6518   6.908   3.415   1.606 -0.8968  0.3509  0.5885
 2185TIP3    H1 6519   6.987   3.371   1.574 -0.1207  1.0276  1.5161
 2185TIP3    H2 6520   6.849   3.344   1.629 -0.0518 -0.1990  1.1031
 2186TIP3   OH2 6521   0.949   2.773   3.675 -0.0095  0.8936  0.4176
 2186TIP3    H1 6522   0.900   2.809   3.601 -0.3419  0.0543  0.2157
 2186TIP3    H2 6523   1.033   2.820   3.673  0.0850  0.7240 -0.6445
 2187TIP3   OH2 6524   3.102   5.975   3.938 -0.2667  0.3852 -0.1949
 2187TIP3    H1 6525   3.050   5.928   4.003  0.6889 -1.1004 -0.4674
 2187TIP3    H2 6526   3.131   5.907   3.877  2.9218  0.9263  0.5583
 2188TIP3   OH2 6527   5.094   0.519   1.946 -0.4391  0.1229  0.2940
 2188TIP3    H1 6528   5.007   0.526   1.984 -0.6529 -0.9934  0.0517
 2188TIP3    H2 6529   5.099   0.429   1.912  0.8213  0.1459  0.3446
 2189TIP3   OH2 6530   2.789   1.136   5.644 -0.1003  0.3751 -0.4966
 2189TIP3    H1 6531   2.811   1.043   5.634  1.7820  0.4579  1.8421
 2189TIP3    H2 6532   2.694   1.137   5.658 -0.1962 -1.1632 -0.8244
 2190TIP3   OH2 6533   5.096   6.652   3.302 -0.5941 -0.4897  0.3257
 2190TIP3    H1 6534   5.171   6.649   3.244 -1.0146 -0.0679 -0.2525
 2190TIP3    H2 6535   5.133   6.667   3.389  0.0364 -1.1408  0.1772
 2191TIP3   OH2 6536   0.163   6.502   3.242  0.4338  0.4596  0.2464
 2191TIP3    H1 6537   0.084   6.493   3.189  0.3713 -0.0523  0.4275
 2191TIP3    H2 6538   0.150   6.583   3.291 -0.2282  0.0925  0.6901
 2192TIP3   OH2 6539   1.081   1.216   3.436  0.3975  0.6650  0.0714
 2192TIP3    H1 6540   1.052   1.236   3.525  0.4945  0.4585  0.1487
 2192TIP3    H2 6541   1.172   1.245   3.433  0.1380  1.4842 -0.2276
 2193TIP3   OH2 6542   2.952   1.195   3.257  0.5305  0.0725 -0.1292
 2193TIP3    H1 6543   2.997   1.169   3.337 -0.4567 -1.5630 -0.0611
 2193TIP3    H2 6544   2.876   1.245   3.287 -0.4345 -1.4379  0.0763
 2194TIP3   OH2 6545   3.742   2.333   0.352 -0.1792  0.1511 -0.5782
 2194TIP3    H1 6546   3.721   2.406   0.292  0.5279  0.9459  0.1154
 2194TIP3    H2 6547   3.682   2.263   0.325 -2.4262  1.6712  0.0984
 2195TIP3   OH2 6548   1.465   1.328   2.029 -0.1424 -0.1604 -0.2780
 2195TIP3    H1 6549   1.380   1.326   1.985 -0.2338 -1.6021 -0.0935
 2195TIP3    H2 6550   1.456   1.394   2.097 -0.9098  0.1409 -0.6617
 2196TIP3   OH2 6551   6.344   1.877   0.276 -0.0768 -0.3273  0.3034
 2196TIP3    H1 6552   6.340   1.877   0.180  0.9596  0.1275  0.2487
 2196TIP3    H2 6553   6.410   1.811   0.297 -0.6453 -0.7717  0.7340
 2197TIP3   OH2 6554   4.264   2.122   1.140  0.1744  0.6493  0.0894
 2197TIP3    H1 6555   4.178   2.091   1.110 -0.3979  1.9936  0.2819
 2197TIP3    H2 6556   4.292   2.057   1.204 -0.4436 -0.0913 -0.3728
 2198TIP3   OH2 6557   2.187   1.543   5.031  0.2099 -0.3181 -0.0932
 2198TIP3    H1 6558   2.274   1.583   5.032  0.1211 -0.0189 -2.0235
 2198TIP3    H2 6559   2.128   1.613   5.058  0.3213  0.1999 -1.1395
 2199TIP3   OH2 6560   0.824   4.827   1.060  0.1736  0.3006 -0.0602
 2199TIP3    H1 6561   0.817   4.744   1.106 -0.8179  0.3202 -0.1678
 2199TIP3    H2 6562   0.891   4.876   1.109  0.1712 -0.2352  0.4818
 2200TIP3   OH2 6563   1.438   2.039   0.258 -0.4324  0.6098 -0.3996
 2200TIP3    H1 6564   1.374   2.092   0.305  0.9889  0.8450  1.3763
 2200TIP3    H2 6565   1.511   2.099   0.241  0.4229 -0.2964 -0.0086
 2201TIP3   OH2 6566   4.078   1.255   1.899  0.0547 -0.9380 -0.2263
 2201TIP3    H1 6567   4.035   1.173   1.922 -0.0819 -0.5470  0.9827
 2201TIP3    H2 6568   4.128   1.280   1.977 -1.7168  1.2577  0.3260
 2202TIP3   OH2 6569   1.342   1.988   3.174 -1.0179  0.2992  0.2928
 2202TIP3    H1 6570   1.398   1.976   3.097 -2.4555 -0.0592 -0.7370
 2202TIP3    H2 6571   1.276   1.920   3.167 -1.9362  1.0684  1.1660
 2203TIP3   OH2 6572   0.489   1.847   5.269 -0.3144  0.3581 -0.1048
 2203TIP3    H1 6573   0.550   1.836   5.342  0.9418  1.7028 -0.9042
 2203TIP3    H2 6574   0.457   1.759   5.252  1.3651 -0.4000  0.3966
 2204TIP3   OH2 6575   6.480   1.783   2.081  0.6213  0.5923  0.1189
 2204TIP3    H1 6576   6.532   1.721   2.030 -0.8961 -0.7736  0.1492
 2204TIP3    H2 6577   6.505   1.765   2.172  0.8817  0.6869  0.0664
 2205TIP3   OH2 6578   5.206   6.036   0.959 -0.5171 -0.1551 -0.2758
 2205TIP3    H1 6579   5.120   6.074   0.944  0.3469  1.9979 -0.1577
 2205TIP3    H2 6580   5.203   6.002   1.048 -0.8010  1.2557  0.2712
 2206TIP3   OH2 6581   4.107   1.172   0.514 -0.0276  0.2555 -0.3741
 2206TIP3    H1 6582   4.157   1.122   0.449 -0.3652 -1.2118  0.4739
 2206TIP3    H2 6583   4.048   1.226   0.461  0.5336 -0.0120 -1.3122
 2207TIP3   OH2 6584   6.942   3.698   1.943  0.9314  0.4554  0.3142
 2207TIP3    H1 6585   6.964   3.623   1.998 -0.9683  0.0034  0.5294
 2207TIP3    H2 6586   6.888   3.661   1.873 -0.1467  1.6035  0.4935
 2208TIP3   OH2 6587   2.107   4.007   1.724 -0.0289  0.3988  0.2262
 2208TIP3    H1 6588   2.162   3.986   1.799 -2.7632 -1.2187  1.8987
 2208TIP3    H2 6589   2.050   3.932   1.713 -3.2867  2.7232 -0.1057
 2209TIP3   OH2 6590   6.206   0.078   3.246 -0.1408  0.0821 -0.0352
 2209TIP3    H1 6591   6.178  -0.012   3.265 -1.4776  0.9458  2.5615
 2209TIP3    H2 6592   6.251   0.106   3.325  0.0429  1.7797 -0.7128
 2210TIP3   OH2 6593   0.826   0.662   4.364 -0.2727 -0.5945  0.0472
 2210TIP3    H1 6594   0.732   0.642   4.358 -0.5133  0.5723 -0.3087
 2210TIP3    H2 6595   0.868   0.576   4.364 -1.1752 -1.1202 -2.7090
 2211TIP3   OH2 6596   1.766   5.276   0.325  0.2879  0.0453 -0.4768
 2211TIP3    H1 6597   1.806   5.355   0.289 -0.7326  0.4620 -0.7207
 2211TIP3    H2 6598   1.767   5.289   0.419  0.5636  0.1198 -0.4874
 2212TIP3   OH2 6599   6.031   6.349   0.253  0.1885  0.2290 -0.1056
 2212TIP3    H1 6600   6.005   6.259   0.236 -0.2044  0.5146 -1.1328
 2212TIP3    H2 6601   6.119   6.356   0.216  0.5932  0.0291  0.7992
 2213TIP3   OH2 6602   6.427   0.610   3.445 -0.3020 -0.3980 -0.0182
 2213TIP3    H1 6603   6.445   0.580   3.355  0.6637 -1.4179  0.4798
 2213TIP3    H2 6604   6.456   0.537   3.500 -0.3837  0.4290  1.1533
 2214TIP3   OH2 6605   2.714   4.156   5.234  0.7076 -0.0480 -0.2263
 2214TIP3    H1 6606   2.724   4.221   5.164  0.8428 -0.3704 -0.5089
 2214TIP3    H2 6607   2.803   4.126   5.252  1.0442  1.8624  1.8800
 2215TIP3   OH2 6608   4.160   3.375   5.673  0.1091 -0.3991  0.0112
 2215TIP3    H1 6609   4.136   3.448   5.616 -1.2417 -0.8856 -0.0901
 2215TIP3    H2 6610   4.161   3.299   5.616  1.9000 -0.4433  0.0384
 2216TIP3   OH2 6611   6.102   5.395   0.167 -0.9377  0.0438  0.2545
 2216TIP3    H1 6612   6.159   5.344   0.110 -2.6419 -1.5348 -0.1447
 2216TIP3    H2 6613   6.100   5.482   0.126 -0.3373 -0.4145 -0.8013
 2217TIP3   OH2 6614   5.905   1.210   1.348  0.5923  0.2217  1.1035
 2217TIP3    H1 6615   5.884   1.122   1.380  1.3002  0.3517  1.9723
 2217TIP3    H2 6616   5.992   1.200   1.308 -0.8033 -0.2378 -2.1074
 2218TIP3   OH2 6617   1.856   0.978   2.018 -0.8503  0.0572  1.0984
 2218TIP3    H1 6618   1.805   1.058   2.006  0.4457  0.8937  1.0150
 2218TIP3    H2 6619   1.929   1.003   2.074  0.3443 -0.7139 -0.0324
 2219TIP3   OH2 6620   5.735   0.115   5.556  0.3499 -0.1023 -0.0320
 2219TIP3    H1 6621   5.690   0.038   5.521 -0.7730  0.0821  0.9567
 2219TIP3    H2 6622   5.807   0.130   5.494 -0.4358 -0.9065 -1.1973
 2220TIP3   OH2 6623   0.378   3.288   2.328  0.3489  0.2231  0.1357
 2220TIP3    H1 6624   0.320   3.347   2.281  0.5728 -0.8816 -1.6210
 2220TIP3    H2 6625   0.399   3.219   2.265  1.5254 -0.7723  1.5345
 2221TIP3   OH2 6626   4.108   3.813   3.498  0.1555  0.1644  0.0164
 2221TIP3    H1 6627   4.123   3.894   3.547  0.4065  0.4220 -0.4814
 2221TIP3    H2 6628   4.122   3.836   3.406 -2.7252  0.2944 -0.4938
 2222TIP3   OH2 6629   2.819   4.696   5.066  0.2487 -0.0052 -0.4757
 2222TIP3    H1 6630   2.844   4.744   4.987  0.3966  1.2124  0.3043
 2222TIP3    H2 6631   2.832   4.757   5.138 -1.0018 -0.7042  0.3895
 2223TIP3   OH2 6632   2.507   1.713   3.626 -0.5042  0.4792  0.0819
 2223TIP3    H1 6633   2.517   1.808   3.629 -0.4831  0.4491  2.3136
 2223TIP3    H2 6634   2.438   1.699   3.560 -1.0161  2.0818  0.2136
 2224TIP3   OH2 6635   1.078   4.880   3.624 -0.2683 -0.9572 -0.1038
 2224TIP3    H1 6636   1.009   4.946   3.628  0.5289  0.0492 -1.6790
 2224TIP3    H2 6637   1.085   4.846   3.714 -0.0867  1.7645  0.9994
 2225TIP3   OH2 6638   0.791   5.657   0.139 -0.0197  0.9657  0.8342
 2225TIP3    H1 6639   0.754   5.609   0.213 -0.5806  1.2243  0.7261
 2225TIP3    H2 6640   0.738   5.630   0.064 -1.5524  3.0738  1.0633
 2226TIP3   OH2 6641   1.381   0.432   4.525  0.0678 -0.2890  0.0289
 2226TIP3    H1 6642   1.300   0.479   4.548  0.4117 -0.5791  2.0842
 2226TIP3    H2 6643   1.443   0.501   4.504 -0.6372 -0.0566 -1.4254
 2227TIP3   OH2 6644   4.904   4.970   0.506 -0.4699 -0.3233  0.4844
 2227TIP3    H1 6645   4.901   5.046   0.448 -0.2092 -0.8971 -0.2892
 2227TIP3    H2 6646   4.984   4.983   0.558 -0.3791 -0.1196  0.2940
 2228TIP3   OH2 6647   1.490   1.861   4.501  0.2932 -0.3453 -0.4243
 2228TIP3    H1 6648   1.557   1.845   4.568  1.1161  1.6417 -0.6972
 2228TIP3    H2 6649   1.537   1.905   4.430 -0.9525 -0.6252 -1.4641
 2229TIP3   OH2 6650   1.067   1.905   4.536  0.0776 -0.3852 -0.3655
 2229TIP3    H1 6651   1.069   1.949   4.452 -0.6611  0.6769  0.1409
 2229TIP3    H2 6652   1.150   1.927   4.578  0.5852 -1.1815 -0.9232
 2230TIP3   OH2 6653   5.331   0.983   2.081  0.5293  0.3124  0.2780
 2230TIP3    H1 6654   5.294   0.971   1.994  0.7323 -0.0927  0.2461
 2230TIP3    H2 6655   5.306   0.904   2.130  1.8140 -0.2553  0.0857
 2231TIP3   OH2 6656   0.563   5.928   1.675  0.0256 -0.0079 -0.5713
 2231TIP3    H1 6657   0.566   5.833   1.685 -0.1424  0.1238  0.9149
 2231TIP3    H2 6658   0.477   5.945   1.635  0.2010 -0.5009 -1.1685
 2232TIP3   OH2 6659   4.483   2.867   2.353  0.9313  0.5202 -0.0779
 2232TIP3    H1 6660   4.494   2.787   2.403 -0.3162 -0.3689 -1.1579
 2232TIP3    H2 6661   4.571   2.890   2.323  1.0269 -2.2064 -2.3229
 2233TIP3   OH2 6662   1.349   5.691   4.195  0.1085 -0.0266  0.7381
 2233TIP3    H1 6663   1.282   5.704   4.262 -0.8034  1.4340 -0.3918
 2233TIP3    H2 6664   1.301   5.694   4.112  1.1795 -1.9395 -0.0162
 2234TIP3   OH2 6665   3.685   3.675   4.965 -0.0554  0.1135  0.3111
 2234TIP3    H1 6666   3.653   3.605   4.908  0.0793 -0.7071  1.2127
 2234TIP3    H2 6667   3.687   3.753   4.909 -0.6316 -0.5028 -0.5922
 2235TIP3   OH2 6668   5.326   0.329   4.892 -0.2709  0.0851 -0.0104
 2235TIP3    H1 6669   5.301   0.372   4.811  1.2275  1.3933  0.1764
 2235TIP3    H2 6670   5.250   0.275   4.916 -1.9109  2.0007 -0.6735
 2236TIP3   OH2 6671   0.676   2.142   4.175  0.7531  0.4653 -0.2990
 2236TIP3    H1 6672   0.651   2.185   4.093  0.1764  1.9960  0.6291
 2236TIP3    H2 6673   0.623   2.186   4.242 -0.6748 -2.4504  0.6239
 2237TIP3   OH2 6674   0.447   0.146   5.422 -0.2141 -0.0888 -0.3660
 2237TIP3    H1 6675   0.363   0.112   5.389 -0.4718  0.9550 -0.8196
 2237TIP3    H2 6676   0.447   0.122   5.515 -0.1615 -1.7224 -0.7518
 2238TIP3   OH2 6677   4.975   0.502   4.791 -0.8139 -0.0668  0.5598
 2238TIP3    H1 6678   4.944   0.540   4.709  0.0964  0.9185  0.6426
 2238TIP3    H2 6679   5.057   0.549   4.809 -1.7891  0.9133  2.8523
 2239TIP3   OH2 6680   6.398   3.613   5.237  0.0375 -0.2119 -0.4255
 2239TIP3    H1 6681   6.456   3.593   5.311  0.6503  1.3754 -0.4490
 2239TIP3    H2 6682   6.454   3.604   5.160  0.3745  1.6094 -0.4292
 2240TIP3   OH2 6683   0.508   3.751   2.781  0.3861  0.2811 -0.4622
 2240TIP3    H1 6684   0.557   3.688   2.728  1.9412  0.4336  0.7285
 2240TIP3    H2 6685   0.510   3.832   2.731 -0.1491 -0.1660 -1.2162
 2241TIP3   OH2 6686   2.070   1.547   0.726 -0.1494 -0.1829  0.5616
 2241TIP3    H1 6687   2.126   1.594   0.788  0.1862  1.3753 -0.8486
 2241TIP3    H2 6688   1.989   1.598   0.724  0.3713  0.6485 -1.2973
 2242TIP3   OH2 6689   7.015   2.551   4.788  0.1564  0.0352  0.3509
 2242TIP3    H1 6690   6.935   2.541   4.735 -1.3205 -0.7982  2.5746
 2242TIP3    H2 6691   7.055   2.632   4.756  0.7485 -1.6193 -3.6579
 2243TIP3   OH2 6692   3.632   2.353   2.416  0.4457  0.4364 -0.0154
 2243TIP3    H1 6693   3.557   2.301   2.386  1.5839 -1.3022  0.0439
 2243TIP3    H2 6694   3.597   2.441   2.426 -1.1580  0.0492 -1.7251
 2244TIP3   OH2 6695   3.259   2.067   4.999 -0.4658  0.3009  0.1475
 2244TIP3    H1 6696   3.287   2.061   5.090 -1.8680  0.2643  0.6129
 2244TIP3    H2 6697   3.163   2.070   5.004 -0.6249 -0.7814 -1.3758
 2245TIP3   OH2 6698   0.151   4.222   4.836 -0.7616 -0.0296 -0.3922
 2245TIP3    H1 6699   0.143   4.308   4.877 -2.9263 -0.3103 -0.1045
 2245TIP3    H2 6700   0.168   4.163   4.909 -0.4475 -0.0035 -0.4426
 2246TIP3   OH2 6701   1.068   4.369   5.041  0.2670  0.1540 -0.1968
 2246TIP3    H1 6702   1.117   4.297   5.082 -2.1221 -1.8822 -0.6754
 2246TIP3    H2 6703   1.022   4.410   5.114  1.0707  0.7596 -0.0190
 2247TIP3   OH2 6704   4.303   3.124   3.030 -0.0300  0.1315  0.2683
 2247TIP3    H1 6705   4.340   3.158   2.949  2.1555 -1.9369  0.2954
 2247TIP3    H2 6706   4.208   3.136   3.021 -0.0071 -1.2167 -3.2180
 2248TIP3   OH2 6707   4.614   3.997   3.314  0.0444 -0.2926  0.2851
 2248TIP3    H1 6708   4.635   3.910   3.281  0.0645 -0.4210  0.6310
 2248TIP3    H2 6709   4.539   3.984   3.372 -1.8518  0.3316 -1.8745
 2249TIP3   OH2 6710   2.638   3.669   5.626 -0.4080  0.5055 -0.0387
 2249TIP3    H1 6711   2.637   3.764   5.612  0.2336  0.2755 -1.9842
 2249TIP3    H2 6712   2.712   3.653   5.684  1.6908  0.9540 -2.4298
 2250TIP3   OH2 6713   0.997   5.848   4.610 -0.3439  0.4240 -0.2068
 2250TIP3    H1 6714   1.057   5.775   4.599 -0.7997 -0.1119  0.7394
 2250TIP3    H2 6715   0.916   5.809   4.644 -1.1047  1.1801 -1.0630
 2251TIP3   OH2 6716   4.752   3.603   2.796 -0.4500  0.3899 -0.2123
 2251TIP3    H1 6717   4.819   3.649   2.746 -0.2371  3.8155  2.8574
 2251TIP3    H2 6718   4.669   3.627   2.754 -0.0972  0.5597 -0.8191
 2252TIP3   OH2 6719   5.579   3.791   2.962 -0.0706  0.1549 -0.1820
 2252TIP3    H1 6720   5.640   3.863   2.977  1.3004 -0.7597 -1.1547
 2252TIP3    H2 6721   5.515   3.826   2.901 -0.5143  1.1099  0.7969
 2253TIP3   OH2 6722   2.899   1.384   3.781  0.5394 -0.1424 -0.1955
 2253TIP3    H1 6723   2.927   1.430   3.702  1.0843  0.1731  0.1838
 2253TIP3    H2 6724   2.965   1.315   3.794  0.2901 -0.3813 -0.1773
 2254TIP3   OH2 6725   2.615   5.361   3.975 -0.1709  0.4199  0.3249
 2254TIP3    H1 6726   2.643   5.334   4.063  1.0719  2.1818  0.5423
 2254TIP3    H2 6727   2.542   5.421   3.992 -0.0085  0.6663  0.1482
 2255TIP3   OH2 6728   5.858   5.878   0.653  0.3520  0.1066  0.0939
 2255TIP3    H1 6729   5.811   5.945   0.703  0.5347 -1.1490  2.0841
 2255TIP3    H2 6730   5.796   5.851   0.585 -0.1187  1.5224 -0.0712
 2256TIP3   OH2 6731   6.729   4.035   1.471 -0.1750 -0.1187 -0.6289
 2256TIP3    H1 6732   6.676   3.958   1.492  1.0953 -0.6395  0.8452
 2256TIP3    H2 6733   6.781   4.008   1.395  0.7671 -1.0184  0.2910
 2257TIP3   OH2 6734   7.114   6.049   1.869 -0.2099  0.2674  0.3216
 2257TIP3    H1 6735   7.156   6.074   1.951  1.5854 -0.1511 -0.4038
 2257TIP3    H2 6736   7.135   6.121   1.809 -3.1054  1.5166  0.6314
 2258TIP3   OH2 6737   6.458   4.494   5.275 -0.3721  0.1628 -0.4336
 2258TIP3    H1 6738   6.477   4.447   5.357 -0.1013  2.6834  1.0457
 2258TIP3    H2 6739   6.532   4.472   5.218  1.7644  1.6444  1.5665
 2259TIP3   OH2 6740   0.172   0.102   0.438  0.3604 -0.4571 -0.1578
 2259TIP3    H1 6741   0.259   0.130   0.466  0.4405  0.3356 -1.1472
 2259TIP3    H2 6742   0.188   0.052   0.357  0.2699 -3.8427  1.7066
 2260TIP3   OH2 6743   2.190   0.015   0.965  0.7526  0.2005  0.5250
 2260TIP3    H1 6744   2.268  -0.039   0.978  0.3794 -0.3479  0.5021
 2260TIP3    H2 6745   2.207   0.064   0.885  0.4172 -1.1021 -0.3795
 2261TIP3   OH2 6746   1.508   4.102   2.905 -0.2755 -0.0902 -0.0315
 2261TIP3    H1 6747   1.442   4.133   2.968 -1.3128 -2.2817  0.0433
 2261TIP3    H2 6748   1.559   4.181   2.884 -1.4187  1.2047  1.6948
 2262TIP3   OH2 6749   6.218   4.574   3.474 -0.5959  0.3727  0.1081
 2262TIP3    H1 6750   6.270   4.494   3.478  0.3476  0.8410 -1.6196
 2262TIP3    H2 6751   6.240   4.612   3.389 -2.9106  1.2055 -0.1740
 2263TIP3   OH2 6752   0.917   4.629   2.956 -0.1459 -0.1145 -0.3866
 2263TIP3    H1 6753   0.902   4.678   2.875  0.3931  1.8488  0.6435
 2263TIP3    H2 6754   0.938   4.696   3.022 -0.7559 -1.6175  1.4405
 2264TIP3   OH2 6755   2.529   0.049   0.906  0.2878  0.1300 -0.5040
 2264TIP3    H1 6756   2.540   0.014   0.994 -1.2539  0.9604  0.0464
 2264TIP3    H2 6757   2.570  -0.016   0.849 -0.5802 -1.4772  0.6420
 2265TIP3   OH2 6758   0.468   2.551   2.032 -0.1399  0.2239 -0.3212
 2265TIP3    H1 6759   0.528   2.623   2.050  0.3687 -0.3442  0.3140
 2265TIP3    H2 6760   0.396   2.564   2.093  0.7938 -0.7685  1.0663
 2266TIP3   OH2 6761   4.276   4.830   3.990  0.1404 -0.1693  0.0249
 2266TIP3    H1 6762   4.186   4.810   4.016 -0.5792  0.1184 -2.0435
 2266TIP3    H2 6763   4.282   4.801   3.899  2.2241 -0.3801  0.1825
 2267TIP3   OH2 6764   6.549   6.700   4.388  0.7078 -0.1788 -0.3444
 2267TIP3    H1 6765   6.466   6.678   4.431  0.5210 -1.7058 -1.4524
 2267TIP3    H2 6766   6.581   6.618   4.352  2.9169  0.3037  0.3587
 2268TIP3   OH2 6767   5.458   1.947   0.357 -0.3409  0.1078 -0.5865
 2268TIP3    H1 6768   5.367   1.921   0.339 -0.4590  0.4912 -0.5549
 2268TIP3    H2 6769   5.503   1.865   0.376 -1.1654  0.0866  1.5540
 2269TIP3   OH2 6770   1.339   3.333   5.706 -0.4355  0.3682 -0.2298
 2269TIP3    H1 6771   1.331   3.350   5.612 -1.6495 -0.7682 -0.3526
 2269TIP3    H2 6772   1.249   3.315   5.735 -0.2786  1.8763  1.4007
 2270TIP3   OH2 6773   5.489   2.341   5.680  0.1228 -0.2763 -0.2558
 2270TIP3    H1 6774   5.527   2.295   5.605 -0.9324  0.0285 -0.9955
 2270TIP3    H2 6775   5.420   2.283   5.712  0.6909 -0.4911  0.6138
 2271TIP3   OH2 6776   7.058   5.177   4.888 -0.1582 -0.0299  0.1158
 2271TIP3    H1 6777   6.981   5.150   4.938  0.4354 -0.1842  0.9638
 2271TIP3    H2 6778   7.053   5.127   4.807 -0.2984 -0.9648  0.6945
 2272TIP3   OH2 6779   3.014   0.957   0.661  0.2168  0.0246 -0.1413
 2272TIP3    H1 6780   2.941   1.018   0.652 -0.0554 -0.2049  0.4236
 2272TIP3    H2 6781   2.989   0.882   0.607  0.1647  0.0620 -0.1690
 2273TIP3   OH2 6782   2.020   5.478   2.052 -0.0541 -0.3681  0.2346
 2273TIP3    H1 6783   2.075   5.430   1.991  0.7587  0.2440  0.4684
 2273TIP3    H2 6784   2.073   5.486   2.131 -0.8165 -0.5255  0.7795
 2274TIP3   OH2 6785   2.650   6.573   0.617  0.5896 -0.4722  0.4296
 2274TIP3    H1 6786   2.627   6.566   0.710  0.2338  2.1189  0.5852
 2274TIP3    H2 6787   2.742   6.598   0.617 -0.2504  3.0825  0.2988
 2275TIP3   OH2 6788   6.892   1.874   2.269 -0.5313  0.0707  0.4102
 2275TIP3    H1 6789   6.829   1.880   2.197 -0.9943  0.0865  0.8120
 2275TIP3    H2 6790   6.973   1.908   2.232 -1.1683  1.6549  0.3696
 2276TIP3   OH2 6791   3.680   2.522   0.881 -0.1042  0.2740 -0.2794
 2276TIP3    H1 6792   3.639   2.496   0.798 -0.4861 -0.7888  0.2239
 2276TIP3    H2 6793   3.772   2.496   0.871 -0.1526  0.1348 -0.3656
 2277TIP3   OH2 6794   1.316   1.346   2.861 -0.0577  0.1225 -0.0702
 2277TIP3    H1 6795   1.270   1.298   2.793 -0.1780 -0.2072  0.2432
 2277TIP3    H2 6796   1.341   1.280   2.926 -0.4536  0.5119  0.4946
 2278TIP3   OH2 6797   5.640   1.122   2.770  0.0066  0.4859 -0.2204
 2278TIP3    H1 6798   5.685   1.068   2.705  0.5895  2.7763 -1.8410
 2278TIP3    H2 6799   5.698   1.122   2.846  0.4534 -0.3342 -0.5505
 2279TIP3   OH2 6800   6.922   4.176   3.746  0.3023 -0.1257 -0.1628
 2279TIP3    H1 6801   6.887   4.099   3.702  0.8772 -1.6177  1.8773
 2279TIP3    H2 6802   6.942   4.147   3.835  2.8326  1.7003 -0.0154
 2280TIP3   OH2 6803   5.310   2.087   5.499  0.4717 -0.1012  0.6059
 2280TIP3    H1 6804   5.354   2.150   5.441  0.2421 -1.2817 -0.9157
 2280TIP3    H2 6805   5.217   2.107   5.489  0.4746  0.4165  1.4738
 2281TIP3   OH2 6806   6.054   3.349   1.977 -0.4688  0.4029 -0.0385
 2281TIP3    H1 6807   6.094   3.406   2.043  0.0376  0.6321 -0.5318
 2281TIP3    H2 6808   6.061   3.261   2.013  0.6257  0.4202 -0.1636
 2282TIP3   OH2 6809   2.953   2.542   3.339 -0.6307 -0.0305  0.0676
 2282TIP3    H1 6810   2.914   2.597   3.407 -2.1792 -0.8362 -0.1084
 2282TIP3    H2 6811   2.881   2.485   3.311 -0.0210  0.1885 -2.1532
 2283TIP3   OH2 6812   3.999   2.304   3.282  0.3191 -0.0844 -0.1226
 2283TIP3    H1 6813   3.930   2.359   3.318  0.1393 -0.4909  0.1600
 2283TIP3    H2 6814   3.989   2.312   3.187  0.9042  1.1298 -0.0994
 2284TIP3   OH2 6815   4.493   0.816   1.302  0.2491  0.6230  0.2876
 2284TIP3    H1 6816   4.516   0.843   1.213  0.5185  2.2914  0.8305
 2284TIP3    H2 6817   4.410   0.768   1.292  0.7601 -0.0530 -0.9474
 2285TIP3   OH2 6818   4.128   5.818   3.037 -0.1071 -0.4639  0.3576
 2285TIP3    H1 6819   4.195   5.882   3.057 -1.6869  1.5182 -0.3720
 2285TIP3    H2 6820   4.050   5.849   3.083 -0.9029 -1.9445  0.0871
 2286TIP3   OH2 6821   2.718   2.912   0.110 -0.5527 -0.5542 -0.3024
 2286TIP3    H1 6822   2.728   2.822   0.080 -0.1507  0.2604 -2.8273
 2286TIP3    H2 6823   2.644   2.946   0.060  0.9161  1.2380 -1.3723
 2287TIP3   OH2 6824   2.065   2.442   0.254  0.1048 -0.4847 -0.1145
 2287TIP3    H1 6825   1.979   2.434   0.296 -0.7488  0.4310 -1.6069
 2287TIP3    H2 6826   2.112   2.364   0.283 -2.1904 -2.5038 -1.3915
 2288TIP3   OH2 6827   3.710   1.889   4.474 -0.6849 -0.2483 -0.1142
 2288TIP3    H1 6828   3.706   1.828   4.548 -2.3440  0.3781  0.3706
 2288TIP3    H2 6829   3.661   1.966   4.504 -1.4420  0.0026 -1.8841
 2289TIP3   OH2 6830   4.780   1.071   1.963 -0.2314  0.1545 -0.2905
 2289TIP3    H1 6831   4.861   1.049   2.009 -0.2977  1.0957  0.2933
 2289TIP3    H2 6832   4.801   1.058   1.870  0.5029  0.1310 -0.1273
 2290TIP3   OH2 6833   0.481   1.668   1.005  0.9728 -0.3182  0.4374
 2290TIP3    H1 6834   0.399   1.709   1.033  0.8042  0.7045 -1.3766
 2290TIP3    H2 6835   0.465   1.574   1.011  0.0255 -0.1192  1.0798
 2291TIP3   OH2 6836   3.246   5.972   0.478  0.3217  0.0149  0.0978
 2291TIP3    H1 6837   3.204   5.908   0.535  1.4456 -1.4796 -0.6806
 2291TIP3    H2 6838   3.176   6.030   0.450 -0.8515 -1.2472  0.3442
 2292TIP3   OH2 6839   1.020   0.785   0.512 -0.2284  0.1345 -0.4119
 2292TIP3    H1 6840   1.087   0.764   0.447  1.0722 -2.4121  1.5722
 2292TIP3    H2 6841   1.063   0.846   0.572 -0.4448  0.2633 -0.3877
 2293TIP3   OH2 6842   1.860   5.833   4.136 -0.7749 -0.1858 -0.0722
 2293TIP3    H1 6843   1.882   5.876   4.219  1.8822 -1.0963 -0.2184
 2293TIP3    H2 6844   1.915   5.755   4.134 -1.1984 -0.5079 -2.4504
 2294TIP3   OH2 6845   5.881   3.323   3.000 -0.3366 -0.8391 -0.1171
 2294TIP3    H1 6846   5.821   3.302   3.072  0.1571  1.3493  1.0126
 2294TIP3    H2 6847   5.954   3.368   3.041  0.2369 -0.0060 -1.9244
 2295TIP3   OH2 6848   5.317   4.856   3.940  0.6135 -0.4208  1.0137
 2295TIP3    H1 6849   5.276   4.773   3.915 -1.9946  0.5549  1.6631
 2295TIP3    H2 6850   5.330   4.849   4.034 -0.0489  0.0504  1.1492
 2296TIP3   OH2 6851   4.435   4.529   4.269  0.7062  0.3028 -0.5521
 2296TIP3    H1 6852   4.478   4.459   4.220 -0.2916 -0.0794 -0.9219
 2296TIP3    H2 6853   4.420   4.490   4.356  1.1768  0.4673 -0.3951
 2297TIP3   OH2 6854   6.844   4.022   0.311 -0.6031 -0.3551 -0.5128
 2297TIP3    H1 6855   6.901   4.092   0.340 -0.6684 -0.7701  0.6914
 2297TIP3    H2 6856   6.888   3.985   0.234  2.4790 -2.6534  2.0483
 2298TIP3   OH2 6857   5.619   6.314   0.724  0.2128 -0.2939  0.2325
 2298TIP3    H1 6858   5.531   6.347   0.702 -0.0786  0.2173  2.0536
 2298TIP3    H2 6859   5.675   6.392   0.721  0.2038 -0.2495  1.0699
 2299TIP3   OH2 6860   1.980   0.351   4.358 -0.5493 -0.1364 -0.4482
 2299TIP3    H1 6861   1.925   0.323   4.430  2.2879  0.7503  2.2834
 2299TIP3    H2 6862   1.945   0.436   4.332 -1.4960 -0.3818  0.0040
 2300TIP3   OH2 6863   2.363   2.786   1.981  0.5782  0.1242 -0.6058
 2300TIP3    H1 6864   2.329   2.696   1.989  1.1514 -0.1298 -0.9457
 2300TIP3    H2 6865   2.454   2.774   1.954  0.7314  0.8101 -0.3903
 2301TIP3   OH2 6866   6.363   2.306   1.964 -0.5644 -0.1245  0.2005
 2301TIP3    H1 6867   6.305   2.329   2.037 -1.9590  0.3071 -0.9903
 2301TIP3    H2 6868   6.368   2.211   1.967  1.9482 -0.0317  2.7035
 2302TIP3   OH2 6869   2.336   0.224   0.831  1.0128  0.6030 -0.1119
 2302TIP3    H1 6870   2.417   0.195   0.874  0.5311 -0.4291  0.1136
 2302TIP3    H2 6871   2.344   0.193   0.741 -0.2929 -1.9569  0.5550
 2303TIP3   OH2 6872   0.744   1.448   2.727  0.4236 -0.5644 -0.3751
 2303TIP3    H1 6873   0.805   1.424   2.796  0.3395 -1.1243 -0.4959
 2303TIP3    H2 6874   0.658   1.449   2.771  0.1042 -2.7516 -0.8596
 2304TIP3   OH2 6875   0.552   3.288   0.468  0.4965 -0.8906  0.5303
 2304TIP3    H1 6876   0.516   3.250   0.387  0.6100 -0.6662  0.3720
 2304TIP3    H2 6877   0.487   3.353   0.495 -0.0930 -1.7603  1.2511
 2305TIP3   OH2 6878   2.303   4.445   2.557  0.4940 -0.0178 -0.0441
 2305TIP3    H1 6879   2.295   4.418   2.466 -0.8605 -0.8420  0.2985
 2305TIP3    H2 6880   2.387   4.492   2.560 -0.0380  1.1887 -1.9730
 2306TIP3   OH2 6881   1.395   1.562   4.093 -0.6813 -0.0410 -0.5781
 2306TIP3    H1 6882   1.363   1.638   4.141  0.2042 -0.3033  0.4625
 2306TIP3    H2 6883   1.368   1.487   4.146  0.3989 -0.3275 -0.3986
 2307TIP3   OH2 6884   6.735   5.426   4.291 -0.8008  0.4036 -0.0667
 2307TIP3    H1 6885   6.649   5.467   4.287 -1.5074 -0.7656  1.8213
 2307TIP3    H2 6886   6.741   5.376   4.209 -0.5756  2.8261 -1.6550
 2308TIP3   OH2 6887   1.720   4.340   1.135  0.9874  0.0348  0.9291
 2308TIP3    H1 6888   1.648   4.339   1.073  0.6897  0.1563  1.2691
 2308TIP3    H2 6889   1.713   4.256   1.182  2.0888 -0.7157 -0.1891
 2309TIP3   OH2 6890   2.155   2.231   3.314  0.0982  0.1946  0.2569
 2309TIP3    H1 6891   2.199   2.198   3.236 -1.2290  1.0977 -0.9349
 2309TIP3    H2 6892   2.073   2.268   3.281 -0.6204  0.3834  2.1226
 2310TIP3   OH2 6893   2.510   4.740   5.669  0.2067  0.0350  0.8451
 2310TIP3    H1 6894   2.419   4.715   5.681  0.0895  0.7707  1.5595
 2310TIP3    H2 6895   2.542   4.683   5.599 -1.4451  1.3526 -1.0907
 2311TIP3   OH2 6896   5.385   5.068   1.256 -0.0220 -0.4681 -0.2483
 2311TIP3    H1 6897   5.377   4.973   1.265  0.2960 -0.5603 -0.8603
 2311TIP3    H2 6898   5.471   5.081   1.216 -0.2610  0.0508 -0.6032
 2312TIP3   OH2 6899   4.412   0.344   2.970 -0.4393 -0.5695  0.6773
 2312TIP3    H1 6900   4.438   0.254   2.987 -2.5155 -1.2642  0.4591
 2312TIP3    H2 6901   4.477   0.376   2.907  0.8936 -1.5510  1.4952
 2313TIP3   OH2 6902   6.764   0.072   3.528  0.6853  0.4894 -0.6465
 2313TIP3    H1 6903   6.704   0.132   3.484  0.6484  1.0839  0.1914
 2313TIP3    H2 6904   6.730  -0.015   3.507  0.4066  0.7719 -1.4039
 2314TIP3   OH2 6905   5.739   2.526   4.039 -0.1444  0.6740  0.1386
 2314TIP3    H1 6906   5.664   2.512   3.980 -0.2830  1.0273  0.2291
 2314TIP3    H2 6907   5.816   2.507   3.985 -0.3050  0.0987  0.1032
 2315TIP3   OH2 6908   1.233   0.103   4.513 -0.3400  0.4172  0.0593
 2315TIP3    H1 6909   1.145   0.112   4.475 -0.5934 -1.0721  0.2262
 2315TIP3    H2 6910   1.265   0.020   4.478  0.1569 -0.0785  1.6488
 2316TIP3   OH2 6911   5.545   0.591   4.822  0.2571  0.0749 -0.4242
 2316TIP3    H1 6912   5.552   0.618   4.730 -0.3783  1.4424 -0.0943
 2316TIP3    H2 6913   5.620   0.632   4.865  0.1004  0.1115 -0.1841
 2317TIP3   OH2 6914   5.820   5.692   1.141 -0.2145  0.2661  0.0069
 2317TIP3    H1 6915   5.842   5.785   1.134 -0.4313  0.2462 -1.0962
 2317TIP3    H2 6916   5.894   5.653   1.188 -1.1632  1.3509  2.6106
 2318TIP3   OH2 6917   3.662   2.225   0.010 -0.2849  0.4555  0.1277
 2318TIP3    H1 6918   3.727   2.293  -0.008 -0.1828  1.8971  4.6700
 2318TIP3    H2 6919   3.585   2.274   0.041 -1.7744 -1.4168 -0.4493
 2319TIP3   OH2 6920   5.697   3.677   3.674 -0.4402 -0.7503  0.6284
 2319TIP3    H1 6921   5.649   3.597   3.698 -1.4725 -0.4459 -0.3260
 2319TIP3    H2 6922   5.633   3.748   3.689 -0.0491 -0.2600  0.0055
 2320TIP3   OH2 6923   3.282   6.170   2.619  0.4971  0.2106  0.4316
 2320TIP3    H1 6924   3.216   6.113   2.658 -0.3912  1.7002  1.1987
 2320TIP3    H2 6925   3.266   6.164   2.524  0.1087 -0.4195  0.5292
 2321TIP3   OH2 6926   1.997   5.023   3.922 -0.2346 -0.0676 -0.1346
 2321TIP3    H1 6927   1.966   5.088   3.985 -0.9807  1.6883 -2.2183
 2321TIP3    H2 6928   2.023   4.948   3.977 -2.2982  0.7418  2.1330
 2322TIP3   OH2 6929   2.136   2.767   2.930 -0.0863 -0.5037 -0.9419
 2322TIP3    H1 6930   2.062   2.827   2.934  1.3539  1.3067  0.9256
 2322TIP3    H2 6931   2.182   2.790   2.850 -0.8638 -0.8049 -1.4808
 2323TIP3   OH2 6932   0.116   0.531   4.316 -0.4945 -0.1587 -0.0182
 2323TIP3    H1 6933   0.046   0.481   4.358 -2.9159  2.3015 -0.8278
 2323TIP3    H2 6934   0.134   0.603   4.376 -0.3034  0.5151 -0.8553
 2324TIP3   OH2 6935   1.581   0.635   2.502 -0.1213 -1.0480 -0.5223
 2324TIP3    H1 6936   1.599   0.717   2.456 -0.0551 -0.2045  0.9490
 2324TIP3    H2 6937   1.492   0.645   2.536 -0.3935 -1.9056 -0.9369
 2325TIP3   OH2 6938   3.349   4.285   5.595  0.5233  0.0010  0.1083
 2325TIP3    H1 6939   3.418   4.303   5.658 -0.5939  2.2843  0.8101
 2325TIP3    H2 6940   3.291   4.223   5.639  0.3510  0.7125  0.9197
 2326TIP3   OH2 6941   2.922   3.401   1.622 -0.2180 -0.6414  0.1327
 2326TIP3    H1 6942   2.908   3.395   1.716  0.3435 -2.1693  0.1380
 2326TIP3    H2 6943   3.016   3.417   1.612 -0.5094  1.1472 -0.1512
 2327TIP3   OH2 6944   1.866   6.581   5.894  0.0524  0.3797 -0.2081
 2327TIP3    H1 6945   1.796   6.521   5.917  1.7452 -0.6926  2.6780
 2327TIP3    H2 6946   1.891   6.555   5.805 -1.6608 -0.7137 -0.4151
 2328TIP3   OH2 6947   6.467   3.914   2.833  0.4627  0.5476 -0.2301
 2328TIP3    H1 6948   6.431   3.825   2.829  1.0135  0.3509 -1.2259
 2328TIP3    H2 6949   6.434   3.956   2.754  0.6027  1.0800 -0.0102
 2329TIP3   OH2 6950   0.329   3.688   4.235 -0.0776 -0.4983 -0.0241
 2329TIP3    H1 6951   0.314   3.644   4.318 -5.0025 -1.9610 -1.3626
 2329TIP3    H2 6952   0.318   3.781   4.254  2.3363 -0.4194  1.4011
 2330TIP3   OH2 6953   1.919   0.926   4.251 -0.2274 -0.7966 -0.1884
 2330TIP3    H1 6954   2.010   0.908   4.229 -0.1859  0.9226 -1.6052
 2330TIP3    H2 6955   1.870   0.894   4.175 -0.7072 -0.6767  0.0694
 2331TIP3   OH2 6956   1.975   0.849   3.415  0.1980  0.2110  0.1813
 2331TIP3    H1 6957   1.969   0.935   3.373 -2.6983  0.0224 -0.0123
 2331TIP3    H2 6958   1.943   0.788   3.349 -0.9493 -0.5460  1.3891
 2332TIP3   OH2 6959   3.206   2.439   4.086 -0.0334 -0.1585 -0.0724
 2332TIP3    H1 6960   3.136   2.484   4.038  0.6882  2.0875  0.8332
 2332TIP3    H2 6961   3.161   2.376   4.142 -1.0815 -0.7872 -1.5367
 2333TIP3   OH2 6962   0.633   5.426   3.675 -0.5932  0.1758  0.1112
 2333TIP3    H1 6963   0.609   5.360   3.739 -0.7195  0.1219  0.0077
 2333TIP3    H2 6964   0.640   5.379   3.592  2.1936 -0.2926  0.5127
 2334TIP3   OH2 6965   0.961   2.298   5.063  0.1388 -0.2213  0.0158
 2334TIP3    H1 6966   1.012   2.307   4.982 -0.3991 -0.1435 -0.3237
 2334TIP3    H2 6967   0.912   2.380   5.069 -1.9448 -1.3171 -1.0851
 2335TIP3   OH2 6968   0.851   1.829   2.513 -0.2393  0.5216  0.0490
 2335TIP3    H1 6969   0.826   1.743   2.478  2.6930 -0.3812 -0.0972
 2335TIP3    H2 6970   0.814   1.892   2.451 -0.2336 -0.7704 -1.3276
 2336TIP3   OH2 6971   1.715   1.469   3.275  0.5622 -0.0136  0.0090
 2336TIP3    H1 6972   1.726   1.488   3.182 -0.5582 -1.3380 -0.4248
 2336TIP3    H2 6973   1.804   1.464   3.309  1.1043  4.5469 -0.0096
 2337TIP3   OH2 6974   4.160   0.215   1.033  0.1527  0.2621 -0.7530
 2337TIP3    H1 6975   4.249   0.244   1.015  0.3119  0.3284  0.0862
 2337TIP3    H2 6976   4.107   0.295   1.031  0.1816  0.2788 -0.8364
 2338TIP3   OH2 6977   0.989   3.336   0.782 -0.3968 -0.2216 -0.0455
 2338TIP3    H1 6978   1.024   3.397   0.718  0.6829  0.3373  1.0387
 2338TIP3    H2 6979   0.949   3.266   0.730  0.3579  0.2688 -1.3075
 2339TIP3   OH2 6980   3.700   3.035   4.599 -0.0350  0.0604 -0.6624
 2339TIP3    H1 6981   3.695   3.126   4.569  1.2848  0.6347  0.7040
 2339TIP3    H2 6982   3.672   2.984   4.524 -3.9743  1.6480 -0.5217
 2340TIP3   OH2 6983   4.596   0.483   0.857  0.7173  0.1200  0.4481
 2340TIP3    H1 6984   4.680   0.472   0.814  0.2661 -0.5539 -0.3046
 2340TIP3    H2 6985   4.559   0.562   0.819 -0.3123 -1.2376 -1.5840
 2341TIP3   OH2 6986   4.957   0.789   4.292  0.3517 -0.3154  0.0094
 2341TIP3    H1 6987   4.951   0.698   4.262  2.3672 -0.5132  0.0648
 2341TIP3    H2 6988   5.050   0.807   4.292 -0.0310  1.8318 -0.1373
 2342TIP3   OH2 6989   7.164   2.572   0.107 -0.1838 -0.2739 -0.0779
 2342TIP3    H1 6990   7.128   2.644   0.056 -0.8640 -0.1560  0.5522
 2342TIP3    H2 6991   7.166   2.498   0.046 -2.0237 -0.4340  0.0041
 2343TIP3   OH2 6992   6.812   3.293   0.781 -0.1024 -0.2294 -0.1754
 2343TIP3    H1 6993   6.809   3.311   0.687  0.6740 -0.5627 -0.2778
 2343TIP3    H2 6994   6.868   3.215   0.788  0.6341  0.3576  0.6309
 2344TIP3   OH2 6995   4.259   6.629   4.313  0.4054 -0.5180  0.1156
 2344TIP3    H1 6996   4.342   6.606   4.271  0.5970 -1.2346  0.8577
 2344TIP3    H2 6997   4.251   6.568   4.386 -0.7672 -0.4381  0.0777
 2345TIP3   OH2 6998   3.504   0.400   4.164  0.4888  0.2071 -0.1807
 2345TIP3    H1 6999   3.529   0.411   4.255  2.0262 -0.1700 -0.5294
 2345TIP3    H2 7000   3.448   0.323   4.163  0.7945 -0.0246  0.3947
 2346TIP3   OH2 7001   2.939   5.344   1.300 -0.2228  0.4302 -0.6203
 2346TIP3    H1 7002   2.903   5.287   1.232  0.5180  0.5747 -1.1491
 2346TIP3    H2 7003   2.871   5.410   1.314 -1.6271 -1.2481  0.8923
 2347TIP3   OH2 7004   3.777   5.924   0.603  0.1103  0.3164 -0.2741
 2347TIP3    H1 7005   3.691   5.886   0.617  0.3295 -0.4508 -0.9716
 2347TIP3    H2 7006   3.760   6.015   0.578 -0.5768 -0.2615 -1.9933
 2348TIP3   OH2 7007   0.367   6.012   0.230  0.5783  0.2354  0.7031
 2348TIP3    H1 7008   0.434   5.958   0.189  1.8109  2.4526 -0.3346
 2348TIP3    H2 7009   0.315   6.046   0.157 -1.7936 -1.4246  1.4703
 2349TIP3   OH2 7010   1.894   5.839   5.772 -0.2200  0.1328 -0.2486
 2349TIP3    H1 7011   1.816   5.831   5.827 -0.3187  1.6168 -0.1435
 2349TIP3    H2 7012   1.869   5.798   5.689 -0.2864 -1.5519  0.5410
 2350TIP3   OH2 7013   6.365   5.476   1.807 -0.4529  0.4975  0.2392
 2350TIP3    H1 7014   6.378   5.551   1.749 -0.5876  0.9824  0.8262
 2350TIP3    H2 7015   6.299   5.506   1.870 -0.2014  0.0360  0.7281
 2351TIP3   OH2 7016   4.366   4.859   0.922  0.4903 -0.2967 -0.2643
 2351TIP3    H1 7017   4.400   4.829   0.838 -0.7350 -1.5916 -0.3381
 2351TIP3    H2 7018   4.271   4.857   0.911  0.2435  3.6231 -0.2515
 2352TIP3   OH2 7019   6.174   1.751   2.768 -0.3186 -0.2099  0.4836
 2352TIP3    H1 7020   6.249   1.753   2.828 -1.7378  0.5467  2.3208
 2352TIP3    H2 7021   6.109   1.697   2.813 -0.8629 -0.9703 -1.1475
 2353TIP3   OH2 7022   3.752   5.932   4.585 -0.2931 -0.3750 -0.2949
 2353TIP3    H1 7023   3.787   5.843   4.586  1.0666  0.1329 -0.2634
 2353TIP3    H2 7024   3.702   5.940   4.666  0.1707 -0.8940  0.0459
 2354TIP3   OH2 7025   3.326   2.421   2.253 -0.3760 -0.7086  0.0356
 2354TIP3    H1 7026   3.354   2.483   2.321 -0.9221 -0.5695  0.1407
 2354TIP3    H2 7027   3.379   2.344   2.267 -0.6642 -0.7786  0.7955
 2355TIP3   OH2 7028   4.578   4.806   3.586 -0.0144 -0.4129  0.5398
 2355TIP3    H1 7029   4.501   4.854   3.616 -0.2946  0.8443 -1.9612
 2355TIP3    H2 7030   4.653   4.860   3.613 -0.1462 -0.2396  0.5548
 2356TIP3   OH2 7031   5.866   3.835   0.717  0.6284 -0.5244 -0.1947
 2356TIP3    H1 7032   5.810   3.818   0.642  0.1721  0.0348  0.0170
 2356TIP3    H2 7033   5.872   3.751   0.762 -1.3470 -0.2451  0.6652
 2357TIP3   OH2 7034   0.025   4.879   4.805  0.2652 -0.3287 -0.2214
 2357TIP3    H1 7035   0.001   4.953   4.749  0.5299 -1.7635 -2.3224
 2357TIP3    H2 7036   0.109   4.904   4.843  0.4015  0.4294 -0.9761
 2358TIP3   OH2 7037   5.064   0.888   5.283  0.4906 -0.6181 -0.1244
 2358TIP3    H1 7038   5.116   0.843   5.216 -0.7057  0.3678 -1.7935
 2358TIP3    H2 7039   5.027   0.964   5.238  0.0385  0.3951  1.8116
 2359TIP3   OH2 7040   4.675   6.252   4.009 -0.0050  0.2321  0.1059
 2359TIP3    H1 7041   4.639   6.253   4.098  0.3702  0.8505  0.2584
 2359TIP3    H2 7042   4.600   6.267   3.952  0.1936  3.5294  0.5097
 2360TIP3   OH2 7043   2.416   1.022   4.514 -0.3240  0.0437 -0.1000
 2360TIP3    H1 7044   2.433   0.933   4.483  1.0142  0.8177 -1.7965
 2360TIP3    H2 7045   2.418   1.075   4.434 -1.6855  1.5294  0.7986
 2361TIP3   OH2 7046   2.133   5.206   0.254  0.0267  0.0180  0.5900
 2361TIP3    H1 7047   2.117   5.123   0.297 -0.3214 -0.3022 -0.1433
 2361TIP3    H2 7048   2.099   5.272   0.315 -0.4114 -0.4225  0.8276
 2362TIP3   OH2 7049   1.351   3.148   2.214  0.1064 -0.1629 -0.4142
 2362TIP3    H1 7050   1.394   3.063   2.201  1.6296  0.5930 -0.4011
 2362TIP3    H2 7051   1.400   3.190   2.284 -0.0050  1.1561 -1.1051
 2363TIP3   OH2 7052   6.678   5.623   0.352 -0.1170  0.1105  0.0966
 2363TIP3    H1 7053   6.715   5.588   0.433 -0.4912 -0.1076  0.1740
 2363TIP3    H2 7054   6.652   5.546   0.301  1.1758  0.1934 -0.7499
 2364TIP3   OH2 7055   1.274   0.336   0.119 -0.1293  0.4788 -0.7469
 2364TIP3    H1 7056   1.277   0.262   0.059  0.1340 -1.9812  2.0784
 2364TIP3    H2 7057   1.212   0.397   0.079 -1.0619 -1.6300 -2.7473
 2365TIP3   OH2 7058   2.330   3.855   5.595 -0.0889  0.0772 -0.0272
 2365TIP3    H1 7059   2.307   3.892   5.510 -0.9196 -0.6560 -0.1362
 2365TIP3    H2 7060   2.425   3.863   5.599 -0.2048  1.9891 -0.1281
 2366TIP3   OH2 7061   2.351   2.848   5.405 -0.6498  0.3379  0.2768
 2366TIP3    H1 7062   2.270   2.851   5.456 -1.4820  0.1791 -0.9865
 2366TIP3    H2 7063   2.338   2.913   5.336 -0.0024 -0.1987 -0.3683
 2367TIP3   OH2 7064   2.599   4.860   1.154 -0.6922 -0.7549 -0.0469
 2367TIP3    H1 7065   2.566   4.821   1.235  0.1800  0.1920  0.7896
 2367TIP3    H2 7066   2.639   4.942   1.182 -0.2841 -0.4637 -1.4356
 2368TIP3   OH2 7067   1.835   4.579   5.632  0.2746  0.2883 -0.8203
 2368TIP3    H1 7068   1.896   4.513   5.665 -0.4742  0.3027  0.6958
 2368TIP3    H2 7069   1.879   4.662   5.647 -0.5128  0.3732  1.3168
 2369TIP3   OH2 7070   6.090   4.343   4.604  0.2852 -0.2967  0.3445
 2369TIP3    H1 7071   6.045   4.259   4.602  1.2680 -0.8402  0.6790
 2369TIP3    H2 7072   6.050   4.390   4.677  0.0418 -0.6393  0.4329
 2370TIP3   OH2 7073   3.595   1.314   3.913 -0.1146 -0.4554  0.4518
 2370TIP3    H1 7074   3.589   1.268   3.829 -0.8548  0.6285 -0.1122
 2370TIP3    H2 7075   3.523   1.279   3.965 -0.2856 -0.3919  0.2587
 2371TIP3   OH2 7076   5.822   1.022   0.783  0.5726  0.5437  0.2144
 2371TIP3    H1 7077   5.795   0.930   0.772 -0.1342  0.9865 -2.5133
 2371TIP3    H2 7078   5.740   1.071   0.774  1.2738  1.5506 -0.8561
 2372TIP3   OH2 7079   7.065   3.424   0.299 -0.1298  0.7430 -0.5673
 2372TIP3    H1 7080   7.045   3.472   0.219 -0.7012 -1.0384 -1.5363
 2372TIP3    H2 7081   6.980   3.411   0.341 -0.2866 -1.1717 -1.3797
 2373TIP3   OH2 7082   1.107   4.259   0.357 -0.5830  0.3550  0.0830
 2373TIP3    H1 7083   1.035   4.274   0.296 -0.7982 -0.4733  0.1177
 2373TIP3    H2 7084   1.101   4.330   0.420 -1.7902 -0.0762  0.4740
 2374TIP3   OH2 7085   0.509   3.900   0.677 -0.0629  0.0068  0.0600
 2374TIP3    H1 7086   0.466   3.898   0.762  2.1052 -0.2130  1.2145
 2374TIP3    H2 7087   0.579   3.964   0.687 -0.0263  0.2861 -1.7184
 2375TIP3   OH2 7088   2.206   2.933   4.816 -0.0573  0.2810  0.0057
 2375TIP3    H1 7089   2.179   3.023   4.834 -0.1231  0.3730 -0.5410
 2375TIP3    H2 7090   2.251   2.905   4.896 -2.0534 -0.0019  1.0824
 2376TIP3   OH2 7091   2.269   3.217   3.075  0.6967 -0.3214  0.2275
 2376TIP3    H1 7092   2.304   3.304   3.098 -0.1278  0.7343 -2.1134
 2376TIP3    H2 7093   2.317   3.193   2.995 -1.1768 -0.5919 -0.8693
 2377TIP3   OH2 7094   2.485   0.332   3.009 -0.0433  0.4134 -0.2073
 2377TIP3    H1 7095   2.516   0.373   2.928 -1.2104  1.5029 -0.1435
 2377TIP3    H2 7096   2.552   0.352   3.074  0.2441  0.7111 -0.5919
 2378TIP3   OH2 7097   2.310   1.962   4.377  0.1590  0.2523 -0.0218
 2378TIP3    H1 7098   2.386   2.006   4.339  1.0611  0.4005  1.8262
 2378TIP3    H2 7099   2.305   1.878   4.333  0.8639  0.6011 -0.7722
 2379TIP3   OH2 7100   6.342   4.170   5.261 -0.7701  0.1560 -0.1676
 2379TIP3    H1 7101   6.287   4.197   5.335 -0.3865 -0.7150  0.4478
 2379TIP3    H2 7102   6.361   4.251   5.214 -1.4569  0.6445  0.3835
 2380TIP3   OH2 7103   1.771   0.670   1.716  0.1090 -0.8677  0.2656
 2380TIP3    H1 7104   1.749   0.716   1.635 -0.4324 -2.1792 -0.3579
 2380TIP3    H2 7105   1.692   0.675   1.769  0.8636  1.1276  1.3259
 2381TIP3   OH2 7106   6.096   2.531   5.517  0.7336  0.5263 -0.2531
 2381TIP3    H1 7107   6.166   2.465   5.516  1.6869  1.4420 -3.1682
 2381TIP3    H2 7108   6.104   2.573   5.603  2.0911 -1.0824  0.4661
 2382TIP3   OH2 7109   3.520   5.756   2.617 -0.5987 -0.2432 -0.2200
 2382TIP3    H1 7110   3.603   5.712   2.638 -0.6990  0.2629  1.3064
 2382TIP3    H2 7111   3.544   5.849   2.609 -0.8478 -0.2257 -0.8841
 2383TIP3   OH2 7112   0.266   0.029   2.109  0.5419 -0.0237  0.6320
 2383TIP3    H1 7113   0.319  -0.041   2.147 -0.2069 -1.0520 -0.1533
 2383TIP3    H2 7114   0.326   0.103   2.102  0.9693 -0.0696  2.8731
 2384TIP3   OH2 7115   6.576   1.533   2.868  1.0966  0.2945 -0.5121
 2384TIP3    H1 7116   6.547   1.499   2.783  0.1863  0.2163 -0.1849
 2384TIP3    H2 7117   6.508   1.505   2.929  0.9781  1.6009 -0.0089
 2385TIP3   OH2 7118   6.394   2.896   5.862  0.7596 -0.3101  0.2989
 2385TIP3    H1 7119   6.409   2.843   5.784  0.3452 -2.3461  1.5241
 2385TIP3    H2 7120   6.310   2.865   5.897 -0.9535  3.0788 -0.3490
 2386TIP3   OH2 7121   0.708   0.269   5.337 -0.5850  0.4697  0.1331
 2386TIP3    H1 7122   0.664   0.352   5.356  1.0038  1.2884  0.4072
 2386TIP3    H2 7123   0.636   0.207   5.321 -1.8372  1.5537  1.2700
 2387TIP3   OH2 7124   5.041   5.515   0.531 -0.0783  0.5400  0.0897
 2387TIP3    H1 7125   5.102   5.589   0.528  0.3226  0.2635  0.9770
 2387TIP3    H2 7126   4.964   5.550   0.575  0.1411  0.4230  0.5791
 2388TIP3   OH2 7127   4.946   5.122   3.798  0.0360  0.2193  0.0562
 2388TIP3    H1 7128   4.886   5.154   3.865  0.2606 -1.2643  1.0082
 2388TIP3    H2 7129   4.983   5.201   3.759 -0.5842  1.1172  1.2292
 2389TIP3   OH2 7130   0.088   3.257   5.825  0.2142  0.7473  0.5981
 2389TIP3    H1 7131   0.081   3.346   5.790 -0.7801  0.8033  0.9103
 2389TIP3    H2 7132   0.179   3.249   5.851  0.7747  1.0143 -1.1645
 2390TIP3   OH2 7133   2.901   0.043   4.513  0.0679  0.1958 -0.0671
 2390TIP3    H1 7134   2.827   0.050   4.573  0.5524 -1.1714  0.7413
 2390TIP3    H2 7135   2.921  -0.051   4.511  0.9980  0.4001 -1.2277
 2391TIP3   OH2 7136   6.771   0.897   2.145  0.3889 -0.4019 -0.4934
 2391TIP3    H1 7137   6.810   0.958   2.207 -2.6293 -0.2195  1.4499
 2391TIP3    H2 7138   6.811   0.812   2.166  0.8326  0.0100  0.3780
 2392TIP3   OH2 7139   5.563   0.283   4.565 -0.3511 -0.3310 -0.0611
 2392TIP3    H1 7140   5.512   0.243   4.636  0.7467 -1.9862 -0.1568
 2392TIP3    H2 7141   5.641   0.318   4.609 -0.7097  0.6372 -0.1658
 2393TIP3   OH2 7142   1.513   0.885   4.676  0.4768  0.3070  0.6675
 2393TIP3    H1 7143   1.522   0.980   4.687  0.7228  0.6624 -1.8555
 2393TIP3    H2 7144   1.597   0.849   4.704  1.3854  1.1594 -0.8485
 2394TIP3   OH2 7145   4.746   4.731   3.384 -0.2946 -0.7940 -0.4400
 2394TIP3    H1 7146   4.698   4.708   3.305 -2.2722 -3.4188  1.3572
 2394TIP3    H2 7147   4.679   4.763   3.444  0.5681 -2.0977  1.2917
 2395TIP3   OH2 7148   6.867   0.150   1.357  0.0820  0.4144 -0.3637
 2395TIP3    H1 7149   6.911   0.232   1.381  0.8438 -0.0574 -0.1020
 2395TIP3    H2 7150   6.938   0.087   1.346 -0.5578 -0.5344  0.6926
 2396TIP3   OH2 7151   4.439   0.305   0.530  0.1972 -0.6419 -0.4124
 2396TIP3    H1 7152   4.376   0.255   0.477 -1.0781  0.5509 -0.0756
 2396TIP3    H2 7153   4.417   0.283   0.620  1.5000 -1.6326 -0.3054
 2397TIP3   OH2 7154   6.087   2.737   0.384 -0.0966  0.2553 -0.1649
 2397TIP3    H1 7155   6.038   2.807   0.342 -2.1859 -0.1515  1.4100
 2397TIP3    H2 7156   6.112   2.678   0.313 -1.8467  0.5376 -1.0597
 2398TIP3   OH2 7157   6.120   4.549   0.796 -0.5475  0.2661 -0.2980
 2398TIP3    H1 7158   6.056   4.551   0.725 -1.3753 -0.8141  0.3906
 2398TIP3    H2 7159   6.111   4.462   0.835  1.3047  0.0902 -0.1357
 2399TIP3   OH2 7160   0.087   5.165   1.954 -0.2710  0.6866 -0.0333
 2399TIP3    H1 7161  -0.007   5.165   1.938 -0.0866  0.1274 -1.2039
 2399TIP3    H2 7162   0.119   5.086   1.910  0.7856  1.0534  0.0493
 2400TIP3   OH2 7163   6.374   4.262   0.651  0.0559  0.3209 -0.0545
 2400TIP3    H1 7164   6.462   4.250   0.613 -0.4531 -0.9566 -0.9010
 2400TIP3    H2 7165   6.385   4.243   0.744  0.6447  0.0264 -0.1795
 2401TIP3   OH2 7166   6.797   2.191   3.426  0.4485  0.1143  0.1906
 2401TIP3    H1 7167   6.750   2.148   3.355 -2.3347  1.6227  0.9705
 2401TIP3    H2 7168   6.837   2.268   3.385  0.3615  0.0209 -0.0722
 2402TIP3   OH2 7169   7.050   3.040   4.541 -0.0122 -0.8737 -0.1893
 2402TIP3    H1 7170   7.058   2.957   4.589 -1.4832 -0.4521  0.8650
 2402TIP3    H2 7171   7.072   3.017   4.451  0.2557 -2.2724  0.2022
 2403TIP3   OH2 7172   2.043   5.621   4.118  0.4076  0.2249 -0.1597
 2403TIP3    H1 7173   2.085   5.565   4.184  4.3365  0.8828 -1.8074
 2403TIP3    H2 7174   1.986   5.561   4.069  2.0110 -1.6535  0.1512
 2404TIP3   OH2 7175   6.614   3.399   3.878  0.2083  0.9459  0.0378
 2404TIP3    H1 7176   6.522   3.376   3.874  0.6328 -1.1075  0.9846
 2404TIP3    H2 7177   6.627   3.459   3.805 -1.7045  0.7100 -0.5431
 2405TIP3   OH2 7178   1.151   5.446   0.075  0.0787  0.0437 -0.2853
 2405TIP3    H1 7179   1.224   5.498   0.040 -1.3117  1.5357 -1.1162
 2405TIP3    H2 7180   1.089   5.511   0.108 -0.4946 -1.2172  1.2822
 2406TIP3   OH2 7181   5.999   2.076   0.558  0.1579  0.2361  0.0135
 2406TIP3    H1 7182   5.957   2.054   0.642  0.5256  0.6438  0.3106
 2406TIP3    H2 7183   5.998   1.995   0.508 -1.1503  0.2789 -0.0587
 2407TIP3   OH2 7184   0.163   2.974   2.997 -0.0734  0.8453 -0.1201
 2407TIP3    H1 7185   0.248   2.964   2.954 -0.6920 -1.7980 -0.9273
 2407TIP3    H2 7186   0.184   3.004   3.085  1.4472  3.2310 -1.2030
 2408TIP3   OH2 7187   5.366   0.129   5.252 -0.3790 -0.1609  0.4687
 2408TIP3    H1 7188   5.324   0.069   5.314  1.0059 -1.4070  0.2748
 2408TIP3    H2 7189   5.358   0.085   5.167 -1.9588  1.3734 -0.2325
 2409TIP3   OH2 7190   6.852   3.404   1.134 -0.0568  0.0739  0.0111
 2409TIP3    H1 7191   6.908   3.329   1.152 -0.6534 -0.3794  0.0102
 2409TIP3    H2 7192   6.849   3.452   1.216 -0.0138 -0.1350  0.1356
 2410TIP3   OH2 7193   5.531   0.965   1.299  0.0339 -0.5662  0.2951
 2410TIP3    H1 7194   5.563   0.993   1.384  0.6192  0.8917 -0.3618
 2410TIP3    H2 7195   5.598   0.905   1.266 -0.6453 -1.8749  1.2158
 2411TIP3   OH2 7196   7.205   5.571   3.226 -0.3651  0.1194 -0.1884
 2411TIP3    H1 7197   7.217   5.501   3.162  0.8987  1.2556 -1.2459
 2411TIP3    H2 7198   7.213   5.652   3.175  1.2498  1.0769  1.4838
 2412TIP3   OH2 7199   6.657   0.097   5.813 -0.0001  0.0009  1.0140
 2412TIP3    H1 7200   6.627   0.019   5.768  1.2138  0.4037 -0.5801
 2412TIP3    H2 7201   6.715   0.064   5.883  0.2409 -0.5438  0.5656
 2413TIP3   OH2 7202   2.432   3.639   2.075 -0.3350 -0.1517  0.6106
 2413TIP3    H1 7203   2.487   3.660   2.151 -0.2707 -1.3559  0.9154
 2413TIP3    H2 7204   2.425   3.544   2.076  0.4546 -0.2814 -1.4594
 2414TIP3   OH2 7205   3.516   5.334   1.861  0.0874 -0.2371  0.1256
 2414TIP3    H1 7206   3.567   5.325   1.781  1.7463  0.7734  1.0084
 2414TIP3    H2 7207   3.472   5.419   1.853  1.1985  0.4313  0.7335
 2415TIP3   OH2 7208   3.384   3.583   3.927 -0.0616  0.3068  0.0784
 2415TIP3    H1 7209   3.331   3.519   3.879 -0.4844 -0.9041  2.0294
 2415TIP3    H2 7210   3.388   3.548   4.016  2.5865  1.2625  0.4121
 2416TIP3   OH2 7211   5.324   5.696   2.309 -0.0781  0.3893 -0.2104
 2416TIP3    H1 7212   5.340   5.649   2.227 -1.5359 -0.4507 -0.0422
 2416TIP3    H2 7213   5.384   5.655   2.371  1.2795  1.2519 -0.8944
 2417TIP3   OH2 7214   3.360   5.656   5.140 -0.1836  0.3035 -0.0838
 2417TIP3    H1 7215   3.329   5.566   5.130  1.6750 -0.4972  0.9241
 2417TIP3    H2 7216   3.429   5.664   5.074  1.3102  0.1537  1.3984
 2418TIP3   OH2 7217   1.231   2.049   2.270  0.2490 -0.0169 -0.0343
 2418TIP3    H1 7218   1.166   1.999   2.319  1.2859 -0.3187  1.0644
 2418TIP3    H2 7219   1.315   2.007   2.291  0.8459  0.5191 -1.2254
 2419TIP3   OH2 7220   6.056   4.897   0.817  0.4254  0.2606 -1.0493
 2419TIP3    H1 7221   6.103   4.856   0.744 -0.5148 -0.0040 -1.5247
 2419TIP3    H2 7222   6.124   4.944   0.866  1.7984 -2.6665  0.1197
 2420TIP3   OH2 7223   0.215   0.395   3.579 -0.4188 -0.7001 -1.1037
 2420TIP3    H1 7224   0.197   0.465   3.642 -0.7048  0.1047 -2.0510
 2420TIP3    H2 7225   0.131   0.379   3.535  0.1863  0.1747 -2.6639
 2421TIP3   OH2 7226   4.689   2.860   3.636 -0.0722  0.3061  0.2406
 2421TIP3    H1 7227   4.734   2.791   3.685 -2.5042 -0.0724  2.1822
 2421TIP3    H2 7228   4.657   2.817   3.557 -1.0003 -0.6833  1.1205
 2422TIP3   OH2 7229   4.573   2.368   1.674 -0.0652  0.1745  0.0277
 2422TIP3    H1 7230   4.613   2.282   1.690 -1.7739 -0.4427  1.3593
 2422TIP3    H2 7231   4.647   2.427   1.664  1.1666 -1.2804  0.1293
 2423TIP3   OH2 7232   6.565   4.074   3.048 -0.5464  0.0388 -0.0509
 2423TIP3    H1 7233   6.659   4.091   3.046 -0.3539 -0.5976  1.9306
 2423TIP3    H2 7234   6.547   4.032   2.964  1.0401 -0.3365 -0.2361
 2424TIP3   OH2 7235   5.177   2.574   0.880 -0.0273  0.0167  0.2179
 2424TIP3    H1 7236   5.259   2.623   0.874 -0.1096  0.0626 -0.8567
 2424TIP3    H2 7237   5.196   2.492   0.834 -0.1510 -0.6013  1.2488
 2425TIP3   OH2 7238   5.187   1.758   3.075 -0.7033 -0.1813  1.0832
 2425TIP3    H1 7239   5.190   1.666   3.099 -3.6118 -0.4280  0.8484
 2425TIP3    H2 7240   5.277   1.780   3.051  0.3378 -2.5471  2.5124
 2426TIP3   OH2 7241   6.180   6.334   2.976 -0.1597 -0.7849 -0.2044
 2426TIP3    H1 7242   6.271   6.337   2.949  0.2149 -2.1410  0.8090
 2426TIP3    H2 7243   6.182   6.296   3.064 -1.7328 -1.3150 -0.3638
 2427TIP3   OH2 7244   7.024   0.146   3.536  0.2415 -0.1885  0.2237
 2427TIP3    H1 7245   6.930   0.130   3.540  0.3243 -0.5167  2.9498
 2427TIP3    H2 7246   7.064   0.059   3.535  0.5306 -0.0533 -0.3948
 2428TIP3   OH2 7247   4.329   6.238   1.157 -0.2238  0.0896  0.3239
 2428TIP3    H1 7248   4.367   6.151   1.170 -1.0552 -0.0055  2.6005
 2428TIP3    H2 7249   4.235   6.222   1.151 -0.2284  0.6558 -1.4335
 2429TIP3   OH2 7250   6.390   2.851   4.894  0.4302 -0.0080 -0.4852
 2429TIP3    H1 7251   6.371   2.945   4.888 -0.9215 -0.3282 -2.0604
 2429TIP3    H2 7252   6.304   2.809   4.887  1.1685 -1.4047 -1.9034
 2430TIP3   OH2 7253   3.190   3.158   2.051  0.3975  0.1429 -0.3340
 2430TIP3    H1 7254   3.219   3.141   2.141  0.3305  0.1593 -0.3087
 2430TIP3    H2 7255   3.186   3.072   2.011  0.6274  0.1566 -0.3826
 2431TIP3   OH2 7256   4.396   4.816   0.624  0.2814  0.2108 -0.1357
 2431TIP3    H1 7257   4.381   4.729   0.587 -1.8043  0.3081  0.3522
 2431TIP3    H2 7258   4.467   4.853   0.571  1.0688 -1.6722 -0.4859
 2432TIP3   OH2 7259   3.094   2.206   5.764 -0.5887 -0.4119  0.3198
 2432TIP3    H1 7260   3.016   2.202   5.710 -0.2984 -1.7390 -0.0473
 2432TIP3    H2 7261   3.166   2.218   5.702 -0.3653 -0.7237  0.5151
 2433TIP3   OH2 7262   6.397   2.630   1.365 -0.1051 -0.3910  0.0244
 2433TIP3    H1 7263   6.369   2.688   1.293  0.3582  1.4526  1.2702
 2433TIP3    H2 7264   6.385   2.682   1.444  1.9898 -1.3723  1.0632
 2434TIP3   OH2 7265   6.305   6.125   5.849  0.5390 -0.0500 -0.2811
 2434TIP3    H1 7266   6.288   6.031   5.855  0.2916 -0.0554 -1.0702
 2434TIP3    H2 7267   6.218   6.165   5.844  0.4719  0.4528  2.7918
 2435TIP3   OH2 7268   3.758   2.144   5.791  0.1222  0.2156  0.0994
 2435TIP3    H1 7269   3.733   2.079   5.726 -1.3654 -0.1711  1.0240
 2435TIP3    H2 7270   3.824   2.198   5.746  2.6702 -2.8210 -0.1943
 2436TIP3   OH2 7271   0.452   1.428   2.076  0.1293 -0.5850 -0.1247
 2436TIP3    H1 7272   0.490   1.511   2.105 -0.0029 -0.6189  0.1587
 2436TIP3    H2 7273   0.473   1.367   2.147 -0.1569 -0.6829 -0.1214
 2437TIP3   OH2 7274   5.083   5.876   5.042 -0.5576 -0.0290  0.4498
 2437TIP3    H1 7275   5.026   5.820   5.095  0.2702 -1.6455 -0.2763
 2437TIP3    H2 7276   5.023   5.926   4.987 -1.3512  0.0918  1.3955
 2438TIP3   OH2 7277   5.368   5.345   0.888  0.7273  0.3004 -0.6131
 2438TIP3    H1 7278   5.298   5.291   0.851  2.9391 -2.9647 -0.4416
 2438TIP3    H2 7279   5.423   5.367   0.812  1.9323 -1.1352 -0.2041
 2439TIP3   OH2 7280   4.273   2.003   4.344  0.4026  0.1955  0.1775
 2439TIP3    H1 7281   4.362   1.993   4.375  0.7254  1.7485 -0.1339
 2439TIP3    H2 7282   4.275   2.083   4.291 -0.9982 -0.1755 -0.4998
 2440TIP3   OH2 7283   4.834   4.814   0.959 -1.0289 -0.1956  0.2461
 2440TIP3    H1 7284   4.794   4.900   0.975 -0.6687 -0.0696  0.4730
 2440TIP3    H2 7285   4.787   4.780   0.883 -0.2341  0.8016 -0.7280
 2441TIP3   OH2 7286   1.126   5.412   4.209  0.1304 -0.5369  0.0804
 2441TIP3    H1 7287   1.143   5.320   4.227 -0.3908 -0.2162  2.7494
 2441TIP3    H2 7288   1.042   5.413   4.164 -0.1354 -1.3688  0.5431
 2442TIP3   OH2 7289   6.171   4.867   0.217  0.3635 -0.0112  0.0183
 2442TIP3    H1 7290   6.125   4.876   0.133  0.8204  0.3680 -0.1965
 2442TIP3    H2 7291   6.211   4.953   0.231  1.5032 -0.5091 -0.0892
 2443TIP3   OH2 7292   5.327   3.567   2.689 -0.0335  0.0768 -0.4097
 2443TIP3    H1 7293   5.413   3.582   2.728  0.5446 -2.4228 -0.5016
 2443TIP3    H2 7294   5.292   3.654   2.671  1.6869  1.1994  1.3207
 2444TIP3   OH2 7295   6.258   0.111   3.927  0.0819 -0.5187 -0.2955
 2444TIP3    H1 7296   6.215   0.077   3.848  0.1402  0.6394 -0.8407
 2444TIP3    H2 7297   6.335   0.158   3.894 -0.2223  0.4954  0.3950
 2445TIP3   OH2 7298   5.864   2.859   0.741  0.3880  0.7071 -0.7448
 2445TIP3    H1 7299   5.905   2.941   0.712  2.1480  0.7559  1.5481
 2445TIP3    H2 7300   5.918   2.830   0.814 -0.8041 -1.9909 -0.7980
 2446TIP3   OH2 7301   5.876   1.916   3.598  0.3486 -0.3612  0.4447
 2446TIP3    H1 7302   5.939   1.846   3.613  1.1434  0.4311  0.9023
 2446TIP3    H2 7303   5.902   1.955   3.514  0.8329  0.3179  0.8943
 2447TIP3   OH2 7304   6.198   1.757   4.336  0.1000  0.2503 -0.8046
 2447TIP3    H1 7305   6.279   1.803   4.358 -0.7342  1.7580 -0.6988
 2447TIP3    H2 7306   6.215   1.717   4.251  0.6933  1.3013 -1.2001
 2448TIP3   OH2 7307   6.645   1.944   5.807  0.3791  0.1224  0.1261
 2448TIP3    H1 7308   6.581   1.942   5.878  0.6374  1.0886  0.4032
 2448TIP3    H2 7309   6.644   2.035   5.777  1.1347 -0.0080 -0.3110
 2449TIP3   OH2 7310   6.104   0.589   2.383  0.1968 -0.3371 -0.2049
 2449TIP3    H1 7311   6.129   0.669   2.428  0.7208 -0.0474 -0.9833
 2449TIP3    H2 7312   6.124   0.519   2.446 -1.0813  0.1709  0.8103
 2450TIP3   OH2 7313   1.292   6.722   5.722  0.3171  0.3642 -0.2027
 2450TIP3    H1 7314   1.286   6.806   5.769  1.6212 -0.0007  0.6731
 2450TIP3    H2 7315   1.373   6.683   5.753 -0.3239 -1.2959 -0.5231
 2451TIP3   OH2 7316   6.866   1.348   3.667  0.6991  0.0619  0.1865
 2451TIP3    H1 7317   6.941   1.295   3.697 -0.7826 -1.6628  1.0135
 2451TIP3    H2 7318   6.798   1.332   3.732 -1.4093 -0.8149 -2.0883
 2452TIP3   OH2 7319   2.124   1.059   3.977  0.5614 -0.4939  0.0993
 2452TIP3    H1 7320   2.086   0.972   3.986  0.3715 -0.8102 -2.8258
 2452TIP3    H2 7321   2.055   1.111   3.935  1.3548  0.5495  0.0509
 2453TIP3   OH2 7322   6.086   4.797   3.286  0.0646 -0.0218 -0.1824
 2453TIP3    H1 7323   6.088   4.865   3.219 -1.2508  0.4809  0.2464
 2453TIP3    H2 7324   6.049   4.721   3.242  2.0558 -0.6899 -0.8152
 2454TIP3   OH2 7325   1.180   2.648   1.943 -0.2098 -0.2811  0.1668
 2454TIP3    H1 7326   1.107   2.708   1.928  0.3664  0.0529 -1.5833
 2454TIP3    H2 7327   1.140   2.561   1.940 -0.3518 -0.2445 -3.0627
 2455TIP3   OH2 7328   0.179   0.307   1.865  0.4718  0.3769 -0.4174
 2455TIP3    H1 7329   0.254   0.291   1.923 -0.9055  0.4197  1.4663
 2455TIP3    H2 7330   0.192   0.396   1.833  0.7573  0.7447  0.6677
 2456TIP3   OH2 7331   0.834   3.851   3.326 -0.3529 -0.6183  0.3763
 2456TIP3    H1 7332   0.840   3.933   3.275  0.3580 -0.3103  0.9350
 2456TIP3    H2 7333   0.781   3.874   3.402 -1.8320 -1.2077 -0.4449
 2457TIP3   OH2 7334   3.588   1.869   1.538 -0.1008  0.5047 -0.0125
 2457TIP3    H1 7335   3.610   1.937   1.474 -0.2653  0.0156 -0.6029
 2457TIP3    H2 7336   3.646   1.886   1.612  2.4690 -0.8546 -1.5833
 2458TIP3   OH2 7337   5.407   0.210   5.630  0.0554 -0.2178 -0.4213
 2458TIP3    H1 7338   5.438   0.120   5.634  0.1565 -0.1614  0.0749
 2458TIP3    H2 7339   5.393   0.235   5.721  0.2019  0.3277 -0.5459
 2459TIP3   OH2 7340   2.018   0.178   4.976 -0.0786  0.0214 -0.4053
 2459TIP3    H1 7341   2.105   0.140   4.967  0.0863  0.1271  0.6337
 2459TIP3    H2 7342   2.033   0.272   4.985 -0.2154 -0.0518  0.7319
 2460TIP3   OH2 7343   6.735   5.028   5.621  0.9417 -0.3122 -0.1895
 2460TIP3    H1 7344   6.712   4.936   5.639  0.7157 -0.3139 -0.4912
 2460TIP3    H2 7345   6.715   5.073   5.703  0.9737 -0.5167 -0.0666
 2461TIP3   OH2 7346   3.968   3.427   5.869  0.0485 -0.3511  0.3453
 2461TIP3    H1 7347   3.943   3.488   5.799  1.6868  0.1525  0.1731
 2461TIP3    H2 7348   4.022   3.361   5.825  0.6181 -0.3502  1.0465
 2462TIP3   OH2 7349   4.355   5.619   0.972 -0.2489  0.1491 -0.3322
 2462TIP3    H1 7350   4.416   5.692   0.986 -0.6778  0.1227  1.9978
 2462TIP3    H2 7351   4.410   5.541   0.972 -0.2260  0.0935  2.1059
 2463TIP3   OH2 7352   2.212   0.310   2.914 -0.2649 -0.2429 -0.4634
 2463TIP3    H1 7353   2.175   0.320   2.826 -0.5363  0.7312 -0.2529
 2463TIP3    H2 7354   2.289   0.368   2.914  0.6293 -1.3870 -0.5318
 2464TIP3   OH2 7355   1.410   4.612   1.824 -0.1890  0.0163 -0.6001
 2464TIP3    H1 7356   1.415   4.593   1.730 -0.9477 -0.9346 -0.4704
 2464TIP3    H2 7357   1.484   4.564   1.861  0.5235  0.9564 -0.7820
 2465TIP3   OH2 7358   1.375   0.802   5.219 -0.0179  0.1279  0.1190
 2465TIP3    H1 7359   1.443   0.860   5.184  1.5565 -0.8802  1.3525
 2465TIP3    H2 7360   1.395   0.717   5.181 -2.1897  0.2725 -1.5211
 2466TIP3   OH2 7361   6.359   5.930   0.650  0.2390 -0.1872 -0.1216
 2466TIP3    H1 7362   6.313   5.987   0.712  0.0649  0.3604 -0.7429
 2466TIP3    H2 7363   6.330   5.842   0.673 -1.1885  0.1504 -0.5450
 2467TIP3   OH2 7364   3.382   4.245   5.058 -0.0528  0.2728 -0.0764
 2467TIP3    H1 7365   3.418   4.278   5.140  1.4470 -0.6619 -0.3298
 2467TIP3    H2 7366   3.401   4.151   5.059 -1.7957 -0.1236 -0.5976
 2468TIP3   OH2 7367   1.891   4.762   2.638  0.1319 -0.5302  0.2045
 2468TIP3    H1 7368   1.896   4.850   2.675  3.9007  0.2486 -1.6932
 2468TIP3    H2 7369   1.967   4.716   2.674  0.5131 -1.6438 -1.8453
 2469TIP3   OH2 7370   6.330   5.496   1.093 -0.1256 -0.4763 -0.1585
 2469TIP3    H1 7371   6.295   5.586   1.092 -0.3347 -0.5272 -2.4371
 2469TIP3    H2 7372   6.423   5.507   1.114 -0.6551 -0.0319  2.3475
 2470TIP3   OH2 7373   1.555   6.675   5.847 -0.0343  0.1799  0.1068
 2470TIP3    H1 7374   1.492   6.676   5.919 -0.7722 -0.2395 -0.5149
 2470TIP3    H2 7375   1.636   6.642   5.886  0.2415  2.0525  1.2430
 2471TIP3   OH2 7376   0.085   2.612   1.873  0.0201  0.5760 -0.4351
 2471TIP3    H1 7377   0.150   2.681   1.881  0.7929 -0.1420 -0.4265
 2471TIP3    H2 7378   0.083   2.571   1.959  0.3112 -0.0671 -0.7316
 2472TIP3   OH2 7379   4.826   6.672   4.557  0.2380 -0.0485  0.4220
 2472TIP3    H1 7380   4.900   6.621   4.524 -0.5576 -0.2553 -1.1812
 2472TIP3    H2 7381   4.860   6.761   4.566  0.4587  0.0852 -1.3217
 2473TIP3   OH2 7382   3.254   0.437   5.645 -0.8506  0.3293 -0.0576
 2473TIP3    H1 7383   3.231   0.369   5.708 -0.4259 -0.0782 -0.3400
 2473TIP3    H2 7384   3.239   0.397   5.559  0.7060  0.1171 -0.2533
 2474TIP3   OH2 7385   5.040   4.614   2.741  0.3464 -0.1719 -0.2723
 2474TIP3    H1 7386   5.085   4.532   2.718  1.1125 -0.1649  1.0729
 2474TIP3    H2 7387   5.112   4.675   2.760 -0.2163  0.8184 -1.2192
 2475TIP3   OH2 7388   4.740   0.986   2.422  0.6409 -0.1979 -0.6293
 2475TIP3    H1 7389   4.657   0.978   2.469  0.6307  0.0377 -0.6080
 2475TIP3    H2 7390   4.722   0.951   2.335  0.8604 -1.3658 -0.2300
 2476TIP3   OH2 7391   4.407   0.880   4.822  0.1191 -0.1535 -0.3943
 2476TIP3    H1 7392   4.384   0.972   4.833 -0.3457 -0.3342  0.2197
 2476TIP3    H2 7393   4.374   0.837   4.901 -0.4541 -0.9920 -1.0687
 2477TIP3   OH2 7394   1.388   6.485   3.136 -0.4107 -0.2835  0.0171
 2477TIP3    H1 7395   1.429   6.541   3.203 -1.0091 -0.9278  0.9420
 2477TIP3    H2 7396   1.379   6.400   3.178 -2.7466 -0.1614 -0.1137
 2478TIP3   OH2 7397   1.569   2.768   4.640  0.0158  0.2163 -0.0117
 2478TIP3    H1 7398   1.613   2.850   4.664  0.1231  0.1717 -0.0514
 2478TIP3    H2 7399   1.502   2.794   4.578 -0.7657  0.4277  0.9050
 2479TIP3   OH2 7400   3.872   3.772   1.452  0.0085 -0.5511 -0.0109
 2479TIP3    H1 7401   3.921   3.838   1.501 -1.4667  0.4678  0.1667
 2479TIP3    H2 7402   3.901   3.783   1.362  0.5784 -0.4085  0.1868
 2480TIP3   OH2 7403   0.722   4.691   2.171 -0.1678 -0.2274 -0.1194
 2480TIP3    H1 7404   0.766   4.776   2.163 -1.3187  0.3957 -0.1039
 2480TIP3    H2 7405   0.643   4.700   2.117 -1.1850 -0.6842  1.2469
 2481TIP3   OH2 7406   6.573   0.076   5.385 -0.4802 -0.4173 -0.4400
 2481TIP3    H1 7407   6.637   0.017   5.424 -1.4490 -0.0702  1.8093
 2481TIP3    H2 7408   6.499   0.020   5.362  0.1416 -0.6458 -2.0489
 2482TIP3   OH2 7409   0.649   5.980   2.765 -0.3463 -0.4173 -0.1811
 2482TIP3    H1 7410   0.699   6.054   2.731 -0.2296 -1.4862 -2.6144
 2482TIP3    H2 7411   0.690   5.904   2.723 -3.2125 -1.4444 -1.3266
 2483TIP3   OH2 7412   5.465   2.598   3.203 -0.3004 -0.1572  0.0309
 2483TIP3    H1 7413   5.507   2.677   3.235  0.4496 -0.6283  0.2219
 2483TIP3    H2 7414   5.378   2.627   3.176 -0.6795  0.4131  1.7210
 2484TIP3   OH2 7415   4.859   2.413   1.543  0.2936 -0.6222  0.2875
 2484TIP3    H1 7416   4.825   2.450   1.624 -1.2807 -1.6656  0.1553
 2484TIP3    H2 7417   4.848   2.483   1.478  0.3790 -0.2220  0.7006
 2485TIP3   OH2 7418   2.860   4.093   1.504 -0.0917 -0.1481 -0.1635
 2485TIP3    H1 7419   2.802   4.166   1.526  0.1490  0.6505 -2.0253
 2485TIP3    H2 7420   2.897   4.066   1.588 -0.5439  1.5550  0.6295
 2486TIP3   OH2 7421   1.187   3.495   2.754 -0.2644 -0.3314  0.3914
 2486TIP3    H1 7422   1.281   3.479   2.745  0.0365  1.7280 -0.6579
 2486TIP3    H2 7423   1.179   3.552   2.830 -0.3643  1.3549 -0.8172
 2487TIP3   OH2 7424   6.838   1.056   0.437 -0.5084  0.0104 -0.2514
 2487TIP3    H1 7425   6.892   1.081   0.512 -2.2235  0.1264  0.9995
 2487TIP3    H2 7426   6.853   1.125   0.372 -2.4411  2.4860  1.7700
 2488TIP3   OH2 7427   4.455   6.623   0.037 -0.1148 -0.5561 -0.1748
 2488TIP3    H1 7428   4.444   6.555   0.103  0.7040 -1.5438 -1.0250
 2488TIP3    H2 7429   4.494   6.697   0.084  1.8425 -1.7600  0.1836
 2489TIP3   OH2 7430   5.784   5.955   1.032 -0.3010 -0.0053  0.1816
 2489TIP3    H1 7431   5.770   6.000   0.949 -1.5578  0.7892  0.7863
 2489TIP3    H2 7432   5.873   5.919   1.026 -0.3551  0.0807 -1.4612
 2490TIP3   OH2 7433   0.847   0.701   1.887 -0.1725 -0.1602  0.2342
 2490TIP3    H1 7434   0.814   0.701   1.977  3.0601  3.1404  1.7027
 2490TIP3    H2 7435   0.819   0.786   1.852  1.8200  0.2691 -0.4205
 2491TIP3   OH2 7436   2.629   2.792   1.936 -0.6424 -0.2328  0.5745
 2491TIP3    H1 7437   2.690   2.844   1.883  0.0267  0.4512  1.9549
 2491TIP3    H2 7438   2.614   2.713   1.885  1.4540 -0.4406  0.1731
 2492TIP3   OH2 7439   4.558   0.841   0.192 -0.0877  0.2511  0.3313
 2492TIP3    H1 7440   4.586   0.786   0.265  0.3581 -0.0221 -0.0397
 2492TIP3    H2 7441   4.465   0.858   0.209 -0.5034 -1.4354 -0.0306
 2493TIP3   OH2 7442   0.341   0.735   0.756  0.1258  0.3782 -0.0658
 2493TIP3    H1 7443   0.311   0.665   0.814 -0.8462  0.2433 -0.7067
 2493TIP3    H2 7444   0.424   0.764   0.795 -1.9935  2.5942  3.3498
 2494TIP3   OH2 7445   4.936   0.147   1.245  0.4881  0.2059 -0.1882
 2494TIP3    H1 7446   4.977   0.128   1.329  0.0919  1.8017  0.4023
 2494TIP3    H2 7447   4.949   0.241   1.233 -1.6074  0.4773 -0.7142
 2495TIP3   OH2 7448   5.515   6.628   5.738 -0.1874 -0.0394 -0.6300
 2495TIP3    H1 7449   5.535   6.566   5.667 -0.2539 -0.4200 -0.3226
 2495TIP3    H2 7450   5.573   6.702   5.722 -0.0812 -0.1970 -0.9873
 2496TIP3   OH2 7451   1.195   1.775   0.258 -0.2579  0.0335 -0.1208
 2496TIP3    H1 7452   1.225   1.686   0.240  0.3346  0.2014  0.0137
 2496TIP3    H2 7453   1.124   1.789   0.196 -0.3925 -0.5540 -0.1059
 2497TIP3   OH2 7454   4.558   4.605   1.890 -0.4599  0.2801  0.0047
 2497TIP3    H1 7455   4.555   4.675   1.955 -1.0191  1.4103 -1.2059
 2497TIP3    H2 7456   4.586   4.648   1.809 -0.4184 -0.9742 -0.6692
 2498TIP3   OH2 7457   2.249   4.530   0.586 -1.0810  0.0737 -0.2320
 2498TIP3    H1 7458   2.218   4.560   0.501  0.5522 -1.4555 -1.4247
 2498TIP3    H2 7459   2.296   4.606   0.622  0.9580 -0.1888 -2.1541
 2499TIP3   OH2 7460   4.123   4.631   3.324 -0.1508 -0.3538 -1.2007
 2499TIP3    H1 7461   4.032   4.641   3.354  0.3397  2.1575 -0.2931
 2499TIP3    H2 7462   4.175   4.672   3.394  1.5345 -0.0123 -2.6030
 2500TIP3   OH2 7463   3.169   1.939   1.389  0.4444 -0.2601  0.2534
 2500TIP3    H1 7464   3.230   1.890   1.443 -0.3691 -1.1956  0.3486
 2500TIP3    H2 7465   3.117   1.989   1.452 -0.2718 -1.0827  0.3315
 2501TIP3   OH2 7466   4.673   5.575   5.200 -0.1174  0.3080 -0.1707
 2501TIP3    H1 7467   4.590   5.532   5.221 -0.4768  1.7848  1.6568
 2501TIP3    H2 7468   4.734   5.503   5.185 -1.5721 -0.8075 -0.9813
 2502TIP3   OH2 7469   5.074   5.003   1.606 -0.6734  0.1896  0.0273
 2502TIP3    H1 7470   4.991   4.958   1.622 -1.9576  1.8033 -1.6482
 2502TIP3    H2 7471   5.065   5.039   1.518  1.1098  1.9037  0.4746
 2503TIP3   OH2 7472   5.610   5.795   2.463 -0.0720  0.2198  0.2373
 2503TIP3    H1 7473   5.608   5.841   2.547  1.6808 -0.5993  0.7788
 2503TIP3    H2 7474   5.595   5.863   2.397 -0.7727  0.9843  1.1656
 2504TIP3   OH2 7475   2.600   0.910   1.892 -0.1512  0.3129 -0.0225
 2504TIP3    H1 7476   2.547   0.855   1.835 -0.1732  0.3549 -0.0424
 2504TIP3    H2 7477   2.678   0.929   1.839  0.1832 -0.2874  0.2470
 2505TIP3   OH2 7478   3.634   3.582   1.168 -0.7100 -1.0400 -0.0606
 2505TIP3    H1 7479   3.717   3.627   1.182 -1.3583  0.1996 -0.1159
 2505TIP3    H2 7480   3.610   3.602   1.078 -1.2690 -1.0594  0.0780
 2506TIP3   OH2 7481   3.975   0.328   0.745  0.3193  0.0935 -0.0688
 2506TIP3    H1 7482   4.042   0.395   0.736  1.5040 -0.7239  1.9960
 2506TIP3    H2 7483   4.023   0.246   0.754 -1.0007 -0.7021  0.1090
 2507TIP3   OH2 7484   5.399   4.326   1.812  0.1890 -0.3451 -0.3189
 2507TIP3    H1 7485   5.334   4.258   1.831  0.1531 -1.0344 -2.5490
 2507TIP3    H2 7486   5.480   4.278   1.793  0.2163  0.2194 -1.7476
 2508TIP3   OH2 7487   1.451   3.288   1.213 -0.1539  0.2184 -0.2230
 2508TIP3    H1 7488   1.520   3.332   1.164 -0.0888 -0.5110 -0.8066
 2508TIP3    H2 7489   1.391   3.358   1.238  0.0366  0.6582 -0.9714
 2509TIP3   OH2 7490   1.957   6.374   4.479 -0.1682  0.3146  0.0972
 2509TIP3    H1 7491   1.904   6.295   4.474  0.5782 -0.1330 -1.1126
 2509TIP3    H2 7492   1.953   6.412   4.392  1.4784  0.2644 -0.0312
 2510TIP3   OH2 7493   3.969   5.675   1.104 -0.1500  0.1810  0.0397
 2510TIP3    H1 7494   3.986   5.711   1.017 -1.0255  0.7371  0.0885
 2510TIP3    H2 7495   3.932   5.588   1.087  1.6087 -0.5958 -0.0843
 2511TIP3   OH2 7496   4.696   6.243   5.307  0.3443 -0.6181 -0.1023
 2511TIP3    H1 7497   4.625   6.301   5.277  1.1946  1.3888  1.5269
 2511TIP3    H2 7498   4.664   6.207   5.390  1.1289  0.1807  0.5681
 2512TIP3   OH2 7499   3.123   4.468   4.056 -0.0160 -0.0373 -0.2024
 2512TIP3    H1 7500   3.152   4.515   4.134 -1.8117 -1.7928  1.6190
 2512TIP3    H2 7501   3.142   4.528   3.984  0.5887  2.1602  1.6772
 2513TIP3   OH2 7502   5.347   0.898   1.106 -0.1336  0.4445 -0.8195
 2513TIP3    H1 7503   5.426   0.944   1.135  2.0384 -3.0312 -0.5676
 2513TIP3    H2 7504   5.295   0.887   1.186  1.0597 -0.5172 -0.1318
 2514TIP3   OH2 7505   0.480   5.409   5.482 -0.7114  0.5970 -0.3446
 2514TIP3    H1 7506   0.483   5.479   5.417 -0.2560  2.1912  1.3029
 2514TIP3    H2 7507   0.406   5.433   5.539 -0.2270  0.0195  0.5457
 2515TIP3   OH2 7508   6.427   3.352   4.494 -0.0843  0.0114  0.4477
 2515TIP3    H1 7509   6.334   3.365   4.512 -0.5177 -3.5392  1.5258
 2515TIP3    H2 7510   6.465   3.329   4.580  2.0811  2.3517  0.2479
 2516TIP3   OH2 7511   3.446   0.304   1.205 -0.1232  0.5322 -0.3996
 2516TIP3    H1 7512   3.476   0.298   1.114  0.4737  2.1339 -0.3478
 2516TIP3    H2 7513   3.386   0.378   1.205 -0.8427 -0.0387  0.3508
 2517TIP3   OH2 7514   6.085   2.256   1.071  0.4213  0.0270 -0.2894
 2517TIP3    H1 7515   6.023   2.194   1.110  0.8243 -0.2889 -0.1472
 2517TIP3    H2 7516   6.096   2.224   0.981 -0.1178  0.4617 -0.5169
 2518TIP3   OH2 7517   5.318   1.653   4.460 -0.3615  0.3403  0.1613
 2518TIP3    H1 7518   5.272   1.569   4.466 -2.2748  1.3778  1.4494
 2518TIP3    H2 7519   5.381   1.642   4.389 -0.7447 -2.0737  0.1178
 2519TIP3   OH2 7520   1.955   5.195   4.130  0.3691 -0.1861 -0.1347
 2519TIP3    H1 7521   1.880   5.253   4.142 -0.3764 -1.1365 -0.0889
 2519TIP3    H2 7522   1.983   5.172   4.218  1.1916  0.7514 -0.1395
 2520TIP3   OH2 7523   3.989   2.279   3.001  0.0912  0.4481  0.0930
 2520TIP3    H1 7524   4.066   2.308   2.953  0.0522 -0.4154 -0.5136
 2520TIP3    H2 7525   3.923   2.346   2.984  0.0871  0.1625 -1.0370
 2521TIP3   OH2 7526   0.330   6.072   1.147 -0.3930 -0.4055  0.4718
 2521TIP3    H1 7527   0.396   6.033   1.205 -0.2982 -1.3611 -0.2535
 2521TIP3    H2 7528   0.278   6.127   1.205 -0.0323 -0.9976  1.3938
 2522TIP3   OH2 7529   6.410   2.329   5.345  0.2379  0.1708 -0.0932
 2522TIP3    H1 7530   6.491   2.379   5.356  0.1040 -0.0061  2.2996
 2522TIP3    H2 7531   6.377   2.355   5.259  2.1668  1.2059 -0.5763
 2523TIP3   OH2 7532   5.654   2.998   3.575  0.5349 -0.5627 -0.2891
 2523TIP3    H1 7533   5.646   3.016   3.481 -1.9737 -1.3590 -0.3169
 2523TIP3    H2 7534   5.742   2.964   3.586  1.2146  0.4517 -2.1873
 2524TIP3   OH2 7535   0.076   1.089   4.022  0.3302  0.1647 -0.4907
 2524TIP3    H1 7536   0.016   1.151   3.980  0.0773 -0.2091 -0.6874
 2524TIP3    H2 7537   0.051   1.091   4.114  0.5501  0.6099 -0.4397
 2525TIP3   OH2 7538   3.198   6.701   5.428 -0.1213 -0.6051  0.2724
 2525TIP3    H1 7539   3.152   6.655   5.357 -0.8599  1.9832 -1.0797
 2525TIP3    H2 7540   3.152   6.675   5.507 -0.8003 -1.7770 -0.4757
 2526TIP3   OH2 7541   2.011   6.337   3.960  0.1767  0.6309  0.1824
 2526TIP3    H1 7542   1.972   6.328   3.873  1.7533  1.8664 -0.7028
 2526TIP3    H2 7543   2.013   6.248   3.994 -0.4467  0.1160 -1.0521
 2527TIP3   OH2 7544   5.231   3.728   2.375 -0.2376 -0.0935 -0.1484
 2527TIP3    H1 7545   5.155   3.674   2.352 -1.2342  0.8578  0.8145
 2527TIP3    H2 7546   5.305   3.668   2.369 -1.4438 -2.0120  2.2223
 2528TIP3   OH2 7547   3.697   1.493   0.669  0.0871 -0.0533  0.1153
 2528TIP3    H1 7548   3.734   1.407   0.685  1.1504  0.3833  0.0776
 2528TIP3    H2 7549   3.661   1.519   0.754 -2.4678 -1.5276 -0.4224
 2529TIP3   OH2 7550   3.918   4.077   2.528 -0.1984 -0.3638 -0.4211
 2529TIP3    H1 7551   3.839   4.122   2.498  0.6504  1.0085 -0.7050
 2529TIP3    H2 7552   3.987   4.144   2.522  0.5961 -0.9097  1.7039
 2530TIP3   OH2 7553   4.142   4.425   0.657  0.3526 -0.0721  0.5406
 2530TIP3    H1 7554   4.090   4.476   0.595  0.7214 -0.6964 -0.3020
 2530TIP3    H2 7555   4.227   4.413   0.614  0.2235 -1.5303  0.6275
 2531TIP3   OH2 7556   4.830   0.128   2.622  0.1415 -0.1747 -0.2742
 2531TIP3    H1 7557   4.924   0.114   2.610 -0.0815 -0.3226 -2.1463
 2531TIP3    H2 7558   4.790   0.046   2.592 -0.6083  0.1371 -0.1466
 2532TIP3   OH2 7559   6.030   1.957   1.426  0.2757  0.3095 -0.1014
 2532TIP3    H1 7560   6.046   2.006   1.507  1.1507  0.6364 -0.4586
 2532TIP3    H2 7561   6.056   1.867   1.447  1.4976  0.5949 -0.3092
 2533TIP3   OH2 7562   1.056   1.932   5.488 -0.4484  0.1193 -0.5216
 2533TIP3    H1 7563   1.097   1.969   5.566  0.3372 -2.5935  0.4755
 2533TIP3    H2 7564   1.081   1.990   5.417 -0.9280  2.5111  1.1547
 2534TIP3   OH2 7565   4.667   5.057   2.426  0.7643  0.0637  0.0563
 2534TIP3    H1 7566   4.614   5.080   2.502  2.4784  1.5716  0.8561
 2534TIP3    H2 7567   4.722   4.985   2.457  1.4792  0.6941  0.2751
 2535TIP3   OH2 7568   6.792   1.843   0.354 -0.0234 -0.2316 -0.4013
 2535TIP3    H1 7569   6.755   1.857   0.442 -1.4335  0.5709 -1.0723
 2535TIP3    H2 7570   6.885   1.828   0.369 -0.2183 -0.0403  1.2328
 2536TIP3   OH2 7571   0.633   3.227   0.940 -0.4696 -0.4946 -0.1693
 2536TIP3    H1 7572   0.576   3.190   1.008  1.0104 -1.2890  0.6896
 2536TIP3    H2 7573   0.713   3.251   0.987  0.2094 -0.1394 -1.4743
 2537TIP3   OH2 7574   1.739   6.776   2.163  0.4488 -0.2547 -0.5991
 2537TIP3    H1 7575   1.689   6.842   2.211  1.4864 -0.2986  0.5905
 2537TIP3    H2 7576   1.700   6.776   2.075  0.6869  2.2629 -0.7916
 2538TIP3   OH2 7577   4.327   1.468   1.518  0.0753 -0.2369  0.5228
 2538TIP3    H1 7578   4.256   1.413   1.550 -0.2657 -1.1919 -1.6964
 2538TIP3    H2 7579   4.367   1.504   1.598 -2.4913 -0.1169  1.8718
 2539TIP3   OH2 7580   3.561   6.546   4.216 -0.7104 -0.4057 -0.2164
 2539TIP3    H1 7581   3.475   6.557   4.176 -0.1531  0.5879 -1.1851
 2539TIP3    H2 7582   3.549   6.576   4.306 -1.0220  1.2401 -0.7763
 2540TIP3   OH2 7583   3.527   1.042   1.808  0.0505  0.0674  0.3074
 2540TIP3    H1 7584   3.538   1.002   1.722 -0.1469 -0.5038  0.5422
 2540TIP3    H2 7585   3.485   1.127   1.790 -0.2811 -0.1829 -0.1361
 2541TIP3   OH2 7586   4.349   1.579   0.538  0.1819 -0.0991 -0.9020
 2541TIP3    H1 7587   4.329   1.574   0.445  0.6235 -0.2728 -0.9908
 2541TIP3    H2 7588   4.436   1.539   0.546 -0.5002 -1.5386 -0.2092
 2542TIP3   OH2 7589   2.593   2.939   3.583 -0.8283 -0.5133 -0.4691
 2542TIP3    H1 7590   2.624   2.929   3.674 -0.3870 -1.6224 -0.7183
 2542TIP3    H2 7591   2.589   3.033   3.569  0.3494 -0.3246  0.2996
 2543TIP3   OH2 7592   5.131   4.938   5.489 -0.0487 -0.5137  0.3619
 2543TIP3    H1 7593   5.058   4.890   5.449 -0.9858 -2.0096  3.4998
 2543TIP3    H2 7594   5.120   5.028   5.458 -2.2791 -1.0030 -0.5227
 2544TIP3   OH2 7595   3.937   2.107   0.106  0.1412  0.0507 -0.0656
 2544TIP3    H1 7596   3.867   2.042   0.093  1.5321 -1.5201 -0.0589
 2544TIP3    H2 7597   3.901   2.188   0.070 -1.0009 -1.1274 -1.7617
 2545TIP3   OH2 7598   3.024   2.446   0.940 -1.0923  0.3996  0.3751
 2545TIP3    H1 7599   3.006   2.514   0.875 -0.8076  0.3450  0.2397
 2545TIP3    H2 7600   2.941   2.436   0.987 -1.0981  0.9342  0.4850
 2546TIP3   OH2 7601   6.236   1.155   1.920  0.2404 -0.5523 -0.8615
 2546TIP3    H1 7602   6.255   1.155   2.013  1.0532 -0.1886 -1.0164
 2546TIP3    H2 7603   6.269   1.240   1.889 -0.2457 -0.5636 -1.4354
 2547TIP3   OH2 7604   6.147   5.384   1.618 -0.1398  0.4643  0.2302
 2547TIP3    H1 7605   6.079   5.450   1.635  0.5541  0.5333  3.3418
 2547TIP3    H2 7606   6.221   5.413   1.671  1.1056 -1.4453 -0.3889
 2548TIP3   OH2 7607   6.150   2.512   1.378 -0.3740 -0.2292  0.2683
 2548TIP3    H1 7608   6.117   2.471   1.299 -0.0035 -0.4272  0.2113
 2548TIP3    H2 7609   6.244   2.523   1.362 -0.1755 -0.8503  0.9155
 2549TIP3   OH2 7610   2.049   2.122   5.346  0.5521  0.1236 -0.1638
 2549TIP3    H1 7611   2.043   2.190   5.279  0.4209 -0.0160 -0.2945
 2549TIP3    H2 7612   2.143   2.105   5.355  0.6055  0.5532  0.1046
 2550TIP3   OH2 7613   1.919   5.973   4.412  0.2339 -0.6439  0.1944
 2550TIP3    H1 7614   2.008   5.995   4.439  0.1832 -0.3248  0.1078
 2550TIP3    H2 7615   1.866   6.047   4.442  0.0745 -0.6031 -0.1762
 2551TIP3   OH2 7616   4.325   2.553   2.588  0.2251  0.3511  0.5093
 2551TIP3    H1 7617   4.279   2.635   2.606 -0.5533  0.2697 -0.9554
 2551TIP3    H2 7618   4.356   2.562   2.498  1.0455 -0.5512  0.6921
 2552TIP3   OH2 7619   0.563   5.542  -0.016 -0.3775 -0.0046 -0.4531
 2552TIP3    H1 7620   0.628   5.472  -0.016 -0.0514  0.2426 -2.4012
 2552TIP3    H2 7621   0.495   5.511   0.043  1.6977 -0.0387  2.0757
 2553TIP3   OH2 7622   6.786   2.570   3.660 -0.1710 -0.5902  0.2173
 2553TIP3    H1 7623   6.704   2.619   3.667  0.5434  0.4053  2.1308
 2553TIP3    H2 7624   6.773   2.493   3.715 -0.4539 -1.4355 -0.9742
 2554TIP3   OH2 7625   3.104   5.880   3.298 -0.7522  0.0744  0.0175
 2554TIP3    H1 7626   3.017   5.848   3.322 -1.7584  1.0112 -2.1386
 2554TIP3    H2 7627   3.088   5.945   3.230  1.6474  0.2197 -0.4978
 2555TIP3   OH2 7628   4.066   5.621   2.296  1.1843  0.3578 -0.5898
 2555TIP3    H1 7629   4.144   5.637   2.243  1.9681  0.4086  0.5249
 2555TIP3    H2 7630   4.099   5.620   2.386  0.0744 -0.7654 -0.1692
 2556TIP3   OH2 7631   5.823   0.032   1.006 -0.5360  0.0691 -0.0413
 2556TIP3    H1 7632   5.878   0.017   0.929 -0.9888  2.1710 -0.8246
 2556TIP3    H2 7633   5.747   0.079   0.972 -0.7223  1.0760  1.6973
 2557TIP3   OH2 7634   1.647   1.139   0.564 -0.4997 -0.9252 -0.1323
 2557TIP3    H1 7635   1.687   1.226   0.569 -1.5542 -0.4889  2.7617
 2557TIP3    H2 7636   1.554   1.157   0.547 -0.4608 -1.6062 -1.1237
 2558TIP3   OH2 7637   2.140   3.721   2.720  0.8858 -0.3249 -0.3064
 2558TIP3    H1 7638   2.209   3.658   2.700  0.3225 -0.9992 -0.1622
 2558TIP3    H2 7639   2.162   3.752   2.809 -0.2302 -2.2474  0.6917
 2559TIP3   OH2 7640   2.862   2.651   0.091  0.0604  0.4109  0.5674
 2559TIP3    H1 7641   2.862   2.582   0.158  1.4018  1.2369  1.4549
 2559TIP3    H2 7642   2.896   2.608   0.013 -1.3320 -0.5117  0.4145
 2560TIP3   OH2 7643   5.441   3.302   3.880 -0.4229  0.2007 -0.1788
 2560TIP3    H1 7644   5.536   3.302   3.892 -0.0651 -3.9442 -1.4628
 2560TIP3    H2 7645   5.426   3.360   3.806  1.1280  0.7327 -0.1159
 2561TIP3   OH2 7646   0.693   2.904   2.711 -0.2890 -0.2359 -0.4836
 2561TIP3    H1 7647   0.784   2.933   2.713 -0.6414  0.9344 -0.4592
 2561TIP3    H2 7648   0.643   2.983   2.689 -1.4236 -0.5237  0.8780
 2562TIP3   OH2 7649   3.116   3.363   1.872 -0.5200  0.0060  0.2604
 2562TIP3    H1 7650   3.136   3.318   1.954  0.7034  2.6738  1.5662
 2562TIP3    H2 7651   3.201   3.369   1.828 -0.6477  0.9469  0.1224
 2563TIP3   OH2 7652   0.603   1.094   1.039 -0.1191 -0.9321  0.1179
 2563TIP3    H1 7653   0.648   1.014   1.011  1.2283 -2.5419  5.5881
 2563TIP3    H2 7654   0.524   1.064   1.082 -1.4875  1.1115 -0.8012
 2564TIP3   OH2 7655   4.373   3.226   1.082  0.2816  0.1339  0.8548
 2564TIP3    H1 7656   4.282   3.224   1.112 -0.5095  0.3260 -1.3567
 2564TIP3    H2 7657   4.379   3.154   1.019  1.5383  0.4295  0.6086
 2565TIP3   OH2 7658   2.538   0.075   3.931 -0.0634  0.0952  0.0722
 2565TIP3    H1 7659   2.603   0.034   3.988  1.1406  1.5944 -0.1574
 2565TIP3    H2 7660   2.488   0.132   3.990 -0.4283 -0.1841  0.0388
 2566TIP3   OH2 7661   4.238   1.949   5.118  0.0407 -0.0822 -0.2615
 2566TIP3    H1 7662   4.264   2.041   5.122  1.9553 -0.6398  1.9250
 2566TIP3    H2 7663   4.150   1.948   5.156 -0.3257  0.9011 -1.0290
 2567TIP3   OH2 7664   2.322   5.574   1.600  0.2151 -0.1634 -0.1247
 2567TIP3    H1 7665   2.414   5.549   1.590  0.6860  1.5412 -0.3334
 2567TIP3    H2 7666   2.302   5.623   1.520 -0.4862  0.5710  0.4949
 2568TIP3   OH2 7667   4.112   2.434   2.737 -0.2908 -0.4352  0.3105
 2568TIP3    H1 7668   4.163   2.480   2.670 -0.9750  1.1189  0.8136
 2568TIP3    H2 7669   4.165   2.440   2.816 -0.9760  0.6806  0.6967
 2569TIP3   OH2 7670   1.279   0.908   4.514  0.0797 -0.1216 -0.1605
 2569TIP3    H1 7671   1.185   0.898   4.503  0.2563 -0.2031 -1.8755
 2569TIP3    H2 7672   1.304   0.841   4.578 -0.5660 -2.3344 -2.0952
 2570TIP3   OH2 7673   5.363   0.900   1.531 -0.2570  0.5592 -0.1370
 2570TIP3    H1 7674   5.394   0.831   1.590  0.0071  0.9272  0.1636
 2570TIP3    H2 7675   5.313   0.854   1.464 -1.7178  0.2559  1.1153
 2571TIP3   OH2 7676   1.518   6.418   2.134 -0.0857  0.3242  0.7414
 2571TIP3    H1 7677   1.582   6.396   2.066 -0.6480 -1.2953  0.6714
 2571TIP3    H2 7678   1.502   6.335   2.179 -1.9282  0.7256  0.9165
 2572TIP3   OH2 7679   5.971   1.557   1.745  0.1570 -0.8698 -0.5636
 2572TIP3    H1 7680   5.894   1.594   1.788  0.1822 -1.8412  0.3673
 2572TIP3    H2 7681   5.946   1.467   1.723  0.2233 -0.4607 -2.4311
 2573TIP3   OH2 7682   0.059   2.568   2.936 -0.3451  0.5309 -0.6505
 2573TIP3    H1 7683   0.011   2.552   3.017 -0.8241 -0.5513 -1.1207
 2573TIP3    H2 7684   0.149   2.583   2.965 -0.4852  0.0409  0.0820
 2574TIP3   OH2 7685   3.580   5.454   2.476 -0.3636  0.6219  0.4192
 2574TIP3    H1 7686   3.654   5.505   2.509 -1.0649  2.6250 -0.9161
 2574TIP3    H2 7687   3.621   5.388   2.420  0.4854  1.0863  0.4642
 2575TIP3   OH2 7688   2.888   5.757   0.097  0.4624 -0.3129 -0.1647
 2575TIP3    H1 7689   2.909   5.850   0.107  0.1879 -0.1179 -1.3185
 2575TIP3    H2 7690   2.939   5.729   0.021  2.4320 -1.7304  1.5740
 2576TIP3   OH2 7691   5.537   6.354   5.189 -0.0654 -0.2027  0.1329
 2576TIP3    H1 7692   5.595   6.430   5.194 -0.7674  0.2609  3.7313
 2576TIP3    H2 7693   5.569   6.295   5.257 -2.2255 -1.0743  0.4716
 2577TIP3   OH2 7694   5.497   6.027   5.046  0.3634  0.2371 -0.0583
 2577TIP3    H1 7695   5.413   6.047   5.005  0.4988 -0.4475 -0.7152
 2577TIP3    H2 7696   5.539   6.112   5.059 -0.5800  0.6070  0.6225
 2578TIP3   OH2 7697   0.998   4.502   2.311 -0.4214  0.2508  0.0564
 2578TIP3    H1 7698   0.923   4.472   2.363  0.0379 -1.9596 -0.4507
 2578TIP3    H2 7699   1.034   4.422   2.273  1.3419  1.4288 -0.8787
 2579TIP3   OH2 7700   2.457   6.735   3.160  0.0872 -0.1198  0.0655
 2579TIP3    H1 7701   2.527   6.791   3.193 -0.0651  0.7643 -1.0271
 2579TIP3    H2 7702   2.480   6.721   3.068 -1.6523  1.0242 -0.5984
 2580TIP3   OH2 7703   4.596   5.707   1.041 -0.1544  0.0147 -0.2900
 2580TIP3    H1 7704   4.541   5.685   1.116 -0.6006  0.1566 -0.5759
 2580TIP3    H2 7705   4.685   5.688   1.071 -0.3710 -0.4111  0.1001
 2581TIP3   OH2 7706   7.225   1.350   3.909  0.0895 -0.6299 -0.4923
 2581TIP3    H1 7707   7.270   1.434   3.923 -0.1692 -0.2302 -1.8915
 2581TIP3    H2 7708   7.136   1.366   3.942  0.9264 -1.4800  2.4502
 2582TIP3   OH2 7709   0.113   5.513   1.957 -0.5360 -0.2423  0.0612
 2582TIP3    H1 7710   0.072   5.501   1.872  0.3318 -0.8638 -0.2879
 2582TIP3    H2 7711   0.133   5.424   1.987 -0.6164 -0.0196  0.8096
 2583TIP3   OH2 7712   4.270   4.761   3.103 -0.1412  0.1915  0.0606
 2583TIP3    H1 7713   4.214   4.730   3.174 -0.7300  0.2868 -0.3521
 2583TIP3    H2 7714   4.270   4.690   3.039 -0.5174  0.5446 -0.3403
 2584TIP3   OH2 7715   0.663   0.155   2.031 -0.2368  0.1835 -0.1787
 2584TIP3    H1 7716   0.707   0.240   2.027  0.5541 -0.1574  0.9233
 2584TIP3    H2 7717   0.676   0.125   2.121 -0.5214 -1.1045 -0.5454
 2585TIP3   OH2 7718   0.054   6.201   2.739 -0.8153 -0.1680 -0.1130
 2585TIP3    H1 7719  -0.038   6.177   2.742 -0.5913 -1.1267 -0.3533
 2585TIP3    H2 7720   0.076   6.226   2.829 -1.2964  0.0377 -0.0508
 2586TIP3   OH2 7721   1.769   0.144   0.103 -0.1829 -0.1434  0.0001
 2586TIP3    H1 7722   1.833   0.079   0.072  0.0301 -0.1919  0.5407
 2586TIP3    H2 7723   1.686   0.095   0.108  0.4547 -1.1431  2.9180
 2587TIP3   OH2 7724   4.020   0.785   1.943  0.0825  0.2101  0.8960
 2587TIP3    H1 7725   3.993   0.877   1.947 -0.6646  0.0974 -0.5850
 2587TIP3    H2 7726   3.954   0.738   1.993 -0.2453  0.3699  0.6255
 2588TIP3   OH2 7727   1.107   5.769   1.305 -0.5951  0.8236  0.3231
 2588TIP3    H1 7728   1.054   5.818   1.242 -0.8689 -0.0468 -0.1355
 2588TIP3    H2 7729   1.065   5.683   1.310 -0.1942  0.6662  1.2086
 2589TIP3   OH2 7730   0.716   0.899   3.864 -0.1340  0.2990 -0.2713
 2589TIP3    H1 7731   0.783   0.934   3.923  0.3759 -0.3513 -0.4424
 2589TIP3    H2 7732   0.637   0.894   3.918 -0.3287  2.0319 -0.3556
 2590TIP3   OH2 7733   0.483   0.543   4.110 -0.0286  0.0099 -0.3440
 2590TIP3    H1 7734   0.407   0.552   4.052  0.9646  1.2535 -1.4868
 2590TIP3    H2 7735   0.477   0.453   4.141 -1.7579 -0.0488 -0.7006
 2591TIP3   OH2 7736   0.505   4.152   2.226  0.2723  0.3718  0.1496
 2591TIP3    H1 7737   0.487   4.191   2.312 -1.1019  0.0248  0.0416
 2591TIP3    H2 7738   0.600   4.138   2.226  0.1359 -1.0202  2.2305
 2592TIP3   OH2 7739   3.621   0.567   2.220  0.4328  0.5556 -0.0250
 2592TIP3    H1 7740   3.557   0.622   2.174  2.2177  2.6305 -0.1951
 2592TIP3    H2 7741   3.591   0.567   2.311 -0.0279  1.1739 -0.1672
 2593TIP3   OH2 7742   3.985   5.426   0.320 -0.3078 -0.0486  1.0421
 2593TIP3    H1 7743   4.012   5.482   0.247  0.4045  1.0216  2.0982
 2593TIP3    H2 7744   3.927   5.361   0.279 -0.2085  0.7224 -0.4158
 2594TIP3   OH2 7745   7.091   4.952   0.018  0.2501  0.2658  0.1202
 2594TIP3    H1 7746   7.093   5.034   0.067 -1.2003  0.9534 -0.8946
 2594TIP3    H2 7747   7.147   4.968  -0.058 -1.7507  1.1780 -1.2551
 2595TIP3   OH2 7748   4.144   5.634   0.487  0.3660  0.1494 -0.3221
 2595TIP3    H1 7749   4.190   5.550   0.487 -0.3346 -0.2580  0.8772
 2595TIP3    H2 7750   4.063   5.617   0.535 -1.6057  0.5647 -3.2415
 2596TIP3   OH2 7751   2.671   1.214   2.661  0.0375 -0.2455  0.8173
 2596TIP3    H1 7752   2.740   1.245   2.720 -0.4036  2.4327  0.0398
 2596TIP3    H2 7753   2.718   1.181   2.585  0.5432  1.6630  0.2403
 2597TIP3   OH2 7754   5.854   3.713   2.084 -0.0541 -0.2356  0.7040
 2597TIP3    H1 7755   5.828   3.723   1.993  1.2469 -0.3342  0.3030
 2597TIP3    H2 7756   5.866   3.803   2.115 -1.1921 -0.1686  1.0163
 2598TIP3   OH2 7757   1.577   2.546  -0.024  0.1593 -0.0635  0.8949
 2598TIP3    H1 7758   1.513   2.478  -0.008  0.6159 -0.3696  1.4855
 2598TIP3    H2 7759   1.574   2.601   0.055  2.9407 -1.9863  2.5450
 2599TIP3   OH2 7760   3.569   0.065   3.579 -0.0594  0.1494  0.4401
 2599TIP3    H1 7761   3.585  -0.023   3.612  2.2214  0.7158  1.0095
 2599TIP3    H2 7762   3.645   0.085   3.525 -1.0893  1.3584 -0.6234
 2600TIP3   OH2 7763   0.145   3.994   2.440  0.0568 -0.4424 -0.2655
 2600TIP3    H1 7764   0.109   4.044   2.367 -0.0791 -0.5320 -0.2600
 2600TIP3    H2 7765   0.141   3.903   2.411  1.8198 -0.3414 -0.9506
 2601TIP3   OH2 7766   1.243   2.731   4.411  0.1796 -0.6159 -0.2660
 2601TIP3    H1 7767   1.278   2.812   4.447 -2.0556  0.7537 -0.9702
 2601TIP3    H2 7768   1.286   2.722   4.326  0.6571 -0.3484 -0.0578
 2602TIP3   OH2 7769   4.690   0.733   2.952  0.0214  0.3454  0.1411
 2602TIP3    H1 7770   4.742   0.668   2.905  0.0019  0.4477 -0.0228
 2602TIP3    H2 7771   4.747   0.809   2.958  0.2132  0.1607  0.7340
 2603TIP3   OH2 7772   5.045   0.231   4.344  0.0852 -0.4843 -0.0633
 2603TIP3    H1 7773   5.099   0.185   4.279 -0.1875  0.1058 -0.7218
 2603TIP3    H2 7774   4.977   0.274   4.292  0.1015  0.3355  0.5762
 2604TIP3   OH2 7775   1.153   5.285   2.350  0.4579  0.5533 -0.4468
 2604TIP3    H1 7776   1.228   5.275   2.292  0.6283 -1.8026  0.0832
 2604TIP3    H2 7777   1.185   5.257   2.436 -0.8873 -0.1129 -0.1279
 2605TIP3   OH2 7778   3.605   2.531   5.353  0.1720 -0.0070 -0.2401
 2605TIP3    H1 7779   3.525   2.558   5.398  0.3444 -1.3201  0.9250
 2605TIP3    H2 7780   3.676   2.568   5.405  0.3583 -0.9156  0.1695
 2606TIP3   OH2 7781   2.820   5.332   3.454  0.5080  0.6181 -0.5128
 2606TIP3    H1 7782   2.885   5.400   3.437  1.1938  0.3215  0.7431
 2606TIP3    H2 7783   2.760   5.371   3.517 -0.0310  0.6013 -1.0169
 2607TIP3   OH2 7784   6.355   0.677   1.868  0.0967  0.1518  0.3060
 2607TIP3    H1 7785   6.404   0.602   1.901 -0.8175  0.0589  1.5205
 2607TIP3    H2 7786   6.420   0.747   1.861  0.4133  0.0862  2.0702
 2608TIP3   OH2 7787   4.387   3.355   1.701 -0.5861 -0.2509 -0.4085
 2608TIP3    H1 7788   4.355   3.332   1.613 -1.0207 -0.9207 -0.0848
 2608TIP3    H2 7789   4.469   3.306   1.709 -0.7637 -0.5275 -0.2789
 2609TIP3   OH2 7790   2.618   5.013   5.140 -0.3206  0.1108  0.4099
 2609TIP3    H1 7791   2.582   4.946   5.082  1.3587 -0.4532 -0.0509
 2609TIP3    H2 7792   2.706   4.981   5.162  0.3015  1.8703  0.6550
 2610TIP3   OH2 7793   1.763   5.507   1.485 -0.4949 -0.5692 -0.2005
 2610TIP3    H1 7794   1.725   5.595   1.489 -0.3958 -0.5570  0.7086
 2610TIP3    H2 7795   1.694   5.450   1.516 -0.3365 -0.7342 -0.1511
 2611TIP3   OH2 7796   0.791   5.305   2.488 -0.6527  0.3125  0.1131
 2611TIP3    H1 7797   0.869   5.275   2.440 -0.9785 -1.2018  0.4942
 2611TIP3    H2 7798   0.826   5.338   2.571 -0.2430  1.4787 -0.4984
 2612TIP3   OH2 7799   2.187   6.541   3.910  0.0783  0.1950  0.2274
 2612TIP3    H1 7800   2.203   6.536   3.816 -2.0180 -1.8425 -0.1091
 2612TIP3    H2 7801   2.108   6.490   3.924  0.7281 -0.1941  3.2252
 2613TIP3   OH2 7802   4.916   4.488   3.861  0.6418  0.0129 -0.2031
 2613TIP3    H1 7803   4.837   4.483   3.807  0.1561 -3.0436  0.5917
 2613TIP3    H2 7804   4.983   4.444   3.808  1.3626  1.0429 -0.1549
 2614TIP3   OH2 7805   3.772   2.031   2.001 -0.4957 -0.0520 -0.4518
 2614TIP3    H1 7806   3.732   2.117   2.014 -0.7403  0.0052 -1.5281
 2614TIP3    H2 7807   3.716   1.988   1.936 -0.7513 -1.2833  0.5510
 2615TIP3   OH2 7808   3.192   4.494   0.516  0.2013 -0.6026 -0.1544
 2615TIP3    H1 7809   3.249   4.561   0.478  1.5892 -1.0560  1.0232
 2615TIP3    H2 7810   3.252   4.429   0.553 -1.0991 -1.8360 -0.0901
 2616TIP3   OH2 7811   2.099   6.428   0.232 -0.1135 -0.6347  0.3345
 2616TIP3    H1 7812   2.134   6.341   0.213  0.4563 -0.1973 -0.6994
 2616TIP3    H2 7813   2.026   6.439   0.171 -0.7736 -0.7373  1.0914
 2617TIP3   OH2 7814   6.957   3.404   3.874  0.0344  0.5083 -0.1465
 2617TIP3    H1 7815   7.007   3.322   3.879 -0.6201  0.1620  1.4651
 2617TIP3    H2 7816   7.013   3.469   3.916 -0.3352  0.3745  0.5862
 2618TIP3   OH2 7817   3.820   0.610   2.813  0.2517 -0.1999  0.6882
 2618TIP3    H1 7818   3.840   0.656   2.732  0.8638 -1.8630 -0.1539
 2618TIP3    H2 7819   3.848   0.670   2.882  0.7624  0.7885 -0.3413
 2619TIP3   OH2 7820   0.442   4.925   0.174  0.1533  0.1428  0.2937
 2619TIP3    H1 7821   0.436   5.005   0.226  0.2980  0.6439 -0.4451
 2619TIP3    H2 7822   0.354   4.887   0.179 -0.5701  1.5226 -1.1686
 2620TIP3   OH2 7823   0.838   3.936   4.637 -0.4817  0.7754  0.1621
 2620TIP3    H1 7824   0.745   3.943   4.659 -0.0504  1.8331  1.8050
 2620TIP3    H2 7825   0.852   3.842   4.623 -1.9297  0.6771 -0.8948
 2621TIP3   OH2 7826   3.286   5.119   3.965 -0.0015  0.0409  0.3437
 2621TIP3    H1 7827   3.300   5.031   3.999  2.0462 -0.7409 -2.2197
 2621TIP3    H2 7828   3.193   5.122   3.944 -0.0718 -1.5864  0.3146
 2622TIP3   OH2 7829   5.524   3.182   0.666 -0.3548  0.1373  0.5121
 2622TIP3    H1 7830   5.543   3.103   0.617 -0.9093  0.1041  0.3481
 2622TIP3    H2 7831   5.554   3.162   0.755  2.2029  0.7847 -0.1064
 2623TIP3   OH2 7832   5.666   6.610   3.835 -0.6060 -0.2420  0.4161
 2623TIP3    H1 7833   5.619   6.564   3.765 -0.8631 -0.1310  0.5118
 2623TIP3    H2 7834   5.706   6.541   3.887  1.0721 -0.2737 -0.8509
 2624TIP3   OH2 7835   5.796   2.917   2.530  0.1576  0.9140 -0.0782
 2624TIP3    H1 7836   5.879   2.878   2.500  0.6518  0.8736  1.2929
 2624TIP3    H2 7837   5.816   3.009   2.543  0.6144  0.5377  2.2920
 2625TIP3   OH2 7838   5.404   2.523   1.344 -0.3371  0.1370 -0.2871
 2625TIP3    H1 7839   5.314   2.491   1.330 -0.2022  0.4701 -2.2010
 2625TIP3    H2 7840   5.405   2.610   1.303  0.5432  0.6501  0.7958
 2626TIP3   OH2 7841   5.341   5.953   5.470 -0.5807 -0.0816 -0.5873
 2626TIP3    H1 7842   5.272   6.002   5.425  0.8360 -0.8045 -3.7901
 2626TIP3    H2 7843   5.335   5.865   5.434  2.2856 -0.0386 -1.4150
 2627TIP3   OH2 7844   2.704   4.152   4.226 -0.8260  0.0931 -0.1297
 2627TIP3    H1 7845   2.697   4.131   4.319  0.0955 -1.0382 -0.2894
 2627TIP3    H2 7846   2.770   4.221   4.222 -1.3182  0.5859  0.0977
 2628TIP3   OH2 7847   0.404   6.060   4.941 -0.2945  0.0385  0.2048
 2628TIP3    H1 7848   0.349   6.138   4.940 -0.3367  0.0261  0.9120
 2628TIP3    H2 7849   0.402   6.028   4.851  1.1484  1.8562 -0.5527
 2629TIP3   OH2 7850   0.089   5.184   3.384  0.3277  0.0835 -0.0702
 2629TIP3    H1 7851  -0.005   5.181   3.404  0.0417  1.8277 -0.9581
 2629TIP3    H2 7852   0.122   5.099   3.412 -1.4337 -0.4052  0.6733
 2630TIP3   OH2 7853   0.376   4.381   5.029  0.4415 -0.8238  0.1893
 2630TIP3    H1 7854   0.290   4.418   5.006  0.2428  0.0892  2.2129
 2630TIP3    H2 7855   0.439   4.438   4.984  0.0434  0.1554  0.8435
 2631TIP3   OH2 7856   2.414   5.753   1.385  0.6249  0.0921  0.1010
 2631TIP3    H1 7857   2.478   5.816   1.418  1.1017 -0.7695  0.8528
 2631TIP3    H2 7858   2.448   5.726   1.300  1.3090 -0.4147  0.5253
 2632TIP3   OH2 7859   6.868   0.638   0.903 -0.1999 -0.1840 -0.5289
 2632TIP3    H1 7860   6.858   0.590   0.985 -0.1956  0.4500 -0.1535
 2632TIP3    H2 7861   6.834   0.579   0.836  0.8654 -1.1781 -0.2213
 2633TIP3   OH2 7862   6.100   1.388   2.702 -0.3549 -0.1604 -0.1700
 2633TIP3    H1 7863   6.034   1.366   2.636 -0.9238 -3.5426  1.3430
 2633TIP3    H2 7864   6.049   1.425   2.775 -0.4017 -1.0136  0.2485
 2634TIP3   OH2 7865   4.756   4.106   4.484 -0.1461 -0.0092 -0.0519
 2634TIP3    H1 7866   4.744   4.014   4.507 -0.4238 -0.4361 -1.7283
 2634TIP3    H2 7867   4.677   4.149   4.514 -0.2617 -0.4226  0.2474
 2635TIP3   OH2 7868   7.037   5.451   5.162  0.2341  0.9848  0.0896
 2635TIP3    H1 7869   6.946   5.448   5.191 -0.1062  1.5816 -0.8816
 2635TIP3    H2 7870   7.053   5.543   5.142  0.5192  0.6489 -1.3554
 2636TIP3   OH2 7871   5.162   0.289   3.597 -0.6393  0.5369 -0.3981
 2636TIP3    H1 7872   5.146   0.240   3.678  0.0039 -0.1787 -0.6954
 2636TIP3    H2 7873   5.224   0.357   3.622  0.8130 -0.6675 -0.6063
 2637TIP3   OH2 7874   6.255   4.112   3.063  0.1624  0.1876  0.1567
 2637TIP3    H1 7875   6.236   4.205   3.076 -0.5223 -0.0496  0.9261
 2637TIP3    H2 7876   6.349   4.110   3.042  0.6014  0.9066  1.8806
 2638TIP3   OH2 7877   5.514   4.440   2.098 -0.2712  0.0008  0.3115
 2638TIP3    H1 7878   5.441   4.379   2.110  0.8395 -2.1829 -2.6133
 2638TIP3    H2 7879   5.476   4.516   2.055 -0.8866 -1.3211 -1.6381
 2639TIP3   OH2 7880   5.564   4.490   3.467  0.1892  0.6498 -0.3393
 2639TIP3    H1 7881   5.608   4.550   3.408  2.8278 -2.0308 -1.3669
 2639TIP3    H2 7882   5.628   4.475   3.538 -1.1604  0.4815  0.8851
 2640TIP3   OH2 7883   5.180   0.811   1.311  0.3386 -0.1169 -0.7712
 2640TIP3    H1 7884   5.140   0.746   1.253  0.7071 -0.6923 -0.3903
 2640TIP3    H2 7885   5.107   0.862   1.344  0.0016 -0.6058 -0.7560
 2641TIP3   OH2 7886   5.015   1.248   4.248 -0.3339  0.0588  0.0263
 2641TIP3    H1 7887   4.929   1.246   4.292  0.0154  0.9828  0.7942
 2641TIP3    H2 7888   5.075   1.211   4.313  0.2390  1.7131  0.4763
 2642TIP3   OH2 7889   6.640   4.345   4.596  0.0337  0.3998  0.9805
 2642TIP3    H1 7890   6.558   4.297   4.609  0.2010 -0.4037 -0.7296
 2642TIP3    H2 7891   6.688   4.331   4.678 -0.2545 -1.7196  0.8578
 2643TIP3   OH2 7892   2.738   3.195   2.374  0.4234  0.6675  0.6038
 2643TIP3    H1 7893   2.661   3.242   2.343  0.8090  1.5742  0.9813
 2643TIP3    H2 7894   2.783   3.257   2.431  1.1832 -0.0116  0.7670
 2644TIP3   OH2 7895   0.085   1.919   4.122 -0.3921 -0.2740  0.3056
 2644TIP3    H1 7896   0.066   1.923   4.029  1.4981 -0.1366 -0.1248
 2644TIP3    H2 7897   0.060   1.830   4.148 -0.7567 -0.3785 -0.3774
 2645TIP3   OH2 7898   5.766   2.579   2.725 -0.2903 -0.2299 -0.2277
 2645TIP3    H1 7899   5.674   2.564   2.745 -0.0367  0.3277  1.4612
 2645TIP3    H2 7900   5.813   2.562   2.807  0.9833  0.6379 -0.7268
 2646TIP3   OH2 7901   3.490   5.243   3.163 -0.1128 -0.5265 -0.5251
 2646TIP3    H1 7902   3.409   5.267   3.209 -0.0567 -0.4490 -0.4674
 2646TIP3    H2 7903   3.464   5.171   3.105 -0.6540  0.7273 -1.9035
 2647TIP3   OH2 7904   1.422   5.852   1.066  0.2999  0.0768 -0.0911
 2647TIP3    H1 7905   1.419   5.796   1.143  1.7496  0.1469  0.0409
 2647TIP3    H2 7906   1.495   5.818   1.014  0.1942  0.8633 -0.7807
 2648TIP3   OH2 7907   4.824   1.832   0.518 -0.6195 -0.3817 -0.4138
 2648TIP3    H1 7908   4.786   1.920   0.511 -0.6115 -0.3676 -0.2795
 2648TIP3    H2 7909   4.761   1.775   0.476  0.3333 -0.0421 -2.4409
 2649TIP3   OH2 7910   6.437   3.565   0.880  1.1594  0.1077 -0.3439
 2649TIP3    H1 7911   6.458   3.505   0.808  0.7498  0.8893 -1.1267
 2649TIP3    H2 7912   6.441   3.510   0.959 -0.3479 -1.2391 -1.1511
 2650TIP3   OH2 7913   1.444   4.621   0.782 -0.5867  0.2372 -0.1800
 2650TIP3    H1 7914   1.444   4.715   0.798 -1.2078  0.4893 -1.4806
 2650TIP3    H2 7915   1.358   4.591   0.812  0.2005 -0.2365  1.7384
 2651TIP3   OH2 7916   6.503   2.688   0.071 -0.2549 -0.4326 -0.1432
 2651TIP3    H1 7917   6.469   2.600   0.087 -0.3070 -0.6415 -1.2977
 2651TIP3    H2 7918   6.430   2.746   0.094 -0.1878 -0.6769  0.7136
 2652TIP3   OH2 7919   1.886   2.315   3.357 -0.3069  0.1805  0.1038
 2652TIP3    H1 7920   1.797   2.330   3.391  0.1004  1.3570  0.7077
 2652TIP3    H2 7921   1.872   2.269   3.274 -1.4644 -0.0599  0.4073
 2653TIP3   OH2 7922   4.078   3.469   0.052 -0.3197 -0.5772  0.0786
 2653TIP3    H1 7923   3.990   3.498   0.078 -0.6338 -0.8640 -0.6421
 2653TIP3    H2 7924   4.129   3.550   0.047 -0.4060 -0.4541  0.9672
 2654TIP3   OH2 7925   0.271   4.022   1.968 -0.9012  0.4812  0.1271
 2654TIP3    H1 7926   0.349   4.066   1.934 -1.5935  1.6063 -0.0461
 2654TIP3    H2 7927   0.253   3.952   1.906  0.8983 -0.8521  1.0199
 2655TIP3   OH2 7928   2.664   2.601   5.065  0.5779  0.0018 -0.2495
 2655TIP3    H1 7929   2.705   2.580   5.149  0.4876  0.3953 -0.1052
 2655TIP3    H2 7930   2.734   2.588   5.001 -0.0216 -2.8582 -0.4470
 2656TIP3   OH2 7931   6.565   4.527   4.200  0.4417 -0.4755  0.7563
 2656TIP3    H1 7932   6.498   4.508   4.134  0.4336  1.6738  0.0749
 2656TIP3    H2 7933   6.517   4.525   4.283 -0.0761 -0.7659  0.4591
 2657TIP3   OH2 7934   3.883   2.432   4.694  0.0645 -0.0404 -0.5256
 2657TIP3    H1 7935   3.816   2.365   4.682  1.4839 -1.3807 -1.3913
 2657TIP3    H2 7936   3.848   2.509   4.649 -1.6845 -0.0900  0.6436
 2658TIP3   OH2 7937   5.572   5.843   4.185 -0.2205  0.0841 -0.7147
 2658TIP3    H1 7938   5.540   5.800   4.106 -0.4688 -0.9705 -0.0652
 2658TIP3    H2 7939   5.515   5.810   4.255 -0.4108  1.4862 -0.1852
 2659TIP3   OH2 7940   6.721   3.197   5.386 -0.2301  0.2536 -0.0022
 2659TIP3    H1 7941   6.779   3.138   5.435  1.4236  1.8648  0.0854
 2659TIP3    H2 7942   6.702   3.149   5.305 -1.0137 -1.4284  1.1154
 2660TIP3   OH2 7943   5.848   1.739   3.034  0.2759  0.6379 -0.0145
 2660TIP3    H1 7944   5.798   1.795   2.974  0.3108  2.3585  1.4842
 2660TIP3    H2 7945   5.783   1.705   3.095 -0.1023 -2.7164 -2.0403
 2661TIP3   OH2 7946   5.981   2.173   1.981 -0.2087  0.0804 -0.3901
 2661TIP3    H1 7947   5.967   2.080   1.964 -1.7538  0.3304 -0.6234
 2661TIP3    H2 7948   6.053   2.175   2.044 -0.4995 -1.2910  0.0238
 2662TIP3   OH2 7949   5.740   0.960   2.563  0.4914 -0.5837  0.1876
 2662TIP3    H1 7950   5.666   0.947   2.503  1.7002 -0.4628 -1.4158
 2662TIP3    H2 7951   5.740   0.881   2.618 -2.6403  0.7748  2.4148
 2663TIP3   OH2 7952   2.618   1.630   0.027 -0.4223  0.0437  0.0517
 2663TIP3    H1 7953   2.706   1.618  -0.009 -0.2398  0.0951  0.4797
 2663TIP3    H2 7954   2.627   1.700   0.091 -0.4752 -0.8779  1.1018
 2664TIP3   OH2 7955   4.523   5.527   0.558 -0.1322  0.0151 -0.3469
 2664TIP3    H1 7956   4.549   5.513   0.649 -1.4241  0.6923  0.1517
 2664TIP3    H2 7957   4.435   5.490   0.552  0.4604 -1.2992 -1.7181
 2665TIP3   OH2 7958   5.192   1.660   1.887 -0.2408 -0.0427 -0.0347
 2665TIP3    H1 7959   5.167   1.729   1.826  1.5807  1.0353  0.3867
 2665TIP3    H2 7960   5.246   1.600   1.835 -1.9240 -1.3145 -0.4383
 2666TIP3   OH2 7961   4.546   0.966   1.038 -0.6444 -0.3926 -0.0382
 2666TIP3    H1 7962   4.462   1.009   1.053 -0.3376  0.4561 -0.6538
 2666TIP3    H2 7963   4.607   1.038   1.022  0.6317 -0.8416  2.2290
 2667TIP3   OH2 7964   2.202   0.695   0.196 -0.9702 -0.4275  0.4789
 2667TIP3    H1 7965   2.245   0.731   0.119 -1.8575  0.2149  0.2646
 2667TIP3    H2 7966   2.250   0.615   0.215  0.6168  0.5023  0.5439
 2668TIP3   OH2 7967   2.287   4.546   5.732 -0.0765  0.1266 -0.1658
 2668TIP3    H1 7968   2.282   4.465   5.783 -1.8514  0.3561  0.0939
 2668TIP3    H2 7969   2.213   4.541   5.672 -0.2382  1.5649 -0.1201
 2669TIP3   OH2 7970   4.667   3.353   4.945  0.7742 -0.5092 -0.2581
 2669TIP3    H1 7971   4.698   3.385   5.030  2.4520  0.3403 -1.1444
 2669TIP3    H2 7972   4.593   3.409   4.923  0.8422 -0.2140  0.2669
 2670TIP3   OH2 7973   2.591   3.191   3.491 -0.0929 -0.6465  0.0898
 2670TIP3    H1 7974   2.626   3.237   3.567 -2.2518 -0.7081  1.2008
 2670TIP3    H2 7975   2.651   3.213   3.420  1.5539  0.0500  1.6197
 2671TIP3   OH2 7976   4.779   5.560   2.475  0.6516  0.4811 -0.3631
 2671TIP3    H1 7977   4.792   5.492   2.409 -0.2117 -0.1720  0.1067
 2671TIP3    H2 7978   4.850   5.622   2.461  0.2995  0.5388 -2.1175
 2672TIP3   OH2 7979   6.143   0.943   3.298  0.2521  0.0866 -0.3137
 2672TIP3    H1 7980   6.065   0.946   3.354 -0.4183  0.5255 -1.2380
 2672TIP3    H2 7981   6.199   1.014   3.331 -0.6178  1.0523 -0.8596
 2673TIP3   OH2 7982   6.383   0.778   1.076 -0.3513 -0.0225  0.7027
 2673TIP3    H1 7983   6.377   0.730   1.158  0.7021  0.5485  1.1363
 2673TIP3    H2 7984   6.466   0.751   1.037  0.2739  1.4014  0.9592
 2674TIP3   OH2 7985   2.333   2.158   0.370  0.3309  0.2277 -0.0911
 2674TIP3    H1 7986   2.251   2.172   0.324 -0.0984 -1.1622  0.1982
 2674TIP3    H2 7987   2.340   2.232   0.430 -0.4207  0.6551 -0.5193
 2675TIP3   OH2 7988   7.165   6.192   1.537 -0.4679  0.0096 -0.1742
 2675TIP3    H1 7989   7.141   6.284   1.545  0.6847  0.3178 -0.1699
 2675TIP3    H2 7990   7.103   6.156   1.473 -2.1573  0.3197  1.1892
 2676TIP3   OH2 7991   5.975   4.438   1.159 -0.2952  0.2670  0.2698
 2676TIP3    H1 7992   5.885   4.436   1.126 -0.6984 -1.0657  1.3953
 2676TIP3    H2 7993   5.973   4.499   1.233 -0.0494  0.9222 -0.2454
 2677TIP3   OH2 7994   4.009   5.339   1.423  0.3348 -0.2789 -0.5705
 2677TIP3    H1 7995   4.000   5.245   1.404 -1.9254 -0.1487 -0.5074
 2677TIP3    H2 7996   4.036   5.343   1.514 -0.7676 -0.8930 -0.2024
 2678TIP3   OH2 7997   6.232   0.449   2.155  0.1497 -0.4199 -0.4810
 2678TIP3    H1 7998   6.314   0.496   2.167  0.0880 -0.2880 -0.5729
 2678TIP3    H2 7999   6.168   0.498   2.207  0.2881 -0.9639  0.2118
 2679TIP3   OH2 8000   6.172   4.087   0.453 -0.4403 -0.0844  0.2959
 2679TIP3    H1 8001   6.092   4.043   0.483 -1.2449  1.3119  0.2846
 2679TIP3    H2 8002   6.222   4.103   0.534 -0.8073  0.2424  0.4600
 2680TIP3   OH2 8003   4.392   2.231   3.484 -0.0537  0.0675 -0.0702
 2680TIP3    H1 8004   4.321   2.288   3.513 -0.1862 -0.3995  0.5672
 2680TIP3    H2 8005   4.367   2.144   3.517  1.2873  0.0636  1.0562
 2681TIP3   OH2 8006   4.065   5.984   2.176 -0.3328 -0.1658 -0.0625
 2681TIP3    H1 8007   4.029   5.911   2.125 -1.4280 -0.2326  0.7751
 2681TIP3    H2 8008   4.094   5.944   2.257 -1.0008  0.3250  0.4310
 2682TIP3   OH2 8009   2.818   2.928   2.363 -0.7774  0.1644 -0.2469
 2682TIP3    H1 8010   2.908   2.914   2.334 -1.1532  1.0802 -1.9941
 2682TIP3    H2 8011   2.800   3.020   2.342 -1.3714  0.7226  2.2869
 2683TIP3   OH2 8012   1.149   4.040   4.267  0.4104 -0.1268  0.3070
 2683TIP3    H1 8013   1.162   4.044   4.172 -0.7292  0.3396  0.1659
 2683TIP3    H2 8014   1.060   4.070   4.281 -0.4200 -2.7166  1.2933
 2684TIP3   OH2 8015   0.162   0.964   0.993 -0.4267 -0.3688 -0.2048
 2684TIP3    H1 8016   0.082   0.959   1.045 -1.9566  0.7577 -2.2643
 2684TIP3    H2 8017   0.163   0.882   0.943  0.6756 -1.1446  1.0168
 2685TIP3   OH2 8018   6.405   1.824   2.899 -0.1461  0.2405  0.2699
 2685TIP3    H1 8019   6.367   1.867   2.975 -1.9599  2.3982 -1.7202
 2685TIP3    H2 8020   6.470   1.886   2.866  0.5316 -0.6108 -0.0406
 2686TIP3   OH2 8021   5.469   2.882   1.738  0.0338  0.0420  0.0720
 2686TIP3    H1 8022   5.496   2.956   1.685 -1.5489  0.6950  0.1140
 2686TIP3    H2 8023   5.550   2.843   1.769  0.9022  1.6349 -0.1221
 2687TIP3   OH2 8024   1.812   4.889   1.176  0.2604  0.0829  0.2056
 2687TIP3    H1 8025   1.772   4.806   1.148  1.4577 -0.3735 -0.2038
 2687TIP3    H2 8026   1.744   4.931   1.230  0.4178 -2.2064  2.3624
 2688TIP3   OH2 8027   1.078   5.716   0.152 -0.5114 -0.5742 -0.4335
 2688TIP3    H1 8028   0.994   5.680   0.125 -0.2403 -0.5020 -1.4450
 2688TIP3    H2 8029   1.060   5.809   0.169 -0.8956 -0.8357  0.6721
 2689TIP3   OH2 8030   7.199   6.780   1.932 -0.1277  0.2962  0.3270
 2689TIP3    H1 8031   7.181   6.804   1.841 -0.7996 -1.4254 -0.0437
 2689TIP3    H2 8032   7.131   6.823   1.982 -1.0194 -0.3936 -0.2515
 2690TIP3   OH2 8033   6.901   3.137   1.878 -0.0214  0.0804  0.7074
 2690TIP3    H1 8034   6.876   3.058   1.831  0.6597  0.8797 -1.0796
 2690TIP3    H2 8035   6.825   3.158   1.932 -1.1307 -0.4921 -0.5803
 2691TIP3   OH2 8036   1.836   6.459   0.542 -0.3894 -0.5629 -0.2066
 2691TIP3    H1 8037   1.926   6.459   0.574 -0.8394 -0.3780  1.1231
 2691TIP3    H2 8038   1.789   6.403   0.604 -1.0706 -1.1709 -1.2532
 2692TIP3   OH2 8039   5.155   0.110   0.494  0.7991  0.0008  0.5769
 2692TIP3    H1 8040   5.240   0.068   0.507  1.0236 -0.1320 -1.0835
 2692TIP3    H2 8041   5.136   0.152   0.578  1.2364 -2.1707  1.8583
 2693TIP3   OH2 8042   6.541   5.821   4.929  0.2090  0.1205 -0.0286
 2693TIP3    H1 8043   6.521   5.776   5.011  1.0974  0.4897  0.4036
 2693TIP3    H2 8044   6.505   5.764   4.861 -1.4826  0.3285  0.6459
 2694TIP3   OH2 8045   5.438   5.816   1.874 -0.3709  0.1457  0.6652
 2694TIP3    H1 8046   5.433   5.759   1.798  0.6033 -0.8029  1.2876
 2694TIP3    H2 8047   5.450   5.757   1.948  0.0161  1.1158  1.4027
 2695TIP3   OH2 8048   4.311   6.346   3.198 -0.2504 -0.1023 -0.0226
 2695TIP3    H1 8049   4.366   6.345   3.119  0.5518 -1.4191  0.5322
 2695TIP3    H2 8050   4.355   6.286   3.258 -0.5186  1.3321  1.6692
 2696TIP3   OH2 8051   2.987   0.599   3.896  0.1011 -0.0357 -0.4369
 2696TIP3    H1 8052   3.071   0.557   3.915  1.3904  2.0343 -1.2110
 2696TIP3    H2 8053   2.966   0.647   3.977 -0.4092 -0.6471 -0.2024
 2697TIP3   OH2 8054   3.297   5.162   0.792 -0.7756  0.1851  0.0721
 2697TIP3    H1 8055   3.364   5.220   0.755  0.7420 -0.2036  2.0578
 2697TIP3    H2 8056   3.345   5.088   0.827 -2.3169 -0.3933  1.0766
 2698TIP3   OH2 8057   2.653   4.282   4.920  0.1585 -0.0679 -0.3861
 2698TIP3    H1 8058   2.644   4.336   4.842  2.0095  0.9945  0.0796
 2698TIP3    H2 8059   2.654   4.345   4.992  0.5902 -0.8638  0.3184
 2699TIP3   OH2 8060   1.719   2.719   3.020 -0.5290  0.0390 -0.0111
 2699TIP3    H1 8061   1.755   2.784   2.959 -0.7161 -0.3880 -0.5865
 2699TIP3    H2 8062   1.640   2.760   3.054 -0.8819 -0.0495 -0.7007
 2700TIP3   OH2 8063   3.604   5.614   4.379 -0.5733  0.2393 -0.1540
 2700TIP3    H1 8064   3.589   5.687   4.440 -0.0846  0.2330 -0.0245
 2700TIP3    H2 8065   3.683   5.571   4.412 -1.0103 -0.5185 -0.0667
 2701TIP3   OH2 8066   5.037   3.759   0.380  0.0613  0.0382 -0.1570
 2701TIP3    H1 8067   4.992   3.675   0.391  2.1937 -1.2816 -0.8669
 2701TIP3    H2 8068   5.119   3.748   0.427 -0.0005  2.1291  0.5507
 2702TIP3   OH2 8069   5.475   3.430   0.523  0.4318  0.0833  0.2946
 2702TIP3    H1 8070   5.483   3.347   0.571 -0.2234 -0.0314  0.2138
 2702TIP3    H2 8071   5.508   3.496   0.583  0.0792 -0.1248  0.7216
 2703TIP3   OH2 8072   4.699   3.664   4.992 -0.0747 -0.4084 -0.1322
 2703TIP3    H1 8073   4.641   3.699   5.059 -0.3310 -1.7733  0.3978
 2703TIP3    H2 8074   4.642   3.613   4.934  0.4271 -0.9058 -0.2082
 2704TIP3   OH2 8075   6.313   4.430   2.054  0.1964  0.2726  0.0725
 2704TIP3    H1 8076   6.365   4.495   2.102 -0.0987  1.2189 -0.8381
 2704TIP3    H2 8077   6.255   4.393   2.120  1.5360 -0.3160  0.9710
 2705TIP3   OH2 8078   4.274   2.593   3.799 -0.0770 -0.0683  0.4077
 2705TIP3    H1 8079   4.186   2.628   3.784  0.0516 -0.1060 -0.5378
 2705TIP3    H2 8080   4.263   2.498   3.794  0.0142 -0.0724  0.2818
 2706TIP3   OH2 8081   6.088   2.837   1.372 -0.0988  0.2302  0.4393
 2706TIP3    H1 8082   5.993   2.835   1.379 -0.3578  1.0822 -1.9825
 2706TIP3    H2 8083   6.118   2.789   1.449 -2.4430  0.4611  1.5926
 2707TIP3   OH2 8084   0.152   4.109   1.712 -0.1310  0.1537  0.3634
 2707TIP3    H1 8085   0.125   4.147   1.796  0.2327 -0.7835  0.9211
 2707TIP3    H2 8086   0.208   4.175   1.672 -0.4717  0.6953  0.7671
 2708TIP3   OH2 8087   6.382   1.311   5.126 -0.6449 -0.4787 -0.1160
 2708TIP3    H1 8088   6.411   1.401   5.138 -1.0947 -0.0566 -2.0113
 2708TIP3    H2 8089   6.411   1.266   5.206 -1.0742  1.4832  1.2033
 2709TIP3   OH2 8090   5.560   1.894   1.902  0.4448 -0.3908  0.1052
 2709TIP3    H1 8091   5.538   1.879   1.810  1.3390 -0.8235 -0.0466
 2709TIP3    H2 8092   5.568   1.989   1.910 -1.4814 -0.1898  0.1909
 2710TIP3   OH2 8093   6.918   1.634   1.217  0.2904  0.2627  0.2662
 2710TIP3    H1 8094   6.919   1.540   1.237 -1.2740  0.7092  2.9559
 2710TIP3    H2 8095   7.010   1.660   1.223  0.6407 -0.9251  0.4666
 2711TIP3   OH2 8096   1.190   2.377   3.766 -0.3092  0.5234 -0.1625
 2711TIP3    H1 8097   1.159   2.326   3.692 -1.0485  1.4579 -0.5221
 2711TIP3    H2 8098   1.241   2.316   3.819 -0.9986 -0.5171 -0.6845
 2712TIP3   OH2 8099   6.355   6.616   0.753  0.2127  0.4553  0.0862
 2712TIP3    H1 8100   6.444   6.590   0.728  0.3524  1.5030 -0.5494
 2712TIP3    H2 8101   6.324   6.668   0.679 -1.3639 -0.8341 -0.2100
 2713TIP3   OH2 8102   6.067   4.557   5.507  0.0137 -0.1073  0.6956
 2713TIP3    H1 8103   6.081   4.575   5.600 -0.4745 -0.3829  0.8230
 2713TIP3    H2 8104   6.075   4.642   5.464 -0.1162  0.0729  1.0303
 2714TIP3   OH2 8105   2.690   0.285   3.627 -0.3252 -0.5797  0.3620
 2714TIP3    H1 8106   2.692   0.280   3.723 -0.4295 -0.0342  0.3969
 2714TIP3    H2 8107   2.598   0.268   3.605 -0.1011 -1.7644  0.2850
 2715TIP3   OH2 8108   4.538   4.273   3.313 -0.0933 -0.3037  0.1198
 2715TIP3    H1 8109   4.572   4.185   3.331 -0.8174 -0.6999 -0.4091
 2715TIP3    H2 8110   4.598   4.332   3.360  0.0831 -1.1032  0.9202
 2716TIP3   OH2 8111   3.229   4.903   5.738 -0.3732 -0.2948 -0.4128
 2716TIP3    H1 8112   3.137   4.882   5.755 -0.0251 -2.3465 -0.7621
 2716TIP3    H2 8113   3.238   4.899   5.642  0.0785 -0.0588 -0.3865
 2717TIP3   OH2 8114   5.690   1.338   0.576  0.6423  0.0587  0.6017
 2717TIP3    H1 8115   5.623   1.400   0.606  0.8069 -0.3104  1.7691
 2717TIP3    H2 8116   5.720   1.375   0.492  0.0766  1.0537  0.8145
 2718TIP3   OH2 8117   6.586   5.955   4.357 -0.0642  0.1134  0.5239
 2718TIP3    H1 8118   6.583   5.942   4.452 -1.7082 -0.7825  0.3853
 2718TIP3    H2 8119   6.679   5.972   4.338  0.6393 -1.6676  2.0469
 2719TIP3   OH2 8120   0.399   3.054   2.182 -0.1286  0.1753  0.1394
 2719TIP3    H1 8121   0.396   2.979   2.241 -1.5068 -1.7778 -2.2330
 2719TIP3    H2 8122   0.310   3.060   2.146  0.7960  0.7824 -2.2426
 2720TIP3   OH2 8123   2.138   3.467   4.563 -0.2468  0.0079  0.1689
 2720TIP3    H1 8124   2.146   3.523   4.640  0.6095 -0.0658  0.1468
 2720TIP3    H2 8125   2.098   3.522   4.497 -0.4838  0.2364  0.5012
 2721TIP3   OH2 8126   5.714   5.249   5.224  0.2594  0.6883  0.2549
 2721TIP3    H1 8127   5.704   5.241   5.130 -1.6332 -1.9990  0.5589
 2721TIP3    H2 8128   5.743   5.339   5.239  0.2433  1.2840 -2.8147
 2722TIP3   OH2 8129   2.618   0.900   5.557  0.4007  0.3402 -0.3143
 2722TIP3    H1 8130   2.575   0.837   5.500  0.9128  0.9862 -1.4659
 2722TIP3    H2 8131   2.680   0.848   5.608 -0.2392 -0.2852 -0.1550
 2723TIP3   OH2 8132   3.648   0.408   4.402 -0.0123 -0.3778  0.3306
 2723TIP3    H1 8133   3.709   0.452   4.461 -1.0841  0.7202  0.6444
 2723TIP3    H2 8134   3.587   0.363   4.459  0.5441 -1.5877  0.0143
 2724TIP3   OH2 8135   2.585   5.122   5.519 -0.3671  0.1294  0.0998
 2724TIP3    H1 8136   2.493   5.148   5.524  0.2384  2.3713  0.6939
 2724TIP3    H2 8137   2.624   5.156   5.599  0.9836 -0.8853 -0.0908
 2725TIP3   OH2 8138   6.126   6.301   0.585 -0.6725 -0.3950  0.1986
 2725TIP3    H1 8139   6.074   6.276   0.661 -1.9749  1.1593 -0.1140
 2725TIP3    H2 8140   6.080   6.376   0.548 -1.2408 -2.2398 -3.3165
 2726TIP3   OH2 8141   4.673   4.592   0.455  0.4421 -0.1063 -0.6344
 2726TIP3    H1 8142   4.653   4.617   0.365  1.0577 -0.3966 -0.8585
 2726TIP3    H2 8143   4.680   4.497   0.453  0.8080 -0.0897 -0.3583
 2727TIP3   OH2 8144   2.639   0.460   1.478 -0.4709 -0.4584  0.4926
 2727TIP3    H1 8145   2.609   0.550   1.468 -0.3628 -0.5362 -0.7601
 2727TIP3    H2 8146   2.562   0.407   1.457 -0.6488 -0.6672  1.6297
 2728TIP3   OH2 8147   2.652   5.653   2.774 -0.2698  0.0753 -0.1109
 2728TIP3    H1 8148   2.731   5.633   2.825  1.2431 -0.9921 -2.7060
 2728TIP3    H2 8149   2.580   5.614   2.825  1.2926 -1.9534  0.6829
 2729TIP3   OH2 8150   2.136   3.766   3.011 -0.2901  0.5513 -0.3834
 2729TIP3    H1 8151   2.067   3.794   3.071  1.0416 -0.4428  1.7381
 2729TIP3    H2 8152   2.157   3.676   3.039  2.6738  1.2327 -0.0567
 2730TIP3   OH2 8153   2.938   6.746   3.332 -0.6592 -0.0081  0.0373
 2730TIP3    H1 8154   2.879   6.672   3.344 -1.5015  0.6354 -0.0638
 2730TIP3    H2 8155   2.883   6.823   3.345  0.5569  0.6137  1.8836
 2731TIP3   OH2 8156   0.936   5.035   1.490  0.1001 -0.6039 -0.2462
 2731TIP3    H1 8157   1.006   4.970   1.498  1.7771  1.2851  1.4626
 2731TIP3    H2 8158   0.913   5.057   1.580 -1.3888  0.2158 -0.7918
 2732TIP3   OH2 8159   4.328   5.866   2.341 -0.1114 -0.5193  0.1176
 2732TIP3    H1 8160   4.305   5.810   2.416  0.7536 -0.6322  0.3051
 2732TIP3    H2 8161   4.362   5.805   2.275  1.0971 -0.2119  0.4243
 2733TIP3   OH2 8162   0.951   3.885   2.242 -0.0494  0.0794 -0.0719
 2733TIP3    H1 8163   1.028   3.889   2.185  0.0888  0.7506  0.1546
 2733TIP3    H2 8164   0.980   3.922   2.325 -0.1489 -1.2145  0.5735
 2734TIP3   OH2 8165   0.086   0.823   4.055  0.3415 -0.0741 -0.9492
 2734TIP3    H1 8166   0.108   0.913   4.031  0.1084  0.1112 -0.4744
 2734TIP3    H2 8167  -0.007   0.814   4.032 -0.0890  0.3434  0.5629
 2735TIP3   OH2 8168   2.113   5.792   2.461  0.3738  0.1066  0.8901
 2735TIP3    H1 8169   2.185   5.734   2.486  0.9810  0.0004 -0.9208
 2735TIP3    H2 8170   2.034   5.743   2.480  0.8622 -1.0591  0.0461
 2736TIP3   OH2 8171   5.015   3.407   4.981 -0.0560 -0.3221 -0.0415
 2736TIP3    H1 8172   4.948   3.405   4.913 -1.6096 -1.0735  1.4622
 2736TIP3    H2 8173   4.969   3.430   5.061  1.6274 -0.0459  0.9033
 2737TIP3   OH2 8174   6.400   3.149   1.323 -0.1698  0.1877  0.1414
 2737TIP3    H1 8175   6.447   3.151   1.406  0.6491  0.2980 -0.3121
 2737TIP3    H2 8176   6.342   3.225   1.326  0.4878  0.6970  0.2602
 2738TIP3   OH2 8177   3.311   0.840   3.100  0.8105  0.3310 -0.0617
 2738TIP3    H1 8178   3.255   0.867   3.028  0.0856 -1.3678 -0.1885
 2738TIP3    H2 8179   3.253   0.794   3.160  2.1389 -2.3005 -0.6304
 2739TIP3   OH2 8180   6.772   1.009   5.314  0.1447  0.0574 -0.2857
 2739TIP3    H1 8181   6.778   1.032   5.407 -0.6034 -0.9131  0.0210
 2739TIP3    H2 8182   6.699   0.947   5.310 -0.9025  1.3488 -1.7891
 2740TIP3   OH2 8183   2.160   2.697   3.211  0.1805  0.0417 -0.0726
 2740TIP3    H1 8184   2.134   2.702   3.119  0.5982 -2.7299 -0.4298
 2740TIP3    H2 8185   2.083   2.664   3.257  0.6225 -0.6838  0.1725
 2741TIP3   OH2 8186   3.078   4.125   1.672 -0.0298 -0.4611  0.7124
 2741TIP3    H1 8187   3.120   4.150   1.754  0.1730 -1.3693  0.8872
 2741TIP3    H2 8188   3.066   4.031   1.678 -0.8446 -0.4129  0.0770
 2742TIP3   OH2 8189   6.025   2.072   4.706  0.1413 -0.1011  0.1304
 2742TIP3    H1 8190   6.038   2.142   4.642 -2.5252  1.0303  0.6945
 2742TIP3    H2 8191   6.069   2.103   4.785  1.4016 -0.4146 -0.4204
 2743TIP3   OH2 8192   5.325   6.474   2.896 -0.3003  0.5570 -0.2583
 2743TIP3    H1 8193   5.336   6.459   2.990  1.5523  0.0056 -0.5390
 2743TIP3    H2 8194   5.308   6.568   2.889 -2.4072  0.3215  0.7373
 2744TIP3   OH2 8195   3.390   3.952   0.143 -0.3753 -0.3502 -0.2864
 2744TIP3    H1 8196   3.295   3.958   0.130 -0.4385  0.1963  0.3497
 2744TIP3    H2 8197   3.401   3.883   0.209 -0.3339 -0.3517 -0.2949
 2745TIP3   OH2 8198   6.509   4.715   1.301 -0.0814 -0.8303  0.4010
 2745TIP3    H1 8199   6.496   4.753   1.215  0.4288  0.1701  0.7496
 2745TIP3    H2 8200   6.449   4.764   1.358  1.6716  0.5639  1.1387
 2746TIP3   OH2 8201   0.595   5.234   2.288  0.3590  0.0447  0.2749
 2746TIP3    H1 8202   0.675   5.277   2.319  0.2840 -0.3490  1.0420
 2746TIP3    H2 8203   0.582   5.269   2.200  0.1590  1.7917  0.9613
 2747TIP3   OH2 8204   5.635   4.101   1.019 -0.3630  0.7209  0.1149
 2747TIP3    H1 8205   5.651   4.069   1.108  1.1706 -0.7649 -0.6378
 2747TIP3    H2 8206   5.721   4.104   0.979 -0.9132  2.3683 -1.0391
 2748TIP3   OH2 8207   1.564   0.986   1.260  0.1704 -0.7890  0.3374
 2748TIP3    H1 8208   1.509   1.045   1.311 -0.0394 -0.7672  0.0860
 2748TIP3    H2 8209   1.593   0.920   1.322  1.4537  0.2882  0.9415
 2749TIP3   OH2 8210   3.532   6.072   0.271  0.2915 -0.1092  0.1960
 2749TIP3    H1 8211   3.616   6.058   0.315  0.2338  0.0164  0.3484
 2749TIP3    H2 8212   3.481   6.124   0.333  0.5650  0.9374 -0.4342
 2750TIP3   OH2 8213   3.561   0.669   2.825  0.2704 -0.2332  0.6855
 2750TIP3    H1 8214   3.654   0.650   2.820  0.7216  1.6206  1.3357
 2750TIP3    H2 8215   3.553   0.734   2.894 -1.6553 -1.1075  1.3564
 2751TIP3   OH2 8216   5.803   2.891   2.834  0.1527  0.0092  0.3992
 2751TIP3    H1 8217   5.743   2.959   2.863 -0.3333 -1.0112  1.9225
 2751TIP3    H2 8218   5.798   2.894   2.738 -1.4735  0.6931  0.4655
 2752TIP3   OH2 8219   0.299   1.079   5.250  0.0733  0.8762 -0.2160
 2752TIP3    H1 8220   0.322   1.165   5.284  1.2526  0.5197 -0.0580
 2752TIP3    H2 8221   0.383   1.040   5.225 -0.5320  0.1494 -1.1949
 2753TIP3   OH2 8222   4.651   6.139   4.433 -0.6797  0.0472 -0.1046
 2753TIP3    H1 8223   4.638   6.200   4.361 -1.7070 -0.6298 -0.5022
 2753TIP3    H2 8224   4.584   6.162   4.497 -0.4809 -0.0692  0.1494
 2754TIP3   OH2 8225   1.220   0.331   3.392 -0.2809 -0.2157  0.3478
 2754TIP3    H1 8226   1.135   0.292   3.371 -0.0298 -1.3525  1.3590
 2754TIP3    H2 8227   1.283   0.261   3.379  0.4368  0.4293  0.2774
 2755TIP3   OH2 8228   2.607   2.104   0.113  0.4783  0.0309 -0.3431
 2755TIP3    H1 8229   2.573   2.141   0.032  0.5285 -0.3032 -0.5163
 2755TIP3    H2 8230   2.595   2.174   0.178  2.4815  1.1645 -1.0951
 2756TIP3   OH2 8231   3.396   3.210   3.051  0.0183  0.0600 -0.2747
 2756TIP3    H1 8232   3.454   3.138   3.076  0.5493  0.6117  0.0762
 2756TIP3    H2 8233   3.326   3.167   3.002  1.5722 -0.4527 -2.1873
 2757TIP3   OH2 8234   0.857   5.254   0.232  0.5319  0.1312  0.0606
 2757TIP3    H1 8235   0.796   5.214   0.293  0.7501  1.3228  1.1070
 2757TIP3    H2 8236   0.930   5.193   0.226  0.8417  0.3190  1.5811
 2758TIP3   OH2 8237   7.083   2.083   3.795 -0.8353  0.4886  0.1937
 2758TIP3    H1 8238   7.162   2.029   3.787 -0.4960  0.9886  0.1204
 2758TIP3    H2 8239   7.053   2.070   3.885 -0.3662  0.7104  0.3831
 2759TIP3   OH2 8240   5.191   6.499   5.666 -0.1188 -0.0061  0.1222
 2759TIP3    H1 8241   5.182   6.451   5.584 -0.3542  0.9699 -0.4396
 2759TIP3    H2 8242   5.192   6.591   5.640 -0.0568  0.3155  1.2051
 2760TIP3   OH2 8243   0.265   3.619   3.889  0.2009 -0.1103  0.2435
 2760TIP3    H1 8244   0.326   3.546   3.905  1.4839  0.4958 -1.5212
 2760TIP3    H2 8245   0.315   3.680   3.834 -1.4823  1.2118  0.0979
 2761TIP3   OH2 8246   6.073   1.430   3.335  0.0306 -0.5358 -0.4690
 2761TIP3    H1 8247   6.048   1.521   3.356 -1.1966 -1.2032  1.2507
 2761TIP3    H2 8248   6.040   1.379   3.409 -0.8407 -2.6321 -2.2031
 2762TIP3   OH2 8249   4.242   0.385   1.332  0.2244 -0.0140 -0.2042
 2762TIP3    H1 8250   4.160   0.432   1.314  0.2386  0.3282  0.5758
 2762TIP3    H2 8251   4.244   0.377   1.427  1.9440  1.5435 -0.0558
 2763TIP3   OH2 8252   5.165   5.329   3.988  0.2355  0.0835 -0.2765
 2763TIP3    H1 8253   5.250   5.287   4.001  0.8717  1.0491 -1.1322
 2763TIP3    H2 8254   5.118   5.315   4.070  1.9869  1.2349  1.0018
 2764TIP3   OH2 8255   3.209   0.433   1.125 -0.4283 -0.7754  0.2347
 2764TIP3    H1 8256   3.172   0.402   1.042 -0.0860  0.0588 -0.2454
 2764TIP3    H2 8257   3.168   0.519   1.139 -1.3055 -1.3654  1.5018
 2765TIP3   OH2 8258   0.441   1.412   4.622  0.3181 -0.0359  0.4597
 2765TIP3    H1 8259   0.491   1.483   4.663  1.2375  0.8929 -2.0222
 2765TIP3    H2 8260   0.357   1.453   4.600  0.0455 -0.3565  0.9010
 2766TIP3   OH2 8261   2.813   5.631   3.807  0.1511 -0.0745 -0.0075
 2766TIP3    H1 8262   2.759   5.579   3.865 -3.2890  1.6314 -1.3842
 2766TIP3    H2 8263   2.865   5.687   3.865  0.0416 -1.3964  1.3972
 2767TIP3   OH2 8264   6.832   4.896   1.383 -0.4714 -0.1672 -0.4147
 2767TIP3    H1 8265   6.794   4.896   1.471  0.4202 -0.1327 -0.0207
 2767TIP3    H2 8266   6.793   4.820   1.340  0.9863 -1.7106  0.8647
 2768TIP3   OH2 8267   3.148   3.918   4.284 -0.5191 -0.2600 -0.0247
 2768TIP3    H1 8268   3.185   3.953   4.365  0.0667  1.8237 -1.1266
 2768TIP3    H2 8269   3.195   3.835   4.270  1.4098  0.7194  0.3392
 2769TIP3   OH2 8270   5.464   4.045   1.560  0.3101 -0.1602 -0.2531
 2769TIP3    H1 8271   5.508   4.030   1.477  0.7336 -0.7472  0.0768
 2769TIP3    H2 8272   5.414   3.965   1.576 -0.2706  0.1929 -0.2392
 2770TIP3   OH2 8273   1.361   5.685   3.873  0.0398 -0.0442 -0.0595
 2770TIP3    H1 8274   1.396   5.773   3.857  0.1052  0.0775  0.7063
 2770TIP3    H2 8275   1.343   5.650   3.786  1.2585  0.2236 -0.4397
 2771TIP3   OH2 8276   0.308   6.652   4.262 -0.4327 -0.4315  0.7713
 2771TIP3    H1 8277   0.335   6.714   4.195 -0.5652 -1.0161  0.1657
 2771TIP3    H2 8278   0.385   6.642   4.318  0.2426 -1.2035 -0.2634
 2772TIP3   OH2 8279   1.187   1.071   5.181 -0.0832  0.0980 -0.4992
 2772TIP3    H1 8280   1.191   0.981   5.214 -1.8801 -0.1399 -0.8361
 2772TIP3    H2 8281   1.095   1.083   5.155  0.2282  1.8798 -0.8887
 2773TIP3   OH2 8282   3.044   4.175   0.878  0.3097 -0.1536 -0.4313
 2773TIP3    H1 8283   3.109   4.117   0.918 -1.1121 -2.4632 -1.3015
 2773TIP3    H2 8284   3.066   4.177   0.785  0.3423  0.7761 -0.4219
 2774TIP3   OH2 8285   2.163   2.242   4.224 -0.6238 -0.3044  0.3512
 2774TIP3    H1 8286   2.204   2.164   4.187 -0.3375  0.1469 -0.3044
 2774TIP3    H2 8287   2.226   2.274   4.288  0.0055  0.2988 -0.5402
 2775TIP3   OH2 8288   5.695   4.319   2.350 -0.4290  0.9057  0.3327
 2775TIP3    H1 8289   5.675   4.256   2.281  2.5622  0.4051 -0.2288
 2775TIP3    H2 8290   5.729   4.266   2.422  1.0663  1.7367  0.2769
 2776TIP3   OH2 8291   3.651   0.187   4.741 -0.6493 -0.4564 -0.2359
 2776TIP3    H1 8292   3.659   0.122   4.810 -0.8485  0.6350  0.8630
 2776TIP3    H2 8293   3.597   0.145   4.674 -2.6962 -0.6587  1.4441
 2777TIP3   OH2 8294   3.260   1.130   4.468 -0.0214  0.3579 -0.2963
 2777TIP3    H1 8295   3.300   1.080   4.540 -0.0518  0.8494  0.0638
 2777TIP3    H2 8296   3.330   1.187   4.437  0.9553 -1.9566 -2.6855
 2778TIP3   OH2 8297   3.820   0.954   5.188 -0.1649 -0.2144  0.3454
 2778TIP3    H1 8298   3.783   1.017   5.127  0.9336 -0.4390 -0.5780
 2778TIP3    H2 8299   3.807   0.869   5.146 -1.0004 -0.5537  1.2568
 2779TIP3   OH2 8300   1.542   2.657   1.708  0.1348 -0.5326  0.9382
 2779TIP3    H1 8301   1.620   2.614   1.743  0.1987 -0.3331  1.0417
 2779TIP3    H2 8302   1.560   2.750   1.715  1.0651 -0.4416 -1.6570
 2780TIP3   OH2 8303   0.319   0.657   4.493 -0.0166 -0.3199  0.6881
 2780TIP3    H1 8304   0.283   0.745   4.502  1.0291 -0.0201  2.3811
 2780TIP3    H2 8305   0.293   0.611   4.573  0.0703 -1.3240  0.1628
 2781TIP3   OH2 8306   3.131   0.482   1.942  0.5190 -0.2088  0.1554
 2781TIP3    H1 8307   3.104   0.574   1.938 -0.6176 -0.5213  0.2790
 2781TIP3    H2 8308   3.050   0.433   1.933  1.1424 -1.2151 -0.1688
 2782TIP3   OH2 8309   3.974   2.119   1.159  0.1122 -0.0939 -0.5972
 2782TIP3    H1 8310   3.911   2.192   1.157 -2.5333 -2.2303 -1.3512
 2782TIP3    H2 8311   3.968   2.080   1.072  2.1091 -0.7372 -0.4857
 2783TIP3   OH2 8312   6.002   6.714   2.512 -0.3207 -0.2569 -0.0765
 2783TIP3    H1 8313   6.003   6.618   2.507  0.1436 -0.2573 -0.0062
 2783TIP3    H2 8314   6.076   6.741   2.457 -1.4407  0.1293 -1.4728
 2784TIP3   OH2 8315   0.899   3.305   4.560 -0.0372  0.0674 -0.5237
 2784TIP3    H1 8316   0.897   3.247   4.484  0.3944 -0.1414 -0.3818
 2784TIP3    H2 8317   0.813   3.347   4.561  0.1630  0.5268 -1.4696
 2785TIP3   OH2 8318   0.909   0.362   3.300  0.0265  0.4451  0.0395
 2785TIP3    H1 8319   0.827   0.318   3.275 -0.0278  0.2531  0.5267
 2785TIP3    H2 8320   0.956   0.296   3.351  0.2491  0.7315  0.2062
 2786TIP3   OH2 8321   6.022   1.909   1.917  0.6138 -0.8770  0.0926
 2786TIP3    H1 8322   6.004   1.886   1.826  1.8427  1.2719 -0.7521
 2786TIP3    H2 8323   6.117   1.911   1.923  0.5654  0.9168  0.8674
 2787TIP3   OH2 8324   3.356   3.114   3.920  0.2236  0.2808 -0.4559
 2787TIP3    H1 8325   3.298   3.124   3.995  0.3916  1.2505 -0.4417
 2787TIP3    H2 8326   3.298   3.090   3.848  0.1493 -1.3887  0.1195
 2788TIP3   OH2 8327   2.635   5.071   0.907  0.5109  0.3977 -0.4595
 2788TIP3    H1 8328   2.694   5.030   0.843  0.3219  0.1129 -0.4563
 2788TIP3    H2 8329   2.578   4.999   0.935  1.0303  0.3544  0.5420
 2789TIP3   OH2 8330   2.815   2.808   5.680 -0.0090  0.2811 -0.4315
 2789TIP3    H1 8331   2.754   2.781   5.612 -0.2292 -1.1983  0.3114
 2789TIP3    H2 8332   2.769   2.878   5.728 -0.7659 -0.2210 -0.4111
 2790TIP3   OH2 8333   6.905   6.503   0.487 -0.0306  0.8895  0.2253
 2790TIP3    H1 8334   6.975   6.471   0.544  0.3105  1.3999  0.0970
 2790TIP3    H2 8335   6.859   6.424   0.460 -0.5270  0.6595  1.6124
 2791TIP3   OH2 8336   2.398   5.284   1.139  0.2691  0.2135 -0.0823
 2791TIP3    H1 8337   2.372   5.214   1.199 -0.3493  1.4734  1.1701
 2791TIP3    H2 8338   2.488   5.261   1.114  0.2981 -0.6872  0.7797
 2792TIP3   OH2 8339   1.036   3.601   0.156 -0.3185  0.3628 -0.2597
 2792TIP3    H1 8340   1.044   3.507   0.170  0.9248  0.2643 -1.3838
 2792TIP3    H2 8341   1.096   3.639   0.221  0.2838  0.2778 -0.7502
 2793TIP3   OH2 8342   4.647   5.601   5.887 -0.3227  0.2293 -0.4548
 2793TIP3    H1 8343   4.716   5.567   5.830  1.4012  0.8125  1.1891
 2793TIP3    H2 8344   4.594   5.524   5.910  0.5844 -0.4856 -0.6878
 2794TIP3   OH2 8345   2.833   3.438   2.980  0.0794 -0.0154 -0.0723
 2794TIP3    H1 8346   2.875   3.520   2.953 -1.3360  1.4816  2.0201
 2794TIP3    H2 8347   2.894   3.401   3.045 -0.0353  0.2071  0.1634
 2795TIP3   OH2 8348   0.374   5.346   4.542  0.1036  0.0975  0.1580
 2795TIP3    H1 8349   0.361   5.403   4.619 -0.0929 -0.2877  0.4153
 2795TIP3    H2 8350   0.289   5.347   4.498  0.2851  0.5042 -0.1836
 2796TIP3   OH2 8351   1.461   4.148   4.441  0.1278  0.2640  0.3643
 2796TIP3    H1 8352   1.456   4.230   4.392  1.7403  0.2512  0.0933
 2796TIP3    H2 8353   1.378   4.142   4.488 -0.3433  1.6407 -0.2412
 2797TIP3   OH2 8354   5.632   2.372   1.282  0.6242 -0.1418 -0.0539
 2797TIP3    H1 8355   5.581   2.317   1.223  0.5293  0.4264 -0.5163
 2797TIP3    H2 8356   5.567   2.424   1.329  0.7185 -0.3434  0.3030
 2798TIP3   OH2 8357   3.617   1.255   5.540 -0.0055  0.6723 -0.4572
 2798TIP3    H1 8358   3.564   1.206   5.477  0.2061 -0.3883  0.1656
 2798TIP3    H2 8359   3.694   1.199   5.554 -0.7119  0.2020  1.8195
 2799TIP3   OH2 8360   6.840   2.064   0.581  0.5158  0.0906  0.3041
 2799TIP3    H1 8361   6.768   2.094   0.638  1.0334  1.2315  0.3772
 2799TIP3    H2 8362   6.890   2.004   0.636 -0.0396 -0.2662  0.4381
 2800TIP3   OH2 8363   2.911   4.472   0.887 -0.4237 -0.1617  0.0195
 2800TIP3    H1 8364   2.882   4.541   0.947  0.4631 -0.8943  1.3353
 2800TIP3    H2 8365   2.934   4.399   0.945 -0.7589 -1.3530 -1.3056
 2801TIP3   OH2 8366   0.506   4.473   2.220  0.7868 -0.0081  0.3565
 2801TIP3    H1 8367   0.578   4.468   2.157 -0.7406 -1.5843 -1.3776
 2801TIP3    H2 8368   0.485   4.382   2.240 -0.7439  0.4193  0.8132
 2802TIP3   OH2 8369   0.436   2.718   5.181  0.5173  0.1780  0.2768
 2802TIP3    H1 8370   0.513   2.735   5.126 -1.0407  0.5606 -1.9030
 2802TIP3    H2 8371   0.367   2.696   5.119 -1.1136 -0.3158  2.1874
 2803TIP3   OH2 8372   2.838   3.778   2.859  0.0593  0.3937  0.0114
 2803TIP3    H1 8373   2.868   3.703   2.808  0.9592  0.8018 -0.0725
 2803TIP3    H2 8374   2.898   3.782   2.934 -1.3309 -0.2951  1.2339
 2804TIP3   OH2 8375   6.726   4.848   5.388 -0.0570 -0.1003 -0.0109
 2804TIP3    H1 8376   6.673   4.814   5.460 -1.7891  1.1683 -0.6047
 2804TIP3    H2 8377   6.762   4.930   5.421 -1.3067  0.7662 -0.7211
 2805TIP3   OH2 8378   5.473   1.378   5.737  0.2694 -0.4897  0.4200
 2805TIP3    H1 8379   5.430   1.312   5.790  2.5099 -2.4965 -0.1128
 2805TIP3    H2 8380   5.448   1.357   5.647  0.6309 -0.3126  0.2752
 2806TIP3   OH2 8381   4.864   1.764   4.628 -0.0359  0.7016  0.2905
 2806TIP3    H1 8382   4.900   1.809   4.552  0.6812  1.4617  1.0524
 2806TIP3    H2 8383   4.776   1.800   4.638 -0.7815 -0.6397 -1.1592
 2807TIP3   OH2 8384   2.447   1.405   2.587 -0.6565 -0.8944  0.4451
 2807TIP3    H1 8385   2.524   1.394   2.642 -0.3265 -2.1792 -0.2325
 2807TIP3    H2 8386   2.442   1.324   2.536 -0.4779  0.5339 -2.0108
 2808TIP3   OH2 8387   5.597   0.185   5.863  0.3846 -0.1413 -0.0863
 2808TIP3    H1 8388   5.677   0.137   5.882  1.7688  1.6391 -1.1065
 2808TIP3    H2 8389   5.618   0.237   5.785 -1.4254  1.1423  0.2166
 2809TIP3   OH2 8390   4.548   4.529   4.636  0.1334 -0.0086  0.1551
 2809TIP3    H1 8391   4.637   4.501   4.656  1.0940  2.1378 -0.7675
 2809TIP3    H2 8392   4.559   4.599   4.571 -2.2143  0.4372  0.1474
 2810TIP3   OH2 8393   6.970   4.139   4.367  0.2241 -0.4524  0.0222
 2810TIP3    H1 8394   7.006   4.218   4.407  0.1060  0.2138 -1.1509
 2810TIP3    H2 8395   6.886   4.166   4.330  0.2323 -1.0946 -0.4977
 2811TIP3   OH2 8396   2.926   2.371   5.112 -0.3078  0.1861  0.0440
 2811TIP3    H1 8397   2.902   2.453   5.070  3.3011  0.5662 -1.6422
 2811TIP3    H2 8398   3.004   2.391   5.163  1.0385 -2.2533 -0.8814
 2812TIP3   OH2 8399   1.961   0.269   4.648  0.4641  0.2443 -0.4302
 2812TIP3    H1 8400   2.048   0.301   4.672  0.7969 -0.3483 -0.8169
 2812TIP3    H2 8401   1.967   0.174   4.659 -0.3794  0.2586  0.3048
 2813TIP3   OH2 8402   1.445   3.162   0.358 -0.2235 -0.2681  0.3567
 2813TIP3    H1 8403   1.443   3.248   0.402  1.7841 -0.2548  0.5020
 2813TIP3    H2 8404   1.538   3.138   0.357 -0.6828 -2.1403 -0.2991
 2814TIP3   OH2 8405   1.313   1.583   4.808 -0.1107 -0.1987 -0.2876
 2814TIP3    H1 8406   1.289   1.538   4.728 -0.9505 -1.4812  0.6556
 2814TIP3    H2 8407   1.296   1.676   4.790  0.7819 -0.3303 -1.9427
 2815TIP3   OH2 8408   4.305   4.859   5.478 -0.3991 -0.0656  0.4573
 2815TIP3    H1 8409   4.327   4.771   5.448 -2.2391  0.2393 -2.1292
 2815TIP3    H2 8410   4.389   4.901   5.496  0.5391 -2.0388  0.8311
 2816TIP3   OH2 8411   6.074   1.292   0.335  0.1167 -0.1261 -0.2991
 2816TIP3    H1 8412   6.136   1.294   0.262 -0.3480 -1.4043 -0.7672
 2816TIP3    H2 8413   5.990   1.271   0.294 -0.4277  0.5286  0.4535
 2817TIP3   OH2 8414   2.439   1.166   5.830  0.1022  0.1574  0.0428
 2817TIP3    H1 8415   2.450   1.242   5.887 -0.2443 -0.6480  1.2257
 2817TIP3    H2 8416   2.515   1.112   5.848 -0.5130 -0.5739  0.5098
 2818TIP3   OH2 8417   2.365   4.356   1.531  0.4713  0.1773 -0.6896
 2818TIP3    H1 8418   2.355   4.372   1.437  0.8092 -0.7627 -0.9033
 2818TIP3    H2 8419   2.402   4.437   1.566 -2.9988  1.9480 -0.7110
 2819TIP3   OH2 8420   1.812   2.146   3.138 -0.0067 -0.4798 -0.2735
 2819TIP3    H1 8421   1.757   2.196   3.078  2.5148  0.6557 -1.8153
 2819TIP3    H2 8422   1.753   2.083   3.179 -2.0612 -0.6007 -3.1717
 2820TIP3   OH2 8423   3.769   2.300   1.204 -0.3642 -0.0945  0.3479
 2820TIP3    H1 8424   3.677   2.324   1.193 -1.0238 -2.4065  0.2533
 2820TIP3    H2 8425   3.817   2.383   1.199 -2.4945  1.2533  1.1964
 2821TIP3   OH2 8426   6.687   6.248   4.287  0.1634 -0.2608  0.2477
 2821TIP3    H1 8427   6.749   6.182   4.256  1.5486  0.5749  1.1309
 2821TIP3    H2 8428   6.679   6.231   4.380 -0.7506 -0.1925  0.1870
 2822TIP3   OH2 8429   5.219   0.414   0.416  0.5222 -0.2075 -0.5730
 2822TIP3    H1 8430   5.167   0.349   0.369  0.1109 -1.6752  1.7227
 2822TIP3    H2 8431   5.310   0.388   0.402  0.3782 -0.9685 -0.1290
 2823TIP3   OH2 8432   6.294   4.497   1.792  0.2095 -0.0020 -0.0063
 2823TIP3    H1 8433   6.221   4.558   1.788  0.9512  0.8584 -1.6344
 2823TIP3    H2 8434   6.324   4.499   1.883 -1.0876  0.4481  0.4237
 2824TIP3   OH2 8435   3.526   3.437   3.124 -0.4437  0.7101 -0.0026
 2824TIP3    H1 8436   3.485   3.359   3.086 -1.8236 -0.1962  3.0685
 2824TIP3    H2 8437   3.620   3.418   3.119 -0.7332 -1.0505  0.3694
 2825TIP3   OH2 8438   6.998   0.435   5.763  0.2663  0.0870 -0.9049
 2825TIP3    H1 8439   6.940   0.455   5.836  0.9495 -1.6623  0.1660
 2825TIP3    H2 8440   7.067   0.500   5.768  0.4704 -0.2015  0.2062
 2826TIP3   OH2 8441   1.779   5.696   5.536  0.4328 -0.0295 -0.1763
 2826TIP3    H1 8442   1.783   5.605   5.506 -0.2441 -0.1389  0.0559
 2826TIP3    H2 8443   1.690   5.707   5.570  0.2717  0.9327 -0.8705
 2827TIP3   OH2 8444   2.770   4.193   0.807  0.0203  0.0229 -0.0765
 2827TIP3    H1 8445   2.737   4.281   0.787  0.5097  0.1014 -0.5583
 2827TIP3    H2 8446   2.858   4.208   0.840  0.0483 -0.2835 -0.0117
 2828TIP3   OH2 8447   2.547   4.811   2.907 -0.1155 -0.2590 -0.1404
 2828TIP3    H1 8448   2.597   4.861   2.843 -0.6491  0.9026  0.3285
 2828TIP3    H2 8449   2.464   4.858   2.915 -0.3931 -0.8751  0.7634
 2829TIP3   OH2 8450   2.933   4.913   1.390  0.2443 -0.1139  0.5183
 2829TIP3    H1 8451   2.992   4.922   1.465  1.6471 -2.9652 -0.0649
 2829TIP3    H2 8452   2.992   4.899   1.316 -1.1556  0.7947 -0.8200
 2830TIP3   OH2 8453   1.023   0.143   3.400  0.1356 -0.5215  0.2704
 2830TIP3    H1 8454   1.066   0.070   3.355 -0.4243 -0.7349  0.0697
 2830TIP3    H2 8455   1.034   0.124   3.493 -0.9664 -1.4714  0.2442
 2831TIP3   OH2 8456   3.367   1.715   4.051 -0.4368 -0.4527  0.4101
 2831TIP3    H1 8457   3.435   1.703   3.984 -0.3350  2.5436 -0.1611
 2831TIP3    H2 8458   3.287   1.732   4.002 -0.9229 -0.7558  1.0806
 2832TIP3   OH2 8459   2.034   1.735   1.172 -0.5709 -0.3927 -0.3729
 2832TIP3    H1 8460   1.954   1.786   1.164  0.8144  1.9897 -0.0915
 2832TIP3    H2 8461   2.013   1.666   1.235 -2.1978  0.5497  0.1662
 2833TIP3   OH2 8462   6.333   1.134   3.662  0.0721  0.0411  0.4677
 2833TIP3    H1 8463   6.376   1.216   3.688 -0.4975  0.2461  0.7925
 2833TIP3    H2 8464   6.316   1.089   3.745 -0.7505  0.1807  0.3831
 2834TIP3   OH2 8465   6.632   0.762   3.082  0.2621  0.1807 -0.0904
 2834TIP3    H1 8466   6.707   0.720   3.040  0.5500  0.3859  0.2152
 2834TIP3    H2 8467   6.659   0.853   3.093 -0.6968  0.6664 -1.5593
 2835TIP3   OH2 8468   0.793   5.953   4.965  0.3711  0.3829  0.2120
 2835TIP3    H1 8469   0.701   5.957   4.939  0.6371  0.0363 -0.8061
 2835TIP3    H2 8470   0.836   6.020   4.912  1.4376 -2.2566 -2.5994
 2836TIP3   OH2 8471   2.812   3.679   1.128  0.4438  0.4942 -0.5081
 2836TIP3    H1 8472   2.823   3.607   1.066 -0.3330  0.2767 -0.4005
 2836TIP3    H2 8473   2.889   3.672   1.186  1.0183  0.5236 -1.2520
 2837TIP3   OH2 8474   5.090   0.758   3.804  0.2571 -0.6628  0.1975
 2837TIP3    H1 8475   5.006   0.774   3.848  0.5014  0.1838  0.3764
 2837TIP3    H2 8476   5.069   0.762   3.711 -0.0853 -1.4753  0.2380
 2838TIP3   OH2 8477   1.827   3.823   2.338  0.2453 -0.4880 -0.3110
 2838TIP3    H1 8478   1.917   3.843   2.367  0.9868 -0.3969 -2.4835
 2838TIP3    H2 8479   1.835   3.740   2.292 -1.1307 -1.2963  0.8411
 2839TIP3   OH2 8480   4.209   4.501   5.678  0.4352  0.0283 -0.1372
 2839TIP3    H1 8481   4.139   4.455   5.723  0.7531 -1.2388 -0.8911
 2839TIP3    H2 8482   4.285   4.492   5.735 -0.1655  2.1885  1.1296
 2840TIP3   OH2 8483   5.897   2.020   3.067 -0.4356  0.3281  0.1976
 2840TIP3    H1 8484   5.861   1.969   2.995  0.4442  0.8843 -0.6670
 2840TIP3    H2 8485   5.907   1.957   3.138  1.3823 -0.9647 -1.0908
 2841TIP3   OH2 8486   5.814   4.709   1.780  0.0452  0.7398 -0.8258
 2841TIP3    H1 8487   5.735   4.714   1.727 -0.7080  0.9803  0.2842
 2841TIP3    H2 8488   5.783   4.688   1.868  1.2445  0.5202 -0.4265
 2842TIP3   OH2 8489   4.685   0.707   0.710  0.0680  0.1313 -0.0320
 2842TIP3    H1 8490   4.695   0.753   0.626 -2.7250  1.0277  0.0311
 2842TIP3    H2 8491   4.764   0.731   0.759  0.6238  1.5722 -1.5060
 2843TIP3   OH2 8492   1.540   1.202   1.545  0.0321  0.1570  0.2351
 2843TIP3    H1 8493   1.548   1.128   1.605 -1.7357 -0.0358  0.2935
 2843TIP3    H2 8494   1.457   1.188   1.500 -0.0253  1.7657 -0.2351
 2844TIP3   OH2 8495   2.842   1.044   0.974  0.6348 -0.0340  0.5281
 2844TIP3    H1 8496   2.775   0.979   0.952  1.8557 -1.1493 -0.0416
 2844TIP3    H2 8497   2.822   1.119   0.918  0.4403 -0.7440 -0.3882
 2845TIP3   OH2 8498   3.475   2.743   3.558  0.1977  0.1235 -0.1534
 2845TIP3    H1 8499   3.386   2.726   3.590 -0.2235  2.0565 -0.1931
 2845TIP3    H2 8500   3.513   2.656   3.547 -0.7609 -0.7214  2.4530
 2846TIP3   OH2 8501   1.787   2.391   4.782 -0.2108 -0.3421 -0.3721
 2846TIP3    H1 8502   1.730   2.456   4.741 -0.1958  0.3530  0.6616
 2846TIP3    H2 8503   1.867   2.439   4.802 -0.2173 -0.6645  0.4465
 2847TIP3   OH2 8504   1.947   5.046   4.494  0.0398 -0.3059 -0.3264
 2847TIP3    H1 8505   1.975   5.129   4.456 -1.1129  0.0700 -0.4149
 2847TIP3    H2 8506   1.852   5.044   4.478 -0.0171 -1.4191  0.0939
 2848TIP3   OH2 8507   5.930   2.436   2.026  1.2278 -0.3745  0.4420
 2848TIP3    H1 8508   5.932   2.342   2.009 -0.9513 -0.4734  0.3863
 2848TIP3    H2 8509   5.939   2.476   1.940  2.1685 -0.5101  0.4660
 2849TIP3   OH2 8510   1.849   1.808   3.826 -0.4045  0.2758  0.4280
 2849TIP3    H1 8511   1.772   1.763   3.863 -0.5453  0.4299  0.3213
 2849TIP3    H2 8512   1.821   1.837   3.740 -0.8315  1.9526  1.1041
 2850TIP3   OH2 8513   0.473   5.435   3.349  0.4103 -0.6375 -0.0462
 2850TIP3    H1 8514   0.382   5.443   3.320  0.6204  0.4737 -0.4763
 2850TIP3    H2 8515   0.474   5.359   3.407 -0.6047 -1.1987 -0.7351
 2851TIP3   OH2 8516   0.919   5.585   1.594  0.2202 -0.3797  0.2171
 2851TIP3    H1 8517   0.871   5.578   1.677  1.5204 -1.0654  0.9310
 2851TIP3    H2 8518   0.915   5.678   1.572 -1.2286 -0.3765  0.3628
 2852TIP3   OH2 8519   3.838   0.631   2.054 -0.5422 -0.0940 -0.5396
 2852TIP3    H1 8520   3.762   0.597   2.103  0.4517  1.7306  2.5334
 2852TIP3    H2 8521   3.901   0.559   2.054 -0.8664 -0.3875  0.2282
 2853TIP3   OH2 8522   1.312   2.834   5.450  0.1414 -0.1961  0.2205
 2853TIP3    H1 8523   1.406   2.841   5.432  0.2027  0.0226  0.6099
 2853TIP3    H2 8524   1.271   2.881   5.377  0.3756  0.4441  0.4897
 2854TIP3   OH2 8525   6.442   3.488   4.165 -0.1747  0.0123 -0.3963
 2854TIP3    H1 8526   6.371   3.470   4.226  0.4084  1.6866  0.8407
 2854TIP3    H2 8527   6.412   3.565   4.116  0.4787  0.2887 -0.3671
 2855TIP3   OH2 8528   0.244   4.374   2.887 -0.2078  0.3483 -0.1049
 2855TIP3    H1 8529   0.170   4.394   2.830 -0.1796 -1.4510 -0.8301
 2855TIP3    H2 8530   0.205   4.329   2.962  0.1288 -0.4668 -0.4148
 2856TIP3   OH2 8531   0.217   3.464   2.211  0.4422 -0.7244 -0.4082
 2856TIP3    H1 8532   0.140   3.408   2.200 -0.4608  0.6205 -1.2341
 2856TIP3    H2 8533   0.231   3.502   2.124  0.5932  0.8464  0.2807
 2857TIP3   OH2 8534   0.948   3.983   1.476  0.1058 -0.3044 -0.4536
 2857TIP3    H1 8535   0.966   4.074   1.497 -1.1258 -0.4925  1.6895
 2857TIP3    H2 8536   1.025   3.935   1.506  0.1077 -0.1235 -0.1734
 2858TIP3   OH2 8537   3.426   3.459   1.280 -1.0232 -0.0322 -0.5848
 2858TIP3    H1 8538   3.498   3.463   1.217 -0.1230 -2.9251  0.1011
 2858TIP3    H2 8539   3.351   3.495   1.233  0.7318  2.9019 -1.3955
 2859TIP3   OH2 8540   2.070   1.855   3.236  0.5993 -0.2534  0.3135
 2859TIP3    H1 8541   1.984   1.834   3.272  1.1598 -0.3453  1.6461
 2859TIP3    H2 8542   2.063   1.946   3.208 -0.0510 -0.3891  0.0246
 2860TIP3   OH2 8543   5.848   1.457   4.037  0.4218  0.1467  0.3974
 2860TIP3    H1 8544   5.863   1.541   4.080 -0.4380  1.3449 -1.5547
 2860TIP3    H2 8545   5.760   1.464   3.999  1.8295 -0.0310 -3.2478
 2861TIP3   OH2 8546   6.561   4.027   3.801 -0.2031 -0.5403 -0.5040
 2861TIP3    H1 8547   6.498   4.015   3.872 -1.8887  1.5363 -1.5513
 2861TIP3    H2 8548   6.634   3.970   3.825 -1.8646 -2.0286  1.4593
 2862TIP3   OH2 8549   0.980   4.756   4.759  0.2437  0.1567  0.3706
 2862TIP3    H1 8550   0.998   4.680   4.815  1.6526  0.6580  0.6339
 2862TIP3    H2 8551   0.969   4.829   4.820 -1.2055  0.1798  0.1230
 2863TIP3   OH2 8552   5.804   6.378   1.661  0.5421 -0.0818  0.4207
 2863TIP3    H1 8553   5.812   6.283   1.649  0.3109 -0.0575  0.0656
 2863TIP3    H2 8554   5.861   6.416   1.594  0.4528  0.0339  0.4092
 2864TIP3   OH2 8555   2.542   3.332   2.265 -0.1882 -0.4971 -0.1581
 2864TIP3    H1 8556   2.481   3.345   2.192 -1.2490  1.8454  1.0102
 2864TIP3    H2 8557   2.602   3.406   2.258  1.4140 -1.7571 -0.1875
 2865TIP3   OH2 8558   5.253   5.422   4.608  0.1839  0.5029  0.3752
 2865TIP3    H1 8559   5.310   5.497   4.595 -1.3804  1.5054 -1.1530
 2865TIP3    H2 8560   5.278   5.361   4.538  1.7080 -0.6395  1.8373
 2866TIP3   OH2 8561   6.112   2.026   5.045  0.6548  0.4890  0.5594
 2866TIP3    H1 8562   6.021   2.011   5.074  0.2941  0.7112 -0.4348
 2866TIP3    H2 8563   6.162   2.031   5.127  0.0629 -1.4482  1.0881
 2867TIP3   OH2 8564   3.571   2.978   5.167  0.6315 -0.3652  0.5824
 2867TIP3    H1 8565   3.494   3.005   5.216  1.2497 -0.0828  1.4381
 2867TIP3    H2 8566   3.540   2.911   5.106 -0.8089  1.7352 -1.1210
 2868TIP3   OH2 8567   4.853   3.366   1.414 -0.0121  0.2989  0.2620
 2868TIP3    H1 8568   4.777   3.416   1.446  0.5479  1.2103  0.2135
 2868TIP3    H2 8569   4.923   3.387   1.476  0.8230  1.3420 -0.9785
 2869TIP3   OH2 8570   4.282   5.602   2.817 -0.1397  0.1107 -1.1197
 2869TIP3    H1 8571   4.271   5.575   2.908  0.4282 -1.1970 -1.4039
 2869TIP3    H2 8572   4.349   5.671   2.820  0.4618 -0.4755 -0.6073
 2870TIP3   OH2 8573   1.045   0.883   1.662 -0.2108 -0.3074  0.0710
 2870TIP3    H1 8574   0.959   0.851   1.636 -0.4434 -0.9634  1.5491
 2870TIP3    H2 8575   1.103   0.857   1.590 -1.1746 -0.1096 -0.8016
 2871TIP3   OH2 8576   0.306   3.380   4.166 -0.9581  0.0107  0.4139
 2871TIP3    H1 8577   0.336   3.385   4.076  1.2704  1.0929  1.1425
 2871TIP3    H2 8578   0.267   3.466   4.183 -0.3244  0.2324  0.7941
 2872TIP3   OH2 8579   1.499   1.985   2.728  0.2938 -0.0955  0.4081
 2872TIP3    H1 8580   1.423   2.022   2.683  0.7686 -2.4335 -2.5867
 2872TIP3    H2 8581   1.562   2.057   2.731 -0.7385  0.8759 -0.2626
 2873TIP3   OH2 8582   5.828   3.956   3.588 -0.2530 -0.8326  0.1092
 2873TIP3    H1 8583   5.914   3.962   3.545  0.3247 -1.0024  1.1956
 2873TIP3    H2 8584   5.839   3.887   3.653 -0.0839  1.4677  2.6947
 2874TIP3   OH2 8585   5.732   5.403   0.751  0.3699 -0.3499 -0.6517
 2874TIP3    H1 8586   5.768   5.340   0.688 -1.5014 -0.3324 -1.7975
 2874TIP3    H2 8587   5.691   5.349   0.818 -1.0354 -0.4033 -1.5163
 2875TIP3   OH2 8588   2.213   3.934   2.250 -0.0328  0.4022 -0.4195
 2875TIP3    H1 8589   2.175   4.017   2.279  0.0116  0.7757 -1.3810
 2875TIP3    H2 8590   2.228   3.885   2.331 -1.7857  0.5636  0.0418
 2876TIP3   OH2 8591   5.201   4.949   2.828  0.3751  0.8372  0.3357
 2876TIP3    H1 8592   5.143   4.939   2.904  0.5274 -0.8028  0.2734
 2876TIP3    H2 8593   5.142   4.955   2.753  0.2357  2.1178  0.5162
 2877TIP3   OH2 8594   0.908   5.874   0.512  0.2356  0.3932 -0.0623
 2877TIP3    H1 8595   0.909   5.914   0.425  0.9765 -0.5572 -0.5183
 2877TIP3    H2 8596   0.888   5.782   0.496 -0.5411  0.3797  0.8714
 2878TIP3   OH2 8597   6.671   0.730   1.211  0.2362 -0.1302 -0.0693
 2878TIP3    H1 8598   6.697   0.815   1.246 -2.5802  1.3106 -1.0875
 2878TIP3    H2 8599   6.671   0.743   1.116 -0.5294 -1.1358 -0.2282
 2879TIP3   OH2 8600   0.774   2.003   1.322  0.1622  0.2279  0.3574
 2879TIP3    H1 8601   0.819   2.024   1.240  1.8188 -1.9789  0.5950
 2879TIP3    H2 8602   0.815   2.059   1.387  0.0830  0.7275 -0.0158
 2880TIP3   OH2 8603   1.349   4.485   5.679 -1.0456  0.0015  0.6055
 2880TIP3    H1 8604   1.388   4.524   5.601  0.2302 -0.2364  1.1059
 2880TIP3    H2 8605   1.285   4.550   5.709 -0.8599  0.5141 -0.0826
 2881TIP3   OH2 8606   3.526   2.096   4.562 -0.3992  0.0371  0.7340
 2881TIP3    H1 8607   3.460   2.063   4.623 -2.3244  1.4228 -0.4880
 2881TIP3    H2 8608   3.484   2.091   4.476  0.3747  2.6230  0.1139
 2882TIP3   OH2 8609   6.137   5.606   1.935 -0.2614  0.4428 -0.2298
 2882TIP3    H1 8610   6.087   5.599   1.853 -1.3155  2.2615  0.1930
 2882TIP3    H2 8611   6.134   5.699   1.956  0.0159  0.0135  1.8832
 2883TIP3   OH2 8612   3.684   6.297   4.149 -0.0370 -0.1009 -0.4634
 2883TIP3    H1 8613   3.651   6.380   4.184 -0.7634 -0.4348 -0.3323
 2883TIP3    H2 8614   3.621   6.273   4.081 -0.3078 -0.9591  0.0778
 2884TIP3   OH2 8615   3.464   0.906   0.926 -0.2849  0.2859  0.0280
 2884TIP3    H1 8616   3.464   0.918   1.021  1.4387  1.9523 -0.1161
 2884TIP3    H2 8617   3.532   0.841   0.911 -0.9746 -0.4345 -0.0594
 2885TIP3   OH2 8618   1.929   3.693   0.610  0.0275  0.1613 -0.4932
 2885TIP3    H1 8619   1.970   3.614   0.645 -0.5825  0.7981  1.8497
 2885TIP3    H2 8620   2.001   3.756   0.601  0.1506  0.0781 -0.0962
 2886TIP3   OH2 8621   1.873   6.126   1.766 -0.0147  0.0739  0.3927
 2886TIP3    H1 8622   1.959   6.105   1.729 -0.2172  1.1748 -0.8275
 2886TIP3    H2 8623   1.837   6.042   1.794  0.3383 -0.8061 -1.6153
 2887TIP3   OH2 8624   2.834   4.069   5.539  0.4399  0.3807  0.2659
 2887TIP3    H1 8625   2.856   4.157   5.569  1.7011  0.6698 -1.3233
 2887TIP3    H2 8626   2.864   4.067   5.448 -1.4246 -1.0278 -0.3835
 2888TIP3   OH2 8627   6.856   3.488   5.710 -0.3961 -0.2118  0.2653
 2888TIP3    H1 8628   6.887   3.522   5.626 -1.3315  0.3797  0.1431
 2888TIP3    H2 8629   6.914   3.414   5.729  0.0406 -0.1408 -0.7353
 2889TIP3   OH2 8630   0.973   5.186   3.424 -0.0785  0.7997  0.4202
 2889TIP3    H1 8631   0.963   5.181   3.520  0.4062 -1.7232  0.3997
 2889TIP3    H2 8632   0.885   5.207   3.392 -0.9483 -1.1838  1.3181
 2890TIP3   OH2 8633   5.396   5.567   2.897  0.3579 -0.5063 -0.7495
 2890TIP3    H1 8634   5.479   5.614   2.899  0.7018 -1.1213 -0.1860
 2890TIP3    H2 8635   5.417   5.482   2.857 -0.5512  0.3236 -3.1605
 2891TIP3   OH2 8636   2.111   3.849   2.483  0.9889 -0.2220  0.2773
 2891TIP3    H1 8637   2.122   3.799   2.564  2.0558  0.7992  0.7819
 2891TIP3    H2 8638   2.076   3.933   2.511 -0.8603 -0.6384 -0.5812
 2892TIP3   OH2 8639   0.920   6.378   2.957  0.0891 -0.1611 -0.0372
 2892TIP3    H1 8640   0.980   6.448   2.982 -2.4159  1.8458  0.7950
 2892TIP3    H2 8641   0.887   6.344   3.041 -3.1552  1.8478 -0.3601
 2893TIP3   OH2 8642   5.158   1.054   0.896  0.0597 -0.2195 -0.0468
 2893TIP3    H1 8643   5.194   1.049   0.807  2.1303 -0.0331  0.7237
 2893TIP3    H2 8644   5.191   0.976   0.940  2.0322  1.3823  1.5232
 2894TIP3   OH2 8645   3.808   0.270   2.246 -0.1395  0.3059  0.4059
 2894TIP3    H1 8646   3.741   0.204   2.263  0.5343 -0.4509  0.2351
 2894TIP3    H2 8647   3.806   0.328   2.322 -0.3336 -0.2815  0.8520
 2895TIP3   OH2 8648   3.645   4.277   1.063 -0.2493 -0.1028 -0.1751
 2895TIP3    H1 8649   3.739   4.293   1.052 -0.0013 -0.9864  0.6096
 2895TIP3    H2 8650   3.611   4.362   1.092  0.0493  0.6243 -1.8052
 2896TIP3   OH2 8651   4.791   2.262   0.549 -0.1495 -0.3919  0.0093
 2896TIP3    H1 8652   4.750   2.183   0.584 -0.1980 -1.2377 -1.8391
 2896TIP3    H2 8653   4.806   2.243   0.456 -0.6925  1.9811 -0.6413
 2897TIP3   OH2 8654   5.632   3.991   2.268  0.4660  0.6129  0.1025
 2897TIP3    H1 8655   5.725   3.986   2.245  0.3385  0.8263 -0.4785
 2897TIP3    H2 8656   5.593   4.046   2.200 -0.2842 -0.3547 -0.2705
 2898TIP3   OH2 8657   1.256   1.199   5.656 -0.2416 -0.3445  0.4978
 2898TIP3    H1 8658   1.219   1.197   5.568 -0.1269 -2.6213  0.4424
 2898TIP3    H2 8659   1.192   1.150   5.709  1.1653 -1.7127  1.0069
 2899TIP3   OH2 8660   2.474   5.827   4.415  0.0061  0.4170  0.0745
 2899TIP3    H1 8661   2.533   5.878   4.469  0.5228 -0.5077  0.4007
 2899TIP3    H2 8662   2.475   5.871   4.330  0.1111  1.1820  0.4650
 2900TIP3   OH2 8663   0.564   1.867   1.951 -0.1250  0.2309 -0.1021
 2900TIP3    H1 8664   0.492   1.818   1.991  1.8323 -3.1525 -0.2851
 2900TIP3    H2 8665   0.627   1.879   2.022  1.0662 -1.0558 -0.8762
 2901TIP3   OH2 8666   1.837   5.637   1.916 -0.1086 -0.4060 -0.2909
 2901TIP3    H1 8667   1.907   5.701   1.899 -0.3563  0.2261  0.9523
 2901TIP3    H2 8668   1.872   5.581   1.984 -0.6927 -0.2731  0.1248
 2902TIP3   OH2 8669   1.774   2.432   2.810 -0.3485  0.0783  0.0326
 2902TIP3    H1 8670   1.797   2.458   2.899  0.6749 -4.2844  1.2829
 2902TIP3    H2 8671   1.838   2.476   2.755  0.5709  0.9708  1.7110
 2903TIP3   OH2 8672   2.998   2.108   5.053 -0.5586 -0.5816  1.0481
 2903TIP3    H1 8673   2.996   2.077   5.144 -0.8828 -0.4268  1.0968
 2903TIP3    H2 8674   2.955   2.194   5.057 -2.0820 -1.2865  0.4778
 2904TIP3   OH2 8675   6.625   5.946   4.629  0.1823 -0.3089 -0.3367
 2904TIP3    H1 8676   6.568   5.886   4.678  1.6752 -1.1895  0.3856
 2904TIP3    H2 8677   6.614   6.030   4.674  1.6740 -1.1331  1.7550
 2905TIP3   OH2 8678   2.287   2.965   0.541 -0.6371  0.2509  0.1507
 2905TIP3    H1 8679   2.346   2.894   0.518 -0.1074  0.5668  0.5005
 2905TIP3    H2 8680   2.233   2.929   0.612 -1.4266 -0.3053 -0.7102
 2906TIP3   OH2 8681   3.846   2.751   5.443  0.2153  0.0300 -1.2273
 2906TIP3    H1 8682   3.835   2.813   5.371 -0.4466 -1.7738 -2.7526
 2906TIP3    H2 8683   3.901   2.681   5.408 -0.9618 -1.4079 -0.3481
 2907TIP3   OH2 8684   0.133   5.651   4.301 -0.0113  0.4463 -0.0768
 2907TIP3    H1 8685   0.114   5.637   4.393 -2.9023 -2.0562 -0.9098
 2907TIP3    H2 8686   0.219   5.693   4.300 -0.1144  1.0306  3.7162
 2908TIP3   OH2 8687   6.894   4.540   3.869 -0.2529  0.6617  0.2181
 2908TIP3    H1 8688   6.811   4.585   3.852 -1.7915 -1.0985  2.3665
 2908TIP3    H2 8689   6.872   4.476   3.937  2.6143 -0.7759 -0.0743
 2909TIP3   OH2 8690   5.284   4.933   2.432  0.2946 -0.2988  0.2705
 2909TIP3    H1 8691   5.320   4.860   2.484  0.5418 -0.5600 -0.2630
 2909TIP3    H2 8692   5.353   4.999   2.433  1.4583 -1.3827 -1.9946
 2910TIP3   OH2 8693   0.307   3.263   2.745 -0.2113 -0.1686 -0.1327
 2910TIP3    H1 8694   0.277   3.204   2.676  1.6173 -1.6523  0.2768
 2910TIP3    H2 8695   0.371   3.320   2.702  0.1208 -0.3701  0.0933
 2911TIP3   OH2 8696   3.172   0.296   5.059  0.0332 -0.4235 -0.0024
 2911TIP3    H1 8697   3.087   0.312   5.018 -0.0229 -0.8701 -0.0624
 2911TIP3    H2 8698   3.181   0.367   5.122 -2.0167 -2.2790  2.5925
 2912TIP3   OH2 8699   6.097   5.761   3.736 -0.6725  0.1991  0.6702
 2912TIP3    H1 8700   6.105   5.745   3.642 -2.5297  1.1460  0.3078
 2912TIP3    H2 8701   6.182   5.735   3.772  1.8948  3.9229 -1.8363
 2913TIP3   OH2 8702   5.705   4.934   3.197  0.1573 -0.4672 -0.3210
 2913TIP3    H1 8703   5.724   5.027   3.212 -0.6602 -0.4816  0.9032
 2913TIP3    H2 8704   5.609   4.929   3.194  0.1991 -1.2493 -0.5589
 2914TIP3   OH2 8705   0.555   1.465   4.341  0.0423 -0.0700  0.2795
 2914TIP3    H1 8706   0.475   1.417   4.363  0.4928 -0.4296  1.1930
 2914TIP3    H2 8707   0.528   1.556   4.334 -0.2339 -0.0113  1.8207
 2915TIP3   OH2 8708   1.661   5.080   4.054 -0.2336 -0.4376 -0.5675
 2915TIP3    H1 8709   1.580   5.060   4.101  0.0379 -1.4241 -0.5037
 2915TIP3    H2 8710   1.727   5.023   4.095  0.1383 -0.8625 -1.7356
 2916TIP3   OH2 8711   5.590   4.833   5.082  0.4937 -0.7654  0.1601
 2916TIP3    H1 8712   5.614   4.914   5.037  0.0067 -1.3805 -1.2847
 2916TIP3    H2 8713   5.673   4.791   5.102  0.8551  0.8632  2.5470
 2917TIP3   OH2 8714   3.683   1.412   5.145  0.7499 -0.0447  0.3715
 2917TIP3    H1 8715   3.684   1.465   5.225  0.0192  0.7316 -0.1018
 2917TIP3    H2 8716   3.598   1.368   5.147  0.1318  1.0390 -0.6087
 2918TIP3   OH2 8717   3.281   1.598   5.725 -0.2880 -0.1640 -0.0977
 2918TIP3    H1 8718   3.361   1.614   5.775 -0.5882  1.0192  0.0541
 2918TIP3    H2 8719   3.238   1.525   5.771  2.0773 -2.8757 -1.9189
 2919TIP3   OH2 8720   3.032   2.344   4.684 -0.4816 -0.7426 -0.3794
 2919TIP3    H1 8721   3.027   2.422   4.739 -1.4764 -1.9540  1.3209
 2919TIP3    H2 8722   3.126   2.335   4.665 -0.2675  0.4196  0.0405
 2920TIP3   OH2 8723   4.933   2.676   1.927  0.7620  0.1293  0.0355
 2920TIP3    H1 8724   4.957   2.657   2.018  4.4613 -1.1148 -0.9979
 2920TIP3    H2 8725   4.947   2.770   1.918 -0.0787  0.3432  0.8540
 2921TIP3   OH2 8726   2.466   3.791   1.818 -0.1675  0.8180 -0.3092
 2921TIP3    H1 8727   2.485   3.724   1.884  0.0888 -0.6666 -1.8435
 2921TIP3    H2 8728   2.406   3.851   1.862 -0.5413 -0.4975  1.0689
 2922TIP3   OH2 8729   4.513   1.485   3.260  0.1442 -0.5228  0.1181
 2922TIP3    H1 8730   4.496   1.550   3.328 -1.3237 -0.3602 -0.3702
 2922TIP3    H2 8731   4.533   1.536   3.182 -1.0536 -0.6379 -0.2778
 2923TIP3   OH2 8732   0.957   3.616   2.226  0.3048 -0.6332  0.0907
 2923TIP3    H1 8733   0.950   3.711   2.237 -0.1893 -0.2438 -2.8838
 2923TIP3    H2 8734   1.026   3.591   2.287 -0.7840  1.3035  2.3011
 2924TIP3   OH2 8735   0.426   4.761   3.551  0.6980 -0.1785 -0.3509
 2924TIP3    H1 8736   0.513   4.777   3.588  1.3277 -0.8052 -1.5093
 2924TIP3    H2 8737   0.425   4.668   3.532 -0.8628 -0.5165  1.1651
 2925TIP3   OH2 8738   0.985   6.081   4.802 -0.4084  0.1538 -0.2942
 2925TIP3    H1 8739   0.988   6.030   4.722 -0.5696  0.6630 -0.6291
 2925TIP3    H2 8740   1.059   6.050   4.854  0.8986  1.1727 -1.4741
 2926TIP3   OH2 8741   1.506   1.798   3.689 -1.0269  0.1502 -0.2145
 2926TIP3    H1 8742   1.533   1.745   3.764 -1.2624  0.4164  0.0567
 2926TIP3    H2 8743   1.510   1.738   3.615 -0.7862 -0.1109  0.0078
 2927TIP3   OH2 8744   1.294   0.900   0.998 -0.2518 -0.0818 -0.0866
 2927TIP3    H1 8745   1.337   0.910   1.083 -1.4305  3.5938  0.2627
 2927TIP3    H2 8746   1.200   0.902   1.018 -0.5628 -0.4027 -1.3944
 2928TIP3   OH2 8747   3.609   3.963   1.434  0.0724  0.0931  0.0853
 2928TIP3    H1 8748   3.516   3.945   1.419 -0.2534  0.0900  1.9094
 2928TIP3    H2 8749   3.646   3.878   1.458  0.4103  0.2106 -0.0254
 2929TIP3   OH2 8750   4.880   5.445   2.739 -0.0916  0.5809 -0.2347
 2929TIP3    H1 8751   4.854   5.355   2.718 -0.6969  0.1696  2.0524
 2929TIP3    H2 8752   4.872   5.492   2.656 -1.2868 -1.1228 -1.1428
 2930TIP3   OH2 8753   4.108   3.486   2.475 -0.0380  0.0448  0.0599
 2930TIP3    H1 8754   4.029   3.433   2.479 -0.7433  1.1106  0.4856
 2930TIP3    H2 8755   4.089   3.562   2.529  1.0715  0.5864 -0.2866
 2931TIP3   OH2 8756   5.410   0.129   0.672 -0.3673 -0.6577  0.3730
 2931TIP3    H1 8757   5.505   0.125   0.662 -0.3668 -1.1409  0.5076
 2931TIP3    H2 8758   5.392   0.081   0.753 -0.6994 -0.2876  0.5207
 2932TIP3   OH2 8759   2.236   1.930   1.911  0.0659 -0.0932 -0.2101
 2932TIP3    H1 8760   2.176   1.984   1.961  0.3157 -0.1303  0.1369
 2932TIP3    H2 8761   2.313   1.985   1.898 -0.2186  0.1215 -1.0582
 2933TIP3   OH2 8762   4.289   4.308   4.448  0.5511  0.1474  0.0238
 2933TIP3    H1 8763   4.350   4.273   4.382  0.3749  0.7258 -0.4554
 2933TIP3    H2 8764   4.207   4.262   4.431  0.2102  1.0589 -0.8624
 2934TIP3   OH2 8765   4.011   1.756   2.093 -0.5214 -0.5299 -0.3639
 2934TIP3    H1 8766   4.019   1.831   2.034 -1.6227  0.0867  0.2452
 2934TIP3    H2 8767   4.003   1.681   2.034 -0.6429 -0.0300 -0.9977
 2935TIP3   OH2 8768   5.889   0.393   3.782  0.2857  0.0761 -0.7687
 2935TIP3    H1 8769   5.829   0.327   3.745  0.9885 -1.6146  0.9426
 2935TIP3    H2 8770   5.885   0.378   3.876 -0.4231  3.3491 -0.1625
 2936TIP3   OH2 8771   2.538   3.137   1.981 -0.0992 -0.2628  0.4062
 2936TIP3    H1 8772   2.550   3.133   1.886 -2.0038 -0.5508  0.1456
 2936TIP3    H2 8773   2.627   3.148   2.016  0.6474 -0.2952 -1.3873
 2937TIP3   OH2 8774   6.678   2.955   1.123 -0.1055 -0.2092  0.0654
 2937TIP3    H1 8775   6.668   3.019   1.052 -2.5408  0.3108  0.7824
 2937TIP3    H2 8776   6.601   2.968   1.178  1.0415 -1.5145  2.0933
 2938TIP3   OH2 8777   0.998   6.110   2.570 -0.2561  0.7763 -0.2189
 2938TIP3    H1 8778   0.944   6.128   2.647  1.7877  2.1017  0.9869
 2938TIP3    H2 8779   1.014   6.196   2.532  2.0014  0.5780  0.1913
 2939TIP3   OH2 8780   0.389   0.848   3.007  0.2316 -0.2359  0.1045
 2939TIP3    H1 8781   0.450   0.777   3.024 -0.1119 -0.6205 -0.2502
 2939TIP3    H2 8782   0.325   0.811   2.947  0.2805  0.4985 -0.4149
 2940TIP3   OH2 8783   5.994   5.362   2.602 -0.7090 -0.3093 -0.2769
 2940TIP3    H1 8784   6.027   5.287   2.553 -0.8618  0.1127 -1.0326
 2940TIP3    H2 8785   5.951   5.417   2.537 -1.0279  0.2006  0.3482
 2941TIP3   OH2 8786   1.215   5.984   4.921  0.0112  0.1165  0.8216
 2941TIP3    H1 8787   1.301   6.017   4.893 -0.6006  0.4353 -0.7887
 2941TIP3    H2 8788   1.235   5.904   4.969  1.2433  0.4100  0.8354
 2942TIP3   OH2 8789   5.501   4.690   0.870 -0.1619  0.1154 -0.3576
 2942TIP3    H1 8790   5.421   4.710   0.919  0.3486  0.0382  0.5327
 2942TIP3    H2 8791   5.481   4.609   0.824  0.0112 -0.9711  1.3749
 2943TIP3   OH2 8792   6.757   4.550   4.470 -0.0990  0.2274 -0.3771
 2943TIP3    H1 8793   6.703   4.503   4.534 -0.7462  0.3096 -0.8518
 2943TIP3    H2 8794   6.764   4.490   4.396  0.2266  0.3318 -0.4327
 2944TIP3   OH2 8795   1.305   1.339   4.214  0.1653  0.4865 -0.1475
 2944TIP3    H1 8796   1.214   1.347   4.242 -0.0173 -0.3743 -0.4770
 2944TIP3    H2 8797   1.347   1.288   4.283 -0.3554 -1.9166 -1.4775
 2945TIP3   OH2 8798   4.340   1.717   1.941 -0.3711 -0.3088 -0.5669
 2945TIP3    H1 8799   4.265   1.745   1.889 -2.2783 -2.7807  0.6671
 2945TIP3    H2 8800   4.341   1.776   2.016 -1.0417 -0.2448 -0.6068
 2946TIP3   OH2 8801   4.818   5.629   0.625  0.8358  0.0350  0.3468
 2946TIP3    H1 8802   4.803   5.715   0.665  0.6168  0.2735 -0.2427
 2946TIP3    H2 8803   4.743   5.577   0.654  0.8912  0.0810  0.5812
 2947TIP3   OH2 8804   6.198   6.539   5.368  0.2543 -0.4769  0.3972
 2947TIP3    H1 8805   6.284   6.506   5.341  0.5685  0.4134  0.2952
 2947TIP3    H2 8806   6.143   6.529   5.291  0.3478 -0.7542  0.3646
 2948TIP3   OH2 8807   5.849   3.930   1.494  0.3409  0.3758  0.2160
 2948TIP3    H1 8808   5.846   3.946   1.588 -1.5336  0.5473  0.1743
 2948TIP3    H2 8809   5.883   3.841   1.485 -3.2304 -1.2979  1.3658
 2949TIP3   OH2 8810   2.983   1.477   0.510  0.1155  0.2137 -0.3117
 2949TIP3    H1 8811   2.898   1.520   0.512  0.4945  0.9848 -0.3335
 2949TIP3    H2 8812   3.008   1.478   0.417 -0.1491 -0.6301 -0.4026
 2950TIP3   OH2 8813   5.026   3.355   3.921  0.0347  0.5263 -0.3540
 2950TIP3    H1 8814   5.097   3.353   3.985  0.8345 -0.7127 -1.2491
 2950TIP3    H2 8815   4.952   3.313   3.965  0.7220 -0.7494 -0.3908
 2951TIP3   OH2 8816   3.936   1.629   3.484  0.1328 -0.7153  0.7000
 2951TIP3    H1 8817   3.888   1.712   3.477  1.0718 -0.0563  1.7614
 2951TIP3    H2 8818   3.976   1.632   3.571  1.2236 -1.7242  0.2556
 2952TIP3   OH2 8819   2.824   5.716   4.830  0.3659 -0.1322 -0.0894
 2952TIP3    H1 8820   2.746   5.754   4.871  0.5957 -1.5116  1.7519
 2952TIP3    H2 8821   2.897   5.769   4.862  0.3851 -0.0750 -0.2236
 2953TIP3   OH2 8822   0.932   0.006   5.690  0.6289 -0.1108 -0.0377
 2953TIP3    H1 8823   0.970   0.065   5.624  0.0849 -0.1391 -0.3816
 2953TIP3    H2 8824   0.882   0.064   5.747  1.3773 -0.0403  0.5654
 2954TIP3   OH2 8825   5.083   1.039   2.223  0.0026 -0.0873  0.4514
 2954TIP3    H1 8826   5.168   1.011   2.190 -0.3698  1.6086 -2.2581
 2954TIP3    H2 8827   5.030   0.959   2.223  0.7493 -0.6078 -0.7700
 2955TIP3   OH2 8828   6.028   0.103   0.331 -0.3436  0.2784 -0.1842
 2955TIP3    H1 8829   6.015   0.170   0.398  0.5063  0.8945 -0.6055
 2955TIP3    H2 8830   6.078   0.148   0.263 -0.2708 -0.6328 -0.7427
 2956TIP3   OH2 8831   3.247   4.386   3.659  0.0686 -0.0382  0.1029
 2956TIP3    H1 8832   3.232   4.291   3.662 -1.8042  0.1559 -1.5905
 2956TIP3    H2 8833   3.340   4.396   3.681  0.2152 -2.2158  0.7150
 2957TIP3   OH2 8834   5.026   2.228   2.807  0.1070  0.4058  0.3694
 2957TIP3    H1 8835   4.969   2.303   2.790  2.7082  2.1075 -1.6444
 2957TIP3    H2 8836   4.978   2.152   2.774 -1.0513  1.7362 -1.1485
 2958TIP3   OH2 8837   3.998   5.139   3.102  0.3337  0.0886  0.3982
 2958TIP3    H1 8838   4.050   5.219   3.091 -0.1125  0.0955 -2.4576
 2958TIP3    H2 8839   3.911   5.162   3.071 -0.6395 -0.7672  2.3058
 2959TIP3   OH2 8840   1.353   5.881   2.187  0.3799 -0.0044  0.2784
 2959TIP3    H1 8841   1.387   5.893   2.275  2.3869  0.3700 -0.4968
 2959TIP3    H2 8842   1.383   5.794   2.160  1.0870  0.4785 -0.5607
 2960TIP3   OH2 8843   5.162   3.050   2.157  0.2745  0.7682 -0.6496
 2960TIP3    H1 8844   5.219   3.027   2.230 -0.1767 -0.4974 -0.6795
 2960TIP3    H2 8845   5.222   3.078   2.088  0.7077  1.9257  0.1704
 2961TIP3   OH2 8846   3.217   1.544   4.687  0.0516 -0.1790  0.2044
 2961TIP3    H1 8847   3.135   1.585   4.659 -0.2880  0.4836  2.0046
 2961TIP3    H2 8848   3.192   1.488   4.760  1.1619 -0.1663  0.6160
 2962TIP3   OH2 8849   1.798   4.023   0.984 -0.2029  0.2263  0.4711
 2962TIP3    H1 8850   1.770   4.030   1.075 -0.4736 -0.7703  0.4793
 2962TIP3    H2 8851   1.890   4.049   0.985 -0.1997  0.2022  1.0386
 2963TIP3   OH2 8852   3.830   2.951   1.459  0.2797  0.5846  0.3146
 2963TIP3    H1 8853   3.849   2.906   1.541  0.1957  1.3514  0.7668
 2963TIP3    H2 8854   3.872   3.036   1.468 -2.5903  2.0541  1.0185
 2964TIP3   OH2 8855   5.275   1.130   3.284 -0.0475 -0.1826  0.5218
 2964TIP3    H1 8856   5.319   1.134   3.199 -0.4734 -0.6014  0.2780
 2964TIP3    H2 8857   5.345   1.137   3.348  0.3270 -0.3543  0.1343
 2965TIP3   OH2 8858   3.343   5.663   1.265  0.7237  0.7753  0.7531
 2965TIP3    H1 8859   3.382   5.694   1.347 -0.0241  2.2127  0.6049
 2965TIP3    H2 8860   3.310   5.743   1.223  0.4028 -0.0298 -0.5806
 2966TIP3   OH2 8861   0.861   5.580   0.534  0.0290  0.3633 -0.2824
 2966TIP3    H1 8862   0.928   5.558   0.469 -0.7372  0.4647 -1.1242
 2966TIP3    H2 8863   0.868   5.510   0.599  0.3903 -0.0933 -0.7925
 2967TIP3   OH2 8864   3.191   0.627   3.252  0.3143  0.3270  0.3151
 2967TIP3    H1 8865   3.181   0.650   3.344  0.9163  0.5016  0.3446
 2967TIP3    H2 8866   3.218   0.535   3.254  0.6265  0.4169  0.3319
 2968TIP3   OH2 8867   0.401   3.675   1.438  0.0090  0.8219 -0.3283
 2968TIP3    H1 8868   0.391   3.698   1.346 -0.5623  0.0278 -0.4783
 2968TIP3    H2 8869   0.426   3.756   1.481 -1.5624  1.6258 -0.8784
 2969TIP3   OH2 8870   1.022   4.269   1.556  0.3534 -0.0496 -0.4890
 2969TIP3    H1 8871   0.940   4.275   1.604  0.1483  0.5899 -0.9070
 2969TIP3    H2 8872   1.086   4.313   1.612 -0.1355  1.8467 -1.3038
 2970TIP3   OH2 8873   3.799   5.625   2.255  0.8670 -0.7525  0.4102
 2970TIP3    H1 8874   3.805   5.642   2.161  0.0731  2.1123  0.7836
 2970TIP3    H2 8875   3.890   5.616   2.283  1.2113 -0.0308 -0.4177
 2971TIP3   OH2 8876   0.301   4.191   3.277 -0.0926 -0.2541 -0.2764
 2971TIP3    H1 8877   0.244   4.238   3.217  0.0731 -0.6557 -0.7485
 2971TIP3    H2 8878   0.356   4.137   3.221 -1.2656 -2.1516  0.2890
 2972TIP3   OH2 8879   1.805   4.800   1.501 -0.0975  0.0218 -0.2653
 2972TIP3    H1 8880   1.808   4.896   1.509 -1.0964 -0.0012  0.5494
 2972TIP3    H2 8881   1.880   4.770   1.552  1.2572  0.4059 -1.9236
 2973TIP3   OH2 8882   2.938   5.820   5.602  0.6590  0.2948 -0.3690
 2973TIP3    H1 8883   2.890   5.839   5.683  0.2890  2.1518 -0.9862
 2973TIP3    H2 8884   2.905   5.884   5.539  1.2847 -0.8051 -1.8755
 2974TIP3   OH2 8885   5.982   5.224   4.353 -0.0526  0.7944 -0.0625
 2974TIP3    H1 8886   5.970   5.246   4.261  1.6522  0.1978 -0.4529
 2974TIP3    H2 8887   5.991   5.129   4.354 -2.7813  0.4519  1.0786
 2975TIP3   OH2 8888   1.530   0.093   0.316 -0.1784  0.4705 -0.1297
 2975TIP3    H1 8889   1.528   0.185   0.291 -0.9125  0.2221 -1.0408
 2975TIP3    H2 8890   1.454   0.054   0.272 -0.1509 -0.4796  0.6116
 2976TIP3   OH2 8891   4.237   2.683   4.083  0.4541 -0.2623 -0.2617
 2976TIP3    H1 8892   4.248   2.657   3.992 -1.0832 -0.6537 -0.3602
 2976TIP3    H2 8893   4.220   2.602   4.130  0.9954 -0.0375  0.3600
 2977TIP3   OH2 8894   5.678   3.213   1.801 -0.4651 -0.1957 -0.0794
 2977TIP3    H1 8895   5.639   3.297   1.777  0.0184 -0.2344 -1.0809
 2977TIP3    H2 8896   5.639   3.150   1.739  0.1249 -0.4734 -0.1818
 2978TIP3   OH2 8897   0.881   0.318   1.094  0.3895 -0.8128 -0.2270
 2978TIP3    H1 8898   0.847   0.307   1.183  2.9451 -1.2762  0.7910
 2978TIP3    H2 8899   0.960   0.264   1.092  0.0452 -1.3511 -3.0323
 2979TIP3   OH2 8900   2.841   5.678   4.562  0.4675 -0.2423 -0.0023
 2979TIP3    H1 8901   2.840   5.684   4.658 -0.8219 -0.6307  0.0331
 2979TIP3    H2 8902   2.927   5.710   4.537  0.2188  1.4957  1.1822
 2980TIP3   OH2 8903   4.115   5.944   1.294  0.4176 -0.0064 -0.3375
 2980TIP3    H1 8904   4.097   6.026   1.248 -1.1669 -0.7510 -1.1364
 2980TIP3    H2 8905   4.036   5.929   1.347  0.2500 -1.4933 -0.9710
 2981TIP3   OH2 8906   4.395   5.963   1.223  0.0070 -0.0376 -0.7259
 2981TIP3    H1 8907   4.312   5.917   1.233  0.5077 -0.8355 -0.1617
 2981TIP3    H2 8908   4.458   5.909   1.269  0.4503  1.7079  0.8129
 2982TIP3   OH2 8909   5.321   4.643   3.196  0.2527  0.4700 -0.5186
 2982TIP3    H1 8910   5.383   4.715   3.183  0.4773  0.1992 -0.9840
 2982TIP3    H2 8911   5.242   4.685   3.232  0.6764  0.8249  0.0018
 2983TIP3   OH2 8912   4.542   6.441   0.238 -0.0035 -0.9455  0.0680
 2983TIP3    H1 8913   4.590   6.369   0.198  0.8999 -0.3825  0.1094
 2983TIP3    H2 8914   4.609   6.493   0.283 -0.1907  1.3812 -2.1280
 2984TIP3   OH2 8915   6.832   4.385   0.480  0.2068 -0.2270  0.2772
 2984TIP3    H1 8916   6.839   4.406   0.387  0.6593  0.2386  0.4166
 2984TIP3    H2 8917   6.912   4.419   0.519 -0.9875  1.6926  1.2223
 2985TIP3   OH2 8918   7.163   3.094   3.994 -0.3247  0.0188 -0.1753
 2985TIP3    H1 8919   7.230   3.043   3.947  2.0443  0.0628  2.8639
 2985TIP3    H2 8920   7.090   3.034   4.004  1.0903 -1.6947  0.3922
 2986TIP3   OH2 8921   3.620   2.978   2.822 -0.3844  0.2033  0.3893
 2986TIP3    H1 8922   3.696   3.012   2.775 -0.9255 -0.6684 -1.2089
 2986TIP3    H2 8923   3.644   2.984   2.915  1.8871 -0.6106 -0.0832
 2987TIP3   OH2 8924   3.798   5.348   3.770  0.1153 -0.2075  0.1908
 2987TIP3    H1 8925   3.861   5.420   3.774  1.5725 -1.3175 -1.2340
 2987TIP3    H2 8926   3.768   5.347   3.679 -2.2020  0.4151  0.8687
 2988TIP3   OH2 8927   4.247   5.852   1.913 -0.1537 -0.2049  0.2945
 2988TIP3    H1 8928   4.208   5.771   1.879 -0.0336 -0.0228 -0.2913
 2988TIP3    H2 8929   4.260   5.907   1.835  0.7929 -0.0602  0.5391
 2989TIP3   OH2 8930   7.142   4.787   1.647 -0.2167  0.4332 -0.3817
 2989TIP3    H1 8931   7.169   4.748   1.730  0.4017  0.0463 -0.7610
 2989TIP3    H2 8932   7.222   4.826   1.612 -0.5124  0.7497 -0.7139
 2990TIP3   OH2 8933   6.322   5.078   1.249 -0.8900 -0.5914  0.0843
 2990TIP3    H1 8934   6.377   5.133   1.194  1.4397 -2.1366  0.6991
 2990TIP3    H2 8935   6.256   5.043   1.190 -1.4139  1.5124 -0.6473
 2991TIP3   OH2 8936   0.137   5.572   2.505  0.4197  0.1111  0.2493
 2991TIP3    H1 8937   0.176   5.581   2.418  1.5533 -2.1865  0.4269
 2991TIP3    H2 8938   0.194   5.510   2.551 -0.6008  0.6230  2.3629
 2992TIP3   OH2 8939   1.463   5.761   2.743 -0.0457 -0.0526 -0.0752
 2992TIP3    H1 8940   1.466   5.695   2.812  0.3530 -2.3634 -2.1491
 2992TIP3    H2 8941   1.399   5.825   2.774  1.1696 -0.1593  3.0245
 2993TIP3   OH2 8942   0.625   1.144   4.834  0.1562 -0.2396 -0.4672
 2993TIP3    H1 8943   0.678   1.070   4.803 -1.0540 -0.3991 -2.3019
 2993TIP3    H2 8944   0.690   1.210   4.860  1.2890 -0.5910 -2.2143
 2994TIP3   OH2 8945   5.557   1.995   1.031 -0.1974 -0.1442 -0.3770
 2994TIP3    H1 8946   5.603   1.914   1.009 -0.8788 -1.4466  2.5189
 2994TIP3    H2 8947   5.485   1.968   1.087 -0.6482  2.4464  0.4480
 2995TIP3   OH2 8948   6.506   0.980   5.668  0.0269  0.0807 -0.1230
 2995TIP3    H1 8949   6.463   1.024   5.741  0.4369  1.1430 -0.5058
 2995TIP3    H2 8950   6.568   1.045   5.634  1.9604 -1.3784  0.4178
 2996TIP3   OH2 8951   1.738   0.706   5.239 -0.4323  0.4368  0.2141
 2996TIP3    H1 8952   1.684   0.736   5.312 -2.0193 -0.5024 -0.5413
 2996TIP3    H2 8953   1.706   0.754   5.163  0.2828  0.3916 -0.1244
 2997TIP3   OH2 8954   6.767   5.781   2.810 -0.2933  0.5888 -0.2572
 2997TIP3    H1 8955   6.683   5.809   2.774 -2.0863 -2.9478  0.7159
 2997TIP3    H2 8956   6.811   5.736   2.737 -0.1426  0.7023 -0.2370
 2998TIP3   OH2 8957   5.695   3.002   5.486 -0.1684 -0.2031  0.1113
 2998TIP3    H1 8958   5.781   3.043   5.495 -0.2483 -0.1539  0.6452
 2998TIP3    H2 8959   5.633   3.068   5.518 -0.2731 -0.8414  1.2523
 2999TIP3   OH2 8960   4.348   4.149   1.981  0.3714  0.0321  0.2807
 2999TIP3    H1 8961   4.304   4.230   1.956 -1.8309 -0.2207  2.8337
 2999TIP3    H2 8962   4.278   4.084   1.986  1.8495 -1.6787 -0.1887
 3000TIP3   OH2 8963   5.492   2.522   3.900  0.7825 -0.1575  0.4313
 3000TIP3    H1 8964   5.396   2.529   3.905  0.5070 -0.6897 -2.5251
 3000TIP3    H2 8965   5.516   2.579   3.827  2.5562 -1.2181  0.1380
 3001TIP3   OH2 8966   4.726   0.316   0.555  0.4517 -0.6073  0.0304
 3001TIP3    H1 8967   4.695   0.368   0.481 -0.0708 -2.1098 -0.8417
 3001TIP3    H2 8968   4.650   0.263   0.580  0.4012  0.3490  2.1121
 3002TIP3   OH2 8969   2.749   0.041   2.775 -0.6731 -0.2217  0.4412
 3002TIP3    H1 8970   2.665   0.056   2.732 -1.0755 -2.5180  0.2961
 3002TIP3    H2 8971   2.727   0.026   2.867 -0.7475 -2.8858  0.0678
 3003TIP3   OH2 8972   4.053   1.725   4.561 -0.2410  0.4113 -0.0450
 3003TIP3    H1 8973   3.970   1.752   4.601  0.2070  1.1852  0.3713
 3003TIP3    H2 8974   4.028   1.653   4.502 -1.1368  0.3191  0.4242
 3004TIP3   OH2 8975   0.750   3.858   3.035  0.3600 -0.3556 -1.3719
 3004TIP3    H1 8976   0.657   3.844   3.056  0.4758 -0.3575 -0.8424
 3004TIP3    H2 8977   0.750   3.939   2.984  0.0808 -0.2632 -1.2305
 3005TIP3   OH2 8978   6.432   2.524   4.564 -0.4121  0.0079 -0.0474
 3005TIP3    H1 8979   6.338   2.519   4.582 -0.5451 -1.4720 -1.0187
 3005TIP3    H2 8980   6.439   2.585   4.490 -0.6650 -0.3150 -0.3389
 3006TIP3   OH2 8981   1.075   2.837   0.943  0.3928 -0.2706 -0.2676
 3006TIP3    H1 8982   1.102   2.896   1.013 -1.3186 -0.6749  0.8137
 3006TIP3    H2 8983   1.114   2.874   0.864  1.7329  0.6537  0.7755
 3007TIP3   OH2 8984   2.900   1.344   3.016  0.1330  0.1070 -0.0556
 3007TIP3    H1 8985   2.913   1.291   3.095 -0.1822 -1.7940 -1.2260
 3007TIP3    H2 8986   2.860   1.425   3.048 -1.7074 -1.3538  1.5747
 3008TIP3   OH2 8987   2.676   4.032   3.499  0.2984  0.1826  0.1587
 3008TIP3    H1 8988   2.724   4.071   3.425 -1.5306  0.7001 -0.8075
 3008TIP3    H2 8989   2.649   4.106   3.552 -1.6217  0.1519 -0.7059
 3009TIP3   OH2 8990   0.274   1.733   1.887 -0.0556  0.0042 -0.4959
 3009TIP3    H1 8991   0.319   1.661   1.844 -0.5237 -0.9243  0.5093
 3009TIP3    H2 8992   0.187   1.736   1.845  0.5234  1.1056 -1.6966
 3010TIP3   OH2 8993   5.391   0.595   2.673 -0.3227 -0.3634  0.5379
 3010TIP3    H1 8994   5.311   0.647   2.682 -1.2124 -1.7461  0.9193
 3010TIP3    H2 8995   5.364   0.506   2.696  1.4132 -0.7922  1.0147
 3011TIP3   OH2 8996   5.902   6.608   4.695 -0.1872  0.0006 -0.0828
 3011TIP3    H1 8997   5.864   6.522   4.716 -2.3208  1.0393  0.6336
 3011TIP3    H2 8998   5.889   6.617   4.600 -1.0085 -0.0272  0.0159
 3012TIP3   OH2 8999   3.015   4.916   4.229 -0.1998 -0.0083  0.0601
 3012TIP3    H1 9000   3.036   4.882   4.142  1.9009 -0.2119  0.5825
 3012TIP3    H2 9001   3.091   4.893   4.282 -1.2656  0.4614  1.8639
 3013TIP3   OH2 9002   2.605   0.441   2.647 -0.2024  0.2256 -0.1960
 3013TIP3    H1 9003   2.574   0.423   2.558  1.7684  0.3454 -0.9582
 3013TIP3    H2 9004   2.545   0.508   2.680  0.7613  2.4475 -2.5876
 3014TIP3   OH2 9005   1.108   6.193   4.042 -0.0269  0.2185 -0.6853
 3014TIP3    H1 9006   1.147   6.187   3.955 -0.7690 -2.2647 -0.9184
 3014TIP3    H2 9007   1.014   6.180   4.027  0.0764 -2.6981  0.6374
 3015TIP3   OH2 9008   1.831   2.994   2.112  0.1927 -0.1659 -0.5308
 3015TIP3    H1 9009   1.839   2.911   2.065  0.7433 -0.0277 -0.6877
 3015TIP3    H2 9010   1.910   3.044   2.087 -0.6382  0.8257 -1.2755
 3016TIP3   OH2 9011   6.857   6.735   1.850  0.0072 -0.5533  0.1467
 3016TIP3    H1 9012   6.848   6.728   1.946  1.3638  0.3288  0.3696
 3016TIP3    H2 9013   6.819   6.820   1.829  0.0609 -0.5770 -0.0419
 3017TIP3   OH2 9014   2.836   3.249   1.400  0.3546  0.3113 -0.0818
 3017TIP3    H1 9015   2.861   3.314   1.466  1.3106  2.3641 -2.3410
 3017TIP3    H2 9016   2.776   3.296   1.342 -0.9457 -1.6216 -0.4030
 3018TIP3   OH2 9017   1.006   2.936   4.818 -0.4044  0.6388  0.5231
 3018TIP3    H1 9018   1.000   2.850   4.860  1.1090  0.2482 -0.0053
 3018TIP3    H2 9019   0.991   2.918   4.725  0.9787  0.7661  0.2610
 3019TIP3   OH2 9020   5.557   6.357   4.492  0.2940 -0.3058 -0.1191
 3019TIP3    H1 9021   5.497   6.284   4.504  0.1410 -0.2374 -0.4592
 3019TIP3    H2 9022   5.637   6.330   4.535 -0.0810 -0.2689  0.6224
 3020TIP3   OH2 9023   5.095   3.940   0.831 -0.2808  0.1712  0.6494
 3020TIP3    H1 9024   5.064   3.849   0.825  0.5602 -0.0828  0.0884
 3020TIP3    H2 9025   5.028   3.991   0.785 -0.2402 -0.2820  0.0831
 3021TIP3   OH2 9026   6.090   3.283   2.812  0.2373 -0.0384 -0.5983
 3021TIP3    H1 9027   6.172   3.270   2.860  0.2759  0.9738 -0.3730
 3021TIP3    H2 9028   6.022   3.264   2.876  0.2837 -0.5739 -0.6982
 3022TIP3   OH2 9029   0.966   4.740   4.286  0.2471  0.3578 -0.2597
 3022TIP3    H1 9030   0.966   4.681   4.361 -1.9517  0.0448 -0.4255
 3022TIP3    H2 9031   0.990   4.825   4.322  0.2225  0.0085  0.6021
 3023TIP3   OH2 9032   2.204   1.342   5.285 -0.4056 -0.3124 -0.1328
 3023TIP3    H1 9033   2.171   1.260   5.321  0.6983 -1.3807 -1.4654
 3023TIP3    H2 9034   2.134   1.373   5.227 -0.5681 -0.6456 -0.1147
 3024TIP3   OH2 9035   2.698   1.711   1.123  0.2365  0.3108 -0.3853
 3024TIP3    H1 9036   2.779   1.734   1.077  0.5414  0.0806  0.0275
 3024TIP3    H2 9037   2.728   1.679   1.209 -0.3851  2.3048  0.6337
 3025TIP3   OH2 9038   2.967   2.545   5.440  0.3299 -0.1873  0.0659
 3025TIP3    H1 9039   2.987   2.552   5.534 -0.6896  1.1023  0.2065
 3025TIP3    H2 9040   2.923   2.460   5.431 -0.4584  0.1218  0.9241
 3026TIP3   OH2 9041   1.062   2.750   2.468  0.3052  0.1846 -0.1734
 3026TIP3    H1 9042   1.002   2.824   2.478  0.3730  0.2603 -0.3247
 3026TIP3    H2 9043   1.138   2.786   2.423  0.4461  0.0785 -0.0206
 3027TIP3   OH2 9044   2.983   0.317   3.051  0.0152  0.4115  0.2262
 3027TIP3    H1 9045   2.960   0.224   3.051 -0.6583  0.5762  0.2585
 3027TIP3    H2 9046   3.052   0.325   2.986 -1.8776  0.3745 -1.8854
 3028TIP3   OH2 9047   4.406   1.947   1.329  0.2595  0.1525 -0.3469
 3028TIP3    H1 9048   4.443   1.920   1.245 -1.7491 -0.3514 -1.1360
 3028TIP3    H2 9049   4.446   1.888   1.393  0.4124 -0.7099 -1.2179
 3029TIP3   OH2 9050   6.433   4.519   4.460  0.0194  0.3364 -0.4754
 3029TIP3    H1 9051   6.466   4.441   4.506  1.4329  0.9405 -0.4327
 3029TIP3    H2 9052   6.361   4.550   4.515 -0.2383 -0.6570 -0.2323
 3030TIP3   OH2 9053   1.433   4.695   1.101  0.1810  0.0258  0.0033
 3030TIP3    H1 9054   1.405   4.604   1.100 -0.3399  0.1610  1.0564
 3030TIP3    H2 9055   1.395   4.733   1.021 -1.8153 -0.0614  0.8473
 3031TIP3   OH2 9056   4.141   6.044   5.326  0.9101 -0.2719 -0.0726
 3031TIP3    H1 9057   4.092   6.063   5.406  1.0994 -0.0272 -0.0128
 3031TIP3    H2 9058   4.173   5.955   5.338 -0.0763 -0.6843 -0.3983
 3032TIP3   OH2 9059   5.618   0.237   5.238  0.3678  0.6255 -0.0649
 3032TIP3    H1 9060   5.597   0.285   5.158 -0.1590  0.8220  0.1867
 3032TIP3    H2 9061   5.540   0.184   5.255 -0.2344  1.8759  1.2727
 3033TIP3   OH2 9062   0.042   2.524   4.507 -0.1107 -0.2962 -0.1332
 3033TIP3    H1 9063  -0.029   2.588   4.506  0.5237  0.4308  0.2120
 3033TIP3    H2 9064   0.101   2.551   4.436 -1.1233 -2.0317 -1.7198
 3034TIP3   OH2 9065   4.036   2.756   4.953 -0.8699  0.0645 -0.1194
 3034TIP3    H1 9066   4.121   2.780   4.990  0.0082 -0.6220 -1.6139
 3034TIP3    H2 9067   4.003   2.837   4.913 -0.7296  0.2267  0.0910
 3035TIP3   OH2 9068   4.370   2.387   4.629  0.0937  0.6608  0.4817
 3035TIP3    H1 9069   4.352   2.294   4.646 -0.5139  0.9099  1.2486
 3035TIP3    H2 9070   4.297   2.433   4.669  1.0166  1.5551  1.1911
 3036TIP3   OH2 9071   2.653   2.378   1.474  0.4120  0.5088  0.3009
 3036TIP3    H1 9072   2.686   2.468   1.477  0.3464  0.5060  1.2498
 3036TIP3    H2 9073   2.560   2.388   1.451 -0.0091  0.8084  1.9935
 3037TIP3   OH2 9074   1.131   4.977   0.060 -0.0323  0.4045  0.2627
 3037TIP3    H1 9075   1.168   5.042   0.001  0.0439  0.7099  0.6365
 3037TIP3    H2 9076   1.114   5.026   0.141 -1.2606  0.2782  0.1001
 3038TIP3   OH2 9077   1.609   2.850   1.901  0.1643 -0.2450 -0.2219
 3038TIP3    H1 9078   1.696   2.813   1.912 -0.0035 -0.7511 -0.5732
 3038TIP3    H2 9079   1.554   2.803   1.965  0.1714  0.1666  0.0940
 3039TIP3   OH2 9080   3.404   4.331   5.326  0.1427 -0.3463  0.3670
 3039TIP3    H1 9081   3.393   4.309   5.419 -2.0159 -1.5793 -0.1035
 3039TIP3    H2 9082   3.392   4.426   5.322  0.2301 -0.2861  1.3453
 3040TIP3   OH2 9083   4.713   0.540   5.003  0.3247 -0.2871 -0.6802
 3040TIP3    H1 9084   4.808   0.535   4.990  0.6190 -0.7156  1.3442
 3040TIP3    H2 9085   4.685   0.609   4.943  2.4526  2.3572  1.1232
 3041TIP3   OH2 9086   3.821   6.662   4.373  0.7059  0.0711 -0.0671
 3041TIP3    H1 9087   3.816   6.567   4.364  0.4278  0.1508 -0.7620
 3041TIP3    H2 9088   3.730   6.690   4.384  0.9045  0.0987  1.8951
 3042TIP3   OH2 9089   2.521   2.995   4.671  1.1350  0.0251  0.5495
 3042TIP3    H1 9090   2.484   2.936   4.738  1.7827 -0.4176  0.5296
 3042TIP3    H2 9091   2.512   2.946   4.589  2.4174 -0.3999  0.6502
 3043TIP3   OH2 9092   2.617   6.766   4.911 -0.3202  0.1047 -0.0941
 3043TIP3    H1 9093   2.683   6.698   4.898 -0.9756 -1.1505  2.4850
 3043TIP3    H2 9094   2.534   6.718   4.919 -1.0311  1.3381  0.3072
 3044TIP3   OH2 9095   0.624   4.686   5.324 -0.2916  0.1997  0.5734
 3044TIP3    H1 9096   0.675   4.701   5.404  0.5396 -3.2349  0.8567
 3044TIP3    H2 9097   0.534   4.709   5.348  0.2792  1.3774  1.7336
 3045TIP3   OH2 9098   2.316   5.706   0.482  0.2728 -0.1079  0.5587
 3045TIP3    H1 9099   2.221   5.694   0.488 -0.2207  2.6646 -0.3090
 3045TIP3    H2 9100   2.340   5.744   0.567  0.8660 -1.8445  1.2156
 3046TIP3   OH2 9101   4.847   0.524   2.834  0.3494 -0.3823  0.9136
 3046TIP3    H1 9102   4.938   0.539   2.808  0.0883 -0.9930 -0.4582
 3046TIP3    H2 9103   4.851   0.448   2.891  0.6262 -0.9412  0.1706
 3047TIP3   OH2 9104   4.239   0.014   4.631 -0.2553  0.4566  0.6127
 3047TIP3    H1 9105   4.307   0.079   4.612  0.2541 -0.1625  0.2994
 3047TIP3    H2 9106   4.192   0.050   4.706 -1.3492  2.2276 -0.8316
 3048TIP3   OH2 9107   3.881   1.565   2.414 -0.0295 -0.0881  0.0356
 3048TIP3    H1 9108   3.806   1.505   2.419  0.9820 -1.5499 -1.3394
 3048TIP3    H2 9109   3.947   1.525   2.471  0.1292  0.5436  0.2981
 3049TIP3   OH2 9110   1.981   1.888   2.144 -0.3742  0.5905  0.0560
 3049TIP3    H1 9111   2.033   1.951   2.094 -0.8874 -2.1223 -4.4380
 3049TIP3    H2 9112   1.893   1.927   2.146 -0.2853  0.8881 -1.0300
 3050TIP3   OH2 9113   2.350   6.410   5.361 -0.0595 -0.2903 -0.6161
 3050TIP3    H1 9114   2.266   6.401   5.407  0.2765  0.3638  0.1442
 3050TIP3    H2 9115   2.364   6.504   5.354  0.5270 -0.3933 -0.9167
 3051TIP3   OH2 9116   4.536   3.056   4.694 -0.3991  0.5161 -0.5069
 3051TIP3    H1 9117   4.605   3.008   4.740 -1.2603 -0.6199 -0.3684
 3051TIP3    H2 9118   4.464   2.994   4.688 -0.5516  0.8494 -2.8148
 3052TIP3   OH2 9119   4.210   0.975   2.350 -0.7348  0.2275 -0.3953
 3052TIP3    H1 9120   4.211   1.069   2.371  0.0460 -0.1659  1.4957
 3052TIP3    H2 9121   4.121   0.947   2.368 -0.0808 -0.1272  2.8877
 3053TIP3   OH2 9122   2.822   6.377   0.251  0.1094 -0.2006  0.0660
 3053TIP3    H1 9123   2.875   6.422   0.316  1.0610  0.1500 -0.9093
 3053TIP3    H2 9124   2.886   6.346   0.186 -0.8267 -0.2191 -0.8756
 3054TIP3   OH2 9125   6.405   6.205   2.202 -0.3899 -0.2537 -0.3682
 3054TIP3    H1 9126   6.471   6.141   2.228  0.5060  0.9065  0.3177
 3054TIP3    H2 9127   6.453   6.287   2.192 -2.0580  1.3305  2.9417
 3055TIP3   OH2 9128   6.746   4.370   0.874  0.1761  0.6342 -0.4353
 3055TIP3    H1 9129   6.681   4.330   0.932  1.3897 -2.4524 -0.9999
 3055TIP3    H2 9130   6.697   4.434   0.823 -2.3254 -1.1047 -0.3881
 3056TIP3   OH2 9131   4.623   6.170   2.788  0.6011 -0.2264  0.3841
 3056TIP3    H1 9132   4.677   6.092   2.775  0.6600 -0.0336 -0.5739
 3056TIP3    H2 9133   4.682   6.243   2.771  0.3696  0.0148  0.6113
 3057TIP3   OH2 9134   2.959   6.073   5.404 -0.1306 -0.3953  0.2670
 3057TIP3    H1 9135   2.915   6.134   5.344  0.1064 -0.0769  0.4110
 3057TIP3    H2 9136   3.044   6.113   5.420  0.0139 -0.7524  0.3907
 3058TIP3   OH2 9137   2.216   6.358   0.936 -0.3283  0.8469 -0.1479
 3058TIP3    H1 9138   2.208   6.379   1.029  1.9212 -1.8074  0.7978
 3058TIP3    H2 9139   2.133   6.315   0.914 -0.4239  0.4038  1.0032
 3059TIP3   OH2 9140   1.646   0.137   2.656  0.3288 -0.2265  0.3661
 3059TIP3    H1 9141   1.584   0.195   2.613  0.1231  0.0960  1.0839
 3059TIP3    H2 9142   1.711   0.195   2.695 -0.0590 -0.4418  1.3754
 3060TIP3   OH2 9143   2.651   1.233   4.707  0.2038 -0.2344 -0.0877
 3060TIP3    H1 9144   2.698   1.156   4.739  0.1799 -0.4151 -0.4837
 3060TIP3    H2 9145   2.719   1.289   4.671  0.4341  0.6987  1.6988
 3061TIP3   OH2 9146   3.096   6.546   3.158  0.1454  0.4411 -0.3462
 3061TIP3    H1 9147   3.032   6.494   3.109  1.0466 -1.9182  0.8478
 3061TIP3    H2 9148   3.043   6.602   3.215 -0.8656 -0.0878 -0.7430
 3062TIP3   OH2 9149   0.674   4.865   5.678  0.0660  0.0570  0.4737
 3062TIP3    H1 9150   0.715   4.949   5.695  1.9619 -0.8844  0.8180
 3062TIP3    H2 9151   0.742   4.813   5.635 -0.8461 -1.5197  0.8339
 3063TIP3   OH2 9152   0.159   3.183   4.384 -0.2075 -0.3643  0.3481
 3063TIP3    H1 9153   0.109   3.258   4.351 -0.0235  0.1420  1.1740
 3063TIP3    H2 9154   0.097   3.110   4.382  0.2654 -0.8243 -2.7158
 3064TIP3   OH2 9155   2.870   0.446   1.853  0.2286  0.2685  1.1292
 3064TIP3    H1 9156   2.822   0.387   1.911  0.4382 -0.9326  0.1121
 3064TIP3    H2 9157   2.859   0.409   1.766  0.8813  1.4035  0.5375
 3065TIP3   OH2 9158   6.807   5.808   3.780 -0.2724  0.3712  0.2868
 3065TIP3    H1 9159   6.854   5.885   3.748 -0.6998  0.8693  0.8345
 3065TIP3    H2 9160   6.871   5.762   3.833  0.4624 -0.4901 -1.2652
 3066TIP3   OH2 9161   2.764   5.760   1.953 -0.0105  0.3959 -0.5557
 3066TIP3    H1 9162   2.761   5.820   1.878  0.6657  1.1270 -0.0211
 3066TIP3    H2 9163   2.744   5.816   2.028 -1.8406 -0.5524 -0.2907
 3067TIP3   OH2 9164   6.134   0.979   4.917  0.3254 -0.5174 -0.5299
 3067TIP3    H1 9165   6.049   1.016   4.942  0.7311  0.5011 -0.6109
 3067TIP3    H2 9166   6.183   0.975   4.999  0.7934  0.5066 -0.7523
 3068TIP3   OH2 9167   4.058   2.735   5.629  0.4086 -1.0870 -0.3110
 3068TIP3    H1 9168   4.009   2.757   5.550 -0.1391  1.5528  0.6404
 3068TIP3    H2 9169   3.991   2.721   5.696  0.8650 -0.1591  0.3702
 3069TIP3   OH2 9170   3.340   1.388   4.251  0.1378 -0.6278  0.5864
 3069TIP3    H1 9171   3.404   1.365   4.319  1.9641 -0.7596 -1.0638
 3069TIP3    H2 9172   3.323   1.481   4.264  0.3137 -0.6987  1.3443
 3070TIP3   OH2 9173   3.549   3.082   2.096  0.4090  0.4829 -0.0190
 3070TIP3    H1 9174   3.586   3.026   2.028  0.0920  0.0034  0.1973
 3070TIP3    H2 9175   3.590   3.051   2.177  1.1936  1.4021 -0.0448
 3071TIP3   OH2 9176   5.469   2.421   4.170  0.0467 -0.3093  0.1572
 3071TIP3    H1 9177   5.414   2.346   4.147  0.0264 -0.7143  1.4173
 3071TIP3    H2 9178   5.442   2.491   4.110 -1.0921 -0.8229  0.0464
 3072TIP3   OH2 9179   1.182   3.146   4.725  0.3537  0.3070 -0.2346
 3072TIP3    H1 9180   1.096   3.158   4.763  0.4011 -0.6899  0.2344
 3072TIP3    H2 9181   1.177   3.187   4.639 -0.6120  0.1922 -0.2395
 3073TIP3   OH2 9182   1.831   5.905   4.770 -0.6308 -0.2976 -0.2315
 3073TIP3    H1 9183   1.884   5.984   4.783  1.2723 -1.4896 -0.4278
 3073TIP3    H2 9184   1.842   5.856   4.852  0.3624 -1.5704 -1.1074
 3074TIP3   OH2 9185   2.138   3.421   3.308 -0.2665  0.0321 -0.3932
 3074TIP3    H1 9186   2.120   3.444   3.217 -1.6483 -1.3435 -0.4973
 3074TIP3    H2 9187   2.224   3.379   3.306  0.0266  0.6425 -0.9410
 3075TIP3   OH2 9188   2.133   5.311   1.128 -0.4595 -0.7647  0.3358
 3075TIP3    H1 9189   2.124   5.333   1.221 -0.2643  0.6956  0.0356
 3075TIP3    H2 9190   2.226   5.320   1.110 -0.2876 -2.4527  0.3155
 3076TIP3   OH2 9191   1.411   2.678   5.190 -0.0098 -0.0929  0.6583
 3076TIP3    H1 9192   1.402   2.757   5.137  0.5016 -0.8667 -0.6485
 3076TIP3    H2 9193   1.330   2.630   5.177  0.2397 -0.4289  0.3219
 3077TIP3   OH2 9194   2.347   0.644   5.627  0.0918  0.6338 -0.0906
 3077TIP3    H1 9195   2.421   0.664   5.684  0.2230 -0.0885 -0.0047
 3077TIP3    H2 9196   2.273   0.688   5.668  0.6578  2.2915 -0.7589
 3078TIP3   OH2 9197   1.311   4.334   0.650  0.0850  0.0043  0.3712
 3078TIP3    H1 9198   1.390   4.347   0.598 -0.5133 -0.3809 -0.6865
 3078TIP3    H2 9199   1.245   4.389   0.607 -1.1670 -2.4262 -1.0992
 3079TIP3   OH2 9200   1.589   0.453   0.034 -0.7361 -0.0299  1.2287
 3079TIP3    H1 9201   1.645   0.460  -0.043  0.3559 -0.1249  1.9949
 3079TIP3    H2 9202   1.533   0.377   0.017  0.0978 -0.5775  0.9075
 3080TIP3   OH2 9203   6.510   5.697   4.660  0.4454 -0.4319 -0.0413
 3080TIP3    H1 9204   6.451   5.642   4.608 -0.2410 -0.2244  0.5047
 3080TIP3    H2 9205   6.589   5.644   4.669  0.7044 -0.3502 -1.5496
 3081TIP3   OH2 9206   3.429   5.586   1.749  0.3535  0.5120 -0.0481
 3081TIP3    H1 9207   3.524   5.581   1.756  0.3022  1.3071  1.8903
 3081TIP3    H2 9208   3.406   5.670   1.788 -1.1977 -0.0468  0.3315
 3082TIP3   OH2 9209   2.605   5.523   5.004 -0.0154 -0.0569 -0.3577
 3082TIP3    H1 9210   2.688   5.488   4.972  0.0461  1.3318 -1.8783
 3082TIP3    H2 9211   2.580   5.464   5.075  1.1417 -1.8292 -1.3246
 3083TIP3   OH2 9212   6.762   5.086   0.685  0.1423 -0.5834  0.5156
 3083TIP3    H1 9213   6.745   5.018   0.751  0.6985  0.0802  1.3737
 3083TIP3    H2 9214   6.779   5.037   0.604  1.5976 -1.5405  1.3435
 3084TIP3   OH2 9215   6.271   3.699   2.868 -0.3684  0.1977 -0.4162
 3084TIP3    H1 9216   6.286   3.632   2.802 -0.8418  1.9191 -2.3917
 3084TIP3    H2 9217   6.188   3.740   2.843 -0.1830  1.4273  0.8009
 3085TIP3   OH2 9218   0.555   5.707   1.236  0.3967  0.0692  0.0204
 3085TIP3    H1 9219   0.640   5.743   1.259  0.6602 -0.2738 -0.4066
 3085TIP3    H2 9220   0.533   5.748   1.152  0.0248  0.3445  0.2470
 3086TIP3   OH2 9221   3.546   2.628   2.947  0.0211 -0.0881  0.6395
 3086TIP3    H1 9222   3.630   2.664   2.973  0.7695  0.1228 -1.8171
 3086TIP3    H2 9223   3.504   2.603   3.029  3.6952 -3.0236  1.9384
 3087TIP3   OH2 9224   0.347   2.850   4.773 -0.1303  0.5328 -0.5271
 3087TIP3    H1 9225   0.385   2.801   4.700 -0.1171  0.2199 -0.3089
 3087TIP3    H2 9226   0.408   2.923   4.787  0.6871 -0.2556  0.1653
 3088TIP3   OH2 9227   4.954   1.281   2.730 -0.3958  0.2781 -0.4994
 3088TIP3    H1 9228   4.940   1.349   2.796  0.0014  0.2382 -0.3701
 3088TIP3    H2 9229   5.049   1.268   2.730 -0.5603 -1.0874  0.2900
 3089TIP3   OH2 9230   3.782   5.896   5.657 -0.3133  0.1737 -0.2815
 3089TIP3    H1 9231   3.808   5.978   5.699  0.4300 -1.1930  2.1056
 3089TIP3    H2 9232   3.830   5.828   5.705 -0.3527 -1.6345 -2.6399
 3090TIP3   OH2 9233   1.290   5.545   3.626  0.6125 -0.6128 -0.0855
 3090TIP3    H1 9234   1.244   5.462   3.638 -0.1499  0.0534  2.3524
 3090TIP3    H2 9235   1.234   5.595   3.567 -1.3230 -0.2678  1.8868
 3091TIP3   OH2 9236   6.077   6.415   4.086 -0.7913  0.1171  0.1094
 3091TIP3    H1 9237   6.040   6.333   4.118 -0.1202 -0.2355 -0.0190
 3091TIP3    H2 9238   6.129   6.448   4.159  0.4739 -0.5234 -0.4734
 3092TIP3   OH2 9239   5.987   2.194   5.578 -0.1145  1.0399 -0.0036
 3092TIP3    H1 9240   6.006   2.282   5.613 -1.3117  2.0615 -1.7444
 3092TIP3    H2 9241   5.900   2.174   5.611  0.0504  0.6041  0.1740
 3093TIP3   OH2 9242   5.775   2.168   1.026 -0.5868  0.6343  0.7316
 3093TIP3    H1 9243   5.845   2.112   1.058 -0.8989  0.5079  1.1938
 3093TIP3    H2 9244   5.694   2.122   1.048 -0.8303  1.0136  0.6509
 3094TIP3   OH2 9245   3.796   3.344   4.698  0.0518  0.1606 -0.1534
 3094TIP3    H1 9246   3.816   3.380   4.611 -1.2323 -0.7031 -0.8376
 3094TIP3    H2 9247   3.727   3.402   4.731  0.9524  0.8519  0.5794
 3095TIP3   OH2 9248   5.625   2.164   1.452  0.6136 -0.0552  0.1566
 3095TIP3    H1 9249   5.664   2.088   1.410 -0.5501 -0.7048  0.2030
 3095TIP3    H2 9250   5.649   2.238   1.397  2.1858 -0.3653  0.3849
 3096TIP3   OH2 9251   5.013   0.042   1.501 -0.2301 -0.0835 -0.1752
 3096TIP3    H1 9252   4.949   0.069   1.568 -0.0375 -0.2757  0.0858
 3096TIP3    H2 9253   5.058  -0.032   1.540  0.0467 -0.0452 -0.4252
 3097TIP3   OH2 9254   6.376   6.743   4.033 -0.0592  0.0840 -0.1635
 3097TIP3    H1 9255   6.339   6.805   4.096  1.7336 -2.0425  3.2899
 3097TIP3    H2 9256   6.306   6.729   3.970 -1.3787  3.6857  0.2290
 3098TIP3   OH2 9257   0.441   5.865   3.226 -0.5122 -0.0432  0.3656
 3098TIP3    H1 9258   0.458   5.925   3.153 -0.9614 -0.3056  0.0379
 3098TIP3    H2 9259   0.367   5.903   3.272 -0.7271 -0.2896  0.2232
 3099TIP3   OH2 9260   6.038   4.503   4.826 -0.3688  0.1441 -0.2363
 3099TIP3    H1 9261   6.032   4.595   4.800 -0.6125  0.7354  1.7551
 3099TIP3    H2 9262   6.095   4.503   4.902 -1.3166 -1.1963  0.5115
 3100TIP3   OH2 9263   5.771   5.036   1.568  0.6255  0.2941 -0.0395
 3100TIP3    H1 9264   5.804   5.050   1.480 -1.1493  0.4539 -0.7218
 3100TIP3    H2 9265   5.751   4.942   1.571  2.8533 -0.2228  1.0353
 3101TIP3   OH2 9266   5.475   3.236   5.218 -0.5808 -0.0301  0.0306
 3101TIP3    H1 9267   5.423   3.184   5.156  0.2491  1.1479 -1.7088
 3101TIP3    H2 9268   5.410   3.268   5.281 -1.8207  0.4187 -1.3993
 3102TIP3   OH2 9269   3.282   5.795   0.259  0.1085 -0.4801 -0.6334
 3102TIP3    H1 9270   3.246   5.713   0.294 -0.3255 -0.6100 -1.3625
 3102TIP3    H2 9271   3.285   5.854   0.335 -0.5445 -0.8395 -0.3152
 3103TIP3   OH2 9272   1.413   2.559   5.757 -0.2832 -0.1991  0.3517
 3103TIP3    H1 9273   1.423   2.490   5.822  0.3083 -0.0068  0.4757
 3103TIP3    H2 9274   1.498   2.603   5.755 -1.0249  1.3850  1.2638
 3104TIP3   OH2 9275   2.619   3.459   3.868  0.0778  0.0731 -0.4738
 3104TIP3    H1 9276   2.689   3.397   3.887 -1.3518 -1.7917 -1.0277
 3104TIP3    H2 9277   2.620   3.469   3.773 -2.6450 -2.9167 -0.9838
 3105TIP3   OH2 9278   0.793   6.318   0.035  0.0020  0.3373 -0.6562
 3105TIP3    H1 9279   0.709   6.358   0.011 -0.0006  0.0787 -1.0766
 3105TIP3    H2 9280   0.858   6.385   0.012 -0.1383  0.9055  0.4937
 3106TIP3   OH2 9281   2.550   4.885   5.395  0.0622  0.3047 -0.0060
 3106TIP3    H1 9282   2.533   4.930   5.477 -3.7153  0.2189 -0.5620
 3106TIP3    H2 9283   2.556   4.955   5.330 -0.4785  0.2267 -0.1402
 3107TIP3   OH2 9284   4.582   1.150   5.761 -0.2069 -0.3673  0.3645
 3107TIP3    H1 9285   4.603   1.213   5.693  0.6431  1.1717  1.9735
 3107TIP3    H2 9286   4.501   1.183   5.801  0.5374  0.0462  1.5721
 3108TIP3   OH2 9287   5.438   5.708   0.289 -0.1311  0.3118 -0.4734
 3108TIP3    H1 9288   5.433   5.616   0.315  0.0063  0.3718 -0.2268
 3108TIP3    H2 9289   5.522   5.716   0.244  0.3621  0.5459  0.4602
 3109TIP3   OH2 9290   0.625   3.551   2.282  0.5622  0.2939 -0.2867
 3109TIP3    H1 9291   0.697   3.511   2.233  1.3715  1.3219  0.0310
 3109TIP3    H2 9292   0.554   3.487   2.276  1.8134 -1.2114  0.2532
 3110TIP3   OH2 9293   6.375   4.873   5.794 -0.4550  0.1182 -0.1850
 3110TIP3    H1 9294   6.281   4.881   5.812 -0.4806  0.7243 -0.5639
 3110TIP3    H2 9295   6.417   4.908   5.872 -0.5640  1.8564 -0.8548
 3111TIP3   OH2 9296   3.219   5.052   5.331  0.4748 -0.0790 -0.1385
 3111TIP3    H1 9297   3.288   5.031   5.394  0.8679 -1.3517 -0.9626
 3111TIP3    H2 9298   3.158   5.106   5.381  0.9856 -0.6835  1.2153
 3112TIP3   OH2 9299   5.319   5.659   4.991  0.2200 -1.2431  0.0104
 3112TIP3    H1 9300   5.381   5.707   5.046  1.5705 -1.5959 -1.1719
 3112TIP3    H2 9301   5.246   5.720   4.978  0.0975 -0.9607  1.7210
 3113TIP3   OH2 9302   6.429   5.319   5.147 -0.0639 -0.2603 -0.2060
 3113TIP3    H1 9303   6.489   5.260   5.101  0.1165 -1.7746  1.8180
 3113TIP3    H2 9304   6.359   5.261   5.180 -0.0212  0.6573  1.6292
 3114TIP3   OH2 9305   4.728   3.074   5.602 -0.4490 -0.0434 -0.4963
 3114TIP3    H1 9306   4.664   3.131   5.559  0.0581  1.2832  0.4378
 3114TIP3    H2 9307   4.809   3.125   5.602  0.2330 -1.1120 -0.3611
 3115TIP3   OH2 9308   6.611   1.871   4.360 -0.4168 -0.1244  0.6976
 3115TIP3    H1 9309   6.539   1.925   4.392 -0.2437 -0.6042  1.9882
 3115TIP3    H2 9310   6.585   1.782   4.383  0.4056 -0.3391  0.8243
 3116TIP3   OH2 9311   3.270   4.386   0.977  0.6774 -0.4668 -0.3692
 3116TIP3    H1 9312   3.193   4.332   0.996  1.7104 -1.6213  0.6841
 3116TIP3    H2 9313   3.270   4.453   1.044  0.0473  0.1598 -0.9777
 3117TIP3   OH2 9314   0.038   3.019   1.024 -0.6319 -0.0861  0.0336
 3117TIP3    H1 9315   0.075   3.008   0.937 -1.8522 -0.4061 -0.4777
 3117TIP3    H2 9316   0.012   2.930   1.050 -0.4803  0.0402  0.6170
 3118TIP3   OH2 9317   6.635   2.849   4.746  0.1917 -0.1754  0.2661
 3118TIP3    H1 9318   6.674   2.847   4.833 -0.4803  0.5241  0.5990
 3118TIP3    H2 9319   6.544   2.875   4.761 -0.4287 -1.7728 -0.4832
 3119TIP3   OH2 9320   4.214   0.511   4.093  0.0102 -0.6735  0.1781
 3119TIP3    H1 9321   4.224   0.499   4.188 -2.0571  1.4587  0.7983
 3119TIP3    H2 9322   4.119   0.520   4.081  0.3549  1.2957 -1.7302
 3120TIP3   OH2 9323   1.937   3.525   2.759  0.5414  0.3404 -0.3544
 3120TIP3    H1 9324   1.989   3.464   2.708  0.6511  0.6659 -0.6381
 3120TIP3    H2 9325   1.996   3.599   2.775  0.7852 -0.1114  0.9592
 3121TIP3   OH2 9326   1.738   2.428   5.580 -0.3180  0.3098 -0.0862
 3121TIP3    H1 9327   1.748   2.503   5.639  0.0986 -0.3061  0.6460
 3121TIP3    H2 9328   1.679   2.459   5.512  0.4855  1.5691 -0.2534
 3122TIP3   OH2 9329   3.744   0.236   3.441  0.0514  0.0496 -0.7629
 3122TIP3    H1 9330   3.787   0.232   3.527 -0.2219  0.5702 -0.5983
 3122TIP3    H2 9331   3.784   0.311   3.398 -1.7896  1.5393  0.0120
 3123TIP3   OH2 9332   1.922   5.960   0.749 -0.0873  0.4451  0.9343
 3123TIP3    H1 9333   1.898   5.931   0.661  0.9443  1.2569  0.3805
 3123TIP3    H2 9334   1.838   5.964   0.796 -0.4892 -1.5073  0.4772
 3124TIP3   OH2 9335   5.428   4.958   3.251 -0.1562  0.5794  0.0776
 3124TIP3    H1 9336   5.409   5.049   3.272 -1.5844  0.1674  0.6687
 3124TIP3    H2 9337   5.446   4.917   3.336 -2.7999 -0.3912  0.2536
 3125TIP3   OH2 9338   6.383   6.749   3.267 -0.3022  0.3641  0.7076
 3125TIP3    H1 9339   6.424   6.698   3.337 -0.6195  0.0879  0.6897
 3125TIP3    H2 9340   6.366   6.685   3.198 -0.6476  0.5059  0.6636
 3126TIP3   OH2 9341   5.440   4.669   4.940  0.1469  0.0528 -0.1867
 3126TIP3    H1 9342   5.495   4.679   4.862  0.9626 -1.2433  0.1828
 3126TIP3    H2 9343   5.487   4.718   5.008 -0.5336  1.1316 -0.4558
 3127TIP3   OH2 9344   2.354   1.062   5.258  0.7283 -0.2413 -0.0701
 3127TIP3    H1 9345   2.263   1.046   5.284  0.8392 -0.2861  0.3051
 3127TIP3    H2 9346   2.351   1.071   5.163  0.4023 -0.7438 -0.1124
 3128TIP3   OH2 9347   6.347   4.324   3.455 -0.2184  0.1376 -0.7285
 3128TIP3    H1 9348   6.411   4.275   3.404  0.3236  1.7848 -1.7307
 3128TIP3    H2 9349   6.369   4.306   3.547  1.2179  0.0813 -1.0646
 3129TIP3   OH2 9350   3.528   4.219   4.800  0.2383 -0.3171  0.3854
 3129TIP3    H1 9351   3.489   4.199   4.885  0.2440 -0.7710  0.2830
 3129TIP3    H2 9352   3.619   4.193   4.809  0.1597 -0.6868  0.1314
 3130TIP3   OH2 9353   0.890   0.273   0.823 -0.2422  0.3722  0.1019
 3130TIP3    H1 9354   0.796   0.266   0.804 -0.3263 -0.1090  0.6738
 3130TIP3    H2 9355   0.895   0.283   0.918  0.2082  2.2144 -0.0699
 3131TIP3   OH2 9356   0.233   6.113   4.441  0.0692 -0.1309 -0.3374
 3131TIP3    H1 9357   0.238   6.017   4.434  0.7816 -0.0972 -0.4003
 3131TIP3    H2 9358   0.159   6.137   4.386  0.5777 -0.5624 -1.2375
 3132TIP3   OH2 9359   3.183   2.404   5.593  0.4547 -0.0269 -0.4006
 3132TIP3    H1 9360   3.224   2.479   5.551 -1.5966  1.4444  0.0699
 3132TIP3    H2 9361   3.183   2.426   5.687 -0.3818 -0.4867 -0.2790
 3133TIP3   OH2 9362   0.275   6.775   0.609  0.4126 -0.8171  0.0074
 3133TIP3    H1 9363   0.368   6.752   0.603  0.8976  0.0451  2.5930
 3133TIP3    H2 9364   0.273   6.869   0.591  0.2839 -0.5706  1.1961
 3134TIP3   OH2 9365   4.947   3.210   4.273  0.7158 -0.3035  0.2074
 3134TIP3    H1 9366   5.042   3.195   4.275  0.6424 -0.7353  0.4980
 3134TIP3    H2 9367   4.933   3.283   4.334  0.6076 -1.6918  1.9092
 3135TIP3   OH2 9368   4.432   2.845   4.394  0.0550  0.4803  0.0864
 3135TIP3    H1 9369   4.401   2.881   4.311 -1.9464 -0.1248  0.4975
 3135TIP3    H2 9370   4.527   2.852   4.390 -0.0032  0.6959 -2.1372
 3136TIP3   OH2 9371   4.128   3.610   3.944 -0.3738 -0.1529 -0.0745
 3136TIP3    H1 9372   4.156   3.573   3.860 -1.5708 -1.5352  0.0977
 3136TIP3    H2 9373   4.033   3.593   3.948 -0.5447  0.8901  1.0660
 3137TIP3   OH2 9374   1.699   5.408   5.553  0.3837 -0.2470  0.1557
 3137TIP3    H1 9375   1.736   5.412   5.641  1.2901 -1.0860 -0.1663
 3137TIP3    H2 9376   1.614   5.451   5.560  0.3497 -0.5055  1.4881
 3138TIP3   OH2 9377   6.586   6.667   2.257 -0.2952  0.1289 -0.4918
 3138TIP3    H1 9378   6.501   6.705   2.234 -0.1010  0.8451 -0.0577
 3138TIP3    H2 9379   6.613   6.715   2.335  1.1667  0.8934 -1.4419
 3139TIP3   OH2 9380   5.544   5.528   4.840 -0.6519  0.0482 -0.4135
 3139TIP3    H1 9381   5.470   5.563   4.889  0.3681  1.3650  0.2642
 3139TIP3    H2 9382   5.532   5.561   4.751 -1.7141 -1.0963 -0.7185
 3140TIP3   OH2 9383   0.430   6.115   3.570  0.1622  0.1241  0.0899
 3140TIP3    H1 9384   0.356   6.059   3.595  0.7534  0.1802  2.1823
 3140TIP3    H2 9385   0.427   6.187   3.633  1.1960  0.8576 -0.6684
 3141TIP3   OH2 9386   5.529   3.885   0.405 -0.2466 -0.4261  0.4066
 3141TIP3    H1 9387   5.466   3.818   0.379  1.0089 -0.5965 -2.6117
 3141TIP3    H2 9388   5.476   3.954   0.446 -2.1900 -1.1766 -0.7199
 3142TIP3   OH2 9389   3.573   1.658   2.615 -0.7773 -0.5371  0.6434
 3142TIP3    H1 9390   3.493   1.632   2.662  0.1281 -2.3834  1.2735
 3142TIP3    H2 9391   3.611   1.575   2.586 -0.5731  0.4710 -2.2160
 3143TIP3   OH2 9392   3.651   4.427   5.063 -0.1380  0.1985 -0.6111
 3143TIP3    H1 9393   3.663   4.386   5.149  0.4877  1.6327  0.0158
 3143TIP3    H2 9394   3.727   4.398   5.012  0.0969  0.2485 -0.2976
 3144TIP3   OH2 9395   2.758   4.961   2.765 -0.6826 -0.1039  0.2885
 3144TIP3    H1 9396   2.747   5.055   2.779  1.3919  0.3595 -0.8497
 3144TIP3    H2 9397   2.849   4.944   2.789 -0.5852 -1.5314 -0.9438
 3145TIP3   OH2 9398   6.787   0.429   4.201 -0.0873  0.0487  0.3096
 3145TIP3    H1 9399   6.831   0.356   4.158  0.7463 -0.4210  1.8664
 3145TIP3    H2 9400   6.835   0.506   4.173 -0.2410 -0.1144 -0.4314
 3146TIP3   OH2 9401   0.375   4.723   0.554 -0.1590 -0.0087  0.2702
 3146TIP3    H1 9402   0.373   4.716   0.458  0.2152 -0.8059  0.3123
 3146TIP3    H2 9403   0.369   4.633   0.585  0.1711  0.2089  0.9886
 3147TIP3   OH2 9404   4.925   1.689   0.112  0.0064 -0.2439  0.4749
 3147TIP3    H1 9405   4.910   1.644   0.029  0.2739  2.3366 -1.0964
 3147TIP3    H2 9406   4.999   1.746   0.094 -1.4185  2.1369  1.7022
 3148TIP3   OH2 9407   2.955   5.947   2.891 -0.1353  0.1688 -0.3012
 3148TIP3    H1 9408   2.901   5.883   2.845  1.1151  0.6535 -2.6184
 3148TIP3    H2 9409   2.904   6.028   2.886  0.7805  0.6721 -2.6568
 3149TIP3   OH2 9410   0.306   0.812   3.356 -0.1252  0.2124 -0.3445
 3149TIP3    H1 9411   0.305   0.824   3.261 -0.8453  1.4739 -0.1994
 3149TIP3    H2 9412   0.290   0.899   3.392 -2.0599 -0.5809  0.8950
 3150TIP3   OH2 9413   5.375   1.339   5.491  0.3927 -0.4978 -0.4772
 3150TIP3    H1 9414   5.313   1.361   5.422  1.4281  1.2296 -0.9084
 3150TIP3    H2 9415   5.446   1.294   5.444  1.3538  1.1570 -0.6817
 3151TIP3   OH2 9416   1.118   0.547   3.233  0.3450  0.1233  0.6168
 3151TIP3    H1 9417   1.131   0.542   3.328  2.2003  2.1215  0.5380
 3151TIP3    H2 9418   1.046   0.486   3.216  1.2280 -1.7493  3.0159
 3152TIP3   OH2 9419   5.472   3.564   0.280  0.1394  0.5553 -0.2471
 3152TIP3    H1 9420   5.480   3.519   0.364 -0.0998  1.6274  0.3667
 3152TIP3    H2 9421   5.378   3.562   0.260 -0.0085  1.5917  0.2628
 3153TIP3   OH2 9422   5.241   1.492   3.222 -0.2182  0.1188  0.4964
 3153TIP3    H1 9423   5.159   1.443   3.210  0.7552 -1.2821 -0.8098
 3153TIP3    H2 9424   5.226   1.545   3.300 -1.5714 -1.8089  1.6378
 3154TIP3   OH2 9425   3.521   6.139   1.007 -0.0342 -0.0604  0.8128
 3154TIP3    H1 9426   3.543   6.131   1.100 -1.2024 -1.1295  1.0104
 3154TIP3    H2 9427   3.429   6.115   1.002  0.3291 -1.2130 -0.8071
 3155TIP3   OH2 9428   4.997   2.909   4.250  0.0301  0.2000 -0.3966
 3155TIP3    H1 9429   5.071   2.968   4.269 -0.0824  0.3597 -0.4495
 3155TIP3    H2 9430   4.958   2.893   4.336  1.0711 -1.1635 -0.1390
 3156TIP3   OH2 9431   7.020   3.782   3.320  0.5364 -0.1604  0.5077
 3156TIP3    H1 9432   7.008   3.870   3.357 -1.7681  0.2581 -1.0321
 3156TIP3    H2 9433   7.020   3.796   3.225 -0.5342 -1.8924  0.2236
 3157TIP3   OH2 9434   6.101   4.259   0.749 -0.1338 -0.5399 -0.2385
 3157TIP3    H1 9435   6.196   4.265   0.741 -0.1775  0.5553 -0.1102
 3157TIP3    H2 9436   6.084   4.166   0.760  0.9044 -0.7769 -0.4729
 3158TIP3   OH2 9437   2.498   3.765   4.862  0.1182  0.4635 -0.3138
 3158TIP3    H1 9438   2.505   3.855   4.895  2.6358 -0.3184  1.6092
 3158TIP3    H2 9439   2.548   3.766   4.780 -0.4042  0.9268 -0.6370
 3159TIP3   OH2 9440   6.920   0.609   3.982 -0.4510  0.0569 -0.0502
 3159TIP3    H1 9441   6.930   0.689   4.034 -0.3320  0.5423 -0.8171
 3159TIP3    H2 9442   6.927   0.638   3.891  0.6190 -0.9677 -0.3106
 3160TIP3   OH2 9443   6.012   3.648   3.502  0.6498 -0.4280 -0.1078
 3160TIP3    H1 9444   6.043   3.662   3.412 -1.5066 -1.9243 -1.1803
 3160TIP3    H2 9445   5.936   3.705   3.510  0.9582 -0.1466  0.8539
 3161TIP3   OH2 9446   5.373   0.465   0.117 -0.1152  0.3449 -0.0651
 3161TIP3    H1 9447   5.320   0.531   0.162 -1.1496  0.3611 -1.2739
 3161TIP3    H2 9448   5.404   0.408   0.188 -1.3384  0.6270  0.7287
 3162TIP3   OH2 9449   4.087   1.855   5.773 -0.0253 -0.5968 -0.1106
 3162TIP3    H1 9450   4.070   1.870   5.680  0.2607 -0.5217 -0.1508
 3162TIP3    H2 9451   4.168   1.902   5.791 -0.0385 -0.6739  0.1600
 3163TIP3   OH2 9452   2.756   6.310   4.978 -0.1033  0.2440  0.0031
 3163TIP3    H1 9453   2.704   6.280   4.904  0.4128  0.2645 -0.3705
 3163TIP3    H2 9454   2.694   6.313   5.051  0.1710 -3.6984  0.6229
 3164TIP3   OH2 9455   6.858   3.478   5.354  0.2325 -0.3677 -0.4953
 3164TIP3    H1 9456   6.842   3.403   5.296 -0.2453  1.3082 -2.6598
 3164TIP3    H2 9457   6.771   3.511   5.376  0.4024 -1.1420  1.4815
 3165TIP3   OH2 9458   5.397   5.087   3.804  0.8908 -0.5504 -0.4732
 3165TIP3    H1 9459   5.370   5.015   3.861 -0.2325  0.9233  0.9743
 3165TIP3    H2 9460   5.461   5.135   3.856 -0.4913  1.0908 -0.1982
 3166TIP3   OH2 9461   4.503   5.070   4.778 -0.2192  0.4085  0.2767
 3166TIP3    H1 9462   4.425   5.098   4.826 -0.7787  1.4188 -1.1714
 3166TIP3    H2 9463   4.575   5.114   4.823 -0.5804  0.2643  1.0177
 3167TIP3   OH2 9464   5.357   4.898   1.614  0.2053 -0.4363  0.1740
 3167TIP3    H1 9465   5.337   4.949   1.692  1.4075 -1.5442  1.2594
 3167TIP3    H2 9466   5.359   4.962   1.543 -1.5026  0.5139  0.9082
 3168TIP3   OH2 9467   6.500   5.364   0.507 -0.1789 -0.2349 -0.8734
 3168TIP3    H1 9468   6.480   5.452   0.475  0.0996  0.1898  0.0791
 3168TIP3    H2 9469   6.569   5.332   0.450  0.3456  0.5220 -0.6773
 3169TIP3   OH2 9470   3.199   5.570   0.640  0.0893 -0.3284 -0.2933
 3169TIP3    H1 9471   3.125   5.535   0.690  0.3280 -1.4095 -0.6729
 3169TIP3    H2 9472   3.274   5.516   0.667  0.6462  0.4556 -0.2573
 3170TIP3   OH2 9473   3.346   5.790   3.418  0.2317  0.5891 -0.1878
 3170TIP3    H1 9474   3.374   5.881   3.427 -1.3214  1.2050 -1.2959
 3170TIP3    H2 9475   3.256   5.795   3.385 -1.0155 -1.3035  2.5655
 3171TIP3   OH2 9476   6.488   2.338   1.682 -0.1443 -0.1297  0.1952
 3171TIP3    H1 9477   6.402   2.299   1.668  0.6369 -2.2254  0.8307
 3171TIP3    H2 9478   6.476   2.395   1.758 -0.9856 -0.3114  0.2142
 3172TIP3   OH2 9479   5.548   6.339   4.891 -0.0791  0.4777 -0.0382
 3172TIP3    H1 9480   5.469   6.390   4.872 -0.2059 -0.2893 -1.7764
 3172TIP3    H2 9481   5.545   6.323   4.985 -1.2994  1.5735  0.1374
 3173TIP3   OH2 9482   3.569   5.679   4.891  0.8299  0.3120 -0.1357
 3173TIP3    H1 9483   3.530   5.607   4.840 -0.9641  0.4656  0.9655
 3173TIP3    H2 9484   3.633   5.636   4.948  0.7086 -0.2342 -0.4056
 3174TIP3   OH2 9485   6.154   0.419   4.475  0.4602  0.1910  0.1169
 3174TIP3    H1 9486   6.118   0.350   4.419 -0.8879  0.9938 -0.0415
 3174TIP3    H2 9487   6.247   0.421   4.454  0.9460 -2.8105  1.4283
 3175TIP3   OH2 9488   6.092   4.732   1.839 -0.3011 -0.1369 -0.0361
 3175TIP3    H1 9489   6.058   4.706   1.925 -0.0253 -1.4868 -0.3156
 3175TIP3    H2 9490   6.014   4.745   1.785 -0.4284 -1.4618 -0.1829
 3176TIP3   OH2 9491   1.719   3.712   5.001 -0.0048 -0.4004  0.1686
 3176TIP3    H1 9492   1.739   3.654   4.927  0.3808 -2.5031  1.8059
 3176TIP3    H2 9493   1.651   3.771   4.967  2.0894  0.6051 -2.6494
 3177TIP3   OH2 9494   5.916   1.341   4.753 -0.3115  0.0699  0.1320
 3177TIP3    H1 9495   5.975   1.368   4.823 -0.3957 -0.7507  0.5331
 3177TIP3    H2 9496   5.975   1.319   4.680 -0.2525  1.4157 -0.2365
 3178TIP3   OH2 9497   2.114   3.053   2.108  0.2920 -0.4216  0.4402
 3178TIP3    H1 9498   2.150   3.056   2.019  0.0358  1.0905  0.3457
 3178TIP3    H2 9499   2.190   3.053   2.165  0.4586 -1.3732  0.2339
 3179TIP3   OH2 9500   3.796   2.742   3.044 -0.1858 -0.5265  0.1008
 3179TIP3    H1 9501   3.822   2.828   3.011 -0.6912 -0.2886  0.3178
 3179TIP3    H2 9502   3.811   2.747   3.138  1.1668 -1.1734 -0.0473
 3180TIP3   OH2 9503   4.047   2.272   5.781 -0.0682 -0.3121  0.2011
 3180TIP3    H1 9504   4.062   2.228   5.697  1.5864  0.2084  0.1895
 3180TIP3    H2 9505   4.129   2.316   5.800 -1.2229  1.6680  0.8896
 3181TIP3   OH2 9506   5.503   6.147   3.535  0.3025 -0.3565  0.4203
 3181TIP3    H1 9507   5.528   6.064   3.576  2.3711 -0.0919 -0.1912
 3181TIP3    H2 9508   5.547   6.214   3.587  1.5014  0.1005 -1.1079
 3182TIP3   OH2 9509   3.209   5.489   5.547 -0.0458  0.1959 -0.0073
 3182TIP3    H1 9510   3.235   5.495   5.639  0.2283 -0.0846 -0.0667
 3182TIP3    H2 9511   3.137   5.426   5.546  1.3322 -1.4479 -0.2601
 3183TIP3   OH2 9512   4.315   6.036   3.056 -0.1555 -0.0288 -0.4418
 3183TIP3    H1 9513   4.398   6.032   3.010 -0.3737 -2.1365 -0.7648
 3183TIP3    H2 9514   4.260   6.093   3.002  0.6659  0.2963 -0.9443
 3184TIP3   OH2 9515   3.129   2.353   0.396  0.1092 -0.4827 -1.0266
 3184TIP3    H1 9516   3.176   2.335   0.478 -1.0758 -0.2283 -0.2671
 3184TIP3    H2 9517   3.120   2.268   0.354  0.1499 -0.7101 -0.5752
 3185TIP3   OH2 9518   3.626   2.058   4.011  0.6873 -0.5418 -0.2391
 3185TIP3    H1 9519   3.578   2.001   3.951  0.7608 -0.5571 -0.2836
 3185TIP3    H2 9520   3.630   2.009   4.093  1.0483 -0.7490 -0.3763
 3186TIP3   OH2 9521   0.041   0.770   5.563  0.2065  0.1593  0.2728
 3186TIP3    H1 9522   0.006   0.836   5.623  0.1660  0.1670  0.2409
 3186TIP3    H2 9523   0.085   0.820   5.495  1.0077  0.1312  0.7496
 3187TIP3   OH2 9524   1.525   3.124   4.096  0.3783 -0.1396  0.3593
 3187TIP3    H1 9525   1.579   3.051   4.127 -2.4916 -2.3611  0.6074
 3187TIP3    H2 9526   1.498   3.098   4.008  0.2808  1.2662 -0.0486
 3188TIP3   OH2 9527   1.636   5.091   2.420  0.2804 -0.4139  0.5010
 3188TIP3    H1 9528   1.702   5.155   2.447 -0.0419  0.5112 -0.8060
 3188TIP3    H2 9529   1.676   5.045   2.346  0.6799 -2.0585  1.6981
 3189TIP3   OH2 9530   2.942   2.449   1.275 -0.0088  0.6374 -0.4699
 3189TIP3    H1 9531   2.998   2.518   1.238 -0.1318 -0.7034 -3.4651
 3189TIP3    H2 9532   2.857   2.462   1.233 -0.6248 -0.1243  0.5103
 3190TIP3   OH2 9533   2.565   6.223   3.052  0.1876  0.0901 -0.1440
 3190TIP3    H1 9534   2.554   6.297   3.112  0.7815  0.3937 -0.3967
 3190TIP3    H2 9535   2.507   6.155   3.087 -3.1218  1.7923 -1.8511
 3191TIP3   OH2 9536   2.871   3.794   4.580 -0.5319  0.0607  0.2362
 3191TIP3    H1 9537   2.788   3.831   4.609 -0.5590  1.1049 -1.0781
 3191TIP3    H2 9538   2.853   3.760   4.492  0.4441  0.3833 -0.1064
 3192TIP3   OH2 9539   6.991   4.987   4.688  0.1377  0.0762 -0.3148
 3192TIP3    H1 9540   6.929   4.949   4.750  0.2761 -0.6362 -0.6144
 3192TIP3    H2 9541   7.021   4.914   4.635  3.1833 -0.1009  1.4363
 3193TIP3   OH2 9542   0.872   5.105   5.710 -0.3393  0.5367 -0.3668
 3193TIP3    H1 9543   0.855   5.147   5.626 -3.2928 -1.8621 -1.1655
 3193TIP3    H2 9544   0.961   5.071   5.701  0.0737  1.8416 -1.7888
 3194TIP3   OH2 9545   6.872   1.066   5.729  0.2196 -0.4869 -0.3248
 3194TIP3    H1 9546   6.868   1.000   5.660  1.4636 -0.1053 -0.7930
 3194TIP3    H2 9547   6.798   1.124   5.712  0.4051 -0.5046 -1.2457
 3195TIP3   OH2 9548   7.040   5.826   0.194 -0.1343  0.3821 -0.2847
 3195TIP3    H1 9549   7.112   5.767   0.215 -0.2494 -0.7383 -2.7443
 3195TIP3    H2 9550   7.081   5.912   0.184  0.6424  0.0030 -0.3991
 3196TIP3   OH2 9551   4.297   0.405   3.635  0.1280 -0.2062 -0.0829
 3196TIP3    H1 9552   4.210   0.418   3.672  0.3266  0.2774  0.2268
 3196TIP3    H2 9553   4.349   0.371   3.708  0.5782  0.9688  0.1638
 3197TIP3   OH2 9554   0.707   6.260   4.157  0.0604 -0.1524 -0.1277
 3197TIP3    H1 9555   0.754   6.209   4.091  2.5223  0.8953  0.7005
 3197TIP3    H2 9556   0.631   6.206   4.179  0.1887 -1.3954 -2.3991
 3198TIP3   OH2 9557   5.799   3.167   2.081 -0.3953 -0.1063  0.2355
 3198TIP3    H1 9558   5.771   3.140   1.994 -2.1929 -0.5777  0.9220
 3198TIP3    H2 9559   5.868   3.104   2.105 -0.0840 -0.1377 -0.7246
 3199TIP3   OH2 9560   4.824   2.605   3.679 -0.0245  0.2547  0.3109
 3199TIP3    H1 9561   4.915   2.576   3.675 -0.2251 -0.6490  1.8423
 3199TIP3    H2 9562   4.796   2.606   3.587  0.6519 -2.3691 -0.0098
 3200TIP3   OH2 9563   6.082   2.279   4.527  0.3689 -0.3453 -0.3493
 3200TIP3    H1 9564   6.139   2.341   4.573  0.7710  0.7360 -2.2156
 3200TIP3    H2 9565   6.018   2.334   4.482 -0.1735 -1.3708 -0.8579
 3201TIP3   OH2 9566   6.076   6.324   1.241 -0.1416 -0.1307 -0.1092
 3201TIP3    H1 9567   6.012   6.254   1.253  0.0113 -0.3075 -0.3234
 3201TIP3    H2 9568   6.135   6.291   1.173 -0.0154  0.1671 -0.1440
 3202TIP3   OH2 9569   7.098   2.627   2.266  0.2501  0.1388 -0.1665
 3202TIP3    H1 9570   7.144   2.698   2.312  0.2260 -0.9250  1.5741
 3202TIP3    H2 9571   7.120   2.548   2.315 -2.0898 -0.6487 -0.2409
 3203TIP3   OH2 9572   6.626   4.302   1.691 -0.2423 -0.6337 -0.5742
 3203TIP3    H1 9573   6.577   4.259   1.621 -0.5751 -0.2448 -0.5847
 3203TIP3    H2 9574   6.604   4.253   1.770 -2.7306  1.0772 -0.1034
 3204TIP3   OH2 9575   6.271   3.746   3.136  0.5303 -0.1287 -0.4172
 3204TIP3    H1 9576   6.240   3.735   3.046  0.9005 -0.6624 -0.4771
 3204TIP3    H2 9577   6.361   3.713   3.136  0.6006  0.0439  0.1046
 3205TIP3   OH2 9578   3.536   0.669   4.051 -0.3421 -0.1470 -0.2122
 3205TIP3    H1 9579   3.475   0.726   4.098 -2.8400 -1.1600 -2.0370
 3205TIP3    H2 9580   3.518   0.582   4.086  1.0720 -0.2934  0.1883
 3206TIP3   OH2 9581   3.791   6.188   5.720 -0.2187  0.4143 -0.5673
 3206TIP3    H1 9582   3.783   6.192   5.624 -1.0062  1.7704 -0.4670
 3206TIP3    H2 9583   3.702   6.193   5.752  0.1429  2.7931  0.2760
 3207TIP3   OH2 9584   5.484   1.530   1.279  0.1438 -0.5563 -0.2608
 3207TIP3    H1 9585   5.554   1.475   1.245  2.5132  1.3161  1.2417
 3207TIP3    H2 9586   5.513   1.553   1.368 -0.8984  2.6328 -0.6232
 3208TIP3   OH2 9587   3.654   5.634   3.795  0.6273  0.3014  0.0300
 3208TIP3    H1 9588   3.641   5.546   3.831  3.0174  0.1952  0.8519
 3208TIP3    H2 9589   3.646   5.623   3.700 -0.4916 -0.4903  0.1940
 3209TIP3   OH2 9590   6.292   5.990   2.955  0.1880 -0.3780 -0.0304
 3209TIP3    H1 9591   6.219   6.007   2.895 -0.2402 -0.2932  0.4975
 3209TIP3    H2 9592   6.343   5.922   2.912 -1.8786 -2.6655  0.9191
 3210TIP3   OH2 9593   5.118   2.201   0.233 -0.2559 -0.3767  0.3897
 3210TIP3    H1 9594   5.023   2.203   0.239 -0.3438 -1.5611 -0.2738
 3210TIP3    H2 9595   5.139   2.250   0.154 -0.2147  0.8236  1.1117
 3211TIP3   OH2 9596   4.210   6.774   1.581 -0.5880  0.1957 -0.2888
 3211TIP3    H1 9597   4.273   6.743   1.517  1.2215 -0.5344  1.7401
 3211TIP3    H2 9598   4.247   6.856   1.614 -1.2068  0.2662  0.2508
 3212TIP3   OH2 9599   4.055   5.884   3.646  0.2305 -0.4990  0.0004
 3212TIP3    H1 9600   3.971   5.842   3.660  0.9091 -1.5659  1.0688
 3212TIP3    H2 9601   4.111   5.850   3.716  1.0280  1.6458  0.4742
 3213TIP3   OH2 9602   4.034   4.811   0.035  0.3713 -0.2307  0.3733
 3213TIP3    H1 9603   3.989   4.731   0.007 -1.3913  0.9116 -0.2296
 3213TIP3    H2 9604   4.089   4.835  -0.040  0.1131 -0.3232  0.1542
 3214TIP3   OH2 9605   5.896   5.031   2.036  0.3379 -0.5779 -0.4371
 3214TIP3    H1 9606   5.857   4.980   2.107  0.7829 -1.9337 -1.1205
 3214TIP3    H2 9607   5.824   5.046   1.975 -0.1744  1.0764  0.5386
 3215TIP3   OH2 9608   4.780   3.620   0.541 -0.0710  0.4505 -0.0570
 3215TIP3    H1 9609   4.687   3.609   0.556 -0.0333 -0.9739 -0.6744
 3215TIP3    H2 9610   4.799   3.565   0.464  1.4400 -0.0955  0.6452
 3216TIP3   OH2 9611   2.617   1.375   4.239  0.3666 -0.3660  0.3160
 3216TIP3    H1 9612   2.661   1.320   4.304  0.9076  0.5514  0.7590
 3216TIP3    H2 9613   2.679   1.379   4.165  0.5964  0.1044  0.5256
 3217TIP3   OH2 9614   0.346   5.170   1.737  0.3065 -0.2092 -0.1029
 3217TIP3    H1 9615   0.301   5.240   1.688  1.4163  1.9050  1.7096
 3217TIP3    H2 9616   0.439   5.187   1.723  0.6143 -1.6513  0.0177
 3218TIP3   OH2 9617   2.343   1.585   1.605  0.4546  0.4770 -0.1298
 3218TIP3    H1 9618   2.329   1.550   1.518 -0.7206 -0.7821  0.5272
 3218TIP3    H2 9619   2.333   1.680   1.595 -1.6615  0.2116 -1.0324
 3219TIP3   OH2 9620   5.365   0.078   4.686  0.5225  0.3429  0.9705
 3219TIP3    H1 9621   5.342   0.019   4.614  0.3947  0.3986  0.9667
 3219TIP3    H2 9622   5.312   0.156   4.672  1.1924  0.7429  0.5806
 3220TIP3   OH2 9623   1.765   1.183   3.513  0.2333 -0.2949  0.6858
 3220TIP3    H1 9624   1.808   1.267   3.529  1.7402 -1.1234  1.2915
 3220TIP3    H2 9625   1.790   1.159   3.424 -0.4296  0.0279  0.4124
 3221TIP3   OH2 9626   4.743   4.791   3.048 -0.6041  0.0748 -1.0416
 3221TIP3    H1 9627   4.666   4.841   3.073 -0.1521  0.0156  0.5854
 3221TIP3    H2 9628   4.716   4.699   3.055 -0.7631  0.0671 -1.7518
 3222TIP3   OH2 9629   5.887   3.242   0.138  0.1825 -0.3039 -0.9707
 3222TIP3    H1 9630   5.862   3.280   0.054 -0.2311 -1.0231 -1.1731
 3222TIP3    H2 9631   5.854   3.152   0.135 -0.2930 -0.1853  0.1593
 3223TIP3   OH2 9632   1.733   2.096   0.998  0.3373 -0.0042 -0.0449
 3223TIP3    H1 9633   1.650   2.124   1.036  0.9392 -1.3635  2.4276
 3223TIP3    H2 9634   1.800   2.132   1.056  1.5409  0.9197 -1.8900
 3224TIP3   OH2 9635   5.666   0.448   3.595  0.7694  0.0857 -0.3826
 3224TIP3    H1 9636   5.703   0.459   3.507  1.7878  0.7222  0.0975
 3224TIP3    H2 9637   5.743   0.438   3.651  0.1294 -0.2547  0.4440
 3225TIP3   OH2 9638   7.006   3.810   4.950  0.0578  0.7541  0.5517
 3225TIP3    H1 9639   7.048   3.891   4.979  1.3948  0.9552 -1.7109
 3225TIP3    H2 9640   6.955   3.835   4.874 -2.6842  0.1074  2.0322
 3226TIP3   OH2 9641   6.497   1.570   5.141 -0.1087  0.2951 -0.3072
 3226TIP3    H1 9642   6.581   1.616   5.138 -1.0586  2.1480 -0.1083
 3226TIP3    H2 9643   6.451   1.610   5.215 -1.2004 -0.6481 -0.4494
 3227TIP3   OH2 9644   6.763   5.594   2.589  0.1606 -0.0333 -0.1868
 3227TIP3    H1 9645   6.682   5.625   2.546  1.0297  2.2528 -0.3407
 3227TIP3    H2 9646   6.833   5.634   2.538  1.4069 -1.6160  0.2215
 3228TIP3   OH2 9647   3.526   4.599   2.363 -0.4569  0.2279 -0.3583
 3228TIP3    H1 9648   3.441   4.577   2.402 -1.1381  2.0690 -0.7330
 3228TIP3    H2 9649   3.558   4.672   2.415  0.1364  0.6036 -1.2380
 3229TIP3   OH2 9650   6.412   3.558   1.796  0.1627  0.9657 -0.0590
 3229TIP3    H1 9651   6.418   3.534   1.704 -0.2317 -1.4187  0.4722
 3229TIP3    H2 9652   6.376   3.647   1.796 -2.3962  0.0406 -2.1859
 3230TIP3   OH2 9653   6.265   4.103   4.070 -0.1517 -0.2400 -0.4979
 3230TIP3    H1 9654   6.217   4.119   3.989  0.8225  1.0570 -0.8626
 3230TIP3    H2 9655   6.252   4.010   4.088 -1.5524 -0.2455 -1.3665
 3231TIP3   OH2 9656   0.733   4.276   4.420  0.1093  0.0502  0.7067
 3231TIP3    H1 9657   0.725   4.371   4.415  0.3854  0.0764  0.7054
 3231TIP3    H2 9658   0.657   4.247   4.469  0.7670  0.4049  1.9797
 3232TIP3   OH2 9659   1.842   1.480   5.729 -0.9639 -0.1672 -0.0974
 3232TIP3    H1 9660   1.796   1.557   5.697  0.0320  0.1003 -0.9534
 3232TIP3    H2 9661   1.933   1.493   5.701 -0.7466 -1.5740 -0.1359
 3233TIP3   OH2 9662   0.721   0.846   0.967 -0.1630 -0.1762  0.0909
 3233TIP3    H1 9663   0.693   0.762   1.002 -0.1665 -0.2281 -0.0342
 3233TIP3    H2 9664   0.751   0.825   0.878  0.7899 -0.2203  0.4139
 3234TIP3   OH2 9665   6.924   2.266   1.604  0.0577  0.7556  0.3836
 3234TIP3    H1 9666   7.000   2.234   1.653 -0.9066 -1.9926  0.2940
 3234TIP3    H2 9667   6.951   2.260   1.512  0.1640  1.0437  0.3951
 3235TIP3   OH2 9668   6.672   1.977   4.062  0.1886 -0.8114  0.6210
 3235TIP3    H1 9669   6.639   2.055   4.106  0.5560  0.3668 -1.0530
 3235TIP3    H2 9670   6.736   1.940   4.123  3.3554  2.7273 -0.1226
 3236TIP3   OH2 9671   3.989   4.539   2.355 -0.4063  0.2586 -0.0763
 3236TIP3    H1 9672   3.920   4.548   2.421  1.1944  2.0733  1.4623
 3236TIP3    H2 9673   3.988   4.623   2.308  0.6041  0.2299 -0.1680
 3237TIP3   OH2 9674   5.244   1.204   1.299 -0.1999 -1.0985 -0.1807
 3237TIP3    H1 9675   5.328   1.159   1.291  0.1377 -0.5746  0.3135
 3237TIP3    H2 9676   5.231   1.215   1.393 -0.8178 -1.1574 -0.2532
 3238TIP3   OH2 9677   5.791   0.038   0.556 -0.5312 -0.2774  0.2439
 3238TIP3    H1 9678   5.701   0.059   0.531 -0.2522 -1.5882 -2.1868
 3238TIP3    H2 9679   5.815  -0.035   0.499  2.1770  0.2537  0.5757
 3239TIP3   OH2 9680   5.413   4.372   4.932  0.2902  0.4988  0.2174
 3239TIP3    H1 9681   5.452   4.458   4.946  0.3241  0.5997 -0.4729
 3239TIP3    H2 9682   5.397   4.368   4.838  1.5872 -0.8072  0.0265
 3240TIP3   OH2 9683   3.218   6.597   0.046  0.3652  0.3426  0.3132
 3240TIP3    H1 9684   3.291   6.648   0.078  1.4459 -1.3319  0.6591
 3240TIP3    H2 9685   3.203   6.531   0.114 -1.5959  0.7599  0.3355
 3241TIP3   OH2 9686   0.130   3.093   2.175 -0.0857  0.5147  0.2563
 3241TIP3    H1 9687   0.062   3.108   2.110  0.4844  0.2985 -0.4019
 3241TIP3    H2 9688   0.102   3.015   2.222 -0.2888  0.4142 -0.0279
 3242TIP3   OH2 9689   2.902   3.315   5.709  0.0440 -0.3551 -0.0851
 3242TIP3    H1 9690   2.819   3.314   5.757  1.0310  0.3310  1.7315
 3242TIP3    H2 9691   2.879   3.352   5.623 -1.7924 -1.7190 -0.2529
 3243TIP3   OH2 9692   4.562   5.855   1.934 -0.4160 -0.3387 -0.0192
 3243TIP3    H1 9693   4.594   5.945   1.938  0.9068 -0.6075 -2.6870
 3243TIP3    H2 9694   4.469   5.862   1.956 -0.3679  1.6904 -0.2745
 3244TIP3   OH2 9695   6.333   3.984   4.630 -0.1605  0.2265 -0.0178
 3244TIP3    H1 9696   6.345   3.898   4.589  0.4424 -0.1584  0.9335
 3244TIP3    H2 9697   6.283   3.965   4.710  0.5068  0.6711  0.5085
 3245TIP3   OH2 9698   3.589   0.048   4.168 -0.0960  0.0443 -0.1427
 3245TIP3    H1 9699   3.541   0.040   4.251  0.7139 -0.0101  0.3272
 3245TIP3    H2 9700   3.680   0.063   4.194  0.2257 -0.3195 -1.0289
 3246TIP3   OH2 9701   1.577   1.374   3.015 -0.2739 -0.0272  0.2142
 3246TIP3    H1 9702   1.502   1.410   2.969  0.0407 -0.0602 -0.3328
 3246TIP3    H2 9703   1.603   1.298   2.964 -0.9435 -1.0691  1.3692
 3247TIP3   OH2 9704   4.197   1.593   3.304  0.2503  0.2526  0.6737
 3247TIP3    H1 9705   4.276   1.601   3.357 -0.4057  1.2235  1.5473
 3247TIP3    H2 9706   4.128   1.630   3.359 -0.8099 -0.5584 -0.0799
 3248TIP3   OH2 9707   0.183   0.069   4.276 -0.9661  0.4775  0.3116
 3248TIP3    H1 9708   0.145   0.085   4.189  0.7120  0.6404 -0.4260
 3248TIP3    H2 9709   0.214  -0.022   4.272  0.2418  0.8734  0.2730
 3249TIP3   OH2 9710   4.927   5.840   1.784  0.4648  0.2707  0.5993
 3249TIP3    H1 9711   5.016   5.805   1.788  0.3635 -0.1305 -0.4732
 3249TIP3    H2 9712   4.933   5.925   1.827  1.1151 -0.2471  1.5584
 3250TIP3   OH2 9713   6.891   0.832   0.706  0.0308 -0.5198 -0.1007
 3250TIP3    H1 9714   6.910   0.786   0.788  1.6854  1.3423  0.6431
 3250TIP3    H2 9715   6.957   0.800   0.644 -0.1134 -0.6430 -0.1913
 3251TIP3   OH2 9716   0.631   3.596   2.596  0.1583 -0.4446 -0.7150
 3251TIP3    H1 9717   0.676   3.513   2.580  0.3173 -0.6699  0.7426
 3251TIP3    H2 9718   0.681   3.660   2.547  0.8394 -1.0197 -0.7939
 3252TIP3   OH2 9719   4.290   2.912   4.734  0.1273  0.3316  0.1677
 3252TIP3    H1 9720   4.310   2.820   4.716  1.4893  0.5997  0.1987
 3252TIP3    H2 9721   4.241   2.942   4.657  0.1915 -0.2643 -0.1078
 3253TIP3   OH2 9722   5.155   3.252   1.529  0.4767  0.3651 -0.3136
 3253TIP3    H1 9723   5.226   3.236   1.590 -0.9817 -0.3582  1.2756
 3253TIP3    H2 9724   5.084   3.287   1.582 -0.1788  1.6583 -1.9449
 3254TIP3   OH2 9725   4.333   2.528   0.955  0.1203 -0.1019  0.2425
 3254TIP3    H1 9726   4.390   2.488   0.889  1.2156  1.3749  0.2534
 3254TIP3    H2 9727   4.253   2.550   0.907  1.1695  1.6069 -0.8314
 3255TIP3   OH2 9728   2.322   5.293   5.237  0.1624  0.0886 -0.0277
 3255TIP3    H1 9729   2.299   5.308   5.145 -1.5090 -1.2796  0.1001
 3255TIP3    H2 9730   2.268   5.217   5.262  0.5430  0.4741  2.0932
 3256TIP3   OH2 9731   1.382   0.234   2.940  0.1379 -0.3483 -0.0904
 3256TIP3    H1 9732   1.338   0.253   2.857 -0.3188 -1.0940 -0.0275
 3256TIP3    H2 9733   1.370   0.140   2.952 -0.7622 -0.0712  1.3634
 3257TIP3   OH2 9734   5.175   5.945   1.500  0.3026  0.3832 -0.3973
 3257TIP3    H1 9735   5.128   5.861   1.508  1.2298 -0.2225 -1.0425
 3257TIP3    H2 9736   5.267   5.922   1.515  0.7471  1.0245 -1.9452
 3258TIP3   OH2 9737   1.243   0.532   1.253  0.1731 -0.2345  0.0985
 3258TIP3    H1 9738   1.179   0.556   1.185  0.2876  0.0438  0.0870
 3258TIP3    H2 9739   1.324   0.518   1.205  0.0846 -0.7472  0.0943
 3259TIP3   OH2 9740   5.831   3.601   1.680 -0.1553  0.1479  0.4149
 3259TIP3    H1 9741   5.830   3.647   1.596  1.9924 -1.6051 -0.6809
 3259TIP3    H2 9742   5.918   3.616   1.715  0.6891 -2.9524 -0.0166
 3260TIP3   OH2 9743   4.876   2.040   3.610 -0.2521  0.0184 -0.2083
 3260TIP3    H1 9744   4.781   2.048   3.618 -0.2643 -0.1793 -0.1414
 3260TIP3    H2 9745   4.905   2.018   3.699 -0.0295  1.1440  0.0148
 3261TIP3   OH2 9746   1.853   2.738   1.990  0.0172  0.6810  0.2636
 3261TIP3    H1 9747   1.927   2.745   1.930  0.4817  1.3023  0.8898
 3261TIP3    H2 9748   1.874   2.662   2.046 -0.3191  0.2268 -0.2153
 3262TIP3   OH2 9749   6.677   3.329   3.285 -0.7355 -0.9430  0.0554
 3262TIP3    H1 9750   6.705   3.251   3.334 -0.7455  0.1741  1.9695
 3262TIP3    H2 9751   6.638   3.385   3.352  0.3916  1.2312 -1.0062
 3263TIP3   OH2 9752   0.784   1.115   1.676 -0.0459 -0.2499  0.3694
 3263TIP3    H1 9753   0.852   1.181   1.687  0.8562 -0.6516 -2.1450
 3263TIP3    H2 9754   0.702   1.165   1.673  0.4702  0.6014  0.0177
 3264TIP3   OH2 9755   6.095   5.560   0.927 -0.0857  0.3755 -0.1200
 3264TIP3    H1 9756   6.101   5.627   0.859  1.0225  1.6676  1.1818
 3264TIP3    H2 9757   6.176   5.509   0.918 -0.5564 -0.3063 -0.5952
 3265TIP3   OH2 9758   6.029   3.742   1.038 -0.1936  0.5273 -0.3422
 3265TIP3    H1 9759   6.009   3.806   1.107  0.4377 -0.1815  0.5261
 3265TIP3    H2 9760   5.944   3.709   1.011 -0.5656  2.0246 -1.1044
 3266TIP3   OH2 9761   5.221   3.410   0.234 -0.9923  0.0986 -0.1915
 3266TIP3    H1 9762   5.245   3.367   0.151 -1.0028  1.8845 -1.1616
 3266TIP3    H2 9763   5.127   3.424   0.228 -0.9400  0.5328 -0.0273
 3267TIP3   OH2 9764   6.813   0.420   4.490 -0.5513  0.0917  0.2356
 3267TIP3    H1 9765   6.848   0.332   4.479  1.9434  1.3266 -3.7982
 3267TIP3    H2 9766   6.771   0.440   4.406 -0.5124  2.9177  0.7780
 3268TIP3   OH2 9767   6.531   5.430   5.367 -0.5486 -0.2221  0.4335
 3268TIP3    H1 9768   6.450   5.475   5.390  0.3302  1.1119  1.0065
 3268TIP3    H2 9769   6.510   5.383   5.286 -1.3171  1.7985 -0.6093
 3269TIP3   OH2 9770   5.650   4.681   5.460  0.3269  0.2836 -0.8059
 3269TIP3    H1 9771   5.582   4.661   5.395 -0.2730  1.0441 -0.4341
 3269TIP3    H2 9772   5.695   4.758   5.425  1.2427 -0.4144 -1.2140
 3270TIP3   OH2 9773   6.302   0.952   5.137  0.4316 -0.1752  0.0170
 3270TIP3    H1 9774   6.333   0.993   5.218  2.2645  0.6454 -1.0245
 3270TIP3    H2 9775   6.282   0.862   5.162  0.1213  0.2847  1.5466
 3271TIP3   OH2 9776   5.118   1.045   4.440 -0.3482  0.2407 -0.4220
 3271TIP3    H1 9777   5.052   0.979   4.461 -0.5882  0.1199 -1.4787
 3271TIP3    H2 9778   5.201   1.007   4.471 -0.6176 -0.1365 -0.1564
 3272TIP3   OH2 9779   5.542   4.178   4.151  0.4848  0.0748  0.5388
 3272TIP3    H1 9780   5.490   4.102   4.128  0.3134 -0.0599  1.3316
 3272TIP3    H2 9781   5.478   4.244   4.179  0.6844  0.1848  0.7446
 3273TIP3   OH2 9782   3.314   4.092   2.877  1.2378 -0.1661 -0.6692
 3273TIP3    H1 9783   3.348   4.081   2.965  0.3967  0.5952 -0.2385
 3273TIP3    H2 9784   3.298   4.002   2.846  0.1643 -0.4057  0.5044
 3274TIP3   OH2 9785   4.178   5.291   4.164 -0.2192  0.1843  0.3718
 3274TIP3    H1 9786   4.225   5.293   4.248 -0.6068  0.6630  0.5819
 3274TIP3    H2 9787   4.090   5.263   4.187 -1.0360  2.5986  0.5021
 3275TIP3   OH2 9788   1.625   1.726   4.916  0.0840  0.1952  0.1183
 3275TIP3    H1 9789   1.673   1.757   4.992 -0.3409  2.1662 -0.3690
 3275TIP3    H2 9790   1.540   1.699   4.950 -0.1881  1.2839  0.3238
 3276TIP3   OH2 9791   6.504   0.505   2.352 -0.0243 -0.5336  0.1995
 3276TIP3    H1 9792   6.522   0.497   2.259 -1.5883 -1.2550 -0.0879
 3276TIP3    H2 9793   6.586   0.482   2.395  0.8830  0.3686 -0.9872
 3277TIP3   OH2 9794   6.917   3.193   0.486  0.3585  0.2975  0.3987
 3277TIP3    H1 9795   6.957   3.110   0.512  0.8287  0.4967  0.3142
 3277TIP3    H2 9796   6.893   3.180   0.394  1.2935  0.5755  0.1061
 3278TIP3   OH2 9797   3.249   3.363   3.766  0.2968 -0.0564 -0.0382
 3278TIP3    H1 9798   3.180   3.329   3.822  0.4025 -0.6685 -0.2783
 3278TIP3    H2 9799   3.256   3.301   3.694 -0.1411  0.9546 -0.9845
 3279TIP3   OH2 9800   1.602   6.462   4.667  0.1747  0.0894 -0.4219
 3279TIP3    H1 9801   1.675   6.411   4.702 -0.5455 -1.0782 -0.5799
 3279TIP3    H2 9802   1.589   6.428   4.578 -0.1726  0.7185 -0.6193
 3280TIP3   OH2 9803   4.243   4.065   0.197 -0.1564  0.6873  0.4725
 3280TIP3    H1 9804   4.154   4.034   0.177  0.8189 -1.6589 -0.5974
 3280TIP3    H2 9805   4.259   4.034   0.286  0.3368 -0.9088 -0.1296
 3281TIP3   OH2 9806   4.213   4.440   4.048  0.4103  0.2547 -0.3910
 3281TIP3    H1 9807   4.149   4.370   4.065  0.8428  0.2150  1.2651
 3281TIP3    H2 9808   4.211   4.494   4.127  0.1615  2.0819 -1.6138
 3282TIP3   OH2 9809   3.092   6.414   2.757  0.4564 -0.3453  0.4944
 3282TIP3    H1 9810   3.104   6.508   2.747 -0.3999 -0.2956 -0.2176
 3282TIP3    H2 9811   3.040   6.404   2.837  1.3258 -0.2874  1.0842
 3283TIP3   OH2 9812   1.884   4.353   0.906  0.1954  0.2883  0.0587
 3283TIP3    H1 9813   1.822   4.356   0.980  0.4652  2.2853  0.2648
 3283TIP3    H2 9814   1.834   4.386   0.832  0.8626  1.6150  0.1560
 3284TIP3   OH2 9815   5.831   1.905   1.670  0.2336  0.1127  0.8404
 3284TIP3    H1 9816   5.828   1.832   1.608 -0.8362  0.4738  0.4512
 3284TIP3    H2 9817   5.757   1.890   1.729  1.2994 -0.2870  2.1274
 3285TIP3   OH2 9818   2.924   5.341   2.117  0.2738 -0.3483  0.1481
 3285TIP3    H1 9819   2.968   5.405   2.061  0.1163 -1.2423 -1.0296
 3285TIP3    H2 9820   2.920   5.261   2.065  2.0009 -1.8955  2.1675
 3286TIP3   OH2 9821   4.827   5.318   1.799 -0.4337  0.5751  0.0892
 3286TIP3    H1 9822   4.835   5.263   1.721  0.7607  2.9520 -1.6170
 3286TIP3    H2 9823   4.754   5.281   1.848 -0.5503 -1.6420 -1.6055
 3287TIP3   OH2 9824   2.485   5.826   5.563 -0.5713 -0.3695 -0.0475
 3287TIP3    H1 9825   2.491   5.771   5.485  1.4654 -0.1859 -0.0785
 3287TIP3    H2 9826   2.569   5.872   5.567 -1.3056  0.9593  1.2919
 3288TIP3   OH2 9827   7.070   2.090   0.891  0.1927 -0.1889 -0.0013
 3288TIP3    H1 9828   7.047   2.059   0.979 -2.3211  0.7668 -0.2491
 3288TIP3    H2 9829   7.042   2.019   0.833 -0.4479  0.2010 -0.1800
 3289TIP3   OH2 9830   0.411   5.861   2.702 -0.4915  0.8382  0.3947
 3289TIP3    H1 9831   0.440   5.785   2.652 -3.0578 -0.5309  0.8487
 3289TIP3    H2 9832   0.489   5.916   2.708  1.5405 -1.8066  0.2080
 3290TIP3   OH2 9833   3.779   4.352   3.037 -0.0633 -0.2252 -0.2379
 3290TIP3    H1 9834   3.798   4.411   3.110 -1.7079 -0.1291  0.1526
 3290TIP3    H2 9835   3.700   4.388   2.997 -1.0374 -2.0390 -0.0803
 3291TIP3   OH2 9836   6.413   0.768   2.926  0.0649  0.6260 -0.5462
 3291TIP3    H1 9837   6.484   0.787   2.988 -2.3000  0.2134  2.5336
 3291TIP3    H2 9838   6.453   0.707   2.863  2.5835  0.8612  0.6767
 3292TIP3   OH2 9839   0.129   4.620   0.466 -0.3848  0.1714  0.1273
 3292TIP3    H1 9840   0.073   4.697   0.474  1.9998  2.1690 -0.9040
 3292TIP3    H2 9841   0.169   4.611   0.553 -0.0936  0.6260  0.0488
 3293TIP3   OH2 9842   2.350   5.250   0.023 -0.0272  0.2813 -0.1856
 3293TIP3    H1 9843   2.365   5.168  -0.024  1.2181  0.0033  0.6402
 3293TIP3    H2 9844   2.327   5.223   0.112 -3.5173  0.7598 -0.7807
 3294TIP3   OH2 9845   1.631   5.209   1.434  0.3991 -0.2231 -0.6307
 3294TIP3    H1 9846   1.611   5.179   1.345 -0.9153 -3.0342  0.5105
 3294TIP3    H2 9847   1.721   5.180   1.449  0.6646  0.3529 -1.0192
 3295TIP3   OH2 9848   4.399   0.670   3.980  0.0453 -0.1952 -0.6683
 3295TIP3    H1 9849   4.465   0.609   3.947 -0.4212 -0.6895 -0.6936
 3295TIP3    H2 9850   4.330   0.614   4.015  1.6916  0.1370  3.7934
 3296TIP3   OH2 9851   6.280   4.643   3.081 -0.1745 -0.0227 -0.2050
 3296TIP3    H1 9852   6.194   4.605   3.101  0.4213 -1.8046 -0.8587
 3296TIP3    H2 9853   6.339   4.568   3.078  0.9099  0.8525 -2.4860
 3297TIP3   OH2 9854   1.869   5.389   1.769 -0.1123 -0.1661  0.1962
 3297TIP3    H1 9855   1.959   5.404   1.741 -0.2209 -0.3153 -0.2371
 3297TIP3    H2 9856   1.825   5.473   1.755 -0.4234 -0.5187 -1.0886
 3298TIP3   OH2 9857   2.265   1.783   2.764 -0.6464 -0.2670  0.1872
 3298TIP3    H1 9858   2.230   1.866   2.730  2.2323  1.7383  1.6717
 3298TIP3    H2 9859   2.249   1.720   2.694 -1.2853  1.9796 -1.8420
 3299TIP3   OH2 9860   1.232   4.567   2.565  0.2800  0.3264 -0.3145
 3299TIP3    H1 9861   1.226   4.633   2.496  2.5032  0.5189 -0.4115
 3299TIP3    H2 9862   1.229   4.618   2.647  1.7954  0.5794 -0.3864
 3300TIP3   OH2 9863   6.494   5.042   5.155  0.2899 -0.0377 -0.1006
 3300TIP3    H1 9864   6.497   4.956   5.197  0.8555  0.1654  0.2803
 3300TIP3    H2 9865   6.572   5.088   5.186  0.7168  0.1330 -1.3618
 3301TIP3   OH2 9866   3.925   1.337   5.046  0.2595  0.1078 -0.2800
 3301TIP3    H1 9867   3.846   1.362   5.095  1.1688 -1.0008  1.8694
 3301TIP3    H2 9868   3.899   1.260   4.996 -0.3879  0.6184 -0.7629
 3302TIP3   OH2 9869   6.787   2.439   2.367 -0.9903 -0.5470 -0.0289
 3302TIP3    H1 9870   6.760   2.389   2.289 -1.8746 -0.3347  0.1388
 3302TIP3    H2 9871   6.767   2.381   2.440 -0.2060 -0.7241  0.0568
 3303TIP3   OH2 9872   4.081   0.367   4.646  0.0169 -0.1442 -0.1882
 3303TIP3    H1 9873   4.042   0.365   4.559  0.0470 -1.7714 -0.1928
 3303TIP3    H2 9874   4.057   0.283   4.685 -0.2075  0.6501  1.4801
 3304TIP3   OH2 9875   1.057   3.955   2.512 -0.3375 -0.0144 -0.2657
 3304TIP3    H1 9876   1.033   3.994   2.596  0.7665  0.6879 -0.2614
 3304TIP3    H2 9877   1.120   3.886   2.534 -1.5117 -1.1582 -0.3659
 3305TIP3   OH2 9878   3.654   0.811   5.024 -0.1009  0.3614 -0.4996
 3305TIP3    H1 9879   3.603   0.774   4.952  1.4145  0.4439 -1.6769
 3305TIP3    H2 9880   3.621   0.901   5.032 -1.5765 -0.2050  0.2165
 3306TIP3   OH2 9881   5.325   5.718   5.314 -0.0233 -0.3774  0.3918
 3306TIP3    H1 9882   5.397   5.731   5.253 -0.5725 -0.0866 -0.2032
 3306TIP3    H2 9883   5.333   5.627   5.342  0.5488 -0.3559  0.3086
 3307TIP3   OH2 9884   1.621   6.055   2.717  0.4481 -0.0120 -0.4463
 3307TIP3    H1 9885   1.694   6.116   2.714 -0.2475  0.8196 -0.7285
 3307TIP3    H2 9886   1.659   5.971   2.689  1.1544  0.5339 -1.1690
 3308TIP3   OH2 9887   2.070   6.451   1.681 -0.0969  0.2812 -0.3013
 3308TIP3    H1 9888   2.130   6.392   1.634  0.0242 -0.4555  0.7254
 3308TIP3    H2 9889   1.983   6.422   1.656 -0.0309 -0.0308 -0.1799
 3309TIP3   OH2 9890   4.644   5.422   0.263  0.4119  0.2131  0.6071
 3309TIP3    H1 9891   4.645   5.517   0.268 -0.4440  0.3201 -0.8057
 3309TIP3    H2 9892   4.561   5.396   0.302  1.7317 -0.1899  3.4082
 3310TIP3   OH2 9893   4.229   2.553   0.213  0.0665  0.5841  0.0752
 3310TIP3    H1 9894   4.141   2.563   0.249  0.7204 -0.9021  2.3041
 3310TIP3    H2 9895   4.216   2.504   0.131 -1.1264 -0.7198  0.9911
 3311TIP3   OH2 9896   1.860   4.965   5.514  0.2839  0.2000 -0.0424
 3311TIP3    H1 9897   1.898   4.955   5.601  0.7637 -0.5997 -0.3329
 3311TIP3    H2 9898   1.926   5.012   5.463 -0.4510  1.6778  0.3069
 3312TIP3   OH2 9899   3.773   0.329   1.319  0.1828 -0.6209 -0.0606
 3312TIP3    H1 9900   3.684   0.365   1.312 -0.2912 -1.2542  1.8839
 3312TIP3    H2 9901   3.780   0.267   1.247 -0.8908 -0.4271 -0.3511
 3313TIP3   OH2 9902   1.397   5.124   3.385 -0.0855  0.4234 -0.1218
 3313TIP3    H1 9903   1.343   5.173   3.446 -0.8091  0.4072 -0.7375
 3313TIP3    H2 9904   1.441   5.058   3.439 -0.1243  0.8998  0.4945
 3314TIP3   OH2 9905   3.697   1.268   1.966  0.2515  0.3713  0.0744
 3314TIP3    H1 9906   3.602   1.264   1.961  0.2050  1.2584  0.1393
 3314TIP3    H2 9907   3.716   1.331   2.035  0.8891 -0.0523  0.3010
 3315TIP3   OH2 9908   1.300   3.490   0.736 -0.4940  0.5478  0.3112
 3315TIP3    H1 9909   1.215   3.502   0.695 -0.3573 -0.9861 -0.5179
 3315TIP3    H2 9910   1.294   3.405   0.780  0.5738  0.4362  0.2803
 3316TIP3   OH2 9911   2.767   4.235   3.332 -0.4445  0.4897 -0.6385
 3316TIP3    H1 9912   2.739   4.291   3.259  0.6573 -1.0192 -2.3060
 3316TIP3    H2 9913   2.860   4.256   3.343  0.0278 -1.0791 -1.4040
 3317TIP3   OH2 9914   1.732   2.131   4.607  0.2576  0.0074 -0.3908
 3317TIP3    H1 9915   1.754   2.155   4.697  0.6301 -0.0544 -0.4670
 3317TIP3    H2 9916   1.788   2.186   4.553  0.1829 -0.1073 -0.5848
 3318TIP3   OH2 9917   5.220   0.783   4.857 -0.1405 -0.4481  0.3283
 3318TIP3    H1 9918   5.212   0.726   4.781  1.1626  1.5286 -1.4232
 3318TIP3    H2 9919   5.163   0.857   4.838  0.1551  0.0497  1.3100
 3319TIP3   OH2 9920   5.061   4.637   0.563 -0.2567 -0.0907  0.9100
 3319TIP3    H1 9921   5.110   4.614   0.642 -1.1454  1.0581  1.8229
 3319TIP3    H2 9922   5.089   4.725   0.542  0.6410 -0.7067 -0.6230
 3320TIP3   OH2 9923   0.575   3.877   1.280  0.1358 -0.3188  0.9788
 3320TIP3    H1 9924   0.657   3.925   1.272  1.0294 -1.7902  0.8386
 3320TIP3    H2 9925   0.600   3.785   1.266 -1.6479 -0.7262  0.1685
 3321TIP3   OH2 9926   5.828   4.701   3.722 -0.0865 -0.7041  0.3890
 3321TIP3    H1 9927   5.902   4.640   3.727  0.1513 -0.3824  0.8602
 3321TIP3    H2 9928   5.794   4.689   3.633  1.8481  0.6445 -0.6034
 3322TIP3   OH2 9929   1.802   1.767   5.808 -0.5580  0.4834 -0.1260
 3322TIP3    H1 9930   1.721   1.765   5.758 -0.1024  1.0262 -0.9140
 3322TIP3    H2 9931   1.820   1.860   5.822 -1.7512  0.3388  2.8877
 3323TIP3   OH2 9932   4.645   6.706   3.853  0.0306  0.7011 -1.0682
 3323TIP3    H1 9933   4.552   6.728   3.844  0.3607  2.3147 -0.8645
 3323TIP3    H2 9934   4.651   6.615   3.825 -2.4375 -1.1700  3.4208
 3324TIP3   OH2 9935   5.183   4.367   2.734 -1.4055  0.5865 -0.1300
 3324TIP3    H1 9936   5.146   4.326   2.812  0.0692 -1.7512 -0.5687
 3324TIP3    H2 9937   5.154   4.312   2.661 -0.1453  0.8695 -0.8766
 3325TIP3   OH2 9938   4.038   1.295   5.737 -0.0896 -0.3669  0.8475
 3325TIP3    H1 9939   3.988   1.293   5.819 -0.3082 -0.6324  0.7104
 3325TIP3    H2 9940   4.129   1.287   5.764  0.1692  2.8698  1.3191
 3326TIP3   OH2 9941   1.326   1.511   5.718  0.2426  0.2968 -0.3543
 3326TIP3    H1 9942   1.332   1.417   5.735 -0.7441  0.7036  2.9199
 3326TIP3    H2 9943   1.351   1.520   5.626 -1.8589 -3.3906 -1.4871
 3327TIP3   OH2 9944   1.992   5.881   1.236  0.2964  0.2194 -0.3904
 3327TIP3    H1 9945   1.977   5.967   1.198 -0.4739  0.0326 -0.5192
 3327TIP3    H2 9946   1.974   5.893   1.330 -1.2028 -0.1086 -0.6084
 3328TIP3   OH2 9947   0.079   2.823   5.137  0.2327 -0.0253  0.1787
 3328TIP3    H1 9948   0.133   2.772   5.198  0.6328  1.0842  0.8077
 3328TIP3    H2 9949   0.124   2.816   5.053  0.1433 -0.8891  0.1970
 3329TIP3   OH2 9950   1.444   4.916   4.569  0.1526  0.3988 -0.5059
 3329TIP3    H1 9951   1.469   4.836   4.524  1.0507  1.1650 -1.4253
 3329TIP3    H2 9952   1.407   4.972   4.501 -2.7184 -0.0654  0.5252
 3330TIP3   OH2 9953   6.097   1.809   1.119 -0.4906 -0.2930 -0.4396
 3330TIP3    H1 9954   6.176   1.799   1.172  0.0457 -0.0894 -1.1819
 3330TIP3    H2 9955   6.041   1.736   1.145 -0.0436 -0.4621  0.0620
 3331TIP3   OH2 9956   5.166   6.611   5.262 -0.5513 -0.0372 -0.1957
 3331TIP3    H1 9957   5.158   6.573   5.174  0.7750 -0.2580 -0.2342
 3331TIP3    H2 9958   5.164   6.537   5.321  1.2055 -0.1322 -0.2194
 3332TIP3   OH2 9959   0.817   2.702   3.096 -0.7286  0.5200 -0.1848
 3332TIP3    H1 9960   0.880   2.662   3.036 -3.2235 -2.6007 -0.9481
 3332TIP3    H2 9961   0.858   2.696   3.182  0.5419 -0.2564 -0.8176
 3333TIP3   OH2 9962   1.197   2.835   0.400  0.3670  0.4800 -0.5353
 3333TIP3    H1 9963   1.200   2.905   0.336 -0.5559  0.2730 -0.8164
 3333TIP3    H2 9964   1.103   2.817   0.413  0.5756 -0.4843 -0.2402
 3334TIP3   OH2 9965   5.697   1.379   1.254  0.5476  0.0261 -0.3261
 3334TIP3    H1 9966   5.668   1.353   1.166 -0.2457 -2.1364  0.5255
 3334TIP3    H2 9967   5.757   1.309   1.281 -0.4421 -0.1762  1.4610
 3335TIP3   OH2 9968   2.978   5.234   3.032 -0.7438 -0.1799 -0.0084
 3335TIP3    H1 9969   2.921   5.311   3.034 -0.3497  0.1307 -0.6024
 3335TIP3    H2 9970   3.029   5.243   2.951 -0.4841 -0.9127  0.0633
 3336TIP3   OH2 9971   2.181   0.789   3.930  0.0733  0.0630  0.0592
 3336TIP3    H1 9972   2.273   0.778   3.905  0.3429 -0.2791  1.1339
 3336TIP3    H2 9973   2.136   0.808   3.848  1.0467 -0.1233 -0.5392
 3337TIP3   OH2 9974   1.193   5.883   1.539 -0.1329 -0.0787 -0.0506
 3337TIP3    H1 9975   1.238   5.802   1.562 -0.1961 -0.2536 -0.5380
 3337TIP3    H2 9976   1.156   5.867   1.453 -0.4867  0.3323  0.0205
 3338TIP3   OH2 9977   6.302   5.552   2.769 -0.2411 -0.4427 -0.3301
 3338TIP3    H1 9978   6.317   5.532   2.861  1.1082 -0.4767 -0.5301
 3338TIP3    H2 9979   6.210   5.577   2.764 -0.1250  0.3969  1.1649
 3339TIP3   OH2 9980   4.840   4.153   1.471  0.0354  0.1166 -0.4111
 3339TIP3    H1 9981   4.757   4.118   1.503  0.1800 -0.7181 -0.9204
 3339TIP3    H2 9982   4.831   4.248   1.479 -0.4286 -0.0165  0.8579
 3340TIP3   OH2 9983   5.445   6.080   0.413  0.1438  0.1447 -0.1419
 3340TIP3    H1 9984   5.386   6.148   0.382  0.0990 -0.5428 -1.6680
 3340TIP3    H2 9985   5.390   6.021   0.464  0.1038  1.0030  0.8430
 3341TIP3   OH2 9986   2.509   6.580   2.448 -0.1669  0.1006 -0.4331
 3341TIP3    H1 9987   2.435   6.528   2.418 -0.8281  0.6659  0.1950
 3341TIP3    H2 9988   2.557   6.521   2.507 -0.9312  0.2070  0.3062
 3342TIP3   OH2 9989   5.257   2.096   3.197 -0.2728  0.5358 -0.0056
 3342TIP3    H1 9990   5.340   2.135   3.224  1.8222 -1.4715 -2.8398
 3342TIP3    H2 9991   5.240   2.028   3.261  0.2117  1.0384  0.6671
 3343TIP3   OH2 9992   2.313   5.776   5.816  0.2943 -0.5798 -0.4454
 3343TIP3    H1 9993   2.267   5.833   5.755 -0.2158 -0.2478  0.2422
 3343TIP3    H2 9994   2.380   5.732   5.762 -0.8152 -1.0826 -1.4537
 3344TIP3   OH2 9995   4.856   1.072   5.876  0.0380 -0.1425  0.4682
 3344TIP3    H1 9996   4.786   1.136   5.891  0.9073  0.6655  1.1619
 3344TIP3    H2 9997   4.874   1.079   5.782  0.1682  0.6884  0.5464
 3345TIP3   OH2 9998   4.971   1.885   5.691 -0.6493  0.5106  0.2397
 3345TIP3    H1 9999   5.015   1.853   5.770  1.2447  3.4641  0.5164
 3345TIP3    H210000   4.878   1.870   5.708 -0.2407  0.2211  2.6266
 3346TIP3   OH210001   6.508   3.300   5.541 -0.2365 -0.1644 -0.2017
 3346TIP3    H110002   6.584   3.272   5.490  0.4054  2.1580 -0.6344
 3346TIP3    H210003   6.440   3.313   5.475 -0.5934 -0.8439  0.0222
 3347TIP3   OH210004   7.005   3.670   5.547  0.3087  0.5366 -0.4519
 3347TIP3    H110005   7.007   3.765   5.557  3.1177  0.7449 -1.9309
 3347TIP3    H210006   7.007   3.656   5.452 -0.9053 -1.0261 -0.2849
 3348TIP3   OH210007   2.621   5.869   3.624 -0.0167 -0.1421  0.4867
 3348TIP3    H110008   2.547   5.884   3.682 -0.1626 -1.4686  0.6633
 3348TIP3    H210009   2.689   5.830   3.680  0.3905 -0.0249  0.0866
 3349TIP3   OH210010   1.174   3.709   4.856  0.3961  0.0401 -0.8186
 3349TIP3    H110011   1.144   3.747   4.938 -0.6671 -1.2655 -0.5663
 3349TIP3    H210012   1.105   3.648   4.831  1.2749 -0.4974 -2.0552
 3350TIP3   OH210013   2.062   3.322   2.634  0.0161  0.5669 -0.1901
 3350TIP3    H110014   2.115   3.243   2.646  1.1014  0.9830 -1.9178
 3350TIP3    H210015   2.110   3.374   2.571 -2.3118  1.1235 -1.6396
 3351TIP3   OH210016   6.016   3.551   2.272  1.0892 -0.2796  0.1079
 3351TIP3    H110017   6.110   3.565   2.284  0.9975  0.4315  0.0797
 3351TIP3    H210018   5.987   3.627   2.221 -0.2143  1.7334  3.5063
 3352TIP3   OH210019   5.216   2.016   3.804  0.1444 -0.2825 -0.1115
 3352TIP3    H110020   5.217   2.109   3.829 -0.1656 -0.1560 -0.5561
 3352TIP3    H210021   5.123   1.995   3.793  0.0834 -1.0887  1.5561
 3353TIP3   OH210022   0.860   2.548   2.101  0.0753 -0.2587 -0.5850
 3353TIP3    H110023   0.790   2.612   2.084 -0.7797 -1.1287 -0.4116
 3353TIP3    H210024   0.893   2.525   2.014 -0.9821 -1.0570 -0.7964
 3354TIP3   OH210025   5.789   0.972   4.980  0.3368  0.4912  0.3912
 3354TIP3    H110026   5.847   0.932   5.045 -0.2344 -1.5521 -0.2998
 3354TIP3    H210027   5.731   1.028   5.031  2.0656  1.6228  1.2379
 3355TIP3   OH210028   4.873   5.783   5.203  0.0686  0.1904  0.5555
 3355TIP3    H110029   4.841   5.692   5.205 -1.3536  0.6456  0.0578
 3355TIP3    H210030   4.805   5.833   5.247  1.0407  0.9785  1.1923
 3356TIP3   OH210031   0.803   4.046   5.017 -0.3998  0.2075  0.4357
 3356TIP3    H110032   0.880   4.045   4.960  1.1845 -0.6629  2.4673
 3356TIP3    H210033   0.834   4.085   5.098 -2.7929  2.1553  0.5374
 3357TIP3   OH210034   0.504   2.363   2.642  0.9395 -0.1891 -0.2131
 3357TIP3    H110035   0.502   2.365   2.546 -1.5556  0.8562 -0.2018
 3357TIP3    H210036   0.529   2.452   2.667  1.8029 -0.5158  0.1565
 3358TIP3   OH210037   5.945   1.271   2.003  0.3268 -0.0876 -0.4552
 3358TIP3    H110038   5.947   1.204   1.935  3.1053 -1.3231  0.7141
 3358TIP3    H210039   6.027   1.319   1.993 -0.6031  1.7458  0.1357
 3359TIP3   OH210040   3.032   5.834   4.968  0.1018 -0.3045  0.4404
 3359TIP3    H110041   3.050   5.838   5.062  1.9422  1.6883  0.0900
 3359TIP3    H210042   3.001   5.922   4.946 -0.0468 -0.6677 -0.8854
 3360TIP3   OH210043   2.322   4.358   5.449  0.0737  0.0433 -0.1487
 3360TIP3    H110044   2.416   4.344   5.439  0.2540  1.9888 -1.8086
 3360TIP3    H210045   2.287   4.348   5.361 -0.8397  2.0015 -0.0510
 3361TIP3   OH210046   2.309   4.085   1.546  0.2124  0.3818  0.2637
 3361TIP3    H110047   2.248   4.048   1.610  1.1927 -0.2576  0.8547
 3361TIP3    H210048   2.336   4.168   1.585 -0.4026  0.7519 -0.0833
 3362TIP3   OH210049   4.658   5.999   4.941  0.1426 -0.1669  0.4332
 3362TIP3    H110050   4.574   6.026   4.903 -0.4758 -0.4066  1.5842
 3362TIP3    H210051   4.662   5.905   4.927  1.1914  0.1116 -1.4369
 3363TIP3   OH210052   6.312   3.763   1.036  0.9378 -0.0066 -0.1969
 3363TIP3    H110053   6.342   3.681   0.995 -1.6302 -1.1575  0.0681
 3363TIP3    H210054   6.217   3.758   1.033  0.6627  1.5242  2.7313
 3364TIP3   OH210055   6.950   5.180   1.055 -0.2222 -0.3714  0.0356
 3364TIP3    H110056   6.982   5.120   1.122  0.9186 -1.4717 -1.4338
 3364TIP3    H210057   6.884   5.130   1.007  1.6661 -1.0698 -2.0506
 3365TIP3   OH210058   5.074   5.936   2.556  0.2880 -0.0171 -0.3190
 3365TIP3    H110059   5.098   5.951   2.465  1.4976  1.2537  0.1732
 3365TIP3    H210060   5.157   5.931   2.603 -0.2572 -2.1895  0.5299
 3366TIP3   OH210061   1.021   3.760   3.055  0.0046 -0.3507  0.3955
 3366TIP3    H110062   1.043   3.721   2.971 -0.2893  0.0024  0.1517
 3366TIP3    H210063   0.932   3.794   3.044 -0.3308 -0.9776  1.0877
 3367TIP3   OH210064   3.598   1.605   0.188 -0.1125  0.0815 -0.3096
 3367TIP3    H110065   3.507   1.576   0.190 -0.4154  0.9913  1.1054
 3367TIP3    H210066   3.635   1.574   0.271  0.9477 -0.4907 -0.9747
 3368TIP3   OH210067   3.132   3.316   4.164  0.0276  0.2386 -0.1590
 3368TIP3    H110068   3.093   3.327   4.250 -0.5640  0.9597 -0.5104
 3368TIP3    H210069   3.100   3.231   4.133 -1.3549  0.8365 -0.4668
 3369TIP3   OH210070   5.117   1.821   1.218  0.0211  0.0232 -0.2223
 3369TIP3    H110071   5.024   1.814   1.239  0.2132 -1.6870  0.2434
 3369TIP3    H210072   5.123   1.898   1.161 -1.6460  0.2659 -0.1308
 3370TIP3   OH210073   0.188   6.228   5.123  0.2712 -0.0409  0.6753
 3370TIP3    H110074   0.166   6.319   5.141  2.6011  0.3012  2.2359
 3370TIP3    H210075   0.282   6.230   5.101 -0.1267 -1.8040 -1.6249
 3371TIP3   OH210076   1.006   0.074   4.766  0.1264 -0.8028  0.2174
 3371TIP3    H110077   1.094   0.106   4.780  0.7151 -1.6620 -1.2139
 3371TIP3    H210078   1.018  -0.014   4.728 -1.2646 -0.2526 -1.6837
 3372TIP3   OH210079   5.524   5.422   5.534 -0.6838 -0.0065  0.1006
 3372TIP3    H110080   5.487   5.347   5.579 -0.2074 -0.8723 -0.9115
 3372TIP3    H210081   5.480   5.424   5.449 -0.3945  0.6173 -0.0437
 3373TIP3   OH210082   0.327   3.530   1.660 -0.0066 -0.0588 -0.1561
 3373TIP3    H110083   0.375   3.447   1.665 -0.0983 -0.0238  1.6873
 3373TIP3    H210084   0.372   3.579   1.590  2.0917 -0.3863  0.8946
 3374TIP3   OH210085   0.036   5.822   2.513  0.0212 -0.3701  0.0595
 3374TIP3    H110086   0.122   5.858   2.532  0.0561 -0.9427  1.0928
 3374TIP3    H210087   0.049   5.727   2.516 -0.4715 -0.4651 -0.6111
 3375TIP3   OH210088   1.604   6.687   0.535 -0.0035 -0.2428  0.0804
 3375TIP3    H110089   1.601   6.599   0.574 -3.5889  0.2933  1.3128
 3375TIP3    H210090   1.688   6.723   0.565  0.6873 -2.5339  1.1152
 3376TIP3   OH210091   2.088   0.808   0.676  0.2989  0.2764 -0.1034
 3376TIP3    H110092   2.108   0.820   0.769 -0.0111 -0.9091  0.1320
 3376TIP3    H210093   2.002   0.848   0.665  0.0082 -0.2211  0.2954
 3377TIP3   OH210094   6.283   6.545   2.626 -0.3881  0.3913 -0.0213
 3377TIP3    H110095   6.228   6.546   2.704  0.1833 -1.1323  0.4253
 3377TIP3    H210096   6.224   6.568   2.555 -1.5379 -0.8699  0.4953
 3378TIP3   OH210097   3.633   1.897   4.814  0.0255 -0.2942 -0.5699
 3378TIP3    H110098   3.543   1.920   4.794  0.1855  0.0471 -0.9040
 3378TIP3    H210099   3.661   1.961   4.880  0.3916  0.3352 -1.3203
 3379TIP3   OH210100   1.911   5.422   4.756  0.1531 -0.0185  0.5575
 3379TIP3    H110101   1.999   5.406   4.721  0.6269  0.9929  1.2363
 3379TIP3    H210102   1.915   5.511   4.791 -0.8611 -0.3231  1.4979
 3380TIP3   OH210103   1.857   3.873   2.764 -0.1233  0.5187  0.4133
 3380TIP3    H110104   1.938   3.833   2.733 -0.5329 -0.0787  0.0772
 3380TIP3    H210105   1.878   3.907   2.851  0.1074 -0.9060  0.9346
 3381TIP3   OH210106   3.797   6.621   4.104  0.0287  0.4208 -0.3581
 3381TIP3    H110107   3.836   6.671   4.176  1.2295  1.0964 -1.4466
 3381TIP3    H210108   3.705   6.612   4.129  0.6565 -0.5111  1.8892
 3382TIP3   OH210109   0.047   5.654   0.318 -0.0201  0.2795 -0.4084
 3382TIP3    H110110   0.140   5.639   0.332 -0.2554 -0.2009  0.7631
 3382TIP3    H210111   0.024   5.722   0.381 -0.7131 -0.4853  0.1823
 3383TIP3   OH210112   0.649   5.796   3.420  0.1542  0.1301 -0.2441
 3383TIP3    H110113   0.731   5.837   3.392 -0.9817  3.4383  0.7391
 3383TIP3    H210114   0.587   5.819   3.351 -0.8225  1.3516  0.9830
 3384TIP3   OH210115   7.189   6.759   2.295 -0.7627  1.0783  0.6540
 3384TIP3    H110116   7.237   6.832   2.332  0.1680  1.5246 -1.2912
 3384TIP3    H210117   7.097   6.782   2.307 -0.4855  2.1449  0.8541
 3385TIP3   OH210118   3.395   2.337   3.886  0.4358  0.0614  0.6985
 3385TIP3    H110119   3.358   2.310   3.802  1.6421  1.0054 -0.1786
 3385TIP3    H210120   3.334   2.403   3.920 -0.2564 -0.6031  0.7576
 3386TIP3   OH210121   3.102   2.796   5.647 -0.0596 -0.3628 -0.2606
 3386TIP3    H110122   3.153   2.838   5.716  2.1782 -1.3574 -1.1860
 3386TIP3    H210123   3.011   2.819   5.666  0.6957  1.3798  1.5929
 3387TIP3   OH210124   5.807   0.394   3.352  0.0713 -0.0312  0.0994
 3387TIP3    H110125   5.897   0.361   3.349  0.1257  0.1715 -0.9933
 3387TIP3    H210126   5.763   0.351   3.278 -0.7775 -0.2507  0.7193
 3388TIP3   OH210127   6.911   6.188   2.407  0.3034 -0.9887  0.1592
 3388TIP3    H110128   6.899   6.253   2.338  0.2189 -3.7805 -2.6747
 3388TIP3    H210129   6.822   6.169   2.437  0.3555  0.3774  1.2683
 3389TIP3   OH210130   4.248   1.910   1.605  0.0557 -0.2705  0.5838
 3389TIP3    H110131   4.320   1.851   1.582 -0.5833 -0.9680  0.3308
 3389TIP3    H210132   4.205   1.928   1.521 -0.8942 -0.9742  0.8989
 3390TIP3   OH210133   6.500   4.027   2.568  0.1348  0.3265  0.1027
 3390TIP3    H110134   6.462   3.974   2.497  0.0652 -0.2868  0.5956
 3390TIP3    H210135   6.554   4.092   2.522  1.8285 -1.3785 -0.4784
 3391TIP3   OH210136   2.549   4.530   1.631  0.0597  0.0521  0.1039
 3391TIP3    H110137   2.602   4.595   1.585  0.4235  0.6568  1.3502
 3391TIP3    H210138   2.530   4.569   1.716  0.2246 -1.4218  0.8585
 3392TIP3   OH210139   1.274   3.579   4.632  0.0599 -0.3226 -0.2007
 3392TIP3    H110140   1.278   3.675   4.635  0.3970 -0.3558  0.4872
 3392TIP3    H210141   1.191   3.557   4.674  0.6738 -0.3872  1.0294
 3393TIP3   OH210142   3.315   3.579   4.720 -0.6407  0.3221 -0.1969
 3393TIP3    H110143   3.282   3.491   4.703  1.1557 -0.5011  0.3712
 3393TIP3    H210144   3.259   3.612   4.791 -0.1204 -1.1408  0.9588
 3394TIP3   OH210145   5.412   5.561   1.369 -0.1344 -0.0522  0.1915
 3394TIP3    H110146   5.472   5.487   1.358  0.1369  0.1868  0.0631
 3394TIP3    H210147   5.458   5.636   1.331 -0.4390  0.1696  0.2533
 3395TIP3   OH210148   5.600   1.555   3.544 -0.0184  0.1465 -0.1992
 3395TIP3    H110149   5.577   1.646   3.525  1.3096  0.3510 -0.9459
 3395TIP3    H210150   5.519   1.516   3.577 -0.8916  1.3094 -0.9027
 3396TIP3   OH210151   6.316   3.835   0.474  0.3764 -0.1497 -0.0070
 3396TIP3    H110152   6.281   3.915   0.435 -0.6173 -1.7437 -2.6202
 3396TIP3    H210153   6.243   3.799   0.524  0.0088 -0.6380 -0.8708
 3397TIP3   OH210154   2.837   2.702   3.524  0.3175 -0.5242  0.2840
 3397TIP3    H110155   2.837   2.742   3.611 -0.3581  0.8267 -0.2851
 3397TIP3    H210156   2.843   2.777   3.464 -0.1796 -1.3476 -0.8354
 3398TIP3   OH210157   6.079   1.314   5.707 -0.1762 -0.1600 -0.1692
 3398TIP3    H110158   6.023   1.391   5.698  0.2978  0.1207 -0.8412
 3398TIP3    H210159   6.069   1.267   5.624  0.6613 -0.0491 -0.3380
 3399TIP3   OH210160   6.724   2.580   5.171  0.5122 -0.0200 -0.2015
 3399TIP3    H110161   6.765   2.591   5.257  0.6014  3.4474 -0.5620
 3399TIP3    H210162   6.798   2.577   5.110  0.4072  1.9245 -0.4760
 3400TIP3   OH210163   6.157   3.296   5.575  0.0194  0.3018 -0.0685
 3400TIP3    H110164   6.223   3.290   5.506 -0.3516 -1.0488 -0.3281
 3400TIP3    H210165   6.207   3.300   5.656  0.4346  0.1612 -0.3176
 3401TIP3   OH210166   7.164   3.023   5.753 -0.0045 -0.3917 -0.1268
 3401TIP3    H110167   7.225   2.968   5.704  1.0046  0.5125  0.0661
 3401TIP3    H210168   7.210   3.107   5.763 -1.0662  0.1422  0.4978
 3402TIP3   OH210169   3.699   0.982   3.388  0.0827  0.2538  0.3052
 3402TIP3    H110170   3.604   0.992   3.400 -0.0187  0.8302 -0.8020
 3402TIP3    H210171   3.719   1.037   3.312  1.1144 -0.7799 -0.2000
 3403TIP3   OH210172   0.826   0.247   2.526 -0.2438  0.1624  0.3885
 3403TIP3    H110173   0.903   0.209   2.484 -1.4467 -2.3078  0.2381
 3403TIP3    H210174   0.800   0.182   2.592 -1.0994  1.8340  1.7646
 3404TIP3   OH210175   6.634   5.009   2.946 -0.0524 -0.0627  0.2519
 3404TIP3    H110176   6.560   4.950   2.934  1.3406 -1.6309 -1.0318
 3404TIP3    H210177   6.669   4.986   3.032 -0.2649 -0.2156  0.3001
 3405TIP3   OH210178   4.218   0.787   1.310 -0.0563 -0.1570  0.0702
 3405TIP3    H110179   4.230   0.761   1.401 -0.0929  0.0448  0.1330
 3405TIP3    H210180   4.136   0.836   1.309  1.7369  3.1534  0.6709
 3406TIP3   OH210181   1.978   3.149   1.254 -0.3051  0.0176  0.4660
 3406TIP3    H110182   1.894   3.156   1.299  0.6062 -0.6561  2.4420
 3406TIP3    H210183   2.018   3.236   1.262  0.3799 -0.4115  2.1986
 3407TIP3   OH210184   0.936   5.151   4.685  0.5450 -0.0442  0.4480
 3407TIP3    H110185   0.844   5.135   4.666  0.8226 -1.0509 -0.0903
 3407TIP3    H210186   0.969   5.068   4.719  1.5168 -0.0276 -0.3944
 3408TIP3   OH210187   0.717   1.210   0.806  0.1528 -0.5603  0.3367
 3408TIP3    H110188   0.778   1.283   0.820 -1.8975  1.3006 -0.0556
 3408TIP3    H210189   0.688   1.187   0.894 -1.3366  1.0521  0.3065
 3409TIP3   OH210190   1.040   6.662   5.752  0.0839  0.1023  0.8797
 3409TIP3    H110191   1.050   6.571   5.725 -0.1852  0.4122 -0.3401
 3409TIP3    H210192   1.126   6.702   5.734 -0.3188  0.4848 -0.2689
 3410TIP3   OH210193   4.406   5.113   5.869 -0.1038 -0.1895 -0.1486
 3410TIP3    H110194   4.432   5.023   5.888  1.5768  0.1864 -0.5500
 3410TIP3    H210195   4.400   5.116   5.773  1.1055  0.4239 -0.2262
 3411TIP3   OH210196   2.516   0.743   5.826 -0.2703 -0.1247  0.1465
 3411TIP3    H110197   2.575   0.668   5.822 -0.9169 -0.6322 -0.0024
 3411TIP3    H210198   2.568   0.812   5.868 -0.4451 -1.3875  2.5918
 3412TIP3   OH210199   6.194   3.331   1.365  0.4723 -0.5124 -0.3899
 3412TIP3    H110200   6.163   3.384   1.292  0.4197  1.3562  0.9166
 3412TIP3    H210201   6.202   3.393   1.438  0.3352 -2.3303  1.2475
 3413TIP3   OH210202   6.947   5.008   1.657  0.4586  0.0382  0.0894
 3413TIP3    H110203   7.011   4.937   1.665  0.8214  0.1965 -1.1610
 3413TIP3    H210204   6.865   4.964   1.636  0.2156 -0.1391  1.3322
 3414TIP3   OH210205   3.806   5.839   3.857  0.5938  0.2985  0.6138
 3414TIP3    H110206   3.860   5.812   3.931  0.3051 -1.5815  0.1835
 3414TIP3    H210207   3.760   5.760   3.830 -1.6966  1.6118  0.3686
 3415TIP3   OH210208   4.989   2.242   0.904 -0.6047  0.0755  0.5137
 3415TIP3    H110209   4.977   2.165   0.847 -0.6930  0.8367 -0.5280
 3415TIP3    H210210   5.069   2.283   0.871 -0.5719  0.4399  1.0500
 3416TIP3   OH210211   4.966   0.136   5.357 -0.1363  0.1166  0.2368
 3416TIP3    H110212   5.013   0.216   5.382  0.1534  0.3190 -0.8935
 3416TIP3    H210213   4.915   0.162   5.281 -0.8930 -0.5067  0.5262
 3417TIP3   OH210214   2.317   5.451   3.791 -0.0005  0.1036  0.5714
 3417TIP3    H110215   2.314   5.397   3.869  0.9662  1.3916  1.5356
 3417TIP3    H210216   2.360   5.396   3.725  0.5313 -0.4813  1.3888
 3418TIP3   OH210217   2.324   6.293   1.709  0.3454 -0.8486 -0.4024
 3418TIP3    H110218   2.263   6.319   1.778  0.9877 -0.3913  0.0036
 3418TIP3    H210219   2.385   6.366   1.702 -0.8916  0.0576 -2.8911
 3419TIP3   OH210220   4.868   6.692   4.943 -0.8772 -0.2613 -0.2217
 3419TIP3    H110221   4.902   6.781   4.956 -1.3822  0.1633 -1.5693
 3419TIP3    H210222   4.946   6.640   4.922 -0.8783  0.5092 -2.3749
 3420TIP3   OH210223   5.911   2.100   2.365 -0.4675 -0.1363 -0.2153
 3420TIP3    H110224   5.967   2.157   2.417 -0.3961  0.7786 -1.2621
 3420TIP3    H210225   5.957   2.090   2.282 -0.5543 -1.6082 -0.1091
 3421TIP3   OH210226   4.593   1.849   4.663  0.3928  0.6251  0.0088
 3421TIP3    H110227   4.538   1.883   4.593 -1.4715 -1.3605  0.4092
 3421TIP3    H210228   4.593   1.918   4.730 -2.7696  0.2442  0.5659
 3422TIP3   OH210229   1.080   5.126   0.299 -0.6325  0.4467 -0.2833
 3422TIP3    H110230   1.056   5.086   0.383 -0.7008  0.0592 -0.4845
 3422TIP3    H210231   1.151   5.187   0.320 -0.3049 -0.0237 -0.0275
 3423TIP3   OH210232   6.030   3.709   3.244  0.1021 -0.2923 -0.2198
 3423TIP3    H110233   5.973   3.769   3.196  0.2800  0.5735  0.6097
 3423TIP3    H210234   6.118   3.729   3.211  0.1221 -0.3426 -0.1955
 3424TIP3   OH210235   4.109   5.068   1.102 -0.1109 -0.2350 -0.4799
 3424TIP3    H110236   4.084   5.011   1.029 -1.5611 -0.1850 -0.0570
 3424TIP3    H210237   4.119   5.154   1.062 -0.2353 -0.3348 -0.7314
 3425TIP3   OH210238   5.766   3.318   0.646  0.7632 -0.3722  0.0860
 3425TIP3    H110239   5.844   3.282   0.688  0.9172  0.5462  0.6285
 3425TIP3    H210240   5.700   3.248   0.653 -0.0476  0.5439  4.2777
 3426TIP3   OH210241   6.328   3.337   5.340 -0.0647  0.3166 -0.2034
 3426TIP3    H110242   6.288   3.259   5.303 -1.0886 -0.5303  2.4236
 3426TIP3    H210243   6.299   3.409   5.283 -0.4418 -1.0016 -1.7275
 3427TIP3   OH210244   2.274   2.750   3.918  0.0816  0.8762  0.0259
 3427TIP3    H110245   2.218   2.681   3.882  0.6226  0.5049 -0.1194
 3427TIP3    H210246   2.261   2.743   4.013 -0.3056  0.9549 -0.0207
 3428TIP3   OH210247   0.671   5.064   4.793 -0.0084 -0.2984 -0.1332
 3428TIP3    H110248   0.740   5.046   4.858  0.4275  0.9287 -0.2337
 3428TIP3    H210249   0.624   5.139   4.829 -1.2531 -1.0584 -0.1200
 3429TIP3   OH210250   7.177   6.549   5.632  0.3898  0.7361  0.1671
 3429TIP3    H110251   7.168   6.638   5.598 -0.9115  0.8109  0.6292
 3429TIP3    H210252   7.162   6.558   5.726 -1.7912 -0.1845 -0.0127
 3430TIP3   OH210253   3.725   1.455   2.207  0.2398 -0.2310  0.4806
 3430TIP3    H110254   3.754   1.541   2.240  0.7107 -0.1545 -0.1176
 3430TIP3    H210255   3.714   1.402   2.286  1.8002 -0.1836  0.7717
 3431TIP3   OH210256   6.279   6.494   4.928  0.1546 -0.2722 -0.4071
 3431TIP3    H110257   6.361   6.446   4.939  0.0580 -0.0206  1.8269
 3431TIP3    H210258   6.215   6.427   4.906  0.5444 -0.7627 -0.0643
 3432TIP3   OH210259  -0.014   2.435   4.124 -0.0628  0.3222 -0.0982
 3432TIP3    H110260   0.033   2.490   4.187  1.0120 -0.4752 -0.1681
 3432TIP3    H210261   0.055   2.385   4.080 -0.8173  0.7343 -1.7936
 3433TIP3   OH210262   1.019   6.736   0.704  0.0562 -0.3626  0.7592
 3433TIP3    H110263   1.089   6.675   0.727  0.3793 -0.4741 -0.4744
 3433TIP3    H210264   1.030   6.809   0.765  1.3669 -0.2915  0.4708
 3434TIP3   OH210265   2.550   4.556   2.580  0.4972  0.0021  0.0973
 3434TIP3    H110266   2.576   4.645   2.601 -0.4585  0.4011 -0.3584
 3434TIP3    H210267   2.624   4.521   2.530  0.6566  0.7259 -0.1899
 3435TIP3   OH210268   6.139   6.744   1.806 -0.5217 -0.1665  0.2792
 3435TIP3    H110269   6.047   6.723   1.788 -0.9164  2.6253 -1.5648
 3435TIP3    H210270   6.139   6.778   1.895 -1.4311  0.4959  0.0432
 3436TIP3   OH210271   0.910   2.225   4.283 -0.4156 -0.0517 -0.1042
 3436TIP3    H110272   0.898   2.186   4.370  0.8080 -1.1912 -0.4163
 3436TIP3    H210273   0.839   2.189   4.230 -1.5214  1.0994  0.5296
 3437TIP3   OH210274   0.054   2.712   3.263 -0.1568  0.2806 -0.0880
 3437TIP3    H110275   0.138   2.756   3.275 -0.4706  0.8545  0.0345
 3437TIP3    H210276   0.003   2.736   3.340 -1.0174  1.2920 -0.9374
 3438TIP3   OH210277   4.951   4.009   0.419 -0.1751  0.5698  0.0656
 3438TIP3    H110278   4.987   3.921   0.405  0.0976  0.5775  0.6812
 3438TIP3    H210279   4.920   4.007   0.509 -0.9013  0.8563 -0.1770
 3439TIP3   OH210280   3.075   6.369   4.464  0.2576  0.1076  0.0762
 3439TIP3    H110281   3.124   6.411   4.392 -2.2856 -0.2324 -1.9979
 3439TIP3    H210282   3.119   6.286   4.478  0.5136 -0.0477 -1.4966
 3440TIP3   OH210283   0.488   6.572   5.765 -0.2017  0.4501  0.0381
 3440TIP3    H110284   0.448   6.633   5.703 -0.2231  1.4691  1.0183
 3440TIP3    H210285   0.537   6.628   5.826  1.5596 -0.6751 -0.2909
 3441TIP3   OH210286   3.521   5.243   5.892 -0.2109  0.0110  0.3200
 3441TIP3    H110287   3.601   5.295   5.895 -1.0966  1.4161  0.2254
 3441TIP3    H210288   3.469   5.282   5.822 -1.5852  0.0467  1.3229
 3442TIP3   OH210289   0.617   5.352   0.717 -0.5166  0.2132 -0.7055
 3442TIP3    H110290   0.641   5.418   0.652 -1.5946 -0.2840 -1.6310
 3442TIP3    H210291   0.656   5.271   0.684 -1.1018 -0.0472 -0.7599
 3443TIP3   OH210292   3.804   2.320   1.995 -1.0224  0.1661 -0.4455
 3443TIP3    H110293   3.833   2.366   2.074 -0.2053 -0.9838 -0.0527
 3443TIP3    H210294   3.819   2.382   1.924 -2.2953  1.4474  0.3265
 3444TIP3   OH210295   5.141   6.218   3.880 -0.3554  0.2037  0.1641
 3444TIP3    H110296   5.173   6.166   3.954 -0.6970  1.5186  1.2684
 3444TIP3    H210297   5.077   6.277   3.918 -0.9182  0.5695 -1.2906
 3445TIP3   OH210298   0.767   5.670   4.087  0.2250  0.2066  0.0944
 3445TIP3    H110299   0.849   5.648   4.042  1.9234 -1.1790  3.5002
 3445TIP3    H210300   0.719   5.587   4.091 -0.2746  0.4935  0.1082
 3446TIP3   OH210301   1.897   4.640   3.397 -0.0688  0.3055  0.5444
 3446TIP3    H110302   1.827   4.601   3.450 -1.3180  1.0861 -0.4840
 3446TIP3    H210303   1.938   4.704   3.455  0.8180 -1.1864  1.6496
 3447TIP3   OH210304   5.968   6.179   4.455 -0.3892  0.3629 -0.1760
 3447TIP3    H110305   5.986   6.101   4.507  0.6348 -0.1868 -1.3109
 3447TIP3    H210306   6.009   6.250   4.503  1.9461 -0.3665 -0.9417
 3448TIP3   OH210307   4.311   3.446   2.281  0.2320 -0.5048 -0.8144
 3448TIP3    H110308   4.240   3.447   2.345  0.2460 -0.6649 -0.7952
 3448TIP3    H210309   4.344   3.536   2.279  1.3458 -0.8436  0.6439
 3449TIP3   OH210310   2.269   0.297   3.353  0.0309  0.9865 -0.1458
 3449TIP3    H110311   2.192   0.292   3.295  0.1921 -0.7399 -0.2565
 3449TIP3    H210312   2.232   0.292   3.441  0.0175 -0.4809 -0.2088
 3450TIP3   OH210313   1.682   6.710   2.469 -0.0058 -0.2025  0.0570
 3450TIP3    H110314   1.639   6.726   2.553  0.8504 -1.4736  0.7830
 3450TIP3    H210315   1.677   6.793   2.423 -0.3825  0.5664  1.4219
 3451TIP3   OH210316   1.625   6.538   5.608 -0.4107  0.0492  0.0300
 3451TIP3    H110317   1.631   6.451   5.647  0.3634 -0.1462 -0.5166
 3451TIP3    H210318   1.608   6.596   5.683 -1.1343 -0.5786  0.3751
 3452TIP3   OH210319   0.302   2.124   2.213 -0.4083 -0.5537  0.6320
 3452TIP3    H110320   0.375   2.084   2.165 -1.4534 -1.1221 -0.5420
 3452TIP3    H210321   0.265   2.053   2.265  0.0964 -0.1756  1.5239
 3453TIP3   OH210322   4.986   0.640   5.664  0.0989 -0.2472 -0.1789
 3453TIP3    H110323   4.926   0.709   5.637  0.8828  0.3435 -0.4793
 3453TIP3    H210324   5.060   0.648   5.604  0.5228 -0.8931  0.2355
 3454TIP3   OH210325   0.519   0.707   5.388 -0.4382  0.1135 -1.0223
 3454TIP3    H110326   0.431   0.723   5.422 -0.6174  1.1399 -1.9409
 3454TIP3    H210327   0.534   0.614   5.407 -0.4971  0.5910  1.8805
 3455TIP3   OH210328   3.313   5.519   2.996  0.0366 -0.3576 -0.3657
 3455TIP3    H110329   3.371   5.507   2.922  0.6708 -1.1752  0.2452
 3455TIP3    H210330   3.371   5.523   3.072 -0.6420 -0.2620  0.1562
 3456TIP3   OH210331   1.226   1.174   0.089  0.0861  0.2339 -0.1976
 3456TIP3    H110332   1.149   1.187   0.145 -0.6478  0.0581 -1.1479
 3456TIP3    H210333   1.232   1.079   0.079  0.8148  0.2092  0.3819
 3457TIP3   OH210334   6.362   1.034   1.183  0.9211 -0.5848  0.4811
 3457TIP3    H110335   6.268   1.051   1.190  0.7722  0.7422 -2.6997
 3457TIP3    H210336   6.368   0.941   1.164  0.3925 -0.9393  1.9396
 3458TIP3   OH210337   4.456   1.118   4.267  0.2914  0.0641  0.0474
 3458TIP3    H110338   4.511   1.051   4.227  0.5308 -0.0126  0.5075
 3458TIP3    H210339   4.374   1.114   4.218  0.5262 -0.1366 -0.3348
 3459TIP3   OH210340   4.518   0.392   4.541 -0.5305 -0.5654 -0.3918
 3459TIP3    H110341   4.542   0.454   4.610 -0.9590 -1.0161  0.1711
 3459TIP3    H210342   4.468   0.444   4.478 -3.4385 -0.8313  1.4814
 3460TIP3   OH210343   2.340   0.462   0.232 -0.3555 -0.0477 -0.1034
 3460TIP3    H110344   2.332   0.456   0.327 -0.2903  0.4965 -0.0605
 3460TIP3    H210345   2.300   0.381   0.199 -1.1824  0.1664  0.3460
 3461TIP3   OH210346   0.135   2.472   4.777  0.0376 -0.3234 -0.0689
 3461TIP3    H110347   0.108   2.496   4.688 -2.4491 -2.0928  0.1122
 3461TIP3    H210348   0.079   2.398   4.800  1.9953 -1.2041  2.2605
 3462TIP3   OH210349   4.168   4.341   3.600 -0.8724  0.5344 -0.1425
 3462TIP3    H110350   4.085   4.382   3.625 -1.2895  0.7752 -1.8209
 3462TIP3    H210351   4.186   4.374   3.512 -0.0577 -1.1102 -0.6422
 3463TIP3   OH210352   1.767   5.246   0.588  0.4200  0.0229  0.1407
 3463TIP3    H110353   1.696   5.248   0.652  0.0534  0.4479 -0.2735
 3463TIP3    H210354   1.797   5.155   0.588 -0.3419 -0.2365  0.0754
 3464TIP3   OH210355   5.240   4.697   0.997 -0.1013 -0.0164 -0.0034
 3464TIP3    H110356   5.206   4.623   0.946 -0.0496  0.1685 -0.3048
 3464TIP3    H210357   5.164   4.730   1.045 -0.0164 -0.6170  0.5758
 3465TIP3   OH210358   1.735   3.596   3.105  0.1048 -0.1535 -0.3806
 3465TIP3    H110359   1.773   3.682   3.086  0.4659 -0.7549 -2.6609
 3465TIP3    H210360   1.718   3.558   3.019 -3.8351 -0.7606  0.4853
 3466TIP3   OH210361   0.001   3.030   2.766 -0.2624  0.2907  0.6264
 3466TIP3    H110362   0.004   2.938   2.737  1.4124  0.6308 -0.4699
 3466TIP3    H210363   0.079   3.040   2.820 -0.3203  1.1105  0.5699
 3467TIP3   OH210364   0.814   2.334   0.175  0.1231  0.0208 -0.5446
 3467TIP3    H110365   0.839   2.338   0.268  0.2996 -1.4351 -0.5073
 3467TIP3    H210366   0.755   2.258   0.170  2.3209 -1.7248 -2.0786
 3468TIP3   OH210367   1.086   2.129   4.012 -0.0080  0.0751  0.3037
 3468TIP3    H110368   1.173   2.092   4.028 -0.7804 -1.2810  1.5912
 3468TIP3    H210369   1.088   2.215   4.054  0.4862 -0.2443  0.9462
 3469TIP3   OH210370   0.291   4.463   0.679 -0.0697  0.0688  0.2482
 3469TIP3    H110371   0.358   4.490   0.742  0.2046 -1.3716  0.6138
 3469TIP3    H210372   0.209   4.492   0.718  0.1935  0.2318  0.6971
 3470TIP3   OH210373   2.760   5.241   2.791 -0.6636 -0.0035 -0.5192
 3470TIP3    H110374   2.845   5.256   2.748  0.5385 -0.3172  1.6104
 3470TIP3    H210375   2.708   5.317   2.766 -0.2499 -0.4124 -2.9087
 3471TIP3   OH210376   5.512   6.471   5.519  0.0132  0.0117 -0.0287
 3471TIP3    H110377   5.464   6.388   5.515 -0.4585  0.3210 -1.2776
 3471TIP3    H210378   5.595   6.453   5.474  0.4268 -0.1079  0.7753
 3472TIP3   OH210379   5.777   3.960   4.718 -0.4715  0.4873 -0.2921
 3472TIP3    H110380   5.714   4.020   4.757 -0.0824  1.2981 -0.8733
 3472TIP3    H210381   5.730   3.878   4.709 -0.3706  0.0069  2.5826
 3473TIP3   OH210382   1.794   2.042   5.753  0.3259 -0.3052 -0.2885
 3473TIP3    H110383   1.748   2.062   5.672 -1.4422 -0.0925  0.7186
 3473TIP3    H210384   1.875   2.093   5.748  0.4319 -0.6006 -2.0694
 3474TIP3   OH210385   2.451   0.588   4.150  0.3562  0.1479 -0.0942
 3474TIP3    H110386   2.486   0.677   4.139  1.3148 -0.4855 -3.6506
 3474TIP3    H210387   2.521   0.531   4.118 -1.7860 -1.5514 -2.0855
 3475TIP3   OH210388   0.227   2.558   5.595  0.2991  0.3147  0.4745
 3475TIP3    H110389   0.204   2.472   5.559  0.5926  0.8216 -0.9794
 3475TIP3    H210390   0.321   2.552   5.612 -0.0202 -0.2869  2.2743
 3476TIP3   OH210391   3.720   0.065   5.474 -0.6441 -0.3614 -0.3043
 3476TIP3    H110392   3.739   0.030   5.561  1.5277  1.7187  0.1585
 3476TIP3    H210393   3.779   0.017   5.415 -0.0099  0.2479 -0.1702
 3477TIP3   OH210394   5.409   0.753   1.837 -0.2256  0.2668  0.9631
 3477TIP3    H110395   5.469   0.819   1.872 -0.7972  0.6720  1.1895
 3477TIP3    H210396   5.460   0.672   1.840  0.5782  0.7385  0.4176
 3478TIP3   OH210397   1.612   2.054   3.832  0.6579  0.4033 -0.1003
 3478TIP3    H110398   1.595   1.965   3.859  1.4224  0.4056  0.4350
 3478TIP3    H210399   1.631   2.048   3.738 -0.2716  0.1536 -0.2789
 3479TIP3   OH210400   6.447   2.093   0.451 -0.1187 -0.1678  0.6121
 3479TIP3    H110401   6.408   2.045   0.379  1.1782  0.7831 -0.7874
 3479TIP3    H210402   6.408   2.054   0.530 -3.0561  0.0668 -0.6036
 3480TIP3   OH210403   3.018   2.776   4.092 -1.2053 -0.2181  0.0959
 3480TIP3    H110404   3.018   2.683   4.069  0.5799 -0.3707  0.6163
 3480TIP3    H210405   3.060   2.779   4.178 -0.5301  1.1533 -0.2725
 3481TIP3   OH210406   3.587   0.220   5.111 -0.6221 -0.1360  0.8248
 3481TIP3    H110407   3.673   0.207   5.071 -1.5067 -4.0733 -0.2099
 3481TIP3    H210408   3.560   0.307   5.081  1.2396 -0.5049 -2.4199
 3482TIP3   OH210409   4.931   0.743   0.851 -0.2566 -0.4541 -0.5503
 3482TIP3    H110410   5.016   0.729   0.809 -0.5989 -0.3897 -1.2847
 3482TIP3    H210411   4.952   0.787   0.934  0.5664 -2.1194  0.1782
 3483TIP3   OH210412   0.209   3.772   5.656 -0.2746  0.7083  0.3611
 3483TIP3    H110413   0.272   3.761   5.727 -0.4054 -2.1148  0.1537
 3483TIP3    H210414   0.239   3.849   5.609  1.8158  0.6311  1.4559
 3484TIP3   OH210415   5.509   4.544   2.942  0.1240 -0.2787 -0.4013
 3484TIP3    H110416   5.448   4.484   2.985  1.0079 -0.8101  0.1633
 3484TIP3    H210417   5.460   4.579   2.867 -1.5795  0.9335  1.2034
 3485TIP3   OH210418   5.510   2.271   3.527  0.4176  0.1467 -0.3367
 3485TIP3    H110419   5.480   2.197   3.581  1.5296 -0.9046 -1.0939
 3485TIP3    H210420   5.431   2.303   3.484 -0.2171 -0.0536  0.6510
 3486TIP3   OH210421   0.358   6.802   4.772  0.2819 -0.0268 -0.4069
 3486TIP3    H110422   0.288   6.838   4.827 -0.9824  0.2424 -2.1200
 3486TIP3    H210423   0.333   6.711   4.758 -0.2272  0.2958 -1.7363
 3487TIP3   OH210424   2.772   4.969   4.761  0.1381 -0.7137 -0.2056
 3487TIP3    H110425   2.775   5.024   4.839 -0.3960  0.0562 -0.7158
 3487TIP3    H210426   2.852   4.991   4.713  0.4927 -1.2253  0.1346
 3488TIP3   OH210427   2.104   5.094   4.906  0.2162 -0.1067  0.4544
 3488TIP3    H110428   2.048   5.018   4.918  1.5853 -1.3944 -0.8747
 3488TIP3    H210429   2.044   5.163   4.878 -1.1435 -0.4687  2.3310
 3489TIP3   OH210430   6.063   4.941   1.251  0.1747  0.0198  0.4256
 3489TIP3    H110431   6.090   4.885   1.178 -1.2841 -0.4133  0.1906
 3489TIP3    H210432   6.102   4.899   1.328  1.2573  0.1634 -0.0183
 3490TIP3   OH210433   5.049   6.432   0.283 -0.3900 -0.1634  0.0146
 3490TIP3    H110434   5.018   6.366   0.345  2.2533 -2.6547 -1.0794
 3490TIP3    H210435   5.023   6.397   0.197 -0.8704  1.4076 -0.5149
 3491TIP3   OH210436   0.400   4.229   1.611  0.0110  0.1796 -0.4028
 3491TIP3    H110437   0.482   4.181   1.606 -0.1056  0.0913 -1.9290
 3491TIP3    H210438   0.420   4.306   1.664  0.9992  0.0148 -0.5255
 3492TIP3   OH210439   6.126   2.667   1.600  0.1661  0.3485 -0.0670
 3492TIP3    H110440   6.134   2.605   1.672 -0.6958 -1.2965 -1.3174
 3492TIP3    H210441   6.117   2.613   1.522  2.2108  2.0428 -1.6147
 3493TIP3   OH210442   5.559   5.760   1.227 -0.1051  0.5309 -0.4294
 3493TIP3    H110443   5.639   5.715   1.201  0.2528  0.6379  0.4433
 3493TIP3    H210444   5.582   5.853   1.224 -0.0720  0.5460  0.2044
 3494TIP3   OH210445   0.090   6.807   4.393 -0.2125  0.5012  0.4065
 3494TIP3    H110446   0.031   6.732   4.385  0.9898 -0.6344  1.6997
 3494TIP3    H210447   0.164   6.785   4.337  0.8405 -0.0353  1.9350
 3495TIP3   OH210448   6.327   6.137   4.548  0.0334  0.3282  0.5706
 3495TIP3    H110449   6.296   6.048   4.568 -0.3097  0.5241  0.9180
 3495TIP3    H210450   6.351   6.133   4.456  0.4246 -0.2425  0.6900
 3496TIP3   OH210451   6.974   0.073   0.191  0.2052 -0.1787 -0.2505
 3496TIP3    H110452   7.037   0.143   0.205  1.6008 -1.3718 -0.3131
 3496TIP3    H210453   6.956   0.039   0.278  0.1531 -0.2754 -0.2984
 3497TIP3   OH210454   7.149   3.119   0.251  0.4667 -0.3611 -0.8022
 3497TIP3    H110455   7.109   3.144   0.168 -2.0899  0.1028  0.4528
 3497TIP3    H210456   7.167   3.202   0.295 -1.7515 -0.5405  0.5970
 3498TIP3   OH210457   5.256   1.688   1.485  0.0162 -0.0144 -0.2236
 3498TIP3    H110458   5.200   1.612   1.498 -1.1330  0.5762 -1.4571
 3498TIP3    H210459   5.317   1.686   1.559  0.3917 -2.4390 -0.5134
 3499TIP3   OH210460   7.181   1.735   1.119  0.1660  0.1961 -0.3773
 3499TIP3    H110461   7.274   1.728   1.138 -0.1935 -1.4888  1.0171
 3499TIP3    H210462   7.163   1.661   1.061 -0.6959 -0.9039  1.2249
 3500TIP3   OH210463   1.986   4.599   1.025 -0.3127 -0.2605 -0.4270
 3500TIP3    H110464   1.979   4.635   1.113  0.7953 -1.8672  0.3790
 3500TIP3    H210465   1.940   4.515   1.030  2.3365 -1.8168 -0.4447
 3501TIP3   OH210466   2.072   5.012   0.426  0.3780 -0.3871 -0.3736
 3501TIP3    H110467   2.116   5.056   0.499 -0.2263  0.4623 -0.5047
 3501TIP3    H210468   1.987   4.985   0.461  0.6010 -1.1419 -0.3992
 3502TIP3   OH210469   4.148   3.124   1.250 -0.0695  0.0016 -0.4546
 3502TIP3    H110470   4.106   3.041   1.227 -0.0296 -0.2337  0.3053
 3502TIP3    H210471   4.115   3.145   1.337 -0.5707  1.1094 -0.8837
 3503TIP3   OH210472   6.265   5.868   4.627  0.2412  0.3872  0.2803
 3503TIP3    H110473   6.340   5.809   4.624  1.0940  1.4696 -0.6662
 3503TIP3    H210474   6.231   5.859   4.716 -0.4212 -2.4029 -0.1564
 3504TIP3   OH210475   2.772   0.665   3.401  0.3157  0.4254  0.0480
 3504TIP3    H110476   2.724   0.735   3.357  0.1251 -0.5285 -1.3070
 3504TIP3    H210477   2.708   0.624   3.459  0.0199  0.4060 -0.2921
 3505TIP3   OH210478   3.269   4.873   4.069  0.3935  0.1415 -0.1429
 3505TIP3    H110479   3.215   4.795   4.058 -0.3648  0.4981  0.9513
 3505TIP3    H210480   3.356   4.839   4.089  0.2705 -0.4192 -0.5302
 3506TIP3   OH210481   0.829   2.903   3.394 -0.0896  0.3528  0.1220
 3506TIP3    H110482   0.907   2.941   3.354  0.9510 -2.9129 -1.3195
 3506TIP3    H210483   0.769   2.888   3.321 -0.4846 -0.6014  0.6253
 3507TIP3   OH210484   5.049   0.832   3.531 -0.2438 -0.2032  0.4303
 3507TIP3    H110485   4.969   0.814   3.481 -0.5651  0.5296  0.6755
 3507TIP3    H210486   5.058   0.927   3.529  1.3434 -0.3353 -0.7024
 3508TIP3   OH210487   3.787   1.808   5.842  0.2492  0.3546 -0.0818
 3508TIP3    H110488   3.873   1.848   5.824 -0.4726  1.6494 -0.8508
 3508TIP3    H210489   3.730   1.844   5.774 -1.5290  1.6126  1.9397
 3509TIP3   OH210490   6.389   4.519   3.745 -0.0925  0.4069  0.1416
 3509TIP3    H110491   6.448   4.523   3.670  1.7520  1.6430  1.5379
 3509TIP3    H210492   6.352   4.430   3.742  2.8012 -0.9155 -0.2051
 3510TIP3   OH210493   5.451   3.567   2.308  0.4742  0.3156 -0.9714
 3510TIP3    H110494   5.474   3.495   2.250  2.7229 -0.3177  0.5418
 3510TIP3    H210495   5.535   3.598   2.343 -0.5030  2.9027 -0.6335
 3511TIP3   OH210496   1.535   4.725   4.398  0.2452  0.1578 -0.0818
 3511TIP3    H110497   1.446   4.709   4.367  0.4568  2.0286 -1.8785
 3511TIP3    H210498   1.590   4.671   4.342  0.3685  0.7925 -0.5941
 3512TIP3   OH210499   0.820   5.756   2.680  0.6276 -0.3196  0.1651
 3512TIP3    H110500   0.855   5.722   2.597 -0.7852  0.1186 -0.6337
 3512TIP3    H210501   0.775   5.682   2.718  1.7151 -0.6687  0.8268
 3513TIP3   OH210502   6.949   2.185   5.505 -0.0866  0.4194  0.4805
 3513TIP3    H110503   6.940   2.096   5.540 -1.0654 -0.0162 -0.7913
 3513TIP3    H210504   6.991   2.173   5.420 -1.8968  0.9238 -0.5537
 3514TIP3   OH210505   1.426   1.549   0.904  0.5938 -0.1807  0.5772
 3514TIP3    H110506   1.501   1.602   0.877 -0.5215  0.7157 -0.9304
 3514TIP3    H210507   1.425   1.476   0.842 -1.8850  1.7978 -1.9514
 3515TIP3   OH210508   0.627   5.472   0.289  0.2211 -0.1646 -0.4957
 3515TIP3    H110509   0.654   5.522   0.366  0.8855  0.7657 -1.2948
 3515TIP3    H210510   0.539   5.505   0.269  0.0135 -0.4686 -0.0898
 3516TIP3   OH210511   5.716   4.386   5.484  0.4465  0.9016 -0.3103
 3516TIP3    H110512   5.737   4.473   5.519  0.8236  0.5090  0.4628
 3516TIP3    H210513   5.637   4.400   5.431  0.9900  1.8650 -0.8942
 3517TIP3   OH210514   2.629   2.866   2.578  0.6784 -0.1273  0.0253
 3517TIP3    H110515   2.707   2.873   2.523  0.1125  1.3917 -0.6284
 3517TIP3    H210516   2.568   2.929   2.542 -0.3581 -0.3019  1.3783
 3518TIP3   OH210517   3.702   5.134   1.970  0.0721  0.0699 -0.3864
 3518TIP3    H110518   3.638   5.199   1.941 -0.2637  0.0832  0.3761
 3518TIP3    H210519   3.777   5.147   1.912 -0.1094  0.9296 -0.4372
 3519TIP3   OH210520   0.187   6.754   5.209  0.4620  0.1399  0.2089
 3519TIP3    H110521   0.220   6.681   5.261 -0.2433 -0.1492  0.2618
 3519TIP3    H210522   0.098   6.767   5.241  1.1096  2.1225  1.4076
 3520TIP3   OH210523   1.058   0.471   5.402 -0.0944  0.3696  0.5682
 3520TIP3    H110524   1.107   0.547   5.433 -0.9168  0.2750  2.2013
 3520TIP3    H210525   1.085   0.399   5.459 -0.9086 -0.0501  0.4476
 3521TIP3   OH210526   0.933   6.267   1.498  0.0621 -0.2566  0.4789
 3521TIP3    H110527   0.909   6.275   1.590 -0.1766  0.1800  0.3795
 3521TIP3    H210528   1.027   6.251   1.499  0.7354  2.9984  0.7049
 3522TIP3   OH210529   1.605   4.191   5.201 -0.1354 -0.0287  0.2718
 3522TIP3    H110530   1.625   4.239   5.121 -2.6380  1.5891  0.4908
 3522TIP3    H210531   1.525   4.143   5.181 -0.4042 -0.1657  1.5735
 3523TIP3   OH210532   6.276   6.009   0.174 -0.1247 -0.5717 -0.4861
 3523TIP3    H110533   6.356   5.960   0.195 -0.1128 -0.4071 -0.1343
 3523TIP3    H210534   6.251   6.050   0.257 -0.1907 -0.0664 -0.7530
 3524TIP3   OH210535   3.444   1.862   0.085 -0.1772  0.0337 -0.3328
 3524TIP3    H110536   3.526   1.814   0.090 -0.5430 -1.1397 -3.4368
 3524TIP3    H210537   3.389   1.824   0.154  1.3377 -0.2162  0.7715
 3525TIP3   OH210538   0.169   6.073   3.893 -0.1750 -0.3011 -0.7562
 3525TIP3    H110539   0.249   6.043   3.936  0.4730  1.1748 -0.8719
 3525TIP3    H210540   0.173   6.034   3.806  0.1541 -0.6770 -0.5767
 3526TIP3   OH210541   3.298   2.817   3.268 -0.8649 -0.0146  0.3152
 3526TIP3    H110542   3.344   2.899   3.289 -0.7043  0.2184 -0.8752
 3526TIP3    H210543   3.267   2.829   3.179 -1.3035 -1.0551  0.3134
 3527TIP3   OH210544   0.231   4.925   4.980  0.1585  0.0901  0.3292
 3527TIP3    H110545   0.279   4.989   5.033  2.9306 -0.3182 -1.4697
 3527TIP3    H210546   0.273   4.841   5.001 -2.7036 -1.0907  1.8360
 3528TIP3   OH210547   2.902   5.628   2.903  0.2737 -0.6057 -0.1494
 3528TIP3    H110548   2.976   5.658   2.957  0.2908  2.1249 -1.5290
 3528TIP3    H210549   2.940   5.612   2.817 -0.8669  2.6604 -1.4218
 3529TIP3   OH210550   1.470   2.815   3.114  0.5297  0.2286 -0.2175
 3529TIP3    H110551   1.432   2.897   3.085 -3.3889 -1.1654  0.4524
 3529TIP3    H210552   1.468   2.818   3.209  2.1801  0.0355 -0.1326
 3530TIP3   OH210553   5.005   2.952   1.963  0.6960  0.3430  0.4540
 3530TIP3    H110554   5.068   2.965   1.892  1.9972 -2.2023  1.0206
 3530TIP3    H210555   5.059   2.959   2.043 -0.4061  1.4240  1.1321
 3531TIP3   OH210556   2.713   2.259   3.524  0.1674 -0.1669 -0.1829
 3531TIP3    H110557   2.676   2.343   3.496 -1.0958 -0.4173  0.6284
 3531TIP3    H210558   2.775   2.236   3.455 -0.4579  0.7868 -1.1051
 3532TIP3   OH210559   0.642   3.209   2.779 -0.2494  0.0854 -0.2732
 3532TIP3    H110560   0.547   3.194   2.782 -0.2061 -0.2774 -0.7002
 3532TIP3    H210561   0.657   3.276   2.846 -0.6071 -0.8899  0.8235
 3533TIP3   OH210562   0.833   3.084   1.472 -0.1092 -0.1830 -0.4152
 3533TIP3    H110563   0.803   3.092   1.382  0.6065  1.2741 -0.5489
 3533TIP3    H210564   0.928   3.079   1.466 -0.0808 -0.6191  0.2317
 3534TIP3   OH210565   4.962   0.148   2.207 -0.3279 -0.0579 -0.0637
 3534TIP3    H110566   4.932   0.057   2.198 -0.4773 -0.2314  1.6752
 3534TIP3    H210567   4.893   0.200   2.166 -0.6811 -0.6994 -0.3019
 3535TIP3   OH210568   3.116   1.246   1.368 -0.2211 -0.0968  0.1067
 3535TIP3    H110569   3.023   1.238   1.347  0.1164 -1.7360 -0.9278
 3535TIP3    H210570   3.158   1.268   1.285  0.3975 -0.0592  0.4198
 3536TIP3   OH210571   4.339   0.484   5.450  0.6506 -0.2457 -0.1788
 3536TIP3    H110572   4.252   0.462   5.484  0.1961 -0.0837 -1.2070
 3536TIP3    H210573   4.378   0.399   5.428  0.1663 -0.2408 -1.0979
 3537TIP3   OH210574   6.937   4.150   1.940 -0.0185  0.3289 -0.1646
 3537TIP3    H110575   6.858   4.154   1.994 -0.1128 -1.4860 -0.1049
 3537TIP3    H210576   6.905   4.128   1.853  0.5174 -3.1348  0.3915
 3538TIP3   OH210577   6.366   1.308   5.551  0.2369 -0.3264  0.4219
 3538TIP3    H110578   6.300   1.348   5.495  0.3249  0.5737  0.9327
 3538TIP3    H210579   6.449   1.342   5.518  0.4802 -1.6041 -0.3416
 3539TIP3   OH210580   1.767   3.634   3.926  0.2318  0.4131  0.1800
 3539TIP3    H110581   1.815   3.617   3.845 -0.8747 -1.3175 -0.1658
 3539TIP3    H210582   1.774   3.553   3.977  1.0448  1.5206  1.9330
 3540TIP3   OH210583   0.516   4.523   3.717 -0.5123  0.7977  0.7230
 3540TIP3    H110584   0.468   4.602   3.742 -1.9440  0.8318 -1.8325
 3540TIP3    H210585   0.471   4.491   3.639  1.6915 -1.0377  0.1022
 3541TIP3   OH210586   1.950   6.282   3.700 -0.4011  0.6237 -0.1435
 3541TIP3    H110587   1.863   6.276   3.659 -0.7516 -0.2045  0.6825
 3541TIP3    H210588   1.998   6.207   3.664  1.1792  2.8918 -3.2132
 3542TIP3   OH210589   1.405   1.974   1.078  0.2532 -0.0175 -0.0997
 3542TIP3    H110590   1.313   1.969   1.104  0.2043  0.3294 -0.2035
 3542TIP3    H210591   1.419   2.066   1.057  0.5186 -0.1394 -0.4704
 3543TIP3   OH210592   1.493   0.930   2.451 -0.2086 -0.0851 -0.4060
 3543TIP3    H110593   1.563   0.928   2.387 -2.0494  1.5561 -2.6501
 3543TIP3    H210594   1.424   0.875   2.413 -1.9134  2.0952 -0.6551
 3544TIP3   OH210595   3.370   6.415   5.593  0.0773  0.1334  0.4671
 3544TIP3    H110596   3.277   6.393   5.581  0.0214 -0.3623  1.6665
 3544TIP3    H210597   3.417   6.336   5.570  0.1480  0.1220  0.6484
 3545TIP3   OH210598   3.909   4.293   1.505  0.1919 -0.2974 -0.3697
 3545TIP3    H110599   4.005   4.290   1.501  0.1605 -1.2206 -0.6766
 3545TIP3    H210600   3.883   4.334   1.422  0.2908 -0.8739 -0.6868
 3546TIP3   OH210601   6.964   0.309   5.205 -0.4816 -0.2343 -0.0081
 3546TIP3    H110602   6.921   0.261   5.133  0.4721 -0.1506 -0.6536
 3546TIP3    H210603   6.982   0.242   5.271 -0.1690 -0.5631 -0.4209
 3547TIP3   OH210604   5.231   0.857   4.109  0.2297 -0.1580  0.0457
 3547TIP3    H110605   5.282   0.777   4.121 -0.1254 -0.4258 -0.2221
 3547TIP3    H210606   5.173   0.838   4.035  0.4727  0.5146 -0.3202
 3548TIP3   OH210607   2.793   3.196   3.308 -0.7147 -0.4586  0.7625
 3548TIP3    H110608   2.726   3.142   3.266 -0.3688  0.1797 -0.6828
 3548TIP3    H210609   2.860   3.206   3.241 -0.7160  1.6628  1.0312
 3549TIP3   OH210610   3.343   2.755   4.392  0.1988 -0.2070 -0.0517
 3549TIP3    H110611   3.355   2.691   4.322 -0.2569 -0.7755  0.3884
 3549TIP3    H210612   3.253   2.744   4.420  0.2286  0.3706  0.2886
 3550TIP3   OH210613   6.128   0.779   1.987 -0.1750 -0.0689 -0.6494
 3550TIP3    H110614   6.163   0.855   2.033  1.0624 -1.4870  0.8788
 3550TIP3    H210615   6.204   0.735   1.951 -0.8209 -0.8087 -1.1465
 3551TIP3   OH210616   0.282   2.689   1.661 -0.5996 -0.9725  0.0625
 3551TIP3    H110617   0.328   2.605   1.665 -0.3897 -0.8557  0.1732
 3551TIP3    H210618   0.348   2.751   1.631 -1.0476 -1.0439 -1.1155
 3552TIP3   OH210619   6.734   4.057   4.084  0.0352 -0.2337  0.4616
 3552TIP3    H110620   6.740   3.991   4.154  0.6472 -0.4847  0.1835
 3552TIP3    H210621   6.825   4.080   4.067 -0.1887  0.9193  0.7683
 3553TIP3   OH210622   3.513   0.895   1.557  0.0108  0.0997 -0.0196
 3553TIP3    H110623   3.446   0.848   1.607  1.7060 -2.8075 -0.2366
 3553TIP3    H210624   3.518   0.848   1.473  1.6804  0.7639 -0.3436
 3554TIP3   OH210625   3.746   5.241   1.141 -0.1214 -0.3432  0.0719
 3554TIP3    H110626   3.747   5.330   1.104 -0.6114  0.2010  1.3215
 3554TIP3    H210627   3.660   5.233   1.181  0.4836 -0.8038  1.3257
 3555TIP3   OH210628   3.172   1.343   4.056  0.2057  1.0684  0.2071
 3555TIP3    H110629   3.121   1.423   4.044  1.0609  1.4137 -1.4702
 3555TIP3    H210630   3.248   1.370   4.107 -0.3893  0.9223  1.1941
 3556TIP3   OH210631   0.882   1.615   1.066 -0.2487 -0.2828 -0.7666
 3556TIP3    H110632   0.825   1.635   1.141 -0.9875  0.5752 -1.5268
 3556TIP3    H210633   0.935   1.694   1.056 -2.3459  1.0071 -3.0559
 3557TIP3   OH210634   5.673   2.498   4.331 -0.0172  0.2825 -0.0030
 3557TIP3    H110635   5.616   2.441   4.280  0.3908  0.1817 -0.3553
 3557TIP3    H210636   5.756   2.497   4.284  0.1262  0.8245  0.2271
 3558TIP3   OH210637   1.744   4.027   4.443  0.4052  0.2575 -0.1165
 3558TIP3    H110638   1.739   3.959   4.509 -0.8083  1.0732  0.6721
 3558TIP3    H210639   1.654   4.038   4.413  0.7972  0.5408 -1.2566
 3559TIP3   OH210640   3.926   6.096   5.169 -0.2054  0.3606  0.2720
 3559TIP3    H110641   3.888   6.020   5.125 -0.7307  1.4594 -1.2833
 3559TIP3    H210642   4.006   6.063   5.210 -1.0674 -1.2735  0.7006
 3560TIP3   OH210643   5.270   1.369   5.219  0.3792  0.1151  0.3583
 3560TIP3    H110644   5.291   1.458   5.248  1.8166  0.2106 -0.8675
 3560TIP3    H210645   5.182   1.376   5.182  1.2631  1.5334 -1.6319
 3561TIP3   OH210646   4.377   0.977   3.544  0.0176  0.5526  0.6007
 3561TIP3    H110647   4.453   0.988   3.487 -1.5104 -0.4958 -1.8071
 3561TIP3    H210648   4.382   0.886   3.573 -0.4867  0.3593  0.1075
 3562TIP3   OH210649   0.889   1.754   3.045 -0.2141  0.3648  1.0431
 3562TIP3    H110650   0.970   1.703   3.045 -0.0216  0.6423  2.1331
 3562TIP3    H210651   0.863   1.759   2.953  0.5996 -0.3662  0.7644
 3563TIP3   OH210652   1.128   5.016   3.985 -0.3856 -0.0403 -0.0011
 3563TIP3    H110653   1.036   4.996   3.999 -0.6631  0.3293 -1.1465
 3563TIP3    H210654   1.146   4.984   3.897 -0.6335  3.7570 -1.6544
 3564TIP3   OH210655   3.232   0.377   1.603  0.4536  0.0115 -0.0929
 3564TIP3    H110656   3.307   0.348   1.551  0.4945  1.1434 -0.7060
 3564TIP3    H210657   3.249   0.343   1.690  0.0677 -2.5060 -0.9168
 3565TIP3   OH210658   2.796   1.475   4.072  0.0655  0.1803 -0.0318
 3565TIP3    H110659   2.801   1.554   4.019  2.3029 -1.0492 -1.8021
 3565TIP3    H210660   2.836   1.499   4.156 -0.4697  1.2352 -0.0617
 3566TIP3   OH210661   2.745   6.809   4.196  0.3882 -0.4522  0.4636
 3566TIP3    H110662   2.780   6.777   4.113 -1.6165  2.2198 -1.6093
 3566TIP3    H210663   2.652   6.787   4.194  0.1660  0.2280  1.7111
 3567TIP3   OH210664   2.093   3.476   0.749 -0.3025  0.3130  0.4094
 3567TIP3    H110665   2.164   3.534   0.778 -1.6728  2.3845 -0.2213
 3567TIP3    H210666   2.127   3.435   0.670  1.0425 -0.5518  1.3779
 3568TIP3   OH210667   4.847   0.283   4.161 -0.0701 -0.4791  0.2044
 3568TIP3    H110668   4.836   0.211   4.098  2.2740 -0.3888 -0.4250
 3568TIP3    H210669   4.782   0.266   4.229 -0.4166 -2.4866 -0.5550
 3569TIP3   OH210670   3.555   6.578   1.033 -0.4474  0.3110  0.3328
 3569TIP3    H110671   3.504   6.527   0.970 -0.1021  0.2839  0.0758
 3569TIP3    H210672   3.502   6.656   1.048 -1.4704 -0.5581  1.4945
 3570TIP3   OH210673   5.365   2.893   5.244  0.3393  0.0386  0.1127
 3570TIP3    H110674   5.326   2.871   5.329  0.5506 -0.9087 -0.0244
 3570TIP3    H210675   5.458   2.906   5.262  0.1845  1.0359  0.2241
 3571TIP3   OH210676   3.385   4.874   3.025 -0.4395 -0.1351  0.0205
 3571TIP3    H110677   3.316   4.809   3.014  0.2907 -0.7297 -1.4345
 3571TIP3    H210678   3.408   4.899   2.935  0.3869  0.9536  0.5170
 3572TIP3   OH210679   0.678   5.400   4.627 -0.5204 -0.4052  0.3513
 3572TIP3    H110680   0.738   5.421   4.556 -0.6982 -1.0794 -0.0093
 3572TIP3    H210681   0.591   5.417   4.592 -0.7254 -2.3352 -0.2167
 3573TIP3   OH210682   4.400   6.140   2.396 -0.1477  0.6608  0.1268
 3573TIP3    H110683   4.494   6.143   2.415 -0.3843 -0.7824  1.7467
 3573TIP3    H210684   4.380   6.046   2.390 -1.9482  0.7961  2.5165
 3574TIP3   OH210685   1.206   2.153   0.861 -0.8295 -1.0294  0.1819
 3574TIP3    H110686   1.247   2.140   0.776 -2.6646 -1.2095 -0.7421
 3574TIP3    H210687   1.134   2.090   0.863 -1.4819 -0.2973  1.4168
 3575TIP3   OH210688   2.965   5.531   4.116 -0.4768  0.3098  0.7966
 3575TIP3    H110689   2.991   5.498   4.202 -1.1521  1.2063  1.3739
 3575TIP3    H210690   2.957   5.454   4.061 -1.0768 -0.3886  1.8320
 3576TIP3   OH210691   3.732   4.694   4.806  0.1149 -0.1789 -0.2585
 3576TIP3    H110692   3.715   4.706   4.900 -0.9038 -1.4089 -0.2689
 3576TIP3    H210693   3.691   4.610   4.784  0.5175 -0.0106 -1.7690
 3577TIP3   OH210694   3.179   6.028   4.442 -0.2273  0.2177 -0.0289
 3577TIP3    H110695   3.200   6.031   4.535 -0.3658  1.6009 -0.0165
 3577TIP3    H210696   3.253   6.070   4.399 -1.4564  2.2736 -0.2578
 3578TIP3   OH210697   7.037   6.774   0.656  0.0325 -0.2602  0.2864
 3578TIP3    H110698   7.038   6.825   0.575 -0.7509 -0.3318  0.2292
 3578TIP3    H210699   7.128   6.746   0.667  0.4557  1.0508  0.2721
 3579TIP3   OH210700   5.905   4.039   0.934  0.4279 -0.1820  0.1727
 3579TIP3    H110701   5.916   3.973   0.865 -0.2998 -0.8547  0.6892
 3579TIP3    H210702   5.937   3.996   1.013 -0.9035 -0.2744  0.6911
 3580TIP3   OH210703   3.902   6.167   4.575 -0.0115 -0.5788 -0.1342
 3580TIP3    H110704   3.920   6.185   4.482 -0.2987 -1.6862 -0.4242
 3580TIP3    H210705   3.855   6.083   4.574  0.4070 -0.8462  1.0451
 3581TIP3   OH210706   3.722   5.361   1.526 -0.2556  0.8263 -0.2014
 3581TIP3    H110707   3.710   5.266   1.519 -0.4037  0.8315 -0.0527
 3581TIP3    H210708   3.685   5.397   1.446  1.4934  0.6311 -1.1372
 3582TIP3   OH210709   3.078   1.741   1.722  0.2520  0.2953 -0.3108
 3582TIP3    H110710   3.056   1.743   1.629  0.0403 -1.2033 -0.3216
 3582TIP3    H210711   3.163   1.697   1.726 -0.0239 -0.2079  0.2379
 3583TIP3   OH210712   5.193   2.114   1.943  0.1393 -0.0060  0.1146
 3583TIP3    H110713   5.147   2.182   1.993  1.2115  0.9757 -0.1800
 3583TIP3    H210714   5.248   2.069   2.008 -1.7651 -1.7258  0.6261
 3584TIP3   OH210715   3.829   6.464   0.853 -0.2338 -0.1468 -0.6835
 3584TIP3    H110716   3.924   6.455   0.844 -0.3743 -1.5460 -0.9499
 3584TIP3    H210717   3.818   6.521   0.929  0.8157  0.9004 -1.2769
 3585TIP3   OH210718   5.790   3.464   1.922 -0.2188 -0.4798 -0.7282
 3585TIP3    H110719   5.856   3.396   1.938 -1.4535 -1.6284 -0.3519
 3585TIP3    H210720   5.829   3.520   1.854  2.8347  1.2443  2.0910
 3586TIP3   OH210721   4.267   0.591   2.000  0.2868 -0.0464 -0.4660
 3586TIP3    H110722   4.303   0.680   1.999  0.8166 -0.2617 -1.0637
 3586TIP3    H210723   4.186   0.597   1.950  0.2178  0.1435 -0.3316
 3587TIP3   OH210724   3.940   3.016   2.091 -0.1246 -0.5174 -0.8645
 3587TIP3    H110725   3.901   2.936   2.126  1.1546 -1.5621 -1.7337
 3587TIP3    H210726   4.033   3.009   2.114 -0.1724  1.3056  0.0849
 3588TIP3   OH210727   6.959   2.833   1.486  0.7421  0.4389  0.0782
 3588TIP3    H110728   6.979   2.887   1.410  0.7412  0.8698  0.3848
 3588TIP3    H210729   7.012   2.754   1.473 -0.8687 -0.4828 -1.4745
 3589TIP3   OH210730   4.511   0.095   1.051 -0.4261 -0.1909  0.2485
 3589TIP3    H110731   4.498   0.034   1.124  0.2693 -1.2144 -0.4558
 3589TIP3    H210732   4.480   0.179   1.085  0.2780 -0.5379  1.8877
 3590TIP3   OH210733   0.191   0.368   0.650  0.2132  0.4865  0.3534
 3590TIP3    H110734   0.254   0.354   0.579  2.3264  0.3451  2.1538
 3590TIP3    H210735   0.107   0.380   0.606  1.8002  2.8850 -2.3172
 3591TIP3   OH210736   5.366   4.337   2.403 -0.1791 -0.3097  0.0110
 3591TIP3    H110737   5.303   4.285   2.453 -0.9407  0.4789 -0.0932
 3591TIP3    H210738   5.334   4.332   2.313 -0.3732  0.4807  0.0291
 3592TIP3   OH210739   6.231   2.811   0.840  0.4099  0.1979  0.1006
 3592TIP3    H110740   6.313   2.814   0.889  0.5239  1.0499 -0.1224
 3592TIP3    H210741   6.163   2.796   0.906  0.5044  1.8461  0.6134
 3593TIP3   OH210742   1.505   2.790   3.673 -0.0653  0.0545 -0.0091
 3593TIP3    H110743   1.450   2.742   3.735 -0.9934 -0.2151 -0.9883
 3593TIP3    H210744   1.578   2.823   3.724 -0.9911  0.1505  1.2867
 3594TIP3   OH210745   4.289   1.254   2.399 -0.9266 -0.9356  0.0443
 3594TIP3    H110746   4.315   1.345   2.416  0.7755 -1.2930 -0.4616
 3594TIP3    H210747   4.262   1.220   2.485 -2.9509  0.4002  0.0239
 3595TIP3   OH210748   0.119   1.906   4.469  0.0138 -0.0247 -0.1583
 3595TIP3    H110749   0.095   1.843   4.401 -3.1256 -0.8602  1.5391
 3595TIP3    H210750   0.091   1.991   4.434  0.2957 -0.1408 -0.6868
 3596TIP3   OH210751   5.837   3.606   5.403  0.1969 -0.8547 -0.1534
 3596TIP3    H110752   5.790   3.629   5.323  0.3898  0.1296  0.0011
 3596TIP3    H210753   5.928   3.597   5.376  0.0474 -2.0356 -0.3157
 3597TIP3   OH210754   4.485   6.372   2.978  0.2258  0.1695  0.3606
 3597TIP3    H110755   4.490   6.451   2.926  1.7534  0.4717  0.9360
 3597TIP3    H210756   4.525   6.304   2.924  0.9196  0.2702  0.7470
 3598TIP3   OH210757   3.783   5.867   1.207  0.0844  0.4011 -0.4493
 3598TIP3    H110758   3.818   5.911   1.284  0.5203  0.5212 -0.7156
 3598TIP3    H210759   3.850   5.803   1.182 -1.3465 -1.8110  1.0783
 3599TIP3   OH210760   3.756   3.919   5.293 -0.0518 -0.4816 -0.0916
 3599TIP3    H110761   3.684   3.949   5.349  0.2729  0.3418 -0.1016
 3599TIP3    H210762   3.835   3.948   5.338  0.2437 -0.5643 -0.5476
 3600TIP3   OH210763   5.873   1.512   0.681 -0.0738  0.0674  0.1093
 3600TIP3    H110764   5.808   1.445   0.658  0.7070 -0.9334  0.7368
 3600TIP3    H210765   5.823   1.594   0.684 -1.5178 -0.8111  1.4980
 3601TIP3   OH210766   0.886   3.675   2.821 -0.4048 -0.3730 -0.3266
 3601TIP3    H110767   0.949   3.617   2.779  0.2032  2.0655 -3.1745
 3601TIP3    H210768   0.801   3.646   2.788 -0.6740 -2.3007  1.8110
 3602TIP3   OH210769   5.745   2.234   5.105 -0.1944  0.3303  0.3737
 3602TIP3    H110770   5.832   2.249   5.142 -0.3838  1.7851  0.2790
 3602TIP3    H210771   5.756   2.250   5.012 -0.5808  0.5694  0.3697
 3603TIP3   OH210772   2.127   1.735   4.621  0.0668 -0.0310  0.1966
 3603TIP3    H110773   2.110   1.648   4.584  0.0122  0.2349 -0.4021
 3603TIP3    H210774   2.067   1.793   4.575  0.0004  0.3055  0.7007
 3604TIP3   OH210775   6.694   4.676   1.520 -0.3826 -0.4375 -0.0226
 3604TIP3    H110776   6.651   4.738   1.579 -0.4977  0.1853 -0.7473
 3604TIP3    H210777   6.627   4.651   1.457 -0.1570 -0.8066 -0.1202
 3605TIP3   OH210778   4.270   5.102   4.945  0.0601  0.7970 -0.1227
 3605TIP3    H110779   4.349   5.129   4.992  0.0101  0.9978 -0.1532
 3605TIP3    H210780   4.258   5.010   4.969  0.6495  0.5890 -0.5974
 3606TIP3   OH210781   4.440   6.019   5.589  0.5095  0.0050  0.3708
 3606TIP3    H110782   4.356   6.050   5.555  1.3763  0.4967 -1.4948
 3606TIP3    H210783   4.418   5.967   5.666 -1.5230 -0.1592 -0.2714
 3607TIP3   OH210784   0.427   3.410   2.574 -0.4018  0.3726 -0.4848
 3607TIP3    H110785   0.424   3.403   2.478  2.1803  0.4183 -0.6370
 3607TIP3    H210786   0.511   3.452   2.592 -1.4089  1.5592  1.7795
 3608TIP3   OH210787   0.813   4.138   3.711  0.1425 -0.5493 -0.2147
 3608TIP3    H110788   0.847   4.214   3.758 -0.4058  0.6495 -1.6677
 3608TIP3    H210789   0.841   4.062   3.763  3.6096  0.4021 -0.4237
 3609TIP3   OH210790   1.283   2.667   3.876  0.2447 -0.0905  0.5063
 3609TIP3    H110791   1.202   2.694   3.919 -0.7469 -0.4537 -1.0483
 3609TIP3    H210792   1.275   2.572   3.866  1.6917 -0.4141  1.9027
 3610TIP3   OH210793   2.488   1.946   0.429 -0.5638  0.4503  0.4029
 3610TIP3    H110794   2.413   2.001   0.412 -2.3575 -1.8484  0.3578
 3610TIP3    H210795   2.453   1.857   0.430  2.3339 -0.8517 -0.7872
 3611TIP3   OH210796   5.294   6.243   5.212 -0.2117  0.4624 -0.5437
 3611TIP3    H110797   5.283   6.227   5.118 -0.2021  3.1869 -1.0673
 3611TIP3    H210798   5.375   6.292   5.218  1.1380 -1.7855  1.2278
 3612TIP3   OH210799   6.332   2.874   2.869 -0.9540  0.4923  0.6633
 3612TIP3    H110800   6.372   2.880   2.782 -1.1562  0.8030  0.5878
 3612TIP3    H210801   6.355   2.787   2.901 -1.3142  0.1764  0.0806
 3613TIP3   OH210802   4.105   2.588   4.509  0.0729  0.8003  0.2079
 3613TIP3    H110803   4.116   2.542   4.426 -1.1487 -1.4407  1.1895
 3613TIP3    H210804   4.185   2.639   4.519  0.2473  1.1830 -2.3154
 3614TIP3   OH210805   4.688   3.225   0.029 -0.0199 -0.2529 -0.1416
 3614TIP3    H110806   4.660   3.138   0.057 -0.4113  0.2716  1.2061
 3614TIP3    H210807   4.609   3.279   0.037  0.3755  0.3665 -0.3123
 3615TIP3   OH210808   4.731   5.628   1.895  0.7114  0.3496  0.1339
 3615TIP3    H110809   4.663   5.695   1.903 -0.0931 -0.4162 -0.2132
 3615TIP3    H210810   4.797   5.667   1.837  0.0872  0.7108 -0.3377
 3616TIP3   OH210811   6.787   5.225   1.636  0.7676 -0.1639 -0.5907
 3616TIP3    H110812   6.830   5.153   1.682  1.6643  2.0516  2.3521
 3616TIP3    H210813   6.857   5.270   1.589  0.8251  0.5154  0.1096
 3617TIP3   OH210814   6.473   6.776   1.142  0.1327 -0.0351  0.1728
 3617TIP3    H110815   6.499   6.807   1.055 -0.2222  2.2252  0.8150
 3617TIP3    H210816   6.433   6.690   1.126  0.3758  0.1880 -1.8430
 3618TIP3   OH210817   6.628   2.060   3.215  0.0812 -0.3227 -0.0673
 3618TIP3    H110818   6.600   2.007   3.140  2.1976  1.7897 -2.5399
 3618TIP3    H210819   6.553   2.117   3.235 -1.6539 -2.9540  1.6450
 3619TIP3   OH210820   5.674   1.672   3.250  0.3348  0.4663 -0.6668
 3619TIP3    H110821   5.741   1.658   3.317 -0.9019  2.4196  1.0669
 3619TIP3    H210822   5.607   1.605   3.268 -0.4567  1.5927  0.7316
 3620TIP3   OH210823   4.743   5.640   4.380  0.1297  0.0205  0.0763
 3620TIP3    H110824   4.784   5.678   4.458 -0.1553  1.7231 -0.5570
 3620TIP3    H210825   4.676   5.704   4.355 -1.3214 -1.5644 -0.2840
 3621TIP3   OH210826   4.950   2.357   1.143 -0.2552 -0.1393  0.2656
 3621TIP3    H110827   4.857   2.371   1.127 -0.4951 -1.1845  0.6643
 3621TIP3    H210828   4.986   2.334   1.057 -0.2419  0.8289  0.0016
 3622TIP3   OH210829   6.842   5.219   4.113  0.0120 -0.1790 -0.3158
 3622TIP3    H110830   6.775   5.151   4.114  0.7723 -0.9515 -0.8887
 3622TIP3    H210831   6.925   5.172   4.122  0.5338  0.7073 -0.3068
 3623TIP3   OH210832   4.552   4.758   2.102 -0.5704  0.3017  0.1587
 3623TIP3    H110833   4.620   4.790   2.162 -0.0435 -2.1917  1.0034
 3623TIP3    H210834   4.474   4.749   2.157 -1.2079  1.6684 -0.4647
 3624TIP3   OH210835   4.957   1.984   0.728  0.4326 -0.3675 -0.3199
 3624TIP3    H110836   5.048   1.952   0.733 -0.1516 -2.1605 -0.4190
 3624TIP3    H210837   4.912   1.918   0.675 -0.8272  0.7868 -0.7262
 3625TIP3   OH210838   6.672   0.849   3.962  0.0749 -0.1635 -0.6491
 3625TIP3    H110839   6.631   0.891   3.887 -1.2773 -0.8471 -0.3256
 3625TIP3    H210840   6.763   0.834   3.935 -0.3016 -0.0834 -2.0012
 3626TIP3   OH210841   6.029   4.148   1.513  0.1019 -0.4083 -0.3582
 3626TIP3    H110842   5.976   4.219   1.549  0.0405 -0.5107 -0.2465
 3626TIP3    H210843   5.972   4.071   1.515  0.7104 -0.8810  1.1786
 3627TIP3   OH210844   2.112   2.269   5.871 -0.3329  0.1246  0.0568
 3627TIP3    H110845   2.047   2.291   5.804 -1.5534  1.5426  1.6015
 3627TIP3    H210846   2.060   2.240   5.946  0.7035  2.0095  1.5964
 3628TIP3   OH210847   1.084   1.064   2.436 -0.0878 -0.2440 -0.5095
 3628TIP3    H110848   0.989   1.064   2.423 -0.2345  0.6065  0.4473
 3628TIP3    H210849   1.120   1.055   2.348 -1.0506 -1.2338 -0.8244
 3629TIP3   OH210850   3.650   2.556   4.866 -0.0920 -0.2702 -0.5194
 3629TIP3    H110851   3.628   2.464   4.856 -0.6168  0.0284 -2.3712
 3629TIP3    H210852   3.686   2.582   4.782  0.2131  1.1850  0.0300
 3630TIP3   OH210853   3.213   4.076   5.316 -0.3605 -0.9665 -0.2392
 3630TIP3    H110854   3.186   4.087   5.407  0.1275 -1.9876  0.0426
 3630TIP3    H210855   3.279   4.143   5.302  1.4207 -2.3745  0.9493
 3631TIP3   OH210856   3.042   4.216   3.891  0.0462  0.3396  0.3552
 3631TIP3    H110857   3.112   4.279   3.909  1.0483 -0.9093  0.9509
 3631TIP3    H210858   3.034   4.166   3.972 -0.8115 -0.2274 -0.0689
 3632TIP3   OH210859   4.550   1.257   3.886 -0.2851 -0.7817 -0.1461
 3632TIP3    H110860   4.474   1.302   3.850  0.4897 -1.1454 -2.4086
 3632TIP3    H210861   4.516   1.172   3.915 -1.0284 -0.2883  0.4559
 3633TIP3   OH210862   4.048   4.962   4.461 -0.1461 -0.5054  0.0240
 3633TIP3    H110863   3.962   4.920   4.473 -0.0911 -1.3969 -2.2500
 3633TIP3    H210864   4.097   4.901   4.406  0.4644  1.8669 -2.2564
 3634TIP3   OH210865   1.425   0.272   5.815  0.8859 -0.0798 -0.1671
 3634TIP3    H110866   1.454   0.272   5.906  0.3702 -0.2180 -0.0010
 3634TIP3    H210867   1.350   0.332   5.813  1.2417  0.3610 -0.6138
 3635TIP3   OH210868   0.557   6.112   5.323 -0.5596 -0.4358  0.2911
 3635TIP3    H110869   0.474   6.071   5.302 -0.1573 -0.8300 -0.5737
 3635TIP3    H210870   0.623   6.049   5.294  0.0516  0.4397 -0.2753
 3636TIP3   OH210871   1.889   4.012   0.182 -0.2332 -0.7085  0.2281
 3636TIP3    H110872   1.896   4.077   0.112 -0.2818 -0.8192  0.1201
 3636TIP3    H210873   1.795   3.999   0.193 -0.2288 -0.5568  0.4387
 3637TIP3   OH210874   4.777   4.674   2.645  0.1381 -0.4224  0.0731
 3637TIP3    H110875   4.866   4.665   2.677 -0.1262  0.1419  0.9934
 3637TIP3    H210876   4.783   4.741   2.577  0.3836 -0.2726  0.2415
 3638TIP3   OH210877   1.864   0.225   5.216  0.4929 -0.0850 -0.3948
 3638TIP3    H110878   1.903   0.177   5.144 -2.9693  0.2199 -2.7370
 3638TIP3    H210879   1.816   0.159   5.266  1.4354 -0.0265  0.6209
 3639TIP3   OH210880   6.537   3.533   3.423 -0.4487 -0.7089 -0.7233
 3639TIP3    H110881   6.467   3.572   3.476  0.2894  0.0422 -0.2728
 3639TIP3    H210882   6.605   3.600   3.421  2.0940 -2.8674  2.4437
 3640TIP3   OH210883   1.279   2.011   3.643 -0.3075  0.1287 -0.1753
 3640TIP3    H110884   1.225   1.990   3.566 -0.5208  1.9226 -0.5509
 3640TIP3    H210885   1.365   1.974   3.622 -0.8235 -0.9624 -0.4725
 3641TIP3   OH210886   2.696   1.848   5.338  0.8354  0.1149  0.2053
 3641TIP3    H110887   2.645   1.766   5.339  1.0509 -0.0250 -0.1433
 3641TIP3    H210888   2.662   1.896   5.262 -0.3913  1.0601  1.2939
 3642TIP3   OH210889   7.133   5.662   2.949 -0.4156  0.8185  0.5558
 3642TIP3    H110890   7.197   5.605   2.907 -1.2106 -0.6127  1.2059
 3642TIP3    H210891   7.130   5.740   2.894 -0.9555 -0.7208 -1.7263
 3643TIP3   OH210892   6.375   6.429   3.787  0.3420 -0.4858 -0.0276
 3643TIP3    H110893   6.303   6.490   3.801  0.4018 -0.4234  0.0133
 3643TIP3    H210894   6.446   6.483   3.751  0.3586 -0.5516 -0.0951
 3644TIP3   OH210895   1.417   0.506   2.782 -0.5770  0.1097 -0.7823
 3644TIP3    H110896   1.370   0.463   2.853 -1.8526 -0.2340 -1.7779
 3644TIP3    H210897   1.382   0.595   2.781  1.0334  0.7969  0.3772
 3645TIP3   OH210898   2.254   5.701   4.520 -0.0750 -0.7051 -0.2631
 3645TIP3    H110899   2.181   5.758   4.497 -0.4308 -1.0314  0.0556
 3645TIP3    H210900   2.332   5.748   4.488 -0.3517 -0.0098  0.0616
 3646TIP3   OH210901   4.163   4.162   1.386  0.2098 -0.0990  0.2312
 3646TIP3    H110902   4.180   4.253   1.362  1.3344  0.2723  2.2370
 3646TIP3    H210903   4.248   4.119   1.381  0.1721 -0.3932  1.7896
 3647TIP3   OH210904   0.795   2.439   1.337 -0.2823 -0.4833 -0.1999
 3647TIP3    H110905   0.737   2.440   1.261 -0.4507  0.2924 -0.0634
 3647TIP3    H210906   0.736   2.430   1.412 -0.0953 -1.6352 -0.1649
 3648TIP3   OH210907   2.159   0.327   1.076  0.0136 -0.3573 -0.5769
 3648TIP3    H110908   2.187   0.294   0.990  0.7119 -0.4183 -0.3317
 3648TIP3    H210909   2.082   0.274   1.098  1.2949 -2.0923 -0.0401
 3649TIP3   OH210910   5.308   2.504   4.589  0.2796 -0.3801  0.1616
 3649TIP3    H110911   5.244   2.489   4.519 -0.0122  2.5636 -0.3425
 3649TIP3    H210912   5.372   2.564   4.550  0.0881  1.3984  2.3605
 3650TIP3   OH210913   2.753   1.544   1.679 -0.6742  0.0204  0.1323
 3650TIP3    H110914   2.679   1.546   1.739  0.4051  0.2236  1.5096
 3650TIP3    H210915   2.717   1.574   1.595 -2.3079 -0.6649  0.5501
 3651TIP3   OH210916   0.360   4.652   0.259 -0.4599  0.1400 -0.3472
 3651TIP3    H110917   0.305   4.726   0.232 -1.7732 -0.3309  0.9129
 3651TIP3    H210918   0.298   4.581   0.276  0.6201 -0.7007  0.2205
 3652TIP3   OH210919   6.296   5.009   5.511 -0.2779  0.4572 -0.5786
 3652TIP3    H110920   6.248   4.927   5.500 -1.3499  0.6485  1.9277
 3652TIP3    H210921   6.358   4.992   5.582 -1.9128  2.2653  1.4388
 3653TIP3   OH210922   1.020   6.128   1.999 -0.4232  0.3095  0.4273
 3653TIP3    H110923   0.964   6.200   2.030 -0.9104 -0.3238  1.0277
 3653TIP3    H210924   1.027   6.069   2.073 -1.0078 -0.8749 -0.4277
 3654TIP3   OH210925   6.183   2.641   4.969 -0.1218  0.5020 -0.6221
 3654TIP3    H110926   6.258   2.587   4.944 -0.4385 -1.2175  1.8170
 3654TIP3    H210927   6.107   2.591   4.941 -0.4097 -0.3583  1.4891
 3655TIP3   OH210928   4.953   0.462   3.854 -0.6696  0.3564 -0.5840
 3655TIP3    H110929   4.918   0.545   3.886 -0.4778  0.2379 -0.0608
 3655TIP3    H210930   4.887   0.430   3.793 -1.7388 -0.1173  0.7773
 3656TIP3   OH210931   6.587   0.812   5.281  0.0414  0.1304 -0.0231
 3656TIP3    H110932   6.656   0.746   5.295  0.1314  0.1040 -0.5487
 3656TIP3    H210933   6.515   0.784   5.337  0.5485  0.2947  0.7231
 3657TIP3   OH210934   1.048   5.717   5.497 -0.4936  0.0476  0.0011
 3657TIP3    H110935   1.110   5.715   5.424 -1.0254  0.4587 -0.4686
 3657TIP3    H210936   1.026   5.810   5.507  0.2059  0.1092  1.2336
 3658TIP3   OH210937   0.169   2.254   1.256  0.0055  0.1948 -0.1116
 3658TIP3    H110938   0.255   2.228   1.290 -0.5257 -1.0353  0.3306
 3658TIP3    H210939   0.141   2.326   1.313  0.3192 -0.0532  0.3646
 3659TIP3   OH210940   1.381   1.146   3.095  0.0106  0.1590 -0.0008
 3659TIP3    H110941   1.311   1.103   3.144  1.0603 -1.8031 -0.1007
 3659TIP3    H210942   1.428   1.074   3.052  0.7839  1.5774 -1.6864
 3660TIP3   OH210943  -0.024   2.079   4.303  0.2531  0.3045  0.3867
 3660TIP3    H110944   0.041   2.148   4.308  1.4929 -0.7594 -0.3605
 3660TIP3    H210945   0.010   2.019   4.236 -1.5151 -0.2656 -0.0478
 3661TIP3   OH210946   3.696   2.765   4.201  0.8517  0.4306  0.0878
 3661TIP3    H110947   3.746   2.771   4.120  1.3544 -0.2313  0.3309
 3661TIP3    H210948   3.746   2.703   4.255  0.0074  0.1036  0.5187
 3662TIP3   OH210949   4.916   3.570   2.026  0.0567  0.1374 -0.2307
 3662TIP3    H110950   4.985   3.534   1.970 -0.7615 -2.3582  0.2408
 3662TIP3    H210951   4.860   3.495   2.046 -2.4121  1.9048 -0.0103
 3663TIP3   OH210952   0.481   3.900   2.114  1.0326  0.6256  0.5540
 3663TIP3    H110953   0.390   3.896   2.086  0.8252 -0.0723  1.3185
 3663TIP3    H210954   0.489   3.985   2.157  0.8358  0.8264  0.2040
 3664TIP3   OH210955   0.334   1.978   0.338  0.4014  0.5500 -0.7119
 3664TIP3    H110956   0.287   1.896   0.355 -0.8878  1.3771 -0.1097
 3664TIP3    H210957   0.421   1.964   0.373  0.9945 -1.4069 -2.7897
 3665TIP3   OH210958   0.686   6.656   4.672 -0.3618  0.3129 -0.3972
 3665TIP3    H110959   0.658   6.577   4.719  2.2982  0.3378  1.4459
 3665TIP3    H210960   0.683   6.726   4.737 -0.4619  1.2543 -1.3826
 3666TIP3   OH210961   2.016   2.601   2.441 -0.0722 -0.1282  0.0814
 3666TIP3    H110962   1.943   2.659   2.463 -0.0587 -0.2490  0.4422
 3666TIP3    H210963   1.974   2.521   2.409 -0.1021 -0.3613  0.7043
 3667TIP3   OH210964   1.402   4.421   4.925 -0.0719  0.6931 -0.1673
 3667TIP3    H110965   1.354   4.477   4.986 -0.7192 -1.5243  1.4666
 3667TIP3    H210966   1.478   4.474   4.900 -1.0881  2.6191  0.5928
 3668TIP3   OH210967   0.626   1.058   2.141  0.3093  0.0119  0.0616
 3668TIP3    H110968   0.566   1.013   2.081  0.5349  0.2303 -0.3309
 3668TIP3    H210969   0.704   1.074   2.089  1.0364 -0.9897  0.8042
 3669TIP3   OH210970   5.936   4.470   2.385 -0.1375  0.3755 -0.1216
 3669TIP3    H110971   5.887   4.396   2.420 -0.0202  0.6770  0.6977
 3669TIP3    H210972   5.870   4.525   2.342 -0.2841  0.0197 -0.3546
 3670TIP3   OH210973   5.164   3.879   5.266  0.8521  0.1509 -0.0101
 3670TIP3    H110974   5.116   3.848   5.189 -0.1773  1.4512  0.0711
 3670TIP3    H210975   5.156   3.807   5.329 -0.7738  0.1870 -0.1119
 3671TIP3   OH210976   1.172   4.560   0.867  0.0362 -0.2136 -0.0570
 3671TIP3    H110977   1.128   4.572   0.783 -0.4397  2.0221  0.4534
 3671TIP3    H210978   1.102   4.535   0.927  0.1733 -0.6498 -0.0769
 3672TIP3   OH210979   5.185   4.875   0.494 -0.0268  0.0776 -0.1586
 3672TIP3    H110980   5.183   4.903   0.585 -1.5181 -0.7017  0.0742
 3672TIP3    H210981   5.267   4.911   0.460  0.3364  0.7621  1.3527
 3673TIP3   OH210982   3.475   6.234   3.375  0.8566  0.1300 -0.0350
 3673TIP3    H110983   3.521   6.234   3.458 -0.6024 -0.1315  0.8091
 3673TIP3    H210984   3.447   6.324   3.361  0.1920 -0.0159  0.3023
 3674TIP3   OH210985   5.288   2.746   5.884  0.2218 -0.3390 -0.2578
 3674TIP3    H110986   5.266   2.821   5.830  0.5636  0.2610  0.4267
 3674TIP3    H210987   5.345   2.692   5.828  0.1134 -0.0110 -0.6877
 3675TIP3   OH210988   4.050   6.508   4.158  0.3475 -0.0372  0.4926
 3675TIP3    H110989   4.132   6.542   4.193  1.0661 -1.7990  0.6414
 3675TIP3    H210990   3.988   6.580   4.168  2.2337  1.9316 -1.1383
 3676TIP3   OH210991   4.495   6.591   2.053  0.3771 -0.1811  0.3222
 3676TIP3    H110992   4.442   6.522   2.092  0.3974  0.3603  1.3677
 3676TIP3    H210993   4.584   6.573   2.083  0.5595 -0.3007 -0.2803
 3677TIP3   OH210994   5.797   4.198   2.582  0.1779 -0.4719 -0.5003
 3677TIP3    H110995   5.886   4.171   2.557  0.5680 -1.2112  1.4745
 3677TIP3    H210996   5.809   4.242   2.667 -1.3175 -0.3724 -0.3170
 3678TIP3   OH210997   3.501   0.711   4.804 -0.3668  0.8099 -0.0315
 3678TIP3    H110998   3.496   0.778   4.736  1.6844  0.3003 -0.7672
 3678TIP3    H210999   3.534   0.633   4.759 -0.5188 -0.0251  1.2432
 3679TIP3   OH211000   2.422   3.414   4.593  0.4044  0.1100  0.6303
 3679TIP3    H111001   2.326   3.413   4.597  0.3841 -1.1281  0.1860
 3679TIP3    H211002   2.447   3.494   4.639 -0.8540  0.6217  0.4635
 3680TIP3   OH211003   3.945   1.740   1.495 -0.2555  0.2712  0.0033
 3680TIP3    H111004   3.929   1.796   1.418  2.0260  2.1252  0.7396
 3680TIP3    H211005   4.019   1.685   1.470 -1.6609 -1.5957 -0.2457
 3681TIP3   OH211006   4.373   4.090   4.042 -0.5896  0.2003 -0.3038
 3681TIP3    H111007   4.337   4.004   4.063 -0.6931  0.1435 -0.7204
 3681TIP3    H211008   4.308   4.130   3.985 -0.4993  0.5231 -0.1838
 3682TIP3   OH211009   6.799   5.695   5.066 -0.2227 -0.6191 -0.3865
 3682TIP3    H111010   6.770   5.776   5.108 -0.5189 -1.5385  1.2552
 3682TIP3    H211011   6.895   5.702   5.063 -0.2916  0.1890 -1.1463
 3683TIP3   OH211012   6.989   4.216   2.645  0.4926 -0.3401  0.2905
 3683TIP3    H111013   6.906   4.264   2.647  1.4862  1.5187 -0.6845
 3683TIP3    H211014   6.980   4.156   2.571  1.3745  2.6141 -2.4106
 3684TIP3   OH211015   4.353   5.840   0.421 -0.1280  0.1799  0.1455
 3684TIP3    H111016   4.298   5.766   0.448 -1.7876  0.8705 -1.1574
 3684TIP3    H211017   4.359   5.894   0.500 -2.3461  0.6537  0.0754
 3685TIP3   OH211018   5.774   4.422   3.614  0.5815 -0.2043 -0.3752
 3685TIP3    H111019   5.855   4.444   3.568  1.4437  0.0842  1.2228
 3685TIP3    H211020   5.802   4.397   3.702 -1.0275 -0.5829  0.0625
 3686TIP3   OH211021   7.095   0.463   4.136  0.1356 -0.1630 -0.0917
 3686TIP3    H111022   7.178   0.497   4.169 -0.4740  0.2911  1.0197
 3686TIP3    H211023   7.061   0.533   4.081  1.2004 -0.9597 -1.8424
 3687TIP3   OH211024   0.356   6.322   4.878 -0.0747  0.0701 -0.4842
 3687TIP3    H111025   0.432   6.376   4.854  0.3888 -0.4530 -0.2294
 3687TIP3    H211026   0.281   6.381   4.869  0.4461  0.8394  0.0541
 3688TIP3   OH211027   5.275   5.842   0.463  0.1133  0.0352 -0.6020
 3688TIP3    H111028   5.298   5.781   0.533 -0.4265 -0.6206 -0.9786
 3688TIP3    H211029   5.329   5.815   0.389 -0.8688 -0.6659 -1.0846
 3689TIP3   OH211030   0.052   6.527   1.897 -0.0854  0.5194 -0.2301
 3689TIP3    H111031   0.019   6.617   1.906  1.0999  0.9749 -0.2394
 3689TIP3    H211032   0.135   6.537   1.850 -0.4936 -0.6978 -1.2498
 3690TIP3   OH211033   0.868   4.336   3.906 -0.1414 -0.4349 -0.6388
 3690TIP3    H111034   0.853   4.279   3.981 -2.1896  0.1230 -0.5613
 3690TIP3    H211035   0.837   4.422   3.935 -0.4959 -0.1021 -1.9297
 3691TIP3   OH211036   6.165   1.572   1.354  0.4848 -0.1451  0.1452
 3691TIP3    H111037   6.256   1.583   1.326  0.6635 -1.5574  0.0940
 3691TIP3    H211038   6.118   1.554   1.273  0.4655 -1.1234  0.3646
 3692TIP3   OH211039   3.425   4.920   1.779 -0.3362  0.4975 -0.3414
 3692TIP3    H111040   3.334   4.892   1.788 -0.1974  0.4736  1.2256
 3692TIP3    H211041   3.476   4.841   1.794 -0.0344  0.7945  0.2235
 3693TIP3   OH211042   0.334   2.141   3.754  0.0607  0.6348  0.2484
 3693TIP3    H111043   0.259   2.124   3.811  1.7418 -0.0171  2.3937
 3693TIP3    H211044   0.334   2.067   3.693 -0.7213  0.3715  0.5473
 3694TIP3   OH211045   0.341   5.289   3.931 -0.7200 -0.0804 -0.2795
 3694TIP3    H111046   0.358   5.204   3.889  1.0438 -1.4231  2.7988
 3694TIP3    H211047   0.250   5.284   3.959 -0.6904 -0.8656 -0.3030
 3695TIP3   OH211048   4.748   0.340   3.704  0.0117 -0.1259  0.7886
 3695TIP3    H111049   4.709   0.295   3.779  0.3280  0.0460  1.0569
 3695TIP3    H211050   4.680   0.401   3.675  0.4364  0.9290  1.9081
 3696TIP3   OH211051   0.339   1.426   3.716 -0.1634  0.3721  0.5017
 3696TIP3    H111052   0.375   1.489   3.778 -0.2973 -0.3520  1.3360
 3696TIP3    H211053   0.362   1.461   3.630 -0.3615  1.6249  0.9410
 3697TIP3   OH211054   5.324   6.606   2.555  0.1996 -0.0326 -0.0474
 3697TIP3    H111055   5.405   6.647   2.523  0.2466  0.0314  0.1460
 3697TIP3    H211056   5.305   6.652   2.637 -1.8156  2.1941 -1.6371
 3698TIP3   OH211057   3.543   1.259   4.403  0.0841  0.0899  0.1979
 3698TIP3    H111058   3.576   1.183   4.356  1.5303  0.1790  1.0092
 3698TIP3    H211059   3.620   1.316   4.413 -0.3805  0.4594  1.8864
 3699TIP3   OH211060   5.395   6.274   2.499  0.5818 -0.8252 -0.2256
 3699TIP3    H111061   5.398   6.366   2.522  2.0778 -0.7498 -0.6337
 3699TIP3    H211062   5.324   6.267   2.435 -1.1294 -0.4112  1.5306
 3700TIP3   OH211063   5.777   3.685   0.501 -0.4272 -0.1337 -0.4880
 3700TIP3    H111064   5.684   3.670   0.511 -0.4539 -0.0432 -0.5924
 3700TIP3    H211065   5.802   3.633   0.425 -0.8050  1.4473 -1.7535
 3701TIP3   OH211066   5.875   3.412   4.270  0.4984  0.3901  0.2999
 3701TIP3    H111067   5.880   3.387   4.178  1.4115  0.9969  0.1760
 3701TIP3    H211068   5.784   3.439   4.283 -0.4081 -2.3523  0.3008
 3702TIP3   OH211069   6.608   3.573   5.438  0.2638  0.5739  0.4166
 3702TIP3    H111070   6.586   3.492   5.485  0.1349  0.4433  0.1306
 3702TIP3    H211071   6.615   3.639   5.507 -0.8771  0.5845  0.5412
 3703TIP3   OH211072   6.147   1.535   0.525  0.4960 -0.0921 -0.3865
 3703TIP3    H111073   6.079   1.530   0.593  1.0078  0.6550  0.2045
 3703TIP3    H211074   6.135   1.456   0.473 -0.9054  0.0852 -0.3761
 3704TIP3   OH211075   1.836   1.866   3.558 -0.2116 -0.0353 -0.3027
 3704TIP3    H111076   1.867   1.779   3.582 -0.1410 -0.0265 -0.3586
 3704TIP3    H211077   1.849   1.870   3.463 -0.0971  0.0812 -0.2831
 3705TIP3   OH211078   0.200   4.857   2.869 -0.5826 -0.2985  0.1040
 3705TIP3    H111079   0.270   4.794   2.849 -0.9863 -0.7571  0.1071
 3705TIP3    H211080   0.208   4.924   2.801 -0.3382 -0.5159 -0.0837
 3706TIP3   OH211081   0.735   5.100   1.086 -0.4891  0.5024 -0.2236
 3706TIP3    H111082   0.750   5.086   0.992  0.0305  1.4580 -0.2864
 3706TIP3    H211083   0.811   5.060   1.129 -2.1617 -2.7548  0.0360
 3707TIP3   OH211084   5.605   2.549   5.387  0.0836  0.4108  0.5324
 3707TIP3    H111085   5.642   2.547   5.475 -1.4413  0.3520  1.1908
 3707TIP3    H211086   5.591   2.641   5.368 -0.4915  0.3668  0.7416
 3708TIP3   OH211087   1.872   1.312   0.325  0.3421  0.1675  0.4996
 3708TIP3    H111088   1.934   1.241   0.336  0.8965 -0.1074 -3.1003
 3708TIP3    H211089   1.926   1.390   0.314  0.0507  0.1918 -1.0018
 3709TIP3   OH211090   0.998   3.492   3.871  0.7629  0.0208 -0.0458
 3709TIP3    H111091   1.001   3.402   3.903 -0.3556  0.5407  1.6228
 3709TIP3    H211092   1.090   3.521   3.871  1.0180 -0.7604  0.4484
 3710TIP3   OH211093   5.930   1.847   0.806  0.7539 -0.2399  0.0056
 3710TIP3    H111094   5.971   1.933   0.818  0.7226 -0.1229 -0.6782
 3710TIP3    H211095   5.853   1.849   0.864  0.6652  0.2497 -0.1223
 3711TIP3   OH211096   4.163   0.055   5.501  0.1926 -0.0827  0.2666
 3711TIP3    H111097   4.095   0.122   5.494  0.2787  0.2040  1.8668
 3711TIP3    H211098   4.243   0.100   5.475 -0.0790 -0.2118 -0.8655
 3712TIP3   OH211099   0.440   6.061   5.803 -0.2622 -0.0816 -0.3335
 3712TIP3    H111100   0.403   6.075   5.889  0.4447  1.1134 -0.1967
 3712TIP3    H211101   0.421   6.141   5.755 -0.3411 -0.5904 -1.1762
 3713TIP3   OH211102   5.113   4.160   5.372  0.6281  0.0725  0.5136
 3713TIP3    H111103   5.117   4.065   5.357 -1.4084 -0.1163  0.7850
 3713TIP3    H211104   5.090   4.197   5.287  1.1402  0.3045  0.4728
 3714TIP3   OH211105   5.802   1.537   4.459 -0.2192 -0.0624 -0.4780
 3714TIP3    H111106   5.801   1.599   4.532  0.1321  0.3681 -0.8300
 3714TIP3    H211107   5.714   1.542   4.422 -0.9438 -1.5271  0.9259
 3715TIP3   OH211108   2.711   3.025   1.496 -0.4682  0.3498 -0.5004
 3715TIP3    H111109   2.769   3.100   1.487 -0.8040  0.6687 -0.0579
 3715TIP3    H211110   2.732   2.969   1.422  1.4129 -0.2295  0.4172
 3716TIP3   OH211111   5.496   3.018   1.172 -0.0589 -0.1368 -0.2313
 3716TIP3    H111112   5.590   3.011   1.192  0.0281 -0.0846 -0.6205
 3716TIP3    H211113   5.459   3.063   1.248  0.4375  0.9668 -0.6295
 3717TIP3   OH211114   4.072   0.941   4.898 -0.6664  0.2501 -0.5269
 3717TIP3    H111115   4.038   0.911   4.982 -0.1885  1.4964  0.1384
 3717TIP3    H211116   4.066   0.865   4.841 -2.0488 -0.3081  0.3166
 3718TIP3   OH211117   4.692   6.118   5.559  0.6355 -0.9074 -0.2926
 3718TIP3    H111118   4.731   6.053   5.618 -0.4336  0.3920  2.0104
 3718TIP3    H211119   4.598   6.104   5.566  0.3197  1.2766  0.8843
 3719TIP3   OH211120   0.514   2.846   3.654  0.6141  0.1171  0.2728
 3719TIP3    H111121   0.557   2.795   3.722  1.4360 -0.2893 -0.5397
 3719TIP3    H211122   0.572   2.920   3.639  2.3886 -1.6869 -2.5541
 3720TIP3   OH211123   5.444   4.136   0.469 -0.3044  0.5982 -0.0086
 3720TIP3    H111124   5.524   4.182   0.446 -1.1525  1.9425 -0.4071
 3720TIP3    H211125   5.419   4.172   0.555  1.7415 -2.9017  2.2857
 3721TIP3   OH211126   3.406   2.768   0.135  0.3042  0.0239  0.6402
 3721TIP3    H111127   3.461   2.798   0.208 -0.6261  0.3805  1.2186
 3721TIP3    H211128   3.331   2.726   0.178  0.3299 -0.8455 -0.1361
 3722TIP3   OH211129   4.356   3.579   4.186  0.0458 -0.2705 -0.0786
 3722TIP3    H111130   4.376   3.630   4.108  0.3243 -1.8124 -1.0630
 3722TIP3    H211131   4.434   3.526   4.201  0.3085  0.5653  1.7514
 3723TIP3   OH211132   5.941   2.687   1.836  0.1116  0.4601  0.0029
 3723TIP3    H111133   5.955   2.640   1.754 -0.9280  1.4675 -0.7624
 3723TIP3    H211134   6.024   2.732   1.852 -0.1313  1.3988 -1.2515
 3724TIP3   OH211135   0.473   2.634   2.587  0.4776 -0.3892  0.2970
 3724TIP3    H111136   0.487   2.618   2.493 -0.7121  0.3507 -0.0335
 3724TIP3    H211137   0.380   2.617   2.600  1.1171 -3.2225  1.9554
 3725TIP3   OH211138   2.614   4.236   2.872  0.2013 -0.0489 -0.3639
 3725TIP3    H111139   2.697   4.248   2.824  0.0289 -2.0606 -1.3187
 3725TIP3    H211140   2.549   4.283   2.819  0.7226  1.7166  0.5015
 3726TIP3   OH211141   3.932   0.056   0.314 -0.1525  0.1645 -0.0730
 3726TIP3    H111142   3.966   0.134   0.359  1.2387 -0.7369  0.5000
 3726TIP3    H211143   3.953  -0.016   0.372 -1.3750 -0.6756 -0.6289
 3727TIP3   OH211144   0.417   3.363   3.903  0.8207 -0.2037 -0.1430
 3727TIP3    H111145   0.506   3.365   3.937  0.3049 -1.2896  1.3938
 3727TIP3    H211146   0.423   3.308   3.825  0.9057 -3.8277  2.1786
 3728TIP3   OH211147   0.917   2.444   4.504 -0.0693  0.1935 -0.3379
 3728TIP3    H111148   1.004   2.481   4.516 -0.5424  1.0344  0.7225
 3728TIP3    H211149   0.921   2.357   4.545  0.2508  0.2569 -0.2343
 3729TIP3   OH211150   7.068   4.189   0.148  0.3360 -0.4782 -0.5748
 3729TIP3    H111151   7.100   4.099   0.144 -1.1420 -1.0649 -0.0811
 3729TIP3    H211152   7.076   4.222   0.059  0.2007 -1.3691 -0.9229
 3730TIP3   OH211153   2.461   0.601   1.943  0.2045 -0.2247 -0.7100
 3730TIP3    H111154   2.374   0.612   1.906  0.4223  0.6570 -0.9771
 3730TIP3    H211155   2.510   0.553   1.877 -0.0679 -0.7177 -0.5616
 3731TIP3   OH211156   5.746   6.487   0.326  0.2308  0.1805 -0.0602
 3731TIP3    H111157   5.779   6.536   0.250 -0.1634 -0.3047 -0.5457
 3731TIP3    H211158   5.808   6.415   0.336 -0.1815 -0.2267 -0.4298
 3732TIP3   OH211159   0.021   5.443   0.145 -0.3195  0.2370 -0.5247
 3732TIP3    H111160   0.021   5.487   0.060 -0.6497  0.5248 -0.3787
 3732TIP3    H211161   0.028   5.513   0.209 -1.2478  0.1232 -0.2792
 3733TIP3   OH211162   5.500   4.841   2.173 -0.2128 -0.0015  0.0453
 3733TIP3    H111163   5.579   4.889   2.198 -0.8837 -0.3879  3.2658
 3733TIP3    H211164   5.488   4.776   2.242 -1.9149 -1.7658 -1.7757
 3734TIP3   OH211165   2.513   1.529   1.815 -0.2467  0.6511 -0.7903
 3734TIP3    H111166   2.475   1.485   1.890  2.2160  1.2522  0.9262
 3734TIP3    H211167   2.440   1.539   1.753 -2.3750  0.1930  1.5049
 3735TIP3   OH211168   0.509   5.881   2.397  0.4399  0.0940 -0.6872
 3735TIP3    H111169   0.568   5.814   2.430  0.1729  0.3564  0.3433
 3735TIP3    H211170   0.543   5.963   2.433  0.3201  0.4297 -1.3190
 3736TIP3   OH211171   0.773   3.207   3.403 -0.2007  0.5154 -0.0343
 3736TIP3    H111172   0.826   3.269   3.351  0.8771  0.2146  0.6682
 3736TIP3    H211173   0.837   3.164   3.460 -1.3562  0.7996  1.5096
 3737TIP3   OH211174   1.570   4.415   3.798 -0.2143  0.0544 -0.1773
 3737TIP3    H111175   1.647   4.360   3.784 -0.6303 -0.3547 -0.9443
 3737TIP3    H211176   1.571   4.434   3.892 -0.2924 -1.6240  0.1952
 3738TIP3   OH211177   5.884   0.710   2.232 -0.4168 -0.4508  0.2175
 3738TIP3    H111178   5.906   0.802   2.238  0.0845 -0.5021 -0.7410
 3738TIP3    H211179   5.961   0.664   2.264 -1.2162 -0.5474  2.2008
 3739TIP3   OH211180   5.071   3.108   4.839 -0.0996 -0.0631 -0.0457
 3739TIP3    H111181   5.001   3.172   4.826 -0.8715 -1.0776 -1.1349
 3739TIP3    H211182   5.082   3.068   4.753  2.2013  0.4172 -0.0280
 3740TIP3   OH211183   6.186   3.152   4.744 -0.6906  0.0567 -0.2240
 3740TIP3    H111184   6.280   3.158   4.765 -0.7194  0.5479 -0.2267
 3740TIP3    H211185   6.156   3.075   4.792 -0.3758  0.1502  0.1308
 3741TIP3   OH211186   2.070   3.177   4.893 -0.3413  0.0375 -0.7458
 3741TIP3    H111187   2.052   3.190   4.800 -0.9174 -3.8171 -1.3709
 3741TIP3    H211188   1.996   3.124   4.924  0.7254 -0.3096  1.4375
 3742TIP3   OH211189   6.091   6.234   2.393  0.1121  0.2757  0.0151
 3742TIP3    H111190   6.118   6.226   2.484  0.4317  1.4237  0.0414
 3742TIP3    H211191   6.017   6.174   2.384  0.4646 -0.2972  0.8635
 3743TIP3   OH211192   6.012   2.505   2.629  0.4263 -0.1982 -0.3334
 3743TIP3    H111193   5.927   2.543   2.651  1.1972  2.0065 -0.8958
 3743TIP3    H211194   6.072   2.580   2.625  1.7511 -1.2569 -2.9971
 3744TIP3   OH211195   5.120   1.096   5.030 -0.1834 -0.4848 -0.4688
 3744TIP3    H111196   5.123   1.054   4.944  0.4922  0.0063 -0.6934
 3744TIP3    H211197   5.132   1.189   5.012 -1.2108 -0.2392  0.0656
 3745TIP3   OH211198   1.893   3.632   3.676 -0.1069 -0.4708  0.1787
 3745TIP3    H111199   1.888   3.568   3.604 -0.2776 -0.8345  0.5060
 3745TIP3    H211200   1.886   3.717   3.633 -0.5015 -0.6936 -0.2124
 3746TIP3   OH211201   3.089   1.630   2.564  0.3940 -0.6981 -0.1856
 3746TIP3    H111202   3.178   1.596   2.555  0.4711 -0.1112 -2.2018
 3746TIP3    H211203   3.059   1.597   2.648  2.2947 -1.4183  0.2633
 3747TIP3   OH211204   0.497   1.723   0.651  0.1425 -0.5629  0.0919
 3747TIP3    H111205   0.439   1.774   0.707  1.3066  0.9360  0.0104
 3747TIP3    H211206   0.578   1.714   0.702  0.5605 -0.7962 -0.5980
 3748TIP3   OH211207   1.153   1.272   3.885 -0.4034  0.4257  0.1457
 3748TIP3    H111208   1.082   1.270   3.949 -0.2953 -0.3908  0.2429
 3748TIP3    H211209   1.165   1.181   3.859 -0.6449  0.7735 -1.2699
 3749TIP3   OH211210   0.191   0.202   2.678 -0.3320  0.0005  0.6253
 3749TIP3    H111211   0.183   0.115   2.639  0.2358  0.4431 -0.5487
 3749TIP3    H211212   0.229   0.186   2.764 -2.3393 -1.0744  1.3759
 3750TIP3   OH211213   6.123   6.261   4.842 -0.2530  0.1408 -0.2416
 3750TIP3    H111214   6.206   6.217   4.861  0.4359  2.3457  2.2823
 3750TIP3    H211215   6.056   6.198   4.870  0.6889  0.3196  2.7773
 3751TIP3   OH211216   1.115   1.949   0.456  1.1272  0.1131  0.0180
 3751TIP3    H111217   1.166   1.894   0.397  1.1461  1.2069 -1.0333
 3751TIP3    H211218   1.064   2.005   0.398 -1.1048 -0.7478  1.0086
 3752TIP3   OH211219   3.970   0.410   5.200  0.6148  0.3808  0.2408
 3752TIP3    H111220   4.054   0.410   5.154  0.1599  0.6764 -0.6070
 3752TIP3    H211221   3.919   0.343   5.156  0.7155 -0.4594  1.3650
 3753TIP3   OH211222   0.725   5.720   5.186 -0.0336  0.1863 -0.5787
 3753TIP3    H111223   0.632   5.704   5.168  0.2080 -0.7648 -1.0259
 3753TIP3    H211224   0.728   5.812   5.213 -1.5534 -0.5598  2.5745
 3754TIP3   OH211225   2.977   2.215   3.030  0.1730 -0.4156 -0.0703
 3754TIP3    H111226   2.949   2.305   3.014 -2.2733 -1.1446 -0.2395
 3754TIP3    H211227   2.909   2.161   2.990  0.4326 -2.3486  1.8935
 3755TIP3   OH211228   0.618   2.436   2.928  0.1304 -0.2936 -0.5731
 3755TIP3    H111229   0.582   2.490   2.999  1.2929 -0.0977 -0.1099
 3755TIP3    H211230   0.643   2.500   2.861  1.1596 -0.2669 -0.1811
 3756TIP3   OH211231   1.002   4.343   5.477  0.4697 -0.1298 -0.5113
 3756TIP3    H111232   1.096   4.335   5.462  0.5902  0.3251 -0.0353
 3756TIP3    H211233   0.981   4.272   5.538  0.9471  1.1503  1.2150
 3757TIP3   OH211234   3.043   2.726   2.414 -0.9830  0.5427  0.2715
 3757TIP3    H111235   3.040   2.671   2.336 -3.4814  0.3483  0.4112
 3757TIP3    H211236   3.045   2.664   2.487 -1.3437  0.6766  0.3972
 3758TIP3   OH211237   3.961   1.443   3.039 -0.1528 -0.5326  0.9058
 3758TIP3    H111238   3.964   1.350   3.015 -1.2072 -0.1869 -0.6326
 3758TIP3    H211239   3.891   1.480   2.986  0.4054  1.2077  1.3224
 3759TIP3   OH211240   5.158   4.357   3.970 -0.3791 -0.5877  0.6860
 3759TIP3    H111241   5.091   4.416   4.005 -0.3638  1.1566 -1.9400
 3759TIP3    H211242   5.110   4.277   3.949 -2.4110  1.3824 -3.3201
 3760TIP3   OH211243   6.541   4.690   2.846  0.0938  0.9070  0.3008
 3760TIP3    H111244   6.480   4.723   2.912 -0.1645  1.1373 -0.0467
 3760TIP3    H211245   6.487   4.675   2.768 -0.1354 -2.0321  0.9431
 3761TIP3   OH211246   1.453   5.420   2.567  0.1465 -0.7188 -0.0674
 3761TIP3    H111247   1.426   5.333   2.596 -2.4636  0.1859  0.4827
 3761TIP3    H211248   1.452   5.473   2.646 -1.8373  0.5764 -0.8822
 3762TIP3   OH211249   0.557   6.686   0.529  0.0757  0.1887  0.6861
 3762TIP3    H111250   0.594   6.601   0.504  0.0534  0.5648 -0.7472
 3762TIP3    H211251   0.614   6.718   0.599  1.7229  0.1867 -0.5978
 3763TIP3   OH211252   0.225   0.826   5.305  0.0065 -0.0695 -0.1865
 3763TIP3    H111253   0.219   0.916   5.273 -0.2141 -0.2121 -0.5473
 3763TIP3    H211254   0.272   0.779   5.236 -0.4164 -0.3656 -0.2756
 3764TIP3   OH211255   0.784   2.600   0.090  0.0221 -0.2429 -0.1342
 3764TIP3    H111256   0.753   2.510   0.101 -0.2551 -0.1804 -0.3880
 3764TIP3    H211257   0.843   2.597   0.014  1.5505 -0.5801  1.0182
 3765TIP3   OH211258   0.631   5.049   4.305  0.5272  0.5527 -0.1991
 3765TIP3    H111259   0.595   5.055   4.393  1.9119  1.5138  0.3304
 3765TIP3    H211260   0.611   5.133   4.264  2.6273  1.3810  0.3331
 3766TIP3   OH211261   7.073   5.545   3.471  0.0236 -0.2153 -0.0834
 3766TIP3    H111262   7.106   5.554   3.382 -1.2112 -2.0585 -0.7932
 3766TIP3    H211263   6.988   5.588   3.469  0.5731  0.9246  0.5954
 3767TIP3   OH211264   0.717   0.075   2.768  0.0721  0.3999  0.6412
 3767TIP3    H111265   0.765   0.135   2.824  0.5634  1.1638 -0.5523
 3767TIP3    H211266   0.779   0.004   2.750  0.3287  0.7471  0.1291
 3768TIP3   OH211267   4.673   0.513   4.088 -0.4318  0.2033  0.2532
 3768TIP3    H111268   4.594   0.484   4.041 -1.9214  1.5317  1.7782
 3768TIP3    H211269   4.724   0.433   4.101 -2.3386 -1.0214  0.6413
 3769TIP3   OH211270   5.808   3.617   3.000 -0.2296  0.1653 -0.2110
 3769TIP3    H111271   5.776   3.543   3.053 -0.9994  1.4321  1.1810
 3769TIP3    H211272   5.742   3.685   3.012  1.0764  1.5267 -0.4178
 3770TIP3   OH211273   0.238   0.593   3.993 -0.2439 -0.0231 -0.6729
 3770TIP3    H111274   0.221   0.674   4.041  0.9623 -0.1669  0.0577
 3770TIP3    H211275   0.180   0.597   3.917 -0.1617  1.5621 -0.6931
 3771TIP3   OH211276   4.480   5.407   4.037  0.5173  0.4836  0.0656
 3771TIP3    H111277   4.501   5.418   3.944 -2.1609  1.0192 -0.5532
 3771TIP3    H211278   4.458   5.314   4.046 -2.8411  1.0427 -0.8060
 3772TIP3   OH211279   3.087   0.260   3.331  0.3908  0.3045  0.0680
 3772TIP3    H111280   3.167   0.313   3.341  1.3270 -0.9234 -0.5732
 3772TIP3    H211281   3.050   0.289   3.248  0.0775  0.9847  0.4387
 3773TIP3   OH211282   3.834   5.002   0.045 -0.0082 -0.1175 -0.3417
 3773TIP3    H111283   3.781   4.972  -0.029 -0.5087 -0.5268  0.1761
 3773TIP3    H211284   3.898   4.933   0.058 -1.3130 -1.1378  1.0063
 3774TIP3   OH211285   2.159   0.467   5.461 -0.3356 -0.2045  0.2949
 3774TIP3    H111286   2.217   0.503   5.528  0.5738 -0.6829 -0.2263
 3774TIP3    H211287   2.100   0.539   5.439  0.3388  0.4185  0.5139
 3775TIP3   OH211288   3.353   2.590   5.464 -0.6506  0.3635  0.2616
 3775TIP3    H111289   3.290   2.627   5.403  1.7628  1.0168 -1.9974
 3775TIP3    H211290   3.353   2.650   5.539 -2.4774  0.4602  0.2164
 3776TIP3   OH211291   1.638   5.140   5.544  0.0493  0.2202  0.8587
 3776TIP3    H111292   1.680   5.226   5.540  1.0308 -0.2365  1.1379
 3776TIP3    H211293   1.706   5.078   5.516 -0.4893 -0.5171  1.1412
 3777TIP3   OH211294   5.920   2.254   0.023  0.2936 -0.1539  0.0786
 3777TIP3    H111295   5.911   2.338  -0.022 -1.6433 -0.3549  0.0353
 3777TIP3    H211296   5.864   2.261   0.100  0.7363 -1.1309  0.5077
 3778TIP3   OH211297   1.471   2.843   4.952 -0.4179 -0.2158 -0.1827
 3778TIP3    H111298   1.559   2.806   4.943 -0.9766 -1.2986 -1.3942
 3778TIP3    H211299   1.414   2.783   4.904 -1.6957  0.9599 -0.1950
 3779TIP3   OH211300   4.785   4.081   5.180 -0.1093 -0.4794  0.4506
 3779TIP3    H111301   4.832   3.999   5.196 -0.8967 -0.8206  1.0371
 3779TIP3    H211302   4.740   4.066   5.097 -0.4249 -0.7160  0.6656
 3780TIP3   OH211303   7.111   6.301   4.757  0.1780 -0.2448 -0.1562
 3780TIP3    H111304   7.047   6.275   4.824 -0.6867 -1.0446 -1.2530
 3780TIP3    H211305   7.089   6.247   4.681  0.5597  1.2498 -1.3786
 3781TIP3   OH211306   2.509   1.828   2.294 -0.2170  0.5274 -0.2757
 3781TIP3    H111307   2.580   1.807   2.235  1.0315  0.6275  1.1359
 3781TIP3    H211308   2.529   1.779   2.374  0.1413  3.1794  1.3572
 3782TIP3   OH211309   1.661   1.412   1.349 -0.2668  0.3706  0.5808
 3782TIP3    H111310   1.604   1.397   1.273  0.3484  0.4274  0.1072
 3782TIP3    H211311   1.617   1.366   1.421 -1.7072  1.6394  0.5799
 3783TIP3   OH211312   3.419   5.022   4.844 -0.4405 -0.4052 -0.0460
 3783TIP3    H111313   3.399   4.928   4.845  0.5589 -0.6573 -1.0269
 3783TIP3    H211314   3.474   5.035   4.922  0.4173 -0.8938 -0.5557
 3784TIP3   OH211315   6.351   6.545   3.080  0.2570  0.1800 -0.0994
 3784TIP3    H111316   6.375   6.564   2.989  0.6700  0.2529  0.0213
 3784TIP3    H211317   6.270   6.495   3.073 -0.1268  0.8421 -0.4735
 3785TIP3   OH211318   4.406   1.849   4.054 -0.1831  0.0340 -0.2430
 3785TIP3    H111319   4.415   1.808   3.968 -0.6067  0.5001 -0.5198
 3785TIP3    H211320   4.425   1.779   4.116 -1.4788 -0.7435 -0.6917
 3786TIP3   OH211321   5.730   1.916   5.643  0.2121 -0.3369 -0.0398
 3786TIP3    H111322   5.640   1.884   5.650  0.2651 -0.6308 -0.6165
 3786TIP3    H211323   5.721   2.010   5.630 -0.0077 -0.3522 -0.0113
 3787TIP3   OH211324   6.622   3.473   4.714 -0.1034 -0.3574  0.2956
 3787TIP3    H111325   6.704   3.522   4.714 -0.0233 -0.2335 -3.5445
 3787TIP3    H211326   6.557   3.534   4.681 -1.6148 -0.7786  2.2854
 3788TIP3   OH211327   5.226   5.224   2.914 -0.4396  0.0677  0.1622
 3788TIP3    H111328   5.234   5.260   2.825  1.4828  2.0821  1.0662
 3788TIP3    H211329   5.248   5.131   2.903 -2.6844 -0.3606 -1.7844
 3789TIP3   OH211330   3.906   4.349   2.053  0.1796 -0.7642 -0.2671
 3789TIP3    H111331   3.980   4.331   2.112  1.2396  1.8994 -0.6464
 3789TIP3    H211332   3.859   4.421   2.095 -2.2019 -2.2965 -0.1177
 3790TIP3   OH211333   6.835   5.845   3.064 -0.0468  0.4595 -0.0016
 3790TIP3    H111334   6.814   5.811   2.976  0.9376 -1.5622  0.4873
 3790TIP3    H211335   6.891   5.921   3.048  0.2393  0.0294 -1.1221
 3791TIP3   OH211336   3.209   5.285   1.351 -0.3022  0.3535  0.1042
 3791TIP3    H111337   3.121   5.323   1.350 -0.5276 -0.1645  0.4733
 3791TIP3    H211338   3.201   5.205   1.402  0.4462  0.4432  0.3726
 3792TIP3   OH211339   6.298   0.588   1.265  0.2122  0.2353  0.0309
 3792TIP3    H111340   6.274   0.536   1.188  1.1466  0.3290 -0.3323
 3792TIP3    H211341   6.355   0.530   1.316 -1.4775 -0.3442  1.3813
 3793TIP3   OH211342   3.050   0.034   0.926  0.0733  0.3675 -0.2826
 3793TIP3    H111343   2.998   0.009   1.002 -0.2807  3.0883  0.4881
 3793TIP3    H211344   3.000   0.104   0.884  0.5872 -0.5935 -2.6861
 3794TIP3   OH211345   1.575   3.320   1.731 -0.3418  0.2899  0.5625
 3794TIP3    H111346   1.626   3.330   1.811  0.2982 -0.9727  0.3364
 3794TIP3    H211347   1.518   3.245   1.747 -0.6088  0.3701  0.0394
 3795TIP3   OH211348   0.999   6.479   3.873 -0.2324  0.0345 -0.0926
 3795TIP3    H111349   1.053   6.519   3.804  0.6271  2.3353  1.7849
 3795TIP3    H211350   0.966   6.399   3.833  0.2310  1.2250 -3.1787
 3796TIP3   OH211351   5.274   2.234   2.957 -0.2997  0.0373 -0.2882
 3796TIP3    H111352   5.200   2.220   2.897 -1.4494 -1.4163  1.3764
 3796TIP3    H211353   5.240   2.210   3.043  1.5062  1.4175  0.8741
 3797TIP3   OH211354   4.927   0.819   2.248  0.1541 -0.2725 -0.1586
 3797TIP3    H111355   4.931   0.736   2.294 -1.0459 -0.6917 -0.7820
 3797TIP3    H211356   4.844   0.818   2.201  1.1872  0.2477 -2.1391
 3798TIP3   OH211357   6.639   3.738   3.001  0.3914  0.0191  0.2115
 3798TIP3    H111358   6.572   3.672   2.988 -1.2841  1.4135  1.3340
 3798TIP3    H211359   6.609   3.813   2.949  1.7215  0.2686 -0.2362
 3799TIP3   OH211360   5.552   2.520   0.526  0.5158  0.0605  0.5599
 3799TIP3    H111361   5.600   2.466   0.588  0.6082  0.6072  0.9662
 3799TIP3    H211362   5.460   2.497   0.541  0.6750 -2.4632 -1.5684
 3800TIP3   OH211363   1.126   4.964   3.360  0.4411  0.2587 -0.1563
 3800TIP3    H111364   1.053   5.023   3.377  1.6468  1.8365 -0.2055
 3800TIP3    H211365   1.133   4.910   3.438 -0.5491  0.3368 -0.0075
 3801TIP3   OH211366   6.060   0.406   2.713  0.4122 -0.5207  0.1922
 3801TIP3    H111367   6.128   0.389   2.647 -0.3626  0.0049 -0.7735
 3801TIP3    H211368   6.106   0.454   2.782  0.9873  0.0376 -0.5502
 3802TIP3   OH211369   3.188   3.193   1.249  0.3346 -0.0059  0.1140
 3802TIP3    H111370   3.228   3.132   1.189 -3.0015  0.0988 -2.5417
 3802TIP3    H211371   3.149   3.260   1.193 -2.0934  0.6959  2.3981
 3803TIP3   OH211372   1.588   1.030   4.268  0.2806  1.2257 -0.7756
 3803TIP3    H111373   1.520   1.085   4.306  0.3146  0.6594  0.1476
 3803TIP3    H211374   1.669   1.080   4.279  0.0921  1.6967 -1.4545
 3804TIP3   OH211375   0.191   1.587   4.540 -0.0630 -0.2317 -0.0674
 3804TIP3    H111376   0.174   1.681   4.543  1.9454  0.1408  1.5420
 3804TIP3    H211377   0.234   1.572   4.456  2.6836  0.9465  1.0264
 3805TIP3   OH211378   6.253   2.736   2.232  0.2198  0.0772 -0.0021
 3805TIP3    H111379   6.303   2.766   2.156 -0.0681  1.3177  0.2685
 3805TIP3    H211380   6.244   2.815   2.287  0.0855 -0.6966  1.1271
 3806TIP3   OH211381   3.157   0.203   2.349  0.0794  0.1866 -0.0937
 3806TIP3    H111382   3.210   0.220   2.272  0.2547  0.7676  0.1506
 3806TIP3    H211383   3.067   0.199   2.316  0.3801 -3.5003 -0.9755
 3807TIP3   OH211384   3.504   2.384   1.236 -0.0368  0.3422 -0.4194
 3807TIP3    H111385   3.466   2.419   1.156 -0.2193  1.1684  0.0251
 3807TIP3    H211386   3.504   2.457   1.297  2.8017  0.5580 -0.5603
 3808TIP3   OH211387   6.738   6.308   1.599 -0.0060  0.1961  0.0292
 3808TIP3    H111388   6.793   6.238   1.636 -0.0627  0.0802 -0.1031
 3808TIP3    H211389   6.663   6.262   1.562  0.6617  0.1656 -1.3740
 3809TIP3   OH211390   7.142   0.282   2.006 -0.1490 -0.6215  0.1213
 3809TIP3    H111391   7.211   0.302   1.944 -0.6432 -0.7477 -0.4832
 3809TIP3    H211392   7.061   0.310   1.963 -0.3834  0.5821  1.2785
 3810TIP3   OH211393   7.137   0.970   2.351  0.2837 -0.5941 -0.0201
 3810TIP3    H111394   7.221   1.013   2.361  0.0720 -0.1487 -0.1375
 3810TIP3    H211395   7.122   0.968   2.256 -0.1551 -0.0445  0.0312
 3811TIP3   OH211396   0.705   2.254   3.276 -0.3520 -0.6189 -0.4365
 3811TIP3    H111397   0.764   2.303   3.333  0.4054 -0.0034 -1.7004
 3811TIP3    H211398   0.635   2.316   3.255 -1.5123 -1.3511  1.0734
 3812TIP3   OH211399   2.441   4.934   2.155  0.0227  0.2130 -0.1900
 3812TIP3    H111400   2.425   4.911   2.063  0.2637  1.1340 -0.4744
 3812TIP3    H211401   2.399   5.019   2.165  1.2074  0.7733  0.1652
 3813TIP3   OH211402   2.638   0.489   5.828  0.3315  0.1076 -0.6452
 3813TIP3    H111403   2.615   0.410   5.780  0.6987 -0.1752 -0.3652
 3813TIP3    H211404   2.694   0.458   5.900 -0.7784  0.4293  0.3886
 3814TIP3   OH211405   3.580   1.071   4.951 -0.1466 -0.2559 -0.3142
 3814TIP3    H111406   3.651   1.110   4.900 -0.3151 -1.0317 -1.1517
 3814TIP3    H211407   3.503   1.122   4.927 -0.1169 -0.2453 -0.3868
 3815TIP3   OH211408   4.392   2.771   1.314 -0.2873  0.0158 -0.1313
 3815TIP3    H111409   4.449   2.829   1.263 -0.1711  0.5234  0.5690
 3815TIP3    H211410   4.446   2.741   1.386 -0.5156 -0.5417 -0.1891
 3816TIP3   OH211411   0.021   3.843   4.558 -0.4936  0.1498 -0.3469
 3816TIP3    H111412   0.061   3.930   4.559  0.2645 -0.1870 -0.8056
 3816TIP3    H211413   0.072   3.793   4.622  0.8247 -0.7029 -1.9805
 3817TIP3   OH211414   1.800   5.352   2.175 -0.1718 -0.2086  0.2454
 3817TIP3    H111415   1.860   5.362   2.101  0.1056 -0.0075  0.4952
 3817TIP3    H211416   1.855   5.366   2.252 -0.4956 -0.2465  0.4826
 3818TIP3   OH211417   0.865   1.280   3.983 -0.0280 -0.0386 -0.0291
 3818TIP3    H111418   0.855   1.301   4.076 -2.1630 -1.7883  0.2260
 3818TIP3    H211419   0.780   1.302   3.944  0.5423 -0.1539 -1.3972
 3819TIP3   OH211420   5.701   3.343   2.277 -0.2750  0.1562  0.1384
 3819TIP3    H111421   5.716   3.278   2.208 -2.6704 -0.8468  0.4345
 3819TIP3    H211422   5.668   3.420   2.231  1.7172  0.8879 -0.1311
 3820TIP3   OH211423   2.583   5.566   2.033  0.4529 -0.1212  0.0301
 3820TIP3    H111424   2.643   5.630   1.996 -0.3858  0.1089 -1.0055
 3820TIP3    H211425   2.541   5.612   2.106  0.9169 -0.0026  0.2271
 3821TIP3   OH211426   0.269   0.652   0.497  0.6325  0.3300  0.5093
 3821TIP3    H111427   0.283   0.725   0.436  1.5540 -0.6152 -0.4657
 3821TIP3    H211428   0.280   0.691   0.584 -0.7860  1.7231  0.1053
 3822TIP3   OH211429   1.969   5.510   2.915  0.0504  0.1995  0.0803
 3822TIP3    H111430   1.931   5.442   2.971 -0.1240  0.2857  0.0674
 3822TIP3    H211431   2.012   5.570   2.977 -3.5428  2.5686  0.6152
 3823TIP3   OH211432   6.717   1.469   2.447  0.9502 -0.2206  0.2846
 3823TIP3    H111433   6.765   1.413   2.386 -0.6643 -1.9915  0.5239
 3823TIP3    H211434   6.758   1.453   2.532 -1.3939 -3.7473  0.9963
 3824TIP3   OH211435   4.186   6.422   0.078  0.1542  0.4676 -0.1235
 3824TIP3    H111436   4.094   6.433   0.101  0.4665  2.2528  0.4348
 3824TIP3    H211437   4.232   6.486   0.133  1.8327 -0.9857  0.2601
 3825TIP3   OH211438   0.551   4.609   0.010  0.6386 -0.3663  0.4269
 3825TIP3    H111439   0.490   4.596   0.082  1.1457  0.9550  1.1342
 3825TIP3    H211440   0.579   4.521  -0.014 -0.2455 -0.8817  1.2305
 3826TIP3   OH211441   3.365   2.131   0.035  0.2043  0.5287  0.1394
 3826TIP3    H111442   3.288   2.077   0.015  1.8098 -1.0969 -2.1432
 3826TIP3    H211443   3.419   2.076   0.091  1.6569 -0.1699 -1.8500
 3827TIP3   OH211444   2.570   0.623   2.179  0.7864  0.3955 -0.0475
 3827TIP3    H111445   2.643   0.672   2.142 -0.0575  0.1402 -2.2412
 3827TIP3    H211446   2.515   0.603   2.103 -0.4983 -1.1927  1.2394
 3828TIP3   OH211447   3.374   4.508   4.942 -0.1362 -0.3644  0.5297
 3828TIP3    H111448   3.287   4.509   4.981 -0.2609  0.3504  0.2558
 3828TIP3    H211449   3.408   4.421   4.962 -0.9829 -0.7222  0.4852
 3829TIP3   OH211450   6.197   2.076   3.668  0.1352 -0.1477  0.0964
 3829TIP3    H111451   6.130   2.013   3.696  0.0946  0.0234  0.3883
 3829TIP3    H211452   6.254   2.086   3.745 -0.3629  0.8332  0.3555
 3830TIP3   OH211453   4.895   0.108   0.346 -0.6315  0.1573 -0.8141
 3830TIP3    H111454   4.857   0.164   0.414 -2.1403 -1.0797 -0.5957
 3830TIP3    H211455   4.983   0.088   0.379 -0.3336  1.7394 -0.5408
 3831TIP3   OH211456   0.305   0.716   1.268  0.4692 -0.1772 -0.6569
 3831TIP3    H111457   0.233   0.773   1.242  0.5592  0.2002 -0.0791
 3831TIP3    H211458   0.263   0.644   1.314  0.3690 -0.5145 -1.2621
 3832TIP3   OH211459   4.709   5.238   1.297  0.1966  0.9107  0.5743
 3832TIP3    H111460   4.616   5.257   1.282  0.2626  1.1179  0.4265
 3832TIP3    H211461   4.743   5.216   1.211  0.7603  2.8832  0.2573
 3833TIP3   OH211462   5.118   4.991   4.333  0.2860  0.6419 -0.9514
 3833TIP3    H111463   5.027   4.980   4.361 -0.0828  0.8810 -2.0136
 3833TIP3    H211464   5.130   5.086   4.325  1.2956  0.7619  1.2337
 3834TIP3   OH211465   1.530   5.396   5.879 -0.2886 -0.3547 -0.0336
 3834TIP3    H111466   1.484   5.474   5.909 -0.7082 -0.5461 -0.1744
 3834TIP3    H211467   1.615   5.428   5.849 -0.6355  0.1152 -0.5199
 3835TIP3   OH211468   7.059   0.755   3.557  0.0364  0.4287  0.2703
 3835TIP3    H111469   7.054   0.683   3.493  2.8636  2.5451 -2.6477
 3835TIP3    H211470   7.124   0.727   3.621  0.6376  0.0944 -0.4732
 3836TIP3   OH211471   4.385   1.538   5.698 -0.0361 -0.1793 -0.6072
 3836TIP3    H111472   4.338   1.459   5.670 -0.7246 -0.0537  0.1767
 3836TIP3    H211473   4.380   1.537   5.793 -2.0327  1.9606 -0.5979
 3837TIP3   OH211474   1.965   0.327   1.961 -0.3376  0.0341  0.2893
 3837TIP3    H111475   1.942   0.359   1.874 -1.1655  0.5623  0.6816
 3837TIP3    H211476   1.916   0.245   1.970  0.4884 -0.5149 -0.0881
 3838TIP3   OH211477   4.758   4.414   3.406  0.1060 -0.6249 -0.6041
 3838TIP3    H111478   4.732   4.495   3.362 -0.3977 -1.5887 -2.1518
 3838TIP3    H211479   4.843   4.392   3.369  2.0635  1.0506  2.4581
 3839TIP3   OH211480   5.703   5.689   4.609  0.6609  0.2542 -0.1499
 3839TIP3    H111481   5.783   5.646   4.638  0.9708  1.0338  0.1725
 3839TIP3    H211482   5.673   5.739   4.685  0.1517  0.3848 -0.4293
 3840TIP3   OH211483   3.550   1.149   0.497 -0.1794  0.3836  0.1370
 3840TIP3    H111484   3.602   1.110   0.427  0.3958 -1.0300  1.3138
 3840TIP3    H211485   3.476   1.189   0.452  0.8455  0.6498 -1.3863
 3841TIP3   OH211486   0.345   2.366   3.156 -0.1526  0.0771  0.7901
 3841TIP3    H111487   0.391   2.448   3.173 -0.0848  0.4582 -0.9927
 3841TIP3    H211488   0.252   2.388   3.162 -0.1310  0.1411  0.8902
 3842TIP3   OH211489   5.690   5.907   3.166  0.3716 -0.0314  0.0022
 3842TIP3    H111490   5.709   5.854   3.243 -1.5033 -1.1690 -0.2613
 3842TIP3    H211491   5.624   5.969   3.195  0.0790 -0.0856 -0.5259
 3843TIP3   OH211492   2.478   6.701   2.150 -0.3040  0.4115  0.0535
 3843TIP3    H111493   2.444   6.718   2.063  0.6938  0.4654 -0.3375
 3843TIP3    H211494   2.400   6.681   2.203 -0.8585 -0.1663 -0.9654
 3844TIP3   OH211495   6.039   5.865   1.061 -0.3870 -0.0724  0.2786
 3844TIP3    H111496   6.071   5.778   1.085  0.5185  0.3712  0.7380
 3844TIP3    H211497   6.113   5.924   1.080 -0.8862  0.7574 -0.2903
 3845TIP3   OH211498   0.164   0.491   1.338 -0.1506 -0.1453  0.0777
 3845TIP3    H111499   0.142   0.419   1.398 -1.5854 -0.5211 -0.8514
 3845TIP3    H211500   0.192   0.448   1.258 -1.8776  0.2581 -0.8008
 3846TIP3   OH211501   0.059   3.625   4.743  0.4853 -0.2387 -0.1780
 3846TIP3    H111502   0.036   3.553   4.684 -1.7027  1.4749 -1.5591
 3846TIP3    H211503   0.019   3.601   4.826  1.1491 -1.3285 -0.1453
 3847TIP3   OH211504   3.331   0.228   3.096  0.0177  1.0486  0.4916
 3847TIP3    H111505   3.306   0.199   3.008 -0.6569  1.2596  0.6110
 3847TIP3    H211506   3.293   0.163   3.155  1.2940  0.3532  0.5969
 3848TIP3   OH211507   3.805   5.057   1.457 -0.0805 -0.1545 -0.3099
 3848TIP3    H111508   3.819   5.040   1.363 -1.4785 -1.6787 -0.2876
 3848TIP3    H211509   3.750   4.984   1.486  0.6206  0.1066  1.7949
 3849TIP3   OH211510   2.108   4.368   1.973  0.0340 -0.0854  0.0419
 3849TIP3    H111511   2.093   4.342   1.882  0.4912  0.8266 -0.3026
 3849TIP3    H211512   2.191   4.415   1.971 -2.1085  4.1041  0.0498
 3850TIP3   OH211513   4.574   0.926   4.110 -0.7627 -0.4229  0.3096
 3850TIP3    H111514   4.624   0.845   4.104  1.2356  0.6436  1.4718
 3850TIP3    H211515   4.520   0.927   4.031  2.2683 -0.9334 -1.9583
 3851TIP3   OH211516   1.717   0.340   1.365 -0.2248 -0.1072 -0.1568
 3851TIP3    H111517   1.660   0.415   1.354  0.2010  0.2791  0.2099
 3851TIP3    H211518   1.705   0.314   1.456  1.4994  1.1034  0.4748
 3852TIP3   OH211519   5.514   0.474   1.711  0.5769 -0.3010 -0.2350
 3852TIP3    H111520   5.498   0.522   1.629 -0.5446  2.0205  1.2339
 3852TIP3    H211521   5.583   0.524   1.754  0.0554 -0.5584  0.9202
 3853TIP3   OH211522   1.628   5.550   0.642 -0.3681 -0.0583  0.4503
 3853TIP3    H111523   1.574   5.472   0.652  0.6465 -0.5335  2.9734
 3853TIP3    H211524   1.717   5.519   0.660  0.7590  0.8538 -2.8027
 3854TIP3   OH211525   0.356   2.309   0.520 -0.4132  0.3263  0.1901
 3854TIP3    H111526   0.440   2.290   0.478  0.3431  1.3726  1.1670
 3854TIP3    H211527   0.351   2.248   0.593 -0.9321 -0.3346 -0.3852
 3855TIP3   OH211528   0.231   5.659   4.927 -0.0160 -0.0641 -0.2967
 3855TIP3    H111529   0.159   5.716   4.953 -0.2389 -0.4379 -0.0982
 3855TIP3    H211530   0.210   5.574   4.965 -0.0617 -0.4778 -1.2226
 3856TIP3   OH211531   6.046   5.669   2.642  0.3362 -0.3292  0.0294
 3856TIP3    H111532   6.002   5.679   2.558  1.4368 -2.0705 -0.8044
 3856TIP3    H211533   5.975   5.659   2.705 -0.5462  2.1838 -0.4370
 3857TIP3   OH211534   5.766   6.117   1.626 -0.3047  0.1544  0.5212
 3857TIP3    H111535   5.741   6.049   1.689  2.0140 -0.5781  0.7567
 3857TIP3    H211536   5.828   6.073   1.568  0.5094  1.8211  0.0908
 3858TIP3   OH211537   1.585   6.560   1.137 -0.1296 -0.3316  0.0153
 3858TIP3    H111538   1.593   6.652   1.113  0.9923  0.0182  1.5900
 3858TIP3    H211539   1.660   6.518   1.094 -0.4749 -0.4731 -0.4606
 3859TIP3   OH211540   5.361   3.806   1.552  0.3307 -0.4631 -0.2625
 3859TIP3    H111541   5.383   3.713   1.549 -0.5566 -0.7174  0.6690
 3859TIP3    H211542   5.284   3.814   1.495 -1.0641 -0.7648  1.4891
 3860TIP3   OH211543   3.017   1.670   4.490  0.2344 -0.1264 -0.3880
 3860TIP3    H111544   3.018   1.720   4.408  0.3792  1.8876  0.7771
 3860TIP3    H211545   2.927   1.639   4.498 -0.7359  2.6829  0.3817
 3861TIP3   OH211546   4.259   3.888   4.339 -0.0584  0.6376  0.2088
 3861TIP3    H111547   4.245   3.893   4.244 -0.1090 -1.6504  0.0303
 3861TIP3    H211548   4.354   3.876   4.348 -0.2039 -0.5812  0.3188
 3862TIP3   OH211549   3.619   6.747   2.076  0.0667 -0.1453 -0.3474
 3862TIP3    H111550   3.530   6.728   2.105  0.1651 -0.4229 -0.2270
 3862TIP3    H211551   3.667   6.771   2.155  0.6875 -2.2294 -0.0319
 3863TIP3   OH211552   5.264   5.853   4.549 -0.3726  0.0042 -0.0776
 3863TIP3    H111553   5.260   5.877   4.456 -1.2216  0.2610  0.0230
 3863TIP3    H211554   5.202   5.781   4.558 -0.0870 -0.2023  0.2400
 3864TIP3   OH211555   5.027   2.888   1.641 -0.9042 -0.3119 -0.2497
 3864TIP3    H111556   5.078   2.924   1.568  1.2821 -0.5750  1.0727
 3864TIP3    H211557   4.978   2.963   1.675 -0.2701  0.3033 -0.6513
 3865TIP3   OH211558   0.584   2.837   1.345 -0.0651 -0.5987 -0.1088
 3865TIP3    H111559   0.534   2.756   1.339  0.0586 -0.6826  0.0038
 3865TIP3    H211560   0.666   2.812   1.387  1.4515 -1.1066 -3.1126
 3866TIP3   OH211561   6.052   1.227   0.593 -0.2103  0.2994 -0.2291
 3866TIP3    H111562   6.047   1.232   0.497 -1.0636 -0.6123 -0.2496
 3866TIP3    H211563   5.962   1.244   0.622 -0.2120 -0.6063  0.3361
 3867TIP3   OH211564   0.610   0.477   5.112  0.0892  0.6094  0.0178
 3867TIP3    H111565   0.528   0.466   5.161  0.3939  0.4586  0.5042
 3867TIP3    H211566   0.675   0.431   5.165  0.1246 -1.0180 -1.3767
 3868TIP3   OH211567   4.456   4.343   2.380  0.2172  0.0496  0.4685
 3868TIP3    H111568   4.416   4.336   2.293  0.2644  2.7330  0.1686
 3868TIP3    H211569   4.391   4.388   2.433  0.2601 -1.4074  1.8445
 3869TIP3   OH211570   0.207   0.228   3.834 -0.1409 -0.3312 -0.4007
 3869TIP3    H111571   0.173   0.295   3.774 -0.2568  0.8014  0.8873
 3869TIP3    H211572   0.135   0.212   3.895 -0.5152 -2.4665 -1.3110
 3870TIP3   OH211573   6.136   2.488   3.666  0.5019  0.4973  0.2303
 3870TIP3    H111574   6.062   2.472   3.607 -0.7522  2.5705  1.1543
 3870TIP3    H211575   6.159   2.580   3.651  0.1730  1.0785  2.8928
 3871TIP3   OH211576   0.628   1.282   3.051 -0.5965  0.0260  0.3431
 3871TIP3    H111577   0.608   1.374   3.071  1.4836  0.4926  0.5724
 3871TIP3    H211578   0.669   1.249   3.130  1.5806 -0.1137 -0.7654
 3872TIP3   OH211579   6.554   6.074   3.952  0.8157  0.3519 -0.2282
 3872TIP3    H111580   6.505   6.113   3.879 -0.2747  0.2940  0.4516
 3872TIP3    H211581   6.556   5.981   3.932  0.6554  0.3559 -0.2701
 3873TIP3   OH211582   0.789   2.451   2.596 -1.0070 -0.3847  0.4628
 3873TIP3    H111583   0.739   2.440   2.515 -3.9448 -4.4964  2.5009
 3873TIP3    H211584   0.745   2.524   2.641 -1.0098  0.2226 -0.4912
 3874TIP3   OH211585   3.885   3.491   4.433  0.2928 -0.0755  0.3003
 3874TIP3    H111586   3.903   3.547   4.357 -0.7309 -0.5438 -0.2899
 3874TIP3    H211587   3.915   3.404   4.407 -0.0665 -0.2386  0.4318
 3875TIP3   OH211588   1.039   0.609   1.739  0.0206  0.1906 -0.2595
 3875TIP3    H111589   0.964   0.643   1.787  1.5643  1.3305  1.4890
 3875TIP3    H211590   1.044   0.662   1.660 -0.5065  0.7100  0.0492
 3876TIP3   OH211591   1.366   1.042   4.911  0.0334  0.2326 -0.0929
 3876TIP3    H111592   1.289   0.993   4.882  1.6634 -2.0665 -0.8533
 3876TIP3    H211593   1.358   1.042   5.007 -0.4744 -0.7697 -0.1134
 3877TIP3   OH211594   6.967   2.345   4.037  0.0051 -0.5069  0.4552
 3877TIP3    H111595   6.967   2.334   3.942  1.1433  0.4596  0.3304
 3877TIP3    H211596   7.058   2.365   4.059 -0.3097 -0.4072  1.7091
 3878TIP3   OH211597   5.448   1.772   2.114 -0.2124  0.1268 -0.4127
 3878TIP3    H111598   5.493   1.828   2.050 -0.0641  0.9127  0.3507
 3878TIP3    H211599   5.518   1.723   2.157 -0.2132  0.3359 -0.1707
 3879TIP3   OH211600   2.147   3.431   2.271 -0.4319 -0.0299  0.1004
 3879TIP3    H111601   2.198   3.352   2.251 -2.0780 -1.1813  0.3413
 3879TIP3    H211602   2.184   3.463   2.354 -0.2406 -0.9543  0.3785
 3880TIP3   OH211603   2.709   4.438   4.669  0.3401  0.7519  0.0461
 3880TIP3    H111604   2.715   4.402   4.580  2.4057  1.0998 -0.0046
 3880TIP3    H211605   2.654   4.516   4.659  0.0168  0.4346 -0.7882
 3881TIP3   OH211606   2.309   5.871   1.118  0.2000 -0.0663  0.0411
 3881TIP3    H111607   2.266   5.785   1.124 -0.2552  0.0435 -1.3162
 3881TIP3    H211608   2.261   5.917   1.049 -0.5294  1.8683  1.7400
 3882TIP3   OH211609   5.701   4.961   2.688  0.0799 -0.6727 -0.1737
 3882TIP3    H111610   5.607   4.958   2.707 -0.2661 -1.6903 -1.8064
 3882TIP3    H211611   5.743   4.940   2.771 -1.1129  0.0878  0.6511
 3883TIP3   OH211612   4.262   2.253   4.107  0.0008  0.6491  0.0507
 3883TIP3    H111613   4.314   2.281   4.182 -0.6624  1.8402  0.0746
 3883TIP3    H211614   4.322   2.259   4.032  0.1634  1.1195  0.2184
 3884TIP3   OH211615   1.867   2.706   1.372  0.3032 -0.4774 -0.1416
 3884TIP3    H111616   1.831   2.635   1.426 -0.1574 -0.7372 -0.7828
 3884TIP3    H211617   1.899   2.662   1.294 -1.5662  0.1998 -1.3491
 3885TIP3   OH211618   0.714   2.040   4.823  0.0494  0.1509  0.1016
 3885TIP3    H111619   0.663   1.960   4.823 -0.1211  0.2078  2.2160
 3885TIP3    H211620   0.707   2.074   4.913  0.5054  2.2757 -0.5957
 3886TIP3   OH211621   2.287   3.488   2.872 -0.4408  0.0332 -0.4331
 3886TIP3    H111622   2.315   3.495   2.963 -1.6362  1.2728 -0.1175
 3886TIP3    H211623   2.357   3.440   2.828  0.0985 -0.6800  1.1583
 3887TIP3   OH211624   1.839   5.273   3.531 -0.1851  0.0058 -0.0923
 3887TIP3    H111625   1.920   5.236   3.567 -0.4233 -2.2164 -1.6063
 3887TIP3    H211626   1.868   5.333   3.462  0.2530 -1.5754 -1.3584
 3888TIP3   OH211627   1.657   2.775   0.829  0.6761 -0.3395 -0.0262
 3888TIP3    H111628   1.607   2.769   0.747 -2.4436 -0.5385  1.7223
 3888TIP3    H211629   1.736   2.723   0.813 -0.6518 -1.8198 -2.3694
 3889TIP3   OH211630   0.464   3.953   5.681 -0.3898 -0.3436  0.0012
 3889TIP3    H111631   0.490   3.917   5.597  1.0499 -1.3091  0.8187
 3889TIP3    H211632   0.545   3.981   5.722 -1.2596  1.8741  0.3235
 3890TIP3   OH211633   4.072   0.170   2.358 -0.5991 -0.1733 -0.6123
 3890TIP3    H111634   4.134   0.243   2.350  0.7286 -1.1138  0.4404
 3890TIP3    H211635   3.987   0.211   2.369  0.2989  1.2830  1.5168
 3891TIP3   OH211636   6.624   4.778   4.384  0.3920 -0.3694 -0.2501
 3891TIP3    H111637   6.580   4.723   4.320  1.7840 -1.9252  0.0739
 3891TIP3    H211638   6.659   4.717   4.449  2.0286  0.8730  0.0971
 3892TIP3   OH211639   5.354   2.738   0.603  0.3529 -0.6427 -0.3854
 3892TIP3    H111640   5.364   2.706   0.693  2.1977 -1.9234 -0.9892
 3892TIP3    H211641   5.313   2.665   0.556 -1.4849  0.3589 -0.4544
 3893TIP3   OH211642   3.358   3.392   1.774  0.0268 -0.4675  0.4994
 3893TIP3    H111643   3.430   3.329   1.783  0.7540  0.1679 -0.6573
 3893TIP3    H211644   3.376   3.438   1.692 -1.1671  0.3972  0.6951
 3894TIP3   OH211645   3.782   0.089   1.124  0.1434  0.2455 -0.5690
 3894TIP3    H111646   3.867   0.072   1.082 -0.1841  0.2680 -1.2537
 3894TIP3    H211647   3.720   0.036   1.073 -0.3942  0.9581 -0.6643
 3895TIP3   OH211648   7.059   3.661   5.276  0.1460 -0.1738 -0.2953
 3895TIP3    H111649   7.081   3.680   5.185  0.0877 -0.7582 -0.4365
 3895TIP3    H211650   7.004   3.583   5.272  0.7671 -0.6655  0.2912
 3896TIP3   OH211651   4.807   4.424   1.542 -0.4446 -0.1135  0.3486
 3896TIP3    H111652   4.895   4.458   1.559 -0.4426 -0.0335  0.1764
 3896TIP3    H211653   4.766   4.490   1.487 -0.3381 -0.5256 -0.2387
 3897TIP3   OH211654   2.962   3.686   0.187  0.1006  0.3389 -0.1996
 3897TIP3    H111655   3.003   3.644   0.262 -0.5444 -0.0960 -0.0829
 3897TIP3    H211656   3.034   3.729   0.141  0.6107 -0.0212  0.2557
 3898TIP3   OH211657   2.839   6.630   3.983  0.2278  0.5400  0.3692
 3898TIP3    H111658   2.763   6.604   3.930 -0.6509  0.4353  1.6489
 3898TIP3    H211659   2.889   6.549   3.994 -0.9730 -0.0374  1.8774
 3899TIP3   OH211660   5.113   5.582   2.816  0.2956  0.3081 -0.1378
 3899TIP3    H111661   5.042   5.518   2.814  0.5464 -0.0142  0.8815
 3899TIP3    H211662   5.190   5.533   2.844  1.5086  0.1407 -3.3003
 3900TIP3   OH211663   0.774   6.138   3.512  0.2492 -0.1242  0.7779
 3900TIP3    H111664   0.687   6.157   3.548 -0.6200 -2.1673 -0.1097
 3900TIP3    H211665   0.783   6.199   3.439 -0.9590 -0.6361  0.1674
 3901TIP3   OH211666   5.610   0.746   2.717  0.3596  0.4529 -0.2691
 3901TIP3    H111667   5.664   0.689   2.771  2.1716  1.0417 -1.3385
 3901TIP3    H211668   5.530   0.696   2.700  1.5321 -1.4431 -0.4908
 3902TIP3   OH211669   2.045   1.901   0.431  0.5231  0.8676 -0.3161
 3902TIP3    H111670   1.997   1.840   0.487  0.8821  0.9771  0.1194
 3902TIP3    H211671   2.133   1.863   0.423  0.1190  0.1919 -1.8632
 3903TIP3   OH211672   1.822   1.225   5.626 -0.1944  0.7074  0.1696
 3903TIP3    H111673   1.778   1.235   5.541 -1.3154 -1.5393  0.4110
 3903TIP3    H211674   1.837   1.315   5.656 -0.6110  1.5563 -1.9689
 3904TIP3   OH211675   2.545   5.571   5.814  0.0400  0.1241  0.3328
 3904TIP3    H111676   2.527   5.552   5.906  1.8649 -3.2644  0.1426
 3904TIP3    H211677   2.624   5.625   5.815  0.2461 -0.1836  0.7392
 3905TIP3   OH211678   4.583   3.972   1.938 -0.9048  0.5375  0.6466
 3905TIP3    H111679   4.529   4.051   1.951  0.2265  1.6708 -1.1497
 3905TIP3    H211680   4.547   3.931   1.860 -0.6206  0.0115  0.7889
 3906TIP3   OH211681   6.279   2.339   2.396  0.2429  0.9513 -0.6030
 3906TIP3    H111682   6.239   2.410   2.347  0.7196  0.6968 -1.3841
 3906TIP3    H211683   6.373   2.354   2.388  0.3299  1.0542  0.4743
 3907TIP3   OH211684   6.339   3.766   4.481  0.4645  0.8538  0.2859
 3907TIP3    H111685   6.266   3.717   4.445 -0.1066  1.3585  0.7273
 3907TIP3    H211686   6.417   3.719   4.452 -0.0389  0.2345 -0.0785
 3908TIP3   OH211687   7.217   0.650   5.829 -0.3939  0.0787 -0.0647
 3908TIP3    H111688   7.243   0.683   5.744  2.8446  0.0016  0.7528
 3908TIP3    H211689   7.180   0.725   5.875 -1.1589  0.3688 -1.1234
 3909TIP3   OH211690   5.209   5.528   4.307 -0.1832  0.0546  0.0342
 3909TIP3    H111691   5.291   5.529   4.259  0.2912 -1.6873  0.7430
 3909TIP3    H211692   5.159   5.601   4.270  1.2554  0.5069 -1.1193
 3910TIP3   OH211693   4.463   0.989   2.499  0.0772 -0.0236  0.2958
 3910TIP3    H111694   4.457   0.939   2.580 -1.8013  0.5979  0.5865
 3910TIP3    H211695   4.382   0.969   2.453  0.4927  0.7241 -0.7876
 3911TIP3   OH211696   1.152   4.684   0.390 -0.4474  0.2278 -0.0389
 3911TIP3    H111697   1.092   4.751   0.421 -0.1550  0.4564  0.0421
 3911TIP3    H211698   1.102   4.635   0.324  0.0351  1.9344 -1.7806
 3912TIP3   OH211699   2.823   2.810   4.664  0.1889  0.3482 -0.1710
 3912TIP3    H111700   2.737   2.832   4.627 -1.4445 -2.4022  1.6020
 3912TIP3    H211701   2.878   2.794   4.587 -1.0609  1.4475 -1.3598
 3913TIP3   OH211702   4.905   6.537   5.417  0.2064  0.4759  0.0143
 3913TIP3    H111703   4.842   6.560   5.348  0.0321  0.6307  0.2240
 3913TIP3    H211704   4.937   6.451   5.391  0.3837  0.6721 -0.4346
 3914TIP3   OH211705   4.913   5.480   1.604 -0.5959  0.0728  0.2298
 3914TIP3    H111706   4.849   5.455   1.538 -2.9031  0.7473  2.0844
 3914TIP3    H211707   4.883   5.437   1.684  0.5251  1.4362  1.4494
 3915TIP3   OH211708   4.517   0.387   5.110  0.0980 -0.3141  0.1858
 3915TIP3    H111709   4.552   0.379   5.198 -0.7231  1.7701  0.7627
 3915TIP3    H211710   4.564   0.462   5.072 -0.1160 -0.6933 -0.8691
 3916TIP3   OH211711   4.242   5.251   3.475  0.3237 -0.3001 -0.2949
 3916TIP3    H111712   4.329   5.234   3.441  0.5028 -0.5069  0.2584
 3916TIP3    H211713   4.196   5.167   3.467 -0.5258  0.3188 -2.5669
 3917TIP3   OH211714   0.664   3.030   5.682  0.0485 -0.5919 -0.1723
 3917TIP3    H111715   0.686   2.963   5.617  0.6935 -0.5008 -0.0513
 3917TIP3    H211716   0.671   2.986   5.766 -1.7997 -0.9919 -0.1917
 3918TIP3   OH211717   5.278   1.891   4.873 -0.5947  0.1434  0.1538
 3918TIP3    H111718   5.234   1.877   4.790 -0.8626  1.0011  0.1493
 3918TIP3    H211719   5.274   1.985   4.888  0.3620  0.1263  0.6359
 3919TIP3   OH211720   5.079   2.580   5.289 -0.3013  0.0345  0.6921
 3919TIP3    H111721   5.139   2.561   5.361  2.5652 -0.5652 -1.6451
 3919TIP3    H211722   5.119   2.537   5.213 -4.5918 -1.8067 -0.8436
 3920TIP3   OH211723   3.826   6.493   5.414 -0.6739 -0.4111  0.5839
 3920TIP3    H111724   3.742   6.517   5.453 -0.0976  0.1228  1.5447
 3920TIP3    H211725   3.804   6.434   5.343 -2.0036  1.2488 -0.4450
 3921TIP3   OH211726   5.209   3.323   3.530 -0.3689  0.4603  0.4371
 3921TIP3    H111727   5.251   3.359   3.608  1.9452 -0.7286 -0.1533
 3921TIP3    H211728   5.201   3.229   3.548  0.8839  0.0365 -0.9778
 3922TIP3   OH211729   5.521   6.711   4.307 -0.5343 -0.3408 -0.2365
 3922TIP3    H111730   5.442   6.658   4.303 -0.9437 -0.0487  2.4746
 3922TIP3    H211731   5.489   6.801   4.312 -0.1136 -0.2526  1.4836
 3923TIP3   OH211732   2.146   4.452   3.854 -1.1744 -0.1940  0.5550
 3923TIP3    H111733   2.088   4.516   3.812 -0.2825  0.6829  0.6259
 3923TIP3    H211734   2.150   4.379   3.792  1.5324  1.7798 -1.8819
 3924TIP3   OH211735   4.624   6.486   4.479 -0.5961 -0.9166 -0.5201
 3924TIP3    H111736   4.693   6.550   4.497 -1.9845  0.2425  1.1651
 3924TIP3    H211737   4.668   6.401   4.480  0.8705 -0.1854  0.0636
 3925TIP3   OH211738   0.381   6.416   3.067 -0.0278 -0.6382 -0.3972
 3925TIP3    H111739   0.323   6.452   3.134 -0.0286 -0.8501 -0.2818
 3925TIP3    H211740   0.451   6.480   3.058 -0.3114 -0.3506 -0.5804
 3926TIP3   OH211741   1.242   3.213   0.036  0.4609 -0.5050 -0.7178
 3926TIP3    H111742   1.198   3.128   0.024 -1.4739  0.6974 -3.0656
 3926TIP3    H211743   1.187   3.275  -0.012  1.8429  2.1089  0.8667
 3927TIP3   OH211744   6.780   5.769   1.059  0.3512 -0.3925 -0.0628
 3927TIP3    H111745   6.766   5.680   1.028 -1.5557  0.1367 -0.8529
 3927TIP3    H211746   6.738   5.772   1.144 -1.4426  0.2674 -0.9287
 3928TIP3   OH211747   0.942   4.341   0.994 -0.1104  0.4466 -0.3758
 3928TIP3    H111748   0.948   4.283   1.071 -2.0151 -1.2206 -1.3748
 3928TIP3    H211749   1.010   4.309   0.935 -1.4149 -1.1926 -1.0974
 3929TIP3   OH211750   2.186   5.939   5.040  0.6252 -0.3295  0.2537
 3929TIP3    H111751   2.191   5.893   5.124 -2.0977 -1.4303 -0.0804
 3929TIP3    H211752   2.276   5.964   5.021  1.6293 -1.9456  2.4367
 3930TIP3   OH211753   1.196   1.254   5.389  0.5071 -0.1907 -0.3189
 3930TIP3    H111754   1.239   1.331   5.351  0.2814 -0.7265 -1.7018
 3930TIP3    H211755   1.183   1.195   5.316  1.9199 -2.1759  0.9251
 3931TIP3   OH211756   5.885   5.376   3.121  0.3067  0.3623  0.2582
 3931TIP3    H111757   5.900   5.368   3.027  1.3907  1.3055  0.3276
 3931TIP3    H211758   5.812   5.437   3.129  0.8180  1.0170  0.0329
 3932TIP3   OH211759   6.184   2.633   3.250  0.0045  0.0798  0.0850
 3932TIP3    H111760   6.191   2.542   3.219  2.4818  0.3843 -0.5162
 3932TIP3    H211761   6.126   2.628   3.325  0.2695 -2.0730  0.2196
 3933TIP3   OH211762   3.890   0.926   2.237  0.2190  0.3027 -0.2966
 3933TIP3    H111763   3.908   0.833   2.225  0.7383 -0.1248  2.9238
 3933TIP3    H211764   3.795   0.931   2.247  0.2217  0.0660 -0.1425
 3934TIP3   OH211765   2.877   2.393   0.226  0.1413 -0.3324  0.2797
 3934TIP3    H111766   2.954   2.390   0.283 -0.8742  1.6436  1.8845
 3934TIP3    H211767   2.803   2.403   0.286 -1.1457  0.2230 -1.3246
 3935TIP3   OH211768   0.436   3.778   2.356 -0.5201  0.0669 -0.2983
 3935TIP3    H111769   0.449   3.812   2.267 -0.2905 -1.7053 -0.9804
 3935TIP3    H211770   0.512   3.723   2.372 -1.4206 -1.0434  0.2914
 3936TIP3   OH211771   3.652   0.020   0.279  0.0417  0.2828 -0.0599
 3936TIP3    H111772   3.678  -0.070   0.299 -0.8822 -0.0441 -0.2704
 3936TIP3    H211773   3.730   0.072   0.297  0.2946 -0.4340  1.0498
 3937TIP3   OH211774   6.869   3.123   1.443  0.0018 -0.1347 -0.1660
 3937TIP3    H111775   6.946   3.136   1.499 -0.0178 -0.7213  0.0030
 3937TIP3    H211776   6.906   3.099   1.357  0.0382  0.9503 -0.4742
 3938TIP3   OH211777   6.288   0.712   0.786  0.0441 -0.3070  0.1163
 3938TIP3    H111778   6.311   0.733   0.696  0.8361 -3.7869 -0.6391
 3938TIP3    H211779   6.372   0.698   0.830 -0.3159 -2.8521  0.1452
 3939TIP3   OH211780   0.188   2.581   4.298 -0.4769 -0.5313  0.1469
 3939TIP3    H111781   0.203   2.674   4.285 -0.7536 -0.3895  0.8093
 3939TIP3    H211782   0.249   2.538   4.237 -0.3130  0.0757 -0.1226
 3940TIP3   OH211783   6.051   5.366   4.033  0.0875  0.7745 -0.3270
 3940TIP3    H111784   6.084   5.309   3.964 -2.6147 -0.2108 -0.9142
 3940TIP3    H211785   5.981   5.316   4.074  0.0632  2.2780  1.5966
 3941TIP3   OH211786   1.385   0.105   0.792  0.3889 -0.2215 -0.0921
 3941TIP3    H111787   1.376   0.184   0.740  1.3524 -0.0366  0.0077
 3941TIP3    H211788   1.317   0.046   0.758  0.5594  0.1394 -1.0909
 3942TIP3   OH211789   7.209   3.141   1.344 -0.0537 -0.1555 -0.2475
 3942TIP3    H111790   7.269   3.073   1.373 -1.2683 -1.2946 -0.3241
 3942TIP3    H211791   7.156   3.160   1.422 -0.7263 -0.3993 -0.6408
 3943TIP3   OH211792   4.697   3.227   3.235  0.1069  0.0195 -0.2883
 3943TIP3    H111793   4.778   3.184   3.205  0.7551  1.0910 -0.1054
 3943TIP3    H211794   4.633   3.156   3.239  0.5371 -0.5341 -2.2263
 3944TIP3   OH211795   2.212   0.633   4.770  0.4882  0.2166  0.1112
 3944TIP3    H111796   2.176   0.618   4.683 -0.5205  3.5233 -0.2052
 3944TIP3    H211797   2.303   0.656   4.755  0.5935 -0.2290  0.0548
 3945TIP3   OH211798   2.075   1.424   1.028  0.3705  0.5581 -0.2399
 3945TIP3    H111799   2.077   1.520   1.020 -3.3818  0.8631  0.6997
 3945TIP3    H211800   1.982   1.402   1.025  0.9755 -2.8809  1.6756
 3946TIP3   OH211801   5.042   4.437   4.870 -0.4589 -0.1487 -0.5121
 3946TIP3    H111802   5.037   4.382   4.948  1.0387  0.1740 -0.1483
 3946TIP3    H211803   5.100   4.509   4.896 -1.2607  0.8469 -1.4158
 3947TIP3   OH211804   5.789   2.879   5.028 -0.6405 -0.3107 -0.4067
 3947TIP3    H111805   5.751   2.967   5.032 -1.3571 -0.6032 -0.5774
 3947TIP3    H211806   5.831   2.876   4.942 -1.3163 -0.4041 -0.7422
 3948TIP3   OH211807   4.561   2.383   0.438  0.0397  0.1809 -0.5907
 3948TIP3    H111808   4.642   2.343   0.471 -0.0668  2.3476  2.8046
 3948TIP3    H211809   4.589   2.466   0.400 -0.4091 -0.0462 -1.4377
 3949TIP3   OH211810   2.772   4.882   0.704  0.1471 -1.1997 -0.1047
 3949TIP3    H111811   2.761   4.837   0.620 -0.5930  1.0091 -1.2727
 3949TIP3    H211812   2.865   4.900   0.710  0.0944 -0.6163 -0.8930
 3950TIP3   OH211813   3.865   2.537   5.032  0.3133 -0.0642  0.1670
 3950TIP3    H111814   3.783   2.551   4.985  0.2664 -1.2900 -0.1397
 3950TIP3    H211815   3.923   2.607   5.001 -0.2170  0.0756 -0.5246
 3951TIP3   OH211816   6.776   2.517   4.683 -0.0965 -0.3312 -0.2179
 3951TIP3    H111817   6.712   2.587   4.676  0.8354  0.5580 -0.1651
 3951TIP3    H211818   6.789   2.488   4.592 -0.5528 -0.5036 -0.2294
 3952TIP3   OH211819   3.515   5.094   2.462 -1.1497  0.1952  0.0178
 3952TIP3    H111820   3.521   5.075   2.368  0.5432 -0.2969  0.1850
 3952TIP3    H211821   3.606   5.092   2.493 -1.7078 -0.2162  1.7729
 3953TIP3   OH211822   2.858   1.736   0.747 -0.9091  0.2577  0.5477
 3953TIP3    H111823   2.790   1.801   0.728 -0.1316  0.9938  0.2003
 3953TIP3    H211824   2.886   1.756   0.836 -1.5846 -0.4613  0.9322
 3954TIP3   OH211825   2.291   2.099   3.120 -0.0563  0.5962  0.6048
 3954TIP3    H111826   2.221   2.038   3.097 -0.2890  1.1871 -0.2951
 3954TIP3    H211827   2.360   2.083   3.055  1.0218 -0.5664  1.9832
 3955TIP3   OH211828   1.818   2.789   0.358 -0.1696 -0.7608  0.7810
 3955TIP3    H111829   1.866   2.861   0.398  0.1404 -0.1700 -0.5773
 3955TIP3    H211830   1.782   2.826   0.277 -1.7716 -1.5674  1.0713
 3956TIP3   OH211831   1.322   5.262   2.825 -0.2289  0.3722  0.0990
 3956TIP3    H111832   1.405   5.216   2.814 -0.3466 -0.8854  3.3169
 3956TIP3    H211833   1.346   5.344   2.869 -0.5814  0.6870 -0.2833
 3957TIP3   OH211834   3.296   2.968   4.229 -0.2138 -0.8371 -0.6306
 3957TIP3    H111835   3.291   2.893   4.288 -2.7228 -1.7972 -1.9167
 3957TIP3    H211836   3.320   3.042   4.285 -1.8784 -1.8110  1.4852
 3958TIP3   OH211837   0.925   0.116   5.355 -0.4689  0.1215 -0.2488
 3958TIP3    H111838   0.999   0.148   5.304 -0.6577  0.3482 -0.3815
 3958TIP3    H211839   0.866   0.191   5.363 -0.9709 -0.2149 -0.6634
 3959TIP3   OH211840   4.582   2.637   1.455 -0.3309  0.4568  0.5549
 3959TIP3    H111841   4.656   2.676   1.409  1.0015  0.1999  2.3942
 3959TIP3    H211842   4.572   2.551   1.416  1.1329  0.0243  1.0813
 3960TIP3   OH211843   1.242   1.842   3.967 -0.1968  0.0901 -0.0509
 3960TIP3    H111844   1.326   1.856   4.010 -0.6773  2.6157  0.1962
 3960TIP3    H211845   1.179   1.831   4.038 -0.4236  0.5923 -0.1679
 3961TIP3   OH211846   5.496   1.827   3.480  0.5414 -0.3464 -0.2127
 3961TIP3    H111847   5.480   1.907   3.531 -0.8964 -0.6085 -0.1976
 3961TIP3    H211848   5.513   1.859   3.391  0.2944  0.0027 -0.1403
 3962TIP3   OH211849   4.789   3.342   2.841  0.1722  0.1936  0.2919
 3962TIP3    H111850   4.763   3.416   2.786  0.5809  0.9379  1.0859
 3962TIP3    H211851   4.884   3.350   2.849  0.1940 -0.2934  0.5583
 3963TIP3   OH211852   4.473   4.736   5.724 -0.2199  0.0262  0.4069
 3963TIP3    H111853   4.416   4.755   5.799  1.4569 -1.3932  2.1487
 3963TIP3    H211854   4.508   4.821   5.697 -3.1493  0.9684 -0.8214
 3964TIP3   OH211855   0.499   5.225   0.276  0.0161 -0.4713 -0.1468
 3964TIP3    H111856   0.550   5.306   0.270 -0.1636 -0.3588 -0.1367
 3964TIP3    H211857   0.430   5.245   0.339  0.4033 -0.8626  0.4149
 3965TIP3   OH211858   5.427   0.613   5.284 -0.0583  0.1665  0.4068
 3965TIP3    H111859   5.420   0.555   5.208  2.5296  1.0222 -0.6024
 3965TIP3    H211860   5.480   0.565   5.347 -1.4779 -0.1925  1.3684
 3966TIP3   OH211861   5.156   3.429   0.550 -0.2929  0.0790 -0.2273
 3966TIP3    H111862   5.225   3.432   0.483 -0.2661 -0.1021 -0.2085
 3966TIP3    H211863   5.118   3.342   0.541 -0.3352  0.0790 -0.0501
 3967TIP3   OH211864   5.019   3.698   3.943  0.2954  0.0785 -0.2178
 3967TIP3    H111865   5.005   3.688   3.849 -0.7055  0.1701 -0.0906
 3967TIP3    H211866   5.112   3.680   3.956  0.4342  0.0446 -1.2194
 3968TIP3   OH211867   3.042   3.848   1.173 -0.1465 -0.4455 -0.5727
 3968TIP3    H111868   2.947   3.859   1.185  0.1612  0.5852  1.2697
 3968TIP3    H211869   3.075   3.830   1.260  1.3838 -0.7544 -1.1869
 3969TIP3   OH211870   5.498   5.298   5.015 -0.2048 -0.7005  0.2804
 3969TIP3    H111871   5.444   5.318   5.091 -0.0832  0.5684  0.0578
 3969TIP3    H211872   5.489   5.374   4.958  1.7761 -0.4653  0.2078
 3970TIP3   OH211873   1.789   2.350   5.301  0.5971  0.3764  0.2796
 3970TIP3    H111874   1.793   2.366   5.395  0.6117 -0.8512  0.4985
 3970TIP3    H211875   1.808   2.435   5.261 -1.7057  1.4942  1.3583
 3971TIP3   OH211876   5.745   1.846   4.318  0.1817 -0.0501 -0.1790
 3971TIP3    H111877   5.773   1.937   4.329  1.8622 -0.1616 -2.5622
 3971TIP3    H211878   5.755   1.807   4.404  0.0761  1.8375  0.7425
 3972TIP3   OH211879   4.881   5.183   1.089 -0.3939 -0.0160 -0.0816
 3972TIP3    H111880   4.883   5.176   0.994 -0.3119 -1.5540  0.0080
 3972TIP3    H211881   4.973   5.171   1.115 -0.2046  1.7011  0.1405
 3973TIP3   OH211882   3.407   5.227   4.354 -0.2080 -0.1753  0.4531
 3973TIP3    H111883   3.441   5.265   4.435  1.3285 -2.2099  0.8340
 3973TIP3    H211884   3.313   5.213   4.371 -0.4642  1.8033  0.8693
 3974TIP3   OH211885   2.941   4.031   5.262 -0.2192 -0.0767 -0.4500
 3974TIP3    H111886   3.034   4.049   5.274 -0.3612  0.2390  0.2417
 3974TIP3    H211887   2.936   3.982   5.180  0.5248  0.1479 -0.6357
 3975TIP3   OH211888   5.234   3.410   4.148  0.2474 -0.0200  0.0046
 3975TIP3    H111889   5.201   3.482   4.202 -0.5810 -0.4920  0.1502
 3975TIP3    H211890   5.318   3.387   4.188  0.7351  1.1329 -0.2985
 3976TIP3   OH211891   1.424   5.005   4.964  0.3387 -0.4308  0.0569
 3976TIP3    H111892   1.336   5.020   4.997  0.6250 -2.0486  1.7632
 3976TIP3    H211893   1.482   5.044   5.030  0.9408  0.8840 -1.1905
 3977TIP3   OH211894   0.282   4.218   4.061 -0.3418  0.4581 -0.2133
 3977TIP3    H111895   0.333   4.253   4.135 -0.7312  1.4680 -0.4082
 3977TIP3    H211896   0.268   4.293   4.004  1.1896 -0.5669 -2.0741
 3978TIP3   OH211897   5.099   4.001   3.147  0.4312 -0.2391  0.3614
 3978TIP3    H111898   5.194   4.010   3.136  0.6911 -3.3804 -1.0822
 3978TIP3    H211899   5.089   3.920   3.197 -1.5062 -0.4711 -0.3399
 3979TIP3   OH211900   1.760   6.665   4.391  0.0396  0.1266 -0.6129
 3979TIP3    H111901   1.751   6.570   4.384 -2.1685  0.3606 -1.4593
 3979TIP3    H211902   1.769   6.681   4.485 -0.5904 -0.8419 -0.3751
 3980TIP3   OH211903   5.936   0.115   4.894  0.5955  0.6315 -0.3158
 3980TIP3    H111904   5.936   0.094   4.987 -1.9338 -0.2797 -0.4306
 3980TIP3    H211905   5.939   0.210   4.890 -1.4492  0.8040  0.8537
 3981TIP3   OH211906   2.914   3.310   0.327 -0.0442 -0.0504  0.4367
 3981TIP3    H111907   2.988   3.249   0.337  1.9246  2.3616  1.7179
 3981TIP3    H211908   2.905   3.321   0.233  0.5915 -1.0943  0.2320
 3982TIP3   OH211909   6.402   5.413   3.265 -0.0944  0.5013 -0.2731
 3982TIP3    H111910   6.422   5.369   3.183 -0.3675 -0.4789  0.1666
 3982TIP3    H211911   6.306   5.412   3.270 -0.1083 -2.0381  1.3408
 3983TIP3   OH211912   7.203   1.496   3.512  0.4684 -0.1139  0.3243
 3983TIP3    H111913   7.188   1.465   3.423  0.2271 -0.6904  0.5652
 3983TIP3    H211914   7.228   1.418   3.561 -0.7098 -0.0486  1.0659
 3984TIP3   OH211915   1.699   2.780   3.322  0.4374  0.1062 -0.6879
 3984TIP3    H111916   1.744   2.713   3.271  2.4177 -0.2725  1.3727
 3984TIP3    H211917   1.609   2.749   3.329  0.8960 -1.4200 -1.2619
 3985TIP3   OH211918   7.071   5.503   5.462  0.3895 -0.0283  0.2451
 3985TIP3    H111919   7.042   5.415   5.439  1.3833  0.1291 -1.8401
 3985TIP3    H211920   7.161   5.508   5.430  0.3713  1.7174  0.3605
 3986TIP3   OH211921   0.385   3.239   3.345  0.1309 -0.4165 -0.7554
 3986TIP3    H111922   0.356   3.328   3.368 -1.0264 -1.2038  1.1136
 3986TIP3    H211923   0.423   3.205   3.426  1.6646 -1.2451 -1.7741
 3987TIP3   OH211924   3.011   3.872   5.025  0.0966  0.7656  0.1605
 3987TIP3    H111925   2.994   3.962   4.997 -2.0300  0.7867  1.3198
 3987TIP3    H211926   2.960   3.818   4.965 -1.3042  0.5795  1.4633
 3988TIP3   OH211927   1.046   1.942   4.218 -0.2491 -0.5828  0.2085
 3988TIP3    H111928   1.025   1.997   4.142  0.1524 -1.2717 -0.4176
 3988TIP3    H211929   0.961   1.908   4.247 -0.2222 -2.2031 -1.4197
 3989TIP3   OH211930   2.761   0.195   5.448 -0.3206 -0.3016 -0.7943
 3989TIP3    H111931   2.831   0.215   5.509 -0.2140 -2.1915 -0.2319
 3989TIP3    H211932   2.803   0.195   5.362  0.2380 -0.7438 -0.5287
 3990TIP3   OH211933   2.592   3.656   2.294  0.1788  0.4280 -0.1402
 3990TIP3    H111934   2.679   3.655   2.253  0.3687  1.7354  0.2029
 3990TIP3    H211935   2.607   3.623   2.383 -0.1166 -1.7095 -0.8099
 3991TIP3   OH211936   6.017   3.225   3.471 -0.3672  0.5303 -0.4657
 3991TIP3    H111937   5.992   3.239   3.562 -0.9907  0.5322 -0.6318
 3991TIP3    H211938   5.944   3.262   3.421 -0.2985  0.0027 -0.9569
 3992TIP3   OH211939   0.895   2.100   3.831 -0.2460  0.4390 -0.0112
 3992TIP3    H111940   0.957   2.078   3.900  1.2237  0.9853 -1.1152
 3992TIP3    H211941   0.852   2.180   3.863 -0.5586 -0.0625  0.8526
 3993TIP3   OH211942   6.214   5.207   5.331  0.1883 -0.1611 -0.6873
 3993TIP3    H111943   6.255   5.160   5.404 -1.0705 -1.0212 -0.5071
 3993TIP3    H211944   6.159   5.142   5.289 -2.1023  1.2645 -0.0740
 3994TIP3   OH211945   3.810   0.501   4.630  0.2730  0.3427  0.1125
 3994TIP3    H111946   3.781   0.508   4.721  1.2345  0.8263  0.4040
 3994TIP3    H211947   3.903   0.479   4.637  0.0555 -0.9782 -0.7726
 3995TIP3   OH211948   0.810   0.199   1.332  0.6388 -0.6510  0.3618
 3995TIP3    H111949   0.865   0.143   1.387  1.3344  0.1734  0.5236
 3995TIP3    H211950   0.724   0.156   1.332  1.5314 -2.6178 -0.8476
 3996TIP3   OH211951   3.375   0.704   2.603  0.0107 -0.6859  0.2491
 3996TIP3    H111952   3.423   0.698   2.686  3.3446 -0.0879 -1.5039
 3996TIP3    H211953   3.335   0.792   2.606 -0.0067 -0.7098  1.2275
 3997TIP3   OH211954   5.225   2.918   2.652  0.0529 -0.0234 -0.0303
 3997TIP3    H111955   5.188   2.982   2.592 -0.3234  0.4809  0.7227
 3997TIP3    H211956   5.313   2.902   2.619 -0.0579  0.4406 -0.5619
 3998TIP3   OH211957   1.280   2.704   2.940  0.4288 -0.4871 -0.2234
 3998TIP3    H111958   1.362   2.734   2.979 -0.0960  1.7644 -0.7015
 3998TIP3    H211959   1.261   2.621   2.984  1.8851 -0.0338  1.3558
 3999TIP3   OH211960   1.518   3.375   0.043 -0.2723 -0.0665  0.3673
 3999TIP3    H111961   1.598   3.336   0.080  0.5922  0.3508 -0.9803
 3999TIP3    H211962   1.447   3.327   0.084  0.7230 -1.8634  0.0932
 4000TIP3   OH211963   2.706   4.746   1.505 -0.4672 -0.1144  0.2335
 4000TIP3    H111964   2.741   4.814   1.448  0.9015 -1.5525 -0.7264
 4000TIP3    H211965   2.611   4.761   1.506 -0.1816  1.9617  0.3224
 4001TIP3   OH211966   2.245   1.414   1.351 -0.2565 -0.6665 -0.1112
 4001TIP3    H111967   2.280   1.362   1.423  0.3622 -0.8287 -0.5278
 4001TIP3    H211968   2.150   1.416   1.366 -0.0604 -0.0074  1.1644
 4002TIP3   OH211969   0.008   1.130   2.041  0.4117 -0.4217  0.3800
 4002TIP3    H111970   0.014   1.196   1.972 -0.2352  0.7834  1.4264
 4002TIP3    H211971   0.099   1.106   2.060  0.5650 -1.7363 -1.7287
 4003TIP3   OH211972   4.283   2.996   0.910 -0.2855 -0.2501  0.4379
 4003TIP3    H111973   4.329   2.917   0.882 -1.0159  0.0769 -1.9149
 4003TIP3    H211974   4.200   2.964   0.946 -0.2335 -0.5998  0.2538
 4004TIP3   OH211975   0.152   3.266   4.682 -0.3065 -0.3098  0.0465
 4004TIP3    H111976   0.220   3.294   4.743  1.1539 -1.8502 -0.7717
 4004TIP3    H211977   0.190   3.281   4.595 -0.0666 -3.1129 -0.4424
 4005TIP3   OH211978   6.858   4.529   5.661  0.2638 -0.0345 -0.3468
 4005TIP3    H111979   6.878   4.544   5.569 -0.5253 -0.4152 -0.5906
 4005TIP3    H211980   6.942   4.512   5.702  0.6254  0.1813 -0.9896
 4006TIP3   OH211981   4.763   3.977   1.221 -0.0675  0.1440  0.3347
 4006TIP3    H111982   4.708   3.902   1.201 -0.7310  0.7302 -0.0675
 4006TIP3    H211983   4.741   3.999   1.312 -2.3387  1.8560 -0.5271
 4007TIP3   OH211984   6.252   1.830   3.116 -0.2251 -0.4605  0.2643
 4007TIP3    H111985   6.317   1.769   3.151 -0.3744 -0.5303  0.4249
 4007TIP3    H211986   6.173   1.776   3.106 -0.2362 -0.3930  0.0024
 4008TIP3   OH211987   5.925   5.832   1.837  0.7262  0.2538 -0.1954
 4008TIP3    H111988   5.844   5.873   1.865 -0.5790 -1.7539 -0.8207
 4008TIP3    H211989   5.930   5.848   1.743 -0.4337 -1.9226 -0.6837
 4009TIP3   OH211990   5.335   5.623   0.670  0.1849  0.2466  0.0333
 4009TIP3    H111991   5.419   5.669   0.672  1.8284 -2.4604 -1.5731
 4009TIP3    H211992   5.358   5.530   0.670 -2.7632 -0.6088 -1.6480
 4010TIP3   OH211993   2.037   5.868   2.173 -0.2269  0.1367 -1.0931
 4010TIP3    H111994   2.107   5.860   2.237 -0.3891  1.2752 -0.7572
 4010TIP3    H211995   2.080   5.901   2.094  0.0774 -1.8057 -1.8071
 4011TIP3   OH211996   3.106   4.811   4.495  0.4997 -0.1634 -0.1944
 4011TIP3    H111997   3.197   4.823   4.466 -0.0928  1.7180 -1.5305
 4011TIP3    H211998   3.112   4.755   4.572  2.7446 -0.4740 -0.5265
 4012TIP3   OH211999   4.016   0.939   5.393  0.3569  0.0662 -0.4569
 4012TIP3    H112000   4.082   0.986   5.342 -0.1356  1.1303 -0.1387
 4012TIP3    H212001   3.947   0.918   5.330 -0.0568  1.0073 -0.3321
 4013TIP3   OH212002   4.080   6.507   4.556 -0.5335 -0.3620  0.1792
 4013TIP3    H112003   4.163   6.466   4.533 -0.7107  0.4867 -2.1367
 4013TIP3    H212004   4.013   6.444   4.527 -0.7967 -1.5385  2.9784
 4014TIP3   OH212005   4.549   4.955   5.552  0.2419  0.6928 -0.3571
 4014TIP3    H112006   4.627   4.962   5.497  0.7169  0.5847  0.3017
 4014TIP3    H212007   4.526   5.046   5.572  2.8810  0.7831  3.1929
 4015TIP3   OH212008   3.320   2.940   0.468 -0.3498 -0.1284 -0.1476
 4015TIP3    H112009   3.393   2.953   0.529 -0.7507  1.6490 -0.0022
 4015TIP3    H212010   3.257   2.887   0.517  0.7228 -1.5078 -0.2041
 4016TIP3   OH212011   6.605   1.689   2.342  0.6492  0.8052  0.6096
 4016TIP3    H112012   6.591   1.740   2.422  3.5683  1.2116  0.9936
 4016TIP3    H212013   6.646   1.608   2.371 -0.3437 -0.0750 -0.3368
 4017TIP3   OH212014   7.215   4.154   3.402 -0.1349  0.1389 -0.2079
 4017TIP3    H112015   7.180   4.211   3.470  0.8204  1.1429 -0.5385
 4017TIP3    H212016   7.147   4.153   3.334 -0.8278 -0.3860  0.4725
 4018TIP3   OH212017   6.601   0.632   4.464  0.4994 -0.3565  0.1701
 4018TIP3    H112018   6.581   0.677   4.382  1.0423 -0.2108  0.1101
 4018TIP3    H212019   6.569   0.543   4.452  1.2019 -0.5340 -0.4723
 4019TIP3   OH212020   4.285   4.617   1.854  0.5820  0.6936 -0.5094
 4019TIP3    H112021   4.380   4.606   1.859  0.5935  1.1118  0.6026
 4019TIP3    H212022   4.249   4.530   1.870  0.7572  1.1122  3.0298
 4020TIP3   OH212023   2.377   3.356   5.690  0.1822  0.1325  0.4392
 4020TIP3    H112024   2.312   3.287   5.681 -0.7465  0.9913  0.3221
 4020TIP3    H212025   2.434   3.345   5.614  0.0109 -0.4587  0.3915
 4021TIP3   OH212026   6.219   3.306   0.777  0.3512  0.1600 -0.0344
 4021TIP3    H112027   6.240   3.284   0.868 -1.1476  0.0599  0.3274
 4021TIP3    H212028   6.303   3.328   0.737  1.4120 -2.2430  0.6807
 4022TIP3   OH212029   3.754   0.781   3.965 -0.3701  0.1951 -0.0888
 4022TIP3    H112030   3.676   0.730   3.984 -1.7629  1.4301 -2.0353
 4022TIP3    H212031   3.781   0.752   3.878  0.7031  0.5664  0.0998
 4023TIP3   OH212032   6.459   0.755   5.501 -0.1555  0.0679  0.0635
 4023TIP3    H112033   6.448   0.818   5.572 -1.3563 -0.0559  0.0027
 4023TIP3    H212034   6.409   0.679   5.529 -0.0626 -0.2441 -0.6113
 4024TIP3   OH212035   1.271   4.770   5.718  0.7754  0.1894  0.2780
 4024TIP3    H112036   1.189   4.818   5.728  0.9541  0.3873  0.7996
 4024TIP3    H212037   1.334   4.836   5.688 -0.0308 -0.5899 -3.6540
 4025TIP3   OH212038   4.848   5.798   0.314  0.3148 -0.1851 -0.0343
 4025TIP3    H112039   4.786   5.746   0.365 -0.2874 -0.9170 -1.4416
 4025TIP3    H212040   4.888   5.734   0.254  1.7639  0.4482  0.2318
 4026TIP3   OH212041   6.632   6.086   2.961 -0.3115 -0.2783  0.1574
 4026TIP3    H112042   6.682   6.140   3.022 -1.9028  1.3940  0.0800
 4026TIP3    H212043   6.591   6.019   3.016  0.1242 -0.2164  0.5622
 4027TIP3   OH212044   2.807   0.141   4.275 -0.0552  0.1864  0.8612
 4027TIP3    H112045   2.871   0.117   4.207 -1.4801 -1.1346 -0.0806
 4027TIP3    H212046   2.858   0.142   4.356  1.3902  0.2886 -0.0078
 4028TIP3   OH212047   2.245   1.653   3.228 -0.0592  0.0312 -0.6085
 4028TIP3    H112048   2.195   1.723   3.187  1.0019  1.5865  0.5967
 4028TIP3    H212049   2.240   1.580   3.167  0.5481  1.8489 -2.9951
 4029TIP3   OH212050   4.639   2.854   5.273 -0.0310 -0.2442 -0.2216
 4029TIP3    H112051   4.658   2.922   5.209 -0.6646 -0.7813 -0.9886
 4029TIP3    H212052   4.552   2.874   5.306  1.1269  1.3550  2.2049
 4030TIP3   OH212053   1.450   6.148   1.940  0.4998 -0.3387 -0.3146
 4030TIP3    H112054   1.366   6.117   1.908 -0.2473 -1.2133  2.1888
 4030TIP3    H212055   1.488   6.071   1.983  2.1381  0.3018 -0.5427
 4031TIP3   OH212056   2.804   0.623   4.737 -0.0418 -0.6183 -0.0726
 4031TIP3    H112057   2.820   0.529   4.734  1.1247 -0.4964  1.3263
 4031TIP3    H212058   2.734   0.634   4.802  0.9576 -0.4158  0.9947
 4032TIP3   OH212059   5.535   3.776   1.764  0.5004  0.3777  0.2204
 4032TIP3    H112060   5.619   3.807   1.798  1.7761 -0.0847 -2.3061
 4032TIP3    H212061   5.510   3.840   1.698 -0.3692 -0.3007 -0.1350
 4033TIP3   OH212062   6.508   5.824   5.255  0.2515 -0.0695  0.5034
 4033TIP3    H112063   6.603   5.834   5.257  0.2444  0.6227 -1.0799
 4033TIP3    H212064   6.487   5.774   5.335  1.8618  0.2711  1.1775
 4034TIP3   OH212065   1.409   6.661   2.115 -0.6407  0.0027  0.1084
 4034TIP3    H112066   1.456   6.578   2.126 -2.1527 -0.6312  2.5946
 4034TIP3    H212067   1.449   6.701   2.038  2.0772 -1.7128  0.4863
 4035TIP3   OH212068   6.914   1.255   1.328 -0.2289 -0.2483 -0.0005
 4035TIP3    H112069   6.872   1.241   1.243 -0.6029 -2.8117  0.5195
 4035TIP3    H212070   6.842   1.279   1.386 -0.4528 -1.3119  0.1751
 4036TIP3   OH212071   4.185   5.517   4.014 -0.2090  0.5971  0.4635
 4036TIP3    H112072   4.206   5.454   4.083 -0.3781  0.6241  0.5406
 4036TIP3    H212073   4.160   5.462   3.939  0.3116  0.5624  0.3129
 4037TIP3   OH212074   6.387   4.428   1.293 -0.6100 -0.4499  0.5017
 4037TIP3    H112075   6.424   4.369   1.358 -1.5705 -0.6381  0.8939
 4037TIP3    H212076   6.424   4.514   1.314  0.0246 -0.7234  0.5304
 4038TIP3   OH212077   6.849   0.478   5.544  0.2737 -0.0807 -0.2469
 4038TIP3    H112078   6.776   0.422   5.569  0.5537  0.3552  1.7474
 4038TIP3    H212079   6.912   0.468   5.616  1.0552  1.4946 -0.6730
 4039TIP3   OH212080   6.597   2.046   2.897  0.2596  0.3795  0.2896
 4039TIP3    H112081   6.688   2.030   2.872 -0.1071 -0.1496 -0.7951
 4039TIP3    H212082   6.590   2.141   2.901  1.6264  0.4841  3.5220
 4040TIP3   OH212083   2.394   5.339   4.281  0.1597  0.1404  0.4956
 4040TIP3    H112084   2.359   5.253   4.259  0.9104  0.1370 -0.8237
 4040TIP3    H212085   2.488   5.330   4.269  0.2069  1.2506 -0.0861
 4041TIP3   OH212086   3.490   4.945   0.643  0.1238 -0.1082 -0.0628
 4041TIP3    H112087   3.446   4.957   0.559 -0.3816  0.1414  0.2311
 4041TIP3    H212088   3.572   4.900   0.622 -1.1649 -2.4710 -0.4396
 4042TIP3   OH212089   3.481   1.947   3.801  0.4717 -0.0924 -0.1827
 4042TIP3    H112090   3.391   1.979   3.805  0.3396 -0.5814  1.7807
 4042TIP3    H212091   3.505   1.952   3.709 -0.8663  1.9460 -0.4582
 4043TIP3   OH212092   5.133   5.828   4.297 -0.3235  0.0777  0.7847
 4043TIP3    H112093   5.099   5.907   4.340  0.1523  0.1016  1.1256
 4043TIP3    H212094   5.124   5.846   4.203 -1.9506 -0.2283  0.8631
 4044TIP3   OH212095   6.324   1.984   0.946  0.1006 -0.4175 -0.1720
 4044TIP3    H112096   6.413   2.019   0.961 -0.1507  0.5731 -0.8904
 4044TIP3    H212097   6.305   1.934   1.025  0.1433  1.8315  1.3461
 4045TIP3   OH212098   7.038   2.665   0.618  0.2241 -0.4154  0.1471
 4045TIP3    H112099   6.968   2.653   0.553  0.3503 -2.2650  0.3023
 4045TIP3    H212100   7.116   2.681   0.566 -0.0559  0.3117 -0.0674
 4046TIP3   OH212101   0.650   1.246   3.708  0.0183  0.1892  0.1471
 4046TIP3    H112102   0.600   1.209   3.781 -0.6556 -3.3394 -1.8672
 4046TIP3    H212103   0.599   1.223   3.630  1.6418  2.1714 -1.6244
 4047TIP3   OH212104   5.046   1.736   3.872  0.5500  0.2739 -0.1272
 4047TIP3    H112105   5.109   1.751   3.802  2.0963 -0.5614  1.0393
 4047TIP3    H212106   5.006   1.652   3.851 -0.4595  0.9613 -1.0472
 4048TIP3   OH212107   0.056   0.658   4.545 -0.1571 -0.4780  0.0742
 4048TIP3    H112108  -0.027   0.636   4.587 -1.0785  0.4798 -1.1691
 4048TIP3    H212109   0.123   0.618   4.601 -1.4568 -1.5006  0.9554
 4049TIP3   OH212110   6.667   2.663   1.162 -0.0457  0.1401 -0.0208
 4049TIP3    H112111   6.648   2.756   1.167  1.7514  0.7366 -2.6339
 4049TIP3    H212112   6.730   2.647   1.232  0.5080  1.1464 -0.2787
 4050TIP3   OH212113   3.330   1.020   4.716 -0.2024  0.1216 -0.5958
 4050TIP3    H112114   3.253   0.985   4.762 -0.1724 -0.9515 -1.3260
 4050TIP3    H212115   3.346   1.104   4.758 -2.2884  0.7736 -0.9577
 4051TIP3   OH212116   1.156   5.612   4.563  0.0332  0.0845  0.3400
 4051TIP3    H112117   1.244   5.608   4.601 -0.0662  1.8660  0.8534
 4051TIP3    H212118   1.114   5.530   4.590  0.8170  0.1787  1.9499
 4052TIP3   OH212119   5.119   2.252   4.249  0.2032 -0.2837  0.3451
 4052TIP3    H112120   5.108   2.322   4.314 -0.5242 -1.1022  1.1227
 4052TIP3    H212121   5.037   2.251   4.200 -0.5053 -1.6948  1.4718
 4053TIP3   OH212122   1.453   2.710   4.158  0.3607  0.2805  0.0520
 4053TIP3    H112123   1.410   2.774   4.101  0.6619  0.0340 -0.4554
 4053TIP3    H212124   1.536   2.753   4.183  0.3010  0.3227  0.1805
 4054TIP3   OH212125   1.369   0.820   2.124  0.1807 -0.3212 -0.5901
 4054TIP3    H112126   1.359   0.915   2.116 -2.8844 -0.5246 -0.3097
 4054TIP3    H212127   1.370   0.803   2.218 -1.2828 -0.6617 -0.6103
 4055TIP3   OH212128   5.407   5.449   0.282  0.7682  0.5025  0.1755
 4055TIP3    H112129   5.311   5.450   0.286  0.7543  0.4162 -0.0929
 4055TIP3    H212130   5.428   5.365   0.240  0.9294  0.8812 -0.5036
 4056TIP3   OH212131   6.506   6.356   4.964  0.1301  0.4927 -0.0518
 4056TIP3    H112132   6.495   6.304   4.885 -0.4460  1.0930 -0.3817
 4056TIP3    H212133   6.595   6.390   4.959 -0.0317  0.8406 -0.6452
 4057TIP3   OH212134   6.665   6.169   2.514  0.3218 -0.3327  0.2496
 4057TIP3    H112135   6.595   6.231   2.536  0.3878 -0.5481  1.1071
 4057TIP3    H212136   6.654   6.098   2.577  0.7941 -0.7729 -0.1591
 4058TIP3   OH212137   3.452   5.979   4.130 -0.0200 -0.2182 -0.2041
 4058TIP3    H112138   3.418   5.890   4.124 -2.1155  0.5328 -0.3590
 4058TIP3    H212139   3.473   5.991   4.223 -3.4871  0.3150  0.6534
 4059TIP3   OH212140   6.721   3.726   1.197 -0.3161  0.3610  0.1792
 4059TIP3    H112141   6.733   3.703   1.104  1.4372  0.0146  0.4619
 4059TIP3    H212142   6.632   3.695   1.217 -1.2696  1.6708 -1.7116
 4060TIP3   OH212143   1.347   0.711   1.703  0.0339  0.4217 -0.5480
 4060TIP3    H112144   1.353   0.630   1.652  0.9575  0.0947  0.0546
 4060TIP3    H212145   1.255   0.737   1.696 -0.5258 -1.2437  0.1184
 4061TIP3   OH212146   1.717   5.742   1.630 -0.2085 -0.2003  0.4542
 4061TIP3    H112147   1.778   5.796   1.580  0.0459 -0.9436 -0.0655
 4061TIP3    H212148   1.729   5.769   1.721  0.1138  0.4144  0.2308
 4062TIP3   OH212149   7.179   0.454   0.075  0.3442 -0.3420  0.2829
 4062TIP3    H112150   7.237   0.435   0.149  0.3429  0.0304  0.3780
 4062TIP3    H212151   7.185   0.376   0.020 -0.0575 -0.8473  0.9354
 4063TIP3   OH212152   0.755   0.889   0.498 -0.1360 -0.5747  0.0779
 4063TIP3    H112153   0.705   0.947   0.556 -2.7314 -1.0679 -1.4836
 4063TIP3    H212154   0.832   0.865   0.549 -1.3433  0.4746  2.5994
 4064TIP3   OH212155   3.124   5.605   3.194 -1.1429  0.3453 -0.2432
 4064TIP3    H112156   3.171   5.686   3.213 -0.6316 -0.2768  1.3260
 4064TIP3    H212157   3.172   5.566   3.121 -1.8447  1.7874 -1.5225
 4065TIP3   OH212158   0.331   5.434   0.124 -0.2492 -0.1348  0.0535
 4065TIP3    H112159   0.377   5.351   0.115  0.2290  0.2648 -1.5851
 4065TIP3    H212160   0.239   5.412   0.109 -0.0841 -0.3405 -0.7266
 4066TIP3   OH212161   1.949   5.826   3.026 -0.2502  0.4555  0.4395
 4066TIP3    H112162   1.981   5.885   3.095  0.4983  0.6013 -0.0217
 4066TIP3    H212163   1.989   5.859   2.946  0.0273 -0.5686  0.1482
 4067TIP3   OH212164   1.729   2.016   0.480 -0.0733  0.0926  0.1769
 4067TIP3    H112165   1.688   2.078   0.541 -0.7797  0.4202 -0.6057
 4067TIP3    H212166   1.712   1.930   0.519 -1.0295  0.2608  0.1695
 4068TIP3   OH212167   3.280   3.666   4.292  0.4551  0.0002  0.0045
 4068TIP3    H112168   3.361   3.716   4.305 -0.4514  1.3161  0.7845
 4068TIP3    H212169   3.310   3.579   4.265  2.1792  0.0374  1.6308
 4069TIP3   OH212170   2.811   2.247   4.183 -0.6162 -0.9027 -0.3820
 4069TIP3    H112171   2.798   2.336   4.215  3.1127 -0.3127 -0.0212
 4069TIP3    H212172   2.798   2.254   4.088  0.8469  0.4101 -0.5376
 4070TIP3   OH212173   1.486   2.087   4.988  0.2102 -0.4696  0.1692
 4070TIP3    H112174   1.504   1.996   5.011 -0.2759 -0.5942  0.0750
 4070TIP3    H212175   1.569   2.121   4.956  0.6652 -0.5711  1.1853
 4071TIP3   OH212176   3.631   3.394   0.289 -0.2085 -0.4347 -0.2426
 4071TIP3    H112177   3.609   3.471   0.341  0.5689 -1.3039  1.4512
 4071TIP3    H212178   3.548   3.367   0.249 -1.1914 -0.6708  1.8676
 4072TIP3   OH212179   0.819   4.753   5.085 -0.5286  0.0940  0.3441
 4072TIP3    H112180   0.897   4.714   5.046 -1.5095  1.1516 -3.0103
 4072TIP3    H212181   0.796   4.694   5.156  1.0078 -2.5041 -1.1548
 4073TIP3   OH212182   4.476   3.618   0.151 -0.5243 -0.1226  0.2702
 4073TIP3    H112183   4.397   3.666   0.128  0.0962  0.6560 -0.3000
 4073TIP3    H212184   4.469   3.536   0.101 -0.4092  0.4593 -0.7147
 4074TIP3   OH212185   3.433   5.400   0.681 -0.3459  0.0294 -0.5944
 4074TIP3    H112186   3.436   5.432   0.591 -1.5618  1.1128 -0.2735
 4074TIP3    H212187   3.522   5.367   0.698  0.2498  0.9739 -1.7563
 4075TIP3   OH212188   5.546   0.069   4.360 -0.1022  0.2707  0.0470
 4075TIP3    H112189   5.612   0.098   4.296  1.0410 -1.4258  0.4028
 4075TIP3    H212190   5.560   0.126   4.436  0.7874  0.1105  0.0168
 4076TIP3   OH212191   5.951   5.565   4.660 -0.1860 -0.3469  0.5032
 4076TIP3    H112192   5.968   5.476   4.630 -2.2371 -0.4389 -0.6246
 4076TIP3    H212193   5.973   5.620   4.585 -0.5392 -0.0829  0.5871
 4077TIP3   OH212194   5.550   0.384   3.192 -0.0068  0.0251  1.0978
 4077TIP3    H112195   5.551   0.293   3.163  0.0172  0.2954  0.2279
 4077TIP3    H212196   5.504   0.381   3.275  0.2940 -0.8294  1.2533
 4078TIP3   OH212197   2.758   3.727   3.904 -0.0044 -0.1515 -0.1845
 4078TIP3    H112198   2.706   3.804   3.879 -0.6825  0.0347  1.5948
 4078TIP3    H212199   2.697   3.654   3.894 -0.1339 -0.1318  0.4250
 4079TIP3   OH212200   1.492   1.617   0.547 -0.5192  0.8904  1.0577
 4079TIP3    H112201   1.495   1.652   0.458 -2.7770 -1.7643 -0.2244
 4079TIP3    H212202   1.400   1.627   0.573 -0.2526  0.0572  2.3903
 4080TIP3   OH212203   5.058   5.643   2.391  0.1288 -0.0891 -0.0101
 4080TIP3    H112204   5.131   5.638   2.329 -0.9176 -0.5476 -1.2553
 4080TIP3    H212205   5.095   5.685   2.468  1.5374  0.3315 -0.8733
 4081TIP3   OH212206   2.212   6.184   3.265 -0.2159 -0.4948 -0.3229
 4081TIP3    H112207   2.195   6.278   3.270 -2.0497 -0.8075  0.1503
 4081TIP3    H212208   2.132   6.144   3.298  1.2907 -2.2078  1.5245
 4082TIP3   OH212209   2.693   0.344   4.679 -0.0983  0.2358  0.0043
 4082TIP3    H112210   2.667   0.354   4.587  1.5191 -1.3165 -0.6843
 4082TIP3    H212211   2.616   0.309   4.722 -0.6749  0.3501 -0.9019
 4083TIP3   OH212212   1.491   0.283   4.748  0.7747 -0.7903 -0.3094
 4083TIP3    H112213   1.452   0.296   4.662 -2.0046  0.0378  0.9703
 4083TIP3    H212214   1.528   0.368   4.770  0.7900 -0.7854 -0.3533
 4084TIP3   OH212215   4.845   3.580   5.775 -0.0143 -0.0427 -0.4251
 4084TIP3    H112216   4.897   3.544   5.847 -0.0731 -0.6053 -0.6549
 4084TIP3    H212217   4.858   3.519   5.703  1.3847  1.3985 -1.4557
 4085TIP3   OH212218   3.091   0.845   2.253 -0.2215 -0.8630 -0.1425
 4085TIP3    H112219   3.175   0.818   2.292 -0.3030 -1.4276 -0.3524
 4085TIP3    H212220   3.039   0.876   2.327  0.5620  0.5572 -0.1385
 4086TIP3   OH212221   2.664   6.027   2.416  0.2573  0.4333  0.2935
 4086TIP3    H112222   2.759   6.020   2.407  0.1800 -0.6536  0.1673
 4086TIP3    H212223   2.650   6.112   2.458  1.2548  0.7815 -0.0589
 4087TIP3   OH212224   3.726   0.718   3.413 -0.5193  0.5139  0.2691
 4087TIP3    H112225   3.710   0.813   3.412 -1.2928  0.4056  1.0244
 4087TIP3    H212226   3.639   0.679   3.410 -0.3287 -0.1467  2.2412
 4088TIP3   OH212227   3.877   4.220   1.760 -0.5491 -0.3992 -0.1730
 4088TIP3    H112228   3.807   4.249   1.817  0.5641  0.7308  0.6766
 4088TIP3    H212229   3.865   4.269   1.679 -1.1482 -0.7652 -0.3151
 4089TIP3   OH212230   0.947   5.726   4.960  0.4710 -0.2922 -0.8005
 4089TIP3    H112231   0.964   5.768   4.875  1.7239 -0.2098 -0.5224
 4089TIP3    H212232   0.889   5.788   5.005  0.8387  0.2768 -1.0953
 4090TIP3   OH212233   3.550   0.033   2.939  0.5533 -0.0092 -0.3363
 4090TIP3    H112234   3.463  -0.007   2.946  0.4618  0.2735  0.1974
 4090TIP3    H212235   3.575   0.052   3.029  0.6021  1.1084 -0.5718
 4091TIP3   OH212236   4.668   2.134   5.591 -0.1789  0.8690  0.0165
 4091TIP3    H112237   4.748   2.185   5.578  0.9359 -1.1835 -1.9075
 4091TIP3    H212238   4.697   2.056   5.639 -1.4109  0.9215  0.9025
 4092TIP3   OH212239   0.986   3.343   4.237 -0.7143 -0.2417 -0.3307
 4092TIP3    H112240   0.910   3.379   4.282 -1.6799 -1.1092 -1.2319
 4092TIP3    H212241   1.054   3.410   4.248 -2.2707  1.6011 -1.4147
 4093TIP3   OH212242   7.052   3.338   5.549 -0.1950 -0.2908  0.9305
 4093TIP3    H112243   7.009   3.372   5.471 -1.2379 -0.3522  1.4536
 4093TIP3    H212244   7.103   3.412   5.583  4.7000 -1.5365 -2.5987
 4094TIP3   OH212245   0.764   1.551   1.817 -0.0355 -0.2914  0.2851
 4094TIP3    H112246   0.676   1.559   1.779  0.4967  0.9384 -0.7745
 4094TIP3    H212247   0.753   1.579   1.908 -0.3980  2.0935 -0.4048
 4095TIP3   OH212248   1.797   5.770   0.105 -0.2184 -0.3938 -0.3591
 4095TIP3    H112249   1.733   5.747   0.038  0.2997  0.1984 -1.0773
 4095TIP3    H212250   1.767   5.854   0.139 -1.9938 -1.8885  2.1139
 4096TIP3   OH212251   7.175   6.359   0.597  0.0711  0.3449 -0.1497
 4096TIP3    H112252   7.248   6.308   0.633 -1.5295 -0.6899  1.9385
 4096TIP3    H212253   7.178   6.442   0.645  0.6167  0.8185 -0.9958
 4097TIP3   OH212254   5.738   2.963   3.926 -0.3317 -0.0291 -0.4694
 4097TIP3    H112255   5.733   3.049   3.884 -2.0913  0.3458  0.4267
 4097TIP3    H212256   5.743   2.982   4.019 -2.9738 -0.8330 -0.0769
 4098TIP3   OH212257   1.909   6.141   0.083 -0.3494 -0.1876 -0.0020
 4098TIP3    H112258   1.919   6.088   0.004  0.7765 -0.5320  0.3577
 4098TIP3    H212259   1.856   6.086   0.142  0.1306 -0.5830  0.0657
 4099TIP3   OH212260   0.149   5.466   5.431 -0.7359 -0.2121  0.4675
 4099TIP3    H112261   0.204   5.529   5.384 -2.5190  1.6822  0.7562
 4099TIP3    H212262   0.197   5.448   5.512  0.7289 -0.8048 -0.4836
 4100TIP3   OH212263   6.835   1.895   1.322 -0.1537 -0.2132  0.2139
 4100TIP3    H112264   6.805   1.808   1.298 -0.4163 -0.0487 -0.0564
 4100TIP3    H212265   6.882   1.882   1.405 -1.0693 -0.4606  0.7115
 4101TIP3   OH212266   4.673   0.265   2.117 -0.2303 -0.0037  0.1597
 4101TIP3    H112267   4.633   0.181   2.096 -2.1035  0.9333 -0.2744
 4101TIP3    H212268   4.644   0.324   2.048  1.7567  0.8394 -0.0361
 4102TIP3   OH212269   6.904   2.321   0.057  0.6597  0.2021 -0.2465
 4102TIP3    H112270   6.868   2.377  -0.011 -0.2690  1.6079  1.3219
 4102TIP3    H212271   6.999   2.332   0.049  0.5520  0.6111 -1.0916
 4103TIP3   OH212272   3.328   0.399   3.301  0.3159  0.4360  0.4914
 4103TIP3    H112273   3.350   0.351   3.220  0.6911  0.9690  0.2728
 4103TIP3    H212274   3.358   0.341   3.371  0.8891  0.4003  0.2246
 4104TIP3   OH212275   0.602   4.078   0.969  0.6235 -0.2280 -0.4719
 4104TIP3    H112276   0.513   4.044   0.961 -0.2688  1.6778  0.8771
 4104TIP3    H212277   0.630   4.052   1.057  0.4019  1.3346  0.0933
 4105TIP3   OH212278   6.693   6.824   4.169  0.3718  0.0703 -0.2870
 4105TIP3    H112279   6.678   6.790   4.257 -1.1850  0.1933 -0.4739
 4105TIP3    H212280   6.708   6.746   4.115 -1.0925 -0.2157 -0.3292
 4106TIP3   OH212281   0.818   3.359   0.444 -0.3101 -0.4475  0.4285
 4106TIP3    H112282   0.724   3.338   0.447 -0.5566  0.6475  3.2259
 4106TIP3    H212283   0.861   3.274   0.457 -0.9176 -0.8311  0.0221
 4107TIP3   OH212284   1.494   4.124   5.879 -0.6283  0.0255 -0.3739
 4107TIP3    H112285   1.568   4.156   5.828 -0.2353 -1.5850 -0.8846
 4107TIP3    H212286   1.477   4.193   5.943  2.0718 -0.0268  0.5170
 4108TIP3   OH212287   6.548   2.972   3.345 -0.7123 -0.2222  0.5470
 4108TIP3    H112288   6.485   2.989   3.275 -2.2446 -1.4328  1.5563
 4108TIP3    H212289   6.537   2.879   3.365  0.9073 -0.2887  1.2441
 4109TIP3   OH212290   4.922   0.425   0.943 -0.1705  0.3622 -0.1281
 4109TIP3    H112291   4.879   0.507   0.970  0.8862  1.2149 -0.9356
 4109TIP3    H212292   4.859   0.357   0.966 -1.1195  1.4005  0.5000
 4110TIP3   OH212293   4.192   6.547   5.468  0.2634 -0.2377 -0.0367
 4110TIP3    H112294   4.243   6.466   5.477  0.7674 -0.0005 -0.6761
 4110TIP3    H212295   4.147   6.537   5.384 -0.7042 -0.4148  0.4901
 4111TIP3   OH212296   6.155   0.232   4.150 -0.0597 -0.2919  0.0835
 4111TIP3    H112297   6.202   0.188   4.079  0.0904 -1.3091  0.7898
 4111TIP3    H212298   6.215   0.228   4.224 -0.8063 -0.5958  0.6820
 4112TIP3   OH212299   3.157   2.276   1.268  0.0332 -0.0769  0.1252
 4112TIP3    H112300   3.196   2.338   1.330 -0.6607 -0.1732  0.6710
 4112TIP3    H212301   3.064   2.300   1.267 -0.3623 -1.4835  0.8135
 4113TIP3   OH212302   4.160   3.650   2.937 -0.9099 -0.0083  0.2226
 4113TIP3    H112303   4.145   3.738   2.903 -1.8648 -0.5471 -0.8322
 4113TIP3    H212304   4.090   3.597   2.899  0.6558 -1.6027 -0.6379
 4114TIP3   OH212305   0.110   4.048   0.926 -0.3512 -0.0351 -0.1757
 4114TIP3    H112306   0.089   4.043   1.019  1.9890 -1.8814  0.3210
 4114TIP3    H212307   0.137   4.139   0.913 -0.0455  0.0737  1.0920
 4115TIP3   OH212308   3.809   5.858   5.105 -0.1158 -0.4072  0.2098
 4115TIP3    H112309   3.752   5.823   5.173 -0.7284  0.3542  0.1179
 4115TIP3    H212310   3.758   5.848   5.024  0.1961 -0.4161  0.0130
 4116TIP3   OH212311   2.677   5.598   3.330 -0.4036  0.1038 -0.4855
 4116TIP3    H112312   2.628   5.532   3.282 -2.0457 -0.1428  1.4172
 4116TIP3    H212313   2.695   5.558   3.415 -0.2306  1.6062  0.2168
 4117TIP3   OH212314   4.980   1.264   3.986  0.3500  0.1775 -0.3175
 4117TIP3    H112315   4.930   1.185   3.965  1.3263 -0.3713 -0.6030
 4117TIP3    H212316   5.007   1.252   4.077 -2.2227  1.6756  0.7642
 4118TIP3   OH212317   1.090   6.366   1.225  0.7821 -0.2218  0.1410
 4118TIP3    H112318   1.147   6.346   1.300  1.7195  0.5041 -0.3479
 4118TIP3    H212319   1.084   6.462   1.225 -2.0541 -0.2896  1.3160
 4119TIP3   OH212320   0.935   2.428   0.808 -0.2202  0.0829  0.1046
 4119TIP3    H112321   0.965   2.352   0.758 -0.8957 -1.3564  1.7769
 4119TIP3    H212322   0.850   2.401   0.842  0.6340  0.5559  2.8262
 4120TIP3   OH212323   3.750   4.816   4.563 -0.4929 -0.2636 -0.1073
 4120TIP3    H112324   3.753   4.837   4.656 -0.2237  0.3529 -0.2477
 4120TIP3    H212325   3.667   4.770   4.551  0.1991 -1.8173  0.7265
 4121TIP3   OH212326   4.483   4.016   0.072 -0.1983  0.2751 -0.0119
 4121TIP3    H112327   4.542   4.001   0.146 -1.0635 -0.3415  0.5775
 4121TIP3    H212328   4.401   4.043   0.112  0.0843  2.6334 -0.8934
 4122TIP3   OH212329   5.430   4.155   4.599 -0.0858 -0.1824 -0.1582
 4122TIP3    H112330   5.356   4.208   4.627  0.1358 -1.0846  2.3377
 4122TIP3    H212331   5.391   4.073   4.570 -0.1153 -0.5133  0.7910
 4123TIP3   OH212332   1.198   6.114   1.775 -0.7437  0.0530  1.1535
 4123TIP3    H112333   1.220   6.021   1.770 -0.2478  0.1650  1.2080
 4123TIP3    H212334   1.121   6.117   1.833 -4.1593 -0.8516 -2.8104
 4124TIP3   OH212335   6.635   6.046   2.256  0.5001  0.1286  0.5419
 4124TIP3    H112336   6.641   5.967   2.309 -3.5778 -0.4918  0.3915
 4124TIP3    H212337   6.615   6.116   2.318 -1.4079 -0.0603  0.1824
 4125TIP3   OH212338   2.898   5.161   4.265 -0.2162 -0.3710  0.0099
 4125TIP3    H112339   2.943   5.195   4.342 -0.6010  0.4258 -0.1111
 4125TIP3    H212340   2.936   5.074   4.251  1.7382  0.4985 -0.4560
 4126TIP3   OH212341   0.560   0.952   5.329 -0.4625 -0.0905  0.4393
 4126TIP3    H112342   0.508   0.994   5.398 -2.8009 -0.2537 -1.1228
 4126TIP3    H212343   0.553   0.858   5.346 -0.1345 -0.0917  0.5807
 4127TIP3   OH212344   2.651   6.092   0.321 -0.1205  0.2156  0.2662
 4127TIP3    H112345   2.710   6.024   0.356 -1.2923 -0.7642  0.3924
 4127TIP3    H212346   2.666   6.089   0.226 -0.2563 -0.3140  0.2570
 4128TIP3   OH212347   2.806   0.990   4.074  0.3766 -0.0157  0.1634
 4128TIP3    H112348   2.889   1.036   4.063  1.1537 -1.6634 -1.5727
 4128TIP3    H212349   2.739   1.059   4.068  1.5347  1.0977 -0.5572
 4129TIP3   OH212350   3.358   4.902   4.425 -0.6814  0.2414  0.1501
 4129TIP3    H112351   3.421   4.858   4.482 -0.6862 -0.0683 -0.0803
 4129TIP3    H212352   3.397   4.896   4.338 -1.1409 -0.1637 -0.0321
 4130TIP3   OH212353   0.248   2.659   4.946  0.3489 -0.4432 -0.4243
 4130TIP3    H112354   0.300   2.724   4.898 -0.6656  0.2311 -0.6693
 4130TIP3    H212355   0.188   2.623   4.880 -1.1021  0.5340  0.2890
 4131TIP3   OH212356   5.423   6.659   4.698  0.2583 -0.5167  0.1743
 4131TIP3    H112357   5.405   6.636   4.789  0.5528  0.1436  0.4080
 4131TIP3    H212358   5.510   6.622   4.681  0.9648  0.7778  0.7131
 4132TIP3   OH212359   2.960   2.525   3.999  0.4698 -0.4481 -0.6553
 4132TIP3    H112360   2.923   2.525   3.911  1.2073  1.3190 -1.0208
 4132TIP3    H212361   2.886   2.504   4.056 -0.3660 -0.1373 -1.5923
 4133TIP3   OH212362   1.565   4.943   1.735  0.0507 -0.3693  0.5527
 4133TIP3    H112363   1.512   4.916   1.810  0.0150 -0.5567  0.4594
 4133TIP3    H212364   1.655   4.936   1.766  0.0392 -0.5399  0.5461
 4134TIP3   OH212365   7.228   4.587   0.747 -0.5329 -0.2439  0.0684
 4134TIP3    H112366   7.238   4.682   0.745 -0.9829 -0.1674  0.9250
 4134TIP3    H212367   7.151   4.572   0.803  1.0248 -1.1952  2.0936
 4135TIP3   OH212368   4.169   0.358   2.593 -0.2482  0.2395 -0.3076
 4135TIP3    H112369   4.171   0.398   2.680 -1.8350 -0.8969  0.3007
 4135TIP3    H212370   4.204   0.270   2.605 -0.9608 -0.1084 -0.6973
 4136TIP3   OH212371   6.030   0.578   3.410 -0.1003  0.4343 -0.0078
 4136TIP3    H112372   6.061   0.561   3.321  1.1849 -2.1181  0.8318
 4136TIP3    H212373   5.948   0.529   3.417 -0.2589  0.7259  0.1945
 4137TIP3   OH212374   3.764   4.975   2.369 -0.4828 -0.5443  0.2000
 4137TIP3    H112375   3.848   4.975   2.415  0.0025 -1.1269 -0.6421
 4137TIP3    H212376   3.788   4.977   2.276 -1.3205 -2.6248 -0.1171
 4138TIP3   OH212377   4.876   2.491   3.917  0.0146 -0.3011  0.3954
 4138TIP3    H112378   4.832   2.538   3.988  0.1639  0.3119  0.0907
 4138TIP3    H212379   4.856   2.542   3.839  0.9262 -0.2400  0.1925
 4139TIP3   OH212380   5.469   6.424   3.411 -0.3797 -0.1065 -0.5546
 4139TIP3    H112381   5.404   6.358   3.385 -1.5562  0.1663  1.5000
 4139TIP3    H212382   5.540   6.373   3.450 -0.2318 -0.2796 -1.0381
 4140TIP3   OH212383   3.744   2.752   0.382 -0.6080  0.1812 -0.2598
 4140TIP3    H112384   3.754   2.708   0.298 -0.2178  0.0227 -0.1341
 4140TIP3    H212385   3.676   2.817   0.368 -1.5539 -0.7922 -0.3161
 4141TIP3   OH212386   3.056   5.192   1.008 -0.2091 -0.3757 -0.4524
 4141TIP3    H112387   3.133   5.239   0.978 -0.3133  0.8105  1.0317
 4141TIP3    H212388   3.089   5.132   1.075 -0.5699  0.2803  0.3346
 4142TIP3   OH212389   3.247   2.596   0.333 -0.1184 -0.1313  0.4932
 4142TIP3    H112390   3.238   2.501   0.339 -1.1044  0.0004  1.7129
 4142TIP3    H212391   3.165   2.625   0.293 -0.2798  0.2599  1.0816
 4143TIP3   OH212392   2.397   3.038   4.051 -0.0765 -0.6972  0.4638
 4143TIP3    H112393   2.486   3.017   4.022  0.3950 -0.7751  1.9112
 4143TIP3    H212394   2.373   2.965   4.108 -0.4384  0.1113  1.3613
 4144TIP3   OH212395   3.379   2.466   5.176  0.0081  0.0788  0.3971
 4144TIP3    H112396   3.399   2.543   5.123 -2.1701  0.5650  0.1967
 4144TIP3    H212397   3.456   2.454   5.231 -0.5614  4.0926  2.4660
 4145TIP3   OH212398   2.429   6.269   1.127 -0.3700  0.1562 -0.3662
 4145TIP3    H112399   2.399   6.209   1.058  0.9475 -1.6024  0.5081
 4145TIP3    H212400   2.355   6.276   1.186 -0.7283 -0.2114 -0.7624
 4146TIP3   OH212401   6.678   1.077   2.537 -0.5979  0.0478 -0.5000
 4146TIP3    H112402   6.642   1.164   2.554 -3.1545 -0.5712 -2.1918
 4146TIP3    H212403   6.700   1.043   2.624 -1.1859  1.6846  0.3420
 4147TIP3   OH212404   2.782   4.356   2.681  0.7242 -0.4541 -0.1155
 4147TIP3    H112405   2.876   4.368   2.675  1.0528 -2.5738 -0.0131
 4147TIP3    H212406   2.762   4.287   2.617 -0.5848 -0.8214  0.6477
 4148TIP3   OH212407   5.883   1.440  -0.006  0.8139 -0.5525 -0.0367
 4148TIP3    H112408   5.951   1.483   0.047  0.8264 -2.1875  1.3359
 4148TIP3    H212409   5.801   1.475   0.028  0.8715  1.5357 -1.7925
 4149TIP3   OH212410   2.296   6.213   3.942  0.1629  0.0095  0.2270
 4149TIP3    H112411   2.245   6.287   3.974  0.9139  1.3211 -1.4150
 4149TIP3    H212412   2.358   6.194   4.013 -0.8735  0.0787  1.1801
 4150TIP3   OH212413   2.453   1.368   3.990 -0.3613  0.1280  0.1392
 4150TIP3    H112414   2.464   1.437   3.924  0.7449 -0.1436  0.0206
 4150TIP3    H212415   2.420   1.414   4.067  0.5930  0.8513  0.1385
 4151TIP3   OH212416   4.097   5.990   3.960 -0.4766  0.4141 -0.2445
 4151TIP3    H112417   4.013   6.020   3.924 -0.9770  0.8657  1.2232
 4151TIP3    H212418   4.084   5.992   4.055  0.7039 -0.9763 -0.0217
 4152TIP3   OH212419   2.423   3.608   5.836  0.0459 -0.4351 -0.1085
 4152TIP3    H112420   2.421   3.642   5.746 -1.8103 -1.5726 -0.5507
 4152TIP3    H212421   2.397   3.516   5.828 -0.0255 -0.6016  1.5865
 4153TIP3   OH212422   3.049   5.915   2.083 -0.2447  0.1872 -0.3160
 4153TIP3    H112423   3.040   5.820   2.077  2.2065  0.0041 -2.1561
 4153TIP3    H212424   3.051   5.945   1.993  2.6185  1.5571  0.1103
 4154TIP3   OH212425   4.043   5.225   2.049 -0.0992  0.1380 -0.2801
 4154TIP3    H112426   3.989   5.282   2.104 -1.4168 -1.2893 -0.0261
 4154TIP3    H212427   4.090   5.169   2.110  1.6357  1.2660 -0.5078
 4155TIP3   OH212428   0.541   5.516   4.046 -0.4158  0.1739  0.5869
 4155TIP3    H112429   0.577   5.440   4.000  1.6830  1.1920  0.4074
 4155TIP3    H212430   0.470   5.547   3.990  1.2119  0.5984 -1.3661
 4156TIP3   OH212431   1.475   2.591   0.269  0.4901 -0.7760  0.3263
 4156TIP3    H112432   1.429   2.629   0.344  2.3153  1.7163  0.2773
 4156TIP3    H212433   1.526   2.519   0.307  1.5975  0.6084  1.5695
 4157TIP3   OH212434   2.621   5.901   1.444  0.3557  0.0098 -0.1262
 4157TIP3    H112435   2.566   5.979   1.442 -0.8058 -0.7271  1.1182
 4157TIP3    H212436   2.693   5.923   1.503  1.1907  0.8166 -1.3947
 4158TIP3   OH212437   1.714   0.767   4.824  0.1374 -0.1714 -0.5023
 4158TIP3    H112438   1.803   0.762   4.789  0.1343  0.8615 -0.6975
 4158TIP3    H212439   1.722   0.823   4.900 -0.2950 -0.3480 -0.3253
 4159TIP3   OH212440   6.962   3.889   4.546 -0.5115  0.2240  0.0263
 4159TIP3    H112441   7.048   3.850   4.532 -0.1463  1.3700 -1.1933
 4159TIP3    H212442   6.954   3.954   4.476 -2.9104 -0.7199 -0.6820
 4160TIP3   OH212443   2.869   4.234   0.418 -0.5719 -0.1150 -0.0725
 4160TIP3    H112444   2.841   4.310   0.367  1.6008  1.4973  0.9690
 4160TIP3    H212445   2.902   4.270   0.500 -0.1825 -2.2648  0.8007
 4161TIP3   OH212446   0.699   5.181   1.986 -0.0282 -0.2973 -0.0576
 4161TIP3    H112447   0.692   5.182   1.891  0.2785  0.4577 -0.0814
 4161TIP3    H212448   0.645   5.254   2.015  1.3513  0.6703  0.2141
 4162TIP3   OH212449   5.030   4.232   0.269 -0.2719  0.2889  0.0734
 4162TIP3    H112450   4.958   4.235   0.206  0.5734  2.6803 -0.8963
 4162TIP3    H212451   5.007   4.160   0.329 -0.6944 -2.7621 -3.4000
 4163TIP3   OH212452   5.843   4.992   0.100 -0.4288  0.0780  0.1009
 4163TIP3    H112453   5.931   4.956   0.088  0.0235  0.5226  1.8058
 4163TIP3    H212454   5.826   4.984   0.194 -0.8399  3.0133  0.3743
 4164TIP3   OH212455   0.125   3.375   3.386  0.6365 -0.6399  0.5126
 4164TIP3    H112456   0.075   3.448   3.349  1.9234 -0.5979 -1.2805
 4164TIP3    H212457   0.135   3.314   3.313  3.9920 -0.2048  0.4675
 4165TIP3   OH212458   7.051   6.228   0.365 -0.2400 -0.0869 -0.1398
 4165TIP3    H112459   7.084   6.242   0.454 -0.4541 -1.6398  0.2237
 4165TIP3    H212460   6.959   6.205   0.378 -0.6563  1.1134 -0.8940
 4166TIP3   OH212461   7.056   1.140   3.644  0.1060  0.3572  0.3590
 4166TIP3    H112462   6.992   1.084   3.689  0.7384  0.6578  1.6567
 4166TIP3    H212463   7.075   1.093   3.563 -2.4957  0.7263 -0.5846
 4167TIP3   OH212464   4.931   0.428   3.488  0.1279 -0.3889  0.7358
 4167TIP3    H112465   4.965   0.360   3.547 -0.3903 -0.6331  0.7553
 4167TIP3    H212466   4.844   0.448   3.521 -0.5621 -1.2232 -0.5024
 4168TIP3   OH212467   3.369   1.831   1.732 -0.3141 -0.2996  0.2646
 4168TIP3    H112468   3.427   1.755   1.729  1.3041  0.8463  1.0350
 4168TIP3    H212469   3.414   1.897   1.680  0.7496  1.6556  3.3717
 4169TIP3   OH212470   6.320   3.049   3.776 -0.0884 -0.7941  0.1194
 4169TIP3    H112471   6.339   3.123   3.834 -3.2822 -0.0970  0.4150
 4169TIP3    H212472   6.377   3.063   3.701 -0.4606  1.9144  0.2399
 4170TIP3   OH212473   2.396   2.332   3.668  0.1393 -0.0214  0.5163
 4170TIP3    H112474   2.399   2.404   3.605  0.7235 -0.1817  0.3563
 4170TIP3    H212475   2.320   2.280   3.642  0.6732 -0.3773 -0.3865
 4171TIP3   OH212476   0.836   6.180   2.785  0.4603  0.0157  0.0480
 4171TIP3    H112477   0.876   6.115   2.843  1.1419  0.1896 -0.2091
 4171TIP3    H212478   0.848   6.263   2.829 -0.1609  0.0045  0.2451
 4172TIP3   OH212479   6.367   4.844   4.167  0.4736 -0.0028 -0.6995
 4172TIP3    H112480   6.381   4.755   4.136 -2.0030 -0.3398 -1.1231
 4172TIP3    H212481   6.354   4.895   4.086 -3.7435 -0.4527 -0.5612
 4173TIP3   OH212482   0.549   5.609   3.163  0.1276 -0.4824 -0.3969
 4173TIP3    H112483   0.540   5.551   3.238  2.7642 -2.2020 -1.2701
 4173TIP3    H212484   0.525   5.696   3.196 -0.6014 -1.4871  1.8737
 4174TIP3   OH212485   1.897   5.541   1.263 -0.5354 -0.4948  0.1711
 4174TIP3    H112486   1.858   5.532   1.350 -1.2315  1.7268  0.1550
 4174TIP3    H212487   1.823   5.534   1.203 -0.0888 -1.7746 -0.2619
 4175TIP3   OH212488   6.271   2.828   0.099 -0.4258 -0.1054  0.0238
 4175TIP3    H112489   6.210   2.755   0.113 -0.1427 -0.5531 -1.0164
 4175TIP3    H212490   6.271   2.842   0.004  0.2206  0.6554  0.1253
 4176TIP3   OH212491   1.934   0.793   0.102 -0.3366 -0.2085 -0.3438
 4176TIP3    H112492   1.901   0.711   0.139 -1.0430 -0.2348 -1.0097
 4176TIP3    H212493   2.028   0.778   0.092 -0.0780 -0.1360  1.5821
 4177TIP3   OH212494   5.767   6.401   2.715 -0.5447 -0.3303 -0.2001
 4177TIP3    H112495   5.802   6.332   2.772 -0.2338 -0.5712 -0.6838
 4177TIP3    H212496   5.706   6.355   2.658 -0.5991 -0.1431 -0.2895
 4178TIP3   OH212497   1.024   1.972   0.754 -0.2743  0.7024  0.0165
 4178TIP3    H112498   1.046   1.896   0.808 -2.2107  1.4214  1.9857
 4178TIP3    H212499   1.064   1.954   0.669  0.3556 -1.9221  0.7778
 4179TIP3   OH212500   2.497   0.981   1.055 -0.4569  0.0961  0.1180
 4179TIP3    H112501   2.482   0.888   1.073 -0.5757 -0.3499 -2.0363
 4179TIP3    H212502   2.410   1.016   1.035 -0.3828  0.6427  0.7070
 4180TIP3   OH212503   2.679   5.202   0.309  0.3999 -0.2639  0.1209
 4180TIP3    H112504   2.764   5.157   0.314 -0.0170 -1.0989 -0.1459
 4180TIP3    H212505   2.617   5.133   0.285 -0.4394  0.2437  0.7895
 4181TIP3   OH212506   6.660   4.762   0.340 -0.6660  0.3221 -0.1063
 4181TIP3    H112507   6.664   4.791   0.431 -1.5851 -1.9398  0.7294
 4181TIP3    H212508   6.748   4.775   0.306  0.2246 -0.6229  1.7356
 4182TIP3   OH212509   3.335   1.264   1.087  0.1460  0.4553  0.8840
 4182TIP3    H112510   3.355   1.175   1.056 -1.1907 -0.0127  1.3244
 4182TIP3    H212511   3.259   1.291   1.036  1.3623  1.9384 -0.2579
 4183TIP3   OH212512   3.583   2.359   3.130  1.0293 -0.0256  0.1858
 4183TIP3    H112513   3.659   2.402   3.090 -0.1627  0.6400 -1.4649
 4183TIP3    H212514   3.515   2.426   3.132  0.5125 -0.5498  1.8381
 4184TIP3   OH212515   4.705   4.433   2.491  0.7023 -0.1829 -0.0494
 4184TIP3    H112516   4.710   4.465   2.401 -3.1937 -2.0953 -1.1604
 4184TIP3    H212517   4.727   4.509   2.544  1.2843  1.5433 -2.5664
 4185TIP3   OH212518   2.733   0.955   2.408  0.2459  0.1212 -0.1419
 4185TIP3    H112519   2.762   0.890   2.472 -0.2447 -0.7526 -0.7789
 4185TIP3    H212520   2.646   0.926   2.381  0.2041  0.7871 -0.7748
 4186TIP3   OH212521   4.046   6.165   1.168  0.3819  0.1109 -0.8510
 4186TIP3    H112522   4.012   6.152   1.080 -0.9047 -2.1272 -0.1264
 4186TIP3    H212523   3.992   6.234   1.206  0.5068  0.6147 -1.5719
 4187TIP3   OH212524   4.582   0.067   2.445 -0.2815  0.4606 -0.4337
 4187TIP3    H112525   4.591   0.162   2.440  1.6327  0.2531 -2.7275
 4187TIP3    H212526   4.555   0.040   2.358  2.0924 -1.2658 -0.7435
 4188TIP3   OH212527   0.089   5.314   0.885 -0.3106 -0.3447  0.1224
 4188TIP3    H112528   0.080   5.247   0.953 -1.1663  0.8295  1.2166
 4188TIP3    H212529   0.138   5.384   0.927  1.6871 -0.7535 -1.3984
 4189TIP3   OH212530   1.596   4.925   3.508  0.4960 -0.7050  0.0957
 4189TIP3    H112531   1.579   4.833   3.489 -0.6248 -0.4107 -0.4206
 4189TIP3    H212532   1.535   4.947   3.579 -0.9888  0.2403 -1.4123
 4190TIP3   OH212533   6.685   2.342   0.824  0.8755  0.0496  0.3693
 4190TIP3    H112534   6.713   2.427   0.791  1.1357 -0.7741 -1.6513
 4190TIP3    H212535   6.649   2.361   0.911 -1.9562  2.7155 -1.1852
 4191TIP3   OH212536   0.735   2.816   4.717 -0.1558 -0.0720 -0.6198
 4191TIP3    H112537   0.783   2.810   4.634  0.3800  0.8711 -0.3974
 4191TIP3    H212538   0.665   2.878   4.700  1.5892  2.3010  0.3336
 4192TIP3   OH212539   5.665   6.367   3.662  0.1329  0.5520 -0.5311
 4192TIP3    H112540   5.753   6.369   3.626  0.0650 -0.9873 -0.8375
 4192TIP3    H212541   5.670   6.307   3.736 -0.4373  1.2823  0.1269
 4193TIP3   OH212542   3.323   1.283   1.560  0.5554 -0.2554 -0.0668
 4193TIP3    H112543   3.347   1.199   1.600 -0.8896 -1.4887 -1.6637
 4193TIP3    H212544   3.270   1.259   1.484  0.7094  2.1030 -0.9883
 4194TIP3   OH212545   1.321   4.449   1.182 -0.3238 -0.1471  0.3338
 4194TIP3    H112546   1.248   4.493   1.226  0.2883  1.3790 -0.1256
 4194TIP3    H212547   1.399   4.479   1.228  0.2762  0.9290 -1.2913
 4195TIP3   OH212548   2.830   6.493   4.340  0.4133 -0.1644  0.5360
 4195TIP3    H112549   2.896   6.449   4.394 -0.4335 -1.7704  0.3309
 4195TIP3    H212550   2.864   6.486   4.251  0.0909 -0.7979  0.4559
 4196TIP3   OH212551   1.800   6.602   0.277 -0.0393  0.0560 -0.1504
 4196TIP3    H112552   1.826   6.592   0.369 -2.5227  0.4422  0.6724
 4196TIP3    H212553   1.805   6.513   0.242 -1.6580 -0.6244  1.1777
 4197TIP3   OH212554   4.447   0.967   1.516  0.5079  0.1547  0.1999
 4197TIP3    H112555   4.380   1.029   1.488 -0.7584 -0.7857  1.0023
 4197TIP3    H212556   4.464   0.913   1.439 -1.3698 -1.0479  0.5578
 4198TIP3   OH212557   5.215   1.403   2.458  0.2034 -0.4450 -0.9492
 4198TIP3    H112558   5.280   1.339   2.485 -1.3690 -1.6298  0.2538
 4198TIP3    H212559   5.226   1.476   2.518 -0.7672 -1.4501  0.5107
 4199TIP3   OH212560   5.895   1.638   3.435  0.6253  0.6465 -0.5913
 4199TIP3    H112561   5.930   1.647   3.523  1.3930 -0.2105 -0.7862
 4199TIP3    H212562   5.814   1.589   3.446  0.9819  0.0850 -0.3950
 4200TIP3   OH212563   4.998   4.869   4.014 -0.2905 -0.1220 -0.5407
 4200TIP3    H112564   4.979   4.823   3.932 -1.0609  0.4804 -0.7111
 4200TIP3    H212565   5.068   4.931   3.991 -1.3703  0.9382 -1.0733
 4201TIP3   OH212566   1.654   3.013   4.684 -0.2736 -0.4549 -0.0057
 4201TIP3    H112567   1.681   3.052   4.768 -0.6683  0.3873 -0.2546
 4201TIP3    H212568   1.569   3.054   4.666 -0.1708 -0.5992 -0.8374
 4202TIP3   OH212569   4.245   1.204   2.689 -0.2447 -0.3088  0.4272
 4202TIP3    H112570   4.221   1.126   2.739  0.5991 -0.5583  0.4727
 4202TIP3    H212571   4.314   1.245   2.740 -0.1992  0.0850  0.0574
 4203TIP3   OH212572   3.946   3.257   5.278  0.5965 -0.0506 -0.2008
 4203TIP3    H112573   3.990   3.236   5.196 -1.0965 -2.3270 -0.6201
 4203TIP3    H212574   3.867   3.305   5.251  0.5175  0.0265  0.1655
 4204TIP3   OH212575   1.037   1.773   5.760 -0.3950  0.3456  0.1278
 4204TIP3    H112576   0.965   1.777   5.823  0.4833 -0.2258  1.1972
 4204TIP3    H212577   1.044   1.680   5.737  0.4499  0.2775  0.6011
 4205TIP3   OH212578   3.566   2.918   0.625  0.0759  0.5201  0.1573
 4205TIP3    H112579   3.586   3.009   0.647  0.8733  0.4946 -0.4274
 4205TIP3    H212580   3.652   2.877   0.612 -0.2932 -0.1698 -0.1590
 4206TIP3   OH212581   1.225   1.403   1.472 -0.4884  0.0676 -0.0438
 4206TIP3    H112582   1.191   1.490   1.452  0.9741  0.5824 -0.4436
 4206TIP3    H212583   1.273   1.415   1.555  0.1230 -0.2361 -0.3464
 4207TIP3   OH212584   6.475   1.372   4.440  0.4361 -0.0007 -0.0929
 4207TIP3    H112585   6.403   1.328   4.396  0.1562  0.1660  0.1970
 4207TIP3    H212586   6.491   1.320   4.519  0.7398 -0.1304 -0.2382
 4208TIP3   OH212587   3.599   3.258   4.431  0.0095  0.1368  0.6337
 4208TIP3    H112588   3.507   3.281   4.440 -0.5243 -0.9581 -1.2574
 4208TIP3    H212589   3.647   3.340   4.442 -1.3334  1.0261  0.0471
 4209TIP3   OH212590   3.441   4.600   5.459  0.2206  0.0930  0.0892
 4209TIP3    H112591   3.474   4.608   5.548  0.6784  0.3474 -0.0988
 4209TIP3    H212592   3.520   4.596   5.405 -0.0554  0.3914 -0.3383
 4210TIP3   OH212593   0.616   1.051   2.918  0.6597 -0.4508 -0.2770
 4210TIP3    H112594   0.604   1.143   2.943  1.8175 -0.1679 -0.6919
 4210TIP3    H212595   0.527   1.016   2.913  0.2429  0.3556  0.9295
 4211TIP3   OH212596   4.339   0.694   3.604 -0.1752 -0.2555  0.1938
 4211TIP3    H112597   4.268   0.725   3.661 -1.2303 -0.6148 -0.8685
 4211TIP3    H212598   4.340   0.599   3.616  0.5273 -0.2034  0.6233
 4212TIP3   OH212599   3.143   6.763   1.167  0.0810 -0.1651  0.4769
 4212TIP3    H112600   3.181   6.778   1.254 -1.6790 -0.9561  1.4382
 4212TIP3    H212601   3.219   6.762   1.108  1.3178  0.5252  1.9591
 4213TIP3   OH212602   6.111   1.164   3.005 -0.1225 -0.3487  0.5951
 4213TIP3    H112603   6.042   1.226   3.031 -0.1670 -0.1190 -0.0285
 4213TIP3    H212604   6.191   1.201   3.040 -0.1207  0.1898  0.0478
 4214TIP3   OH212605   6.477   3.389   0.671 -0.3609 -0.1684 -0.0169
 4214TIP3    H112606   6.551   3.347   0.715 -0.2200 -1.3318 -1.2978
 4214TIP3    H212607   6.503   3.393   0.579 -1.7442 -0.2620 -0.4313
 4215TIP3   OH212608   4.632   6.436   0.865 -0.3603  0.2325  0.5906
 4215TIP3    H112609   4.540   6.450   0.844 -0.2352 -2.5578 -2.5580
 4215TIP3    H212610   4.631   6.373   0.937 -0.9404 -0.2726  0.1521
 4216TIP3   OH212611   5.280   2.676   4.260  0.1020 -0.3012  0.3977
 4216TIP3    H112612   5.191   2.686   4.228 -0.0466 -2.1715  0.1441
 4216TIP3    H212613   5.335   2.710   4.189 -0.3537 -0.8673 -0.2382
 4217TIP3   OH212614   4.303   5.660   2.117  0.3441 -0.3905 -0.1232
 4217TIP3    H112615   4.334   5.583   2.070  1.3008 -0.4927  0.6546
 4217TIP3    H212616   4.300   5.729   2.051  1.2312 -0.6440 -0.4364
 4218TIP3   OH212617   0.599   4.649   3.132  0.4340  0.2715  0.3214
 4218TIP3    H112618   0.593   4.553   3.125 -1.2930  0.3978 -0.4854
 4218TIP3    H212619   0.516   4.675   3.172  1.1787  1.3895  1.1660
 4219TIP3   OH212620   6.667   0.962   0.100  0.4225  0.3735  0.3401
 4219TIP3    H112621   6.669   0.928   0.010 -0.7319 -0.4432  0.6114
 4219TIP3    H212622   6.685   0.886   0.155 -1.7650  0.2350  0.9323
 4220TIP3   OH212623   1.272   4.810   2.413 -0.0365 -0.0944  0.0137
 4220TIP3    H112624   1.321   4.892   2.413 -0.1087 -0.0484  0.2463
 4220TIP3    H212625   1.336   4.744   2.389 -0.1951  0.1470 -1.0945
 4221TIP3   OH212626   2.473   1.478   2.094 -0.1187 -0.2418  0.1709
 4221TIP3    H112627   2.424   1.557   2.115 -0.8063 -0.5993 -0.0328
 4221TIP3    H212628   2.547   1.478   2.154  0.4110  1.0255 -0.4521
 4222TIP3   OH212629   4.200   0.986   2.840  0.0428 -0.0922 -0.0991
 4222TIP3    H112630   4.237   0.901   2.819 -0.7154 -0.2429 -0.8704
 4222TIP3    H212631   4.145   0.970   2.917  1.1902  0.0404  0.7589
 4223TIP3   OH212632   1.826   3.553   4.268  0.0108 -0.5618 -0.1868
 4223TIP3    H112633   1.919   3.560   4.292  0.3856 -1.3940 -1.3012
 4223TIP3    H212634   1.798   3.643   4.253 -0.3649  0.1082  3.5545
 4224TIP3   OH212635   3.810   5.443   2.811  0.9830 -0.0287 -0.1119
 4224TIP3    H112636   3.888   5.472   2.858  1.0155  0.3848 -0.4203
 4224TIP3    H212637   3.836   5.360   2.770  0.8480 -0.5720  0.8774
 4225TIP3   OH212638   0.668   1.529   5.332  0.2466 -0.7142  0.2887
 4225TIP3    H112639   0.683   1.495   5.244 -0.9634 -0.0983 -0.1756
 4225TIP3    H212640   0.755   1.554   5.364  0.7083 -1.0590 -0.6755
 4226TIP3   OH212641   1.401   2.249   5.565  0.2643 -0.1105  0.1664
 4226TIP3    H112642   1.355   2.275   5.644  1.8119 -1.9622  1.7935
 4226TIP3    H212643   1.410   2.329   5.514 -1.5917  0.9546  1.3922
 4227TIP3   OH212644   0.751   0.161   4.679 -0.2752  0.1581 -0.6211
 4227TIP3    H112645   0.837   0.145   4.718 -0.8042  0.0173  0.5009
 4227TIP3    H212646   0.767   0.154   4.585  1.1497  1.1601 -0.4901
 4228TIP3   OH212647   1.309   4.254   0.177 -0.1987 -0.2645  0.1187
 4228TIP3    H112648   1.233   4.250   0.234  0.4788 -0.1755  1.0498
 4228TIP3    H212649   1.333   4.347   0.175  0.4383 -0.4135  0.5897
 4229TIP3   OH212650   6.990   1.877   0.735  0.4474  0.1626 -0.2990
 4229TIP3    H112651   7.026   1.812   0.674 -1.2473 -0.7762 -0.3503
 4229TIP3    H212652   6.928   1.828   0.789  1.4347  1.1028  1.8046
 4230TIP3   OH212653   1.903   1.138   2.992  0.0220 -0.0713  0.6666
 4230TIP3    H112654   1.845   1.086   3.047 -1.1100 -0.7402 -1.0532
 4230TIP3    H212655   1.925   1.214   3.045 -0.6884 -0.8709  2.1624
 4231TIP3   OH212656   4.104   6.220   4.906 -0.2482 -0.0644  0.3796
 4231TIP3    H112657   4.011   6.200   4.909 -0.6391  1.5396  0.0028
 4231TIP3    H212658   4.114   6.297   4.961  0.4354  1.1596 -1.3838
 4232TIP3   OH212659   5.381   4.121   2.996 -0.5741 -0.4740  0.3870
 4232TIP3    H112660   5.422   4.108   2.910  2.5012 -0.2555  1.6822
 4232TIP3    H212661   5.352   4.212   2.995  0.2462 -0.2005 -0.1528
 4233TIP3   OH212662   0.898   4.143   5.264  0.0325 -0.3013  0.2106
 4233TIP3    H112663   0.990   4.162   5.245 -0.0320  0.9621  1.0321
 4233TIP3    H212664   0.902   4.077   5.334  0.3168 -0.3883  0.1136
 4234TIP3   OH212665   0.716   6.026   2.150 -0.2135 -0.5650  0.3527
 4234TIP3    H112666   0.711   6.016   2.245 -0.1161 -2.3954  0.1832
 4234TIP3    H212667   0.644   6.086   2.130  0.6847  1.0773  1.7052
 4235TIP3   OH212668   4.443   3.837   0.525 -0.3039 -0.3489 -0.6897
 4235TIP3    H112669   4.360   3.847   0.478  1.4557  1.5234 -3.6517
 4235TIP3    H212670   4.477   3.752   0.496 -0.1466 -0.0940 -1.2620
 4236TIP3   OH212671   5.773   5.375   3.690  0.1516 -0.0499  0.8992
 4236TIP3    H112672   5.746   5.444   3.630 -0.6021  0.3708  1.6910
 4236TIP3    H212673   5.762   5.294   3.640  5.1536  0.4288 -1.6461
 4237TIP3   OH212674   4.268   4.029   3.256  0.1928  0.3257  0.3197
 4237TIP3    H112675   4.273   4.016   3.162 -0.2018  0.3628  0.2917
 4237TIP3    H212676   4.321   3.958   3.293  0.5354  0.4491  0.0625
 4238TIP3   OH212677   6.241   0.702   3.144  0.0862  0.0156 -0.5387
 4238TIP3    H112678   6.210   0.782   3.187 -0.6637 -0.2816 -0.5150
 4238TIP3    H212679   6.324   0.727   3.104  0.9381  0.2246  1.3084
 4239TIP3   OH212680   2.900   4.126   4.935 -0.0234 -0.6929  0.1399
 4239TIP3    H112681   2.815   4.171   4.939  0.5584  0.4357  0.1415
 4239TIP3    H212682   2.914   4.111   4.842 -0.6001 -1.6439  0.1930
 4240TIP3   OH212683   7.141   6.754   0.333 -0.9989 -0.0724  0.4668
 4240TIP3    H112684   7.190   6.685   0.289 -0.6771  0.4001  0.0694
 4240TIP3    H212685   7.064   6.710   0.370 -0.7922 -0.6383  0.2276
 4241TIP3   OH212686   5.118   6.578   0.739 -0.2992  0.3807 -0.7750
 4241TIP3    H112687   5.212   6.563   0.744 -0.5096 -0.6373  0.7453
 4241TIP3    H212688   5.109   6.673   0.736  0.7597  0.5230 -0.0025
 4242TIP3   OH212689   5.411   6.752   1.211  0.1164 -0.1998 -0.0943
 4242TIP3    H112690   5.504   6.733   1.202  0.3307 -0.7787  2.5111
 4242TIP3    H212691   5.370   6.708   1.136  1.7587 -1.4275 -0.3153
 4243TIP3   OH212692   2.773   5.601   5.441 -0.2488  0.0533  0.3352
 4243TIP3    H112693   2.811   5.667   5.500 -1.7637  1.5266 -0.2455
 4243TIP3    H212694   2.787   5.638   5.353 -2.1222  0.2097  0.0601
 4244TIP3   OH212695   0.625   5.324   4.890  0.0726  0.2906 -0.5528
 4244TIP3    H112696   0.661   5.389   4.950  0.8958 -0.0112 -0.7051
 4244TIP3    H212697   0.629   5.365   4.804  0.7793 -0.0247 -0.6774
 4245TIP3   OH212698   0.846   5.352   4.162  0.0992 -0.3468 -0.0667
 4245TIP3    H112699   0.792   5.303   4.100  1.2318 -0.0499 -1.3091
 4245TIP3    H212700   0.889   5.284   4.215  0.2992 -0.6408 -0.6053
 4246TIP3   OH212701   0.733   0.245   0.017 -0.2469  0.0706 -0.0390
 4246TIP3    H112702   0.724   0.326   0.067  0.0230 -1.2395  2.2448
 4246TIP3    H212703   0.824   0.218   0.029 -0.4940 -0.9112 -0.2287
 4247TIP3   OH212704   0.907   1.263   1.938  0.3649  0.0909 -0.4068
 4247TIP3    H112705   0.943   1.291   2.022 -1.0585 -1.1639  0.6712
 4247TIP3    H212706   0.840   1.328   1.917 -1.5589 -1.2774  1.1161
 4248TIP3   OH212707   0.258   6.511   2.784 -0.4087 -0.5842  0.0396
 4248TIP3    H112708   0.180   6.529   2.837  0.9541  0.2463  1.8605
 4248TIP3    H212709   0.331   6.537   2.839  1.1714 -0.9404 -1.7831
 4249TIP3   OH212710   3.614   0.913   2.207 -0.3625 -0.1160  0.2635
 4249TIP3    H112711   3.556   0.849   2.247 -0.1431 -0.8139 -0.5236
 4249TIP3    H212712   3.563   0.994   2.205 -0.8371 -0.3974  0.7573
 4250TIP3   OH212713   5.099   1.522   3.511  0.5018  0.0796  0.1479
 4250TIP3    H112714   5.187   1.486   3.521  0.7154  0.7796  0.9428
 4250TIP3    H212715   5.052   1.493   3.589  1.1525  2.7533  1.6597
 4251TIP3   OH212716   2.820   6.654   5.698  0.4451 -0.1945  0.3090
 4251TIP3    H112717   2.766   6.676   5.774  0.3749  0.8653 -0.0394
 4251TIP3    H212718   2.769   6.683   5.622  0.3125 -1.6305 -0.1979
 4252TIP3   OH212719   4.446   5.388   2.644  0.2843  0.2885  0.8130
 4252TIP3    H112720   4.363   5.432   2.664 -0.8029 -1.5692  0.6591
 4252TIP3    H212721   4.500   5.455   2.602 -1.5035  1.2851  0.0127
 4253TIP3   OH212722   0.057   6.373   0.942 -0.6990 -0.1904  0.0382
 4253TIP3    H112723   0.008   6.292   0.933 -0.2915 -0.3490 -0.9368
 4253TIP3    H212724   0.144   6.352   0.908 -0.0561  0.1850  1.3738
 4254TIP3   OH212725   4.102   1.300   1.617 -0.3444  0.1744  0.6032
 4254TIP3    H112726   4.110   1.280   1.710 -0.3576 -0.7453  0.4240
 4254TIP3    H212727   4.011   1.328   1.606 -0.3880  0.1260  0.8379
 4255TIP3   OH212728   1.923   3.422   3.488 -0.1738 -0.0840  0.0368
 4255TIP3    H112729   1.978   3.391   3.416  1.0137 -1.1512  1.3459
 4255TIP3    H212730   1.841   3.449   3.446  0.3994 -0.8798 -1.6768
 4256TIP3   OH212731   5.571   0.978   3.941  0.2411 -0.5910 -0.2128
 4256TIP3    H112732   5.584   1.039   4.014 -1.1921 -0.4206 -0.0690
 4256TIP3    H212733   5.478   0.956   3.945  0.1155 -0.5136 -2.0441
 4257TIP3   OH212734   2.232   2.617   1.112  0.3392  0.0897 -0.3382
 4257TIP3    H112735   2.273   2.679   1.173  1.3611  0.0107 -0.9130
 4257TIP3    H212736   2.190   2.673   1.046  1.4578  0.2122 -0.9864
 4258TIP3   OH212737   6.975   3.351   3.283  0.1959  0.1065  0.0825
 4258TIP3    H112738   6.968   3.256   3.294  0.5018  0.2080  1.2519
 4258TIP3    H212739   6.885   3.383   3.297  0.2222  0.0489  0.3977
 4259TIP3   OH212740   2.344   4.439   1.258  0.2255  0.2365 -0.4309
 4259TIP3    H112741   2.318   4.389   1.180 -3.0204 -0.2309  0.8143
 4259TIP3    H212742   2.384   4.518   1.223  1.0362 -0.9994 -2.5115
 4260TIP3   OH212743   0.908   2.370   3.418  0.5748  0.1527 -0.4351
 4260TIP3    H112744   0.955   2.333   3.493 -1.1246 -1.4279 -0.0939
 4260TIP3    H212745   0.842   2.427   3.457  1.0309  0.9952 -0.8511
 4261TIP3   OH212746   0.732   4.534   4.351 -0.1333 -0.5305 -0.1921
 4261TIP3    H112747   0.826   4.532   4.335 -0.3010  0.2396 -1.3517
 4261TIP3    H212748   0.722   4.592   4.426  0.3191 -0.6826 -0.0078
 4262TIP3   OH212749   4.745   3.628   4.417 -0.0485  0.9002  0.6208
 4262TIP3    H112750   4.730   3.684   4.492 -1.9861  0.7224  0.4285
 4262TIP3    H212751   4.672   3.566   4.418  0.0497  0.6771 -1.1924
 4263TIP3   OH212752   4.889   1.224   5.359  0.1954 -0.3291 -0.4541
 4263TIP3    H112753   4.900   1.317   5.339  0.8314 -0.3543 -0.2395
 4263TIP3    H212754   4.877   1.182   5.274 -3.3488  0.3191 -0.4302
 4264TIP3   OH212755   3.616   1.522   5.604  0.0982  0.2863 -0.1655
 4264TIP3    H112756   3.619   1.442   5.552  2.4789  0.1817  0.0488
 4264TIP3    H212757   3.706   1.552   5.608 -0.1855  1.0666  2.7239
 4265TIP3   OH212758   6.269   1.115   2.604  0.3739 -0.1886 -0.5709
 4265TIP3    H112759   6.276   1.198   2.557 -0.5696  0.6699  0.7535
 4265TIP3    H212760   6.350   1.109   2.655  0.0864  0.3180 -0.0508
 4266TIP3   OH212761   6.142   0.914   4.087 -0.0903 -0.3354  0.1602
 4266TIP3    H112762   6.109   0.846   4.028 -0.6609  1.7943 -2.1142
 4266TIP3    H212763   6.067   0.937   4.141 -0.3148 -0.4400 -0.1052
 4267TIP3   OH212764   0.169   2.771  -0.004  0.3663 -0.0342 -0.1565
 4267TIP3    H112765   0.172   2.704   0.065 -0.3052 -1.2735 -1.2715
 4267TIP3    H212766   0.078   2.773  -0.031  0.8109 -0.4516 -1.7952
 4268TIP3   OH212767   0.408   6.403   0.477 -0.0034  0.1986  0.4122
 4268TIP3    H112768   0.501   6.409   0.498  0.4560  1.2378 -1.6523
 4268TIP3    H212769   0.406   6.364   0.389 -1.4661  0.8556  0.1302
 4269TIP3   OH212770   0.783   0.387   5.652  0.4903 -0.5243  0.0007
 4269TIP3    H112771   0.877   0.367   5.645  0.7131  0.6439 -0.6944
 4269TIP3    H212772   0.775   0.438   5.732  0.5790  0.0226 -0.3344
 4270TIP3   OH212773   3.974   4.160   3.141 -0.1440  0.3427 -0.2827
 4270TIP3    H112774   3.927   4.237   3.110 -0.8112  0.3549  0.7298
 4270TIP3    H212775   4.013   4.187   3.224 -0.0532 -0.2918 -0.1125
 4271TIP3   OH212776   3.158   6.240   1.816  0.3381 -0.0256  0.2443
 4271TIP3    H112777   3.203   6.285   1.887  0.4607 -0.9661  0.7830
 4271TIP3    H212778   3.214   6.253   1.739  1.2849 -0.7678  0.7995
 4272TIP3   OH212779   0.156   5.432   1.382  0.9761 -0.1923  0.0374
 4272TIP3    H112780   0.151   5.405   1.290 -1.0503  1.2383 -0.3371
 4272TIP3    H212781   0.125   5.355   1.431 -0.2706 -0.1778 -0.6738
 4273TIP3   OH212782   1.885   6.752   0.574 -0.1247  0.2548  0.7392
 4273TIP3    H112783   1.960   6.800   0.539 -0.1528  0.2678  0.6972
 4273TIP3    H212784   1.922   6.671   0.609  0.3256  1.3767  3.1222
 4274TIP3   OH212785   6.864   4.848   4.284  0.0314 -0.2196 -0.1286
 4274TIP3    H112786   6.774   4.819   4.303 -0.4366  1.0153 -0.3504
 4274TIP3    H212787   6.919   4.786   4.332 -0.8848 -1.6504 -0.8290
 4275TIP3   OH212788   5.323   6.471   4.057  0.4145  0.0664 -0.5346
 4275TIP3    H112789   5.351   6.408   3.991  0.6534 -0.5965  0.1815
 4275TIP3    H212790   5.365   6.553   4.032  1.2201 -0.3959 -0.7032
 4276TIP3   OH212791   1.202   3.833   0.694 -0.1014  0.1469  0.1043
 4276TIP3    H112792   1.167   3.853   0.608  0.8509 -0.2848 -0.3962
 4276TIP3    H212793   1.270   3.768   0.678  0.4124  0.4085  1.1208
 4277TIP3   OH212794   3.897   2.066   3.827 -0.2423 -0.1307 -0.4086
 4277TIP3    H112795   3.933   2.089   3.913  0.2331 -1.6112 -0.1913
 4277TIP3    H212796   3.803   2.075   3.837 -0.0894  2.8231 -0.6897
 4278TIP3   OH212797   1.261   4.086   0.508 -0.1405 -0.0926  0.4879
 4278TIP3    H112798   1.274   4.156   0.572  0.8064 -0.6054  0.8870
 4278TIP3    H212799   1.181   4.110   0.462 -0.7702  0.3728  1.7668
 4279TIP3   OH212800   6.618   3.766   5.690  0.2106 -0.3622  0.6754
 4279TIP3    H112801   6.551   3.731   5.750 -0.4543  1.8235  1.3000
 4279TIP3    H212802   6.696   3.776   5.745 -0.0596  0.5468  0.9124
 4280TIP3   OH212803   0.779   3.647   3.964 -0.1613  0.3351 -0.5223
 4280TIP3    H112804   0.731   3.630   4.045 -0.9825 -1.4388 -1.3288
 4280TIP3    H212805   0.858   3.593   3.972  0.4356  1.2251 -0.3239
 4281TIP3   OH212806   6.234   3.885   5.524  0.0478 -0.4673 -0.1244
 4281TIP3    H112807   6.232   3.821   5.595  0.6595 -0.5747 -0.1945
 4281TIP3    H212808   6.149   3.929   5.528 -0.1600 -0.9041  0.2737
 4282TIP3   OH212809   1.744   6.166   4.514  0.3343  0.4387  0.7203
 4282TIP3    H112810   1.681   6.094   4.510  0.8439  0.0454 -1.0658
 4282TIP3    H212811   1.714   6.229   4.449  0.8285  1.0688  1.0817
 4283TIP3   OH212812   0.506   4.986   5.197 -0.1288 -0.3910  0.4337
 4283TIP3    H112813   0.494   5.017   5.286  0.7181 -0.5338  0.6016
 4283TIP3    H212814   0.600   4.970   5.189 -0.3646 -1.6461 -0.0544
 4284TIP3   OH212815   2.085   2.085   4.484  0.0949  0.4543 -1.2716
 4284TIP3    H112816   2.015   2.024   4.506 -0.1612  0.8054 -1.0908
 4284TIP3    H212817   2.155   2.030   4.449  0.7416 -0.2389  0.9037
 4285TIP3   OH212818   1.921   4.433   4.539  0.4378  0.2675 -0.0978
 4285TIP3    H112819   1.951   4.342   4.542  2.5234  0.9007 -0.4197
 4285TIP3    H212820   1.834   4.427   4.498  0.5028 -1.5752 -0.0812
 4286TIP3   OH212821   5.420   0.434   5.846  0.3090 -0.3088  0.3214
 4286TIP3    H112822   5.350   0.459   5.907  1.7382  0.9257  1.5548
 4286TIP3    H212823   5.469   0.366   5.893  0.4792 -0.5151 -0.1498
 4287TIP3   OH212824   3.980   5.606   3.675  0.3443  0.0654  0.1940
 4287TIP3    H112825   3.979   5.563   3.590  1.1768 -0.8630  0.6350
 4287TIP3    H212826   4.051   5.564   3.723  0.1749  0.8708  1.2013
 4288TIP3   OH212827   3.558   3.484   3.702  0.2949 -0.7291 -0.2077
 4288TIP3    H112828   3.505   3.502   3.779 -0.1751 -1.2843 -0.3932
 4288TIP3    H212829   3.570   3.569   3.661  0.1778 -0.4919  0.2424
 4289TIP3   OH212830   2.076   2.700   1.825 -0.0574  0.3334  0.0990
 4289TIP3    H112831   2.122   2.618   1.808 -0.7788  0.1866 -1.2725
 4289TIP3    H212832   2.090   2.752   1.746 -0.4342  1.1500  0.5578
 4290TIP3   OH212833   3.759   4.920   4.241 -0.8885  0.6766  0.7179
 4290TIP3    H112834   3.678   4.903   4.193 -0.4378  0.3804  0.0313
 4290TIP3    H212835   3.750   4.871   4.322  0.2358 -2.8102 -1.0489
 4291TIP3   OH212836   1.191   2.946   0.715  0.0721  0.2851  0.9343
 4291TIP3    H112837   1.270   2.892   0.708 -0.5888 -0.7755  1.4791
 4291TIP3    H212838   1.173   2.972   0.624 -0.5002 -1.7809  0.3812
 4292TIP3   OH212839   0.296   2.324   4.976 -0.5777 -0.5350 -0.2496
 4292TIP3    H112840   0.316   2.235   4.945 -0.4790 -0.3276 -0.7918
 4292TIP3    H212841   0.253   2.366   4.901 -1.8528 -0.5476  0.4501
 4293TIP3   OH212842   4.889   2.923   1.113 -0.1124  0.0488  0.6186
 4293TIP3    H112843   4.839   2.992   1.156 -2.3640 -1.5617  0.7650
 4293TIP3    H212844   4.861   2.927   1.021  1.0795  0.4103  0.2466
 4294TIP3   OH212845   5.825   6.278   2.178  0.0517 -0.2164  0.0732
 4294TIP3    H112846   5.736   6.309   2.191  0.2621  0.5252 -0.1767
 4294TIP3    H212847   5.842   6.221   2.253 -0.6048 -0.3104  0.1547
 4295TIP3   OH212848   0.086   5.130   5.672 -0.3046 -0.8073  0.0078
 4295TIP3    H112849   0.172   5.089   5.679 -1.2065 -2.9396 -0.7085
 4295TIP3    H212850   0.042   5.082   5.602 -2.8959 -1.3339  1.8595
 4296TIP3   OH212851   6.454   3.168   4.057 -0.2689 -0.4798  0.3671
 4296TIP3    H112852   6.381   3.147   4.115  0.1406  1.5220  1.7325
 4296TIP3    H212853   6.510   3.226   4.109  2.8835 -2.6899 -0.2425
 4297TIP3   OH212854   5.164   5.122   5.201  0.2887 -0.5874 -0.4065
 4297TIP3    H112855   5.222   5.199   5.201  0.5195 -0.7487  0.8101
 4297TIP3    H212856   5.096   5.143   5.265  0.7066 -1.6475  0.4041
 4298TIP3   OH212857   4.468   6.661   3.020  0.1971 -0.0825 -0.4879
 4298TIP3    H112858   4.448   6.742   3.067 -0.1969 -0.5989  0.2543
 4298TIP3    H212859   4.385   6.614   3.016  0.9222 -1.7286  1.5934
 4299TIP3   OH212860   1.584   0.855   5.411  0.1257  0.4814 -0.0492
 4299TIP3    H112861   1.534   0.936   5.400 -1.8436 -0.7052 -0.2875
 4299TIP3    H212862   1.566   0.828   5.501  2.1559  1.1423  0.6087
 4300TIP3   OH212863   2.079   0.466   3.808 -0.0079  0.5326 -0.6172
 4300TIP3    H112864   2.121   0.430   3.887 -0.2836  1.6163  0.0369
 4300TIP3    H212865   1.985   0.453   3.823 -0.0429  0.3107 -0.9972
 4301TIP3   OH212866   2.917   3.954   3.731 -0.7227 -0.2406  0.2608
 4301TIP3    H112867   2.967   3.963   3.650  0.3001 -0.8465  0.8067
 4301TIP3    H212868   2.946   4.027   3.786 -0.5511 -0.5047  0.5225
 4302TIP3   OH212869   0.153   1.237   4.603  0.4744 -0.7542  0.6822
 4302TIP3    H112870   0.215   1.180   4.648  2.1011  1.3165  1.2181
 4302TIP3    H212871   0.090   1.263   4.670  0.5126 -0.8740  0.7638
 4303TIP3   OH212872   5.518   5.831   0.664  0.0961  0.3396 -0.9536
 4303TIP3    H112873   5.460   5.904   0.685  0.4128  0.1758  0.5759
 4303TIP3    H212874   5.580   5.867   0.600 -0.2029  1.1905 -0.7681
 4304TIP3   OH212875   4.980   6.706   1.609  0.1632  0.1746 -0.3936
 4304TIP3    H112876   4.930   6.625   1.618 -2.3798  1.4880 -1.7001
 4304TIP3    H212877   4.961   6.756   1.689 -1.1371  0.8906 -1.1154
 4305TIP3   OH212878   4.869   3.026   3.091  0.2839  0.0590  0.9040
 4305TIP3    H112879   4.787   3.039   3.043  0.0111  1.6389  1.7398
 4305TIP3    H212880   4.937   3.037   3.025 -0.1444 -0.2299  0.4081
 4306TIP3   OH212881   0.718   0.764   2.931 -0.1843  0.3824 -0.1078
 4306TIP3    H112882   0.707   0.859   2.936  0.1664  0.3704  1.4707
 4306TIP3    H212883   0.712   0.734   3.022 -0.6842 -1.1604 -0.6136
 4307TIP3   OH212884   1.070   0.643   5.023 -0.2020 -0.2600  0.2058
 4307TIP3    H112885   1.101   0.577   4.961 -0.8061 -0.4257  0.0781
 4307TIP3    H212886   0.988   0.608   5.057  0.3432 -0.3869  1.4526
 4308TIP3   OH212887   0.673   4.994   0.011 -0.0709 -0.1734  0.5775
 4308TIP3    H112888   0.658   4.921  -0.048 -2.1326  1.1575 -0.6775
 4308TIP3    H212889   0.643   4.963   0.096  0.9598 -1.4019  0.5236
 4309TIP3   OH212890   1.611   6.426   2.907 -0.1028  0.0015 -0.3317
 4309TIP3    H112891   1.575   6.515   2.905  0.1978  0.1194 -0.6231
 4309TIP3    H212892   1.543   6.374   2.950 -0.2120  0.4019 -0.0079
 4310TIP3   OH212893   3.633   2.575   5.729 -0.2814  0.2091  0.9527
 4310TIP3    H112894   3.589   2.511   5.784 -1.4699 -0.3104 -0.5444
 4310TIP3    H212895   3.563   2.615   5.678  0.7814  0.6232 -0.2374
 4311TIP3   OH212896   6.156   5.950   4.916 -0.0786  0.0502  0.5530
 4311TIP3    H112897   6.067   5.976   4.939  0.0344 -0.1691  1.2707
 4311TIP3    H212898   6.211   6.021   4.949 -0.1223  1.1741 -1.6613
 4312TIP3   OH212899   4.242   6.045   3.525 -0.0860 -0.4660  0.3943
 4312TIP3    H112900   4.181   5.975   3.550 -2.0680  0.2614 -2.0536
 4312TIP3    H212901   4.294   6.007   3.455  0.6696 -0.2886  0.8447
 4313TIP3   OH212902   2.440   0.765   3.747 -0.1360  0.3585  0.4903
 4313TIP3    H112903   2.424   0.841   3.692  1.2497 -0.0125 -0.5085
 4313TIP3    H212904   2.519   0.787   3.797  1.0474 -0.8199 -0.7341
 4314TIP3   OH212905   2.551   3.682   4.395 -0.3716 -0.6021  0.8505
 4314TIP3    H112906   2.462   3.667   4.363 -0.4385  0.1737  0.6426
 4314TIP3    H212907   2.606   3.630   4.337 -0.7061 -1.2842  1.1375
 4315TIP3   OH212908   2.264   1.483   0.538  0.3759  0.3273  0.6160
 4315TIP3    H112909   2.238   1.420   0.470 -0.9049  1.1340  0.3367
 4315TIP3    H212910   2.188   1.492   0.594 -0.0243  2.6676 -0.1614
 4316TIP3   OH212911   1.583   4.384   1.942  0.1168  0.0109 -0.2379
 4316TIP3    H112912   1.553   4.372   2.032 -0.0054  0.4630 -0.2146
 4316TIP3    H212913   1.670   4.344   1.940 -0.2642 -0.8452 -0.1709
 4317TIP3   OH212914   2.445   3.848   1.519  0.5095 -0.6424  0.0934
 4317TIP3    H112915   2.479   3.857   1.608  1.6086 -1.0261 -0.2725
 4317TIP3    H212916   2.393   3.927   1.505  1.3411  0.0198  0.6550
 4318TIP3   OH212917   3.773   1.847   2.873 -0.1121  0.0071 -0.0473
 4318TIP3    H112918   3.791   1.873   2.963  0.7158  0.2524 -0.2739
 4318TIP3    H212919   3.809   1.918   2.819  0.6567 -0.7813 -0.6105
 4319TIP3   OH212920   5.144   3.358   2.262 -0.1333 -0.8396 -0.4551
 4319TIP3    H112921   5.156   3.344   2.356  2.0020 -1.5238 -0.7687
 4319TIP3    H212922   5.146   3.269   2.225  1.9102 -0.4724 -1.3755
 4320TIP3   OH212923   2.102   1.043   2.144  0.0252 -0.0817 -0.1372
 4320TIP3    H112924   2.166   1.113   2.144  1.7998 -1.6158  0.2080
 4320TIP3    H212925   2.154   0.962   2.146 -1.9085 -1.4192 -0.3990
 4321TIP3   OH212926   2.254   4.688   4.699  0.0674 -0.9052  0.0047
 4321TIP3    H112927   2.176   4.644   4.735 -0.0542 -0.6660  0.0363
 4321TIP3    H212928   2.219   4.759   4.645  0.2707 -0.3128  0.6339
 4322TIP3   OH212929   0.218   0.333   1.123  0.3617 -0.3700  0.1207
 4322TIP3    H112930   0.293   0.275   1.137  0.6856 -0.3069 -1.1613
 4322TIP3    H212931   0.143   0.283   1.155  1.1789  0.8513  4.6440
 4323TIP3   OH212932   0.508   0.130   4.265  0.0945 -0.3607  0.5695
 4323TIP3    H112933   0.443   0.182   4.313  0.4376 -0.6966  1.4268
 4323TIP3    H212934   0.462   0.100   4.186 -0.1933  0.9911  0.2089
 4324TIP3   OH212935   5.548   0.036   3.525  0.1502 -0.1125  0.3949
 4324TIP3    H112936   5.499   0.037   3.607  1.6461 -2.3016  1.3923
 4324TIP3    H212937   5.485   0.005   3.460 -0.3678 -0.8664  1.2336
 4325TIP3   OH212938   4.563   2.877   0.389  0.5368  0.3342 -0.0162
 4325TIP3    H112939   4.565   2.782   0.403 -1.7133  0.2689  0.2449
 4325TIP3    H212940   4.539   2.913   0.474  3.1634  1.3421  0.3694
 4326TIP3   OH212941   1.505   2.992   2.829 -0.3657  0.3429 -0.0727
 4326TIP3    H112942   1.461   3.066   2.787 -0.3115 -0.5924 -1.8918
 4326TIP3    H212943   1.529   3.024   2.916 -2.8830  1.5211  0.2679
 4327TIP3   OH212944   4.597   1.199   5.255  0.3810 -0.2470  0.2084
 4327TIP3    H112945   4.609   1.130   5.321  2.1109 -0.0301  0.1661
 4327TIP3    H212946   4.682   1.242   5.250  0.4260 -0.4780 -2.4353
 4328TIP3   OH212947   0.989   0.042   4.401 -0.4071 -0.4886 -0.1615
 4328TIP3    H112948   0.948  -0.043   4.411 -0.2095 -0.6712 -0.8304
 4328TIP3    H212949   0.917   0.105   4.408 -0.5600 -0.7151  0.2767
 4329TIP3   OH212950   6.185   3.502   1.132 -0.4117  0.3503 -0.2497
 4329TIP3    H112951   6.116   3.565   1.109 -1.2842  0.1714  1.7076
 4329TIP3    H212952   6.156   3.420   1.093 -0.4667  0.6348 -0.8238
 4330TIP3   OH212953   6.976   5.803   1.454 -0.3484 -0.6434 -0.4370
 4330TIP3    H112954   6.974   5.888   1.410  0.3327 -0.7173 -0.6230
 4330TIP3    H212955   6.994   5.740   1.384 -2.2837 -1.1265 -0.5479
 4331TIP3   OH212956   1.822   0.162   3.739  0.2388 -0.1549  0.5420
 4331TIP3    H112957   1.837   0.184   3.831  0.5014 -0.5504  0.5927
 4331TIP3    H212958   1.793   0.071   3.740 -0.6047  0.0926  0.3068
 4332TIP3   OH212959   2.279   1.942   3.718  0.1163 -1.0573  0.2220
 4332TIP3    H112960   2.286   1.880   3.646 -1.5733 -2.6598  1.3572
 4332TIP3    H212961   2.224   2.012   3.684  0.9280 -0.8192 -0.6368
 4333TIP3   OH212962   5.725   3.253   3.957 -0.2299 -0.3579  0.1353
 4333TIP3    H112963   5.768   3.232   4.039  0.4897 -0.0143 -0.1462
 4333TIP3    H212964   5.783   3.317   3.915 -1.0589  0.1976 -0.2004
 4334TIP3   OH212965   0.671   3.785   3.743  0.4983  0.0729  1.0378
 4334TIP3    H112966   0.675   3.777   3.838  0.7130  1.1556  1.1384
 4334TIP3    H212967   0.587   3.744   3.719  0.4376 -0.2000  1.6898
 4335TIP3   OH212968   5.103   5.264   0.593  0.3943 -0.0185  0.4650
 4335TIP3    H112969   5.064   5.348   0.570  0.6857  0.3880  1.4164
 4335TIP3    H212970   5.198   5.280   0.590  0.4651 -0.5125 -0.0659
 4336TIP3   OH212971   3.191   2.729   5.283 -0.0445  0.3670 -0.1951
 4336TIP3    H112972   3.096   2.740   5.277 -0.1488 -0.6552 -0.5658
 4336TIP3    H212973   3.223   2.813   5.318 -1.1513  0.4571  0.6419
 4337TIP3   OH212974   7.026   3.497   3.624 -0.1797  1.4660  0.4972
 4337TIP3    H112975   7.008   3.448   3.704 -1.3588  0.8170 -0.1412
 4337TIP3    H212976   7.114   3.531   3.637  0.5538 -0.5150  1.1134
 4338TIP3   OH212977   6.756   5.269   3.540 -0.0031  0.4125 -0.0932
 4338TIP3    H112978   6.703   5.193   3.516 -0.6841  0.7224  0.3918
 4338TIP3    H212979   6.762   5.265   3.635  3.1532 -1.1240 -0.2190
 4339TIP3   OH212980   2.408   5.536   0.815 -0.0179  0.3463 -0.1004
 4339TIP3    H112981   2.488   5.484   0.816 -1.3257 -1.8052 -0.5792
 4339TIP3    H212982   2.358   5.502   0.740 -1.3727  1.6580  0.1516
 4340TIP3   OH212983   4.722   2.804   1.287  0.3079 -0.3879  0.0358
 4340TIP3    H112984   4.802   2.815   1.235  0.1648  3.0685  0.2948
 4340TIP3    H212985   4.658   2.860   1.243 -1.2887 -1.2278  1.2010
 4341TIP3   OH212986   6.912   2.216   4.283  0.4592  0.3799 -0.2801
 4341TIP3    H112987   7.005   2.194   4.284  0.4204  0.2272  0.4408
 4341TIP3    H212988   6.896   2.249   4.195  1.4234  1.3643 -0.1092
 4342TIP3   OH212989   5.980   5.990   3.859 -0.2098  0.2497 -0.5099
 4342TIP3    H112990   6.006   5.898   3.850  2.8245  1.1119 -1.8155
 4342TIP3    H212991   6.038   6.025   3.927 -0.1791  1.5742 -1.1904
 4343TIP3   OH212992   4.062   4.965   4.770 -0.4894  0.1033 -0.4859
 4343TIP3    H112993   4.128   4.918   4.720 -0.7720  0.3357 -1.0791
 4343TIP3    H212994   4.111   5.035   4.814 -0.4691  0.8821 -1.6922
 4344TIP3   OH212995   7.029   5.183   0.409 -0.3422  0.1904 -0.0393
 4344TIP3    H112996   6.982   5.264   0.428  0.8392  0.9503 -0.2592
 4344TIP3    H212997   7.094   5.176   0.480 -0.7078 -0.8047  0.2245
 4345TIP3   OH212998   0.511   2.615   2.323 -0.8209  0.6618 -0.7815
 4345TIP3    H112999   0.435   2.643   2.273 -1.4705  0.4039  0.0343
 4345TIP3    H213000   0.562   2.695   2.336 -2.2611  1.3817  0.8612
 4346TIP3   OH213001   3.699   3.460   5.234 -0.0180  1.1241 -0.6460
 4346TIP3    H113002   3.628   3.396   5.230  0.4218  0.4426  1.1549
 4346TIP3    H213003   3.663   3.540   5.195 -0.5581 -0.1953 -2.9948
 4347TIP3   OH213004   2.093   6.589   4.991 -0.0555 -0.1270 -0.0503
 4347TIP3    H113005   2.079   6.635   4.909 -0.1149  0.5095  0.3097
 4347TIP3    H213006   2.114   6.499   4.965 -0.7199 -0.0973 -0.7361
 4348TIP3   OH213007   0.169   6.255   1.737 -0.0630 -0.0182 -0.0984
 4348TIP3    H113008   0.141   6.196   1.667 -1.9342 -1.7898  1.9687
 4348TIP3    H213009   0.155   6.343   1.702  1.7384 -0.7185 -2.8748
 4349TIP3   OH213010   0.226   3.621   0.325  0.5315  0.5674  0.5825
 4349TIP3    H113011   0.136   3.655   0.316  0.7070  0.7008 -1.0214
 4349TIP3    H213012   0.281   3.697   0.308  0.9262 -0.0916 -1.3793
 4350TIP3   OH213013   2.427   1.305   1.529 -0.4470 -0.0957 -0.2357
 4350TIP3    H113014   2.394   1.312   1.619 -2.0595 -2.4710 -0.5362
 4350TIP3    H213015   2.486   1.230   1.532  1.3736  1.2546 -0.7286
 4351TIP3   OH213016   3.630   2.145   0.693  0.1241 -0.1779 -0.1729
 4351TIP3    H113017   3.725   2.154   0.685  0.1338 -0.4108 -0.3326
 4351TIP3    H213018   3.595   2.223   0.650  0.2314 -0.3292 -0.5401
 4352TIP3   OH213019   5.447   5.468   4.184 -0.0622  0.2913 -0.3734
 4352TIP3    H113020   5.451   5.522   4.105  1.8814  0.5585 -0.1389
 4352TIP3    H213021   5.421   5.381   4.153  3.4042 -0.3933 -1.8231
 4353TIP3   OH213022   3.815   2.043   2.695  0.1844  0.0645 -0.0383
 4353TIP3    H113023   3.798   1.968   2.639 -0.5072  0.7563 -0.7986
 4353TIP3    H213024   3.852   2.109   2.637  0.9983  0.2457  0.6623
 4354TIP3   OH213025   3.506   3.761   2.808  0.1102  0.1976  0.1225
 4354TIP3    H113026   3.413   3.776   2.794 -0.1786 -0.6905  0.9574
 4354TIP3    H213027   3.516   3.666   2.805  1.1562  0.3166 -0.8790
 4355TIP3   OH213028   6.648   4.329   5.837 -0.5236  0.4058 -0.2630
 4355TIP3    H113029   6.690   4.245   5.820  0.3701  0.9335 -0.7351
 4355TIP3    H213030   6.721   4.390   5.851 -1.1617  0.7900  1.7323
 4356TIP3   OH213031   0.371   1.097   0.034 -0.4976  0.2345 -0.4382
 4356TIP3    H113032   0.333   1.014   0.065  0.7099 -0.0600  0.3319
 4356TIP3    H213033   0.458   1.072   0.003 -0.3346  1.1410 -0.7157
 4357TIP3   OH213034   2.700   5.945   5.486 -0.4562  0.1000  0.3543
 4357TIP3    H113035   2.743   6.009   5.543 -1.7180  0.4188  0.9669
 4357TIP3    H213036   2.697   5.987   5.400 -1.3392  0.9169  0.7677
 4358TIP3   OH213037   0.640   0.651   2.709  0.2378 -0.1756  0.1110
 4358TIP3    H113038   0.654   0.688   2.797  0.1861 -0.5122  0.2630
 4358TIP3    H213039   0.598   0.566   2.725  0.5471 -0.3966 -0.2239
 4359TIP3   OH213040   6.659   5.946   1.986  0.6292 -0.1704 -0.1044
 4359TIP3    H113041   6.679   6.012   2.052 -1.0980  0.5213 -0.2345
 4359TIP3    H213042   6.680   5.989   1.902 -2.7838  1.2774 -0.3951
 4360TIP3   OH213043   1.184   4.989   4.762  0.0634  0.0443 -0.5396
 4360TIP3    H113044   1.251   4.978   4.830 -0.3962  0.2055 -0.0543
 4360TIP3    H213045   1.207   4.925   4.695  1.3441  0.8406 -0.8961
 4361TIP3   OH213046   1.284   5.853   1.879  0.2457 -0.1926 -0.0724
 4361TIP3    H113047   1.268   5.759   1.884 -2.3002  0.1687 -0.1540
 4361TIP3    H213048   1.267   5.885   1.968  0.1038  0.3134 -0.2810
 4362TIP3   OH213049   2.290   0.557   1.146 -0.2922 -0.1647  0.1079
 4362TIP3    H113050   2.235   0.592   1.217 -0.1804  1.2230 -0.4603
 4362TIP3    H213051   2.245   0.477   1.118 -0.9288 -0.1298  1.0020
 4363TIP3   OH213052   6.291   2.946   2.416 -0.3795  0.4802 -0.1455
 4363TIP3    H113053   6.277   2.977   2.506  0.2467  0.4331 -0.0321
 4363TIP3    H213054   6.384   2.926   2.412 -0.3699  0.6670 -0.8643
 4364TIP3   OH213055   3.567   5.305   5.221 -0.3374  0.2902  0.9810
 4364TIP3    H113056   3.484   5.330   5.261 -1.5665 -0.9412 -0.6473
 4364TIP3    H213057   3.572   5.210   5.234 -2.3877 -0.8797 -4.1332
 4365TIP3   OH213058   4.364   6.504   1.658 -0.1075  0.0293 -0.1858
 4365TIP3    H113059   4.321   6.462   1.584  0.3631 -1.2936  0.2605
 4365TIP3    H213060   4.325   6.591   1.662 -0.3134  0.0427 -1.8250
 4366TIP3   OH213061   2.615   2.944   5.892  0.4939 -0.0655  0.3234
 4366TIP3    H113062   2.605   2.851   5.872  0.9291 -0.2364  0.8810
 4366TIP3    H213063   2.608   2.988   5.807 -0.4595 -0.5392  0.1395
 4367TIP3   OH213064   6.730   3.156   2.215  0.5670  0.0565  0.1818
 4367TIP3    H113065   6.801   3.156   2.280  0.6785 -1.0338  0.0670
 4367TIP3    H213066   6.672   3.226   2.245  1.7081  1.0230  0.2428
 4368TIP3   OH213067   6.854   2.810   2.004 -0.1369 -0.3505 -0.2487
 4368TIP3    H113068   6.938   2.844   2.036  0.7069 -1.8598 -0.7304
 4368TIP3    H213069   6.846   2.844   1.915 -0.8097  1.0496  0.3261
 4369TIP3   OH213070   1.854   5.518   0.755 -0.1660 -0.1532  0.0027
 4369TIP3    H113071   1.901   5.456   0.811  0.9412  0.8195  0.1736
 4369TIP3    H213072   1.837   5.594   0.811  0.1221  0.4456 -0.7119
 4370TIP3   OH213073   5.250   2.490   2.677  0.2748  0.0223  0.3512
 4370TIP3    H113074   5.299   2.410   2.699  1.3700  0.5100 -0.2723
 4370TIP3    H213075   5.235   2.532   2.762  1.0243 -0.0902  0.5492
 4371TIP3   OH213076   1.606   5.937   2.116 -0.5341 -0.5240  0.1768
 4371TIP3    H113077   1.634   5.868   2.176 -0.2357  0.2690  0.9634
 4371TIP3    H213078   1.511   5.941   2.126 -0.5417 -0.7488  0.1975
 4372TIP3   OH213079   6.755   0.838   1.557 -0.1576  0.0804  0.3456
 4372TIP3    H113080   6.820   0.869   1.494  1.4522 -0.5215  1.6427
 4372TIP3    H213081   6.726   0.917   1.603 -1.4703  0.5482 -1.1835
 4373TIP3   OH213082   5.454   0.566   2.317 -0.6705 -0.3323 -0.2275
 4373TIP3    H113083   5.460   0.499   2.385  1.2643  0.6742  0.6818
 4373TIP3    H213084   5.399   0.527   2.249 -2.3985 -1.5003  1.7328
 4374TIP3   OH213085   5.763   1.954   2.843  0.4405 -0.5444  0.1093
 4374TIP3    H113086   5.731   2.043   2.862  0.8500 -0.4841  0.5218
 4374TIP3    H213087   5.819   1.966   2.766  2.1818 -0.0888  1.4069
 4375TIP3   OH213088   0.103   4.912   2.313 -0.0817  0.3764 -0.4051
 4375TIP3    H113089   0.084   5.005   2.298 -0.8703  0.2126 -0.4779
 4375TIP3    H213090   0.040   4.886   2.380  1.6205  0.4388  1.2948
 4376TIP3   OH213091   0.611   1.962   0.896 -0.5367  0.1783  0.2261
 4376TIP3    H113092   0.574   1.973   0.983 -1.4151 -1.1351  0.0486
 4376TIP3    H213093   0.555   1.897   0.854  0.9790 -0.6302 -0.6458
 4377TIP3   OH213094   0.521   6.591   4.441 -0.2402  0.6313  0.1721
 4377TIP3    H113095   0.525   6.521   4.507 -1.6886  1.1537  0.8631
 4377TIP3    H213096   0.580   6.562   4.372 -1.3990 -1.6819  0.0532
 4378TIP3   OH213097   4.736   4.273   0.135 -0.0263 -0.0594 -0.5215
 4378TIP3    H113098   4.645   4.302   0.136 -0.5548 -1.5511  1.3333
 4378TIP3    H213099   4.775   4.318   0.060 -2.1342  1.0395 -1.0379
 4379TIP3   OH213100   4.574   4.959   1.626 -0.3673 -0.1608 -0.0626
 4379TIP3    H113101   4.485   4.993   1.629 -0.4977 -0.4154 -0.8567
 4379TIP3    H213102   4.612   4.983   1.711 -0.6367  1.4728 -0.3648
 4380TIP3   OH213103   1.000   2.997   0.140 -0.0677 -0.0099  0.2886
 4380TIP3    H113104   1.040   3.070   0.188 -1.0842  1.8997 -1.5945
 4380TIP3    H213105   0.917   2.982   0.185 -1.2402  2.0979 -1.0026
 4381TIP3   OH213106   3.615   3.291   4.164 -0.0128  0.0822 -0.2728
 4381TIP3    H113107   3.623   3.243   4.246  0.3792  0.4191 -0.1092
 4381TIP3    H213108   3.637   3.226   4.097 -1.3900 -0.4883 -0.2039
 4382TIP3   OH213109   0.062   1.798   1.490 -0.6781  0.6340 -0.3767
 4382TIP3    H113110   0.061   1.714   1.536  0.6498  0.6317 -0.3306
 4382TIP3    H213111   0.144   1.798   1.441 -0.6565  1.9085 -0.3710
 4383TIP3   OH213112   5.835   1.179   4.080  0.0712 -0.1651 -0.9458
 4383TIP3    H113113   5.847   1.258   4.028  2.0972  1.0517  1.2297
 4383TIP3    H213114   5.904   1.119   4.050  1.5796  0.7337  0.5737
 4384TIP3   OH213115   1.370   4.889   0.890  0.3126 -0.1008 -0.2237
 4384TIP3    H113116   1.464   4.904   0.900  0.3708 -0.5737 -0.0471
 4384TIP3    H213117   1.334   4.975   0.869  0.7032  0.1879  0.2814
 4385TIP3   OH213118   5.477   5.137   1.768  0.0587 -0.2187  0.2705
 4385TIP3    H113119   5.441   5.137   1.680  0.9689 -0.4881 -0.1176
 4385TIP3    H213120   5.425   5.072   1.816  0.3708 -0.9921 -0.4177
 4386TIP3   OH213121   3.652   6.278   0.804  0.0253  0.5944  0.4711
 4386TIP3    H113122   3.728   6.326   0.838  1.1037 -0.7239  0.0082
 4386TIP3    H213123   3.620   6.228   0.879  1.1943 -0.7824  0.1075
 4387TIP3   OH213124   2.440   4.788   1.400  0.2445  0.1075 -0.0045
 4387TIP3    H113125   2.366   4.728   1.400  0.4555 -0.2939 -2.8486
 4387TIP3    H213126   2.404   4.871   1.430 -0.5712 -0.8419  1.7668
 4388TIP3   OH213127   1.958   2.607   2.721 -0.3162 -0.0538 -0.0868
 4388TIP3    H113128   2.002   2.610   2.636  0.6480 -0.6268  0.3659
 4388TIP3    H213129   1.972   2.695   2.758  0.0074 -0.0642 -0.1771
 4389TIP3   OH213130   0.729   4.192   1.260  0.3797  0.3075 -0.1477
 4389TIP3    H113131   0.718   4.164   1.351 -0.9418  1.7278  0.1718
 4389TIP3    H213132   0.822   4.213   1.252  0.6098 -0.3391  0.7168
 4390TIP3   OH213133   6.123   4.932   2.717 -0.7271 -0.1819 -0.3017
 4390TIP3    H113134   6.095   4.989   2.789 -1.0990  1.6567 -1.8194
 4390TIP3    H213135   6.046   4.881   2.695 -0.5223 -0.9865  0.7855
 4391TIP3   OH213136   2.752   2.282   5.322 -0.0030 -0.3694 -0.3754
 4391TIP3    H113137   2.679   2.294   5.261  0.9364  1.2915 -1.2513
 4391TIP3    H213138   2.830   2.293   5.267  0.9441 -2.1826  0.5148
 4392TIP3   OH213139   6.861   4.104   1.068  0.2102 -0.5747 -0.1332
 4392TIP3    H113140   6.861   4.059   1.153  0.7847 -1.9618 -0.8350
 4392TIP3    H213141   6.895   4.039   1.007  0.4727  0.6388 -1.3157
 4393TIP3   OH213142   1.314   0.250   3.994 -0.2889 -0.1412 -0.0109
 4393TIP3    H113143   1.241   0.310   3.979 -0.7218 -0.3333  1.1978
 4393TIP3    H213144   1.330   0.255   4.088  3.9264  2.9656 -0.6373
 4394TIP3   OH213145   1.841   6.662   2.803  0.3349 -0.1775  0.8469
 4394TIP3    H113146   1.763   6.658   2.747  0.6519  0.6307  0.3160
 4394TIP3    H213147   1.914   6.648   2.742  0.6454 -0.0064  1.1803
 4395TIP3   OH213148   4.577   3.370   5.662  0.3485 -0.1476 -0.4269
 4395TIP3    H113149   4.506   3.332   5.714  0.7914 -1.5082 -0.7618
 4395TIP3    H213150   4.541   3.379   5.574  1.1265 -2.7431 -1.1010
 4396TIP3   OH213151   0.140   0.966   4.798 -0.6127  1.1149  0.1873
 4396TIP3    H113152   0.234   0.967   4.817  0.0371 -3.2560 -1.5886
 4396TIP3    H213153   0.100   0.931   4.877 -0.6026  1.7592  0.4836
 4397TIP3   OH213154   3.958   3.272   0.789  0.0405  0.0097 -0.4824
 4397TIP3    H113155   3.945   3.213   0.864  0.3188  0.6074  0.0511
 4397TIP3    H213156   4.006   3.219   0.725  1.0381 -0.1021  0.3278
 4398TIP3   OH213157   2.940   0.857   0.061 -0.5748 -0.2390  0.0025
 4398TIP3    H113158   2.874   0.918   0.028  0.0533  0.1013 -0.6550
 4398TIP3    H213159   3.011   0.862  -0.003 -0.1012 -0.9361  0.4609
 4399TIP3   OH213160   6.217   0.082   1.216 -0.3127  0.2370  0.4443
 4399TIP3    H113161   6.125   0.069   1.193  0.2617 -3.8157 -0.2994
 4399TIP3    H213162   6.216   0.096   1.311 -1.6520 -1.8954  0.8214
 4400TIP3   OH213163   0.482   4.524   1.643 -0.5185 -0.7916 -0.0356
 4400TIP3    H113164   0.555   4.585   1.653 -1.2757  0.1775 -0.2931
 4400TIP3    H213165   0.451   4.537   1.554 -0.3304 -1.9873 -0.2996
 4401TIP3   OH213166   2.966   6.398   5.904  0.3559  0.6510  0.7583
 4401TIP3    H113167   3.000   6.384   5.815  0.9200  1.2900  0.8702
 4401TIP3    H213168   2.871   6.401   5.893  0.2074 -1.9547  0.5393
 4402TIP3   OH213169   6.380   6.734   5.026  0.4334  0.3374  0.1191
 4402TIP3    H113170   6.327   6.669   4.980 -0.2401 -0.5480  2.0147
 4402TIP3    H213171   6.429   6.778   4.958 -1.1282 -0.3138 -1.5121
 4403TIP3   OH213172   5.773   3.078   4.670  0.1259 -0.2171 -0.2360
 4403TIP3    H113173   5.818   3.159   4.647 -1.7050  1.2804  1.1272
 4403TIP3    H213174   5.838   3.028   4.720  0.7293  1.3077  0.5957
 4404TIP3   OH213175   4.948   2.091   2.383  0.3390  0.4016 -0.1788
 4404TIP3    H113176   4.983   2.060   2.299  0.5513 -1.1055  0.4388
 4404TIP3    H213177   4.996   2.172   2.400  0.2883  0.7339 -1.5098
 4405TIP3   OH213178   3.998   1.807   3.782 -0.7443 -0.1875  0.1512
 4405TIP3    H113179   4.064   1.850   3.837  0.7608 -0.9631 -0.9832
 4405TIP3    H213180   3.944   1.879   3.749  0.2545  0.5900  0.1822
 4406TIP3   OH213181   5.778   2.295   3.416  0.2949  0.0760  0.4758
 4406TIP3    H113182   5.849   2.231   3.416 -0.1894 -0.4747 -0.1074
 4406TIP3    H213183   5.718   2.264   3.484  0.6971  0.6439  1.0969
 4407TIP3   OH213184   5.558   0.834   5.222 -0.0506  0.0928 -0.1253
 4407TIP3    H113185   5.546   0.850   5.129 -0.4609  1.6982  0.1584
 4407TIP3    H213186   5.493   0.768   5.244 -1.0469  0.8544 -0.6921
 4408TIP3   OH213187   0.443   2.896   2.950  0.3970 -0.1027 -0.3648
 4408TIP3    H113188   0.503   2.855   2.888  0.7843 -2.2076  1.3011
 4408TIP3    H213189   0.497   2.961   2.995  0.7763 -0.3237 -0.4971
 4409TIP3   OH213190   1.600   5.037   0.948 -0.1290  0.5309 -0.5150
 4409TIP3    H113191   1.628   5.109   0.891  1.7221 -0.1948 -0.6154
 4409TIP3    H213192   1.679   4.984   0.958 -1.5926 -1.8482 -0.9694
 4410TIP3   OH213193   1.418   1.001   0.784  0.1985  0.0228 -0.0293
 4410TIP3    H113194   1.373   0.975   0.864  1.6265 -0.4328  0.6642
 4410TIP3    H213195   1.473   0.926   0.762  2.2222  1.3039  0.3892
 4411TIP3   OH213196   3.834   0.762   2.542 -0.4996  0.3596  0.1838
 4411TIP3    H113197   3.900   0.819   2.581 -0.7080  1.3040 -0.7797
 4411TIP3    H213198   3.758   0.818   2.529 -0.7034 -0.1126 -0.8152
 4412TIP3   OH213199   5.854   2.715   1.212  0.2082  0.0201  0.5761
 4412TIP3    H113200   5.861   2.714   1.307  1.0729 -1.4440  0.5297
 4412TIP3    H213201   5.851   2.622   1.187 -0.3374  0.3840 -0.8064
 4413TIP3   OH213202   0.866   3.693   5.174  0.1778 -0.1098 -0.5387
 4413TIP3    H113203   0.868   3.686   5.270  0.6681 -0.3941 -0.5658
 4413TIP3    H213204   0.931   3.760   5.154  1.2053 -1.1401 -0.7579
 4414TIP3   OH213205   3.539   6.803   0.773 -0.2037 -0.3740 -0.0813
 4414TIP3    H113206   3.614   6.799   0.713  0.7864 -0.9089  1.1393
 4414TIP3    H213207   3.463   6.797   0.716  0.6520  0.7262 -1.4098
 4415TIP3   OH213208   5.794   4.961   2.933 -0.4119  0.0656 -0.5512
 4415TIP3    H113209   5.851   5.036   2.917  1.8411 -1.6991 -1.2892
 4415TIP3    H213210   5.820   4.929   3.020  0.3141 -1.2004 -1.2054
 4416TIP3   OH213211   3.541   3.748   4.294  0.1277 -0.3256  0.1359
 4416TIP3    H113212   3.599   3.692   4.243  1.2699  0.2980  0.7184
 4416TIP3    H213213   3.598   3.790   4.359 -0.8793  0.6785  0.4133
 4417TIP3   OH213214   5.429   0.838   0.412 -0.8012 -0.0382  0.3898
 4417TIP3    H113215   5.363   0.902   0.387  0.2607  0.4621 -1.2888
 4417TIP3    H213216   5.497   0.845   0.344  1.4297  0.1004  2.4738
 4418TIP3   OH213217   6.029   5.349   1.341  0.0430  0.5190  0.1093
 4418TIP3    H113218   6.032   5.444   1.347 -0.3729  0.5187  0.3543
 4418TIP3    H213219   6.049   5.318   1.429  0.6715  0.3677 -0.0827
 4419TIP3   OH213220   2.242   0.195   0.221  0.3470 -0.5633  0.2165
 4419TIP3    H113221   2.217   0.190   0.314 -0.5006 -0.5250 -0.0020
 4419TIP3    H213222   2.323   0.146   0.216  0.2880 -0.7568  0.9431
 4420TIP3   OH213223   5.026   3.695   3.670  0.1442 -0.4103 -0.6326
 4420TIP3    H113224   4.959   3.745   3.625  0.2353  0.5639  0.2931
 4420TIP3    H213225   5.109   3.734   3.641  0.2229 -0.1579 -0.0752
 4421TIP3   OH213226   4.432   1.351   1.066 -0.2756  0.4330  0.0686
 4421TIP3    H113227   4.475   1.366   1.150  2.2183 -2.1329 -0.5885
 4421TIP3    H213228   4.377   1.274   1.081  1.2068 -0.8734 -0.8762
 4422TIP3   OH213229   1.385   1.340   0.733  0.5358 -0.1435 -0.0583
 4422TIP3    H113230   1.386   1.350   0.638 -1.1679 -1.6997 -0.2810
 4422TIP3    H213231   1.387   1.246   0.747 -0.5209  0.0271  1.4145
 4423TIP3   OH213232   2.424   2.278   4.079 -0.2108  0.3657 -0.4075
 4423TIP3    H113233   2.452   2.187   4.085  0.8122  0.7063  0.2789
 4423TIP3    H213234   2.330   2.273   4.059 -0.3651 -0.8484  0.5122
 4424TIP3   OH213235   7.081   6.000   5.112 -0.0102 -0.0630 -0.6032
 4424TIP3    H113236   7.061   6.041   5.197 -0.1589 -1.6291  0.1558
 4424TIP3    H213237   7.040   6.058   5.048 -0.9208  0.5394  0.4719
 4425TIP3   OH213238   6.023   5.206   3.426 -0.3162 -0.4870  0.0780
 4425TIP3    H113239   6.106   5.171   3.459  0.3762  0.8421 -0.1910
 4425TIP3    H213240   5.960   5.188   3.495  0.0473 -2.0623  0.0355
 4426TIP3   OH213241   1.317   3.967   2.456 -0.5120 -0.2165 -0.4038
 4426TIP3    H113242   1.264   4.046   2.469 -0.5982 -0.1406 -1.1742
 4426TIP3    H213243   1.330   3.932   2.544  1.2002  1.7428  0.1974
 4427TIP3   OH213244   1.280   4.691   4.349 -0.1575  0.0247  0.1492
 4427TIP3    H113245   1.244   4.747   4.418 -0.7954  0.6589 -0.6704
 4427TIP3    H213246   1.210   4.685   4.284  0.4770 -0.4458 -0.5117
 4428TIP3   OH213247   4.429   3.496   5.456  0.0838 -0.5412 -0.1251
 4428TIP3    H113248   4.473   3.434   5.399 -0.1057  1.2680 -2.4109
 4428TIP3    H213249   4.338   3.495   5.428 -0.0755  0.1958  0.3091
 4429TIP3   OH213250   5.342   6.554   4.441  0.5241 -0.3634 -0.4557
 4429TIP3    H113251   5.330   6.586   4.531 -1.3638 -0.6481 -0.5543
 4429TIP3    H213252   5.397   6.477   4.451  0.7904 -0.0850  0.3916
 4430TIP3   OH213253   1.085   0.215   0.368 -0.1760  0.0767  0.2999
 4430TIP3    H113254   1.131   0.299   0.366 -0.3386  0.1507 -0.3672
 4430TIP3    H213255   0.999   0.235   0.404 -0.5242  0.3524 -0.6628
 4431TIP3   OH213256   4.891   3.768   2.598  0.3087  0.2450 -0.6640
 4431TIP3    H113257   4.888   3.766   2.503  0.4686  0.7535 -0.6809
 4431TIP3    H213258   4.970   3.818   2.619 -0.3465  1.1408 -0.2698
 4432TIP3   OH213259   0.364   1.457   2.419  0.5692  0.7249 -0.2367
 4432TIP3    H113260   0.277   1.460   2.380 -0.3130 -2.0999  1.2335
 4432TIP3    H213261   0.413   1.395   2.365  0.3709 -0.6573  1.0719
 4433TIP3   OH213262   2.897   3.421   1.035 -0.6120  0.3247 -0.3074
 4433TIP3    H113263   2.968   3.418   1.099  1.0855  0.9685 -2.0720
 4433TIP3    H213264   2.844   3.344   1.055  0.4886 -0.1016  1.1403
 4434TIP3   OH213265   5.945   5.592   0.658  0.1339 -0.1065 -0.1212
 4434TIP3    H113266   5.879   5.536   0.698  0.7612 -0.0208  1.0654
 4434TIP3    H213267   5.904   5.625   0.578 -0.9887 -0.6214  0.2362
 4435TIP3   OH213268   3.038   3.933   3.500 -0.1970 -0.1019  0.0619
 4435TIP3    H113269   3.112   3.872   3.491 -2.4142 -2.7819 -1.7163
 4435TIP3    H213270   3.012   3.952   3.410 -1.1947  1.4617  0.6399
 4436TIP3   OH213271   2.526   3.136   0.654  0.2411 -0.4068 -0.2005
 4436TIP3    H113272   2.451   3.108   0.603 -0.8272  1.9472 -0.0804
 4436TIP3    H213273   2.580   3.186   0.592  0.7907 -0.5525  0.1468
 4437TIP3   OH213274   2.938   4.372   1.674  0.1583 -0.0837 -0.0695
 4437TIP3    H113275   2.945   4.430   1.598  0.1512  0.7625  0.5605
 4437TIP3    H213276   2.992   4.296   1.651  2.0112  1.1616 -0.0205
 4438TIP3   OH213277   6.447   5.690   3.149 -0.0279  0.1179  0.0533
 4438TIP3    H113278   6.479   5.614   3.198  1.6593 -0.4390 -1.7691
 4438TIP3    H213279   6.498   5.764   3.181  0.4341 -0.0775 -0.2263
 4439TIP3   OH213280   4.157   6.450   3.911 -0.0041 -0.0837  0.4919
 4439TIP3    H113281   4.080   6.394   3.902 -1.0193  1.4710 -1.2992
 4439TIP3    H213282   4.122   6.536   3.936  1.1176  0.6057 -0.1952
 4440TIP3   OH213283   5.590   3.222   3.099 -0.3417 -0.3518  0.1507
 4440TIP3    H113284   5.589   3.182   3.012  1.0205 -0.0180 -0.0446
 4440TIP3    H213285   5.500   3.216   3.130 -1.0634  0.3854 -1.6894
 4441TIP3   OH213286   2.687   1.227   1.758 -0.7260  0.1943  0.0729
 4441TIP3    H113287   2.712   1.223   1.851 -1.7703 -0.5949  0.3337
 4441TIP3    H213288   2.656   1.317   1.746  0.4475  0.6380  0.1967
 4442TIP3   OH213289   4.968   6.409   1.392  0.4197 -0.4237  0.1927
 4442TIP3    H113290   5.056   6.447   1.387  0.7180 -0.9487  1.1767
 4442TIP3    H213291   4.979   6.320   1.361  0.2454 -0.5111  0.3852
 4443TIP3   OH213292   7.016   4.523   0.932 -0.1054  0.1159 -0.2679
 4443TIP3    H113293   7.021   4.519   1.028  2.2497 -1.8234 -0.3809
 4443TIP3    H213294   6.964   4.446   0.908  1.3162 -0.7665 -0.5990
 4444TIP3   OH213295   4.536   6.221   3.297  0.0641 -0.0648  0.1970
 4444TIP3    H113296   4.585   6.248   3.375  0.9423  1.7888 -0.9396
 4444TIP3    H213297   4.590   6.250   3.224 -1.2032 -0.9191 -1.1202
 4445TIP3   OH213298   4.084   6.010   0.690 -0.2475 -0.3067 -0.0307
 4445TIP3    H113299   4.042   5.932   0.726 -0.6908 -0.9589 -1.8807
 4445TIP3    H213300   4.173   5.983   0.668  0.0635  0.1261  0.6568
 4446TIP3   OH213301   4.729   1.724   2.340 -0.4378 -0.1261  0.0118
 4446TIP3    H113302   4.710   1.788   2.409  1.5099 -0.3010  0.7833
 4446TIP3    H213303   4.800   1.671   2.376 -0.1954 -1.0041 -1.6689
 4447TIP3   OH213304   0.081   0.346   5.862  0.4469  0.2144 -0.0101
 4447TIP3    H113305   0.063   0.418   5.802 -0.2898  1.7601  1.9243
 4447TIP3    H213306   0.174   0.354   5.883  0.0720  1.5435  1.2738
 4448TIP3   OH213307   2.191   2.008   1.227 -0.8224 -0.4078 -0.1375
 4448TIP3    H113308   2.261   2.065   1.195 -0.2721 -0.4287  1.0007
 4448TIP3    H213309   2.210   1.923   1.187 -1.1172 -0.0367 -1.0977
 4449TIP3   OH213310   4.462   3.011   3.804  0.2240  0.3042  0.2812
 4449TIP3    H113311   4.432   3.031   3.715 -1.6359  0.1170  0.8192
 4449TIP3    H213312   4.468   2.915   3.806  1.3481  0.3586  0.0513
 4450TIP3   OH213313   4.270   0.618   2.266  0.2347 -0.1210  0.3719
 4450TIP3    H113314   4.201   0.684   2.272 -2.4614 -2.7004 -0.3997
 4450TIP3    H213315   4.261   0.580   2.179  1.4390 -1.8011  0.9243
 4451TIP3   OH213316   0.816   5.919   4.236 -0.1736 -0.1432 -0.7141
 4451TIP3    H113317   0.748   5.899   4.300 -0.5937  0.0651 -1.0911
 4451TIP3    H213318   0.827   5.839   4.185  0.3842 -0.4118 -0.1879
 4452TIP3   OH213319   3.336   2.316   1.681  0.4261 -0.1401 -0.0300
 4452TIP3    H113320   3.273   2.263   1.731  2.0275 -1.1693  0.9862
 4452TIP3    H213321   3.360   2.260   1.608 -0.4901  0.6255 -0.9520
 4453TIP3   OH213322   4.368   2.324   3.807  0.1108  0.4767 -0.5713
 4453TIP3    H113323   4.456   2.359   3.797  0.1395  0.1661 -1.4385
 4453TIP3    H213324   4.372   2.237   3.767 -0.3725  0.1182  0.1321
 4454TIP3   OH213325   0.185   2.661   3.971 -0.9530  0.0020 -0.6605
 4454TIP3    H113326   0.092   2.652   3.991 -0.4996 -0.0386  1.8389
 4454TIP3    H213327   0.201   2.755   3.975 -0.5686 -0.0992  0.8938
 4455TIP3   OH213328   0.532   4.036   1.812 -0.0517  0.4904  0.0775
 4455TIP3    H113329   0.572   3.981   1.879  1.1933  0.7600 -0.4132
 4455TIP3    H213330   0.546   4.125   1.843  2.0430  0.7014 -1.2951
 4456TIP3   OH213331   3.073   4.866   2.061  0.2305 -0.1317 -0.0850
 4456TIP3    H113332   3.000   4.911   2.104 -0.7410 -0.7980 -0.9603
 4456TIP3    H213333   3.142   4.862   2.126 -0.5602  0.4468  0.8044
 4457TIP3   OH213334   2.811   3.000   4.320  0.2168 -0.1075  0.5763
 4457TIP3    H113335   2.880   2.935   4.310  1.0847  0.8288  0.3460
 4457TIP3    H213336   2.857   3.081   4.339 -0.8296  0.5076  0.5393
 4458TIP3   OH213337   4.880   5.158   2.712  0.4745  0.3258 -0.1505
 4458TIP3    H113338   4.838   5.173   2.797 -0.9036  1.7598 -1.0378
 4458TIP3    H213339   4.926   5.075   2.723 -1.5627 -0.7139  1.3219
 4459TIP3   OH213340   5.847   1.055   5.702 -0.0053 -0.3536 -0.4923
 4459TIP3    H113341   5.795   1.023   5.776 -0.1656  0.4078 -0.2700
 4459TIP3    H213342   5.930   1.008   5.709 -0.4490 -1.1745 -0.5321
 4460TIP3   OH213343   6.624   2.479   1.464 -0.7079  0.0002  0.8366
 4460TIP3    H113344   6.546   2.500   1.413 -0.1386 -0.7245 -0.3889
 4460TIP3    H213345   6.596   2.406   1.520 -1.2154  0.5064  1.2612
 4461TIP3   OH213346   1.268   3.946   2.763  0.2307 -0.3214  0.1907
 4461TIP3    H113347   1.358   3.964   2.738  0.8958 -1.2842  1.7646
 4461TIP3    H213348   1.264   3.969   2.856 -1.3605  0.4189 -0.0287
 4462TIP3   OH213349   2.369   3.351   2.040  0.3161  0.4174 -0.4582
 4462TIP3    H113350   2.419   3.274   2.013 -0.6835 -0.3396 -0.2319
 4462TIP3    H213351   2.297   3.356   1.977  0.2065  0.9901 -0.2924
 4463TIP3   OH213352   0.394   1.638   3.941  0.2727  0.2165 -0.1308
 4463TIP3    H113353   0.375   1.708   3.879  0.8599  0.1201 -0.4224
 4463TIP3    H213354   0.489   1.630   3.941  0.2879  0.2597  0.8393
 4464TIP3   OH213355   4.302   2.875   1.706  0.2070 -0.2589  0.3059
 4464TIP3    H113356   4.246   2.917   1.641 -2.1870 -1.9529  1.1304
 4464TIP3    H213357   4.297   2.933   1.782  2.9342  1.6739 -0.8206
 4465TIP3   OH213358   2.486   1.052   3.123  0.3140  0.2139  0.1716
 4465TIP3    H113359   2.404   1.040   3.075  0.4006 -0.8836  0.2650
 4465TIP3    H213360   2.520   1.136   3.093 -0.5702  0.4236 -0.2741
 4466TIP3   OH213361   1.879   3.011   4.981  0.3100  0.2637  0.0747
 4466TIP3    H113362   1.837   2.932   4.947 -0.2774  1.7164 -2.8878
 4466TIP3    H213363   1.828   3.083   4.944  1.0691  2.0740  2.3296
 4467TIP3   OH213364   0.148   4.369   4.333 -0.5444 -0.2782 -0.2047
 4467TIP3    H113365   0.137   4.275   4.349 -1.8176  0.0090  0.8302
 4467TIP3    H213366   0.060   4.399   4.309 -0.3383  0.7942  0.3397
 4468TIP3   OH213367   0.379   6.721   5.535  0.3347 -0.3832  0.4607
 4468TIP3    H113368   0.314   6.664   5.493  0.2744 -0.1712  0.2692
 4468TIP3    H213369   0.366   6.806   5.494  2.3461 -0.8535 -1.3252
 4469TIP3   OH213370   3.160   2.981   4.582  0.2337 -0.6801  0.2924
 4469TIP3    H113371   3.092   3.022   4.635  0.9157  0.9076  0.0126
 4469TIP3    H213372   3.113   2.926   4.520 -0.6262 -1.9072  1.9507
 4470TIP3   OH213373   2.166   3.869   4.069  0.1362  0.2171  0.1174
 4470TIP3    H113374   2.092   3.859   4.010  0.1450 -0.8194  0.2669
 4470TIP3    H213375   2.128   3.905   4.149 -0.2573 -0.5518  0.2816
 4471TIP3   OH213376   4.375   3.769   0.855  0.1631  0.3572  0.1277
 4471TIP3    H113377   4.397   3.837   0.791 -0.5487 -0.2460 -0.7796
 4471TIP3    H213378   4.433   3.696   0.833  1.0040  0.6727  1.1685
 4472TIP3   OH213379   0.049   2.406   1.688 -0.1907 -0.3440 -0.6024
 4472TIP3    H113380   0.142   2.382   1.679  0.3710  1.2604  0.5128
 4472TIP3    H213381   0.049   2.482   1.745 -2.3106 -0.9783  0.3600
 4473TIP3   OH213382   6.119   5.870   3.430 -0.1065 -0.2360 -0.2953
 4473TIP3    H113383   6.045   5.888   3.488  0.9042 -0.5450  1.1767
 4473TIP3    H213384   6.098   5.786   3.390 -1.5347  0.7110 -1.6189
 4474TIP3   OH213385   3.579   1.255   3.615  0.0990 -0.2936 -0.2759
 4474TIP3    H113386   3.520   1.192   3.573 -3.1580  1.4451  1.3646
 4474TIP3    H213387   3.593   1.323   3.549 -0.4938 -0.2661 -0.3749
 4475TIP3   OH213388   0.576   5.018   1.336 -0.4939  0.3485  0.1260
 4475TIP3    H113389   0.503   5.080   1.340  1.5313  2.9101  0.0781
 4475TIP3    H213390   0.594   5.008   1.243 -0.8678 -0.4150  0.1297
 4476TIP3   OH213391   6.031   5.123   2.914 -0.1070 -0.1166  0.3012
 4476TIP3    H113392   6.034   5.217   2.899 -0.1529 -0.0078  0.9372
 4476TIP3    H213393   6.049   5.113   3.007 -0.2275 -0.7281  0.2636
 4477TIP3   OH213394   2.784   5.243   1.069 -1.2883 -0.1607  0.3179
 4477TIP3    H113395   2.730   5.182   1.018  1.3078 -1.5273 -1.0357
 4477TIP3    H213396   2.873   5.222   1.042  0.0250  1.0751  3.3707
 4478TIP3   OH213397   3.864   3.302   0.384 -0.2074  0.7097  0.0897
 4478TIP3    H113398   3.795   3.346   0.334  1.2052  0.6478 -2.0316
 4478TIP3    H213399   3.868   3.214   0.346  0.9161  0.6591  0.3049
 4479TIP3   OH213400   0.301   3.068   3.786 -0.4192 -0.7477 -0.4255
 4479TIP3    H113401   0.215   3.051   3.747 -0.2475 -0.8487 -0.7629
 4479TIP3    H213402   0.342   2.982   3.792  0.6025 -0.4707 -2.4878
 4480TIP3   OH213403   3.799   1.863   3.475  0.0986 -0.5191  0.3004
 4480TIP3    H113404   3.828   1.946   3.437 -0.6173 -0.3426  0.1289
 4480TIP3    H213405   3.756   1.816   3.403  0.7495 -1.1684  0.3225
 4481TIP3   OH213406   2.124   5.610   3.164  0.5507  0.1779 -0.8383
 4481TIP3    H113407   2.176   5.633   3.088 -0.0417  0.2756 -1.2233
 4481TIP3    H213408   2.092   5.694   3.198 -0.3609  0.0464 -1.3390
 4482TIP3   OH213409   1.036   4.714   1.785 -0.2533  0.1583 -0.0122
 4482TIP3    H113410   0.940   4.710   1.779 -0.4816  3.1111  0.4443
 4482TIP3    H213411   1.054   4.729   1.878  1.0056 -4.0279  0.6708
 4483TIP3   OH213412   3.284   3.118   4.957 -0.3596  0.7938 -0.1443
 4483TIP3    H113413   3.205   3.133   5.008 -0.8189 -0.4031 -0.4669
 4483TIP3    H213414   3.296   3.023   4.958  1.6739  1.0148  0.7698
 4484TIP3   OH213415   4.205   2.635   1.883 -0.5497 -0.0096  0.2335
 4484TIP3    H113416   4.213   2.730   1.891 -3.3338  0.5612 -2.1078
 4484TIP3    H213417   4.261   2.612   1.809 -1.7211  0.2345 -0.7547
 4485TIP3   OH213418   0.887   4.328  -0.007 -0.2141  0.5593 -0.2271
 4485TIP3    H113419   0.865   4.326   0.086 -0.4425  0.0527 -0.2883
 4485TIP3    H213420   0.871   4.239  -0.037 -0.4021  0.7861 -0.8120
 4486TIP3   OH213421   6.369   1.078   3.364 -0.5345  0.3833 -0.3154
 4486TIP3    H113422   6.453   1.034   3.353 -1.2533 -1.7618  1.8113
 4486TIP3    H213423   6.366   1.100   3.457 -2.3955  0.1933 -0.2910
 4487TIP3   OH213424   3.311   6.191   0.806  0.2731  0.0344  0.3985
 4487TIP3    H113425   3.405   6.195   0.828  0.8824 -2.4348 -1.3583
 4487TIP3    H213426   3.290   6.098   0.810 -1.5261  0.2990 -1.5563
 4488TIP3   OH213427   4.365   2.523   5.430  0.4155 -0.6480  0.8043
 4488TIP3    H113428   4.368   2.594   5.365 -0.1170 -1.8493 -0.5668
 4488TIP3    H213429   4.435   2.545   5.491  1.0324  0.4554 -0.2497
 4489TIP3   OH213430   1.563   5.047   1.212 -0.5051  0.0877 -0.4354
 4489TIP3    H113431   1.560   5.046   1.116 -0.9009  0.5327 -0.4323
 4489TIP3    H213432   1.476   5.020   1.240 -1.3596  2.7301 -0.2464
 4490TIP3   OH213433   5.216   4.327   2.144  0.4261 -0.2315  0.3539
 4490TIP3    H113434   5.211   4.271   2.066  0.2902 -1.0072  0.9090
 4490TIP3    H213435   5.148   4.394   2.129  1.9155  1.0270 -1.2405
 4491TIP3   OH213436   3.418   5.881   2.913 -0.0768 -0.9619 -0.0811
 4491TIP3    H113437   3.441   5.959   2.962 -0.4218 -1.1184  0.3265
 4491TIP3    H213438   3.493   5.822   2.924  0.5306 -0.3920 -1.0351
 4492TIP3   OH213439   0.048   1.691   4.234  0.0077 -0.2564  0.1766
 4492TIP3    H113440   0.123   1.637   4.211 -0.3279 -0.6029 -0.1154
 4492TIP3    H213441  -0.024   1.629   4.246 -0.2903  0.0909  0.2180
 4493TIP3   OH213442   0.568   1.926   1.476  0.1084 -0.2756 -0.0008
 4493TIP3    H113443   0.637   1.957   1.417 -1.3270  2.8118 -0.2272
 4493TIP3    H213444   0.610   1.923   1.562  0.9618 -0.0380 -0.3981
 4494TIP3   OH213445   1.078   4.680   5.016 -0.1037 -0.2075  0.7009
 4494TIP3    H113446   1.119   4.763   5.040  0.1054  0.4061 -1.6208
 4494TIP3    H213447   1.151   4.620   5.003  0.2447  0.8309 -3.2283
 4495TIP3   OH213448   0.577   1.504   3.207 -0.0411  0.1208  0.2989
 4495TIP3    H113449   0.533   1.516   3.291  2.1802 -1.8163  1.8672
 4495TIP3    H213450   0.622   1.587   3.190 -0.9867  0.7231  0.7005
 4496TIP3   OH213451   3.685   4.242   3.823 -0.2281  0.4176 -0.0706
 4496TIP3    H113452   3.757   4.202   3.870  0.4129  1.3641 -0.2289
 4496TIP3    H213453   3.613   4.244   3.886 -0.4154 -1.2907 -0.1697
 4497TIP3   OH213454   5.845   5.665   3.772 -0.6294  0.5880 -0.0240
 4497TIP3    H113455   5.860   5.573   3.753  0.4069  0.3432  1.7848
 4497TIP3    H213456   5.926   5.709   3.744 -0.9372  0.8859 -0.4539
 4498TIP3   OH213457   4.342   2.281   0.318 -0.2048  0.2565  0.2481
 4498TIP3    H113458   4.286   2.359   0.322 -1.3181 -0.5616  2.5448
 4498TIP3    H213459   4.414   2.300   0.379  0.1310 -0.0586 -0.0497
 4499TIP3   OH213460   5.485   4.510   4.418 -0.4722 -0.3338  0.0283
 4499TIP3    H113461   5.439   4.590   4.391  0.2752 -0.5826 -2.1480
 4499TIP3    H213462   5.442   4.440   4.370  0.5036 -0.9195 -0.0151
 4500TIP3   OH213463   3.107   3.197   3.301  0.2106 -0.3266 -0.0509
 4500TIP3    H113464   3.069   3.174   3.216 -1.1368  2.0290 -0.1930
 4500TIP3    H213465   3.112   3.293   3.299  1.2666 -0.2849  2.0806
 4501TIP3   OH213466   5.658   5.766   1.569 -0.2886  0.4457  0.1865
 4501TIP3    H113467   5.660   5.673   1.544 -0.4386  0.1930  1.0639
 4501TIP3    H213468   5.745   5.798   1.546 -0.5313  0.3268 -0.9602
 4502TIP3   OH213469   6.729   2.622   0.764 -0.1576  0.9289 -0.9107
 4502TIP3    H113470   6.753   2.647   0.675 -1.1364  3.6425 -0.5128
 4502TIP3    H213471   6.799   2.657   0.819 -0.5595  1.0341 -0.4579
 4503TIP3   OH213472   6.306   3.435   5.789 -0.3134 -0.6037  0.2414
 4503TIP3    H113473   6.215   3.416   5.812  0.1358 -0.7604  2.0515
 4503TIP3    H213474   6.322   3.522   5.825 -0.4853  0.6614 -2.4603
 4504TIP3   OH213475   0.064   5.455   2.862  0.2429 -0.2400 -0.6028
 4504TIP3    H113476   0.063   5.390   2.932  0.1478  0.3893 -0.0016
 4504TIP3    H213477   0.134   5.427   2.803 -0.0199 -1.0589 -0.5250
 4505TIP3   OH213478   2.513   5.521   2.996  0.3710 -0.3241  0.0499
 4505TIP3    H113479   2.492   5.575   3.072 -1.6545 -0.5577 -0.3038
 4505TIP3    H213480   2.560   5.446   3.033  1.7120  0.7944  0.7312
 4506TIP3   OH213481   3.418   0.640   1.142 -0.0244 -0.1408  0.0279
 4506TIP3    H113482   3.491   0.637   1.080 -0.1104 -1.5723 -0.0392
 4506TIP3    H213483   3.345   0.601   1.095 -0.1445 -1.0789  0.9436
 4507TIP3   OH213484   3.125   2.523   3.058 -0.3292  0.1998 -0.1125
 4507TIP3    H113485   3.051   2.514   2.997 -0.9149  0.5450  0.5347
 4507TIP3    H213486   3.086   2.514   3.145  0.2722  1.0939  0.2671
 4508TIP3   OH213487   6.521   2.481   2.361 -0.0933 -0.1347 -0.0831
 4508TIP3    H113488   6.526   2.504   2.268  0.8733 -0.7939 -0.2143
 4508TIP3    H213489   6.512   2.565   2.406  2.3296  0.5062 -0.6047
 4509TIP3   OH213490   6.343   2.795   5.567 -0.8319 -1.1660 -0.0152
 4509TIP3    H113491   6.354   2.751   5.483  0.9851  0.6920 -0.8228
 4509TIP3    H213492   6.266   2.850   5.556 -0.1241 -0.3032 -0.7872
 4510TIP3   OH213493   6.019   4.865   5.480 -0.3856  0.4748  0.1217
 4510TIP3    H113494   6.095   4.909   5.441  1.3405 -1.4283  1.0937
 4510TIP3    H213495   5.948   4.878   5.417  1.5224 -0.0940 -2.3127
 4511TIP3   OH213496   1.929   0.725   1.953 -0.1613 -0.7616  0.0261
 4511TIP3    H113497   1.886   0.810   1.965  0.8445  0.0238 -1.5363
 4511TIP3    H213498   1.887   0.687   1.875  1.8724  0.0494 -1.5678
 4512TIP3   OH213499   1.959   3.160   4.222 -0.1750 -1.0257  0.0091
 4512TIP3    H113500   2.049   3.190   4.205 -0.4924 -0.0838 -0.0659
 4512TIP3    H213501   1.937   3.105   4.147  0.1818 -0.8934 -0.1962
 4513TIP3   OH213502   2.486   4.992   0.217  0.2824  0.0474 -0.0622
 4513TIP3    H113503   2.542   4.936   0.271 -0.1257  1.4910  1.9739
 4513TIP3    H213504   2.409   4.938   0.199  1.0557 -0.9577 -0.4645
 4514TIP3   OH213505   6.699   4.674   3.737 -0.4858  0.7076 -0.8683
 4514TIP3    H113506   6.629   4.685   3.672 -2.2112  0.4593  0.8602
 4514TIP3    H213507   6.718   4.763   3.766  1.0805  0.9434 -2.4010
 4515TIP3   OH213508   5.714   0.149   4.142  0.0532  0.6033  0.0208
 4515TIP3    H113509   5.790   0.205   4.127  0.2534  0.1907 -0.5679
 4515TIP3    H213510   5.667   0.149   4.059 -0.0488  0.0684  0.0702
 4516TIP3   OH213511   6.945   2.974   3.597 -0.5904 -0.4278 -0.6135
 4516TIP3    H113512   6.877   2.991   3.662 -2.2664 -3.3065 -1.4609
 4516TIP3    H213513   6.902   2.987   3.513  0.9087  0.9373 -1.2315
 4517TIP3   OH213514   2.041   4.207   1.243  0.5961 -0.1202 -0.1552
 4517TIP3    H113515   2.074   4.296   1.234  1.1555 -0.0675  1.7776
 4517TIP3    H213516   1.974   4.214   1.311  2.1559 -1.4579  1.6392
 4518TIP3   OH213517   4.192   3.922   0.423  0.0571  0.2039  0.6363
 4518TIP3    H113518   4.149   3.836   0.423  0.8194 -0.2325 -1.3959
 4518TIP3    H213519   4.162   3.964   0.504 -0.0552 -2.1006  1.8636
 4519TIP3   OH213520   5.634   0.653   5.848  0.0122  0.0061  0.0654
 4519TIP3    H113521   5.708   0.619   5.898 -0.8378 -0.0261  1.3363
 4519TIP3    H213522   5.558   0.640   5.904 -0.8692  0.6772 -0.9231
 4520TIP3   OH213523   5.259   4.606   4.171  0.0314 -0.2399  0.1538
 4520TIP3    H113524   5.174   4.604   4.127 -0.2994 -1.4235  0.8179
 4520TIP3    H213525   5.269   4.697   4.198 -1.1604 -0.1345  0.3053
 4521TIP3   OH213526   5.408   6.638   1.478  0.0628  0.0101 -0.0625
 4521TIP3    H113527   5.368   6.675   1.556 -0.5414 -1.8143  0.5563
 4521TIP3    H213528   5.379   6.695   1.407 -0.2349  1.0939  0.8946
 4522TIP3   OH213529   4.518   3.604   0.426  0.2280  0.4067  0.0900
 4522TIP3    H113530   4.499   3.514   0.452  3.6329 -0.1021  1.3080
 4522TIP3    H213531   4.494   3.607   0.333 -2.4867 -0.8725  0.6609
 4523TIP3   OH213532   6.774   4.865   0.923 -0.1685 -0.3859 -0.3942
 4523TIP3    H113533   6.719   4.916   0.983 -0.2275  0.8146 -1.4350
 4523TIP3    H213534   6.744   4.775   0.935 -1.2529  0.0338  0.2463
 4524TIP3   OH213535   5.275   0.023   1.403 -0.0585  0.2437 -0.2800
 4524TIP3    H113536   5.190   0.046   1.439 -0.2881  0.2231 -0.8058
 4524TIP3    H213537   5.261  -0.060   1.358  0.6871 -0.7991  1.3197
 4525TIP3   OH213538   2.251   6.794   4.472  0.1937 -0.2770  0.1265
 4525TIP3    H113539   2.226   6.812   4.563  0.4099  1.5500 -0.1291
 4525TIP3    H213540   2.168   6.773   4.428  0.1707 -1.7971  0.8551
 4526TIP3   OH213541   4.652   5.880   0.073 -0.4019  0.4310  0.1550
 4526TIP3    H113542   4.613   5.808   0.023  1.2250 -0.0377 -0.4895
 4526TIP3    H213543   4.705   5.837   0.141  2.2467  0.8835 -1.4844
 4527TIP3   OH213544   3.585   6.593   5.535  0.5171  0.1458  0.0075
 4527TIP3    H113545   3.506   6.541   5.553  1.7800 -2.4567 -1.3593
 4527TIP3    H213546   3.555   6.663   5.478 -0.6526 -1.6370 -1.6823
 4528TIP3   OH213547   0.681   1.752   3.221 -0.2490 -0.2782  0.2374
 4528TIP3    H113548   0.634   1.831   3.193 -1.4791 -0.1564  2.4883
 4528TIP3    H213549   0.757   1.748   3.162 -0.8636  1.8385 -0.7917
 4529TIP3   OH213550   3.931   0.517   4.167 -0.7981 -0.2818  0.3226
 4529TIP3    H113551   3.870   0.445   4.154 -1.0666  0.2897 -1.8960
 4529TIP3    H213552   3.895   0.566   4.242 -1.9001 -1.0996  0.3522
 4530TIP3   OH213553   3.184   2.614   3.634  0.6310  0.3479  0.5767
 4530TIP3    H113554   3.156   2.659   3.714 -0.7194 -1.5315  1.2268
 4530TIP3    H213555   3.124   2.647   3.567  0.6553  0.6614  0.7058
 4531TIP3   OH213556   1.673   6.289   5.752 -0.0416 -0.0843  0.4609
 4531TIP3    H113557   1.762   6.306   5.719 -0.4433 -0.0634 -0.6545
 4531TIP3    H213558   1.686   6.234   5.830  0.9432 -0.1107  0.2905
 4532TIP3   OH213559   0.968   4.156   0.661  0.5109 -0.3485  0.8075
 4532TIP3    H113560   0.954   4.072   0.616  0.4036  0.7002 -1.2605
 4532TIP3    H213561   0.881   4.180   0.695  0.1794 -0.3196 -0.0322
 4533TIP3   OH213562   4.108   1.325   0.161  0.1578 -0.1361 -0.2724
 4533TIP3    H113563   4.111   1.418   0.137 -1.5368 -0.0025 -0.0403
 4533TIP3    H213564   4.200   1.299   0.164  0.6193  1.1775 -1.7103
 4534TIP3   OH213565   6.995   1.185   4.441 -0.4466  0.5754  0.3411
 4534TIP3    H113566   6.986   1.252   4.508 -1.9165 -0.6822  1.4622
 4534TIP3    H213567   6.907   1.174   4.406  0.0045  0.0644 -0.6595
 4535TIP3   OH213568   3.234   0.283   2.589 -0.2217 -0.2436 -0.2517
 4535TIP3    H113569   3.329   0.269   2.593 -0.4619 -1.9163  0.0856
 4535TIP3    H213570   3.208   0.246   2.505 -0.5976  0.1847 -0.3282
 4536TIP3   OH213571   7.197   6.457   0.345 -0.4352  0.1392  0.2692
 4536TIP3    H113572   7.183   6.415   0.430 -0.7834 -0.0546  0.1159
 4536TIP3    H213573   7.160   6.396   0.281 -1.3786  0.8854  0.0745
 4537TIP3   OH213574   1.814   0.475   2.143  0.0510 -0.5015 -0.0822
 4537TIP3    H113575   1.886   0.422   2.111  0.7425 -1.5388  2.8107
 4537TIP3    H213576   1.851   0.563   2.154  0.1566 -0.4454 -0.8599
 4538TIP3   OH213577   5.702   4.325   3.029 -0.0492 -0.1528  0.4987
 4538TIP3    H113578   5.623   4.378   3.018  0.5244  0.4686 -0.9474
 4538TIP3    H213579   5.744   4.360   3.108  0.2356  1.5070 -0.3331
 4539TIP3   OH213580   4.352   5.909   0.705  0.1401  0.1872  0.0380
 4539TIP3    H113581   4.426   5.850   0.715 -0.6546 -0.6036  1.5544
 4539TIP3    H213582   4.381   5.991   0.745  0.0520 -0.2672  1.0616
 4540TIP3   OH213583   5.150   3.460   1.919  0.6692  0.1767  0.5834
 4540TIP3    H113584   5.164   3.531   1.857  1.2303 -0.0094  0.4920
 4540TIP3    H213585   5.238   3.427   1.938  0.3296 -3.2171 -2.5324
 4541TIP3   OH213586   2.961   3.892   4.082  0.2619 -0.1185 -0.2460
 4541TIP3    H113587   2.890   3.863   4.140 -0.3851  0.8068 -0.5508
 4541TIP3    H213588   3.037   3.897   4.139 -0.7299  2.4817  1.0273
 4542TIP3   OH213589   2.774   1.267   0.503 -0.3133  0.5218  0.0881
 4542TIP3    H113590   2.775   1.357   0.534  1.7250 -0.0419  1.8604
 4542TIP3    H213591   2.692   1.231   0.537  0.3432  0.8525  2.1530
 4543TIP3   OH213592   2.559   5.622   2.524 -0.3757  0.0667  0.0242
 4543TIP3    H113593   2.585   5.640   2.614  0.1765  1.7800 -0.4386
 4543TIP3    H213594   2.641   5.609   2.477 -0.6651 -0.9944 -0.2216
 4544TIP3   OH213595   6.618   2.167   5.632 -0.1140  0.0125  0.4028
 4544TIP3    H113596   6.609   2.243   5.575 -1.1804  0.6734  1.3836
 4544TIP3    H213597   6.550   2.107   5.604 -0.5997  0.3119  0.9093
 4545TIP3   OH213598   0.866   4.382   2.873  0.1886  0.2381  0.7488
 4545TIP3    H113599   0.895   4.460   2.921 -0.1574  0.4457  0.6173
 4545TIP3    H213600   0.899   4.395   2.784  1.3315 -0.4148  1.0565
 4546TIP3   OH213601   1.300   4.508   3.807 -0.6176 -0.3398  0.1298
 4546TIP3    H113602   1.381   4.463   3.831 -1.3718 -2.6319 -1.3098
 4546TIP3    H213603   1.283   4.481   3.717 -1.8354  1.9064 -0.3977
 4547TIP3   OH213604   4.985   5.210   0.218 -0.4742  0.6663 -0.0742
 4547TIP3    H113605   5.033   5.284   0.255  0.5291  0.6193 -1.2313
 4547TIP3    H213606   5.036   5.184   0.141 -1.7097 -0.1686 -0.6411
 4548TIP3   OH213607  -0.015   0.613   0.406 -0.3051 -0.1088 -0.7225
 4548TIP3    H113608  -0.023   0.689   0.350  0.6996  1.3289  0.9898
 4548TIP3    H213609   0.059   0.564   0.370 -0.4359  0.1401 -1.3393
 4549TIP3   OH213610   4.770   1.340   2.501 -0.4945  0.5979 -0.6153
 4549TIP3    H113611   4.734   1.420   2.539 -1.3693 -0.4556  0.8841
 4549TIP3    H213612   4.696   1.298   2.457 -0.1197  0.4667 -1.1269
 4550TIP3   OH213613   0.425   5.487   1.881 -0.0477  0.1581  0.6800
 4550TIP3    H113614   0.350   5.502   1.823  0.7006  2.3512  0.2027
 4550TIP3    H213615   0.434   5.392   1.883 -2.3278 -0.1369  0.1089
 4551TIP3   OH213616   6.315   3.292   2.182 -0.2159  0.3269  0.6987
 4551TIP3    H113617   6.227   3.256   2.191 -1.3425  2.7462  0.2762
 4551TIP3    H213618   6.363   3.260   2.258 -1.4832 -0.9423  0.9960
 4552TIP3   OH213619   1.219   3.177   2.837  0.0491  0.3906 -0.3559
 4552TIP3    H113620   1.156   3.211   2.774  0.0770  3.2029  0.9669
 4552TIP3    H213621   1.296   3.232   2.825  1.2308 -1.1102  0.0278
 4553TIP3   OH213622   0.657   6.164   0.635 -0.3647  0.6477 -0.1691
 4553TIP3    H113623   0.605   6.106   0.691 -0.1774  0.1354 -0.5108
 4553TIP3    H213624   0.617   6.157   0.549  0.9864 -0.7400 -0.7375
 4554TIP3   OH213625   3.134   0.238   4.521  0.3433  0.5236  0.1774
 4554TIP3    H113626   3.107   0.165   4.465  0.5459  0.8463 -0.3481
 4554TIP3    H213627   3.055   0.261   4.571  0.3509 -0.2201  0.5387
 4555TIP3   OH213628   6.854   6.695   2.637  0.3918  0.0642  0.0187
 4555TIP3    H113629   6.820   6.752   2.568 -0.1216 -0.2741 -0.0103
 4555TIP3    H213630   6.913   6.751   2.687  0.7108  0.3338 -0.6486
 4556TIP3   OH213631   0.131   0.135   5.027 -0.1287 -0.4268 -0.3287
 4556TIP3    H113632   0.103   0.227   5.023 -1.2435 -0.6532  1.2618
 4556TIP3    H213633   0.214   0.134   4.979  0.0576  1.4757 -0.1525
 4557TIP3   OH213634   1.700   3.206   4.897  0.6166 -0.7763  0.1176
 4557TIP3    H113635   1.623   3.180   4.846  1.6520 -2.7043 -0.5844
 4557TIP3    H213636   1.708   3.300   4.882 -1.4484 -0.5581  0.0451
 4558TIP3   OH213637   0.267   5.967   1.976  0.0924 -0.0502 -0.2094
 4558TIP3    H113638   0.323   5.893   1.999  0.3401  0.0320 -0.5461
 4558TIP3    H213639   0.271   5.971   1.881  0.4947  0.7190 -0.1652
 4559TIP3   OH213640   3.585   0.316   2.063  0.0667  0.1015 -0.4907
 4559TIP3    H113641   3.601   0.225   2.085  1.1550  0.0228 -1.5257
 4559TIP3    H213642   3.629   0.366   2.133  0.2169 -0.1554 -0.4011
 4560TIP3   OH213643   5.317   6.328   0.358 -0.1893 -0.5880  0.0846
 4560TIP3    H113644   5.235   6.361   0.324 -0.6385 -1.3106  0.4388
 4560TIP3    H213645   5.370   6.406   0.374 -1.9193  0.1689  2.8001
 4561TIP3   OH213646   1.590   2.745   2.391 -0.1282  0.3156 -0.0447
 4561TIP3    H113647   1.574   2.771   2.482 -0.9221  0.2830 -0.1683
 4561TIP3    H213648   1.611   2.652   2.397  0.0989  0.3762  0.1297
 4562TIP3   OH213649   1.539   5.474   2.169 -0.2237 -0.4598  0.5910
 4562TIP3    H113650   1.528   5.527   2.248 -1.1206 -0.8552  0.7506
 4562TIP3    H213651   1.617   5.421   2.186  0.9578  1.0823  0.2457
 4563TIP3   OH213652   1.776   2.936   0.127 -0.2662 -0.2808  0.4396
 4563TIP3    H113653   1.722   2.947   0.048  0.6032 -0.4823 -0.2007
 4563TIP3    H213654   1.829   3.016   0.131  0.6696 -0.8689  0.0359
 4564TIP3   OH213655   6.338   1.644   4.121 -0.1305 -0.2528  0.8192
 4564TIP3    H113656   6.379   1.677   4.041 -0.6604 -2.3686 -0.3911
 4564TIP3    H213657   6.400   1.579   4.154 -0.3666 -0.0816  1.6215
 4565TIP3   OH213658   5.620   0.362   1.340 -0.2967 -0.0650 -0.5053
 4565TIP3    H113659   5.573   0.413   1.408  1.0359  0.8805 -0.2541
 4565TIP3    H213660   5.556   0.352   1.270 -1.4232 -0.2845  0.5121
 4566TIP3   OH213661   5.989   1.769   4.731 -0.3594 -0.0260  0.1070
 4566TIP3    H113662   5.989   1.863   4.709  1.5380  0.5612  2.2389
 4566TIP3    H213663   6.053   1.761   4.802 -0.8899 -2.8755  0.3772
 4567TIP3   OH213664   2.172   0.660   2.127 -0.4140  0.6635 -0.8527
 4567TIP3    H113665   2.172   0.572   2.165 -0.1207  0.0877 -2.1501
 4567TIP3    H213666   2.089   0.666   2.079 -0.4871  1.1440 -0.6750
 4568TIP3   OH213667   6.725   5.163   5.853 -0.2812 -0.0006  0.5185
 4568TIP3    H113668   6.695   5.252   5.869 -0.9899 -0.2964  0.8681
 4568TIP3    H213669   6.798   5.150   5.914  0.9759  0.9100 -0.7149
 4569TIP3   OH213670   5.137   3.757   1.391 -0.0408 -0.4681 -0.3379
 4569TIP3    H113671   5.107   3.818   1.324  2.5576  1.4249  0.0688
 4569TIP3    H213672   5.151   3.675   1.344 -1.0224 -0.0153 -1.4680
 4570TIP3   OH213673   4.777   6.367   3.412  0.3326  0.0724 -0.0358
 4570TIP3    H113674   4.730   6.445   3.382 -0.9142 -0.5208  0.3299
 4570TIP3    H213675   4.862   6.373   3.368 -0.2400  0.9226 -1.0948
 4571TIP3   OH213676   0.240   6.277   3.372 -0.4717  0.1544 -0.1657
 4571TIP3    H113677   0.198   6.302   3.454 -0.1958  1.1220 -0.3013
 4571TIP3    H213678   0.225   6.352   3.313  0.0359 -0.1727 -0.7309
 4572TIP3   OH213679   2.236   5.941   3.479 -0.3398  0.7051 -0.6641
 4572TIP3    H113680   2.294   6.015   3.461  0.1328  0.8234  1.1696
 4572TIP3    H213681   2.295   5.867   3.494 -0.7193  0.5024 -0.1454
 4573TIP3   OH213682   0.670   3.117   0.694 -0.1532  0.5260  0.5083
 4573TIP3    H113683   0.613   3.165   0.634 -0.1591  1.2056  1.0488
 4573TIP3    H213684   0.659   3.161   0.779  1.2892  0.7704  0.5899
 4574TIP3   OH213685   6.712   1.304   1.522  0.9478 -0.3862  0.2167
 4574TIP3    H113686   6.635   1.359   1.533 -0.3111 -1.6828 -1.5018
 4574TIP3    H213687   6.702   1.235   1.587  1.7597  0.5397  1.3664
 4575TIP3   OH213688   1.616   4.767   5.696 -0.1405  0.1792 -0.1279
 4575TIP3    H113689   1.683   4.777   5.764  0.7391  0.9525 -1.0601
 4575TIP3    H213690   1.645   4.691   5.645 -0.7743 -0.3740  0.3277
 4576TIP3   OH213691   0.803   2.118   0.796 -0.0143  0.0191  0.3924
 4576TIP3    H113692   0.876   2.059   0.775 -1.1636 -0.4856 -2.7169
 4576TIP3    H213693   0.737   2.061   0.833 -0.0939 -0.1849 -0.0493
 4577TIP3   OH213694   4.997   0.528   4.218 -0.1115  0.4045 -0.2564
 4577TIP3    H113695   5.056   0.483   4.157  0.8521  0.7575  0.3782
 4577TIP3    H213696   4.914   0.483   4.210  0.2897 -0.2007 -1.0906
 4578TIP3   OH213697   1.292   0.903   0.119 -0.3997 -0.3408 -0.2435
 4578TIP3    H113698   1.259   0.849   0.191  1.6066  0.3193  1.2872
 4578TIP3    H213699   1.368   0.854   0.086 -0.5424 -0.0195 -1.0684
 4579TIP3   OH213700   7.051   4.384   5.827  0.2566 -0.3275  1.2440
 4579TIP3    H113701   7.008   4.351   5.906 -0.3734 -0.1788  0.9623
 4579TIP3    H213702   7.128   4.328   5.817 -1.1735 -2.2189  0.3497
 4580TIP3   OH213703   2.901   5.401   5.597  0.4325  0.4986 -0.0205
 4580TIP3    H113704   2.840   5.431   5.529  1.0854  1.1491 -0.3443
 4580TIP3    H213705   2.907   5.475   5.658 -0.7158 -0.3540  1.1789
 4581TIP3   OH213706   2.118   6.621   3.667  0.6755  0.0594  0.7197
 4581TIP3    H113707   2.116   6.715   3.682 -0.4061  0.8346 -3.0944
 4581TIP3    H213708   2.030   6.601   3.634  1.3619 -1.9410 -0.0465
 4582TIP3   OH213709   0.037   4.774   3.328 -0.4567 -0.0860 -0.1320
 4582TIP3    H113710   0.067   4.758   3.239 -1.3904 -1.4495 -0.2241
 4582TIP3    H213711   0.084   4.854   3.355 -0.8812  0.9038 -2.1468
 4583TIP3   OH213712   2.309   3.350   1.024 -0.1853  0.5523  0.1578
 4583TIP3    H113713   2.267   3.429   1.057  0.5725  0.9623  0.1578
 4583TIP3    H213714   2.390   3.381   0.983  0.1719 -0.2294  0.2545
 4584TIP3   OH213715   2.654   4.721   0.473  0.0595  0.1930 -0.0160
 4584TIP3    H113716   2.741   4.726   0.434  0.4696 -1.4874  0.6000
 4584TIP3    H213717   2.597   4.692   0.401  0.4789 -1.1305  0.1708
 4585TIP3   OH213718   0.080   3.295   3.127 -0.0471  0.1844 -0.2000
 4585TIP3    H113719   0.106   3.324   3.039 -0.5493  2.3482  0.3148
 4585TIP3    H213720  -0.009   3.262   3.115 -0.4834  1.3566 -0.3847
 4586TIP3   OH213721   6.456   2.513   5.148  0.3858 -1.1738 -0.0750
 4586TIP3    H113722   6.440   2.518   5.054 -0.3646  0.5012  0.1051
 4586TIP3    H213723   6.550   2.527   5.157  0.4443 -1.2289 -0.5674
 4587TIP3   OH213724   5.796   2.509   2.245 -0.1646  0.0784  0.0569
 4587TIP3    H113725   5.755   2.434   2.288  0.1317 -0.2421 -0.2129
 4587TIP3    H213726   5.835   2.473   2.165  1.5340  0.1509  0.8098
 4588TIP3   OH213727   4.246   1.326   4.019 -0.8245 -0.1662  0.1186
 4588TIP3    H113728   4.154   1.352   4.012 -1.0417 -1.2866 -2.7633
 4588TIP3    H213729   4.289   1.368   3.944  0.9395  0.0349  1.2014
 4589TIP3   OH213730   5.157   5.520   1.268  0.3943 -0.1017  0.4612
 4589TIP3    H113731   5.177   5.543   1.177 -1.0378 -1.2058 -0.1687
 4589TIP3    H213732   5.242   5.515   1.311  1.0943  0.4460 -0.8061
 4590TIP3   OH213733   0.685   3.288   3.734 -0.5601 -0.0908 -0.0120
 4590TIP3    H113734   0.765   3.238   3.750  0.9354  2.1589  0.0119
 4590TIP3    H213735   0.715   3.368   3.691 -2.8293  0.8059 -0.0730
 4591TIP3   OH213736   5.640   4.203   4.399 -0.6432 -0.1450  0.3544
 4591TIP3    H113737   5.602   4.159   4.322 -2.3766  0.9019  0.5619
 4591TIP3    H213738   5.567   4.209   4.461  0.0364  1.3522  1.0442
 4592TIP3   OH213739   0.490   1.313   5.173 -0.0323  0.6914  0.5148
 4592TIP3    H113740   0.555   1.368   5.129  0.4195  0.1052  0.4517
 4592TIP3    H213741   0.412   1.320   5.117  0.4614  0.1476 -0.2552
 4593TIP3   OH213742   5.148   1.880   2.190 -0.4251 -0.3031 -0.2084
 4593TIP3    H113743   5.054   1.896   2.178  0.1470  2.1230 -2.1464
 4593TIP3    H213744   5.181   1.959   2.233  0.7887 -1.0574  0.3016
 4594TIP3   OH213745   6.457   0.405   5.394  0.1065 -0.2846  0.4145
 4594TIP3    H113746   6.521   0.374   5.459 -0.3703  1.2444  1.6791
 4594TIP3    H213747   6.511   0.437   5.321  0.7864  0.3244  1.1568
 4595TIP3   OH213748   4.006   6.734   0.192  0.1436 -0.2973  0.0300
 4595TIP3    H113749   3.939   6.682   0.237  1.5446 -0.2863  2.3063
 4595TIP3    H213750   4.005   6.703   0.102 -4.2331  1.0482 -0.6183
 4596TIP3   OH213751   6.453   0.794   1.365  0.0388  0.7617  0.1285
 4596TIP3    H113752   6.395   0.719   1.381 -1.1869  1.6864  0.1449
 4596TIP3    H213753   6.521   0.760   1.308  0.2908 -0.7209  1.2574
 4597TIP3   OH213754   0.995   0.169   3.690 -0.3730 -0.1126  0.2779
 4597TIP3    H113755   0.910   0.126   3.699 -0.5605  0.3937  0.9142
 4597TIP3    H213756   1.038   0.158   3.775  0.2006 -0.3618 -0.0358
 4598TIP3   OH213757   0.650   6.639   1.470  0.1796  0.2458  0.1255
 4598TIP3    H113758   0.586   6.697   1.512 -0.3154  0.2430 -0.6047
 4598TIP3    H213759   0.671   6.574   1.536 -0.4178  0.3698  0.4403
 4599TIP3   OH213760   2.110   6.752   5.640 -0.7425  0.1039 -0.2182
 4599TIP3    H113761   2.043   6.697   5.601  0.8850  0.0623 -3.2176
 4599TIP3    H213762   2.193   6.709   5.619  0.4361  2.2288 -0.2341
 4600TIP3   OH213763   5.522   1.704   4.265  0.3025  0.2374 -0.4296
 4600TIP3    H113764   5.589   1.771   4.281 -1.8197  2.3052  0.3258
 4600TIP3    H213765   5.513   1.702   4.169 -0.4589  1.9949 -0.4273
 4601TIP3   OH213766   3.004   1.288   5.393 -0.2629 -0.1349  0.2674
 4601TIP3    H113767   2.968   1.324   5.474 -0.8004 -0.1354  0.0324
 4601TIP3    H213768   3.005   1.363   5.333  2.6238  0.5738  1.0293
 4602TIP3   OH213769   4.299   6.277   0.370  0.3088  0.0479  0.2199
 4602TIP3    H113770   4.311   6.220   0.294 -0.2272 -0.5904  0.6050
 4602TIP3    H213771   4.352   6.354   0.351 -0.2876  0.1548 -1.0593
 4603TIP3   OH213772   4.332   3.149   0.304 -0.1250 -0.9299  0.1658
 4603TIP3    H113773   4.252   3.170   0.256  2.0502  0.3528 -3.1888
 4603TIP3    H213774   4.324   3.055   0.324 -2.5379 -0.7685  0.2671
 4604TIP3   OH213775   0.870   0.283   5.009  0.9956 -0.1619 -0.5592
 4604TIP3    H113776   0.810   0.223   5.052  0.2535  0.5525 -0.5656
 4604TIP3    H213777   0.864   0.364   5.061  0.0532  0.7300 -1.9915
 4605TIP3   OH213778   4.384   6.606   3.889  0.0192 -0.0987  0.0385
 4605TIP3    H113779   4.362   6.698   3.872  1.7290  0.5389  1.0588
 4605TIP3    H213780   4.311   6.557   3.852 -0.7477  1.6474 -0.8893
 4606TIP3   OH213781   5.419   2.614   5.682 -0.3071 -0.1355 -0.5102
 4606TIP3    H113782   5.430   2.687   5.621 -0.9994 -1.7557 -2.7196
 4606TIP3    H213783   5.476   2.545   5.647 -0.4866 -1.0319  0.8887
 4607TIP3   OH213784   3.474   2.855   1.679 -0.2646  0.6368 -0.2562
 4607TIP3    H113785   3.467   2.760   1.674  0.4471  0.5260  0.5871
 4607TIP3    H213786   3.560   2.875   1.643 -1.5243  1.2643 -3.2051
 4608TIP3   OH213787   2.813   0.310   1.618 -0.5310  0.1795  0.4573
 4608TIP3    H113788   2.732   0.297   1.570 -0.1097  0.9636 -0.5068
 4608TIP3    H213789   2.881   0.271   1.563  0.0441  1.6327  0.0827
 4609TIP3   OH213790   5.234   0.357   2.555 -0.1442 -0.3156  0.2930
 4609TIP3    H113791   5.179   0.325   2.483  1.1129  0.9208 -1.3091
 4609TIP3    H213792   5.314   0.304   2.549  1.5173  2.1165 -1.7146
 4610TIP3   OH213793   0.101   1.101   5.089  0.0174 -0.1723  0.2586
 4610TIP3    H113794   0.171   1.069   5.146  1.2192 -0.0507 -1.0967
 4610TIP3    H213795   0.040   1.028   5.083  1.4819 -1.3959 -0.8073
 4611TIP3   OH213796   6.323   1.548   0.152 -0.0769 -0.5983 -0.8182
 4611TIP3    H113797   6.329   1.491   0.228 -2.0129  2.2785  1.7310
 4611TIP3    H213798   6.405   1.598   0.153 -0.0156 -0.6986 -0.7747
 4612TIP3   OH213799   1.595   5.975   3.033  0.2389 -0.0804 -0.7286
 4612TIP3    H113800   1.628   5.888   3.055 -0.9197 -0.8591 -1.8945
 4612TIP3    H213801   1.601   5.979   2.937 -0.0035  1.0106 -0.7118
 4613TIP3   OH213802   1.191   0.944   0.645  0.2537 -0.3769  0.0954
 4613TIP3    H113803   1.137   0.981   0.715 -0.8727 -1.3300 -0.2445
 4613TIP3    H213804   1.280   0.948   0.679 -0.1182  0.4271  1.0258
 4614TIP3   OH213805   2.915   6.765   3.720 -0.0250 -0.6756  0.0647
 4614TIP3    H113806   2.983   6.698   3.729  0.3312 -0.1964  1.1883
 4614TIP3    H213807   2.927   6.821   3.797 -1.5274 -0.4176  0.1333
 4615TIP3   OH213808   5.329   3.023   2.373 -0.0229 -0.0051  0.6505
 4615TIP3    H113809   5.402   3.080   2.397  0.4985  0.2159 -1.2744
 4615TIP3    H213810   5.370   2.938   2.357 -0.8043 -1.0631  3.6083
 4616TIP3   OH213811   6.319   0.121   4.342 -0.0541 -0.4715  0.3849
 4616TIP3    H113812   6.402   0.116   4.388  0.9034 -0.4568 -1.2625
 4616TIP3    H213813   6.270   0.044   4.371  0.9064 -0.9853  0.6785
 4617TIP3   OH213814   2.491   0.440   5.499 -0.0115 -0.1811 -0.3160
 4617TIP3    H113815   2.545   0.477   5.429 -0.1732  1.1246  0.2287
 4617TIP3    H213816   2.460   0.516   5.548  0.1892 -1.0915  1.2578
 4618TIP3   OH213817   6.408   0.260   2.781  0.8600  0.0254  0.2734
 4618TIP3    H113818   6.412   0.185   2.722  1.0041 -0.5109  0.9557
 4618TIP3    H213819   6.319   0.295   2.769  1.8063  1.8609 -2.5680
 4619TIP3   OH213820   2.210   1.211   4.649  0.1836  0.3899  0.7055
 4619TIP3    H113821   2.273   1.283   4.653  1.2226 -0.5071  1.0435
 4619TIP3    H213822   2.257   1.140   4.606 -1.3210  0.3712 -1.0467
 4620TIP3   OH213823   1.433   6.439   0.577 -0.0815 -0.3296 -0.2037
 4620TIP3    H113824   1.400   6.352   0.556 -0.6807 -0.5872  1.6399
 4620TIP3    H213825   1.512   6.423   0.629  0.4526  0.2619 -0.8082
 4621TIP3   OH213826   2.120   4.265   0.687  0.0035 -0.3309  0.4880
 4621TIP3    H113827   2.065   4.292   0.760 -0.8544  2.2133 -0.9616
 4621TIP3    H213828   2.059   4.252   0.614  1.1002  0.4701 -0.6192
 4622TIP3   OH213829   4.354   6.380   2.220  0.7392  0.1217  0.3651
 4622TIP3    H113830   4.417   6.381   2.293  0.1625  0.4353  0.8680
 4622TIP3    H213831   4.338   6.287   2.205  2.1735 -0.0074 -0.5280
 4623TIP3   OH213832   4.564   4.945   0.297 -0.1895  0.3343  0.3392
 4623TIP3    H113833   4.539   4.988   0.215 -0.0731 -2.1763 -1.1054
 4623TIP3    H213834   4.646   4.989   0.322  0.5992  0.1787 -1.7220
 4624TIP3   OH213835   4.510   3.037   3.307 -1.1711 -0.1776 -0.0552
 4624TIP3    H113836   4.491   2.947   3.281  0.5376 -0.6769  0.2787
 4624TIP3    H213837   4.430   3.086   3.287 -1.8143 -1.5901 -1.0826
 4625TIP3   OH213838   5.912   0.432   0.125  0.3207 -0.2333 -0.3445
 4625TIP3    H113839   5.966   0.426   0.204 -0.3401 -1.8626  0.0250
 4625TIP3    H213840   5.974   0.450   0.055  1.2360 -1.1026  0.2097
 4626TIP3   OH213841   7.013   2.960   2.254 -0.0419  0.5610  0.1423
 4626TIP3    H113842   7.098   2.926   2.281 -1.2578 -1.5547  1.6530
 4626TIP3    H213843   6.957   2.947   2.330 -1.4229  3.2102 -0.3276
 4627TIP3   OH213844   1.613   1.376   0.382  0.3463 -0.7277 -0.4574
 4627TIP3    H113845   1.632   1.467   0.359 -1.2137 -0.0889  0.6653
 4627TIP3    H213846   1.669   1.325   0.324  2.7791  0.9534  0.2495
 4628TIP3   OH213847   2.171   1.934   2.356  0.8705  0.1450  0.5836
 4628TIP3    H113848   2.233   1.990   2.308 -1.4319  3.1059  0.7857
 4628TIP3    H213849   2.118   1.894   2.287  0.0519  1.3320  0.4986
 4629TIP3   OH213850   6.842   0.140   1.093  0.4492  0.5402  0.2453
 4629TIP3    H113851   6.820   0.180   1.177 -1.4343  0.2119 -0.0513
 4629TIP3    H213852   6.859   0.048   1.113 -0.9768  0.2418  0.1615
 4630TIP3   OH213853   1.497   0.887   3.025 -0.3372  0.3209  0.8639
 4630TIP3    H113854   1.476   0.814   3.084  0.5060  0.5743  1.4949
 4630TIP3    H213855   1.470   0.857   2.939 -2.3096  0.2276  1.4626
 4631TIP3   OH213856   4.741   2.179   4.985  0.3463 -0.0226 -0.1098
 4631TIP3    H113857   4.703   2.092   4.978  1.2283 -0.4851  0.7430
 4631TIP3    H213858   4.725   2.205   5.076  0.6275  0.4512 -0.1919
 4632TIP3   OH213859   1.098   0.955   1.323  0.0707 -0.0429  0.2711
 4632TIP3    H113860   1.031   0.930   1.259 -0.8155  1.3672  0.5998
 4632TIP3    H213861   1.059   1.029   1.370  0.8027 -0.8699  2.2680
 4633TIP3   OH213862   3.539   5.275   0.125  0.1231  0.8313  0.2069
 4633TIP3    H113863   3.492   5.357   0.138 -0.5240  0.7597 -1.4713
 4633TIP3    H213864   3.499   5.236   0.047  0.0442 -1.3570  1.2555
 4634TIP3   OH213865   5.892   6.641   1.688  0.0265 -0.0884 -0.2078
 4634TIP3    H113866   5.843   6.703   1.743  0.6241  1.7159 -1.6380
 4634TIP3    H213867   5.861   6.555   1.717 -0.8392  0.8414  1.8444
 4635TIP3   OH213868   7.056   5.341   2.136 -0.3495 -0.4299 -0.2163
 4635TIP3    H113869   7.075   5.399   2.063  0.2113 -1.0324 -0.5651
 4635TIP3    H213870   6.980   5.291   2.108  0.4703 -1.3693 -0.8257
 4636TIP3   OH213871   5.965   6.209   4.181  0.3181  0.0580  0.0717
 4636TIP3    H113872   5.885   6.160   4.164 -0.3567  1.4349 -0.9252
 4636TIP3    H213873   5.984   6.192   4.274 -0.4671 -1.1885  0.0343
 4637TIP3   OH213874   6.545   4.540   3.521 -0.4831  0.2844 -0.3362
 4637TIP3    H113875   6.516   4.610   3.463 -0.7538 -0.8424 -1.6262
 4637TIP3    H213876   6.639   4.531   3.503 -0.4327  0.3603 -0.1144
 4638TIP3   OH213877   1.596   1.592   5.226 -0.1054  0.1244  0.3716
 4638TIP3    H113878   1.514   1.624   5.262  0.3629  0.7019  0.9508
 4638TIP3    H213879   1.607   1.505   5.263 -0.8760 -0.3137 -0.3946
 4639TIP3   OH213880   4.211   4.856   5.034 -0.3579  0.9137  0.1940
 4639TIP3    H113881   4.279   4.799   5.069  0.5081  1.1007 -1.1266
 4639TIP3    H213882   4.144   4.796   5.002  1.0058  0.5108 -2.1307
 4640TIP3   OH213883   2.603   6.737   5.850  0.6028 -0.4618  0.7074
 4640TIP3    H113884   2.580   6.718   5.941 -1.8141 -0.6973  0.1106
 4640TIP3    H213885   2.613   6.832   5.848  3.0990 -0.6148  1.6511
 4641TIP3   OH213886   5.868   1.292   2.578  0.3563 -0.0508 -0.4824
 4641TIP3    H113887   5.838   1.262   2.492 -1.2961  0.7874 -0.2529
 4641TIP3    H213888   5.903   1.214   2.620 -2.3187 -1.3566 -0.4993
 4642TIP3   OH213889   2.303   1.777   1.122  0.0862 -0.3010  0.1964
 4642TIP3    H113890   2.364   1.743   1.188  0.5574 -0.8979 -0.5306
 4642TIP3    H213891   2.216   1.754   1.155  0.3344 -0.8793  0.4502
 4643TIP3   OH213892   5.376   5.186   2.476  0.2402  0.3352  0.1056
 4643TIP3    H113893   5.287   5.208   2.505  0.4060  1.8519 -0.4732
 4643TIP3    H213894   5.395   5.249   2.407  1.5084 -0.4467 -0.2858
 4644TIP3   OH213895   0.967   1.487   0.200  0.0959 -0.5413  0.1559
 4644TIP3    H113896   1.008   1.489   0.114 -0.2333  0.2426  0.0043
 4644TIP3    H213897   0.899   1.420   0.193  0.0300 -0.4378 -0.2214
 4645TIP3   OH213898   1.003   5.117   5.133 -0.4744  0.0222 -0.3013
 4645TIP3    H113899   0.998   5.212   5.126  1.3933  0.0498 -2.6289
 4645TIP3    H213900   1.002   5.100   5.227  2.4366  2.6416  0.3742
 4646TIP3   OH213901   5.495   1.381   3.161 -0.2303  0.5375  0.1992
 4646TIP3    H113902   5.418   1.435   3.177 -1.2403 -0.5282 -0.8603
 4646TIP3    H213903   5.461   1.301   3.120  1.2803 -0.6026  1.0455
 4647TIP3   OH213904   2.732   0.033   5.799 -0.3197 -0.4006  0.7146
 4647TIP3    H113905   2.750  -0.012   5.716 -1.5193 -0.7974  0.6516
 4647TIP3    H213906   2.813   0.080   5.818  1.0480 -2.6502  0.8428
 4648TIP3   OH213907   6.331   5.848   2.413 -0.0397 -0.0283 -0.2480
 4648TIP3    H113908   6.279   5.878   2.339  1.6027  0.7255 -1.1366
 4648TIP3    H213909   6.422   5.859   2.386  0.6197 -0.0679  1.7463
 4649TIP3   OH213910   5.573   2.666   1.111 -0.1012 -0.0842 -0.2447
 4649TIP3    H113911   5.510   2.694   1.176 -0.1252 -0.7802  0.0471
 4649TIP3    H213912   5.656   2.659   1.159 -0.5105 -2.6170  0.2808
 4650TIP3   OH213913   4.805   3.218   4.042 -0.2873 -0.6104 -0.7719
 4650TIP3    H113914   4.714   3.196   4.064 -0.5143  0.4736 -0.5619
 4650TIP3    H213915   4.847   3.230   4.127 -0.1841 -0.2158 -0.8761
 4651TIP3   OH213916   0.868   1.276   4.616  0.4017 -0.0170  0.3743
 4651TIP3    H113917   0.963   1.266   4.613  0.5182  1.0934  0.0993
 4651TIP3    H213918   0.848   1.292   4.708  0.4309 -0.5889  0.4870
 4652TIP3   OH213919   0.411   4.353   4.344 -0.1055  0.6422  0.0221
 4652TIP3    H113920   0.421   4.301   4.424 -0.8994  0.2186 -0.1514
 4652TIP3    H213921   0.319   4.381   4.345  0.1578  1.5578 -0.1891
 4653TIP3   OH213922   4.658   5.783   5.683  0.1198 -0.0156  0.6918
 4653TIP3    H113923   4.721   5.840   5.729  0.0497  0.1825  0.5439
 4653TIP3    H213924   4.606   5.744   5.753 -0.6413  1.0499  0.7378
 4654TIP3   OH213925   2.049   5.172   5.631 -0.1023  0.0154  0.0207
 4654TIP3    H113926   1.995   5.175   5.710 -0.3642  0.4671 -0.1685
 4654TIP3    H213927   1.986   5.175   5.559  0.0862 -1.3579 -0.2192
 4655TIP3   OH213928   0.651   6.747   5.459  0.1124 -0.1913 -0.3253
 4655TIP3    H113929   0.706   6.766   5.535 -0.6425  0.6977  0.0112
 4655TIP3    H213930   0.566   6.724   5.495 -0.1191 -0.2368 -0.8869
 4656TIP3   OH213931   1.162   3.347   1.089 -0.4643 -0.5135  0.1834
 4656TIP3    H113932   1.213   3.339   1.170  0.4829 -0.5531 -0.3955
 4656TIP3    H213933   1.158   3.442   1.074 -1.0090 -0.4840  0.4967
 4657TIP3   OH213934   6.446   3.169   0.386  0.1673  0.0745  0.4026
 4657TIP3    H113935   6.382   3.175   0.457 -1.3604 -1.7141 -0.7185
 4657TIP3    H213936   6.526   3.207   0.422 -0.9286  0.4441  2.5969
 4658TIP3   OH213937   2.991   6.438   1.859 -0.2615  0.1828 -0.0103
 4658TIP3    H113938   3.047   6.474   1.927 -1.2454 -0.7904  1.3728
 4658TIP3    H213939   3.037   6.358   1.831  0.7134  1.1822 -1.3429
 4659TIP3   OH213940   5.513   0.524   2.964 -0.3601  0.0605  0.1235
 4659TIP3    H113941   5.578   0.571   2.912  0.9227 -2.2012 -0.4705
 4659TIP3    H213942   5.564   0.482   3.034 -1.9627  2.5392  3.0033
 4660TIP3   OH213943   0.051   1.448   2.008 -0.1198 -0.5750  0.2479
 4660TIP3    H113944   0.012   1.401   1.934 -0.5244 -0.7967  0.5956
 4660TIP3    H213945   0.132   1.485   1.973 -0.8218  0.2125 -0.6040
 4661TIP3   OH213946   0.341   6.186   2.900 -0.1922 -0.3244  0.1014
 4661TIP3    H113947   0.353   6.200   2.806 -0.9756 -0.0801  0.0364
 4661TIP3    H213948   0.363   6.270   2.940  0.1182 -0.4215  0.1435
 4662TIP3   OH213949   5.946   6.116   0.151  0.1143 -0.6548  0.1039
 4662TIP3    H113950   5.851   6.112   0.142  0.2293 -0.6157 -1.2211
 4662TIP3    H213951   5.975   6.027   0.130  0.5668  0.0050 -2.3803
 4663TIP3   OH213952   4.180   4.164   3.817 -0.2210 -0.5795  0.2015
 4663TIP3    H113953   4.189   4.225   3.743  0.3133  1.4876  1.8875
 4663TIP3    H213954   4.111   4.202   3.871  0.3260 -1.3191  1.4419
 4664TIP3   OH213955   5.750   6.435   5.353 -0.0838 -0.1869  0.5395
 4664TIP3    H113956   5.769   6.516   5.399  1.4504 -1.4356  2.2397
 4664TIP3    H213957   5.825   6.422   5.295 -0.7283  0.0130 -0.3549
 4665TIP3   OH213958   3.740   4.749   1.056  0.7183  0.2392 -0.1375
 4665TIP3    H113959   3.727   4.660   1.024  1.5387  0.1927 -0.3636
 4665TIP3    H213960   3.801   4.739   1.129  1.1948  0.6648 -0.4738
 4666TIP3   OH213961   1.543   6.779   2.701  0.2931  0.2724  0.0522
 4666TIP3    H113962   1.485   6.855   2.694 -0.3230 -0.1957  0.0128
 4666TIP3    H213963   1.559   6.769   2.795  2.6630  2.1338 -0.0522
 4667TIP3   OH213964   5.932   3.177   1.067  0.1661  0.4820  0.0255
 4667TIP3    H113965   5.880   3.111   1.114  2.5132 -0.1609  1.9990
 4667TIP3    H213966   5.907   3.260   1.107  1.6079  0.0158  2.0618
 4668TIP3   OH213967   5.378   0.214   2.881 -0.8046  0.6360  0.4549
 4668TIP3    H113968   5.323   0.151   2.927  0.8715  1.0321  3.2140
 4668TIP3    H213969   5.337   0.299   2.896  0.5593  0.9764  2.8069
 4669TIP3   OH213970   1.963   3.025   0.488 -0.4045  0.4230 -0.0947
 4669TIP3    H113971   2.039   3.015   0.430 -0.6309 -1.0364 -0.1721
 4669TIP3    H213972   1.997   3.010   0.576 -0.2667  1.5822  0.0603
 4670TIP3   OH213973   0.241   5.709   0.787 -0.1019 -0.4483 -1.0652
 4670TIP3    H113974   0.270   5.647   0.853  0.2802  1.5919  0.8307
 4670TIP3    H213975   0.234   5.792   0.834 -1.4526  0.7824 -3.2426
 4671TIP3   OH213976   5.617   1.845   0.077  0.3948 -0.3640  0.2734
 4671TIP3    H113977   5.628   1.782   0.005 -0.4920 -2.0147  1.5142
 4671TIP3    H213978   5.607   1.930   0.033 -0.5381 -1.3618 -1.5807
 4672TIP3   OH213979   6.548   3.729   0.330 -0.1008 -0.5522 -0.1697
 4672TIP3    H113980   6.454   3.712   0.338 -0.2042  0.6946  2.2259
 4672TIP3    H213981   6.556   3.824   0.332  1.1536 -0.5480 -2.2342
 4673TIP3   OH213982   3.174   3.593   1.480  0.3405  0.0319 -0.5053
 4673TIP3    H113983   3.240   3.662   1.489  0.7036 -0.5684  2.4947
 4673TIP3    H213984   3.225   3.511   1.479 -0.2470 -0.3586  0.3050
 4674TIP3   OH213985   6.095   2.909   0.599  0.2745 -0.2586 -0.7055
 4674TIP3    H113986   6.145   2.874   0.672  0.1728  1.0589  0.0260
 4674TIP3    H213987   6.080   2.833   0.542 -0.0363 -1.4202  0.8427
 4675TIP3   OH213988   6.826   6.624   3.458  0.0148  0.1606 -0.0383
 4675TIP3    H113989   6.864   6.543   3.423 -1.5889 -0.1323 -1.2044
 4675TIP3    H213990   6.839   6.689   3.388 -1.5417  0.0617 -0.4471
 4676TIP3   OH213991   0.773   0.048   3.353 -0.3124  0.4612 -0.7589
 4676TIP3    H113992   0.734   0.069   3.438 -1.8860 -0.1610 -1.2826
 4676TIP3    H213993   0.820  -0.034   3.369 -1.6747 -0.3453 -0.7491
 4677TIP3   OH213994   3.492   4.505   0.769  0.1626  0.4282  0.1689
 4677TIP3    H113995   3.514   4.463   0.685  1.1451 -0.7919  0.9902
 4677TIP3    H213996   3.575   4.539   0.801 -0.5002  2.4300 -0.1194
 4678TIP3   OH213997   1.602   4.044   4.797 -0.5274  0.0255 -0.6142
 4678TIP3    H113998   1.623   4.127   4.753 -0.8342  0.6957  0.4692
 4678TIP3    H213999   1.642   3.977   4.742  1.7545  1.0377 -0.3066
 4679TIP3   OH214000   0.161   6.228   0.165 -0.0228 -0.2050 -0.0580
 4679TIP3    H114001   0.137   6.278   0.087 -0.7617 -1.4300 -0.6608
 4679TIP3    H214002   0.252   6.254   0.184 -0.5738  1.7902  0.0520
 4680TIP3   OH214003   5.497   0.389   5.446  0.4606  0.6080 -0.2848
 4680TIP3    H114004   5.549   0.351   5.375  0.9631  2.5698 -1.0057
 4680TIP3    H214005   5.463   0.312   5.494 -0.9408 -0.8587 -3.3422
 4681TIP3   OH214006   5.259   3.768   0.560  0.0271  0.1856 -0.0379
 4681TIP3    H114007   5.229   3.792   0.648 -0.9493  0.5476 -0.4649
 4681TIP3    H214008   5.344   3.726   0.575 -0.8272 -1.1826  1.2333
 4682TIP3   OH214009   1.615   1.390   1.745 -0.2006 -0.3986 -0.0121
 4682TIP3    H114010   1.532   1.424   1.710  0.0757  0.5098  0.1781
 4682TIP3    H214011   1.651   1.337   1.675 -1.3728 -1.5598  0.2283
 4683TIP3   OH214012   5.413   6.711   3.901 -0.1136 -0.1487  0.4771
 4683TIP3    H114013   5.506   6.701   3.920  0.4160  1.3136 -1.0456
 4683TIP3    H214014   5.398   6.655   3.824 -0.3269  0.1450  0.3011
 4684TIP3   OH214015   2.266   0.800   2.948  0.2480  0.2473  0.0401
 4684TIP3    H114016   2.304   0.756   3.024  2.4612 -1.1615 -1.7346
 4684TIP3    H214017   2.230   0.882   2.982  0.6359 -0.5882  2.6481
 4685TIP3   OH214018   4.419   2.192   0.792 -1.1286 -0.0978  0.0917
 4685TIP3    H114019   4.436   2.140   0.870  1.1057 -0.1541 -0.3793
 4685TIP3    H214020   4.349   2.145   0.746 -1.9974 -0.4200  1.6827
 4686TIP3   OH214021   6.824   0.660   2.892 -0.5181  0.3458  0.4890
 4686TIP3    H114022   6.886   0.625   2.828 -0.6196  0.6932  0.1961
 4686TIP3    H214023   6.794   0.742   2.854 -1.3894  0.0353  0.4920
 4687TIP3   OH214024   0.630   4.642   0.370 -0.0137 -0.7013  0.2627
 4687TIP3    H114025   0.624   4.547   0.355 -1.1924 -0.6053  0.0190
 4687TIP3    H214026   0.575   4.680   0.301  1.7329  0.2716 -0.6717
 4688TIP3   OH214027   2.203   4.527   0.860  0.0034  0.3618  0.3340
 4688TIP3    H114028   2.213   4.492   0.772 -0.7745  1.4097 -0.1875
 4688TIP3    H214029   2.117   4.569   0.860  0.3075  1.0308  1.3587
 4689TIP3   OH214030   0.414   2.718   4.555 -0.5999  0.1133 -0.9026
 4689TIP3    H114031   0.433   2.779   4.484  0.6055  0.4500 -0.3125
 4689TIP3    H214032   0.492   2.663   4.562 -1.1632 -0.6799 -0.5858
 4690TIP3   OH214033   6.124   2.667   5.761 -0.1136 -0.5131 -0.6114
 4690TIP3    H114034   6.052   2.720   5.794 -0.1609 -0.3517 -0.9645
 4690TIP3    H214035   6.167   2.723   5.697  0.8609 -0.2811  0.2219
 4691TIP3   OH214036   1.787   1.624   1.874  0.1767 -0.0501  0.2231
 4691TIP3    H114037   1.882   1.636   1.884  0.5017 -1.7926 -0.4610
 4691TIP3    H214038   1.770   1.645   1.782 -0.1953  0.7562  0.4721
 4692TIP3   OH214039   1.535   5.486   5.211 -0.0953 -0.4527 -0.0567
 4692TIP3    H114040   1.570   5.575   5.212  0.3894 -0.6440  0.4883
 4692TIP3    H214041   1.518   5.466   5.303  0.9735 -1.3669 -0.0346
 4693TIP3   OH214042   1.110   0.721   1.463 -0.0803 -0.3647 -0.1622
 4693TIP3    H114043   1.125   0.648   1.404 -3.4423  0.1289 -1.8808
 4693TIP3    H214044   1.100   0.797   1.405  1.8201  1.2584  1.4732
 4694TIP3   OH214045   2.827   5.669   0.729  0.3128 -0.1882 -0.1140
 4694TIP3    H114046   2.777   5.604   0.779 -0.8095  0.4831 -0.3475
 4694TIP3    H214047   2.800   5.753   0.764 -0.9170  0.3415 -2.1809
 4695TIP3   OH214048   3.604   2.045   0.404  0.4694  0.4459  0.5471
 4695TIP3    H114049   3.541   2.112   0.380  1.4885  1.2252 -0.0371
 4695TIP3    H214050   3.583   2.024   0.495 -1.4683 -0.3012 -0.0160
 4696TIP3   OH214051   5.599   4.161   3.891 -0.5928 -0.1498  0.1386
 4696TIP3    H114052   5.605   4.152   3.987  1.0101  0.6670  0.1495
 4696TIP3    H214053   5.532   4.227   3.877  0.1971  0.8219  0.7904
 4697TIP3   OH214054   2.316   2.455   1.760 -0.0714 -0.4291  0.0443
 4697TIP3    H114055   2.228   2.422   1.744  0.0785 -1.2857  0.9087
 4697TIP3    H214056   2.344   2.412   1.840  0.7868  0.5401  0.2912
 4698TIP3   OH214057   3.748   1.831   0.554 -0.1048 -0.1963  0.5306
 4698TIP3    H114058   3.762   1.837   0.460  0.8628 -1.9493  0.5347
 4698TIP3    H214059   3.834   1.847   0.592 -0.2868 -0.5116  1.0797
 4699TIP3   OH214060   6.632   2.936   2.102 -0.2538 -0.3714 -0.3904
 4699TIP3    H114061   6.713   2.887   2.113 -0.7317 -1.2282 -0.5932
 4699TIP3    H214062   6.659   3.028   2.099  0.5269 -0.4983  1.4332
 4700TIP3   OH214063   5.502   1.931   1.571 -0.3374  0.2830 -0.5191
 4700TIP3    H114064   5.547   2.005   1.614 -1.6057  1.8294 -1.7379
 4700TIP3    H214065   5.422   1.969   1.536 -2.3428 -2.2372  0.9779
 4701TIP3   OH214066   1.834   2.846   2.494 -0.1701 -0.1139  0.1815
 4701TIP3    H114067   1.754   2.829   2.445 -0.0732 -2.2179  0.6649
 4701TIP3    H214068   1.882   2.909   2.440 -0.7235 -1.2339 -1.7118
 4702TIP3   OH214069   5.984   6.715   3.285 -0.4762 -0.3018  0.0770
 4702TIP3    H114070   6.020   6.745   3.201 -0.3954  0.9727  0.5458
 4702TIP3    H214071   6.061   6.689   3.335 -0.4670 -0.3778  0.0247
 4703TIP3   OH214072   6.306   3.131   5.756  0.3388 -0.3934 -0.0580
 4703TIP3    H114073   6.351   3.047   5.748 -0.7903 -1.0208  0.0167
 4703TIP3    H214074   6.279   3.136   5.847 -1.4682 -0.9436 -0.5386
 4704TIP3   OH214075   3.276   2.831   5.010  0.5970  0.0105  0.2035
 4704TIP3    H114076   3.335   2.785   5.069  2.2375  0.8607 -0.6975
 4704TIP3    H214077   3.315   2.819   4.923 -0.7810  0.2707 -0.4746
 4705TIP3   OH214078   1.936   3.873   3.900  0.2675 -0.0608 -0.2959
 4705TIP3    H114079   1.885   3.793   3.905 -1.5972  1.0848  4.4385
 4705TIP3    H214080   1.884   3.932   3.846 -0.5027 -0.6877 -0.2499
 4706TIP3   OH214081   0.330   5.034   5.734  0.1990  0.6681 -0.4730
 4706TIP3    H114082   0.384   4.956   5.751 -0.5567  0.3112  0.3790
 4706TIP3    H214083   0.381   5.107   5.769  0.0617  0.3085  0.5149
 4707TIP3   OH214084   4.591   2.989   0.628 -0.0418 -0.0325 -0.2203
 4707TIP3    H114085   4.516   3.033   0.668  0.6158  0.9521 -0.0535
 4707TIP3    H214086   4.637   3.058   0.581  1.2121 -0.4705  0.3384
 4708TIP3   OH214087   3.574   2.953   3.335  0.3078  0.2770  0.2383
 4708TIP3    H114088   3.523   2.895   3.392 -0.6799  0.2832 -0.6020
 4708TIP3    H214089   3.572   3.038   3.379  0.5486  0.0195  0.7626
 4709TIP3   OH214090   2.451   0.448   3.721  0.5599 -0.1644  0.5997
 4709TIP3    H114091   2.356   0.437   3.723  0.3192  1.3209 -0.4583
 4709TIP3    H214092   2.464   0.536   3.685  2.3936 -1.4613 -2.2218
 4710TIP3   OH214093   5.035   4.237   4.228 -0.1311  0.0740  0.0406
 4710TIP3    H114094   5.017   4.193   4.145 -1.0697 -0.3211  0.4392
 4710TIP3    H214095   5.063   4.167   4.287 -2.6781 -0.2635  0.9940
 4711TIP3   OH214096   1.707   1.830   4.660  0.6219 -0.0215 -0.4015
 4711TIP3    H114097   1.701   1.809   4.754 -1.2023 -2.9841 -1.0552
 4711TIP3    H214098   1.724   1.924   4.658  2.0181 -0.0599  2.8953
 4712TIP3   OH214099   3.682   4.247   5.335  0.5066 -0.0582 -0.0816
 4712TIP3    H114100   3.604   4.196   5.355  0.6101 -0.2043 -0.0484
 4712TIP3    H214101   3.754   4.184   5.340  0.9773  0.5838  2.5640
 4713TIP3   OH214102   5.343   4.752   4.484 -0.0952 -0.4642 -0.4752
 4713TIP3    H114103   5.318   4.803   4.407  0.4666 -0.0458 -0.3942
 4713TIP3    H214104   5.267   4.698   4.504  1.2152 -4.2102 -4.1770
 4714TIP3   OH214105   4.163   2.901   3.357 -0.1290 -0.0108  0.0622
 4714TIP3    H114106   4.197   2.943   3.278 -2.0836 -0.4227 -1.0579
 4714TIP3    H214107   4.095   2.961   3.389 -1.5081 -1.2886 -0.3789
 4715TIP3   OH214108   2.836   2.463   2.965  0.1183 -0.8918  0.0856
 4715TIP3    H114109   2.794   2.452   2.880  0.7325  1.0362 -0.5271
 4715TIP3    H214110   2.780   2.526   3.011  0.8450 -0.3792  0.3003
 4716TIP3   OH214111   4.879   5.830   3.391  0.1540  0.4114 -0.0900
 4716TIP3    H114112   4.855   5.895   3.457 -0.9724  0.2542 -0.3235
 4716TIP3    H214113   4.934   5.878   3.329  0.8736  0.6622  0.7194
 4717TIP3   OH214114   6.130   4.429   2.849  0.2203  0.0323  0.3099
 4717TIP3    H114115   6.145   4.443   2.756 -0.3036 -1.0312  0.0548
 4717TIP3    H214116   6.215   4.399   2.882  0.8076  1.7912  0.4813
 4718TIP3   OH214117   3.249   0.529   2.957  0.5563 -0.4216 -0.0730
 4718TIP3    H114118   3.340   0.548   2.980  0.1552  1.3828  0.1191
 4718TIP3    H214119   3.198   0.557   3.033 -0.2963  0.1225 -0.8274
 4719TIP3   OH214120   3.272   5.808   2.510 -0.1529 -0.0487  0.6094
 4719TIP3    H114121   3.358   5.779   2.540 -0.5464 -1.6987  0.2062
 4719TIP3    H214122   3.237   5.858   2.584  1.5615  1.6075  0.3887
 4720TIP3   OH214123   0.970   1.516   5.335  0.0231 -0.1457  0.1614
 4720TIP3    H114124   1.039   1.553   5.391  0.5409 -2.0548  0.8536
 4720TIP3    H214125   1.015   1.499   5.252  0.3371 -1.1267  0.5208
 4721TIP3   OH214126   4.914   2.751   2.473 -0.3446 -0.0367 -0.4896
 4721TIP3    H114127   4.922   2.846   2.479 -0.4269  0.0305 -1.3064
 4721TIP3    H214128   4.917   2.721   2.564  2.1295  0.5299 -0.3218
 4722TIP3   OH214129   0.648   3.977   4.066  0.6308  0.0364 -0.0622
 4722TIP3    H114130   0.572   3.972   4.008  1.0144 -1.1167 -0.4830
 4722TIP3    H214131   0.611   3.971   4.154  0.0434  1.8087 -0.1393
 4723TIP3   OH214132   1.750   1.223   1.978 -0.4520 -0.3475 -0.0115
 4723TIP3    H114133   1.659   1.253   1.967 -0.5709  0.1004  1.8290
 4723TIP3    H214134   1.795   1.254   1.899 -1.9595 -0.9266 -1.1582
 4724TIP3   OH214135   4.474   2.412   1.348 -0.2922 -0.0087  0.4789
 4724TIP3    H114136   4.469   2.347   1.417  0.5267 -0.8094 -0.1891
 4724TIP3    H214137   4.383   2.429   1.324 -0.5050 -1.0680  0.5218
 4725TIP3   OH214138   3.752   5.187   4.421  0.4438 -0.5729  0.7351
 4725TIP3    H114139   3.696   5.127   4.469  0.5573 -0.5902  0.8446
 4725TIP3    H214140   3.823   5.208   4.481  0.4852 -0.4468  0.6442
 4726TIP3   OH214141   6.446   4.559   5.719  0.3641 -0.6024 -0.2125
 4726TIP3    H114142   6.406   4.490   5.771  0.8223 -0.6029  0.1420
 4726TIP3    H214143   6.398   4.638   5.744 -0.0065 -0.7507 -0.4483
 4727TIP3   OH214144   3.237   1.486   3.193 -0.1879  0.3509 -0.3934
 4727TIP3    H114145   3.304   1.540   3.151 -1.0232  0.8592 -1.1145
 4727TIP3    H214146   3.154   1.527   3.167 -0.7458  0.6465  1.7263
 4728TIP3   OH214147   5.938   4.159   2.021 -0.4383  0.8780 -0.4492
 4728TIP3    H114148   5.880   4.119   1.955 -0.0081  0.5578 -0.6405
 4728TIP3    H214149   6.009   4.197   1.969 -0.3994  1.1407 -0.2038
 4729TIP3   OH214150   3.034   5.809   0.591  0.0092 -0.2094  0.6050
 4729TIP3    H114151   2.951   5.773   0.623  0.0218 -0.0776  0.7862
 4729TIP3    H214152   3.101   5.749   0.624 -0.0379 -0.4854  0.2029
 4730TIP3   OH214153   6.025   3.565   2.651  0.7448  0.2413  0.2470
 4730TIP3    H114154   5.939   3.525   2.668  0.2447  1.7914  1.5886
 4730TIP3    H214155   6.086   3.508   2.697  0.1907  0.2510  1.0199
 4731TIP3   OH214156   6.513   0.406   1.084  0.7362 -0.0929 -0.0943
 4731TIP3    H114157   6.431   0.433   1.042  0.7215 -0.4040 -0.2659
 4731TIP3    H214158   6.524   0.315   1.060  0.6382 -0.3309  0.7228
 4732TIP3   OH214159   1.385   3.073   3.481  0.1082 -0.3187 -0.0300
 4732TIP3    H114160   1.318   3.132   3.446 -0.9345 -1.4041  0.0630
 4732TIP3    H214161   1.464   3.126   3.484 -0.5319  0.7453 -0.9899
 4733TIP3   OH214162   2.850   3.443   5.457  0.0909  0.0890 -0.0917
 4733TIP3    H114163   2.908   3.513   5.426  0.6396  0.5644  1.8438
 4733TIP3    H214164   2.762   3.473   5.434  0.4343  0.5916 -0.8015
 4734TIP3   OH214165   5.003   4.886   3.031  0.3543 -0.5064  0.4089
 4734TIP3    H114166   4.923   4.835   3.042 -0.6760  1.2642  1.7891
 4734TIP3    H214167   4.999   4.952   3.100  2.0513  0.8613 -0.7008
 4735TIP3   OH214168   2.654   1.124   3.690 -0.5016  0.3234 -0.3734
 4735TIP3    H114169   2.642   1.150   3.781  0.1873  0.3513 -0.2879
 4735TIP3    H214170   2.746   1.100   3.684 -0.6619 -0.1816 -0.9368
 4736TIP3   OH214171   5.170   0.074   1.054 -0.7809  0.2852  0.0699
 4736TIP3    H114172   5.112   0.141   1.089 -2.0464 -0.8431  0.2416
 4736TIP3    H214173   5.252   0.120   1.034 -1.9488  2.0786 -0.8447
 4737TIP3   OH214174   0.441   2.897   0.249  0.9804 -0.4028 -0.2718
 4737TIP3    H114175   0.507   2.897   0.180  1.6956 -0.2912  0.4008
 4737TIP3    H214176   0.357   2.903   0.202  1.5194  2.2989 -1.0675
 4738TIP3   OH214177   2.314   1.706   2.121  0.1716  0.3754  0.3544
 4738TIP3    H114178   2.316   1.774   2.054  0.2665  0.8779  0.8575
 4738TIP3    H214179   2.309   1.754   2.204  2.2655 -0.1420  0.8471
 4739TIP3   OH214180   1.747   1.066   4.014  0.0347 -0.5829  0.0635
 4739TIP3    H114181   1.693   1.035   4.086  0.7608 -0.0807  0.8479
 4739TIP3    H214182   1.774   0.987   3.967 -0.9123 -0.8695 -0.0077
 4740TIP3   OH214183   2.343   1.419   1.103 -0.4501 -0.1166 -0.1162
 4740TIP3    H114184   2.332   1.401   1.197  0.1745  0.6618  0.1159
 4740TIP3    H214185   2.254   1.428   1.071 -0.6700  2.2657  0.9607
 4741TIP3   OH214186   2.580   0.415   1.765 -0.7761  0.6654  0.3762
 4741TIP3    H114187   2.632   0.396   1.687 -1.4202  0.3868  0.0016
 4741TIP3    H214188   2.587   0.335   1.818 -0.1320  0.9485  0.7329
 4742TIP3   OH214189   7.144   1.347   2.465 -0.1636  0.1511  0.3576
 4742TIP3    H114190   7.166   1.401   2.388 -0.1846  0.2767  0.4398
 4742TIP3    H214191   7.206   1.274   2.461 -0.3211  0.0324  0.0879
 4743TIP3   OH214192   2.821   5.278   4.592  0.2982 -0.2490 -0.3145
 4743TIP3    H114193   2.820   5.183   4.596 -0.7690 -0.2497 -0.2580
 4743TIP3    H214194   2.903   5.300   4.546  0.4608 -1.1912 -0.4878
 4744TIP3   OH214195   5.629   4.461   0.514  0.2698  0.1583 -1.1936
 4744TIP3    H114196   5.711   4.444   0.560 -0.4821 -1.7192 -0.4552
 4744TIP3    H214197   5.645   4.431   0.425  0.1422 -1.0288 -0.8345
 4745TIP3   OH214198   4.170   2.397   3.510  0.0065  0.1071 -0.5765
 4745TIP3    H114199   4.150   2.489   3.495  2.0111  0.6373 -0.2427
 4745TIP3    H214200   4.114   2.350   3.447  2.1453  1.8100 -4.0447
 4746TIP3   OH214201   0.828   2.370   0.458 -0.3435 -0.0156 -0.1121
 4746TIP3    H114202   0.912   2.384   0.501 -0.9580  1.1352  0.7812
 4746TIP3    H214203   0.782   2.307   0.513 -0.9540  1.1187  0.7193
 4747TIP3   OH214204   0.988   5.469   2.244 -0.6147 -0.5393 -0.2886
 4747TIP3    H114205   1.053   5.410   2.283 -0.0800  0.1027 -0.1883
 4747TIP3    H214206   0.959   5.424   2.164  1.2825 -0.0672 -1.3090
 4748TIP3   OH214207   4.468   2.211   2.506  0.6167 -0.0320  0.3964
 4748TIP3    H114208   4.537   2.167   2.456  1.5542 -0.7349  2.1900
 4748TIP3    H214209   4.486   2.304   2.497  0.3145 -0.1018 -1.1371
 4749TIP3   OH214210   7.172   5.206   0.674 -0.4084  0.2658 -0.2997
 4749TIP3    H114211   7.217   5.259   0.740  0.6430  1.9320 -2.2422
 4749TIP3    H214212   7.177   5.117   0.707 -0.9457  1.1579  2.4081
 4750TIP3   OH214213   4.355   2.934   4.148  0.4142  0.6366  0.5404
 4750TIP3    H114214   4.353   2.853   4.096 -1.5433  1.4251 -0.7108
 4750TIP3    H214215   4.300   2.995   4.100  0.0942  2.0565  2.5824
 4751TIP3   OH214216   2.660   0.848   4.267 -0.2393 -0.1824  0.2911
 4751TIP3    H114217   2.577   0.879   4.231  0.1533  0.1944 -0.3004
 4751TIP3    H214218   2.720   0.849   4.193  0.8152  1.3891  1.1168
 4752TIP3   OH214219  -0.000   3.864   5.783  0.8818  0.0942 -0.7392
 4752TIP3    H114220   0.055   3.816   5.721 -0.1458 -0.4056 -1.2879
 4752TIP3    H214221   0.001   3.811   5.862  0.1278 -0.6310 -1.1912
 4753TIP3   OH214222   5.663   1.852   3.748  0.1280 -0.3660 -0.5920
 4753TIP3    H114223   5.730   1.866   3.682 -0.2853  0.1021 -0.9185
 4753TIP3    H214224   5.580   1.856   3.700 -0.2111  0.5888  0.0461
 4754TIP3   OH214225   2.155   5.995   1.981 -0.0649  0.2617  0.0555
 4754TIP3    H114226   2.214   5.920   1.987 -1.4717 -0.9156 -0.1683
 4754TIP3    H214227   2.212   6.069   1.959  1.8003 -0.0958  3.0926
 4755TIP3   OH214228   1.094   6.413   5.630  0.6241  0.6913  0.2175
 4755TIP3    H114229   1.022   6.351   5.619  0.6954  0.7897 -0.9179
 4755TIP3    H214230   1.142   6.381   5.706  0.3618 -0.3619 -0.0439
 4756TIP3   OH214231   4.811   0.740   1.390  0.2204  0.4280  0.0465
 4756TIP3    H114232   4.852   0.824   1.368  4.4360 -1.6643 -1.1308
 4756TIP3    H214233   4.772   0.710   1.308  2.1224 -0.3837 -0.6104
 4757TIP3   OH214234   1.038   6.258   0.211 -0.5203 -0.1360  0.1980
 4757TIP3    H114235   0.995   6.222   0.288 -1.9653 -1.2177 -1.0871
 4757TIP3    H214236   0.972   6.312   0.169 -0.4406 -1.2360 -1.4136
 4758TIP3   OH214237   4.789   1.170   4.341 -0.5430 -0.7957  0.1999
 4758TIP3    H114238   4.718   1.173   4.405 -0.5243 -1.0889  0.2361
 4758TIP3    H214239   4.753   1.120   4.267 -1.2879  1.3093 -0.9294
 4759TIP3   OH214240   2.432   0.278   1.557 -0.7571  0.1280 -0.1071
 4759TIP3    H114241   2.373   0.321   1.620 -0.0597  1.7766 -0.5323
 4759TIP3    H214242   2.377   0.264   1.480 -0.8350  0.8664 -0.1937
 4760TIP3   OH214243   2.652   2.408   5.710 -0.8978  0.6832  0.2385
 4760TIP3    H114244   2.635   2.333   5.653  1.0952  0.6882 -0.4423
 4760TIP3    H214245   2.593   2.476   5.679 -1.0226  0.1452 -0.7494
 4761TIP3   OH214246   1.321   3.277   5.046  0.0695  0.0233  0.0620
 4761TIP3    H114247   1.245   3.222   5.026  1.0727 -0.7032 -2.0002
 4761TIP3    H214248   1.336   3.329   4.967  2.6570 -1.0337 -0.2600
 4762TIP3   OH214249   3.562   1.539   0.927  0.0902  0.3404 -0.2177
 4762TIP3    H114250   3.549   1.577   1.014  0.3933  1.4556 -0.6461
 4762TIP3    H214251   3.474   1.535   0.890  0.0105  0.2597 -0.0217
 4763TIP3   OH214252   0.476   0.852   1.651 -0.6511  0.1192  0.2216
 4763TIP3    H114253   0.396   0.875   1.604  0.2754  0.3815 -1.2872
 4763TIP3    H214254   0.496   0.763   1.623 -0.2557  0.1612  0.3547
 4764TIP3   OH214255   1.997   2.179   1.123 -0.4077  0.2005  0.3200
 4764TIP3    H114256   2.066   2.239   1.096 -0.7547  0.0261 -0.9947
 4764TIP3    H214257   2.043   2.112   1.174  0.4171  0.0329 -0.6156
 4765TIP3   OH214258   0.302   1.712   0.391  0.2794 -0.0977  0.0871
 4765TIP3    H114259   0.372   1.696   0.455 -0.2120 -2.7042  0.0941
 4765TIP3    H214260   0.315   1.644   0.325 -1.9487 -0.3516 -0.1645
 4766TIP3   OH214261   4.593   0.189   4.944  0.7499 -0.9127 -0.2824
 4766TIP3    H114262   4.561   0.248   5.013 -0.0607 -2.3077  0.5800
 4766TIP3    H214263   4.672   0.232   4.911  0.4270  0.4346  0.6142
 4767TIP3   OH214264   3.405   4.300   3.379 -0.1390  0.1616  0.1754
 4767TIP3    H114265   3.499   4.287   3.395  0.4000  1.6413 -1.4502
 4767TIP3    H214266   3.391   4.394   3.391 -1.2259  0.0988 -0.4528
 4768TIP3   OH214267   1.977   3.214   0.119 -0.0346  0.5360 -0.1876
 4768TIP3    H114268   2.034   3.206   0.195  0.0263  0.9216 -0.1907
 4768TIP3    H214269   2.025   3.271   0.059  0.1227 -0.1350 -0.7122
 4769TIP3   OH214270   2.914   1.934   0.492 -0.5433 -0.0328  0.1249
 4769TIP3    H114271   2.913   2.023   0.454  2.2549  0.2670  0.5155
 4769TIP3    H214272   2.990   1.934   0.550 -1.6309 -2.1331  1.6507
 4770TIP3   OH214273   1.170   0.481   0.453 -0.1995 -0.0973 -0.0306
 4770TIP3    H114274   1.246   0.450   0.503  0.8235 -0.0470 -1.4859
 4770TIP3    H214275   1.098   0.481   0.516  1.5022  2.2511  2.0693
 4771TIP3   OH214276   1.900   6.614   5.484  0.0578 -0.0970 -0.4652
 4771TIP3    H114277   1.813   6.614   5.524  0.3943  3.3943  0.6563
 4771TIP3    H214278   1.889   6.665   5.403  0.7123 -1.2794 -1.3189
 4772TIP3   OH214279   3.725   5.118   2.985 -0.6878 -0.1147 -0.0056
 4772TIP3    H114280   3.649   5.175   2.997  1.3605  2.3526  2.7689
 4772TIP3    H214281   3.717   5.050   3.052 -1.2187 -0.8257 -0.7792
 4773TIP3   OH214282   2.023   4.380   5.677 -0.0878 -0.1070 -0.4626
 4773TIP3    H114283   2.019   4.286   5.658  1.9764 -0.2733 -0.2867
 4773TIP3    H214284   2.079   4.386   5.755 -0.0535  1.2877 -0.5796
 4774TIP3   OH214285   2.274   5.128   4.607 -0.2780  0.4156 -0.2229
 4774TIP3    H114286   2.319   5.058   4.655 -1.6401 -0.0952  0.3678
 4774TIP3    H214287   2.193   5.142   4.656 -1.0018  0.9651 -1.5300
 4775TIP3   OH214288   1.044   4.231   5.909 -0.1670 -0.0591  0.4942
 4775TIP3    H114289   0.975   4.215   5.844  0.3561 -1.1003  0.1606
 4775TIP3    H214290   1.124   4.238   5.857  0.1058  0.2162  0.9469
 4776TIP3   OH214291   4.304   2.189   2.969 -1.0002 -0.4641 -0.1709
 4776TIP3    H114292   4.351   2.143   3.038  0.9400 -0.5576 -1.4659
 4776TIP3    H214293   4.297   2.279   3.000 -0.0901 -0.4917  0.1507
 4777TIP3   OH214294   2.772   6.155   2.876  0.0770  0.2488  1.2044
 4777TIP3    H114295   2.721   6.098   2.818  0.8376  0.9056 -0.1599
 4777TIP3    H214296   2.719   6.162   2.955 -0.6031 -1.3770  0.9473
 4778TIP3   OH214297   6.884   5.562   3.149  0.2288  0.7762 -0.0113
 4778TIP3    H114298   6.853   5.651   3.130 -0.1991  0.4066 -1.1056
 4778TIP3    H214299   6.975   5.562   3.118  1.8731  2.1420  4.0184
 4779TIP3   OH214300   1.079   3.378   1.551 -0.3029  0.1839 -0.2103
 4779TIP3    H114301   1.066   3.473   1.544 -0.3658  0.2385  0.5153
 4779TIP3    H214302   1.172   3.368   1.571 -0.1934  0.0630 -0.7751
 4780TIP3   OH214303   5.339   2.652   1.838  0.4575  0.3778 -0.5991
 4780TIP3    H114304   5.320   2.619   1.750 -4.5092  2.5167 -0.6995
 4780TIP3    H214305   5.356   2.745   1.825  1.8768  0.3057  0.5879
 4781TIP3   OH214306   3.169   1.028   5.714  0.4210  0.0681 -0.7244
 4781TIP3    H114307   3.193   1.090   5.645 -1.9065 -0.2816 -1.9335
 4781TIP3    H214308   3.157   0.945   5.669  0.4076 -0.5363  0.3664
 4782TIP3   OH214309   2.969   4.802   3.975  0.1677 -0.7752 -0.7365
 4782TIP3    H114310   2.930   4.719   3.949  0.2348 -0.2202 -2.8632
 4782TIP3    H214311   2.932   4.866   3.914  0.5199  0.6712  0.4980
 4783TIP3   OH214312   4.054   2.046   3.399  0.7503  0.0571 -0.3631
 4783TIP3    H114313   4.041   2.128   3.353  1.3165 -0.9922 -2.5324
 4783TIP3    H214314   4.041   2.067   3.491  1.8927  2.7548 -0.7535
 4784TIP3   OH214315   1.514   6.008   5.397  0.0583  0.5187  0.5890
 4784TIP3    H114316   1.595   6.018   5.347 -0.8097  1.4517 -0.6770
 4784TIP3    H214317   1.520   6.075   5.465  0.5272  0.3160  0.7527
 4785TIP3   OH214318   3.934   5.479   3.421 -0.3420  0.9677  0.3720
 4785TIP3    H114319   3.966   5.399   3.379  0.9214  1.7333 -0.1934
 4785TIP3    H214320   3.853   5.453   3.465 -0.5177 -0.3659 -0.6898
 4786TIP3   OH214321   0.950   2.053   0.220 -0.0592  0.1280  0.1474
 4786TIP3    H114322   0.860   2.085   0.222 -0.0145  0.3117 -0.4145
 4786TIP3    H214323   0.944   1.968   0.177  0.2171  0.8449 -1.3892
 4787TIP3   OH214324   2.120   6.096   4.555  0.0537 -0.3198  0.6214
 4787TIP3    H114325   2.183   6.168   4.565  0.3127 -0.1047 -1.9490
 4787TIP3    H214326   2.092   6.077   4.644  1.9197  1.2300  1.6212
 4788TIP3   OH214327   4.488   4.381   0.061  0.3399  0.1678 -0.2816
 4788TIP3    H114328   4.397   4.364   0.081  0.7044 -0.6443  0.7727
 4788TIP3    H214329   4.491   4.391  -0.034 -1.3617  3.5144 -0.1119
 4789TIP3   OH214330   1.622   0.960   3.601 -0.2850 -0.1258  0.1005
 4789TIP3    H114331   1.673   1.036   3.575 -1.1256  0.0176 -1.2408
 4789TIP3    H214332   1.685   0.888   3.608  0.5564  0.7020  1.6257
 4790TIP3   OH214333   3.851   5.040   3.670 -0.4601  0.0793  0.4792
 4790TIP3    H114334   3.844   5.132   3.647  1.5246  0.2607  0.3744
 4790TIP3    H214335   3.818   5.034   3.759  1.5213  1.3900  1.3793
 4791TIP3   OH214336   6.737   1.149   4.341 -0.3728 -0.7045  0.2949
 4791TIP3    H114337   6.701   1.079   4.396  0.2442 -1.2062  0.0783
 4791TIP3    H214338   6.665   1.176   4.285 -0.7833 -0.7521  0.7931
 4792TIP3   OH214339   5.281   5.407   2.664  0.2468  0.0511  0.2807
 4792TIP3    H114340   5.279   5.502   2.647  2.8209  0.3300  1.0632
 4792TIP3    H214341   5.364   5.393   2.710 -0.8270 -2.3768  1.6535
 4793TIP3   OH214342   3.943   2.466   0.923  0.0583  0.2985  0.2401
 4793TIP3    H114343   4.000   2.409   0.975 -0.5149 -1.1777 -0.7012
 4793TIP3    H214344   4.004   2.520   0.873  0.6531 -0.7540 -0.2125
 4794TIP3   OH214345   2.210   2.683   5.793 -0.1427 -0.0895  0.2064
 4794TIP3    H114346   2.209   2.610   5.855 -0.3914 -0.0510  0.2459
 4794TIP3    H214347   2.220   2.761   5.848  0.0081 -0.0830  0.1717
 4795TIP3   OH214348   2.005   3.813   5.068  0.6983  0.2977  0.0441
 4795TIP3    H114349   1.910   3.801   5.079  0.2467  2.7805 -0.4806
 4795TIP3    H214350   2.015   3.838   4.976  2.0994 -1.4757 -0.3431
 4796TIP3   OH214351   3.978   3.971   1.777 -0.3448  0.4502  0.7304
 4796TIP3    H114352   3.933   3.943   1.856 -1.1452  0.7887  0.4005
 4796TIP3    H214353   3.943   4.058   1.758 -0.5216  0.1777 -0.2578
 4797TIP3   OH214354   4.928   3.445   0.698 -0.5719 -0.0772 -0.0201
 4797TIP3    H114355   4.887   3.507   0.638  0.1567 -0.2644 -0.7219
 4797TIP3    H214356   5.013   3.428   0.660 -0.0769 -0.1736  1.0933
 4798TIP3   OH214357   4.598   0.682   1.893 -0.1189  0.0744 -0.1377
 4798TIP3    H114358   4.518   0.731   1.912 -0.4025 -0.3928 -0.1171
 4798TIP3    H214359   4.645   0.736   1.829 -0.1998  0.6025  0.2440
 4799TIP3   OH214360   0.658   1.718   4.020  0.9204 -0.1783 -0.2623
 4799TIP3    H114361   0.750   1.692   4.013  1.1057  0.6954 -1.3466
 4799TIP3    H214362   0.654   1.804   3.978 -0.8231 -1.2205 -2.4398
 4800TIP3   OH214363   4.488   0.121   4.687 -1.0436  0.5975 -0.3582
 4800TIP3    H114364   4.501   0.197   4.630 -0.9670  1.0651  0.2662
 4800TIP3    H214365   4.520   0.150   4.773 -0.0482 -0.4895 -0.3339
 4801TIP3   OH214366   1.568   0.771   4.023  0.4050 -0.3449 -0.0295
 4801TIP3    H114367   1.534   0.751   3.936  2.9124 -1.0816 -0.9090
 4801TIP3    H214368   1.525   0.708   4.081 -1.1557  0.0450 -0.7091
 4802TIP3   OH214369   0.411   4.699   2.861 -0.4203 -0.1850  0.3345
 4802TIP3    H114370   0.406   4.606   2.882  0.1990 -0.1704  0.5477
 4802TIP3    H214371   0.469   4.703   2.785  1.1572  0.1965  1.5126
 4803TIP3   OH214372   1.120   3.781   3.335 -0.1314  0.2203 -0.8716
 4803TIP3    H114373   1.032   3.817   3.341  0.3463  1.3565 -0.4054
 4803TIP3    H214374   1.113   3.711   3.269 -1.6517 -0.5975  0.0921
 4804TIP3   OH214375   0.216   2.851   4.227 -0.5675 -0.1702 -0.2598
 4804TIP3    H114376   0.210   2.931   4.175 -0.8419 -0.4460 -0.6562
 4804TIP3    H214377   0.297   2.860   4.277 -0.5277  0.2906 -0.4097
 4805TIP3   OH214378   5.865   6.109   3.167 -0.7422  0.5955 -0.3495
 4805TIP3    H114379   5.804   6.036   3.174 -0.5743  0.5587  0.9385
 4805TIP3    H214380   5.951   6.071   3.181 -0.3716  0.6403 -2.2106
 4806TIP3   OH214381   3.289   0.036   4.246 -0.0983  0.0905  0.6737
 4806TIP3    H114382   3.273   0.025   4.340  0.1232 -0.6596  0.6310
 4806TIP3    H214383   3.311  -0.052   4.215  0.2619  0.4130 -0.0008
 4807TIP3   OH214384   4.681   0.855   5.781 -0.1895 -0.1119 -0.2836
 4807TIP3    H114385   4.756   0.858   5.721 -0.2101  1.6275 -0.2688
 4807TIP3    H214386   4.658   0.947   5.795 -1.4489 -0.5698  0.8248
 4808TIP3   OH214387   5.577   3.736   3.979  0.2228 -0.3171  0.3939
 4808TIP3    H114388   5.516   3.802   3.947  0.0302 -0.5109  0.3589
 4808TIP3    H214389   5.650   3.786   4.016  0.7072 -0.0743 -0.8251
 4809TIP3   OH214390   4.418   6.154   1.436 -0.5577 -0.4717 -0.2749
 4809TIP3    H114391   4.392   6.077   1.386  0.1399 -0.7921 -0.1654
 4809TIP3    H214392   4.513   6.144   1.448 -0.4944  0.2871 -0.0590
 4810TIP3   OH214393   4.701   2.187   2.091 -0.1733 -0.5438 -0.1049
 4810TIP3    H114394   4.738   2.241   2.020  1.2511 -0.0898  0.9401
 4810TIP3    H214395   4.680   2.104   2.049  0.0533 -0.0695 -1.1982
 4811TIP3   OH214396   6.514   2.653   1.821  0.1877  1.0629 -0.2906
 4811TIP3    H114397   6.499   2.689   1.734 -0.5277  2.0025  0.2011
 4811TIP3    H214398   6.609   2.642   1.826  0.2431  1.0957 -1.1428
 4812TIP3   OH214399   0.608   0.240   0.887  0.1531 -0.4096  0.5190
 4812TIP3    H114400   0.516   0.220   0.871  0.1091 -0.5296  0.9189
 4812TIP3    H214401   0.612   0.262   0.980  0.3803  0.4386  0.3193
 4813TIP3   OH214402   2.894   2.448   4.462 -0.4515 -0.3202  0.5855
 4813TIP3    H114403   2.924   2.539   4.461 -1.3900 -0.0056 -0.5453
 4813TIP3    H214404   2.958   2.403   4.517  0.4002  0.8888  0.6329
 4814TIP3   OH214405   1.374   1.084   2.080 -0.4259 -0.5126  0.1601
 4814TIP3    H114406   1.410   1.159   2.033 -0.4112 -0.0541  0.8752
 4814TIP3    H214407   1.321   1.123   2.150 -1.2488 -1.1719 -0.0759
 4815TIP3   OH214408   4.338   3.325   5.878 -0.3151  0.3979  0.5500
 4815TIP3    H114409   4.280   3.349   5.806  0.2937 -0.2024 -0.1617
 4815TIP3    H214410   4.335   3.229   5.881 -0.2620  0.4073  1.2745
 4816TIP3   OH214411   3.536   4.325   1.908 -0.3744 -0.0534 -0.2915
 4816TIP3    H114412   3.502   4.376   1.982 -1.0991 -0.8488 -0.0657
 4816TIP3    H214413   3.464   4.325   1.844  0.7128  1.7721 -1.6132
 4817TIP3   OH214414   0.300   2.424   0.815  0.3686  0.1671  0.1448
 4817TIP3    H114415   0.213   2.394   0.840  0.5055 -0.5781 -0.2486
 4817TIP3    H214416   0.339   2.456   0.897  0.2592 -0.8467  0.5992
 4818TIP3   OH214417   3.938   3.056   5.486 -0.5134 -0.3458 -0.8325
 4818TIP3    H114418   3.920   2.989   5.420 -1.1501 -0.2640 -0.7541
 4818TIP3    H214419   3.885   3.131   5.458 -0.7188 -0.2822 -0.2849
 4819TIP3   OH214420   3.883   2.273   0.656  0.1032  0.2761 -0.1061
 4819TIP3    H114421   3.825   2.347   0.639  0.3319  0.5843  0.4246
 4819TIP3    H214422   3.911   2.244   0.569  0.6822  1.3511 -0.2963
 4820TIP3   OH214423   5.592   4.055   0.180  0.2884  0.6868  0.5434
 4820TIP3    H114424   5.608   4.011   0.263  0.9439  1.3794  0.7918
 4820TIP3    H214425   5.664   4.025   0.123  0.1984  0.7061  0.4183
 4821TIP3   OH214426  -0.001   1.997   5.671 -0.3620 -0.4446 -0.1279
 4821TIP3    H114427   0.031   2.087   5.674  0.4018 -0.7008 -0.3181
 4821TIP3    H214428   0.028   1.958   5.754 -0.1289 -0.7003 -0.3286
 4822TIP3   OH214429   4.946   6.203   0.436 -0.2173  0.4488  0.1341
 4822TIP3    H114430   4.926   6.121   0.481  1.4579 -0.0079  0.1122
 4822TIP3    H214431   4.866   6.255   0.443 -1.7381 -1.6220 -0.8845
 4823TIP3   OH214432   0.730   5.287  -0.015 -0.3858  0.5840  0.0679
 4823TIP3    H114433   0.714   5.193  -0.001 -1.0260  0.7790  0.7191
 4823TIP3    H214434   0.770   5.316   0.067 -0.9290  1.0350  0.1824
 4824TIP3   OH214435   1.317   3.877   4.607  0.2195 -0.2705  0.0192
 4824TIP3    H114436   1.376   3.915   4.543  0.4152  1.7618  1.3121
 4824TIP3    H214437   1.230   3.885   4.569  0.3988  0.2736 -0.2738
 4825TIP3   OH214438   5.281   3.796   3.635 -0.4913  0.1878 -0.0645
 4825TIP3    H114439   5.345   3.790   3.706 -0.6094  0.2495  0.0459
 4825TIP3    H214440   5.317   3.861   3.576 -0.5965  0.4364  0.1448
 4826TIP3   OH214441   4.025   4.249   4.431  0.1508  0.6597 -0.0487
 4826TIP3    H114442   3.972   4.308   4.377 -0.5082 -0.7036 -0.9433
 4826TIP3    H214443   3.987   4.163   4.417 -0.0458  0.2218  2.6237
 4827TIP3   OH214444   0.894   5.921   3.101  0.1273 -0.4241  0.1102
 4827TIP3    H114445   0.909   5.885   3.188  0.3540 -1.5146 -0.3623
 4827TIP3    H214446   0.844   5.854   3.055 -2.5597  1.2909  0.2633
 4828TIP3   OH214447   5.142   5.115   1.126 -0.1802 -0.1348  0.0373
 4828TIP3    H114448   5.218   5.100   1.182  0.1009  0.7194 -0.1002
 4828TIP3    H214449   5.174   5.102   1.037 -0.3323 -0.3134  0.0079
 4829TIP3   OH214450   2.291   5.599   2.521 -0.4114 -0.1417 -0.0414
 4829TIP3    H114451   2.279   5.519   2.573 -0.4662  0.1443  0.3873
 4829TIP3    H214452   2.385   5.616   2.523 -0.5076  0.3319  0.6615
 4830TIP3   OH214453   3.916   0.731   3.017 -0.3400  0.0838 -0.3586
 4830TIP3    H114454   3.920   0.760   3.108  0.0558  0.1777 -0.4057
 4830TIP3    H214455   3.996   0.765   2.978 -0.5045  0.0331 -0.7397
 4831TIP3   OH214456   4.593   2.037   3.616 -0.0331 -0.1180  0.4278
 4831TIP3    H114457   4.593   2.055   3.521  0.1472  1.6330  0.7242
 4831TIP3    H214458   4.501   2.045   3.641 -0.0701 -0.5035  0.4152
 4832TIP3   OH214459   0.827   3.652   1.602 -0.4494  0.0127  0.0476
 4832TIP3    H114460   0.831   3.627   1.694  0.6382 -0.9685 -0.2440
 4832TIP3    H214461   0.760   3.720   1.598  1.2322  1.9047  1.9765
 4833TIP3   OH214462   3.004   6.164   4.111 -0.3019 -0.4215 -0.3509
 4833TIP3    H114463   3.038   6.104   4.044  3.5151 -0.6867  1.5444
 4833TIP3    H214464   2.951   6.109   4.168 -1.8880 -0.5977 -1.8775
 4834TIP3   OH214465   5.210   0.777   0.783 -0.1962 -0.1469  0.1872
 4834TIP3    H114466   5.305   0.779   0.790 -0.2573 -0.3793  1.2968
 4834TIP3    H214467   5.193   0.762   0.690  0.8412  0.0132 -0.0459
 4835TIP3   OH214468   6.916   0.224   1.727  0.0862 -0.5294  0.2077
 4835TIP3    H114469   6.910   0.169   1.805  0.8209  0.9114  1.3339
 4835TIP3    H214470   6.993   0.192   1.680  0.3969 -0.5892  0.7484
 4836TIP3   OH214471   5.738   5.623   1.944 -1.2361 -0.0271  0.1026
 4836TIP3    H114472   5.770   5.534   1.948 -3.3518 -0.9754 -1.6833
 4836TIP3    H214473   5.789   5.665   1.875 -1.2198 -0.3203 -0.0628
 4837TIP3   OH214474   4.971   5.953   0.515  0.0641  0.2883  0.3122
 4837TIP3    H114475   5.062   5.937   0.490  0.2081 -0.2279  1.1192
 4837TIP3    H214476   4.920   5.897   0.457  0.1695  1.4303 -0.9193
 4838TIP3   OH214477   0.747   4.562   3.569 -0.4547  0.2234  0.6141
 4838TIP3    H114478   0.663   4.553   3.614 -0.9094 -0.7164 -0.3961
 4838TIP3    H214479   0.750   4.489   3.508  0.7862  0.6612  0.1187
 4839TIP3   OH214480   5.094   5.633   4.610 -0.0958 -0.2118 -0.4245
 4839TIP3    H114481   5.138   5.560   4.567 -0.1663 -1.3992  1.3840
 4839TIP3    H214482   5.090   5.607   4.702  1.2799  2.7491  0.6171
 4840TIP3   OH214483   3.966   3.621   5.615 -0.0661  0.0222  0.4653
 4840TIP3    H114484   4.007   3.668   5.543 -1.3596  0.5721  0.0609
 4840TIP3    H214485   3.900   3.565   5.574 -1.2634  0.8177  1.2493
 4841TIP3   OH214486   0.040   5.994   4.665 -0.2783 -0.5838 -0.2242
 4841TIP3    H114487   0.061   6.038   4.583 -2.0229  1.2006  0.2046
 4841TIP3    H214488   0.072   6.053   4.733  0.0984 -1.4830  0.4059
 4842TIP3   OH214489   5.964   0.262   2.115  0.7157 -0.1719  0.3945
 4842TIP3    H114490   5.970   0.201   2.188  0.7109  0.3771  0.8559
 4842TIP3    H214491   6.027   0.229   2.051  1.7051  0.1088  1.2094
 4843TIP3   OH214492   3.044   0.689   1.149 -0.2254  0.2322  0.4192
 4843TIP3    H114493   3.059   0.747   1.075 -0.8870  0.8828  0.7774
 4843TIP3    H214494   2.954   0.709   1.177 -1.0439 -1.9854 -0.3582
 4844TIP3   OH214495   7.217   4.230   3.731  0.1024  0.2036  0.2151
 4844TIP3    H114496   7.132   4.188   3.717  0.3697 -0.2302 -0.1314
 4844TIP3    H214497   7.196   4.313   3.773 -0.4427 -0.2093  0.7829
 4845TIP3   OH214498   3.909   5.654   4.916  0.0369  0.0042  0.1476
 4845TIP3    H114499   3.934   5.692   5.000 -1.0543 -0.1959  0.5885
 4845TIP3    H214500   3.860   5.574   4.940  1.9401 -1.5002 -0.7405
 4846TIP3   OH214501   6.962   6.195   2.866  0.2185  0.4031 -0.3208
 4846TIP3    H114502   6.954   6.204   2.961  1.9065  1.5008 -0.2522
 4846TIP3    H214503   6.878   6.223   2.832 -0.9803 -1.4865  0.8979
 4847TIP3   OH214504   5.822   6.405   3.977  0.2429  0.4852  0.6110
 4847TIP3    H114505   5.752   6.403   4.042 -0.1276  1.8179  0.2932
 4847TIP3    H214506   5.902   6.389   4.027 -0.0846  1.0218  1.3277
 4848TIP3   OH214507   5.238   6.289   3.346  0.3826 -0.3323  0.5691
 4848TIP3    H114508   5.227   6.248   3.431 -1.0687 -0.3544  0.4049
 4848TIP3    H214509   5.154   6.274   3.301  1.1206 -0.3696 -0.8771
 4849TIP3   OH214510   6.947   0.784   5.096  0.2308 -0.1658  0.2860
 4849TIP3    H114511   6.876   0.749   5.150  0.5266 -1.8699 -0.3360
 4849TIP3    H214512   6.980   0.707   5.048  1.4758  0.8660 -0.5875
 4850TIP3   OH214513   5.263   5.860   1.195  0.5670 -0.0854 -0.1791
 4850TIP3    H114514   5.334   5.811   1.237  0.4261  0.5118  0.7787
 4850TIP3    H214515   5.211   5.894   1.268  2.2607  3.9175 -0.5853
 4851TIP3   OH214516   5.561   4.122   4.851 -0.2138  0.0915 -0.0914
 4851TIP3    H114517   5.555   4.193   4.916 -2.6153 -0.8938  0.8699
 4851TIP3    H214518   5.497   4.146   4.784 -1.6529 -1.4946  0.6527
 4852TIP3   OH214519   4.135   5.057   2.245 -0.3131 -0.3947  0.3270
 4852TIP3    H114520   4.195   5.000   2.294  0.0235  0.2148  0.6419
 4852TIP3    H214521   4.126   5.135   2.300 -1.2696 -0.4030  0.1999
 4853TIP3   OH214522   7.076   2.516   3.636  0.0847 -0.4394 -0.0316
 4853TIP3    H114523   6.990   2.534   3.674 -0.4014  2.0762 -2.0629
 4853TIP3    H214524   7.090   2.422   3.651 -3.0084 -0.9363  0.3315
 4854TIP3   OH214525   3.451   5.944   5.454 -0.0473  0.0043  0.1597
 4854TIP3    H114526   3.384   5.878   5.433 -0.4140  0.5116 -0.2962
 4854TIP3    H214527   3.525   5.893   5.486 -1.1764 -0.4963  2.1283
 4855TIP3   OH214528   1.695   1.971   1.612 -0.4505 -0.4459 -0.1816
 4855TIP3    H114529   1.702   2.040   1.546  0.1229  0.6293  0.9816
 4855TIP3    H214530   1.629   2.003   1.673  0.7035 -0.3581  1.0362
 4856TIP3   OH214531   0.655   4.268   1.918  0.0048  0.9704  0.4048
 4856TIP3    H114532   0.601   4.346   1.931  0.9197  1.5389  0.8906
 4856TIP3    H214533   0.708   4.262   1.997  0.0431 -0.0724  0.3110
 4857TIP3   OH214534   6.164   5.669   3.071  0.9387  0.1793  0.2124
 4857TIP3    H114535   6.181   5.579   3.041  2.4070  0.5211 -0.0347
 4857TIP3    H214536   6.250   5.703   3.096  0.3168  1.3224  0.8851
 4858TIP3   OH214537   2.571   1.409   1.304  0.2198 -0.6434  0.1676
 4858TIP3    H114538   2.557   1.362   1.222 -0.0203 -0.0567 -0.1381
 4858TIP3    H214539   2.507   1.372   1.364  0.0918 -0.7698 -0.0445
 4859TIP3   OH214540   4.082   1.869   5.467  0.4973  0.0594 -0.1614
 4859TIP3    H114541   4.083   1.866   5.372  0.2125 -1.4357 -0.1409
 4859TIP3    H214542   4.139   1.797   5.494  1.6101  1.2671  0.8097
 4860TIP3   OH214543   1.015   0.161   0.067  0.6123  0.9713  0.1479
 4860TIP3    H114544   1.062   0.179   0.148  1.1633  2.4367 -0.4723
 4860TIP3    H214545   1.082   0.125   0.009  1.4209  4.3122 -1.1939
 4861TIP3   OH214546   6.328   0.966   1.725 -1.0866  0.1872  0.8305
 4861TIP3    H114547   6.405   0.914   1.748 -0.5430 -0.0619 -1.3378
 4861TIP3    H214548   6.319   1.028   1.797  0.9554  0.0071  1.3161
 4862TIP3   OH214549   3.610   1.440   3.430 -0.5717  0.6124  0.3811
 4862TIP3    H114550   3.568   1.526   3.431 -0.9036  0.4613 -0.1830
 4862TIP3    H214551   3.695   1.455   3.389 -0.1285  0.8861  1.3636
 4863TIP3   OH214552   5.683   2.097   0.579 -0.2901  0.6737 -0.3012
 4863TIP3    H114553   5.731   2.085   0.497  1.1333  0.7723  0.4846
 4863TIP3    H214554   5.720   2.177   0.617 -0.3551  0.1808  0.8348
 4864TIP3   OH214555   5.201   4.558   0.769 -0.1814 -0.1638  0.0395
 4864TIP3    H114556   5.143   4.487   0.799 -0.8492  1.1804  2.1699
 4864TIP3    H214557   5.280   4.513   0.739 -0.9151 -1.8569  0.5244
 4865TIP3   OH214558   0.607   3.596   4.161  0.3257 -0.5310  1.2492
 4865TIP3    H114559   0.584   3.519   4.108 -0.3320  0.4180  0.0905
 4865TIP3    H214560   0.526   3.646   4.166  1.3975  1.6208 -0.7221
 4866TIP3   OH214561   4.556   3.611   5.858  0.2016  0.2859 -0.3003
 4866TIP3    H114562   4.589   3.595   5.946 -0.9118  0.7835  0.2286
 4866TIP3    H214563   4.564   3.526   5.813  0.5073 -0.0450  0.3711
 4867TIP3   OH214564   4.496   5.591   4.503  0.6705  0.1148 -0.0101
 4867TIP3    H114565   4.487   5.552   4.416  0.0094  0.4452 -0.0993
 4867TIP3    H214566   4.474   5.684   4.491  0.2183  0.0918  0.5696
 4868TIP3   OH214567   2.738   6.325   5.464  0.4695  0.2774 -0.0667
 4868TIP3    H114568   2.678   6.251   5.453  0.3853  0.3878 -0.3541
 4868TIP3    H214569   2.785   6.331   5.381  2.2915 -1.0362  0.8142
 4869TIP3   OH214570   2.234   4.961   1.545  0.0479 -0.0462 -0.3130
 4869TIP3    H114571   2.269   4.982   1.631 -1.3325  1.1620 -0.0244
 4869TIP3    H214572   2.156   4.908   1.563  1.3678 -2.3576 -0.9390
 4870TIP3   OH214573   6.160   2.876   1.907  0.2720  0.2818  0.3547
 4870TIP3    H114574   6.176   2.948   1.847 -0.7274  0.3864  0.1891
 4870TIP3    H214575   6.246   2.852   1.941  1.1210 -0.8644 -2.3407
 4871TIP3   OH214576   3.836   1.703   5.043 -0.0904  0.0301  0.4656
 4871TIP3    H114577   3.806   1.639   4.979  1.6361  1.6697 -2.2279
 4871TIP3    H214578   3.757   1.729   5.091 -1.2994 -1.9810 -0.3302
 4872TIP3   OH214579   6.461   2.222   1.215 -0.1145  0.1317  0.3827
 4872TIP3    H114580   6.553   2.244   1.200  0.2410 -1.7808 -0.5864
 4872TIP3    H214581   6.417   2.245   1.132 -0.2296 -0.2579  0.3316
 4873TIP3   OH214582   1.766   4.186   2.239 -0.2180  0.8378  0.2820
 4873TIP3    H114583   1.683   4.142   2.260  0.3745 -0.8066 -0.5840
 4873TIP3    H214584   1.795   4.223   2.322 -0.4603 -1.0099  1.2606
 4874TIP3   OH214585   2.984   5.535   1.898  1.2674  0.1643 -0.3776
 4874TIP3    H114586   2.964   5.612   1.844 -0.2341  0.3994  0.4385
 4874TIP3    H214587   2.992   5.570   1.987 -3.3237 -0.9162  0.7200
 4875TIP3   OH214588   6.799   5.194   4.642 -0.1493 -0.1655  0.0136
 4875TIP3    H114589   6.865   5.125   4.638 -0.1320 -0.1007 -1.1076
 4875TIP3    H214590   6.725   5.160   4.591  0.2999  1.0825 -1.5417
 4876TIP3   OH214591   3.079   4.381   5.416  0.0947  0.8693 -0.4500
 4876TIP3    H114592   3.141   4.326   5.464 -1.0815 -0.6557 -0.6189
 4876TIP3    H214593   3.073   4.341   5.330  0.3302  2.1577 -1.0851
 4877TIP3   OH214594   5.180   0.658   4.631  0.5727 -0.8224 -0.1925
 4877TIP3    H114595   5.260   0.673   4.580 -0.7709  0.6177 -2.0297
 4877TIP3    H214596   5.124   0.606   4.574 -1.1671  1.2308 -0.4694
 4878TIP3   OH214597   2.791   0.179   3.396 -0.4490 -0.5036 -0.7785
 4878TIP3    H114598   2.771   0.224   3.478  1.0945  0.1440 -0.7164
 4878TIP3    H214599   2.885   0.159   3.402 -0.7005 -2.1057 -1.6092
 4879TIP3   OH214600   5.724   1.996   0.298  0.0572 -0.1611  0.1195
 4879TIP3    H114601   5.754   1.921   0.247  1.3521 -0.8894  1.8310
 4879TIP3    H214602   5.629   1.991   0.294  0.1307 -1.0694 -0.9778
 4880TIP3   OH214603   6.949   1.314   3.404  0.2730 -0.2848  0.5745
 4880TIP3    H114604   6.924   1.359   3.485  1.0805 -0.9280  1.1959
 4880TIP3    H214605   6.950   1.221   3.427 -0.7923 -0.5972 -0.5403
 4881TIP3   OH214606   3.128   0.003   0.011 -0.1662 -0.1532 -0.5366
 4881TIP3    H114607   3.165   0.043   0.089  0.9025  0.4411 -1.3133
 4881TIP3    H214608   3.035   0.025   0.014 -0.8946 -2.8100  2.1577
 4882TIP3   OH214609   5.486   5.729   3.942  0.8995 -0.2828  0.3267
 4882TIP3    H114610   5.393   5.721   3.961  0.9160  0.2581  0.6448
 4882TIP3    H214611   5.511   5.642   3.910 -0.0077 -0.0464 -1.1011
 4883TIP3   OH214612   4.901   6.273   4.643  0.4579  0.0640  0.5446
 4883TIP3    H114613   4.850   6.195   4.624 -0.8134  1.0783 -0.3559
 4883TIP3    H214614   4.911   6.317   4.558  0.4717  1.2797  1.1496
 4884TIP3   OH214615   6.755   5.929   1.572 -0.2330 -0.4277  0.0932
 4884TIP3    H114616   6.673   5.883   1.589  0.3362 -1.7672 -0.6190
 4884TIP3    H214617   6.808   5.866   1.523  1.2328  0.4037  0.5501
 4885TIP3   OH214618   2.880   1.767   5.527  0.7669 -0.2433  0.0856
 4885TIP3    H114619   2.838   1.704   5.585 -0.8161 -1.0561 -1.8106
 4885TIP3    H214620   2.812   1.789   5.463  2.3629  0.7394 -1.3569
 4886TIP3   OH214621   3.395   5.510   5.771  0.0665  0.4195 -0.0054
 4886TIP3    H114622   3.485   5.492   5.744 -0.4154 -2.4465  0.0262
 4886TIP3    H214623   3.405   5.565   5.849  1.7253  1.0189 -0.5814
 4887TIP3   OH214624   6.172   1.446   1.980  0.4049  0.2066  0.3248
 4887TIP3    H114625   6.251   1.443   1.926  0.8471 -3.4951  0.9214
 4887TIP3    H214626   6.163   1.538   2.004  4.2689  0.8871 -0.1617
 4888TIP3   OH214627   1.440   0.820   4.335 -0.0323 -0.0735 -0.5929
 4888TIP3    H114628   1.502   0.889   4.311  0.5609 -0.5315 -0.3959
 4888TIP3    H214629   1.388   0.857   4.406 -0.4954  0.5854 -1.2615
 4889TIP3   OH214630   5.842   0.672   3.863  0.2481  0.3233 -0.2823
 4889TIP3    H114631   5.820   0.596   3.809 -0.2924  1.4345 -1.6923
 4889TIP3    H214632   5.807   0.747   3.815  0.2755  1.4395  1.3330
 4890TIP3   OH214633   5.874   4.636   0.269  0.3861  0.6714 -1.0307
 4890TIP3    H114634   5.923   4.569   0.317 -0.2509  1.4960  0.8896
 4890TIP3    H214635   5.892   4.717   0.317 -2.8941  0.9960 -0.1096
 4891TIP3   OH214636   6.900   5.107   2.202 -0.0532 -0.0449  0.1708
 4891TIP3    H114637   6.817   5.141   2.167  1.1193  1.8346 -0.9768
 4891TIP3    H214638   6.880   5.084   2.292 -1.7452  0.7415  0.0437
 4892TIP3   OH214639   4.671   1.102   1.678 -0.1199 -0.4636 -0.3347
 4892TIP3    H114640   4.583   1.105   1.715  0.1039  0.1920  0.1588
 4892TIP3    H214641   4.685   1.009   1.659 -1.0598 -0.5301 -0.7905
 4893TIP3   OH214642   0.535   2.313   4.447  0.1331 -0.2215  0.7268
 4893TIP3    H114643   0.531   2.337   4.539  3.5638 -0.4129  1.0603
 4893TIP3    H214644   0.584   2.231   4.445 -0.8381 -0.8298 -1.2300
 4894TIP3   OH214645   0.554   5.643   1.673 -0.0411 -0.3478 -0.0445
 4894TIP3    H114646   0.502   5.598   1.739  0.0018  0.5068  0.5918
 4894TIP3    H214647   0.505   5.632   1.592  0.0757 -1.6901  0.0514
 4895TIP3   OH214648   6.352   1.553   5.713  0.5799 -0.1321 -0.1255
 4895TIP3    H114649   6.344   1.461   5.691 -1.2351 -0.0687  0.1072
 4895TIP3    H214650   6.337   1.557   5.808  0.4134  0.4317 -0.1693
 4896TIP3   OH214651   3.234   1.022   1.709  0.0136 -0.0934 -0.3388
 4896TIP3    H114652   3.218   0.932   1.683 -0.8206 -0.4502  1.2881
 4896TIP3    H214653   3.153   1.068   1.686 -0.3305 -0.1953  0.6265
 4897TIP3   OH214654   6.845   3.614   3.440 -0.2325 -0.1445 -0.1112
 4897TIP3    H114655   6.898   3.553   3.490 -0.2122  0.5042  0.6889
 4897TIP3    H214656   6.909   3.668   3.392 -0.2750 -1.4763 -1.7506
 4898TIP3   OH214657   1.721   1.315   5.351 -0.0036  0.1280 -0.3096
 4898TIP3    H114658   1.793   1.297   5.291 -0.6574  1.8667 -1.7035
 4898TIP3    H214659   1.747   1.397   5.394 -0.5872  0.0910  0.1158
 4899TIP3   OH214660   0.255   5.165   4.733 -0.1723  0.0527  0.1132
 4899TIP3    H114661   0.317   5.128   4.796 -0.7206  0.7038  1.0679
 4899TIP3    H214662   0.298   5.244   4.701 -0.4986  0.5118  0.7853
 4900TIP3   OH214663   0.332   1.070   5.806  0.1561 -0.0394  0.4918
 4900TIP3    H114664   0.370   1.150   5.843 -1.2260  1.3791 -0.9561
 4900TIP3    H214665   0.255   1.101   5.757 -1.8783 -2.5141  1.8724
 4901TIP3   OH214666   2.910   3.707   5.323 -0.0110 -0.3557  0.0299
 4901TIP3    H114667   2.965   3.755   5.261 -0.4367  1.2585  0.8474
 4901TIP3    H214668   2.824   3.703   5.280  0.2810 -1.3888 -0.5055
 4902TIP3   OH214669   3.962   2.066   2.199  0.0646  0.4044  0.7723
 4902TIP3    H114670   3.925   2.153   2.185 -0.2587  0.3748  1.4138
 4902TIP3    H214671   3.899   2.006   2.160 -1.2858  0.2600  2.9936
 4903TIP3   OH214672   2.505   3.378   2.670 -0.0094 -0.1152 -0.4015
 4903TIP3    H114673   2.590   3.336   2.681 -0.0349 -0.1359 -0.2881
 4903TIP3    H214674   2.451   3.312   2.627  0.1636  0.0525 -0.8928
 4904TIP3   OH214675   3.672   5.313   2.232 -0.4376  0.0534 -0.0183
 4904TIP3    H114676   3.705   5.237   2.184 -0.4586 -0.2616  0.4614
 4904TIP3    H214677   3.745   5.375   2.232 -0.3345 -0.0687 -0.1937
 4905TIP3   OH214678   2.208   0.467   0.764  0.0305 -0.3162 -0.6274
 4905TIP3    H114679   2.247   0.379   0.761  1.2124  0.1597 -0.0933
 4905TIP3    H214680   2.278   0.523   0.798 -0.4743  0.9545 -1.5749
 4906TIP3   OH214681   3.826   5.686   1.959 -0.4823  0.1278 -0.5497
 4906TIP3    H114682   3.844   5.608   1.907  2.2850  0.0963  0.2866
 4906TIP3    H214683   3.849   5.759   1.901 -2.1773  0.3592 -1.0034
 4907TIP3   OH214684   6.450   6.446   5.726  0.1799 -0.3229  0.0746
 4907TIP3    H114685   6.442   6.533   5.687 -1.1533  0.6110  2.2509
 4907TIP3    H214686   6.368   6.402   5.705  0.9718 -1.2151 -1.2800
 4908TIP3   OH214687   1.708   3.843   4.211  0.1984  0.2833  0.0437
 4908TIP3    H114688   1.688   3.895   4.289 -1.2872  0.2645 -0.3051
 4908TIP3    H214689   1.667   3.891   4.139  0.0254 -0.6248 -0.4732
 4909TIP3   OH214690   6.513   2.250   4.624  0.3526  0.4114 -0.0509
 4909TIP3    H114691   6.481   2.329   4.579 -0.3804 -1.1686 -2.4838
 4909TIP3    H214692   6.597   2.232   4.583 -1.0422 -1.9599 -2.1888
 4910TIP3   OH214693   6.148   5.334   1.993 -0.0580 -0.1062  0.0262
 4910TIP3    H114694   6.136   5.428   1.977 -2.9705 -0.3483  0.3638
 4910TIP3    H214695   6.236   5.328   2.030  0.5604  2.3774 -0.8357
 4911TIP3   OH214696   6.621   0.312   0.765 -0.5146  0.2364  0.1920
 4911TIP3    H114697   6.596   0.265   0.686  0.4377  0.2557 -0.1274
 4911TIP3    H214698   6.650   0.243   0.825 -0.7325  0.2717  0.3407
 4912TIP3   OH214699   2.667   1.563   5.617 -0.5291 -0.0911 -0.7482
 4912TIP3    H114700   2.733   1.504   5.580  0.3404  0.6295 -0.3950
 4912TIP3    H214701   2.633   1.517   5.693  1.6830  0.6896  0.8131
 4913TIP3   OH214702   2.600   4.344   4.436  0.0483 -0.4067  0.3901
 4913TIP3    H114703   2.543   4.339   4.513  1.4575  1.4212  1.6314
 4913TIP3    H214704   2.555   4.404   4.377 -0.0167 -0.1167  0.7303
 4914TIP3   OH214705   2.110   0.481   3.227  0.0390 -0.4103  0.1670
 4914TIP3    H114706   2.164   0.512   3.154 -1.3706  1.0284 -0.3045
 4914TIP3    H214707   2.023   0.468   3.189 -0.3095 -1.3070  1.2333
 4915TIP3   OH214708   2.020   0.825   3.702  0.1345 -0.2131  0.0040
 4915TIP3    H114709   1.994   0.869   3.621  0.9686 -0.2181 -0.2708
 4915TIP3    H214710   2.060   0.743   3.674  0.6778 -0.0916  0.3994
 4916TIP3   OH214711   3.601   5.939   4.856  0.2591  0.3529  0.9186
 4916TIP3    H114712   3.564   5.851   4.854 -1.3541  0.9852 -2.2095
 4916TIP3    H214713   3.544   5.988   4.916 -0.6776 -0.0085  0.3312
 4917TIP3   OH214714   5.431   5.602   1.710  0.2863  0.1963  0.0994
 4917TIP3    H114715   5.474   5.569   1.631  0.0170 -0.6052  0.2738
 4917TIP3    H214716   5.339   5.582   1.697  0.4115 -1.3866  1.2689
 4918TIP3   OH214717   3.968   1.638   0.679  0.2510 -0.5501 -0.0025
 4918TIP3    H114718   3.889   1.590   0.654 -0.4978  1.6208 -2.2119
 4918TIP3    H214719   3.945   1.683   0.760  0.1846 -2.0008  0.8174
 4919TIP3   OH214720   4.904   1.292   1.674 -0.5385  0.8290 -0.5512
 4919TIP3    H114721   4.964   1.264   1.743  2.4359  1.1613 -2.8178
 4919TIP3    H214722   4.836   1.225   1.673  0.2056 -0.0682  1.5619
 4920TIP3   OH214723   4.817   4.802   0.189 -0.3828 -0.1939  0.0448
 4920TIP3    H114724   4.723   4.811   0.203 -0.4524  0.2616 -0.6522
 4920TIP3    H214725   4.841   4.724   0.239 -0.9446  0.2606  1.0503
 4921TIP3   OH214726   4.596   6.107   2.027  0.0555  0.2973 -0.3812
 4921TIP3    H114727   4.501   6.112   2.016 -0.0209 -0.2451  0.0282
 4921TIP3    H214728   4.629   6.183   1.979 -0.4622 -0.4532 -2.0025
 4922TIP3   OH214729   5.057   1.680   0.914 -0.1082 -0.3493 -0.3622
 4922TIP3    H114730   5.022   1.612   0.972 -0.2173 -1.2418 -1.4352
 4922TIP3    H214731   5.020   1.761   0.948 -3.3563 -1.2112 -1.4397
 4923TIP3   OH214732   6.273   5.954   5.314 -0.1557  1.1779  0.4027
 4923TIP3    H114733   6.345   5.902   5.278 -0.0023  1.4542  0.3133
 4923TIP3    H214734   6.287   5.953   5.409 -0.9063 -0.0767  0.5353
 4924TIP3   OH214735   4.775   5.204   3.980 -0.0091  0.0555 -0.4719
 4924TIP3    H114736   4.770   5.243   4.067 -0.9594  2.1857 -1.4050
 4924TIP3    H214737   4.696   5.152   3.972 -0.8907  1.3843 -0.7042
 4925TIP3   OH214738   3.247   5.179   0.084  0.0331 -0.4253  0.1148
 4925TIP3    H114739   3.198   5.257   0.107  0.9948  0.0766  0.4893
 4925TIP3    H214740   3.187   5.106   0.104 -0.3032  0.1361  1.2222
 4926TIP3   OH214741   5.636   0.656   3.295 -0.3915 -0.4148 -0.1420
 4926TIP3    H114742   5.639   0.570   3.251  0.1892  0.7334 -2.5360
 4926TIP3    H214743   5.562   0.700   3.254  1.1139  1.2837 -1.1765
 4927TIP3   OH214744   4.041   1.530   4.367 -0.6119 -0.2950 -0.3465
 4927TIP3    H114745   4.093   1.452   4.345  0.9349  0.5027  0.3654
 4927TIP3    H214746   4.064   1.594   4.300  2.1186  1.2586  1.8909
 4928TIP3   OH214747   0.582   0.468   5.468  0.0495  0.1333  0.0493
 4928TIP3    H114748   0.650   0.435   5.526  0.1654  1.2799  0.6034
 4928TIP3    H214749   0.501   0.464   5.519  0.1336  1.0472  0.2721
 4929TIP3   OH214750   0.600   2.830   4.980 -0.6555 -0.6201 -0.0423
 4929TIP3    H114751   0.649   2.816   4.900  2.0848 -0.0146  1.4130
 4929TIP3    H214752   0.610   2.924   4.998 -1.4039 -0.7037  0.9181
 4930TIP3   OH214753   1.280   5.390   1.264  0.3090 -0.0920  0.0485
 4930TIP3    H114754   1.256   5.299   1.282 -0.1927 -0.1725 -0.9606
 4930TIP3    H214755   1.201   5.429   1.227  0.0987  1.1449  1.6928
 4931TIP3   OH214756   1.063   3.431   5.229  0.1380 -0.3203  0.2676
 4931TIP3    H114757   1.136   3.398   5.281  0.7915  1.7905  0.7790
 4931TIP3    H214758   1.016   3.491   5.287 -1.0797 -0.4475 -0.5429
 4932TIP3   OH214759   0.492   0.065   5.683 -0.1245 -0.4458  0.5070
 4932TIP3    H114760   0.400   0.085   5.694 -0.2825 -0.0764 -1.1732
 4932TIP3    H214761   0.493  -0.004   5.616  0.8712  0.5157 -0.4926
 4933TIP3   OH214762   3.802   5.147   4.852 -0.6682  0.0687  0.0517
 4933TIP3    H114763   3.871   5.088   4.821  0.2543  0.6974  0.8375
 4933TIP3    H214764   3.792   5.125   4.944 -0.7464  0.7231  0.2018
 4934TIP3   OH214765   7.040   2.063   2.560 -0.1338 -0.5314  0.3009
 4934TIP3    H114766   7.023   1.986   2.505 -1.2078 -1.2251  1.5683
 4934TIP3    H214767   7.101   2.032   2.626  0.0140 -0.0818  0.3777
 4935TIP3   OH214768   1.895   5.229   5.406 -0.4636  0.4732 -0.8128
 4935TIP3    H114769   1.886   5.229   5.311 -1.6405  1.4287 -0.7142
 4935TIP3    H214770   1.855   5.311   5.435  0.4511  0.5053  0.4661
 4936TIP3   OH214771   2.978   6.745   5.007  0.2816 -0.6483  1.0282
 4936TIP3    H114772   3.031   6.747   4.927 -0.6694 -0.2399  0.3838
 4936TIP3    H214773   2.890   6.721   4.977  0.1930 -1.7837  2.1365
 4937TIP3   OH214774   6.057   2.326   0.470  0.4529  1.1542 -0.4037
 4937TIP3    H114775   6.061   2.253   0.531  2.0382  0.3423 -1.4170
 4937TIP3    H214776   6.104   2.397   0.515  0.8829  0.8233 -0.3228
 4938TIP3   OH214777   5.843   0.931   1.105  0.3914  0.2711 -0.6317
 4938TIP3    H114778   5.918   0.989   1.089  0.8232 -0.2386 -0.5020
 4938TIP3    H214779   5.847   0.912   1.199 -0.1998  0.6445 -0.5310
 4939TIP3   OH214780   2.384   4.432   1.946 -0.4754  0.1446 -0.5131
 4939TIP3    H114781   2.439   4.355   1.933  0.3934  0.5280  0.7021
 4939TIP3    H214782   2.446   4.505   1.949 -0.8186  0.4471  2.2878
 4940TIP3   OH214783   5.407   6.542   0.728  0.4123 -0.1012 -0.1964
 4940TIP3    H114784   5.456   6.616   0.763 -1.6671  0.6425  1.3753
 4940TIP3    H214785   5.435   6.535   0.637  2.2045  1.2465  0.1898
 4941TIP3   OH214786   4.685   4.971   5.305  0.1761 -0.4423  0.4724
 4941TIP3    H114787   4.634   5.046   5.274  1.2973  1.0260  1.9993
 4941TIP3    H214788   4.667   4.902   5.242  0.5583  1.6634 -2.1130
 4942TIP3   OH214789   5.333   6.677   5.495 -0.2668 -1.2051  0.0212
 4942TIP3    H114790   5.411   6.627   5.472 -0.6849 -1.3319 -1.1850
 4942TIP3    H214791   5.288   6.691   5.412 -2.5414 -2.7853  0.9166
 4943TIP3   OH214792   4.348   1.582   2.264 -0.3630  0.4112  0.1126
 4943TIP3    H114793   4.307   1.596   2.350 -0.1612  0.6364  0.1727
 4943TIP3    H214794   4.383   1.668   2.240 -2.7840  1.0685 -1.4585
 4944TIP3   OH214795   1.817   6.374   0.155 -0.0623 -0.1114  0.1612
 4944TIP3    H114796   1.738   6.370   0.102  0.1490 -0.4154 -0.1286
 4944TIP3    H214797   1.870   6.300   0.126  0.0979 -0.2252  0.7258
 4945TIP3   OH214798   5.743   2.374   0.680 -0.5083  0.1545  0.5584
 4945TIP3    H114799   5.736   2.371   0.776  0.5127 -0.3592  0.6280
 4945TIP3    H214800   5.812   2.439   0.664  0.3244 -0.7754  0.2409
 4946TIP3   OH214801   3.251   6.116   1.091 -0.3784 -0.3116  0.5681
 4946TIP3    H114802   3.267   6.181   1.159  1.9516  0.4335 -0.5489
 4946TIP3    H214803   3.171   6.145   1.047 -2.6555 -1.4927  3.5972
 4947TIP3   OH214804   6.864   1.074   2.345 -0.0298  0.6189 -0.1007
 4947TIP3    H114805   6.802   1.044   2.412 -0.2313 -0.1188 -0.6086
 4947TIP3    H214806   6.950   1.046   2.377 -0.0328  0.9548  0.2186
 4948TIP3   OH214807   2.675   5.156   1.872 -0.4025  0.3277  0.3602
 4948TIP3    H114808   2.681   5.209   1.792  0.8941  1.2337  1.0286
 4948TIP3    H214809   2.586   5.171   1.903 -1.0890 -0.3916 -1.1257
 4949TIP3   OH214810   0.222   5.756   1.180  0.0589 -0.0548  0.3811
 4949TIP3    H114811   0.263   5.789   1.261  0.0923  0.0210  0.3335
 4949TIP3    H214812   0.158   5.823   1.157 -0.1140 -0.1889  0.4720
 4950TIP3   OH214813   0.353   0.799   5.061  0.2893  0.1040  0.0677
 4950TIP3    H114814   0.368   0.773   4.970 -1.1774  0.5263 -0.3188
 4950TIP3    H214815   0.380   0.891   5.065  0.8978 -0.0762  0.2163
 4951TIP3   OH214816   5.627   3.961   5.652  0.1178 -0.0722 -0.1177
 4951TIP3    H114817   5.671   4.018   5.589 -0.0016 -0.0832 -0.2110
 4951TIP3    H214818   5.670   3.980   5.735  1.3852 -1.2071 -0.4708
 4952TIP3   OH214819   5.308   1.086   0.428  0.6493  0.0318  0.1163
 4952TIP3    H114820   5.396   1.102   0.394  0.5002  2.2341  0.5807
 4952TIP3    H214821   5.250   1.112   0.357  0.2915 -3.2122 -0.9122
 4953TIP3   OH214822   6.068   1.618   0.092  0.3452 -0.0666 -0.9359
 4953TIP3    H114823   6.152   1.585   0.125  0.2379  0.7374  0.1894
 4953TIP3    H214824   6.092   1.673   0.018  0.7860 -0.1404 -0.8507
 4954TIP3   OH214825   1.542   4.293   4.070 -0.1049  0.5081 -0.6179
 4954TIP3    H114826   1.634   4.267   4.064 -0.5576 -2.0115  1.6819
 4954TIP3    H214827   1.493   4.216   4.043 -1.5216  0.5885  1.4839
 4955TIP3   OH214828   3.535   5.626   0.836  0.6609 -0.9468  0.5378
 4955TIP3    H114829   3.496   5.683   0.770  0.8871 -0.4977  0.7868
 4955TIP3    H214830   3.500   5.539   0.816  0.8377 -0.8411 -0.2487
 4956TIP3   OH214831   6.112   2.408   2.874 -0.0491  0.4139 -0.1828
 4956TIP3    H114832   6.110   2.424   2.780 -0.1821  1.2923 -0.0355
 4956TIP3    H214833   6.025   2.434   2.904 -0.1027 -0.1283  0.1447
 4957TIP3   OH214834   4.380   1.293   0.062  0.3999 -0.5660  0.2344
 4957TIP3    H114835   4.352   1.313  -0.027 -0.7153 -0.2237  0.6392
 4957TIP3    H214836   4.473   1.271   0.054  0.6284  0.6714 -0.8243
 4958TIP3   OH214837   6.217   6.790   2.412 -0.3145  0.2629 -0.5504
 4958TIP3    H114838   6.261   6.733   2.349  2.7388  0.2799  1.4036
 4958TIP3    H214839   6.266   6.872   2.409 -1.5792  1.0808  0.2067
 4959TIP3   OH214840   5.095   2.326   2.392  0.0321 -0.0958 -0.3695
 4959TIP3    H114841   5.070   2.387   2.323  0.6313  0.4922 -0.0784
 4959TIP3    H214842   5.071   2.370   2.473  0.0137 -0.4615 -0.1725
 4960TIP3   OH214843   5.175   6.270   0.664  0.2503  0.2496  0.1649
 4960TIP3    H114844   5.213   6.354   0.638  0.4403 -0.1045 -0.7321
 4960TIP3    H214845   5.081   6.280   0.644  0.3963 -0.0238 -0.7055
 4961TIP3   OH214846   1.813   6.406   1.013  0.4930  0.7296  0.6331
 4961TIP3    H114847   1.818   6.345   0.939  0.4063 -0.4399  1.5528
 4961TIP3    H214848   1.848   6.488   0.979  2.2094 -0.2740 -0.1883
 4962TIP3   OH214849   4.857   3.811   2.321  0.2638 -0.1100 -0.2804
 4962TIP3    H114850   4.796   3.751   2.278  1.0736 -0.7593 -0.5442
 4962TIP3    H214851   4.943   3.772   2.307  0.5465 -0.5139  2.1962
 4963TIP3   OH214852   5.800   3.373   2.729  0.4014 -0.0344 -1.1084
 4963TIP3    H114853   5.832   3.303   2.672  0.8064  0.7047 -1.8097
 4963TIP3    H214854   5.838   3.353   2.815  0.0527 -0.9781 -1.1686
 4964TIP3   OH214855   0.212   2.237   4.305  0.1527  0.2005  0.1695
 4964TIP3    H114856   0.302   2.226   4.335  0.2644 -0.4932 -0.3931
 4964TIP3    H214857   0.169   2.289   4.373  0.4209 -1.2013  1.4453
 4965TIP3   OH214858   4.760   1.760   3.398 -0.8129  0.2811  0.0954
 4965TIP3    H114859   4.746   1.778   3.491 -0.2512 -0.1489  0.2697
 4965TIP3    H214860   4.793   1.842   3.362 -1.9141  0.7334  0.0697
 4966TIP3   OH214861   3.513   1.064   1.307  0.7973  0.1513  0.0812
 4966TIP3    H114862   3.484   1.146   1.347  0.5398  0.7853 -1.3566
 4966TIP3    H214863   3.433   1.013   1.298  0.7441  0.2845 -0.2254
 4967TIP3   OH214864   0.624   5.301   5.680 -0.1516  0.3405 -0.0171
 4967TIP3    H114865   0.574   5.353   5.617 -1.9437 -2.4145 -1.0732
 4967TIP3    H214866   0.702   5.272   5.632  0.0610  0.7741  0.0651
 4968TIP3   OH214867   6.844   0.975   1.318 -0.0213  0.2095 -0.4402
 4968TIP3    H114868   6.770   1.001   1.262 -1.3135 -2.6497 -0.2734
 4968TIP3    H214869   6.921   1.010   1.274 -1.1899  0.0422 -2.7601
 4969TIP3   OH214870   5.220   2.292   3.806 -0.2478  0.1635  0.1612
 4969TIP3    H114871   5.226   2.361   3.872 -1.6185 -0.4777  0.9902
 4969TIP3    H214872   5.300   2.302   3.755 -0.6589  2.7676 -0.1542
 4970TIP3   OH214873   7.139   5.729   5.745  0.0938 -0.2756  0.2234
 4970TIP3    H114874   7.111   5.820   5.739 -1.1783 -0.6785 -0.1067
 4970TIP3    H214875   7.058   5.679   5.746  0.7693 -1.5962 -2.5950
 4971TIP3   OH214876   7.079   1.685   2.699  0.0045 -0.3109  0.5997
 4971TIP3    H114877   7.005   1.705   2.642 -0.0601 -2.5353 -0.2179
 4971TIP3    H214878   7.119   1.770   2.718 -2.5301  0.9166  0.8118
 4972TIP3   OH214879   0.405   4.752   5.107  0.0611 -0.3788 -0.0106
 4972TIP3    H114880   0.447   4.832   5.138  0.4854 -0.5545 -0.1220
 4972TIP3    H214881   0.477   4.700   5.071 -0.3366 -0.4139 -0.7816
 4973TIP3   OH214882   3.228   3.474   5.650 -0.3605 -0.2129 -0.5050
 4973TIP3    H114883   3.177   3.451   5.728 -0.4478 -1.2237 -0.8476
 4973TIP3    H214884   3.188   3.555   5.618 -2.5561 -1.5884 -1.4493
 4974TIP3   OH214885   5.374   3.737   3.153  0.4093  0.5580 -0.1514
 4974TIP3    H114886   5.367   3.808   3.217  0.1808  1.4635 -1.1499
 4974TIP3    H214887   5.456   3.754   3.107  0.0104  0.6099 -0.8752
 4975TIP3   OH214888   2.301   6.207   3.656 -0.1688 -0.9179  0.2164
 4975TIP3    H114889   2.215   6.247   3.640  0.1827  0.3243  1.3280
 4975TIP3    H214890   2.303   6.190   3.750  1.5920  0.9925  0.5765
 4976TIP3   OH214891   6.111   4.906   5.838 -0.1181  0.1801  0.0761
 4976TIP3    H114892   6.019   4.902   5.812 -0.4136 -0.9307  1.1711
 4976TIP3    H214893   6.110   4.950   5.923  0.1604 -1.1388  0.7964
 4977TIP3   OH214894   5.460   0.384   3.459 -0.0490  0.2216 -0.4839
 4977TIP3    H114895   5.531   0.412   3.516 -0.6331  1.6257 -0.3921
 4977TIP3    H214896   5.407   0.463   3.447 -0.0752 -0.0597 -2.7778
 4978TIP3   OH214897   1.842   2.937   1.528 -0.1366 -0.0398  0.2762
 4978TIP3    H114898   1.858   2.867   1.466 -1.5625 -0.4761  0.3570
 4978TIP3    H214899   1.752   2.923   1.558 -0.1203  1.2436  1.0352
 4979TIP3   OH214900   6.937   2.935   2.523 -0.0368  0.7287 -0.0159
 4979TIP3    H114901   6.908   2.846   2.543  1.3618  0.0982 -0.7006
 4979TIP3    H214902   7.025   2.941   2.560 -0.6914  2.3819  1.4117
 4980TIP3   OH214903   1.534   2.311   1.345 -0.2524 -0.0711  0.8918
 4980TIP3    H114904   1.462   2.275   1.396  0.4455 -0.3695  1.6986
 4980TIP3    H214905   1.548   2.398   1.382 -1.4996  0.8080 -0.6092
 4981TIP3   OH214906   1.197   1.288   1.811 -0.9994 -0.3862 -0.1245
 4981TIP3    H114907   1.103   1.306   1.819 -0.9165 -0.2083  0.5350
 4981TIP3    H214908   1.236   1.374   1.793 -0.9096 -0.3793  0.1034
 4982TIP3   OH214909   2.269   4.165   2.075  0.2092  0.2635  0.2831
 4982TIP3    H114910   2.281   4.185   2.168  1.3686  0.3142  0.1362
 4982TIP3    H214911   2.212   4.234   2.042  0.1124  0.4667  0.8755
 4983TIP3   OH214912   7.023   2.280   2.126 -0.5958 -0.0943  0.2237
 4983TIP3    H114913   7.068   2.299   2.209  0.3299 -0.8427 -0.0873
 4983TIP3    H214914   6.936   2.317   2.137 -0.0237  1.1015  0.9940
 4984TIP3   OH214915   1.091   2.054   5.740 -0.3598  0.0751 -0.5869
 4984TIP3    H114916   1.023   2.105   5.784 -1.3411  0.0261 -1.9540
 4984TIP3    H214917   1.078   1.965   5.773  1.6391  0.6671  2.1372
 4985TIP3   OH214918   2.445   2.102   1.618  0.6194  0.3908 -0.5192
 4985TIP3    H114919   2.505   2.075   1.549 -0.4453 -0.9056 -0.9682
 4985TIP3    H214920   2.406   2.183   1.586 -1.1689 -1.0826 -2.3158
 4986TIP3   OH214921  -0.015   4.652   1.913  0.2168  0.3008  0.5619
 4986TIP3    H114922  -0.030   4.666   2.006  0.1408 -0.4063  0.6616
 4986TIP3    H214923   0.074   4.615   1.909  0.4713  0.9250  0.2971
 4987TIP3   OH214924   3.864   1.106   5.560 -0.0793 -0.0977  0.0361
 4987TIP3    H114925   3.926   1.033   5.558  0.7514  0.5812  0.1929
 4987TIP3    H214926   3.907   1.172   5.615 -1.1856  0.1881  0.6000
 4988TIP3   OH214927   1.065   0.148   2.409  0.1311  0.2756 -0.4494
 4988TIP3    H114928   1.119   0.073   2.435  0.1813  0.6476  0.5569
 4988TIP3    H214929   1.127   0.208   2.367  0.1306 -0.1481 -1.0633
 4989TIP3   OH214930   3.825   2.458   4.273 -0.0581  0.0314  0.2487
 4989TIP3    H114931   3.769   2.423   4.203 -4.2025  1.1961  2.6008
 4989TIP3    H214932   3.814   2.397   4.345 -0.9949  1.9060  1.8100
 4990TIP3   OH214933   4.164   6.143   1.506 -0.0601 -0.0961 -0.5679
 4990TIP3    H114934   4.255   6.154   1.477  0.8720 -0.8231  1.8213
 4990TIP3    H214935   4.157   6.051   1.529 -0.4261  0.5078  2.0900
 4991TIP3   OH214936   3.168   0.840   5.495 -0.5187  0.1924 -0.5905
 4991TIP3    H114937   3.139   0.772   5.556  0.3672  0.8719  0.6435
 4991TIP3    H214938   3.179   0.795   5.412  0.5209 -1.3040  0.3001
 4992TIP3   OH214939   3.366   2.778   3.995  0.0852  0.1349  0.5292
 4992TIP3    H114940   3.379   2.721   4.071  0.0238 -0.9315 -0.2509
 4992TIP3    H214941   3.433   2.847   4.005  0.6919 -0.5207  1.0567
 4993TIP3   OH214942   4.705   6.479   3.724  0.1598  0.0131  0.1764
 4993TIP3    H114943   4.773   6.413   3.736 -0.1869 -0.4138 -0.1438
 4993TIP3    H214944   4.623   6.433   3.744 -0.0140  0.5956  0.8296
 4994TIP3   OH214945   5.676   0.154   2.696 -0.4422 -0.0795 -0.5131
 4994TIP3    H114946   5.623   0.083   2.732 -0.4424  0.2691  0.1826
 4994TIP3    H214947   5.766   0.122   2.704 -0.5664 -1.3945 -3.2348
 4995TIP3   OH214948   4.109   3.137   1.519  0.1812 -0.3180 -0.3970
 4995TIP3    H114949   4.184   3.196   1.533 -0.9664  1.5781 -1.8215
 4995TIP3    H214950   4.043   3.168   1.582 -0.9240  0.8818 -2.0824
 4996TIP3   OH214951   2.081   0.656   2.786  0.1333  0.9097 -0.3637
 4996TIP3    H114952   2.160   0.682   2.835 -0.1628  1.9438 -0.4006
 4996TIP3    H214953   2.009   0.695   2.835 -0.3047  0.5393 -0.7066
 4997TIP3   OH214954   0.272   4.602   5.666  0.4054 -0.3551  0.3108
 4997TIP3    H114955   0.222   4.525   5.691 -0.1680 -0.6102 -1.4665
 4997TIP3    H214956   0.302   4.583   5.577 -0.2467  1.6926 -0.4108
 4998TIP3   OH214957   4.856   3.455   5.191  0.1793 -0.0884  0.0856
 4998TIP3    H114958   4.877   3.536   5.238 -2.4135 -0.0728  1.3775
 4998TIP3    H214959   4.762   3.443   5.205  0.1798 -2.4639 -1.4690
 4999TIP3   OH214960   0.283   1.263   0.867 -0.1518 -0.5604  0.4783
 4999TIP3    H114961   0.238   1.271   0.783  0.5236  0.5324  0.1908
 4999TIP3    H214962   0.276   1.171   0.890 -0.7855 -0.7774 -0.5338
 5000TIP3   OH214963   3.542   1.759   5.438  0.0355 -0.0594 -0.3561
 5000TIP3    H114964   3.449   1.780   5.428  0.1546  1.4247  1.2373
 5000TIP3    H214965   3.543   1.672   5.478 -0.7222  0.4991  0.9217
 5001TIP3   OH214966   5.167   6.320   4.774  0.6637  0.4963 -0.0575
 5001TIP3    H114967   5.095   6.300   4.714  1.1493 -1.6185  0.0222
 5001TIP3    H214968   5.243   6.333   4.717  0.6587  0.7231 -0.0153
 5002TIP3   OH214969   1.600   5.078   4.775 -0.3321  0.1814  0.1602
 5002TIP3    H114970   1.572   5.010   4.714  0.5653 -1.4580  1.5029
 5002TIP3    H214971   1.531   5.080   4.842  0.6088 -0.8694  1.1957
 5003TIP3   OH214972   6.575   0.117   4.494  0.3475 -1.0055  0.2306
 5003TIP3    H114973   6.637   0.145   4.427 -0.2267 -1.4838 -0.5022
 5003TIP3    H214974   6.630   0.100   4.571  1.1477 -1.6140 -0.4669
 5004TIP3   OH214975   3.037   4.458   3.185  0.4398  0.0501  0.0336
 5004TIP3    H114976   2.990   4.541   3.186  0.8364  0.3324 -1.6156
 5004TIP3    H214977   3.061   4.442   3.277 -0.0796  1.4874  0.4383
 5005TIP3   OH214978   4.779   6.413   2.773 -0.5319  0.1548 -0.1945
 5005TIP3    H114979   4.808   6.432   2.862 -0.0773 -0.7372 -0.1443
 5005TIP3    H214980   4.860   6.392   2.726 -0.3449  3.4005 -1.5825
 5006TIP3   OH214981   6.527   6.788   1.422  0.2654  0.2408 -0.4845
 5006TIP3    H114982   6.592   6.718   1.418  1.5522  1.4385 -1.5272
 5006TIP3    H214983   6.502   6.803   1.331 -1.6459 -0.3020 -0.0945
 5007TIP3   OH214984   0.081   3.462   2.578 -0.2579 -0.1863  0.8714
 5007TIP3    H114985   0.019   3.392   2.560  0.0384  0.1161 -1.5897
 5007TIP3    H214986   0.167   3.419   2.579  0.0216  0.2084 -1.5895
 5008TIP3   OH214987   0.717   1.191   1.272  0.5616  0.6255 -0.1665
 5008TIP3    H114988   0.737   1.105   1.308 -0.5108  0.0988 -0.7808
 5008TIP3    H214989   0.679   1.173   1.186  1.3150  1.7679 -0.7723
 5009TIP3   OH214990   3.757   5.475   0.966  0.2546 -0.3990 -0.1991
 5009TIP3    H114991   3.731   5.421   0.890 -2.5788 -0.8233  0.9420
 5009TIP3    H214992   3.687   5.539   0.974  0.7995  0.0033  1.7112
 5010TIP3   OH214993   6.492   0.213   0.426 -0.7812  0.1722 -0.1223
 5010TIP3    H114994   6.545   0.172   0.494 -1.7283 -0.8738  0.0168
 5010TIP3    H214995   6.556   0.244   0.361  0.0015 -1.4624 -0.1933
 5011TIP3   OH214996   7.174   0.125   0.908 -0.3885 -0.1910 -0.1583
 5011TIP3    H114997   7.192   0.135   1.001  1.1066 -0.2613 -0.4206
 5011TIP3    H214998   7.139   0.210   0.880 -0.3838 -0.0192  0.3611
 5012TIP3   OH214999   4.107   5.615   1.515 -0.6739  0.0296  0.0363
 5012TIP3    H115000   4.136   5.596   1.426  0.2182  0.0923  0.3057
 5012TIP3    H215001   4.012   5.621   1.509 -0.5824  0.5115 -1.0016
 5013TIP3   OH215002   0.877   2.069   1.070 -0.4298  0.4159 -0.4708
 5013TIP3    H115003   0.898   2.128   0.997  0.3789  1.1501  0.3234
 5013TIP3    H215004   0.902   1.982   1.038 -0.7711  0.6210 -1.3260
 5014TIP3   OH215005   4.552   0.369   2.349 -0.4844 -0.5845  0.0728
 5014TIP3    H115006   4.477   0.327   2.306 -2.5609  1.5276  1.3470
 5014TIP3    H215007   4.622   0.365   2.284 -2.8388  0.6954 -2.8447
 5015TIP3   OH215008   6.818   4.159   5.235  0.2544  0.5869 -0.3352
 5015TIP3    H115009   6.854   4.079   5.275  1.4317  1.2575 -0.0038
 5015TIP3    H215010   6.807   4.219   5.309  0.7904  1.2349 -0.7667
 5016TIP3   OH215011   0.433   1.089   5.515 -0.4459  0.3671  0.1181
 5016TIP3    H115012   0.407   1.091   5.607 -2.3828  2.9601 -0.3621
 5016TIP3    H215013   0.467   1.176   5.497 -3.8609  1.4174 -2.4567
 5017TIP3   OH215014   5.961   3.913   5.514 -0.7190  0.5954  0.1014
 5017TIP3    H115015   5.919   3.853   5.576 -1.2399  1.8372  0.9978
 5017TIP3    H215016   5.903   3.989   5.512 -1.0331  0.3730 -2.3874
 5018TIP3   OH215017   1.115   6.021   0.641 -0.7102 -0.0168 -0.1619
 5018TIP3    H115018   1.025   6.027   0.673 -1.0862  0.5361 -1.2748
 5018TIP3    H215019   1.113   5.951   0.576 -0.0816 -0.7430  0.5768
 5019TIP3   OH215020   0.740   4.664   1.415  0.1166  0.6509  0.1951
 5019TIP3    H115021   0.652   4.696   1.398 -0.2254  0.6406  1.8158
 5019TIP3    H215022   0.796   4.741   1.405 -0.0297  0.6277 -0.9827
 5020TIP3   OH215023   0.741   5.015   5.309 -0.4501  0.0616 -0.2922
 5020TIP3    H115024   0.831   4.998   5.338 -0.2017  0.2736 -0.9119
 5020TIP3    H215025   0.698   5.051   5.386  0.0904  0.2649 -0.0748
 5021TIP3   OH215026   3.100   3.076   1.628  0.5712 -0.2571  0.3121
 5021TIP3    H115027   3.091   3.053   1.535 -0.1561  0.4909  0.1952
 5021TIP3    H215028   3.143   3.161   1.628 -0.3007  0.1908  0.6274
 5022TIP3   OH215029   2.608   3.952   5.623 -0.2750  0.0891 -0.5756
 5022TIP3    H115030   2.547   3.988   5.687 -0.8215  2.0192 -2.0670
 5022TIP3    H215031   2.681   4.014   5.623 -1.0282  1.0911 -2.8910
 5023TIP3   OH215032   4.331   2.209   4.889 -0.3535 -0.0558 -0.6958
 5023TIP3    H115033   4.323   2.303   4.878 -2.0422 -0.1480 -0.5389
 5023TIP3    H215034   4.351   2.197   4.982  2.1623  0.2051 -1.1405
 5024TIP3   OH215035   4.119   4.351   3.314  0.0433  0.5449  0.0782
 5024TIP3    H115036   4.196   4.326   3.263 -0.3936 -0.2784 -0.1852
 5024TIP3    H215037   4.108   4.444   3.296 -0.5236  0.1358 -1.9185
 5025TIP3   OH215038   6.147   3.112   1.519 -0.5152 -0.0937 -0.4088
 5025TIP3    H115039   6.106   3.054   1.454  0.6493  0.0652 -1.3357
 5025TIP3    H215040   6.182   3.185   1.467 -0.5339  0.6051  0.5442
 5026TIP3   OH215041   5.474   2.270   1.637 -0.3083  0.1722  0.9762
 5026TIP3    H115042   5.505   2.230   1.718 -0.6766  0.8252  1.4445
 5026TIP3    H215043   5.527   2.229   1.569 -0.3777 -0.7986  1.4812
 5027TIP3   OH215044   7.078   2.968   0.472  0.2072  0.2562  0.4215
 5027TIP3    H115045   7.140   2.912   0.519 -0.3373 -1.1557 -0.4556
 5027TIP3    H215046   7.130   3.013   0.406  0.8177  1.5611  1.7337
 5028TIP3   OH215047   0.042   6.296   3.946 -0.0165  0.4884 -0.4009
 5028TIP3    H115048   0.090   6.214   3.936  1.2117  0.9864  1.1203
 5028TIP3    H215049   0.093   6.348   4.008 -1.9992  1.4482  0.5525
 5029TIP3   OH215050   3.904   5.391   2.525  0.2463 -0.3039  0.5362
 5029TIP3    H115051   3.893   5.482   2.552 -0.1571  0.1286 -0.9775
 5029TIP3    H215052   3.838   5.343   2.576 -0.5559  0.4791  0.2622
 5030TIP3   OH215053   6.911   3.505   0.900 -0.3542  0.0349  0.2798
 5030TIP3    H115054   6.913   3.472   0.989 -1.9979  0.9760  0.7075
 5030TIP3    H215055   6.882   3.431   0.847 -0.4930 -0.2074  0.6913
 5031TIP3   OH215056   3.567   3.691   3.237 -0.2651  0.5136  0.5557
 5031TIP3    H115057   3.557   3.617   3.176  0.9889  0.4062  0.4430
 5031TIP3    H215058   3.636   3.744   3.198 -0.5218  1.2666  1.1127
 5032TIP3   OH215059   5.615   5.297   0.980  0.3108 -0.0273 -0.2267
 5032TIP3    H115060   5.628   5.207   1.011  1.5613 -0.6100 -2.2158
 5032TIP3    H215061   5.521   5.310   0.984  0.1616 -1.1769  0.7544
 5033TIP3   OH215062   4.180   0.134   0.752  0.3154  0.1409  0.1326
 5033TIP3    H115063   4.256   0.186   0.776  0.3569  0.8112 -1.3427
 5033TIP3    H215064   4.212   0.073   0.686 -0.4210  0.5147 -0.5995
 5034TIP3   OH215065   4.394   2.341   4.338 -0.1152  0.1048  0.0530
 5034TIP3    H115066   4.488   2.359   4.335 -0.1007  0.5670  2.0661
 5034TIP3    H215067   4.366   2.372   4.424 -1.7769 -1.6817  0.2212
 5035TIP3   OH215068   1.796   1.420   4.511 -0.0409 -0.0042  0.4330
 5035TIP3    H115069   1.720   1.451   4.562  0.3107 -2.4405  2.6586
 5035TIP3    H215070   1.772   1.331   4.484  1.0559  0.1219 -1.0837
 5036TIP3   OH215071   2.678   4.474   5.119 -0.3113  0.1277  0.3323
 5036TIP3    H115072   2.648   4.498   5.206 -1.8614  1.5362 -0.5258
 5036TIP3    H215073   2.736   4.546   5.093 -0.2359 -0.0449  0.0129
 5037TIP3   OH215074   4.540   3.905   2.627 -0.3871  0.3640  0.4011
 5037TIP3    H115075   4.553   3.916   2.721  0.7104  1.1720  0.1777
 5037TIP3    H215076   4.482   3.829   2.620  1.8690 -1.6517  1.6699
 5038TIP3   OH215077   1.221   5.610   5.678 -0.1287 -0.8272 -0.3332
 5038TIP3    H115078   1.155   5.670   5.641  0.6670  0.6330  0.5219
 5038TIP3    H215079   1.201   5.609   5.772  1.7187  0.5446  0.1214
 5039TIP3   OH215080   3.868   4.426   4.236  0.1976 -0.2144  0.3994
 5039TIP3    H115081   3.841   4.465   4.153 -0.9257 -3.0543 -0.6963
 5039TIP3    H215082   3.787   4.419   4.286  0.6671  0.3155  1.2691
 5040TIP3   OH215083   1.662   4.907   2.907 -0.3475 -0.3914 -0.2624
 5040TIP3    H115084   1.622   4.825   2.880  0.5413 -0.8077 -0.3711
 5040TIP3    H215085   1.597   4.949   2.963 -1.9759  0.1666 -2.4144
 5041TIP3   OH215086   2.150   2.752   4.169 -0.6282 -0.3942  0.0607
 5041TIP3    H115087   2.184   2.797   4.247  2.7983 -0.6039 -1.1548
 5041TIP3    H215088   2.073   2.804   4.144  0.2849  1.8441  1.5279
 5042TIP3   OH215089   6.048   5.068   3.170 -0.7337 -0.1282 -0.0963
 5042TIP3    H115090   5.996   5.097   3.245 -0.8912  1.1306 -0.6599
 5042TIP3    H215091   6.139   5.085   3.197 -0.8251  1.0289 -0.4369
 5043TIP3   OH215092   1.706   4.511   0.427 -0.2504 -0.0196 -0.3031
 5043TIP3    H115093   1.686   4.568   0.352  0.0770 -0.4678 -0.7437
 5043TIP3    H215094   1.624   4.468   0.448 -0.4589  0.4744 -0.0832
 5044TIP3   OH215095   1.566   0.700   5.651  0.0985  0.0580  0.0057
 5044TIP3    H115096   1.650   0.661   5.675  0.2872 -1.0944 -2.2054
 5044TIP3    H215097   1.504   0.669   5.717  0.9382 -1.1515  0.2489
 5045TIP3   OH215098   3.770   5.400   4.783 -0.0858 -0.0299  0.1622
 5045TIP3    H115099   3.740   5.416   4.873  1.2782 -1.5935  0.9586
 5045TIP3    H215100   3.778   5.304   4.778 -1.1588 -0.0512 -1.9915
 5046TIP3   OH215101   4.133   0.526   4.912  0.4317  0.0173  0.1368
 5046TIP3    H115102   4.042   0.549   4.892  0.5176  0.9313  0.7182
 5046TIP3    H215103   4.179   0.538   4.829 -0.1334 -1.3770 -0.4008
 5047TIP3   OH215104   5.911   1.312   3.144 -0.3087 -0.3017 -0.6116
 5047TIP3    H115105   5.969   1.379   3.180 -0.2434  0.3473 -1.8836
 5047TIP3    H215106   5.852   1.291   3.217 -0.0950  0.8565 -0.0709
 5048TIP3   OH215107   2.897   5.713   1.677  0.2045 -0.3798  0.3509
 5048TIP3    H115108   2.957   5.743   1.610 -1.1785 -1.3958 -1.4516
 5048TIP3    H215109   2.848   5.791   1.703  1.8602  0.3429  1.4497
 5049TIP3   OH215110   4.541   6.739   4.386  0.4567 -0.0967 -0.0316
 5049TIP3    H115111   4.503   6.661   4.426  0.6684 -1.2284 -1.8797
 5049TIP3    H215112   4.619   6.707   4.341  0.6490  1.2122 -0.6829
 5050TIP3   OH215113   2.028   0.222   5.493  0.1825  0.2832 -0.1787
 5050TIP3    H115114   1.947   0.244   5.447  0.0571 -1.6375 -0.9349
 5050TIP3    H215115   2.078   0.304   5.493 -0.3128  0.6681 -2.7132
 5051TIP3   OH215116   5.386   5.195   4.110  0.3643 -0.1209  0.5670
 5051TIP3    H115117   5.378   5.175   4.203 -0.2702 -0.3114  0.4763
 5051TIP3    H215118   5.449   5.130   4.077  1.4017  0.6204  1.0602
 5052TIP3   OH215119   2.269   1.022   4.993 -0.5731  0.3218  0.0247
 5052TIP3    H115120   2.315   0.983   4.918 -0.7492 -0.4308  0.3000
 5052TIP3    H215121   2.276   1.117   4.978  0.8109  0.2270 -0.0834
 5053TIP3   OH215122   6.797   5.856   0.306  0.1710 -0.1761 -0.4328
 5053TIP3    H115123   6.750   5.773   0.317  0.7243 -0.4520 -0.1256
 5053TIP3    H215124   6.876   5.833   0.257 -0.2020  0.3555 -1.3132
 5054TIP3   OH215125   3.901   4.023   2.209 -0.7416  0.6100  0.3950
 5054TIP3    H115126   3.867   4.054   2.294 -0.9959 -1.6852  1.2145
 5054TIP3    H215127   3.823   4.010   2.156 -0.6054  1.7269 -0.0954
 5055TIP3   OH215128   3.269   2.291   0.984  0.2038 -0.7084 -0.0188
 5055TIP3    H115129   3.194   2.350   0.976  0.5414 -0.3733 -0.7973
 5055TIP3    H215130   3.236   2.218   1.037 -1.0422 -1.1524 -1.3448
 5056TIP3   OH215131   5.912   2.514   0.002  0.2749 -0.5040  0.1239
 5056TIP3    H115132   5.865   2.575  -0.054 -0.5237 -2.4449 -1.4476
 5056TIP3    H215133   5.859   2.507   0.081  0.8434  1.4398  0.7322
 5057TIP3   OH215134   2.522   4.660   4.624  0.0855 -0.0979 -0.4409
 5057TIP3    H115135   2.433   4.635   4.649  0.7502 -1.6873  0.4529
 5057TIP3    H215136   2.521   4.756   4.627 -1.7477 -0.0435 -1.0588
 5058TIP3   OH215137   3.954   6.195   3.638  0.1817  0.4867 -0.1227
 5058TIP3    H115138   3.888   6.162   3.699 -0.2895 -0.1064 -0.9449
 5058TIP3    H215139   4.019   6.124   3.634  0.3496  0.6395 -0.1124
 5059TIP3   OH215140   0.578   0.297   4.850  0.4267  0.3773 -0.0404
 5059TIP3    H115141   0.599   0.355   4.924 -0.2740  1.9801 -1.0616
 5059TIP3    H215142   0.664   0.271   4.816  0.7559 -0.0649  1.0504
 5060TIP3   OH215143   0.699   1.511   5.069  0.2311 -0.0569  1.0557
 5060TIP3    H115144   0.724   1.602   5.051  2.1451 -0.7999 -0.2630
 5060TIP3    H215145   0.716   1.465   4.987 -2.1977 -1.3595  1.2039
 5061TIP3   OH215146   3.997   0.520   1.344  0.2395 -0.4775 -0.4961
 5061TIP3    H115147   3.991   0.563   1.429  0.2133 -1.6777  0.1273
 5061TIP3    H215148   3.932   0.451   1.347  1.6004 -1.8206 -0.7085
 5062TIP3   OH215149   2.679   3.078   4.908  0.0239  0.0343 -0.1948
 5062TIP3    H115150   2.648   3.027   4.833 -1.6095 -1.3136  1.3265
 5062TIP3    H215151   2.771   3.053   4.916 -0.6971 -2.7452  0.4551
 5063TIP3   OH215152   5.456   1.610   4.975  0.9580 -0.9041 -0.2625
 5063TIP3    H115153   5.438   1.613   5.069  2.0899 -2.3601  0.0450
 5063TIP3    H215154   5.494   1.523   4.961  1.3577 -0.4905 -1.9723
 5064TIP3   OH215155   3.788   0.801   0.561  0.1393  0.1047 -0.2814
 5064TIP3    H115156   3.859   0.849   0.603 -0.0541 -0.8360  1.2343
 5064TIP3    H215157   3.742   0.866   0.508  1.3910  0.9877 -0.3313
 5065TIP3   OH215158   5.990   5.716   4.441  0.4098 -0.5883 -0.1285
 5065TIP3    H115159   5.917   5.699   4.382  0.1501 -2.4329  0.6740
 5065TIP3    H215160   6.057   5.756   4.385 -0.9255  0.5307 -1.0019
 5066TIP3   OH215161   2.207   3.585   3.869 -0.2821 -0.1244  0.0381
 5066TIP3    H115162   2.206   3.675   3.901 -3.0284 -0.2457  0.4966
 5066TIP3    H215163   2.200   3.592   3.774  1.4975  0.1241 -0.1091
 5067TIP3   OH215164   5.925   4.459   1.768 -0.0135 -0.4472 -0.1969
 5067TIP3    H115165   5.890   4.547   1.755  0.5292 -0.1133  0.5705
 5067TIP3    H215166   5.916   4.417   1.682 -0.1712  0.3922 -0.5988
 5068TIP3   OH215167   0.900   2.111   2.929 -0.0075 -0.2417 -0.2657
 5068TIP3    H115168   0.807   2.132   2.925 -0.0495 -0.2750  0.5025
 5068TIP3    H215169   0.936   2.147   2.848 -0.5979  0.2111 -0.3291
 5069TIP3   OH215170   7.098   3.802   2.255  0.0278  0.0714 -0.2149
 5069TIP3    H115171   7.188   3.775   2.235  0.6705  0.0936  2.2952
 5069TIP3    H215172   7.053   3.720   2.277 -0.5374  0.0849 -1.2722
 5070TIP3   OH215173   1.590   0.538   4.869 -0.3856 -0.4010  0.9874
 5070TIP3    H115174   1.641   0.617   4.850 -1.0486  0.2885  1.9914
 5070TIP3    H215175   1.647   0.466   4.842 -0.4382  0.4071 -1.5752
 5071TIP3   OH215176   2.470   4.545   3.374  0.2830  0.7522 -0.3557
 5071TIP3    H115177   2.541   4.507   3.322  0.9780 -0.5698  1.4683
 5071TIP3    H215178   2.391   4.500   3.343  0.6556  0.1165 -0.3816
 5072TIP3   OH215179   1.189   4.052   1.790  0.3062  0.3332  0.4162
 5072TIP3    H115180   1.195   4.024   1.698  1.0158 -0.9881  0.8398
 5072TIP3    H215181   1.126   3.992   1.829  0.4465  0.5131  0.9254
 5073TIP3   OH215182   4.064   6.504   2.560  0.0216 -0.1573 -0.2116
 5073TIP3    H115183   4.045   6.493   2.654  0.9031 -0.0958 -0.0216
 5073TIP3    H215184   4.084   6.415   2.530 -0.0353 -0.1431 -0.2892
 5074TIP3   OH215185   5.410   6.601   3.639  0.7018 -0.1314 -1.0958
 5074TIP3    H115186   5.356   6.645   3.573  1.6881  2.3987 -0.3529
 5074TIP3    H215187   5.471   6.548   3.589 -0.4576 -0.5911 -2.0677
 5075TIP3   OH215188   0.337   4.675   4.517 -0.3811 -0.1426  0.1020
 5075TIP3    H115189   0.406   4.711   4.461 -1.5090 -0.5251 -1.5870
 5075TIP3    H215190   0.259   4.726   4.495 -0.2311  2.0937  3.8376
 5076TIP3   OH215191   0.923   0.717   4.089 -0.4646  0.1302  0.7992
 5076TIP3    H115192   0.883   0.654   4.029 -0.3675 -0.0091  0.8807
 5076TIP3    H215193   0.895   0.689   4.176  1.3145 -1.0967  1.0322
 5077TIP3   OH215194   0.011   2.750   1.064  0.4555  0.1751  0.7853
 5077TIP3    H115195   0.074   2.721   0.998  0.4137  1.4620  0.1460
 5077TIP3    H215196  -0.012   2.671   1.112 -0.0349 -0.9475 -1.1880
 5078TIP3   OH215197   3.941   0.632   5.326 -0.4450 -0.6965  0.6939
 5078TIP3    H115198   3.859   0.630   5.377 -1.2264 -1.6924 -0.5456
 5078TIP3    H215199   3.954   0.541   5.299 -0.5571 -0.0832 -1.6331
 5079TIP3   OH215200   1.196   6.209   1.440  0.4833 -0.4058  0.4370
 5079TIP3    H115201   1.232   6.127   1.405 -2.5708 -2.0675  0.9108
 5079TIP3    H215202   1.254   6.231   1.513  2.0723 -1.4151 -0.4408
 5080TIP3   OH215203   1.790   4.453   4.159 -0.4232 -0.3918  0.3976
 5080TIP3    H115204   1.782   4.374   4.106 -1.4400  0.1770 -0.3380
 5080TIP3    H215205   1.772   4.525   4.099  1.3728  0.4912  0.8408
 5081TIP3   OH215206   1.455   2.406   2.980  0.1009  0.2872 -0.2365
 5081TIP3    H115207   1.435   2.395   3.073  1.0435 -1.5622 -0.2256
 5081TIP3    H215208   1.370   2.397   2.936 -0.1580 -0.1276  0.3405
 5082TIP3   OH215209   4.560   2.106   4.786 -0.5017 -0.2601  0.4070
 5082TIP3    H115210   4.625   2.160   4.832  0.0755 -0.5243 -0.0710
 5082TIP3    H215211   4.476   2.134   4.820 -0.0671 -0.7022  1.8864
 5083TIP3   OH215212   7.061   4.187   3.168  0.5107 -0.5049  0.2370
 5083TIP3    H115213   7.040   4.241   3.092 -1.7561 -0.8407  0.5553
 5083TIP3    H215214   7.020   4.102   3.149  0.7186 -0.8875  1.4148
 5084TIP3   OH215215   2.742   6.235   3.594 -0.9608  0.2661 -0.0439
 5084TIP3    H115216   2.697   6.206   3.673  0.4442  0.9719  1.0647
 5084TIP3    H215217   2.694   6.313   3.566 -2.9145 -1.2962 -1.3119
 5085TIP3   OH215218   2.815   6.647   1.193  0.1650  0.0791 -0.3152
 5085TIP3    H115219   2.895   6.622   1.146 -0.8147 -0.9535 -1.5198
 5085TIP3    H215220   2.773   6.711   1.136 -1.1254 -1.3141 -1.0076
 5086TIP3   OH215221   5.364   4.003   5.677  0.4196 -0.1230  0.0770
 5086TIP3    H115222   5.455   3.976   5.684  0.8879  0.6637 -2.2387
 5086TIP3    H215223   5.367   4.099   5.687 -0.7010 -0.3102  3.8782
 5087TIP3   OH215224   2.951   2.086   4.524  0.2022 -0.2349 -0.2425
 5087TIP3    H115225   2.960   2.163   4.580  0.0471  0.7029 -1.4622
 5087TIP3    H215226   2.992   2.111   4.441 -0.2485 -1.3001 -0.8118
 5088TIP3   OH215227   5.713   1.350   3.344  0.5992 -0.1210  0.7574
 5088TIP3    H115228   5.661   1.356   3.264  1.8876 -0.4256 -0.1319
 5088TIP3    H215229   5.652   1.371   3.414 -0.3273  1.1810 -0.3840
 5089TIP3   OH215230   0.397   5.214   2.068  0.1714  0.6743 -0.1996
 5089TIP3    H115231   0.449   5.137   2.044 -0.4927  0.1781 -0.0878
 5089TIP3    H215232   0.313   5.202   2.023 -0.3124  0.8116  0.6240
 5090TIP3   OH215233   5.667   5.368   3.936 -0.5517 -0.0594 -0.0711
 5090TIP3    H115234   5.576   5.394   3.926 -0.4482  0.9710  1.3631
 5090TIP3    H215235   5.702   5.369   3.847 -1.5362  1.1149 -0.4763
 5091TIP3   OH215236   4.686   4.302   5.602  0.0310  0.2447  0.0453
 5091TIP3    H115237   4.697   4.397   5.595  0.2309  0.1815 -0.5691
 5091TIP3    H215238   4.759   4.266   5.552  0.6537 -0.2548  1.2524
 5092TIP3   OH215239   2.754   4.786   3.568  0.3479 -0.1439  0.1982
 5092TIP3    H115240   2.717   4.813   3.483  0.7889 -0.4071 -0.0831
 5092TIP3    H215241   2.849   4.785   3.553  0.5837  1.7102  1.2490
 5093TIP3   OH215242   2.512   5.365   2.636  0.0169 -0.1385 -0.0340
 5093TIP3    H115243   2.507   5.295   2.572  2.2432 -1.9616  1.6120
 5093TIP3    H215244   2.569   5.431   2.596  1.4248 -1.2744  0.0311
 5094TIP3   OH215245   0.834   3.787   0.193 -0.4599  0.4134 -0.0474
 5094TIP3    H115246   0.881   3.707   0.170  0.7844  1.2250 -0.4054
 5094TIP3    H215247   0.747   3.757   0.219  0.1187 -1.0936  0.2420
 5095TIP3   OH215248   6.579   5.078   1.421  0.7242  0.4137  0.1005
 5095TIP3    H115249   6.645   5.093   1.489  0.7425  1.2469 -0.0893
 5095TIP3    H215250   6.605   4.995   1.381  0.7596 -0.0477  1.0445
 5096TIP3   OH215251   1.815   1.169   4.352  0.4651 -0.1584  0.1214
 5096TIP3    H115252   1.787   1.167   4.444 -0.6236  1.1495 -0.1554
 5096TIP3    H215253   1.896   1.118   4.351  0.8067  0.2743  1.9213
 5097TIP3   OH215254   4.531   5.547   4.763 -0.0784 -0.0774  0.0811
 5097TIP3    H115255   4.611   5.592   4.789 -1.9270  2.0220  2.7426
 5097TIP3    H215256   4.510   5.583   4.677 -0.3163  2.7330  1.1884
 5098TIP3   OH215257   0.172   1.220   5.629  0.5105  0.0657 -0.6939
 5098TIP3    H115258   0.117   1.291   5.662  0.9813  1.5348 -2.8682
 5098TIP3    H215259   0.122   1.183   5.556  1.5064  0.0840 -1.4004
 5099TIP3   OH215260   2.324   0.286   5.749  0.1888 -0.2487  0.4361
 5099TIP3    H115261   2.384   0.319   5.682  0.5505 -1.6681  0.0267
 5099TIP3    H215262   2.351   0.331   5.829 -1.5921  3.1254 -0.6467
 5100TIP3   OH215263   3.739   3.770   4.480 -0.0825  0.3580  0.1114
 5100TIP3    H115264   3.820   3.722   4.498 -0.8135 -0.3023  1.9391
 5100TIP3    H215265   3.674   3.729   4.537 -0.9857  2.8576  1.0140
 5101TIP3   OH215266   4.918   1.484   5.332 -0.0345  1.0628 -0.4477
 5101TIP3    H115267   4.958   1.528   5.407 -0.9669  0.2480  0.5611
 5101TIP3    H215268   4.894   1.556   5.273 -0.1914  1.8025  0.4834
 5102TIP3   OH215269   3.063   1.226   4.303 -0.4010 -0.6660 -0.4406
 5102TIP3    H115270   3.132   1.175   4.347 -0.5833 -1.8661 -1.4908
 5102TIP3    H215271   3.110   1.295   4.256 -0.1997  0.6320  1.5489
 5103TIP3   OH215272   0.707   5.994   5.843 -0.5391  0.9560  0.3151
 5103TIP3    H115273   0.725   6.010   5.936 -1.2674 -1.0759  0.8687
 5103TIP3    H215274   0.617   6.022   5.831 -0.6090  0.7608  0.3678
 5104TIP3   OH215275   2.415   2.973   2.457  0.1186 -0.2387 -0.2478
 5104TIP3    H115276   2.441   2.979   2.365 -1.7446  0.6420 -0.7663
 5104TIP3    H215277   2.343   2.910   2.458  2.1293 -2.7008  1.1480
 5105TIP3   OH215278   0.649   6.403   1.665 -0.1777 -0.5155 -0.5513
 5105TIP3    H115279   0.718   6.359   1.714 -0.3454  1.9718  2.1626
 5105TIP3    H215280   0.568   6.373   1.706 -0.3708  0.8156  0.0989
 5106TIP3   OH215281   3.702   0.339   0.014  0.6066 -0.1398  0.0465
 5106TIP3    H115282   3.705   0.378   0.101 -0.2151  1.4804 -0.6065
 5106TIP3    H215283   3.676   0.248   0.029  0.8345  0.0090  1.4915
 5107TIP3   OH215284   3.407   5.030   1.207 -0.8963 -0.1420 -0.3815
 5107TIP3    H115285   3.430   4.970   1.278  0.5096 -0.3540 -0.9682
 5107TIP3    H215286   3.450   5.112   1.230 -2.0792  0.3793 -0.0176
 5108TIP3   OH215287   3.160   4.012   5.562 -0.0936  0.2503  0.3568
 5108TIP3    H115288   3.162   3.917   5.569 -0.7488  0.2619  0.7793
 5108TIP3    H215289   3.183   4.043   5.650 -1.2685  0.4593  0.6112
 5109TIP3   OH215290   2.361   4.239   0.576 -0.0074 -0.0567  0.0722
 5109TIP3    H115291   2.276   4.243   0.619  0.2562  1.1706  0.5054
 5109TIP3    H215292   2.410   4.314   0.610  0.0166  1.3659 -2.7620
 5110TIP3   OH215293   6.778   3.381   2.934 -0.2331  0.0333 -0.2638
 5110TIP3    H115294   6.752   3.352   3.021 -2.4642 -2.1131 -1.5271
 5110TIP3    H215295   6.749   3.311   2.875  0.0513  1.9406 -2.8614
 5111TIP3   OH215296   4.715   4.172   3.806  0.2649 -0.1789  0.9235
 5111TIP3    H115297   4.628   4.212   3.799  0.5035  0.6180  2.2047
 5111TIP3    H215298   4.744   4.162   3.715 -1.1440 -0.4303  0.4811
 5112TIP3   OH215299   4.363   1.826   4.866 -0.4583 -0.0699 -0.2044
 5112TIP3    H115300   4.430   1.856   4.805 -0.1410 -0.6072 -0.1199
 5112TIP3    H215301   4.403   1.837   4.952 -0.8435  0.5317 -0.0957
 5113TIP3   OH215302   0.999   3.208   4.000 -0.0105  0.1764 -0.0034
 5113TIP3    H115303   1.005   3.253   4.085  2.2037 -0.1519  0.0700
 5113TIP3    H215304   1.063   3.136   4.007 -0.4938 -0.4421 -1.6188
 5114TIP3   OH215305   1.281   3.432   3.543  0.4437 -0.9146 -0.1266
 5114TIP3    H115306   1.193   3.415   3.510  0.8085 -3.4843  0.0447
 5114TIP3    H215307   1.327   3.472   3.468 -0.2439 -1.6235 -0.9407
 5115TIP3   OH215308   6.549   0.948   4.292 -0.4801 -0.0055  0.2817
 5115TIP3    H115309   6.466   0.968   4.335  1.1125  0.1113  3.5925
 5115TIP3    H215310   6.533   0.864   4.248 -2.0082 -0.6010  1.8586
 5116TIP3   OH215311   6.940   2.093   1.945  0.0107  0.8144 -0.1179
 5116TIP3    H115312   6.985   2.173   1.975  0.9144  0.4203 -0.3843
 5116TIP3    H215313   6.993   2.063   1.871  0.6589 -0.9494  1.0118
 5117TIP3   OH215314   6.001   6.513   0.482 -0.1252  0.4172 -0.5702
 5117TIP3    H115315   6.011   6.463   0.401  1.7495 -0.0355 -0.0977
 5117TIP3    H215316   5.977   6.601   0.453  2.2206  0.7307 -1.7416
 5118TIP3   OH215317   6.440   5.064   2.382  0.0939 -0.0613  0.2024
 5118TIP3    H115318   6.397   5.099   2.461 -0.7653  0.1558 -0.3451
 5118TIP3    H215319   6.530   5.047   2.409  0.3293  1.8355  0.7094
 5119TIP3   OH215320   3.304   6.013   4.703  0.7667 -0.2604 -0.5764
 5119TIP3    H115321   3.342   6.096   4.675  3.3228 -1.4828 -1.1143
 5119TIP3    H215322   3.326   6.006   4.796  1.6883 -0.8457 -0.8209
 5120TIP3   OH215323   1.819   2.451   1.505  0.3355  0.3530  0.6474
 5120TIP3    H115324   1.743   2.398   1.527  1.1942 -0.8042  0.9070
 5120TIP3    H215325   1.830   2.438   1.410  0.1567  0.5934  0.5935
 5121TIP3   OH215326   3.197   1.126   0.757  0.4692 -0.3335  0.0620
 5121TIP3    H115327   3.243   1.181   0.693 -1.6996  0.7121 -0.7070
 5121TIP3    H215328   3.140   1.071   0.704 -0.8715  0.0634  1.0391
 5122TIP3   OH215329   3.344   0.683   5.113  0.2725 -0.2448  0.5357
 5122TIP3    H115330   3.264   0.692   5.165  0.5767  1.3300  0.7915
 5122TIP3    H215331   3.313   0.680   5.022 -0.2372 -2.7220  0.7157
 5123TIP3   OH215332   5.821   1.358   1.550  0.1859  0.2950 -0.7330
 5123TIP3    H115333   5.761   1.288   1.576 -0.8683  1.6202  0.5948
 5123TIP3    H215334   5.876   1.319   1.483  0.6761 -2.2920  1.0477
 5124TIP3   OH215335   1.892   3.659   3.320  0.1900  0.4609  0.1113
 5124TIP3    H115336   1.977   3.616   3.313  0.1796  0.4721 -0.0991
 5124TIP3    H215337   1.859   3.662   3.230 -0.4612 -0.4036  0.3098
 5125TIP3   OH215338   6.856   6.256   5.666 -0.4069 -0.0331  0.2536
 5125TIP3    H115339   6.779   6.247   5.723 -0.8919  1.7544 -0.0304
 5125TIP3    H215340   6.839   6.337   5.618  1.5815  0.2959  0.0464
 5126TIP3   OH215341   0.961   0.458   3.654  0.4443 -1.0021  0.4028
 5126TIP3    H115342   0.964   0.367   3.622  0.9732 -0.5379 -0.9359
 5126TIP3    H215343   0.885   0.496   3.610  0.1957 -0.8017  0.9990
 5127TIP3   OH215344   3.321   2.164   4.092  0.2468  0.1742 -0.1865
 5127TIP3    H115345   3.354   2.234   4.035  0.2793 -0.8716 -1.4992
 5127TIP3    H215346   3.244   2.131   4.046  0.0029 -0.3965  0.6158
 5128TIP3   OH215347   5.458   2.749   4.505  0.0730 -0.4704 -0.2515
 5128TIP3    H115348   5.468   2.844   4.516 -0.0832 -0.6981  2.7196
 5128TIP3    H215349   5.391   2.740   4.438 -0.4415  1.5554 -0.0857
 5129TIP3   OH215350   6.416   2.938   4.428 -0.1830 -0.0009  0.1489
 5129TIP3    H115351   6.412   2.845   4.406 -0.4337  0.0660 -0.0981
 5129TIP3    H215352   6.507   2.953   4.453 -0.0501 -0.2315 -0.1904
 5130TIP3   OH215353   1.309   3.484   1.292  0.3912 -0.0586 -0.2242
 5130TIP3    H115354   1.387   3.539   1.296 -1.0735  2.0931  1.1732
 5130TIP3    H215355   1.241   3.542   1.255 -1.1100 -1.0729  0.8408
 5131TIP3   OH215356   2.710   3.925   2.457  0.1524 -0.6958  0.0234
 5131TIP3    H115357   2.683   3.895   2.543  2.5654 -0.7267  0.8636
 5131TIP3    H215358   2.663   3.869   2.395 -0.6524 -1.5335  1.3617
 5132TIP3   OH215359   1.541   2.909   1.581  0.0251  0.2309  0.1688
 5132TIP3    H115360   1.535   2.978   1.514  0.8735 -1.6522 -1.9734
 5132TIP3    H215361   1.450   2.881   1.594 -0.2590  1.3085  0.6065
 5133TIP3   OH215362   1.539   4.291   0.534  0.0065 -0.3116 -0.5215
 5133TIP3    H115363   1.611   4.255   0.586  1.4520  0.5593 -1.8582
 5133TIP3    H215364   1.519   4.222   0.471 -0.6406 -0.7079  0.0909
 5134TIP3   OH215365   1.678   6.075   1.521 -0.3733 -0.0421 -0.0211
 5134TIP3    H115366   1.629   6.132   1.462 -1.3660 -0.4942  0.3427
 5134TIP3    H215367   1.611   6.025   1.567  0.4694 -1.2437 -0.0649
 5135TIP3   OH215368   2.195   1.746   0.186 -0.1029 -0.3277  0.0719
 5135TIP3    H115369   2.246   1.755   0.106  0.2436 -0.6777  0.2483
 5135TIP3    H215370   2.108   1.777   0.163 -0.1032 -0.7719 -0.5460
 5136TIP3   OH215371   2.701   2.153   1.152  0.2084 -0.1872 -0.2396
 5136TIP3    H115372   2.629   2.093   1.131  1.3688 -1.8991  0.3907
 5136TIP3    H215373   2.779   2.105   1.125  1.1753  1.2140  0.0048
 5137TIP3   OH215374   0.536   2.621   5.740 -0.0375 -0.7019 -0.2362
 5137TIP3    H115375   0.534   2.606   5.645  1.9944 -0.7397 -0.3162
 5137TIP3    H215376   0.629   2.632   5.760 -0.2251 -2.6137  2.0654
 5138TIP3   OH215377   6.372   1.671   4.711 -0.1808  0.2171  0.1308
 5138TIP3    H115378   6.296   1.645   4.659 -0.3803 -0.0128  0.5276
 5138TIP3    H215379   6.354   1.762   4.737 -0.4383  0.0829  0.4276
 5139TIP3   OH215380   0.510   0.590   3.048 -0.2609  0.0070  0.3604
 5139TIP3    H115381   0.458   0.536   2.989  1.5272 -0.7573 -0.5978
 5139TIP3    H215382   0.504   0.545   3.133  1.0384 -1.6820 -0.3711
 5140TIP3   OH215383   5.134   5.443   0.289  0.1746  0.1425 -0.2291
 5140TIP3    H115384   5.077   5.510   0.251 -2.1344 -1.9411 -0.7494
 5140TIP3    H215385   5.115   5.445   0.383 -1.1308 -0.7877 -0.4456
 5141TIP3   OH215386   2.874   3.658   4.327  0.5095  0.4517  0.3142
 5141TIP3    H115387   2.813   3.590   4.299 -0.1275  1.9827 -2.3369
 5141TIP3    H215388   2.842   3.739   4.287  2.6683  1.8710  1.2013
 5142TIP3   OH215389   6.140   2.868   5.220  0.2321  0.3599  0.8012
 5142TIP3    H115390   6.067   2.825   5.266 -0.6026  1.0166  0.1355
 5142TIP3    H215391   6.216   2.852   5.275 -0.3225 -0.7599  1.2840
 5143TIP3   OH215392   1.496   6.099   4.420  0.3376 -0.4374  0.3654
 5143TIP3    H115393   1.463   6.033   4.481 -1.7384  1.7719  1.8166
 5143TIP3    H215394   1.420   6.125   4.369  0.8452  1.5605  0.5565
 5144TIP3   OH215395   1.523   1.590   3.497  0.3237  0.1862  0.2197
 5144TIP3    H115396   1.541   1.580   3.404  1.6301  1.6084  0.2639
 5144TIP3    H215397   1.446   1.536   3.513 -0.9016  1.1188 -2.0020
 5145TIP3   OH215398   6.107   5.822   0.520  0.3676 -0.1469 -0.6603
 5145TIP3    H115399   6.121   5.746   0.577 -3.4521 -1.1722 -0.8562
 5145TIP3    H215400   6.054   5.882   0.572 -0.7151  0.2037 -2.0903
 5146TIP3   OH215401   4.732   5.092   5.870 -0.0172 -0.3906 -0.2593
 5146TIP3    H115402   4.826   5.093   5.891  0.2254  1.2255 -1.2566
 5146TIP3    H215403   4.706   5.000   5.882  1.3998 -0.6488  1.2325
 5147TIP3   OH215404   7.086   5.749   2.254 -0.0190 -0.1644 -0.2170
 5147TIP3    H115405   7.107   5.765   2.162  1.7723 -0.6087  0.0839
 5147TIP3    H215406   7.168   5.762   2.300 -0.1345 -2.9078  0.9473
 5148TIP3   OH215407   3.016   4.571   1.870  0.1478 -0.4889 -0.0373
 5148TIP3    H115408   2.939   4.623   1.849  0.1821 -0.3810  0.1029
 5148TIP3    H215409   3.004   4.489   1.822  0.6245  0.0742 -1.1639
 5149TIP3   OH215410   3.185   2.076   0.311  0.1245 -0.0339 -0.2148
 5149TIP3    H115411   3.164   2.021   0.236  1.0651 -0.2171 -0.3483
 5149TIP3    H215412   3.204   2.015   0.382 -0.6224  0.1384  0.1480
 5150TIP3   OH215413   3.122   3.129   0.800 -0.0672 -0.0120 -0.3420
 5150TIP3    H115414   3.154   3.219   0.790  0.0881  0.0707  0.7435
 5150TIP3    H215415   3.200   3.075   0.793 -0.0272  0.0088 -0.0537
 5151TIP3   OH215416   0.430   3.316   1.884 -0.5122  0.1321 -0.5039
 5151TIP3    H115417   0.472   3.293   1.966  1.0937  0.2730 -1.2460
 5151TIP3    H215418   0.379   3.395   1.904 -0.2558  0.0742  0.3873
 5152TIP3   OH215419   0.936   6.311   0.946  0.3446 -0.1117  0.5117
 5152TIP3    H115420   0.937   6.297   1.041  6.4740  0.8295  1.0064
 5152TIP3    H215421   0.944   6.406   0.937 -1.7852 -0.0280 -1.1437
 5153TIP3   OH215422   4.011   1.382   0.977  0.1284 -0.3630 -0.2808
 5153TIP3    H115423   4.082   1.384   0.912  0.1327 -0.3727 -0.2762
 5153TIP3    H215424   3.938   1.340   0.931 -0.0906  0.2403 -0.5022
 5154TIP3   OH215425   5.443   0.894   0.672 -0.0464 -0.0339  0.3344
 5154TIP3    H115426   5.460   0.865   0.582 -1.5564 -0.7700  0.2451
 5154TIP3    H215427   5.380   0.965   0.663  1.5774  1.5125  0.7191
 5155TIP3   OH215428   6.120   6.807   5.446  0.3338  0.3617 -0.2229
 5155TIP3    H115429   6.146   6.810   5.538  1.6922 -1.1685 -0.5137
 5155TIP3    H215430   6.124   6.714   5.423 -3.6738  0.1533 -0.8581
 5156TIP3   OH215431   3.814   6.036   0.333  0.3184 -0.2150 -0.1610
 5156TIP3    H115432   3.867   5.957   0.341  1.7143  0.6998  0.1047
 5156TIP3    H215433   3.841   6.090   0.408  1.3244  1.5820 -1.7254
 5157TIP3   OH215434   6.377   0.511   0.359 -0.1223 -0.0223  0.3479
 5157TIP3    H115435   6.350   0.457   0.433 -0.3003 -1.1212 -0.4986
 5157TIP3    H215436   6.412   0.591   0.400  1.0151 -1.1320  1.6861
 5158TIP3   OH215437   0.816   0.269   4.396 -0.2383  0.1488  0.3130
 5158TIP3    H115438   0.882   0.333   4.372  0.2406 -0.7303 -0.8103
 5158TIP3    H215439   0.746   0.320   4.437  0.0090  1.4050 -0.7924
 5159TIP3   OH215440   5.499   0.652   3.760 -0.4863  0.5027  0.2480
 5159TIP3    H115441   5.427   0.589   3.756  0.7054 -0.9214  0.5058
 5159TIP3    H215442   5.550   0.634   3.681  0.1206  0.8512  0.5594
 5160TIP3   OH215443   6.337   2.125   2.779  0.5110  0.5936  0.5068
 5160TIP3    H115444   6.421   2.122   2.825  0.8549  0.6066 -0.1185
 5160TIP3    H215445   6.300   2.210   2.803  0.4552  0.3967  1.1559
 5161TIP3   OH215446   5.362   0.300   4.358  0.2192 -0.1435 -0.5607
 5161TIP3    H115447   5.419   0.257   4.421  0.6508 -1.4578 -1.7794
 5161TIP3    H215448   5.276   0.264   4.375  0.5482 -1.4220 -1.4625
 5162TIP3   OH215449   3.027   4.409   1.169 -0.5461 -0.1581  0.1043
 5162TIP3    H115450   3.075   4.397   1.251 -1.6710 -1.4854  0.6146
 5162TIP3    H215451   2.937   4.384   1.190 -0.7704 -0.9935 -1.6581
 5163TIP3   OH215452   3.807   4.161   4.716  0.2004  0.5122 -0.1390
 5163TIP3    H115453   3.819   4.256   4.717  1.2453  0.4551 -2.0587
 5163TIP3    H215454   3.895   4.126   4.703 -0.4224 -0.5854 -1.7502
 5164TIP3   OH215455   0.464   3.810   3.066  0.3210  0.3978  0.2426
 5164TIP3    H115456   0.385   3.784   3.111  0.8189 -1.2450  0.2382
 5164TIP3    H215457   0.456   3.773   2.978  0.7181  0.9575 -0.0464
 5165TIP3   OH215458   0.661   0.375   1.714 -0.2763  0.2354 -0.0238
 5165TIP3    H115459   0.709   0.299   1.682  1.2201  0.7579  0.8895
 5165TIP3    H215460   0.719   0.450   1.697 -0.6167  0.8495  1.3604
 5166TIP3   OH215461   4.796   0.691   3.924 -0.4622 -0.1045  0.1945
 5166TIP3    H115462   4.750   0.634   3.986 -0.8338 -1.5647 -1.3617
 5166TIP3    H215463   4.728   0.721   3.864  0.2110 -0.3672 -0.7161
 5167TIP3   OH215464   3.867   0.037   4.354  0.5831 -0.3461 -0.6193
 5167TIP3    H115465   3.882   0.058   4.446 -1.0850 -3.0009  0.3836
 5167TIP3    H215466   3.773   0.050   4.342  0.5724 -1.2015 -1.5737
 5168TIP3   OH215467   6.119   4.597   5.795 -0.3042  0.5889  0.3612
 5168TIP3    H115468   6.174   4.577   5.870 -0.4045  0.1985  0.3309
 5168TIP3    H215469   6.104   4.691   5.801  1.1723  0.8851 -0.1884
 5169TIP3   OH215470   1.741   1.001   3.158  0.2600 -0.2208 -0.0949
 5169TIP3    H115471   1.703   1.073   3.208  0.6540 -0.6807  0.8833
 5169TIP3    H215472   1.665   0.948   3.130  0.0989 -0.6521  1.1009
 5170TIP3   OH215473   4.661   2.315   4.302  0.0171  0.0292 -0.4221
 5170TIP3    H115474   4.676   2.236   4.354  2.7862  0.2403 -0.7669
 5170TIP3    H215475   4.631   2.283   4.217  0.2352 -0.5847 -0.2727
 5171TIP3   OH215476   5.609   0.219   0.929  0.1400 -0.0003  0.0042
 5171TIP3    H115477   5.615   0.264   0.845  1.0068  1.0480  0.6154
 5171TIP3    H215478   5.565   0.282   0.986  0.6937 -0.2159  0.6713
 5172TIP3   OH215479   0.759   4.427   0.582 -0.0525 -0.0217  0.1003
 5172TIP3    H115480   0.699   4.417   0.508 -1.1865  1.9035  0.6933
 5172TIP3    H215481   0.726   4.365   0.648 -0.0820 -0.4971 -0.3558
 5173TIP3   OH215482   3.807   6.668   2.963 -0.1481 -0.9303 -0.1172
 5173TIP3    H115483   3.796   6.623   3.047 -3.3304 -0.6108 -0.2449
 5173TIP3    H215484   3.717   6.682   2.932  0.7593  2.8771 -1.4952
 5174TIP3   OH215485   4.434   1.561   2.834  0.2824 -0.5286 -0.0339
 5174TIP3    H115486   4.344   1.590   2.847  0.4437 -0.3632  0.7949
 5174TIP3    H215487   4.483   1.606   2.903  0.9410 -0.8906 -0.2598
 5175TIP3   OH215488   3.285   1.520   5.461 -0.0552 -0.0014  0.0259
 5175TIP3    H115489   3.297   1.553   5.550 -1.8124 -2.0460  1.1144
 5175TIP3    H215490   3.322   1.432   5.464 -2.0294 -0.8932 -0.6118
 5176TIP3   OH215491   2.186   5.052   2.663  0.0994  0.0422  0.1442
 5176TIP3    H115492   2.097   5.030   2.638  0.7345 -0.3299 -2.0178
 5176TIP3    H215493   2.204   4.998   2.740 -0.6128 -2.0629 -1.0838
 5177TIP3   OH215494   4.632   5.825   0.775  0.3172 -0.2393 -0.2544
 5177TIP3    H115495   4.706   5.882   0.794 -0.5413  1.0375 -0.5826
 5177TIP3    H215496   4.616   5.777   0.856  0.6064  0.5220  0.2550
 5178TIP3   OH215497   2.547   2.110   4.312  0.0504 -0.2895  0.0317
 5178TIP3    H115498   2.572   2.138   4.400 -0.5285 -3.2859  1.2626
 5178TIP3    H215499   2.628   2.113   4.261  0.4125  1.3524  0.6345
 5179TIP3   OH215500   2.213   2.230   1.393  0.1475 -0.4285 -0.1278
 5179TIP3    H115501   2.188   2.150   1.347 -0.5737 -0.0630 -0.3815
 5179TIP3    H215502   2.152   2.235   1.467  2.1031 -1.7069  1.7002
 5180TIP3   OH215503   6.126   2.109   4.341  0.0624  0.4027 -0.0281
 5180TIP3    H115504   6.050   2.135   4.288 -1.1289 -0.8898  0.9725
 5180TIP3    H215505   6.124   2.168   4.416  0.1712  0.4802 -0.0845
 5181TIP3   OH215506   4.518   4.437   5.382 -0.0070  0.2700 -0.5811
 5181TIP3    H115507   4.568   4.487   5.447  0.3526 -0.6626 -0.1329
 5181TIP3    H215508   4.433   4.481   5.379 -0.0991  0.2083  0.6657
 5182TIP3   OH215509   2.349   1.809   3.946 -0.1752  0.2309 -0.1483
 5182TIP3    H115510   2.415   1.758   3.898  0.9471  1.8054 -0.3965
 5182TIP3    H215511   2.315   1.871   3.881  0.2334  1.3637  0.6768
 5183TIP3   OH215512   1.736   3.226   1.369 -0.3399  0.4346  0.2336
 5183TIP3    H115513   1.704   3.144   1.331  0.7797 -0.2667  0.7559
 5183TIP3    H215514   1.664   3.288   1.357 -0.6660 -0.2134 -1.4946
 5184TIP3   OH215515   1.887   6.636   0.866 -0.0568  0.1831  0.3971
 5184TIP3    H115516   1.867   6.728   0.852  0.2026  0.2186  0.2598
 5184TIP3    H215517   1.972   6.623   0.823  0.6590  0.2436  1.7454
 5185TIP3   OH215518   1.303   0.043   2.065 -0.2430  0.2561 -0.1334
 5185TIP3    H115519   1.308   0.138   2.054  0.6564  0.4377  1.4032
 5185TIP3    H215520   1.218   0.028   2.106 -0.7029  0.3116 -1.0598
 5186TIP3   OH215521   2.611   4.539   2.873 -0.5215 -0.7297 -0.3999
 5186TIP3    H115522   2.619   4.634   2.862 -1.0790 -0.6684 -0.3025
 5186TIP3    H215523   2.660   4.502   2.800 -0.7875 -0.3610 -0.7703
 5187TIP3   OH215524   6.023   2.371   1.619 -0.3218  0.3914 -1.0701
 5187TIP3    H115525   6.103   2.329   1.652 -0.6283  0.4030 -0.3016
 5187TIP3    H215526   6.040   2.384   1.526  2.2051  4.0178 -0.3285
 5188TIP3   OH215527   6.523   2.873   2.668 -0.0658 -0.0051  0.0887
 5188TIP3    H115528   6.573   2.951   2.644 -0.5588 -0.1213 -1.4833
 5188TIP3    H215529   6.506   2.830   2.584 -0.7378 -1.2326  0.8274
 5189TIP3   OH215530   6.790   0.178   0.024 -0.2156 -0.2890  0.4635
 5189TIP3    H115531   6.848   0.215  -0.043  1.5008  0.9453  2.4971
 5189TIP3    H215532   6.846   0.117   0.073 -1.4308 -1.1849  0.7749
 5190TIP3   OH215533   2.297   1.296   5.000 -0.6945 -0.5538 -0.2477
 5190TIP3    H115534   2.391   1.295   4.984 -0.6060 -0.5118  0.2643
 5190TIP3    H215535   2.278   1.386   5.026 -0.9067 -0.5188 -0.5165
 5191TIP3   OH215536   6.122   2.973   4.945  1.0029  0.0651 -0.3617
 5191TIP3    H115537   6.169   2.950   5.025  0.5940 -0.9766 -0.4035
 5191TIP3    H215538   6.087   2.890   4.913 -2.0596  0.9156  0.4350
 5192TIP3   OH215539   1.714   2.106   5.197  0.2950 -0.3806  0.2034
 5192TIP3    H115540   1.722   2.137   5.107 -2.3347  1.1684  0.3827
 5192TIP3    H215541   1.742   2.180   5.251 -0.5476 -0.3597  0.6335
 5193TIP3   OH215542   1.499   4.712   2.779  0.7654 -0.0886 -0.0049
 5193TIP3    H115543   1.444   4.693   2.855 -0.5325 -0.3145 -0.9754
 5193TIP3    H215544   1.438   4.723   2.707  1.9917 -0.2127 -1.1000
 5194TIP3   OH215545   0.529   3.985   5.081 -0.0289  0.2596 -0.3990
 5194TIP3    H115546   0.624   3.993   5.072  0.0550 -0.8770 -0.6030
 5194TIP3    H215547   0.495   4.019   4.998  0.2513 -0.2603 -0.7347
 5195TIP3   OH215548   3.633   5.351   3.551 -0.1660 -0.0021  0.0121
 5195TIP3    H115549   3.554   5.380   3.595  1.1139  0.8151  1.8878
 5195TIP3    H215550   3.606   5.273   3.501 -2.5292  1.3693 -0.9898
 5196TIP3   OH215551   0.154   2.917   5.606  0.3076 -0.3621  0.3895
 5196TIP3    H115552   0.161   2.957   5.519  0.2068  2.7966  1.7013
 5196TIP3    H215553   0.244   2.895   5.629  0.6047  0.6779  0.2746
 5197TIP3   OH215554   3.382   1.526   1.179  0.9112  0.5974 -0.0062
 5197TIP3    H115555   3.402   1.437   1.150  1.9946  0.7805  0.1218
 5197TIP3    H215556   3.323   1.515   1.253  2.2654 -0.1070  1.0237
 5198TIP3   OH215557   6.245   0.529   1.641 -0.0457 -0.5204  0.6873
 5198TIP3    H115558   6.252   0.570   1.728  0.8747  1.2920 -0.1804
 5198TIP3    H215559   6.328   0.550   1.598 -1.3125  0.5552 -1.4044
 5199TIP3   OH215560   3.423   3.316   5.244  0.7048  0.4835  0.2769
 5199TIP3    H115561   3.365   3.241   5.253 -2.9826  2.5860 -3.1683
 5199TIP3    H215562   3.436   3.347   5.334 -0.8837 -1.8987  1.4342
 5200TIP3   OH215563   0.431   2.583   3.449 -0.0743 -0.8007 -0.4730
 5200TIP3    H115564   0.367   2.647   3.480  0.3395  0.1708 -1.5525
 5200TIP3    H215565   0.484   2.564   3.526  0.2889  0.7666 -0.2975
 5201TIP3   OH215566   5.222   2.578   2.946  0.0212  0.5510 -0.1240
 5201TIP3    H115567   5.251   2.648   3.004  1.4733 -0.9535  1.0642
 5201TIP3    H215568   5.182   2.514   3.005  1.7224 -1.1166 -0.7052
 5202TIP3   OH215569   2.519   5.693   4.673 -0.2920  0.1729  0.2478
 5202TIP3    H115570   2.544   5.603   4.695  1.8017  1.3692  3.6883
 5202TIP3    H215571   2.530   5.699   4.579 -0.0138 -3.0199 -0.0306
 5203TIP3   OH215572   4.795   3.456   1.110 -0.5002  0.3945 -0.3135
 5203TIP3    H115573   4.802   3.550   1.128  1.0439  0.3326 -0.4612
 5203TIP3    H215574   4.869   3.418   1.157 -1.2579 -0.7855 -0.0604
 5204TIP3   OH215575   2.678   0.989   0.293  0.5150 -0.0782 -0.8554
 5204TIP3    H115576   2.682   0.894   0.287  1.4416 -0.1317  0.3524
 5204TIP3    H215577   2.769   1.018   0.292  0.2413  0.8129 -1.3606
 5205TIP3   OH215578   4.692   0.181   5.690  0.7216  0.6449  0.4258
 5205TIP3    H115579   4.639   0.102   5.705 -0.6771  1.5317  0.3292
 5205TIP3    H215580   4.762   0.176   5.755  0.8863 -0.8522  0.1793
 5206TIP3   OH215581   5.141   5.753   0.793 -0.1693 -1.0356 -0.1528
 5206TIP3    H115582   5.207   5.802   0.843 -0.2548 -0.8259 -0.2427
 5206TIP3    H215583   5.192   5.687   0.746 -0.2297 -2.0837  1.1995
 5207TIP3   OH215584   4.375   0.721   4.254  0.0818 -0.1126 -0.5062
 5207TIP3    H115585   4.376   0.696   4.162  1.1746 -0.5406 -0.4012
 5207TIP3    H215586   4.299   0.677   4.291 -0.5551  0.3303 -1.2649
 5208TIP3   OH215587   1.196   5.583   1.580  0.5377  0.3113  1.0170
 5208TIP3    H115588   1.223   5.496   1.549 -0.4483  0.1251  0.6434
 5208TIP3    H215589   1.104   5.589   1.556  0.7333  1.6897  0.5682
 5209TIP3   OH215590   3.934   4.019   1.313 -0.1652 -0.1619  0.6662
 5209TIP3    H115591   4.024   4.052   1.307 -0.1546  0.1252  2.1951
 5209TIP3    H215592   3.887   4.085   1.364 -0.7651 -1.2719  1.5826
 5210TIP3   OH215593   0.587   3.963   4.327 -0.0222 -0.5769  0.2180
 5210TIP3    H115594   0.625   3.889   4.374 -2.2434 -1.9742 -0.0454
 5210TIP3    H215595   0.574   4.030   4.394 -0.8132 -1.5959  1.1230
 5211TIP3   OH215596   3.012   3.391   2.298  0.0661 -0.5748 -0.1338
 5211TIP3    H115597   2.944   3.374   2.232  0.0858 -0.8893 -0.0747
 5211TIP3    H215598   3.042   3.304   2.324  0.7387 -0.4314 -0.4126
 5212TIP3   OH215599   2.475   3.423   0.474 -0.1716 -0.1979 -0.0864
 5212TIP3    H115600   2.447   3.507   0.438 -0.9964 -0.7329 -0.7352
 5212TIP3    H215601   2.554   3.444   0.524  0.3324  0.7800 -1.2145
 5213TIP3   OH215602   5.768   0.669   2.943  0.2048 -0.7276  0.7373
 5213TIP3    H115603   5.827   0.595   2.956  0.9103 -0.1901  0.6705
 5213TIP3    H215604   5.814   0.744   2.982  1.0389  0.3492 -2.0246
 5214TIP3   OH215605   5.859   5.494   5.225  0.4196 -0.5538  0.0216
 5214TIP3    H115606   5.800   5.564   5.195  0.5067 -0.6141 -0.2922
 5214TIP3    H215607   5.868   5.436   5.149  1.8273  0.0925 -0.3307
 5215TIP3   OH215608   6.833   3.522   4.311  0.1820 -0.0798 -0.1376
 5215TIP3    H115609   6.782   3.498   4.234  0.1080 -0.2807 -0.0269
 5215TIP3    H215610   6.891   3.446   4.326 -0.1659 -0.2643  0.3114
 5216TIP3   OH215611   6.705   2.406   0.245  0.4059 -0.0791  0.2163
 5216TIP3    H115612   6.641   2.335   0.244  0.4217 -0.0877 -0.1433
 5216TIP3    H215613   6.772   2.380   0.181  0.8029 -0.0999  0.6336
 5217TIP3   OH215614   1.715   3.284   0.252 -0.7278 -0.2279  0.7010
 5217TIP3    H115615   1.782   3.257   0.189 -0.5450 -2.5195  1.8005
 5217TIP3    H215616   1.764   3.314   0.329 -0.8662 -2.4537  1.7331
 5218TIP3   OH215617   3.353   2.696   4.786 -0.1100 -0.2782 -0.2520
 5218TIP3    H115618   3.438   2.739   4.785  0.1617 -0.7610  0.6680
 5218TIP3    H215619   3.356   2.635   4.712  0.0158  0.3122 -0.7366
 5219TIP3   OH215620   0.319   5.681   0.265  0.2524  0.9091  0.2626
 5219TIP3    H115621   0.346   5.759   0.217  3.7453 -0.6656 -0.6935
 5219TIP3    H215622   0.336   5.609   0.204 -0.0066 -0.8065  2.1067
 5220TIP3   OH215623   6.249   0.935   0.142  0.3395 -0.0947 -0.1395
 5220TIP3    H115624   6.253   1.012   0.087 -1.4420 -1.0858 -1.7574
 5220TIP3    H215625   6.272   0.967   0.230 -0.3275  2.2497 -0.7495
 5221TIP3   OH215626   4.314   1.493   4.252  0.1943  0.2492  0.0420
 5221TIP3    H115627   4.392   1.549   4.251  0.0934  0.5352  2.6715
 5221TIP3    H215628   4.334   1.423   4.190  1.5172  1.6022 -1.1408
 5222TIP3   OH215629   1.221   0.709   5.439  0.0048  1.1979 -0.0697
 5222TIP3    H115630   1.158   0.754   5.383 -0.3446  1.4741  0.5425
 5222TIP3    H215631   1.300   0.703   5.386 -1.2629 -1.4698 -1.8800
 5223TIP3   OH215632   0.186   3.730   2.308 -0.5016 -0.4194 -0.5782
 5223TIP3    H115633   0.178   3.635   2.313 -1.4479 -0.2918  0.6929
 5223TIP3    H215634   0.278   3.747   2.324 -0.3575 -1.1083 -0.6387
 5224TIP3   OH215635   2.621   2.008   2.513  0.2735 -0.0225 -0.7194
 5224TIP3    H115636   2.566   2.087   2.508 -0.9386 -0.5037  2.3486
 5224TIP3    H215637   2.709   2.042   2.529 -0.0860  0.7499 -0.2971
 5225TIP3   OH215638   6.840   6.141   5.319 -0.2304  0.2526 -0.3238
 5225TIP3    H115639   6.931   6.170   5.314 -0.1836  0.2619  0.4773
 5225TIP3    H215640   6.789   6.222   5.322 -0.1251  0.2860  1.4664
 5226TIP3   OH215641   6.209   5.334   0.450  0.0614  0.4653 -0.6131
 5226TIP3    H115642   6.171   5.410   0.406 -0.3716  0.5959 -0.0248
 5226TIP3    H215643   6.304   5.346   0.440  0.0524  1.6868  0.4147
 5227TIP3   OH215644   2.415   6.096   0.867 -0.2249 -0.2306 -0.4017
 5227TIP3    H115645   2.322   6.085   0.889  0.5622 -2.6812  2.2211
 5227TIP3    H215646   2.440   6.014   0.825  1.4837 -1.1472  2.1825
 5228TIP3   OH215647   2.822   2.476   3.756 -0.1480  0.6730 -0.2882
 5228TIP3    H115648   2.818   2.504   3.664 -0.5927 -1.9606 -1.1467
 5228TIP3    H215649   2.731   2.463   3.781  0.0463 -1.3119 -0.4343
 5229TIP3   OH215650   5.524   3.526   4.158  1.2792 -0.3657 -0.7242
 5229TIP3    H115651   5.540   3.599   4.098  0.1869  2.1067  1.7280
 5229TIP3    H215652   5.580   3.544   4.233 -0.1546 -1.1355  0.6034
 5230TIP3   OH215653   6.984   3.180   1.104 -0.3172  0.2348 -0.0854
 5230TIP3    H115654   6.954   3.166   1.014 -0.6025  1.1387 -0.1479
 5230TIP3    H215655   6.967   3.097   1.148 -1.4221  0.1975 -0.5390
 5231TIP3   OH215656   2.539   1.936   1.014  0.5728  0.0303  0.3127
 5231TIP3    H115657   2.581   1.857   1.048  0.3298 -0.1930  0.1005
 5231TIP3    H215658   2.451   1.907   0.989  0.5019  0.3552  0.1801
 5232TIP3   OH215659   0.405   6.318   0.197 -0.1023  0.0785 -0.6895
 5232TIP3    H115660   0.428   6.406   0.170  0.0733 -0.2381 -1.6191
 5232TIP3    H215661   0.469   6.262   0.152  1.2751 -0.3829  1.6781
 5233TIP3   OH215662   0.148   4.618   4.739  0.2192 -0.4113  0.3662
 5233TIP3    H115663   0.121   4.705   4.768  0.9511  0.5696 -1.7425
 5233TIP3    H215664   0.224   4.633   4.683  0.5848 -2.4514  0.2094
 5234TIP3   OH215665   1.082   2.428   0.562  0.3810 -0.0944 -0.6172
 5234TIP3    H115666   1.049   2.512   0.596  0.9450 -0.1953  0.1939
 5234TIP3    H215667   1.177   2.434   0.570  0.3823 -1.2128  0.4207
 5235TIP3   OH215668   5.707   2.228   2.899  0.7550 -0.2215  0.1133
 5235TIP3    H115669   5.764   2.282   2.844 -0.9168  1.0804 -0.4352
 5235TIP3    H215670   5.727   2.256   2.989  1.5037 -0.3265 -0.0189
 5236TIP3   OH215671   0.799   3.326   1.590 -0.5170  0.1298  0.4155
 5236TIP3    H115672   0.888   3.360   1.578 -0.4626 -0.0250  0.3835
 5236TIP3    H215673   0.800   3.240   1.549 -1.5324  1.3546 -2.4032
 5237TIP3   OH215674   2.049   3.475   3.023 -1.0415 -0.8475  0.2114
 5237TIP3    H115675   1.955   3.464   3.008 -1.0602  0.8063 -1.1401
 5237TIP3    H215676   2.089   3.453   2.939 -0.0093 -3.1809  1.2277
 5238TIP3   OH215677   0.262   5.323   0.412 -0.1165 -0.0727  0.4544
 5238TIP3    H115678   0.325   5.395   0.415  0.7442 -0.8325  0.9337
 5238TIP3    H215679   0.197   5.345   0.480 -1.1117  1.3439 -0.8742
 5239TIP3   OH215680   1.677   0.074   0.612  0.3405 -0.0578 -0.2682
 5239TIP3    H115681   1.722  -0.005   0.583 -1.2327 -0.1481 -2.8731
 5239TIP3    H215682   1.588   0.065   0.576 -0.3035  2.2491  0.5447
 5240TIP3   OH215683   5.549   1.182   3.751  0.1875 -0.4684 -0.5944
 5240TIP3    H115684   5.507   1.111   3.799  1.3660 -0.4831  0.4646
 5240TIP3    H215685   5.515   1.175   3.661 -1.9637 -0.5283  0.1695
 5241TIP3   OH215686   4.436   5.072   0.067  0.4122 -0.1190  0.5563
 5241TIP3    H115687   4.500   5.054  -0.002  2.3299  0.5072  2.0566
 5241TIP3    H215688   4.352   5.078   0.022  1.2186 -2.0788 -1.3767
 5242TIP3   OH215689   4.454   2.628   0.403  0.1928  0.5737 -0.1759
 5242TIP3    H115690   4.365   2.609   0.372 -0.0867  1.2763  0.1715
 5242TIP3    H215691   4.462   2.579   0.484 -0.0019  0.7787 -0.0315
 5243TIP3   OH215692   0.792   5.850   1.306 -0.0416 -0.0929 -0.1323
 5243TIP3    H115693   0.862   5.878   1.247  0.0319 -0.0332 -0.0178
 5243TIP3    H215694   0.834   5.846   1.392 -0.6048  1.6466  0.2531
 5244TIP3   OH215695   5.833   5.368   2.011 -0.2893  0.4011  0.2542
 5244TIP3    H115696   5.792   5.327   2.087  1.3829  0.3745  1.1839
 5244TIP3    H215697   5.881   5.297   1.968  1.1486  0.9682  0.8563
 5245TIP3   OH215698   6.887   6.700   5.067  0.5433 -0.1084 -0.0453
 5245TIP3    H115699   6.843   6.671   4.988 -0.6951 -2.6473  1.4625
 5245TIP3    H215700   6.828   6.676   5.138  0.7414  3.6870  1.6595
 5246TIP3   OH215701   0.063   1.179   2.947  0.1328  0.9217 -0.3227
 5246TIP3    H115702   0.150   1.211   2.921  0.7203 -0.8587 -0.7483
 5246TIP3    H215703   0.008   1.257   2.950  2.3628  2.6262  2.8692
 5247TIP3   OH215704   4.955   6.169   5.524 -0.3480  0.0159  0.0659
 5247TIP3    H115705   4.865   6.193   5.505 -0.1601  0.1383 -0.7196
 5247TIP3    H215706   4.970   6.088   5.474  0.9143  1.6741 -2.4521
 5248TIP3   OH215707   2.723   3.763   0.082 -0.0249 -0.1476 -0.1088
 5248TIP3    H115708   2.763   3.849   0.067  0.6264 -0.4860 -0.3709
 5248TIP3    H215709   2.791   3.713   0.127 -0.5807 -0.3733  0.4936
 5249TIP3   OH215710   1.004   4.978   4.406 -0.5039 -0.3008  0.8677
 5249TIP3    H115711   1.045   5.020   4.482  0.4671  1.1689 -0.3991
 5249TIP3    H215712   0.914   5.009   4.407  0.3210  2.5025 -0.3600
 5250TIP3   OH215713   0.807   2.108   5.455 -0.4748  0.1588  0.4980
 5250TIP3    H115714   0.830   2.056   5.532 -1.2358 -1.0904 -0.0907
 5250TIP3    H215715   0.891   2.122   5.411 -0.2506 -0.6214  0.6505
 5251TIP3   OH215716   2.477   0.493   0.003 -0.2287 -0.1313  0.0750
 5251TIP3    H115717   2.455   0.501   0.096 -0.3432  0.9032 -0.0256
 5251TIP3    H215718   2.573   0.497   0.001 -0.1524 -1.5074  0.2502
 5252TIP3   OH215719   4.632   0.956   2.173 -0.0650 -0.4932 -0.2656
 5252TIP3    H115720   4.558   1.011   2.148  0.9080  1.2987  0.5662
 5252TIP3    H215721   4.700   0.977   2.108 -0.1152 -1.7531 -0.7424
 5253TIP3   OH215722   3.660   6.021   3.240 -0.0884  0.0466  0.2003
 5253TIP3    H115723   3.637   6.110   3.268 -0.1365  0.2710 -0.5346
 5253TIP3    H215724   3.579   5.986   3.204 -0.1164 -0.3683  0.6592
 5254TIP3   OH215725   0.678   4.811   3.630  0.2783 -0.4071 -0.5555
 5254TIP3    H115726   0.735   4.734   3.624 -0.3900 -0.8919 -0.6994
 5254TIP3    H215727   0.724   4.871   3.689 -0.1370 -1.7211  1.1589
 5255TIP3   OH215728   6.712   4.596   4.776 -0.1984 -0.1397  0.3045
 5255TIP3    H115729   6.730   4.541   4.852  0.9268 -2.7207 -1.6824
 5255TIP3    H215730   6.617   4.592   4.764 -0.0602 -2.9007 -0.5500
 5256TIP3   OH215731   2.124   3.860   4.517  0.0550  0.1062 -0.1282
 5256TIP3    H115732   2.084   3.928   4.462  1.3075  0.6136 -0.4548
 5256TIP3    H215733   2.082   3.871   4.602  0.8311  1.9238  0.0822
 5257TIP3   OH215734   3.464   4.948   5.838  0.5147 -0.2952  0.1328
 5257TIP3    H115735   3.378   4.934   5.796  0.7049  0.2099 -0.4519
 5257TIP3    H215736   3.469   5.043   5.849  0.4515 -0.4240  1.3729
 5258TIP3   OH215737   2.779   5.046   4.064 -0.2667 -0.0499  0.1902
 5258TIP3    H115738   2.863   5.010   4.037 -0.0881 -0.3060  1.0535
 5258TIP3    H215739   2.800   5.107   4.134 -0.8106 -0.2256  0.5135
 5259TIP3   OH215740   2.042   4.705   1.611 -0.4897 -0.1849  0.3301
 5259TIP3    H115741   2.123   4.676   1.569 -1.5695 -1.8243 -0.7482
 5259TIP3    H215742   2.059   4.701   1.705  0.6194 -0.6696  0.1134
 5260TIP3   OH215743   7.174   0.496   5.176 -0.3188  0.1273  0.1319
 5260TIP3    H115744   7.129   0.476   5.094  0.5242  0.3175 -0.3927
 5260TIP3    H215745   7.119   0.458   5.244  0.3970 -2.6255 -0.6928
 5261TIP3   OH215746   5.298   6.506   0.082  0.4133  0.3473 -0.3165
 5261TIP3    H115747   5.225   6.459   0.123 -0.4608  1.4752 -0.5191
 5261TIP3    H215748   5.376   6.469   0.123 -0.3484  0.3871  1.2692
 5262TIP3   OH215749   5.672   0.774   1.635 -0.3507 -0.0087 -0.3103
 5262TIP3    H115750   5.690   0.860   1.674  0.5217  0.0841 -0.8989
 5262TIP3    H215751   5.743   0.718   1.667 -0.0745 -0.1326 -1.1331
 5263TIP3   OH215752   0.927   1.220   5.335  0.1505  0.1904 -0.1918
 5263TIP3    H115753   0.937   1.201   5.242 -0.5501  0.9104 -0.4284
 5263TIP3    H215754   1.012   1.253   5.363  0.2311  0.4032 -0.6832
 5264TIP3   OH215755   1.711   0.845   2.291 -0.4179  0.2879 -0.4373
 5264TIP3    H115756   1.730   0.859   2.198 -0.4814  2.5490 -0.1681
 5264TIP3    H215757   1.786   0.881   2.337 -1.3006  1.1196  0.4138
 5265TIP3   OH215758  -0.004   5.453   3.699  0.4232  0.2904  0.7514
 5265TIP3    H115759   0.090   5.469   3.693  0.3914  0.4835  0.7397
 5265TIP3    H215760  -0.036   5.464   3.609  0.5822 -1.0775  0.5155
 5266TIP3   OH215761   1.005   1.312   2.192 -0.0327 -0.1006 -0.2451
 5266TIP3    H115762   0.954   1.334   2.270 -1.0367 -0.0820 -0.8804
 5266TIP3    H215763   1.063   1.387   2.179 -0.0509  0.0170  0.3224
 5267TIP3   OH215764   1.453   2.490   4.740 -0.3322  0.0935  0.3395
 5267TIP3    H115765   1.516   2.502   4.669  0.9417 -0.3658  1.3571
 5267TIP3    H215766   1.472   2.560   4.801 -2.2049  1.2078 -0.2587
 5268TIP3   OH215767   1.027   2.845   1.590 -0.4414  0.1823  0.2132
 5268TIP3    H115768   0.984   2.892   1.661  1.3917  2.3671  0.0138
 5268TIP3    H215769   0.975   2.865   1.512  0.4036  2.1572  0.1004
 5269TIP3   OH215770   5.587   4.712   1.631  0.6040 -0.3456 -0.1778
 5269TIP3    H115771   5.524   4.783   1.646 -1.5679 -2.5049  1.9157
 5269TIP3    H215772   5.573   4.687   1.540 -0.3024  0.3584 -0.2523
 5270TIP3   OH215773   0.127   3.147   5.360  0.1749 -0.0810 -0.0221
 5270TIP3    H115774   0.158   3.069   5.314 -1.0492  0.0641 -1.1600
 5270TIP3    H215775   0.039   3.162   5.325 -0.0252  1.1941  0.9570
 5271TIP3   OH215776   1.648   2.217   2.931  0.0196  0.2235  0.8150
 5271TIP3    H115777   1.716   2.268   2.887  1.5267 -1.3138  1.2813
 5271TIP3    H215778   1.581   2.282   2.954  0.6368  1.5577 -0.9074
 5272TIP3   OH215779   3.429   6.574   1.764  0.5883 -0.0891 -0.6046
 5272TIP3    H115780   3.446   6.521   1.687 -0.9567 -1.1163 -0.2696
 5272TIP3    H215781   3.516   6.599   1.796  1.2895 -1.2120 -1.5899
 5273TIP3   OH215782   5.019   2.617   4.159  0.6729 -0.3970 -0.0315
 5273TIP3    H115783   4.954   2.617   4.088  0.8883  2.0324 -0.3249
 5273TIP3    H215784   5.000   2.697   4.208  1.6730 -1.1182  1.6077
 5274TIP3   OH215785   6.966   4.514   3.232  0.1501 -0.0549  0.3972
 5274TIP3    H115786   6.878   4.534   3.200 -0.0892 -0.7241  0.6084
 5274TIP3    H215787   7.024   4.555   3.168 -0.2245  3.3965  2.0622
 5275TIP3   OH215788   2.432   6.027   3.158 -0.0141  0.3286  0.6740
 5275TIP3    H115789   2.347   6.065   3.180 -0.0561 -0.6858  2.5150
 5275TIP3    H215790   2.481   6.029   3.241  1.5246  0.3026 -0.2017
 5276TIP3   OH215791   5.876   2.466   4.534 -0.3431  0.1302 -0.5283
 5276TIP3    H115792   5.819   2.526   4.486 -0.4830  1.4820  1.2223
 5276TIP3    H215793   5.839   2.463   4.622  3.9732  3.7598  1.8216
 5277TIP3   OH215794   2.264   5.729   2.071  0.4532 -0.3464  0.1422
 5277TIP3    H115795   2.218   5.646   2.077  0.6150 -0.5435 -1.0815
 5277TIP3    H215796   2.323   5.729   2.147  2.1862 -2.4528 -1.0811
 5278TIP3   OH215797   5.849   2.413   5.437 -0.6006  0.0772 -0.0957
 5278TIP3    H115798   5.813   2.448   5.356  1.0563 -1.7379 -1.7010
 5278TIP3    H215799   5.934   2.455   5.447  0.9902 -2.5447 -1.5462
 5279TIP3   OH215800   2.972   1.139   1.701  0.1849  0.3069  0.1102
 5279TIP3    H115801   3.002   1.224   1.667 -0.5843  0.4226 -0.2968
 5279TIP3    H215802   2.884   1.156   1.734 -0.1074 -0.4056 -0.2755
 5280TIP3   OH215803   6.726   1.906   2.041 -0.0686 -0.2210 -0.0849
 5280TIP3    H115804   6.641   1.862   2.042 -0.4016  0.4133  0.3868
 5280TIP3    H215805   6.708   1.993   2.004  0.1955  0.2441  0.8271
 5281TIP3   OH215806   0.356   0.779   1.998  0.1783  0.3560  0.6333
 5281TIP3    H115807   0.364   0.774   2.093  2.9251  0.7692  0.5143
 5281TIP3    H215808   0.422   0.717   1.965 -0.4180  0.5280 -1.0202
 5282TIP3   OH215809   1.334   1.446   3.675  0.9238 -0.6213 -0.3573
 5282TIP3    H115810   1.281   1.524   3.694  2.2990  0.2734 -0.0692
 5282TIP3    H215811   1.310   1.384   3.743 -2.8693 -1.9369 -2.5657
 5283TIP3   OH215812   5.262   3.345   2.513  0.2628 -0.4479 -0.0258
 5283TIP3    H115813   5.327   3.277   2.494 -0.8660 -1.1955 -1.3887
 5283TIP3    H215814   5.314   3.422   2.537  1.6034 -1.3864  0.1825
 5284TIP3   OH215815   1.064   6.542   2.437  0.5691 -0.1996  0.5221
 5284TIP3    H115816   1.101   6.454   2.431  1.3092  0.2115 -2.3350
 5284TIP3    H215817   1.140   6.600   2.435 -0.0004  0.5449 -0.1507
 5285TIP3   OH215818   6.368   1.951   4.442  0.1009  0.7910  0.6056
 5285TIP3    H115819   6.366   1.950   4.538 -0.1139 -0.2134  0.5988
 5285TIP3    H215820   6.290   2.002   4.417 -0.1412  0.5986  0.9598
 5286TIP3   OH215821   7.021   2.224   1.292 -0.7138  0.3680 -0.0884
 5286TIP3    H115822   6.951   2.229   1.227 -1.6388 -1.4779  0.7112
 5286TIP3    H215823   7.087   2.167   1.252  0.7328  2.6160 -1.1152
 5287TIP3   OH215824   5.417   4.405   1.530 -0.4170  0.5536  0.5068
 5287TIP3    H115825   5.377   4.491   1.517 -4.9532 -1.5085 -1.1858
 5287TIP3    H215826   5.362   4.363   1.595  0.0020 -1.9697 -0.6744
 5288TIP3   OH215827   1.049   1.121   4.318  0.2663  0.4555  0.1389
 5288TIP3    H115828   0.969   1.073   4.341  1.0900 -1.1979 -0.2823
 5288TIP3    H215829   1.022   1.212   4.313 -1.5226 -0.0308  0.3395
 5289TIP3   OH215830   0.532   3.136   3.547 -0.3930  0.3372  0.4527
 5289TIP3    H115831   0.542   3.179   3.632  3.2270 -2.3756  1.6898
 5289TIP3    H215832   0.617   3.149   3.504 -1.4172 -0.1511 -1.8638
 5290TIP3   OH215833   4.195   0.266   2.065  0.0582  0.2448 -0.1797
 5290TIP3    H115834   4.144   0.343   2.037  0.3628  0.8580  0.8827
 5290TIP3    H215835   4.147   0.191   2.030 -1.3402  0.8235  0.4017
 5291TIP3   OH215836   5.272   2.302   0.870 -0.4600 -0.3018 -0.5169
 5291TIP3    H115837   5.304   2.227   0.820  1.6474  0.2402 -0.0971
 5291TIP3    H215838   5.334   2.310   0.942  0.5746  2.9730 -1.5921
 5292TIP3   OH215839   4.593   5.082   4.276  0.3666  0.0238  0.3913
 5292TIP3    H115840   4.561   5.090   4.366 -0.0349  0.2118  0.2348
 5292TIP3    H215841   4.527   5.030   4.231  1.5569 -1.8683  0.6907
 5293TIP3   OH215842   5.633   4.005   1.310 -0.1380  0.1088  0.4884
 5293TIP3    H115843   5.599   3.926   1.267  1.5484  0.9251 -2.6010
 5293TIP3    H215844   5.705   3.972   1.364 -0.4111 -0.6043  0.4431
 5294TIP3   OH215845   5.135   4.820   3.320 -0.1048  0.3960  0.3705
 5294TIP3    H115846   5.222   4.857   3.336  0.5971 -0.8359 -0.4839
 5294TIP3    H215847   5.083   4.895   3.291  0.6908  1.1273  0.7614
 5295TIP3   OH215848   6.335   1.238   3.118  0.0324  0.4450  0.1185
 5295TIP3    H115849   6.414   1.289   3.132 -0.9682  2.2931 -0.5598
 5295TIP3    H215850   6.325   1.186   3.198  1.1811  1.2239  0.7985
 5296TIP3   OH215851   5.775   4.027   3.015  0.6379  0.4105 -0.0659
 5296TIP3    H115852   5.779   4.111   2.969  0.9266  0.4438  0.0209
 5296TIP3    H215853   5.865   3.997   3.018  0.7403  0.8030  1.2252
 5297TIP3   OH215854   0.221   2.049   4.904  0.6931 -0.4472 -0.1147
 5297TIP3    H115855   0.227   2.073   4.811  1.9225 -1.0207 -0.1990
 5297TIP3    H215856   0.192   1.958   4.904 -0.9966  0.0660  0.1276
 5298TIP3   OH215857   3.485   0.336   0.921 -0.0302  0.4950 -0.7821
 5298TIP3    H115858   3.469   0.351   0.828 -0.3797 -0.7224 -0.9361
 5298TIP3    H215859   3.577   0.360   0.933  0.1028  0.3765 -1.5024
 5299TIP3   OH215860   5.493   5.320   2.813  0.1821 -0.9473  0.6646
 5299TIP3    H115861   5.479   5.241   2.865  0.5550 -1.6918 -0.3336
 5299TIP3    H215862   5.569   5.300   2.760  0.0614 -0.0440  0.1361
 5300TIP3   OH215863   1.988   5.323   2.534 -0.2211 -0.1672  0.0250
 5300TIP3    H115864   1.995   5.241   2.485  0.3362 -1.3626  1.9863
 5300TIP3    H215865   1.902   5.320   2.575 -0.2381  0.2783  0.0317
 5301TIP3   OH215866   3.209   1.259   2.369 -0.2337  0.0487  0.2215
 5301TIP3    H115867   3.224   1.171   2.404  0.1011  0.0096 -0.0072
 5301TIP3    H215868   3.128   1.251   2.319  0.7394 -0.6194 -1.3438
 5302TIP3   OH215869   3.880   5.179   1.730 -0.0802  0.2442  0.0551
 5302TIP3    H115870   3.972   5.173   1.704  0.0792 -0.7852  0.7904
 5302TIP3    H215871   3.832   5.185   1.647  0.5301 -1.1828 -0.4315
 5303TIP3   OH215872   4.477   2.674   1.701  0.0163  0.1559 -0.0822
 5303TIP3    H115873   4.419   2.750   1.693 -1.0272 -0.6790 -0.7640
 5303TIP3    H215874   4.483   2.639   1.612  1.4196  0.1042  0.0203
 5304TIP3   OH215875   0.703   6.499   4.266  0.0946  0.1728 -0.3941
 5304TIP3    H115876   0.795   6.519   4.250 -0.2213  0.2887 -2.2924
 5304TIP3    H215877   0.690   6.412   4.230 -0.1603 -0.6158  1.4944
 5305TIP3   OH215878   1.574   6.625   3.288  0.3181  0.4474  0.2718
 5305TIP3    H115879   1.659   6.649   3.251  0.1264 -0.0946 -0.5372
 5305TIP3    H215880   1.554   6.696   3.350  1.1246  0.8284  0.1106
 5306TIP3   OH215881   3.940   5.408   5.216  0.1876  0.4018 -0.0314
 5306TIP3    H115882   3.977   5.337   5.163 -2.3744 -0.5067 -0.7489
 5306TIP3    H215883   3.993   5.485   5.195  1.3624 -0.6961 -1.2686
 5307TIP3   OH215884   4.861   6.463   1.679  0.2802 -0.0503  0.5344
 5307TIP3    H115885   4.770   6.485   1.658  0.4943  0.0551 -0.2869
 5307TIP3    H215886   4.867   6.369   1.665  0.6986  0.1823 -0.9397
 5308TIP3   OH215887   5.334   4.345   4.225  0.0379 -0.3918 -0.7838
 5308TIP3    H115888   5.332   4.434   4.189 -0.3792 -0.9797 -2.2912
 5308TIP3    H215889   5.242   4.325   4.243  0.3323  0.3699  1.9618
 5309TIP3   OH215890   3.872   5.655   3.164  0.0677 -0.2235  0.3123
 5309TIP3    H115891   3.928   5.598   3.216 -0.3585 -0.7210  0.2256
 5309TIP3    H215892   3.837   5.718   3.227  0.9691  0.2951  0.3145
 5310TIP3   OH215893   4.940   4.415   4.423  0.1224  0.1036 -0.3767
 5310TIP3    H115894   4.874   4.472   4.383 -0.5063 -1.1739 -1.2503
 5310TIP3    H215895   4.974   4.363   4.350  1.4930  0.1288  0.2056
 5311TIP3   OH215896   3.788   1.251   1.264  0.2166 -0.5138 -0.1344
 5311TIP3    H115897   3.707   1.290   1.297  0.2178 -0.3910 -0.2700
 5311TIP3    H215898   3.773   1.242   1.170  0.7945  0.6126 -0.3530
 5312TIP3   OH215899   1.855   5.167   4.854  0.1144  0.3630 -0.2479
 5312TIP3    H115900   1.778   5.127   4.814  0.2826  0.6435 -0.8595
 5312TIP3    H215901   1.859   5.255   4.816 -0.6851  1.2780  1.6387
 5313TIP3   OH215902   4.292   6.534   0.525 -0.2635  0.2913 -0.2825
 5313TIP3    H115903   4.329   6.583   0.599 -0.3220  0.6970 -0.5194
 5313TIP3    H215904   4.349   6.457   0.517 -0.6740 -0.1166  0.6247
 5314TIP3   OH215905   1.659   6.484   0.749 -0.6989  0.2641 -0.0782
 5314TIP3    H115906   1.713   6.554   0.785 -2.1431 -0.0623  3.0398
 5314TIP3    H215907   1.685   6.406   0.798 -0.6450 -0.9420 -1.9490
 5315TIP3   OH215908   3.585   1.118   0.770 -0.5176 -0.0916 -0.3021
 5315TIP3    H115909   3.574   1.121   0.675 -1.2069 -1.1854 -0.2707
 5315TIP3    H215910   3.533   1.044   0.798  0.7654 -0.6252  0.7858
 5316TIP3   OH215911   1.885   3.670   1.950  0.0852 -0.2059 -0.6195
 5316TIP3    H115912   1.980   3.683   1.950  0.0894 -0.2133 -0.0953
 5316TIP3    H215913   1.872   3.585   1.906  0.3220 -0.2085 -0.6840
 5317TIP3   OH215914   3.296   6.401   4.256  0.5663 -0.6800  0.2075
 5317TIP3    H115915   3.307   6.348   4.176 -0.7710 -0.0603 -0.4243
 5317TIP3    H215916   3.344   6.353   4.323 -0.4863 -2.6720 -0.3612
 5318TIP3   OH215917   6.625   1.326   1.875 -0.1137 -0.1861  0.0286
 5318TIP3    H115918   6.651   1.287   1.958  1.2855  3.2347  1.3821
 5318TIP3    H215919   6.638   1.257   1.811  2.8259 -1.7622  2.1001
 5319TIP3   OH215920   2.681   1.240   3.986 -0.4160 -0.0015  0.3156
 5319TIP3    H115921   2.739   1.316   3.981 -0.3002 -0.1436 -0.7681
 5319TIP3    H215922   2.593   1.278   3.979 -0.3562  0.0416 -0.3154
 5320TIP3   OH215923   1.291   4.285   2.488  0.0482 -0.3209  0.4189
 5320TIP3    H115924   1.254   4.299   2.400  1.2493  0.0566 -0.0457
 5320TIP3    H215925   1.295   4.373   2.526 -1.3982 -0.5857  1.2725
 5321TIP3   OH215926   2.090   4.064   5.155 -0.4739  0.2099  0.3837
 5321TIP3    H115927   2.010   4.093   5.199 -0.8368 -0.4971  0.2087
 5321TIP3    H215928   2.077   3.970   5.142  0.9913 -0.1964  1.6089
 5322TIP3   OH215929   2.222   6.425   3.090  0.0243 -0.4807 -0.0042
 5322TIP3    H115930   2.196   6.391   3.005  0.0597 -1.6548  0.4374
 5322TIP3    H215931   2.317   6.431   3.086 -0.0770  1.1833 -0.6539
 5323TIP3   OH215932   1.833   6.302   4.724 -0.1764 -0.2631 -0.0171
 5323TIP3    H115933   1.890   6.349   4.663  0.2343  1.9689  1.9573
 5323TIP3    H215934   1.801   6.227   4.673  0.5388  1.1520 -2.7924
 5324TIP3   OH215935   3.577   2.606   2.240  0.0062  0.0114 -0.1545
 5324TIP3    H115936   3.539   2.599   2.152  0.7232  0.0619 -0.4741
 5324TIP3    H215937   3.662   2.647   2.226  0.2576 -0.2711  0.5285
 5325TIP3   OH215938   6.123   2.255   4.891  0.0456  0.7332  0.2968
 5325TIP3    H115939   6.100   2.216   4.975 -0.2744  0.2528 -0.0151
 5325TIP3    H215940   6.053   2.317   4.873 -0.1455  0.4708  0.1411
 5326TIP3   OH215941   3.507   5.366   4.927  0.1369  0.3878  0.3035
 5326TIP3    H115942   3.411   5.362   4.921  0.1911 -0.5449 -0.0787
 5326TIP3    H215943   3.527   5.338   5.016  0.2039 -2.9272 -0.6337
 5327TIP3   OH215944   2.251   0.739   2.392 -0.3823 -0.1993  0.4292
 5327TIP3    H115945   2.206   0.735   2.307 -0.6588  1.7104  0.4413
 5327TIP3    H215946   2.188   0.705   2.455 -0.4713 -0.8600 -0.0019
 5328TIP3   OH215947   2.922   0.365   0.089 -0.5059  0.6411  0.0448
 5328TIP3    H115948   2.994   0.384   0.149 -2.3058  1.7381  2.0232
 5328TIP3    H215949   2.921   0.270   0.081  1.1342  0.6053 -0.0478
 5329TIP3   OH215950   7.219   2.284   5.592 -0.1241  0.0073 -0.1208
 5329TIP3    H115951   7.200   2.290   5.685 -2.1402 -2.0984 -0.3035
 5329TIP3    H215952   7.141   2.318   5.549  0.7019  0.7665 -1.0741
 5330TIP3   OH215953   2.222   3.261   1.826  0.4539 -0.3679 -0.1902
 5330TIP3    H115954   2.234   3.172   1.859  0.0348 -0.3958 -0.1012
 5330TIP3    H215955   2.219   3.251   1.731  0.6396 -0.4210 -0.1898
 5331TIP3   OH215956   3.807   3.810   0.644 -0.2034 -0.4852 -0.1126
 5331TIP3    H115957   3.768   3.897   0.654  0.3256  0.1397 -2.8005
 5331TIP3    H215958   3.733   3.749   0.652 -1.4977  0.5556 -2.8909
 5332TIP3   OH215959   1.685   4.490   3.563 -0.0942 -0.0612 -0.4411
 5332TIP3    H115960   1.632   4.489   3.484  0.1109 -0.4744 -0.5760
 5332TIP3    H215961   1.621   4.484   3.635 -0.2524 -0.1336 -0.5882
 5333TIP3   OH215962   5.850   0.201   1.401  0.2445 -0.2279  0.0118
 5333TIP3    H115963   5.911   0.263   1.362 -0.0528 -0.1372 -0.3075
 5333TIP3    H215964   5.764   0.228   1.370  0.1048 -0.7590 -0.0856
 5334TIP3   OH215965   5.045   5.298   4.265 -0.2945  0.0815  0.7740
 5334TIP3    H115966   4.958   5.334   4.252 -0.5001 -0.1588  1.4437
 5334TIP3    H215967   5.100   5.374   4.287 -0.3791  0.2034  0.5615
 5335TIP3   OH215968   0.986   3.588   1.955  0.7251 -0.0313  0.0479
 5335TIP3    H115969   0.970   3.621   2.043  1.1921 -0.7321  0.3946
 5335TIP3    H215970   0.899   3.564   1.922  0.7116 -1.1698  0.8761
 5336TIP3   OH215971   4.049   1.340   1.268 -0.1948  0.6576  0.3933
 5336TIP3    H115972   4.065   1.340   1.174  0.3448  2.1501  0.4618
 5336TIP3    H215973   3.963   1.300   1.278 -0.0630  0.0648 -0.6865
 5337TIP3   OH215974   5.271   0.509   3.780 -0.3329  0.3799 -0.5530
 5337TIP3    H115975   5.205   0.577   3.793 -0.1137  0.4976 -0.0012
 5337TIP3    H215976   5.283   0.470   3.867  2.5391  2.4321  0.1292
 5338TIP3   OH215977   7.127   0.136   0.504 -0.2214  0.4059 -0.0799
 5338TIP3    H115978   7.112   0.230   0.495  1.2309  0.5503 -1.2452
 5338TIP3    H215979   7.220   0.125   0.488 -0.3339 -1.2201  0.2744
 5339TIP3   OH215980   4.131   3.868   0.924  0.0738 -0.2262  0.0880
 5339TIP3    H115981   4.210   3.816   0.908 -0.3069 -0.8517  0.2514
 5339TIP3    H215982   4.059   3.807   0.916 -0.3510  0.1685  0.7798
 5340TIP3   OH215983   4.104   0.036   1.228 -0.0329 -0.4627  0.1946
 5340TIP3    H115984   4.102   0.078   1.142 -1.5745 -0.8929 -0.0163
 5340TIP3    H215985   4.196   0.038   1.253 -0.0109  3.1102  0.2843
 5341TIP3   OH215986   6.071   6.751   1.504  0.2165  0.7831  0.5616
 5341TIP3    H115987   6.125   6.693   1.450  1.7850  1.6126  1.1820
 5341TIP3    H215988   6.019   6.691   1.558 -2.2728 -0.1160 -2.5277
 5342TIP3   OH215989   3.787   2.769   3.323 -0.3867  0.3880  0.2905
 5342TIP3    H115990   3.843   2.801   3.394  1.3607 -0.8168 -0.4764
 5342TIP3    H215991   3.719   2.835   3.315  1.5586  2.5478  0.5091
 5343TIP3   OH215992   2.570   4.655   4.029  0.1637 -0.2026 -0.0336
 5343TIP3    H115993   2.580   4.714   4.103 -0.4040 -1.2250  0.8905
 5343TIP3    H215994   2.623   4.578   4.052 -0.0899 -0.5736 -0.6536
 5344TIP3   OH215995   3.417   0.466   0.354  0.0120 -0.3972 -1.0395
 5344TIP3    H115996   3.374   0.544   0.388  1.6681  0.4091 -0.6521
 5344TIP3    H215997   3.362   0.437   0.282 -0.7978  0.9470 -0.9970
 5345TIP3   OH215998   2.405   3.975   3.100  0.3506  0.4394 -0.2129
 5345TIP3    H115999   2.443   3.959   3.187  0.9963  1.2638 -0.3266
 5345TIP3    H216000   2.322   3.927   3.101 -0.1768  1.3127  1.2662
 5346TIP3   OH216001   2.388   5.328   5.745  0.4302 -0.4936  0.0847
 5346TIP3    H116002   2.340   5.382   5.808 -0.1806 -1.1619  0.2134
 5346TIP3    H216003   2.452   5.387   5.706 -1.1651  0.6978 -0.8282
 5347TIP3   OH216004   2.638   3.179   2.941 -0.2552 -0.2862  0.1863
 5347TIP3    H116005   2.713   3.131   2.975 -0.0908  1.3904  2.4300
 5347TIP3    H216006   2.676   3.245   2.883 -0.1991 -0.6933 -0.2496
 5348TIP3   OH216007   6.201   3.765   4.142 -0.1202 -0.1561  0.5233
 5348TIP3    H116008   6.152   3.727   4.214 -0.8409  0.5028  0.3921
 5348TIP3    H216009   6.273   3.812   4.185 -1.3185  1.3807  0.9330
 5349TIP3   OH216010   2.982   4.346   0.641 -0.0702  0.0697 -0.3123
 5349TIP3    H116011   2.949   4.387   0.721 -3.3202  0.3867 -1.6468
 5349TIP3    H216012   3.028   4.416   0.595  1.8704 -0.1255  1.1783
 5350TIP3   OH216013   0.253   5.496   3.699 -0.3882  0.5123  0.1652
 5350TIP3    H116014   0.334   5.445   3.703 -0.4054  0.3778 -0.8911
 5350TIP3    H216015   0.273   5.566   3.636 -1.7615 -0.8003 -1.8428
 5351TIP3   OH216016   4.573   4.647   0.174  0.6371 -0.1978  0.3240
 5351TIP3    H116017   4.482   4.679   0.176  0.4064 -0.6600 -1.0794
 5351TIP3    H216018   4.577   4.593   0.095  2.0217 -0.5652  0.6206
 5352TIP3   OH216019   2.622   2.087   5.030  0.1544 -0.5777  0.2689
 5352TIP3    H116020   2.683   2.139   4.978 -0.4833 -0.3017 -0.2310
 5352TIP3    H216021   2.572   2.152   5.079 -0.6905 -0.6916 -0.4054
 5353TIP3   OH216022   2.660   0.014   1.712  0.5676  0.0768 -0.1573
 5353TIP3    H116023   2.643   0.075   1.783  1.3069 -0.4156  0.4649
 5353TIP3    H216024   2.576  -0.028   1.695  0.3377  0.3574  0.2859
 5354TIP3   OH216025   6.081   6.216   2.101  0.5377 -0.4749 -0.4672
 5354TIP3    H116026   5.986   6.231   2.093  0.9487  2.2942 -1.5060
 5354TIP3    H216027   6.099   6.227   2.194  0.0487  1.0059 -0.5149
 5355TIP3   OH216028   4.975   4.095   5.627 -0.3219  0.0962 -0.3511
 5355TIP3    H116029   4.972   3.999   5.617  0.0166 -0.0016  0.4343
 5355TIP3    H216030   5.003   4.127   5.541  0.0359 -0.5384 -0.4787
 5356TIP3   OH216031   0.547   1.266   1.661  0.4590  0.3657 -0.0083
 5356TIP3    H116032   0.509   1.233   1.580  0.3450  0.0066  0.1878
 5356TIP3    H216033   0.557   1.360   1.647  0.7996  0.2498 -0.5829
 5357TIP3   OH216034   4.467   3.315   0.481 -0.8477 -0.0757  0.0079
 5357TIP3    H116035   4.438   3.287   0.568  0.4080  1.2493  0.9044
 5357TIP3    H216036   4.423   3.255   0.421 -2.9335 -0.0987  1.4408
 5358TIP3   OH216037   4.578   3.428   3.042  0.3944  0.2105  0.5378
 5358TIP3    H116038   4.638   3.374   3.093 -0.7181 -0.1170  1.5247
 5358TIP3    H216039   4.635   3.492   2.999  1.8031 -1.8757 -0.9187
 5359TIP3   OH216040   2.689   0.348   4.402  0.3938 -0.1785 -0.3018
 5359TIP3    H116041   2.770   0.399   4.399  0.4719 -0.3107 -0.4437
 5359TIP3    H216042   2.703   0.277   4.340 -0.3535  0.5779 -1.3748
 5360TIP3   OH216043   2.278   0.042   4.953 -0.5625 -0.3208 -0.2002
 5360TIP3    H116044   2.229  -0.030   4.992 -0.1362 -0.7795 -0.4993
 5360TIP3    H216045   2.302   0.098   5.027  1.3451 -1.8432  0.4107
 5361TIP3   OH216046   1.864   4.292   3.646 -0.2097  0.5360  0.0782
 5361TIP3    H116047   1.836   4.381   3.626 -0.8609  0.4195  0.4671
 5361TIP3    H216048   1.937   4.276   3.586 -1.2609  0.6733 -1.2770
 5362TIP3   OH216049   2.045   0.650   4.169 -0.0343  0.3481  0.2953
 5362TIP3    H116050   2.114   0.717   4.174  1.0635 -0.7009 -0.4202
 5362TIP3    H216051   2.010   0.659   4.080 -1.5729  1.5668  0.9827
 5363TIP3   OH216052   2.330   3.006   3.788 -0.2740  0.0007  0.5805
 5363TIP3    H116053   2.343   3.070   3.858  0.0866  0.3220  0.2315
 5363TIP3    H216054   2.288   2.932   3.830 -0.4422  0.3581  1.0515
 5364TIP3   OH216055   5.896   4.388   1.484  0.5157 -0.6920  0.0522
 5364TIP3    H116056   5.801   4.373   1.491  0.5044 -1.9287 -1.7897
 5364TIP3    H216057   5.908   4.420   1.394  1.4669  3.4996  1.4701
 5365TIP3   OH216058   0.786   6.612   5.192  0.2540 -0.2059  0.0691
 5365TIP3    H116059   0.809   6.612   5.099  2.2762 -2.5879  0.4411
 5365TIP3    H216060   0.840   6.681   5.230  0.6360 -0.2821 -0.3227
 5366TIP3   OH216061   3.653   2.911   3.688  0.1060  0.0269  0.6815
 5366TIP3    H116062   3.594   2.868   3.626  0.3436 -0.2501  0.6438
 5366TIP3    H216063   3.625   3.003   3.688  0.8554  0.2950 -0.7530
 5367TIP3   OH216064   1.152   5.123   5.668  0.3968  0.2403  0.2128
 5367TIP3    H116065   1.239   5.114   5.706  1.0905  0.7196 -1.2112
 5367TIP3    H216066   1.164   5.178   5.591 -0.5811 -2.3291 -1.9175
 5368TIP3   OH216067   6.126   5.973   3.175  0.1235  0.7015  0.3011
 5368TIP3    H116068   6.141   5.952   3.267 -0.3138 -0.3852  0.1384
 5368TIP3    H216069   6.212   5.960   3.133  0.9089  3.3405  0.8793
 5369TIP3   OH216070   0.770   3.118   1.944 -0.2213  0.0918  0.2047
 5369TIP3    H116071   0.702   3.176   1.977  0.4136  1.0133 -0.0600
 5369TIP3    H216072   0.852   3.155   1.978  0.1016 -1.6145  1.4450
 5370TIP3   OH216073   6.713   4.769   5.702  0.7169 -0.1292 -0.2691
 5370TIP3    H116074   6.632   4.767   5.652  0.9447 -0.6256 -0.6278
 5370TIP3    H216075   6.762   4.693   5.671  1.0130 -0.2417  0.4557
 5371TIP3   OH216076   2.943   4.749   4.817  0.1696  0.4552  0.1972
 5371TIP3    H116077   2.867   4.793   4.778  1.4604  1.7160 -0.9695
 5371TIP3    H216078   2.932   4.657   4.791 -0.7342  0.6890 -0.3201
 5372TIP3   OH216079   0.831   6.618   4.924 -0.3108 -0.0840  0.2408
 5372TIP3    H116080   0.858   6.708   4.940 -1.5671  0.5204 -0.8622
 5372TIP3    H216081   0.879   6.593   4.845 -0.0985 -0.3133  0.4443
 5373TIP3   OH216082   4.988   4.374   3.270 -0.4243  0.0236 -0.2532
 5373TIP3    H116083   5.030   4.367   3.184 -2.2544 -0.0663 -1.1713
 5373TIP3    H216084   5.003   4.465   3.296 -0.3092  0.1956 -0.8994
 5374TIP3   OH216085   3.328   4.176   2.587  0.4343  0.1202 -0.3858
 5374TIP3    H116086   3.311   4.196   2.679  0.4016  0.9472 -0.5664
 5374TIP3    H216087   3.403   4.115   2.590  0.1695 -0.1890  0.1961
 5375TIP3   OH216088   2.531   2.183   4.606 -0.3046 -0.7041 -0.5037
 5375TIP3    H116089   2.475   2.152   4.678  0.2394 -0.6387 -0.0439
 5375TIP3    H216090   2.607   2.221   4.650 -0.1505 -0.3066 -1.1126
 5376TIP3   OH216091   1.121   0.190   1.048  0.3342  0.0061  0.2597
 5376TIP3    H116092   1.102   0.097   1.059  1.6640 -0.0960  2.1903
 5376TIP3    H216093   1.198   0.193   0.991 -0.2854 -0.0159 -0.5855
 5377TIP3   OH216094   2.416   6.295   4.912 -0.2278  0.0564 -0.0675
 5377TIP3    H116095   2.323   6.294   4.931 -0.3738 -0.2036 -0.7616
 5377TIP3    H216096   2.429   6.373   4.857 -0.5079 -1.2752 -2.1365
 5378TIP3   OH216097   7.000   6.547   2.428  0.3051 -0.0440 -0.0726
 5378TIP3    H116098   6.932   6.508   2.373 -0.0555 -0.1104  0.4116
 5378TIP3    H216099   6.951   6.592   2.497  0.7110  1.1685 -0.5530
 5379TIP3   OH216100   3.746   1.469   4.067  0.3261 -0.5133 -0.3382
 5379TIP3    H116101   3.746   1.561   4.042  0.7957 -0.3646  0.1770
 5379TIP3    H216102   3.679   1.429   4.012  0.8561 -0.0710 -1.3466
 5380TIP3   OH216103   1.999   2.337   0.605 -0.0379  0.2906  0.1015
 5380TIP3    H116104   2.002   2.419   0.556 -0.2488  0.3074  0.1145
 5380TIP3    H216105   2.026   2.270   0.542  2.1988  0.5997  0.6311
 5381TIP3   OH216106   4.651   1.566   2.639 -0.0861 -0.0474 -0.4046
 5381TIP3    H116107   4.614   1.624   2.572  0.3048  2.1306  1.1617
 5381TIP3    H216108   4.585   1.565   2.709 -0.4788 -2.2649 -0.7262
 5382TIP3   OH216109   0.097   0.221   2.216  0.2267 -0.1019  0.3506
 5382TIP3    H116110   0.139   0.146   2.174  2.0110  0.0957  1.6744
 5382TIP3    H216111   0.020   0.238   2.163  1.1691 -1.2610 -1.4825
 5383TIP3   OH216112   4.120   0.711   2.785  0.1854  0.2152  0.4479
 5383TIP3    H116113   4.173   0.716   2.705 -2.3625  0.6762 -1.3126
 5383TIP3    H216114   4.134   0.622   2.817  0.5901 -0.2868 -1.0270
 5384TIP3   OH216115   5.621   5.576   0.969  0.2549 -0.8363  0.3641
 5384TIP3    H116116   5.695   5.618   1.013  0.8474 -0.3571 -1.0238
 5384TIP3    H216117   5.658   5.496   0.931  0.0811 -0.5883 -0.3427
 5385TIP3   OH216118   3.536   6.187   5.537  0.0878 -0.1858 -0.3890
 5385TIP3    H116119   3.507   6.096   5.528  1.1869 -0.4830 -1.2225
 5385TIP3    H216120   3.539   6.202   5.631 -0.4668 -0.8954 -0.2516
 5386TIP3   OH216121   2.268   2.973   3.226 -0.6035 -0.1266 -0.4299
 5386TIP3    H116122   2.275   3.037   3.155 -1.7705 -0.9830 -1.3587
 5386TIP3    H216123   2.259   2.889   3.181  0.7812 -0.9630  0.7597
 5387TIP3   OH216124   3.423   5.307   4.645  0.3260  0.2227  1.0538
 5387TIP3    H116125   3.471   5.344   4.719  1.6362 -0.8633  0.8071
 5387TIP3    H216126   3.446   5.214   4.646  2.4706  0.5394 -2.1541
 5388TIP3   OH216127   6.262   2.344   3.090 -0.2530 -0.1163 -0.5785
 5388TIP3    H116128   6.225   2.260   3.117 -2.7111  1.4042  1.2045
 5388TIP3    H216129   6.219   2.363   3.006 -0.7299 -0.0704 -0.3315
 5389TIP3   OH216130   2.716   6.723   3.541  0.8010  0.5970  0.1902
 5389TIP3    H116131   2.806   6.735   3.571  1.3207  0.9488 -1.4063
 5389TIP3    H216132   2.675   6.808   3.552  0.8769  0.6248  0.2561
 5390TIP3   OH216133   6.348   1.262   2.818  0.4648 -0.0742 -0.9549
 5390TIP3    H116134   6.285   1.333   2.825  1.2606  0.5396  0.3346
 5390TIP3    H216135   6.320   1.198   2.884  0.3320 -0.4919 -1.4115
 5391TIP3   OH216136   0.119   3.153   1.593  0.4444 -0.5004  0.3336
 5391TIP3    H116137   0.128   3.204   1.673  0.5146  0.6664 -0.3842
 5391TIP3    H216138   0.185   3.085   1.599  1.0780  0.1545  0.8455
 5392TIP3   OH216139   2.922   0.469   4.327  0.1851  0.2476  0.4225
 5392TIP3    H116140   2.922   0.543   4.267  1.6956 -0.4740 -0.5363
 5392TIP3    H216141   3.015   0.455   4.346 -0.1586 -0.6674  1.5322
 5393TIP3   OH216142   1.321   3.918   5.835  0.0770  0.0011 -0.3131
 5393TIP3    H116143   1.376   3.843   5.810  0.8417  0.8297 -1.2204
 5393TIP3    H216144   1.384   3.988   5.855 -0.5902  0.0509  1.7490
 5394TIP3   OH216145   0.656   0.964   3.563  0.0702 -0.9077  0.1047
 5394TIP3    H116146   0.600   1.032   3.524  1.7568  0.0283 -0.8388
 5394TIP3    H216147   0.684   1.001   3.647 -1.4381 -1.7867  1.0305
 5395TIP3   OH216148   7.129   1.154   0.956  0.1673 -0.0470 -0.0839
 5395TIP3    H116149   7.099   1.241   0.928 -1.2205 -0.6896 -0.6972
 5395TIP3    H216150   7.202   1.134   0.897 -0.8918 -0.1720 -1.4122
 5396TIP3   OH216151   4.571   3.167   1.661  0.4323  0.0756  0.0511
 5396TIP3    H116152   4.588   3.109   1.587  0.8334  1.3734 -0.9044
 5396TIP3    H216153   4.553   3.107   1.734 -0.4161 -1.2218 -1.1691
 5397TIP3   OH216154   0.175   6.177   1.385 -0.2706 -0.0500 -0.2082
 5397TIP3    H116155   0.093   6.179   1.436 -0.4328 -0.9206 -0.4089
 5397TIP3    H216156   0.167   6.250   1.324 -0.5204  0.3941  0.3438
 5398TIP3   OH216157   2.334   5.508   1.881 -0.5782  0.0554 -0.3952
 5398TIP3    H116158   2.359   5.543   1.795 -1.0259  3.3958  0.6958
 5398TIP3    H216159   2.413   5.518   1.934 -0.7043 -0.7768 -0.0340
 5399TIP3   OH216160   0.641   1.155   2.644  0.4806 -0.2511  0.1989
 5399TIP3    H116161   0.675   1.232   2.691 -3.7898 -0.5529  4.4134
 5399TIP3    H216162   0.674   1.080   2.694  1.4988 -1.1006 -1.6414
 5400TIP3   OH216163   5.927   6.244   2.906  0.3896  0.5004  0.6486
 5400TIP3    H116164   5.904   6.222   2.997 -1.1725  0.5953  0.2930
 5400TIP3    H216165   6.023   6.250   2.907  0.4939 -0.7534  2.0010
 5401TIP3   OH216166   1.380   5.076   2.371  0.0296  0.7925  0.0772
 5401TIP3    H116167   1.396   5.097   2.279 -1.8955  2.2935 -0.0071
 5401TIP3    H216168   1.459   5.105   2.417  0.4602  1.2903 -0.9526
 5402TIP3   OH216169   5.966   2.722   2.290  0.1816  0.1333 -0.2959
 5402TIP3    H116170   5.893   2.661   2.282 -0.0342  0.3209  0.2052
 5402TIP3    H216171   6.043   2.666   2.302  0.0433 -0.0508 -0.2621
 5403TIP3   OH216172   5.762   6.356   4.735 -0.0197 -0.3152  0.2968
 5403TIP3    H116173   5.822   6.282   4.724 -1.6049 -1.4698 -1.0232
 5403TIP3    H216174   5.706   6.332   4.808  1.3331  0.9737  1.8414
 5404TIP3   OH216175   3.134   3.992   0.556 -0.6422  0.5413  0.2854
 5404TIP3    H116176   3.203   3.944   0.602 -0.1839  1.5978  0.7152
 5404TIP3    H216177   3.056   3.980   0.610 -0.8996 -0.8979 -0.3475
 5405TIP3   OH216178   0.189   1.639   5.455 -0.2936  0.4939  0.0435
 5405TIP3    H116179   0.259   1.622   5.392 -0.4996  0.4926 -0.1876
 5405TIP3    H216180   0.114   1.592   5.419 -0.8521  1.7931 -0.5443
 5406TIP3   OH216181   3.793   2.470   2.969 -0.6954 -0.1372 -0.3316
 5406TIP3    H116182   3.799   2.559   3.003 -1.4970 -0.0079 -0.4920
 5406TIP3    H216183   3.757   2.480   2.881 -0.4492 -0.5939 -0.4878
 5407TIP3   OH216184   5.190   4.426   5.831  0.8958 -0.4710  0.0511
 5407TIP3    H116185   5.198   4.520   5.811  0.5954 -0.3968  0.2720
 5407TIP3    H216186   5.107   4.419   5.878  1.2962 -0.7307  0.7308
 5408TIP3   OH216187   4.167   5.204   0.409  0.1128  0.3223 -0.0085
 5408TIP3    H116188   4.210   5.217   0.494  1.2939  3.2158 -0.9545
 5408TIP3    H216189   4.104   5.276   0.402 -1.4829 -1.0633 -0.7759
 5409TIP3   OH216190   2.608   6.467   1.293 -0.0876 -0.0859 -0.5058
 5409TIP3    H116191   2.652   6.523   1.229 -0.5779  1.3327  0.3698
 5409TIP3    H216192   2.559   6.404   1.240  1.5731 -0.5936 -1.5010
 5410TIP3   OH216193   2.114   2.774   0.283  0.6999 -0.2886  0.3764
 5410TIP3    H116194   2.131   2.681   0.268  0.6418 -0.2738  0.2228
 5410TIP3    H216195   2.038   2.794   0.229  0.4776 -0.2431  0.7065
 5411TIP3   OH216196   0.308   4.549   1.026  0.7305 -0.0485  0.4588
 5411TIP3    H116197   0.381   4.540   0.965 -0.1336  0.3102 -0.6695
 5411TIP3    H216198   0.291   4.643   1.030 -0.5317 -0.2060 -0.3967
 5412TIP3   OH216199   5.590   6.728   2.494  0.2870 -0.1774  0.1564
 5412TIP3    H116200   5.653   6.692   2.431  0.8291 -0.9051  1.0844
 5412TIP3    H216201   5.634   6.720   2.579 -1.1554 -0.9629  0.8642
 5413TIP3   OH216202   1.265   3.349   3.814  0.3170 -0.4355  0.3056
 5413TIP3    H116203   1.244   3.336   3.722  0.9257 -1.0660  0.2531
 5413TIP3    H216204   1.344   3.403   3.814  1.1721 -1.6358  0.4102
 5414TIP3   OH216205   5.207   1.365   4.502  0.5452 -0.0780  0.2472
 5414TIP3    H116206   5.243   1.381   4.589 -1.1221  0.3145  0.9128
 5414TIP3    H216207   5.214   1.270   4.490  0.0039 -0.2468  1.1916
 5415TIP3   OH216208   3.344   3.000   0.835 -0.0360 -0.4828 -0.4783
 5415TIP3    H116209   3.405   2.950   0.781  0.1539 -1.5593  0.6802
 5415TIP3    H216210   3.399   3.063   0.882  0.1569 -1.2136  0.2974
 5416TIP3   OH216211   4.903   0.566   3.248 -0.2117 -0.0490 -0.0488
 5416TIP3    H116212   4.940   0.520   3.323  0.3657 -1.3491 -1.0994
 5416TIP3    H216213   4.813   0.535   3.242  0.1252 -0.9525 -0.6503
 5417TIP3   OH216214   4.389   0.848   0.534  0.2861  0.7250 -0.3777
 5417TIP3    H116215   4.359   0.764   0.497 -1.1006  1.2510 -0.4972
 5417TIP3    H216216   4.482   0.834   0.551 -0.3590 -1.6681  1.8578
 5418TIP3   OH216217   2.396   0.154   0.521 -0.2938  0.0928 -0.2595
 5418TIP3    H116218   2.491   0.164   0.512  0.6856 -4.4282  2.1139
 5418TIP3    H216219   2.371   0.096   0.449 -0.6271 -1.2149  0.8881
 5419TIP3   OH216220   2.978   5.009   0.041 -0.2776 -0.0141  0.0725
 5419TIP3    H116221   2.895   4.964   0.030 -1.7577  2.5931 -0.1106
 5419TIP3    H216222   3.031   4.949   0.093 -1.4788 -2.6193 -1.5073
 5420TIP3   OH216223   3.630   4.163   0.132  0.0452  0.0394 -0.3042
 5420TIP3    H116224   3.677   4.171   0.215  1.8263  0.3202 -1.2838
 5420TIP3    H216225   3.538   4.158   0.157  0.6293 -1.7795  1.7750
 5421TIP3   OH216226   1.446   6.682   1.857 -0.1938  0.1614  0.0406
 5421TIP3    H116227   1.382   6.724   1.800  1.8471  1.3899 -1.5248
 5421TIP3    H216228   1.487   6.615   1.801  1.5114  1.0521  0.1540
 5422TIP3   OH216229   6.523   0.299   1.919 -0.3484 -0.7394  0.8535
 5422TIP3    H116230   6.590   0.259   1.974  0.9846  0.8027  0.4438
 5422TIP3    H216231   6.520   0.390   1.948 -0.3188 -0.1388 -0.9062
 5423TIP3   OH216232   4.444   2.039   1.807  0.0540 -0.0672  0.3166
 5423TIP3    H116233   4.408   1.992   1.731 -1.2517 -0.8334  1.3606
 5423TIP3    H216234   4.397   2.122   1.807 -0.0902 -0.1478  0.3920
 5424TIP3   OH216235   2.052   0.197   0.477  0.4775  0.0038  0.6718
 5424TIP3    H116236   2.054   0.119   0.423  0.6842  1.0053 -0.8139
 5424TIP3    H216237   2.007   0.170   0.557 -1.5421 -1.0440 -0.7473
 5425TIP3   OH216238   6.197   5.138   0.240 -0.4767 -0.5738 -0.3819
 5425TIP3    H116239   6.169   5.167   0.153 -0.6555 -1.5371 -0.6559
 5425TIP3    H216240   6.173   5.210   0.299  0.1655  0.3343 -1.2007
 5426TIP3   OH216241   5.371   2.722   5.019 -0.1897  0.2879  0.0846
 5426TIP3    H116242   5.386   2.804   5.065 -0.4295  0.0461  0.5942
 5426TIP3    H216243   5.459   2.693   4.993 -0.0485  0.3882  0.4484
 5427TIP3   OH216244   4.923  -0.021   4.442  0.3597 -0.0087  0.2305
 5427TIP3    H116245   4.828  -0.014   4.451  0.4441 -0.1719  1.3236
 5427TIP3    H216246   4.948   0.060   4.396 -0.2834  0.0948  0.0476
 5428TIP3   OH216247   0.816   2.954   1.734  0.0478  0.1369 -0.6701
 5428TIP3    H116248   0.788   2.999   1.654 -1.9770  0.1628  0.0075
 5428TIP3    H216249   0.792   3.013   1.805  1.1590 -0.2096  0.0181
 5429TIP3   OH216250   4.782   0.036   4.068 -0.0887  0.4157 -0.3252
 5429TIP3    H116251   4.846  -0.008   4.013 -0.7759  0.5412 -1.2379
 5429TIP3    H216252   4.703  -0.017   4.061 -0.4998  1.0200 -0.3163
 5430TIP3   OH216253   0.061   0.967   2.735 -0.3618  0.4096  0.1454
 5430TIP3    H116254   0.108   0.884   2.727 -2.3101 -1.1118  2.8351
 5430TIP3    H216255   0.096   1.008   2.813 -1.0326  0.9744  0.1665
 5431TIP3   OH216256   4.407   5.158   2.079  0.0349 -0.4932  0.2395
 5431TIP3    H116257   4.375   5.178   2.167  1.8980  1.1889  0.6150
 5431TIP3    H216258   4.480   5.098   2.093 -1.0564 -2.0339 -0.3858
 5432TIP3   OH216259   3.396   6.083   4.956  0.0565 -0.0851 -0.1226
 5432TIP3    H116260   3.369   6.080   5.048 -1.5211  0.1997 -0.5556
 5432TIP3    H216261   3.418   6.174   4.941  3.3131 -0.5856  0.7283
 5433TIP3   OH216262   2.005   2.763   0.038  0.3879  0.6413  0.5105
 5433TIP3    H116263   2.050   2.762  -0.047  0.3446  1.2607  0.4721
 5433TIP3    H216264   1.942   2.835   0.030  2.3206  2.6372  2.0499
 5434TIP3   OH216265   6.707   6.560   1.400 -0.0284 -0.3287 -0.1612
 5434TIP3    H116266   6.708   6.520   1.313 -2.6273 -1.2057  0.1176
 5434TIP3    H216267   6.771   6.509   1.450  2.9984  1.4360 -1.9273
 5435TIP3   OH216268   2.452   5.732   3.165 -0.7036  0.6096 -0.5606
 5435TIP3    H116269   2.546   5.751   3.159 -0.3422 -0.8413 -0.0624
 5435TIP3    H216270   2.409   5.816   3.149  0.6297  1.0390 -2.1640
 5436TIP3   OH216271   5.597   6.784   0.283 -0.0624  0.2389  0.3404
 5436TIP3    H116272   5.608   6.749   0.194 -1.9231 -0.3158  0.2986
 5436TIP3    H216273   5.553   6.867   0.271 -0.4295  0.1044  0.7566
 5437TIP3   OH216274   5.861   0.355   5.006 -0.3618 -0.1282  0.4779
 5437TIP3    H116275   5.766   0.344   5.012 -0.2911 -0.8926  0.2266
 5437TIP3    H216276   5.890   0.360   5.097 -0.7184  0.8457  0.5521
 5438TIP3   OH216277   0.345   6.394   2.290 -0.0952 -0.5491  0.2932
 5438TIP3    H116278   0.404   6.401   2.365  0.2139 -1.8547  0.1964
 5438TIP3    H216279   0.336   6.299   2.275  0.0320 -0.3169 -1.4497
 5439TIP3   OH216280   6.323   5.453   4.026 -0.0269  0.7852  0.2118
 5439TIP3    H116281   6.297   5.406   3.947 -0.2449 -0.3902  0.9614
 5439TIP3    H216282   6.306   5.545   4.005 -2.6727  0.2962 -0.1842
 5440TIP3   OH216283   0.066   3.748   2.954 -0.3833  0.5089 -0.1347
 5440TIP3    H116284   0.039   3.765   2.864  0.3455 -0.7126 -0.6128
 5440TIP3    H216285   0.138   3.686   2.946 -1.8626 -1.5549  1.3658
 5441TIP3   OH216286   2.130   3.708   5.716 -0.3423 -0.3989 -0.1562
 5441TIP3    H116287   2.079   3.784   5.743  0.0363 -0.1050 -0.2604
 5441TIP3    H216288   2.210   3.744   5.677  0.6801 -0.8511  1.4191
 5442TIP3   OH216289   6.806   2.616   0.481  0.4456 -0.2354  0.4958
 5442TIP3    H116290   6.801   2.521   0.492 -1.0334 -0.2431 -0.0338
 5442TIP3    H216291   6.771   2.633   0.394  1.5716  0.7346  0.2047
 5443TIP3   OH216292   3.110   4.304   0.147  0.3747 -0.1953 -0.5298
 5443TIP3    H116293   3.044   4.291   0.079 -0.0137 -0.2820 -0.1442
 5443TIP3    H216294   3.066   4.356   0.214  0.7679 -0.0678 -0.3644
 5444TIP3   OH216295   6.918   2.550   2.059  0.1921 -0.3579  0.5064
 5444TIP3    H116296   6.984   2.546   2.129  0.5013 -1.3065  0.1725
 5444TIP3    H216297   6.894   2.643   2.055 -0.3922 -0.3725  2.3858
 5445TIP3   OH216298   5.424   6.769   1.877  0.5089  0.0144 -0.8050
 5445TIP3    H116299   5.464   6.813   1.802  1.4905  0.1020 -0.2425
 5445TIP3    H216300   5.441   6.827   1.951  1.2308 -0.9822 -0.1719
 5446TIP3   OH216301   7.194   3.275   4.190  0.1741  0.0131  0.4328
 5446TIP3    H116302   7.170   3.228   4.110 -0.9565  0.5622  0.4186
 5446TIP3    H216303   7.247   3.348   4.159  1.2975 -0.8056  0.3827
 5447TIP3   OH216304   0.515   6.719   0.252  0.3235  0.1667  0.1825
 5447TIP3    H116305   0.427   6.685   0.236  1.1965 -1.3424 -1.9392
 5447TIP3    H216306   0.521   6.728   0.347 -1.9530 -0.0709  0.4039
 5448TIP3   OH216307   1.493   5.962   1.699  0.4113  0.2445  0.5092
 5448TIP3    H116308   1.423   5.897   1.703  0.8010 -0.1792  0.5100
 5448TIP3    H216309   1.557   5.933   1.763 -0.0242  1.3711  1.4949
 5449TIP3   OH216310   2.389   6.628   4.992  0.4189 -0.3878 -0.1765
 5449TIP3    H116311   2.313   6.677   5.022 -0.4250 -0.9082 -1.3990
 5449TIP3    H216312   2.353   6.560   4.935  1.7949 -0.6919 -0.7207
 5450TIP3   OH216313   4.435   1.415   5.336  0.0746  0.0295  0.3616
 5450TIP3    H116314   4.358   1.374   5.376 -0.0500 -0.2410 -0.1473
 5450TIP3    H216315   4.471   1.347   5.279  0.2795  0.3963  0.0540
 5451TIP3   OH216316   2.537   6.391   5.662 -0.6427  0.1098 -0.9449
 5451TIP3    H116317   2.514   6.307   5.621  1.3966 -0.8161 -0.3173
 5451TIP3    H216318   2.622   6.413   5.625  0.5549  0.0252  1.5732
 5452TIP3   OH216319   7.107   4.844   5.406 -0.1749 -0.5182 -0.0081
 5452TIP3    H116320   7.196   4.811   5.391 -0.0306 -0.7558  1.2357
 5452TIP3    H216321   7.110   4.880   5.495 -1.3009 -0.4265  0.0050
 5453TIP3   OH216322   4.965   5.756   3.015 -0.0425 -0.1286  0.1544
 5453TIP3    H116323   5.038   5.732   2.958  0.4481 -1.5032  1.2938
 5453TIP3    H216324   4.896   5.694   2.994  1.1264 -2.6264  2.9082
 5454TIP3   OH216325   4.128   2.463   5.556 -0.3890 -0.3698 -0.1951
 5454TIP3    H116326   4.219   2.462   5.526 -0.1333 -0.9372  0.5825
 5454TIP3    H216327   4.108   2.556   5.567  0.1488 -0.2432 -0.2314
 5455TIP3   OH216328   6.381   0.224   5.850  0.4923 -0.0751 -0.9915
 5455TIP3    H116329   6.364   0.135   5.882 -0.1646 -0.1869 -1.6355
 5455TIP3    H216330   6.457   0.215   5.793  1.4993  0.0790  0.2699
 5456TIP3   OH216331   4.258   1.021   0.352 -0.2649 -0.4590 -0.2475
 5456TIP3    H116332   4.297   0.949   0.401  0.4878  0.2538  0.2362
 5456TIP3    H216333   4.176   0.986   0.317  0.4282 -1.7632 -0.6306
 5457TIP3   OH216334   4.634   2.048   0.606 -0.2063  0.5064 -0.0124
 5457TIP3    H116335   4.581   2.108   0.658 -0.3777 -0.0622  0.4754
 5457TIP3    H216336   4.604   1.961   0.630  1.3804  0.1315  0.7698
 5458TIP3   OH216337   1.592   5.994   4.647  0.3183  0.4818 -0.1661
 5458TIP3    H116338   1.555   5.906   4.641 -0.4502  0.8711 -1.8728
 5458TIP3    H216339   1.672   5.983   4.698 -1.4419 -0.6090  2.5638
 5459TIP3   OH216340   0.306   0.162   2.932 -0.1106 -0.4816 -0.3803
 5459TIP3    H116341   0.363   0.193   3.001  0.5057 -1.1121 -0.5942
 5459TIP3    H216342   0.234   0.119   2.977 -0.6051  0.6014 -0.1022
 5460TIP3   OH216343   6.217   2.616   0.655 -0.2161  0.1022  0.1810
 5460TIP3    H116344   6.246   2.686   0.714  0.5005  2.2638 -2.5346
 5460TIP3    H216345   6.296   2.589   0.608 -0.8642 -1.1247 -0.2638
 5461TIP3   OH216346   4.424   6.214   4.899  0.1619 -0.3412  0.3042
 5461TIP3    H116347   4.390   6.303   4.902 -0.9267 -0.6235 -1.8645
 5461TIP3    H216348   4.402   6.176   4.984  1.3526  1.6686  1.5646
 5462TIP3   OH216349   0.377   2.902   5.804 -0.3108 -0.6264 -0.3494
 5462TIP3    H116350   0.471   2.885   5.809 -0.4363 -1.2121  0.1665
 5462TIP3    H216351   0.340   2.850   5.875 -0.6057  2.7680  2.2374
 5463TIP3   OH216352   3.908   4.022   4.358 -0.3162 -0.2076  0.3453
 5463TIP3    H116353   3.927   3.953   4.422  0.6030 -0.9458 -0.6785
 5463TIP3    H216354   3.887   3.975   4.277 -0.9772  0.7084 -0.0327
 5464TIP3   OH216355   0.803   5.035   3.212 -0.2603  0.0729  0.6191
 5464TIP3    H116356   0.824   4.981   3.136  0.4225 -0.8439  1.4287
 5464TIP3    H216357   0.824   5.124   3.184  2.1181 -0.4798  0.4213
 5465TIP3   OH216358   6.204   5.534   4.267  0.2441  0.5700 -0.3121
 5465TIP3    H116359   6.255   5.499   4.194 -0.2173 -1.7873  0.4126
 5465TIP3    H216360   6.115   5.539   4.234  0.1498  0.1283 -0.1378
 5466TIP3   OH216361   5.265   2.817   5.492 -0.7432  0.3241  0.5228
 5466TIP3    H116362   5.324   2.852   5.558  0.1006 -1.2551  0.6586
 5466TIP3    H216363   5.177   2.830   5.528 -0.4322  1.7416  0.7988
 5467TIP3   OH216364   6.302   3.975   3.300 -0.3136 -0.4803  0.0599
 5467TIP3    H116365   6.249   3.904   3.263 -1.5206  0.6068 -0.3622
 5467TIP3    H216366   6.317   4.035   3.227  0.5392 -0.1895  0.4569
 5468TIP3   OH216367   3.583   3.577   0.907  0.0404 -0.4067  0.3435
 5468TIP3    H116368   3.662   3.525   0.922  0.8221 -0.1629 -2.3707
 5468TIP3    H216369   3.572   3.577   0.812 -1.1824  2.5284  0.3682
 5469TIP3   OH216370   5.992   1.096   3.830 -0.0641  0.5006  0.3632
 5469TIP3    H116371   6.034   1.023   3.784  0.9795  1.5523 -0.4049
 5469TIP3    H216372   5.918   1.120   3.775 -0.7215 -0.2917  0.8802
 5470TIP3   OH216373   6.638   0.224   1.666 -0.3122 -0.1555  0.1082
 5470TIP3    H116374   6.727   0.254   1.685 -0.3031  0.6382 -1.1183
 5470TIP3    H216375   6.591   0.237   1.748  1.1230 -2.4172  1.4196
 5471TIP3   OH216376   1.500   6.510   1.658 -0.5226  0.2636  0.0195
 5471TIP3    H116377   1.536   6.536   1.573 -0.3755 -0.4726 -0.1504
 5471TIP3    H216378   1.559   6.440   1.688 -1.3714 -0.4307  0.0921
 5472TIP3   OH216379   0.864   3.649   4.593  0.6508  0.4680 -0.2765
 5472TIP3    H116380   0.944   3.693   4.564 -0.1806  0.8382 -2.1443
 5472TIP3    H216381   0.892   3.595   4.667  2.2126  2.1422  0.4294
 5473TIP3   OH216382   0.819   3.757   0.763  0.7668 -0.1282  0.3329
 5473TIP3    H116383   0.839   3.734   0.672 -0.0803 -0.6717  0.2632
 5473TIP3    H216384   0.762   3.686   0.793 -0.2695  0.8553  0.7799
 5474TIP3   OH216385   4.675   5.422   3.816 -0.1813 -0.1857 -0.5060
 5474TIP3    H116386   4.740   5.457   3.756 -0.5252  2.2641  0.4297
 5474TIP3    H216387   4.724   5.366   3.876  0.9218  0.8180 -0.4335
 5475TIP3   OH216388   3.768   1.652   3.833 -0.5852 -0.1365  0.6748
 5475TIP3    H116389   3.784   1.563   3.800 -2.0904  0.2349 -1.2101
 5475TIP3    H216390   3.826   1.707   3.780 -0.3262  0.1105  1.2120
 5476TIP3   OH216391   5.624   2.648   5.899 -0.0841  0.1535  0.3298
 5476TIP3    H116392   5.618   2.641   5.804 -2.1003 -0.1166  0.4142
 5476TIP3    H216393   5.625   2.742   5.917  0.8277  0.2044  0.0320
 5477TIP3   OH216394   3.426   0.896   5.543 -0.1007 -0.6261  0.1061
 5477TIP3    H116395   3.338   0.875   5.509 -0.5922 -0.2114  1.0875
 5477TIP3    H216396   3.446   0.981   5.504 -0.8398  0.0432  1.1438
 5478TIP3   OH216397   1.993   4.695   1.279 -0.3949  0.5988  0.0512
 5478TIP3    H116398   1.929   4.765   1.262  0.5498  1.4006 -0.2512
 5478TIP3    H216399   1.942   4.628   1.324 -1.1934  1.7221  0.8806
 5479TIP3   OH216400   1.200   6.567   4.648 -0.4523 -0.2028 -0.1397
 5479TIP3    H116401   1.115   6.554   4.604  0.3659  1.8220 -2.5450
 5479TIP3    H216402   1.178   6.603   4.734 -2.0292 -0.1891 -0.5209
 5480TIP3   OH216403   5.933   0.453   3.037  0.1590  0.1029  0.8521
 5480TIP3    H116404   5.882   0.397   2.979  0.2879  0.6685  0.1913
 5480TIP3    H216405   6.021   0.453   3.000  0.6024 -0.6598  1.8446
 5481TIP3   OH216406   1.149   6.023   3.201 -0.4450  0.0318 -0.0456
 5481TIP3    H116407   1.110   5.948   3.156 -1.2814 -0.0576  0.8030
 5481TIP3    H216408   1.092   6.097   3.178 -1.3833 -0.1663  1.4867
 5482TIP3   OH216409   5.654   3.112   5.020 -0.3533  0.1892 -0.5588
 5482TIP3    H116410   5.655   3.202   5.055 -0.3888  0.3736 -1.0188
 5482TIP3    H216411   5.611   3.121   4.935 -1.1608 -0.4092 -0.2196
 5483TIP3   OH216412   2.683   3.263   5.858  0.0375 -0.1108 -0.0147
 5483TIP3    H116413   2.622   3.208   5.808  0.2666 -0.5853  0.2207
 5483TIP3    H216414   2.739   3.201   5.904  0.0258  0.3201  0.5961
 5484TIP3   OH216415   2.977   1.449   5.103 -0.6733  0.4394  0.4262
 5484TIP3    H116416   2.995   1.508   5.175  4.1459  0.3463 -0.3252
 5484TIP3    H216417   2.942   1.504   5.034 -0.3654  1.5657  1.1520
 5485TIP3   OH216418   5.821   3.154   1.433 -0.2329  0.4174 -0.2291
 5485TIP3    H116419   5.796   3.240   1.399 -0.8912 -0.6904 -2.7555
 5485TIP3    H216420   5.913   3.164   1.458 -0.5639  2.0802  0.4256
 5486TIP3   OH216421   6.183   5.906   1.894 -0.1348  0.7349  0.0171
 5486TIP3    H116422   6.204   5.999   1.886  0.0011  0.9442  2.2845
 5486TIP3    H216423   6.088   5.903   1.881  0.1706  0.7301 -2.9824
 5487TIP3   OH216424   4.005   3.653   4.251  0.2717 -0.6365 -0.4521
 5487TIP3    H116425   4.061   3.623   4.323  1.8523 -0.7028 -1.6352
 5487TIP3    H216426   4.012   3.583   4.185 -0.8736 -0.4270 -0.8131
 5488TIP3   OH216427   4.873   5.448   2.062  0.2836 -0.1320  0.3954
 5488TIP3    H116428   4.812   5.485   1.998  0.2062 -1.6528 -0.4566
 5488TIP3    H216429   4.934   5.519   2.081 -0.3960  0.7111 -0.4555
 5489TIP3   OH216430   0.897   4.465   5.248 -0.2861  0.1590 -0.2927
 5489TIP3    H116431   0.812   4.429   5.224 -0.4957  0.8515 -0.6043
 5489TIP3    H216432   0.916   4.426   5.334 -1.0378  0.2034 -0.1021
 5490TIP3   OH216433   3.954   0.794   3.285 -0.0520  0.1293 -0.0284
 5490TIP3    H116434   3.880   0.779   3.344 -1.4761  1.5347 -1.3592
 5490TIP3    H216435   4.024   0.827   3.342 -0.6054 -0.7046  1.1810
 5491TIP3   OH216436   6.005   5.264   3.774 -0.3399 -0.3782 -0.1704
 5491TIP3    H116437   5.971   5.175   3.771 -1.4815  0.0500 -0.5489
 5491TIP3    H216438   5.934   5.318   3.740  0.1901  0.7172  0.4002
 5492TIP3   OH216439   4.177   2.968   3.726  0.5801 -0.3227  0.3397
 5492TIP3    H116440   4.216   2.880   3.732 -1.6293 -1.4928 -0.8551
 5492TIP3    H216441   4.219   3.007   3.649  0.5375 -0.9350 -0.0042
 5493TIP3   OH216442   6.392   2.296   0.969  0.0039  0.7706  0.2733
 5493TIP3    H116443   6.397   2.291   0.873 -0.4797  0.8295  0.2454
 5493TIP3    H216444   6.434   2.380   0.990  1.5689  0.0407  0.2376
 5494TIP3   OH216445   5.821   2.496   3.676 -0.1031  0.7119  0.4842
 5494TIP3    H116446   5.816   2.400   3.676 -1.1319  0.7372  2.0848
 5494TIP3    H216447   5.805   2.520   3.585  2.3214 -0.6953 -0.4125
 5495TIP3   OH216448   0.860   1.585   3.627 -0.3821  0.3552  0.0283
 5495TIP3    H116449   0.890   1.494   3.630 -2.0233 -0.2561  3.3605
 5495TIP3    H216450   0.917   1.631   3.688 -0.8704  1.0482 -0.0252
 5496TIP3   OH216451   1.170   0.227   1.600  0.0402  0.1369  0.5516
 5496TIP3    H116452   1.136   0.182   1.676  2.7817 -2.8127  0.2048
 5496TIP3    H216453   1.231   0.165   1.559  1.7599  3.0493 -1.7604
 5497TIP3   OH216454   6.467   1.436   1.514 -0.4131  0.1729 -0.1584
 5497TIP3    H116455   6.485   1.529   1.496  1.9578 -0.0124  0.8458
 5497TIP3    H216456   6.473   1.394   1.428  0.9359  0.6592 -0.3443
 5498TIP3   OH216457   4.443   3.988   4.882  0.3539 -0.0148  0.4552
 5498TIP3    H116458   4.460   3.943   4.799  0.3661  0.8057  0.0063
 5498TIP3    H216459   4.523   3.975   4.933  0.6406  0.1223  0.0436
 5499TIP3   OH216460   2.608   3.824   4.632  0.2190 -0.1558  0.4559
 5499TIP3    H116461   2.602   3.761   4.560 -0.0340 -1.3483  1.5026
 5499TIP3    H216462   2.531   3.880   4.620 -1.2799 -1.9397  1.2438
 5500TIP3   OH216463   5.108   0.193   3.851 -0.2501  0.0875 -0.3721
 5500TIP3    H116464   5.191   0.202   3.899 -0.8524  1.5199  0.4476
 5500TIP3    H216465   5.057   0.270   3.875 -1.9393 -0.8810 -0.6551
 5501TIP3   OH216466   6.947   5.728   0.755 -0.6150  0.4306  0.6059
 5501TIP3    H116467   6.959   5.800   0.694  1.3405 -0.1108  0.2666
 5501TIP3    H216468   6.853   5.714   0.758 -0.8759  1.5895 -0.9611
 5502TIP3   OH216469   4.647   6.608   5.078  0.1491  0.0639  0.1982
 5502TIP3    H116470   4.668   6.520   5.110 -0.6109  0.3185  1.4922
 5502TIP3    H216471   4.729   6.642   5.043  0.2429 -1.4977 -1.2100
 5503TIP3   OH216472   4.307   2.178   2.164  0.4114 -0.0430 -0.1142
 5503TIP3    H116473   4.301   2.272   2.143 -0.3321  0.0347  0.4465
 5503TIP3    H216474   4.251   2.166   2.240  0.5011 -0.9530 -0.1795
 5504TIP3   OH216475   4.123   3.881   2.815 -0.0957  0.4206  0.2881
 5504TIP3    H116476   4.144   3.892   2.722  0.7200 -0.6997  0.3337
 5504TIP3    H216477   4.059   3.950   2.832 -1.3950 -0.2604 -1.4775
 5505TIP3   OH216478   0.698   6.147   5.561  0.7477 -0.2970 -0.0691
 5505TIP3    H116479   0.725   6.059   5.586 -0.5605 -0.7116 -0.0334
 5505TIP3    H216480   0.655   6.136   5.477  0.5249  0.3043 -0.0364
 5506TIP3   OH216481   6.899   4.397   0.208 -0.5753 -0.0244  0.0930
 5506TIP3    H116482   6.955   4.474   0.198  0.5374 -0.5602  1.7353
 5506TIP3    H216483   6.958   4.323   0.193 -0.9167 -0.5900  1.3855
 5507TIP3   OH216484   1.477   4.929   4.196 -0.1700  0.0029  0.0330
 5507TIP3    H116485   1.451   5.007   4.246  1.1644  0.7722 -0.4377
 5507TIP3    H216486   1.506   4.868   4.263 -1.1645 -0.0871  0.4032
 5508TIP3   OH216487   5.515   2.903   2.600 -0.4044  0.2576 -0.6876
 5508TIP3    H116488   5.574   2.923   2.672 -2.0122  2.0944  0.2089
 5508TIP3    H216489   5.562   2.838   2.547  1.5015  0.1088  1.0850
 5509TIP3   OH216490   5.793   1.687   1.495 -0.7760  0.0892 -0.1799
 5509TIP3    H116491   5.720   1.653   1.547  1.3420 -1.7390  1.8236
 5509TIP3    H216492   5.870   1.646   1.534  1.4240  2.5771 -1.6615
 5510TIP3   OH216493   4.475   1.293   2.841 -0.1618 -0.0648  0.1113
 5510TIP3    H116494   4.468   1.241   2.921  0.4808 -0.3537 -0.0145
 5510TIP3    H216495   4.457   1.383   2.869 -1.0427 -0.3123  0.3721
 5511TIP3   OH216496   6.616   0.971   5.021 -0.2666  0.7828 -0.1547
 5511TIP3    H116497   6.615   0.943   5.112 -1.8716  2.0391  0.2762
 5511TIP3    H216498   6.708   0.972   4.996  0.1576 -0.1033  1.2781
 5512TIP3   OH216499   1.147   1.220   4.596  0.1734  0.1463 -0.2713
 5512TIP3    H116500   1.176   1.154   4.533 -0.3547 -0.2162 -0.1375
 5512TIP3    H216501   1.191   1.301   4.567  1.4622 -0.4124  0.0406
 5513TIP3   OH216502   7.219   6.259   5.828 -0.2476  0.6014  0.0399
 5513TIP3    H116503   7.280   6.305   5.887 -1.0191 -0.5956  1.8640
 5513TIP3    H216504   7.132   6.280   5.863 -0.7981  0.6281 -1.2907
 5514TIP3   OH216505   2.946   4.317   4.249  0.2710 -0.0095  0.2039
 5514TIP3    H116506   2.948   4.385   4.182 -1.5989 -1.4163 -1.4241
 5514TIP3    H216507   3.008   4.251   4.218  0.4626 -0.0395  0.6360
 5515TIP3   OH216508   1.550   2.472   0.781 -0.3024  0.9010  0.2295
 5515TIP3    H116509   1.488   2.437   0.845 -0.5348  0.3116 -0.3013
 5515TIP3    H216510   1.623   2.504   0.833  0.9852 -2.4389  0.7173
 5516TIP3   OH216511   0.441   3.158   3.098  0.0679  0.6729  0.1500
 5516TIP3    H116512   0.403   3.215   3.030 -1.6068  0.8603  1.2101
 5516TIP3    H216513   0.416   3.199   3.180 -1.5671 -1.7770  0.9838
 5517TIP3   OH216514   0.436   2.159   5.631  0.2176  0.1925 -1.1644
 5517TIP3    H116515   0.384   2.141   5.709  0.2083  1.4697 -0.8549
 5517TIP3    H216516   0.381   2.132   5.558 -0.2021 -0.0319 -0.7664
 5518TIP3   OH216517   1.393   0.996   4.036 -0.6720 -0.0608  0.1760
 5518TIP3    H116518   1.464   0.941   4.069  0.3133  0.8876 -0.2855
 5518TIP3    H216519   1.436   1.078   4.010 -1.5303 -0.3331 -2.3867
 5519TIP3   OH216520   0.568   2.553   3.172  0.1382  0.0553  0.4083
 5519TIP3    H116521   0.564   2.563   3.267 -3.0232  0.7166  0.3274
 5519TIP3    H216522   0.648   2.598   3.146  0.8484  0.2325  2.6976
 5520TIP3   OH216523   3.936   0.209   3.664  0.2622 -0.0944  0.0136
 5520TIP3    H116524   3.995   0.283   3.676  1.9144 -1.2977 -0.2573
 5520TIP3    H216525   3.889   0.201   3.747  1.1788  0.3123  0.5818
 5521TIP3   OH216526   6.400   2.827   2.035  0.0094  0.3013 -0.0508
 5521TIP3    H116527   6.480   2.872   2.062 -0.6889  2.3088 -1.0701
 5521TIP3    H216528   6.427   2.771   1.962  0.5319  0.8211 -0.2654
 5522TIP3   OH216529   7.141   4.452   3.845 -0.0968 -0.3977  0.7671
 5522TIP3    H116530   7.173   4.499   3.921 -0.2473  0.7850  0.1335
 5522TIP3    H216531   7.051   4.483   3.833  0.2787  0.3013 -0.5228
 5523TIP3   OH216532   5.324   6.216   2.812  0.5031  0.2021  0.6649
 5523TIP3    H116533   5.411   6.204   2.851  0.9024  1.3080  0.1573
 5523TIP3    H216534   5.305   6.309   2.827 -0.3595  0.0858  0.2988
 5524TIP3   OH216535   2.143   0.469   0.480 -0.2475  0.1246 -0.4570
 5524TIP3    H116536   2.125   0.376   0.484 -0.3202  0.1436 -0.3407
 5524TIP3    H216537   2.145   0.498   0.572  0.1111  0.1723 -0.4777
 5525TIP3   OH216538   4.432   5.209   0.774 -0.4652  0.1748 -0.0396
 5525TIP3    H116539   4.454   5.263   0.851 -3.1600  0.8738  0.3684
 5525TIP3    H216540   4.491   5.135   0.779 -1.5107 -0.6329  3.6992
 5526TIP3   OH216541   1.068   4.426   0.562 -0.3545 -0.1759 -0.4268
 5526TIP3    H116542   1.014   4.354   0.595 -1.1272  1.6024  2.5960
 5526TIP3    H216543   1.019   4.505   0.584  1.5413  1.3930 -1.4927
 5527TIP3   OH216544   4.315   5.047   1.622 -0.2409  0.4145 -0.2042
 5527TIP3    H116545   4.286   5.028   1.711 -1.2826  0.3599 -0.5388
 5527TIP3    H216546   4.287   4.972   1.570 -0.8531  1.0296 -0.8078
 5528TIP3   OH216547   4.139   3.895   5.700 -0.3528 -0.1708 -0.2938
 5528TIP3    H116548   4.117   3.867   5.611 -0.3202  0.1354 -0.4015
 5528TIP3    H216549   4.192   3.824   5.736 -0.9569 -0.6204 -0.2673
 5529TIP3   OH216550   3.316   2.951   5.758  0.0937  0.4203 -0.0853
 5529TIP3    H116551   3.292   3.043   5.747 -1.4970  0.0541  0.0383
 5529TIP3    H216552   3.399   2.953   5.807 -1.1777  1.7709  2.1946
 5530TIP3   OH216553   4.984   1.624   2.496 -0.0269 -0.6839  0.2562
 5530TIP3    H116554   5.006   1.538   2.531  0.2699  0.5296  3.3364
 5530TIP3    H216555   4.961   1.677   2.573  3.7383  3.1683 -0.8316
 5531TIP3   OH216556   0.409   1.075   3.165  0.1511 -0.1194 -0.2421
 5531TIP3    H116557   0.502   1.077   3.186 -0.0318 -0.2893  0.6276
 5531TIP3    H216558   0.401   1.011   3.094  0.6111 -0.5839  0.1245
 5532TIP3   OH216559   6.438   5.030   1.701 -0.1905 -0.2390  0.0721
 5532TIP3    H116560   6.417   4.969   1.771  1.0946  0.3518  0.9998
 5532TIP3    H216561   6.447   5.115   1.745 -0.4585  0.3522 -0.9750
 5533TIP3   OH216562   3.323   5.889   0.844  0.1067 -0.5293  0.7028
 5533TIP3    H116563   3.352   5.880   0.935 -0.9221  1.6342  1.3008
 5533TIP3    H216564   3.240   5.841   0.840  0.1585 -0.6367  0.8920
 5534TIP3   OH216565   4.486   6.294   4.233  0.0358 -0.0934  0.0766
 5534TIP3    H116566   4.393   6.273   4.237  0.3577 -2.1195 -1.3431
 5534TIP3    H216567   4.489   6.382   4.196 -1.3126 -0.6099 -1.3841
 5535TIP3   OH216568   1.261   0.739   0.354 -0.0434 -0.3035 -0.3081
 5535TIP3    H116569   1.235   0.652   0.383 -1.6189  0.7182  1.6384
 5535TIP3    H216570   1.356   0.735   0.347 -0.0657 -2.1018 -0.0405
 5536TIP3   OH216571   6.144   6.099   1.618  0.4141  0.2108  0.2414
 5536TIP3    H116572   6.167   6.097   1.710 -0.3412  0.2816  0.4446
 5536TIP3    H216573   6.106   6.013   1.600 -0.2582  0.5023  0.2310
 5537TIP3   OH216574   6.313   5.678   0.688 -0.1377  0.3569 -0.0738
 5537TIP3    H116575   6.284   5.590   0.663  1.1785 -0.1612  0.1425
 5537TIP3    H216576   6.360   5.665   0.770 -1.4152  1.5346  0.8852
 5538TIP3   OH216577   1.986   4.380   5.404 -0.5216  0.0294 -0.5589
 5538TIP3    H116578   1.950   4.296   5.377  0.9072 -0.8203  0.0906
 5538TIP3    H216579   2.031   4.362   5.486  0.8779  1.1499 -1.0451
 5539TIP3   OH216580   6.649   1.791   3.462  0.7416  0.4233  0.4487
 5539TIP3    H116581   6.716   1.859   3.448  0.4806  0.3798 -1.1811
 5539TIP3    H216582   6.699   1.713   3.486  1.1475  0.8147  0.9023
 5540TIP3   OH216583   4.860   3.194   0.816  0.2885 -0.1765  0.0065
 5540TIP3    H116584   4.899   3.262   0.761 -0.5850 -0.1065 -0.5547
 5540TIP3    H216585   4.815   3.242   0.885 -1.6254 -0.0623 -1.2442
 5541TIP3   OH216586   0.216   5.427   3.294 -0.0590 -0.0030  0.1625
 5541TIP3    H116587   0.182   5.340   3.316 -1.3915 -0.0849 -1.9911
 5541TIP3    H216588   0.140   5.484   3.300  0.2837  0.5643 -0.8493
 5542TIP3   OH216589   4.253   1.871   3.523  0.3097  0.1887 -0.1014
 5542TIP3    H116590   4.158   1.883   3.512  0.1547  1.0745  1.8612
 5542TIP3    H216591   4.270   1.783   3.488 -1.5356 -0.7099  1.0898
 5543TIP3   OH216592   3.207   1.716   0.291 -0.3446 -0.4888 -0.3087
 5543TIP3    H116593   3.199   1.741   0.383  0.3421  1.8530 -0.8031
 5543TIP3    H216594   3.117   1.710   0.259 -0.5634 -0.2520  0.2565
 5544TIP3   OH216595   5.173   1.807   4.636 -0.3985 -0.0306  0.1814
 5544TIP3    H116596   5.087   1.765   4.636  0.3607 -1.6557 -0.0838
 5544TIP3    H216597   5.222   1.765   4.566 -0.0082  2.3266 -1.0885
 5545TIP3   OH216598   4.600   6.028   0.573  0.2105 -0.4809  0.0941
 5545TIP3    H116599   4.623   5.945   0.614  2.7736  0.1379  0.0874
 5545TIP3    H216600   4.562   6.080   0.644 -1.0349 -1.4755  0.1857
 5546TIP3   OH216601   5.046   5.314   4.759  0.2750 -0.2872 -0.2634
 5546TIP3    H116602   4.997   5.265   4.693 -0.7290  1.2142 -0.6866
 5546TIP3    H216603   5.117   5.356   4.710 -0.3963  0.7265 -0.4128
 5547TIP3   OH216604   3.960   3.598   4.664 -0.5093 -0.7431  0.2030
 5547TIP3    H116605   4.015   3.663   4.621 -1.7873  0.3302  0.1477
 5547TIP3    H216606   3.930   3.541   4.593 -0.7753 -0.3547  0.0024
 5548TIP3   OH216607   7.076   2.271   5.151  0.3787 -0.0228 -0.4654
 5548TIP3    H116608   7.003   2.324   5.117  0.2868  0.0243 -0.1946
 5548TIP3    H216609   7.153   2.325   5.136  0.2273  0.4100  0.2733
 5549TIP3   OH216610   4.224   0.074   1.537 -0.3608  0.2618 -0.3533
 5549TIP3    H116611   4.205   0.164   1.562 -0.8830  0.4702 -1.4071
 5549TIP3    H216612   4.138   0.037   1.513  0.2234  0.6877 -3.5997
 5550TIP3   OH216613   2.665   6.060   5.228 -0.1400  0.3971  0.4012
 5550TIP3    H116614   2.574   6.089   5.234 -0.1929  0.4916 -0.6865
 5550TIP3    H216615   2.661   5.980   5.175  0.5824  1.3511 -1.1541
 5551TIP3   OH216616   1.395   5.393   0.677  0.0832  0.2207 -0.2052
 5551TIP3    H116617   1.387   5.442   0.759 -0.7519  0.7125 -0.5738
 5551TIP3    H216618   1.342   5.442   0.614  1.1523  0.1568 -1.1877
 5552TIP3   OH216619   1.074   1.449   5.052 -0.1568  0.2431 -0.3383
 5552TIP3    H116620   1.095   1.541   5.061  0.1642  0.0581  0.9756
 5552TIP3    H216621   1.157   1.407   5.030 -0.3700  0.3017 -1.2930
 5553TIP3   OH216622   4.931   5.529   4.891 -0.0334  0.3708 -0.4088
 5553TIP3    H116623   4.981   5.512   4.972  1.1576 -0.0010 -1.1946
 5553TIP3    H216624   4.946   5.452   4.837  0.1162  1.1087 -1.4344
 5554TIP3   OH216625   2.587   6.749   3.898 -0.6208  0.2095  0.2047
 5554TIP3    H116626   2.578   6.700   3.816  2.0292 -2.0827  1.1352
 5554TIP3    H216627   2.644   6.823   3.876  1.0455 -1.0433  0.1356
 5555TIP3   OH216628   4.760   2.566   1.736  0.3339 -0.8346  0.3691
 5555TIP3    H116629   4.680   2.617   1.724  0.7609  0.0658  1.2277
 5555TIP3    H216630   4.804   2.607   1.810  3.6202  1.3629 -2.4876
 5556TIP3   OH216631   3.189   4.135   3.215  0.1299 -0.4784 -0.3992
 5556TIP3    H116632   3.228   4.212   3.258 -0.9790  1.7970 -3.1239
 5556TIP3    H216633   3.264   4.085   3.184  0.9074  0.6173 -0.3549
 5557TIP3   OH216634   5.995   0.654   1.496  0.4629  0.5410 -0.2896
 5557TIP3    H116635   6.022   0.603   1.573  0.0909 -0.1951 -0.6406
 5557TIP3    H216636   6.067   0.715   1.481  0.6679  0.4948  0.4678
 5558TIP3   OH216637   1.064   5.900   2.172 -0.0667  0.2443  0.3924
 5558TIP3    H116638   1.157   5.893   2.190 -0.0930  1.9385  1.4975
 5558TIP3    H216639   1.022   5.844   2.238  0.1236  1.1710  1.3375
 5559TIP3   OH216640   6.339   6.217   0.786  0.4185 -0.1715  0.4316
 5559TIP3    H116641   6.420   6.254   0.753  0.2481  0.3378  0.5561
 5559TIP3    H216642   6.270   6.266   0.741  0.1863  0.0584  1.0118
 5560TIP3   OH216643   3.173   4.800   1.823  0.0108  0.5073 -0.1254
 5560TIP3    H116644   3.138   4.826   1.908 -0.5800 -0.0681 -0.1807
 5560TIP3    H216645   3.166   4.704   1.822 -1.4570  0.5894 -1.4237
 5561TIP3   OH216646   6.886   5.755   2.035 -0.2319 -0.4866 -0.2208
 5561TIP3    H116647   6.843   5.725   2.115 -1.6110 -0.9348 -1.0956
 5561TIP3    H216648   6.889   5.850   2.044  0.3946 -0.5859  0.7310
 5562TIP3   OH216649   4.864   5.373   5.161  0.3829  0.4828  0.1696
 5562TIP3    H116650   4.944   5.401   5.116  0.7158  0.5311  0.7870
 5562TIP3    H216651   4.890   5.297   5.212 -0.3104 -0.4194 -0.7776
 5563TIP3   OH216652   6.258   1.254   4.332  0.0279 -0.6360 -0.2277
 5563TIP3    H116653   6.191   1.265   4.265 -0.1823 -0.1528  0.0571
 5563TIP3    H216654   6.210   1.242   4.413  0.2674 -2.2529 -0.2938
 5564TIP3   OH216655   4.451   3.764   5.399  0.2946  0.1043  0.4716
 5564TIP3    H116656   4.493   3.809   5.473  0.7164  1.3314 -0.4779
 5564TIP3    H216657   4.446   3.673   5.426  0.6953  0.4789  1.9017
 5565TIP3   OH216658   6.220   0.120   1.673 -0.4333  0.2634 -0.0270
 5565TIP3    H116659   6.231   0.196   1.616  1.7924 -1.5058 -2.1958
 5565TIP3    H216660   6.310   0.090   1.691 -1.2099 -1.7071  0.9183
 5566TIP3   OH216661   6.199   3.611   1.542 -0.0817 -0.2180  0.0744
 5566TIP3    H116662   6.180   3.536   1.598  2.9656 -2.2506 -1.3809
 5566TIP3    H216663   6.231   3.679   1.602  0.1813 -1.2152  1.0948
 5567TIP3   OH216664   4.526   5.900   3.884 -0.6490 -0.8930 -0.0582
 5567TIP3    H116665   4.478   5.983   3.880  0.5127 -0.2390 -2.4645
 5567TIP3    H216666   4.479   5.848   3.949 -1.1894  1.7618  1.8274
 5568TIP3   OH216667   0.262   4.745   2.577  0.0022  0.9132  0.0569
 5568TIP3    H116668   0.334   4.729   2.516  0.2282 -0.3255  0.6227
 5568TIP3    H216669   0.271   4.837   2.601  1.4602  0.7591  0.1796
 5569TIP3   OH216670   4.936   5.498   0.919 -0.3961  0.0454  0.5670
 5569TIP3    H116671   5.018   5.547   0.922 -0.5713  0.6293 -1.9480
 5569TIP3    H216672   4.963   5.406   0.920  0.2310  0.2238  0.6481
 5570TIP3   OH216673   4.228   4.782   1.645 -1.0675 -0.2411  0.3429
 5570TIP3    H116674   4.263   4.745   1.563 -1.3731 -1.2007  0.6317
 5570TIP3    H216675   4.267   4.728   1.714 -0.0527  1.1650  0.9131
 5571TIP3   OH216676   4.914   6.186   0.997  0.3298  0.1852 -0.2111
 5571TIP3    H116677   4.842   6.132   1.029  1.5562 -0.9831  0.6836
 5571TIP3    H216678   4.889   6.208   0.907 -0.5129 -1.3469 -0.3850
 5572TIP3   OH216679   3.228   2.701   1.248 -0.4406  0.3083  0.6094
 5572TIP3    H116680   3.152   2.672   1.197  0.9279  1.3366 -2.2552
 5572TIP3    H216681   3.303   2.661   1.203  0.8447  0.9653  2.0927
 5573TIP3   OH216682   7.015   5.013   4.112  0.0177  0.1247  0.4869
 5573TIP3    H116683   6.995   4.952   4.040 -1.3365 -0.0341  0.9661
 5573TIP3    H216684   6.966   4.978   4.186 -0.8727  1.8571  0.7499
 5574TIP3   OH216685   6.981   4.218   4.058  0.0443 -0.0054  0.1140
 5574TIP3    H116686   6.997   4.308   4.030  0.1373  0.2501  0.9735
 5574TIP3    H216687   7.043   4.204   4.129 -0.7922 -0.3543  0.7810
 5575TIP3   OH216688   1.130   4.233   3.360 -0.1178  0.5276 -1.0635
 5575TIP3    H116689   1.205   4.293   3.366  0.1908 -0.0001  1.0419
 5575TIP3    H216690   1.062   4.284   3.316  0.4006  2.1921 -0.0361
 5576TIP3   OH216691   3.425   4.963   5.539  0.1859  0.9452 -0.1035
 5576TIP3    H116692   3.482   5.019   5.593 -1.1415 -0.5212  3.0710
 5576TIP3    H216693   3.458   4.874   5.554 -1.0173  0.3750 -0.7091
 5577TIP3   OH216694   3.735   4.556   0.837 -0.3416  0.3472  0.3907
 5577TIP3    H116695   3.792   4.479   0.832  0.1705  0.7711 -0.7692
 5577TIP3    H216696   3.779   4.622   0.782 -2.5109  0.3020 -1.5662
 5578TIP3   OH216697   2.908   3.721   2.069 -0.2689 -0.0051 -0.2948
 5578TIP3    H116698   2.979   3.723   2.005  0.7412 -3.9145  0.4219
 5578TIP3    H216699   2.831   3.752   2.021  1.1837  0.8130 -2.2173
 5579TIP3   OH216700   4.963   3.753   4.831 -0.5803  0.0210 -0.0055
 5579TIP3    H116701   5.030   3.744   4.899 -1.1640 -2.1994  0.3378
 5579TIP3    H216702   4.889   3.702   4.863 -0.9209 -1.0068 -2.2415
 5580TIP3   OH216703   5.151   5.979   3.406 -0.8437  0.0938  0.5497
 5580TIP3    H116704   5.205   6.036   3.460  0.8266 -0.5790 -0.3230
 5580TIP3    H216705   5.178   5.890   3.429 -2.3726 -0.3302  0.8484
 5581TIP3   OH216706   1.424   2.409   1.729  0.0847  0.3559 -0.1778
 5581TIP3    H116707   1.357   2.422   1.663  0.6073 -1.4124 -1.1215
 5581TIP3    H216708   1.475   2.491   1.728 -1.1565  1.1518 -0.4554
 5582TIP3   OH216709   4.870   3.017   2.523 -0.4696 -0.1597  0.0493
 5582TIP3    H116710   4.866   2.984   2.613 -0.5271  0.3002  0.2174
 5582TIP3    H216711   4.934   3.087   2.525  0.2159 -0.7599 -0.4769
 5583TIP3   OH216712   1.604   4.155   0.169  0.4756  0.1555 -0.2457
 5583TIP3    H116713   1.620   4.102   0.247 -0.4946 -1.0879 -0.8437
 5583TIP3    H216714   1.518   4.194   0.183  1.4477  2.1789  0.4729
 5584TIP3   OH216715   6.026   2.156   3.426  0.0895 -0.8758 -0.7366
 5584TIP3    H116716   6.086   2.117   3.489 -1.2792 -1.1026  0.4807
 5584TIP3    H216717   6.049   2.115   3.342  1.1796 -1.4454 -0.1784
 5585TIP3   OH216718   2.265   4.284   5.197 -0.0045  0.3380  0.0279
 5585TIP3    H116719   2.331   4.291   5.128  0.4730  0.7511  0.5243
 5585TIP3    H216720   2.192   4.237   5.155  0.7694 -0.5168 -0.3919
 5586TIP3   OH216721   5.686   2.165   5.552  0.1974  0.1584 -0.2012
 5586TIP3    H116722   5.721   2.245   5.514  0.3441 -0.2665 -0.9914
 5586TIP3    H216723   5.646   2.119   5.478  1.5246 -1.2600 -0.0846
 5587TIP3   OH216724   4.602   1.359   4.516  0.2462 -0.2605 -0.2756
 5587TIP3    H116725   4.642   1.407   4.588  0.4190  0.4726 -0.8448
 5587TIP3    H216726   4.624   1.410   4.438 -0.1843 -0.8780 -0.8149
 5588TIP3   OH216727   7.024   4.315   5.099  0.2386 -0.1991  0.0993
 5588TIP3    H116728   7.008   4.325   5.005 -2.5826  1.1082  0.6042
 5588TIP3    H216729   6.946   4.271   5.132 -0.2471  2.0411  2.1970
 5589TIP3   OH216730   6.827   4.259   3.347 -0.2108 -0.4796  0.1596
 5589TIP3    H116731   6.823   4.298   3.435  1.2822 -1.2984  0.6147
 5589TIP3    H216732   6.882   4.320   3.297  0.2629 -0.8263  0.2505
 5590TIP3   OH216733   5.772   0.691   1.365 -0.0912  0.7257  0.5444
 5590TIP3    H116734   5.828   0.679   1.442  0.1704  0.9434  0.3897
 5590TIP3    H216735   5.749   0.602   1.337  0.7775  0.6151  0.1670
 5591TIP3   OH216736   0.974   1.508   5.776 -0.0120  0.0840 -0.1268
 5591TIP3    H116737   0.943   1.441   5.715 -0.4148  0.0271  0.1378
 5591TIP3    H216738   1.005   1.459   5.852 -0.9548  0.2264  0.3580
 5592TIP3   OH216739   2.003   1.275   1.482 -0.1648  0.1468  0.1754
 5592TIP3    H116740   1.982   1.367   1.462  1.7221  0.4899 -0.4337
 5592TIP3    H216741   2.010   1.272   1.578 -0.5935  0.5512  0.2225
 5593TIP3   OH216742   0.304   1.860   0.812 -0.2123 -0.4620  0.1567
 5593TIP3    H116743   0.306   1.818   0.898  0.3624 -1.1139 -0.1628
 5593TIP3    H216744   0.211   1.861   0.787 -0.7235  2.0545  1.8758
 5594TIP3   OH216745   6.603   3.468   5.842 -0.2023  0.5200  0.0192
 5594TIP3    H116746   6.648   3.451   5.925  0.4072 -0.2786 -0.4583
 5594TIP3    H216747   6.671   3.505   5.786 -0.3157 -0.0457 -0.4944
 5595TIP3   OH216748   6.869   1.751   4.393 -0.2116  0.6095  0.2056
 5595TIP3    H116749   6.781   1.788   4.393  1.0424  3.8515 -0.0502
 5595TIP3    H216750   6.887   1.732   4.485 -1.3874 -0.7970  0.1841
 5596TIP3   OH216751   4.721   5.214   0.605 -0.4289 -0.1248 -0.0942
 5596TIP3    H116752   4.711   5.184   0.514 -1.1329 -1.8702  0.5283
 5596TIP3    H216753   4.672   5.296   0.608 -2.2820 -1.1436 -0.7731
 5597TIP3   OH216754   3.144   6.094   3.492  0.5775 -0.0407 -0.7983
 5597TIP3    H116755   3.106   6.010   3.519  0.7890  0.7648  2.3496
 5597TIP3    H216756   3.227   6.100   3.540 -0.1919  2.6433  0.3838
 5598TIP3   OH216757   1.469   6.199   3.896  0.0062  0.0030 -0.2173
 5598TIP3    H116758   1.524   6.241   3.961  0.8150 -0.8630 -0.3161
 5598TIP3    H216759   1.428   6.126   3.943 -0.4662  0.1884 -0.3366
 5599TIP3   OH216760   6.177   1.498   3.966  0.0101  0.1344 -0.6660
 5599TIP3    H116761   6.093   1.520   4.005 -0.1270  0.8154 -1.3180
 5599TIP3    H216762   6.242   1.538   4.024 -0.0902 -0.6553  0.0080
 5600TIP3   OH216763   3.185   3.909   2.472 -0.1425 -0.0405 -0.4170
 5600TIP3    H116764   3.274   3.874   2.458  0.4201  0.8171  0.8493
 5600TIP3    H216765   3.128   3.833   2.460  0.7671 -0.6451 -1.0884
 5601TIP3   OH216766   6.764   4.284   2.116 -0.3400 -0.3811  0.3558
 5601TIP3    H116767   6.785   4.374   2.092 -0.3579 -0.8242 -1.4793
 5601TIP3    H216768   6.834   4.258   2.176 -0.2735  0.8075  0.8145
 5602TIP3   OH216769   2.012   6.748   4.317 -0.1346 -0.2226 -0.2940
 5602TIP3    H116770   2.031   6.747   4.223  0.6175 -0.7104 -0.1397
 5602TIP3    H216771   1.928   6.704   4.325  0.1922 -0.9258 -0.6585
 5603TIP3   OH216772   6.997   1.631   5.438  0.3961 -0.0961 -0.3401
 5603TIP3    H116773   6.917   1.681   5.425 -0.1401 -0.6728  0.6315
 5603TIP3    H216774   7.057   1.664   5.371  0.2188  2.1614  0.5201
 5604TIP3   OH216775   5.629   6.593   3.001  0.3074 -0.3467 -0.6146
 5604TIP3    H116776   5.678   6.667   3.036 -2.2260  0.9156  0.5452
 5604TIP3    H216777   5.625   6.610   2.906  0.5329  0.5226 -0.4769
 5605TIP3   OH216778   5.324   2.495   1.612  0.3749 -0.0499 -0.1191
 5605TIP3    H116779   5.360   2.517   1.526  0.9566 -0.8690 -0.1080
 5605TIP3    H216780   5.368   2.412   1.635 -1.3752 -0.9868  0.0021
 5606TIP3   OH216781   1.339   2.318   3.207  0.6622 -0.3715 -0.1228
 5606TIP3    H116782   1.340   2.223   3.219  0.8270 -1.0208 -3.9412
 5606TIP3    H216783   1.248   2.340   3.190  0.3131  0.5576  2.5102
 5607TIP3   OH216784   4.730   5.323   4.245  0.0935  0.3962 -0.0352
 5607TIP3    H116785   4.687   5.237   4.250 -1.6745  1.2277 -0.4705
 5607TIP3    H216786   4.716   5.361   4.332 -0.4476  0.8637 -0.3304
 5608TIP3   OH216787   4.881   5.556   3.688 -0.0231  0.0699  0.2850
 5608TIP3    H116788   4.827   5.635   3.683  1.9318  1.4804  0.3202
 5608TIP3    H216789   4.904   5.537   3.597  0.3513  0.1830  0.3519
 5609TIP3   OH216790   0.997   4.777   2.348  0.4498 -0.0978  0.2163
 5609TIP3    H116791   1.089   4.795   2.366  0.6933 -1.3126  0.2637
 5609TIP3    H216792   0.997   4.691   2.307 -0.6265  0.1159 -0.2738
 5610TIP3   OH216793   6.516   6.366   3.237  0.1841 -0.4474  0.3641
 5610TIP3    H116794   6.472   6.285   3.212 -0.7809  0.3475 -0.6380
 5610TIP3    H216795   6.483   6.431   3.175 -1.0909  1.3085  2.6914
 5611TIP3   OH216796   5.322   6.238   1.247  0.1373 -0.8078 -0.4594
 5611TIP3    H116797   5.406   6.235   1.201  0.1573 -0.9695 -0.4118
 5611TIP3    H216798   5.310   6.150   1.281  0.2555 -0.6155  0.0859
 5612TIP3   OH216799   2.274   6.757   1.449 -0.2355 -0.7094  0.6837
 5612TIP3    H116800   2.216   6.831   1.431 -0.1348 -1.0005 -1.0201
 5612TIP3    H216801   2.320   6.781   1.529 -0.0204  1.1750  0.0344
 5613TIP3   OH216802   0.355   1.029   3.970  0.1059 -0.6890 -0.2107
 5613TIP3    H116803   0.368   0.939   3.998 -0.7054 -0.3780  1.2496
 5613TIP3    H216804   0.265   1.050   3.995  1.0184  1.2756  1.7450
 5614TIP3   OH216805   4.218   6.255   4.308 -0.0854  0.1215  0.1070
 5614TIP3    H116806   4.141   6.306   4.284  0.4618  1.3730  0.8904
 5614TIP3    H216807   4.248   6.294   4.390  0.4127 -1.4383  0.7051
 5615TIP3   OH216808   6.118   4.977   5.209 -0.1474 -0.0987  0.2741
 5615TIP3    H116809   6.144   4.994   5.118  0.5721 -1.0426  0.2852
 5615TIP3    H216810   6.083   4.888   5.207 -0.3807 -0.0232  0.8825
 5616TIP3   OH216811   0.910   3.136   5.569 -0.2426  0.1025  0.3546
 5616TIP3    H116812   0.832   3.129   5.625 -0.5989  0.4573 -0.0887
 5616TIP3    H216813   0.979   3.166   5.627 -0.5760  0.3226  0.6394
 5617TIP3   OH216814   4.704   1.903   4.951 -0.0518  0.1269 -0.2293
 5617TIP3    H116815   4.782   1.870   4.996 -0.3090 -2.5598 -1.5435
 5617TIP3    H216816   4.631   1.864   4.998 -0.5868  1.4817  0.1128
 5618TIP3   OH216817   1.129   3.659   1.577 -0.7552  0.3741 -0.4046
 5618TIP3    H116818   1.152   3.619   1.661 -0.7498 -1.4900 -1.2591
 5618TIP3    H216819   1.197   3.725   1.562 -0.7807  0.7666  1.0403
 5619TIP3   OH216820   0.063   5.850   3.147 -0.1738 -0.1680 -0.1261
 5619TIP3    H116821   0.103   5.847   3.060 -0.8025 -0.9400 -0.4042
 5619TIP3    H216822   0.062   5.943   3.170  1.9301 -0.1389 -0.0153
 5620TIP3   OH216823   5.916   0.572   4.259 -0.2996 -0.2684 -0.1471
 5620TIP3    H116824   5.999   0.617   4.276 -0.5527 -0.3620  1.4943
 5620TIP3    H216825   5.849   0.637   4.283 -0.6889 -0.6371 -0.2293
 5621TIP3   OH216826   3.580   3.504   4.768  0.5731 -0.9202 -0.0699
 5621TIP3    H116827   3.538   3.418   4.759  1.0143 -1.0929 -0.5055
 5621TIP3    H216828   3.510   3.567   4.751  0.5214 -1.2095 -0.9710
 5622TIP3   OH216829   6.510   4.861   0.688  0.0568 -0.5383  0.1568
 5622TIP3    H116830   6.583   4.804   0.713  1.9523  1.5067 -0.4024
 5622TIP3    H216831   6.435   4.802   0.680  1.8577 -2.9061 -0.2912
 5623TIP3   OH216832   4.698   5.800   3.691 -0.0708  0.2815  0.4722
 5623TIP3    H116833   4.652   5.800   3.775  2.7533  2.0427  2.2190
 5623TIP3    H216834   4.754   5.878   3.695  0.0921  0.5196 -3.1670
 5624TIP3   OH216835   0.812   2.666   5.699 -0.5532  0.2266  0.4613
 5624TIP3    H116836   0.876   2.605   5.660 -0.3664 -0.5980  1.9863
 5624TIP3    H216837   0.865   2.740   5.729 -0.7159  0.9380 -0.9129
 5625TIP3   OH216838   4.020   5.534   5.816  0.1438  0.5278  0.1023
 5625TIP3    H116839   4.025   5.563   5.725  0.4173  2.3708  0.6694
 5625TIP3    H216840   4.016   5.438   5.810 -1.7883  0.6388 -1.9179
 5626TIP3   OH216841   2.559   3.122   3.206  0.0888  0.0455  0.2107
 5626TIP3    H116842   2.483   3.169   3.241  1.3508  2.6778 -0.3263
 5626TIP3    H216843   2.574   3.163   3.121  0.2766 -2.5796 -1.0965
 5627TIP3   OH216844   5.757   4.886   2.224  0.2802 -0.0235  0.1910
 5627TIP3    H116845   5.776   4.921   2.311 -0.5748  0.4316  0.2104
 5627TIP3    H216846   5.738   4.793   2.239 -0.7048  0.2314  0.6304
 5628TIP3   OH216847   6.098   3.599   5.280  0.3057 -0.3999 -0.2916
 5628TIP3    H116848   6.189   3.583   5.305  0.7863 -0.0919 -1.6984
 5628TIP3    H216849   6.094   3.694   5.267 -0.3359 -0.3634  0.1790
 5629TIP3   OH216850   6.274   0.975   4.331 -0.2941 -0.3712  0.5463
 5629TIP3    H116851   6.247   0.947   4.244  0.6429  0.6993 -0.1072
 5629TIP3    H216852   6.271   1.070   4.329 -2.0283 -0.3327  2.2848
 5630TIP3   OH216853   4.231   4.541   2.185  0.3363 -0.7033  0.0819
 5630TIP3    H116854   4.149   4.514   2.227  0.0324 -0.5687 -0.4146
 5630TIP3    H216855   4.215   4.631   2.157  0.5779 -0.7513 -0.2113
 5631TIP3   OH216856   3.999   0.642   0.025  0.1071  0.1044  0.4337
 5631TIP3    H116857   3.914   0.673   0.056  0.6165  0.1778  1.8477
 5631TIP3    H216858   4.049   0.626   0.105  0.4517 -2.7939 -0.2751
 5632TIP3   OH216859   4.466   3.391   2.586  0.2243 -0.1902 -0.2667
 5632TIP3    H116860   4.500   3.308   2.552 -0.6729 -0.1530 -1.2907
 5632TIP3    H216861   4.371   3.382   2.581  0.0890  0.4075  0.8586
 5633TIP3   OH216862   5.300   1.468   0.850 -0.3916 -0.1613 -0.3562
 5633TIP3    H116863   5.205   1.477   0.836 -0.5363  0.6945  0.9086
 5633TIP3    H216864   5.308   1.403   0.920  0.0698 -1.5175 -1.6387
 5634TIP3   OH216865   0.469   1.144   3.494  0.0715 -0.2531 -0.7558
 5634TIP3    H116866   0.497   1.160   3.404  0.9563 -0.4862 -0.5253
 5634TIP3    H216867   0.374   1.129   3.487 -0.0247  0.6278 -1.5303
 5635TIP3   OH216868   5.629   2.514   1.796  0.0301 -0.7337  0.4046
 5635TIP3    H116869   5.699   2.451   1.813  0.7283  0.4652  2.3113
 5635TIP3    H216870   5.564   2.496   1.863 -0.5969 -0.5522 -0.1412
 5636TIP3   OH216871   3.091   1.314   4.783  0.2516 -0.2555  0.1130
 5636TIP3    H116872   3.056   1.230   4.754 -1.3330  0.6621 -0.7654
 5636TIP3    H216873   3.032   1.379   4.746  1.9457  1.3194  0.0049
 5637TIP3   OH216874   2.027   2.139   1.593  0.2512  0.5491  0.2012
 5637TIP3    H116875   2.019   2.068   1.530  0.7681 -0.3285  1.1032
 5637TIP3    H216876   1.948   2.133   1.647  0.9464 -0.2452  1.1649
 5638TIP3   OH216877   4.165   3.871   4.093  0.0894  0.0545 -0.5297
 5638TIP3    H116878   4.137   3.781   4.110  0.9187 -0.5261 -2.0393
 5638TIP3    H216879   4.135   3.888   4.004  1.0160  0.8304 -0.7043
 5639TIP3   OH216880   2.670   5.324   4.254  0.0326 -0.0167 -0.2910
 5639TIP3    H116881   2.726   5.248   4.270  1.0514  0.5607 -1.0004
 5639TIP3    H216882   2.704   5.392   4.313 -0.5649  0.0449 -0.0046
 5640TIP3   OH216883   6.161   2.563   4.623 -0.5066 -0.5434 -0.4151
 5640TIP3    H116884   6.070   2.541   4.640 -0.3353 -1.2007 -0.2984
 5640TIP3    H216885   6.158   2.632   4.557 -1.1068  0.0909  0.2650
 5641TIP3   OH216886   6.792   4.102   5.791  0.0341 -0.0777 -0.2339
 5641TIP3    H116887   6.753   4.079   5.707  1.7816  0.7571 -1.3257
 5641TIP3    H216888   6.880   4.065   5.788  0.4771  0.8222  0.8007
 5642TIP3   OH216889   5.605   1.223   2.294  0.1113 -0.0224 -0.1215
 5642TIP3    H116890   5.688   1.272   2.295 -0.0480  0.2506 -0.2191
 5642TIP3    H216891   5.558   1.257   2.218  0.4516 -1.0873 -0.8230
 5643TIP3   OH216892   6.400   4.866   2.999  0.5881  0.5734  0.3295
 5643TIP3    H116893   6.336   4.795   3.001 -0.6583  1.5247 -1.6310
 5643TIP3    H216894   6.374   4.924   3.071  0.7722 -0.2457  1.0715
 5644TIP3   OH216895   2.981   1.400   1.610 -0.0350 -0.4101  0.1983
 5644TIP3    H116896   3.025   1.450   1.542 -2.4682 -0.7446 -1.7347
 5644TIP3    H216897   2.922   1.462   1.652 -0.5794 -0.8612  0.1041
 5645TIP3   OH216898   5.501   5.638   2.065  0.3571 -0.4681 -0.2054
 5645TIP3    H116899   5.470   5.556   2.028  2.0662 -0.5327 -1.6444
 5645TIP3    H216900   5.579   5.660   2.014 -0.5842  2.5952 -0.5671
 5646TIP3   OH216901   3.343   5.403   4.070 -0.0541 -0.3382 -0.0321
 5646TIP3    H116902   3.300   5.320   4.085 -0.2491 -0.4436 -1.0937
 5646TIP3    H216903   3.413   5.383   4.008 -0.7230  0.4347 -1.0841
 5647TIP3   OH216904   6.614   0.451   5.168 -0.4600 -0.2940  0.5096
 5647TIP3    H116905   6.566   0.488   5.093  3.3359  1.8813 -1.1506
 5647TIP3    H216906   6.642   0.364   5.138  0.8776  0.4903 -0.6826
 5648TIP3   OH216907   3.555   1.395   4.689  0.3522  0.3038  0.2606
 5648TIP3    H116908   3.619   1.464   4.708  1.0425 -0.1709 -0.2561
 5648TIP3    H216909   3.489   1.438   4.635 -0.1897  0.9946  1.4477
 5649TIP3   OH216910   4.400   6.657   1.410 -0.1571  0.0292 -0.5388
 5649TIP3    H116911   4.408   6.671   1.316  2.1245 -0.0356 -0.4123
 5649TIP3    H216912   4.386   6.562   1.419 -1.7761  0.2181 -0.8358
 5650TIP3   OH216913   0.188   6.731   1.310 -0.2194 -0.4847 -0.0865
 5650TIP3    H116914   0.125   6.802   1.297 -0.1356 -0.1527  1.2098
 5650TIP3    H216915   0.273   6.774   1.310 -0.2726 -0.2243  2.7505
 5651TIP3   OH216916   3.961   4.532   1.751 -0.3731  0.3847 -0.0653
 5651TIP3    H116917   3.963   4.615   1.798  1.5049  0.8180 -0.8143
 5651TIP3    H216918   3.910   4.551   1.672  3.0559  2.0426 -2.1358
 5652TIP3   OH216919   2.149   5.438   2.722 -0.3860  0.1214  0.1166
 5652TIP3    H116920   2.088   5.450   2.794 -0.6695 -1.6927  0.2281
 5652TIP3    H216921   2.096   5.403   2.650  0.3517 -0.7248 -0.0404
 5653TIP3   OH216922   3.009   3.756   2.335 -0.6133 -0.9301 -0.2630
 5653TIP3    H116923   2.973   3.792   2.254  1.2140  1.4853 -0.0991
 5653TIP3    H216924   3.081   3.699   2.306 -1.1531 -1.5702 -0.3752
 5654TIP3   OH216925   3.512   6.435   1.566 -0.1723  0.3310 -0.3814
 5654TIP3    H116926   3.471   6.461   1.484 -1.8570 -0.8614  0.0323
 5654TIP3    H216927   3.590   6.386   1.539 -1.3838 -1.1487 -1.3335
 5655TIP3   OH216928   0.966   0.009   3.136  0.5683 -0.0128 -0.5899
 5655TIP3    H116929   1.032  -0.024   3.198  1.5356  0.5884 -1.2766
 5655TIP3    H216930   0.899   0.050   3.192  1.3148  0.3346  0.0692
 5656TIP3   OH216931   5.559   4.324   5.804 -0.0589  0.2604  0.2185
 5656TIP3    H116932   5.502   4.321   5.728 -0.5352  1.3539  0.5070
 5656TIP3    H216933   5.605   4.408   5.796 -0.2663  0.4877  1.2273
 5657TIP3   OH216934   4.616   1.008   5.468  0.3455  0.1915  0.3635
 5657TIP3    H116935   4.542   0.988   5.411  0.3080  1.0503  0.0970
 5657TIP3    H216936   4.577   1.052   5.544  0.4480 -0.5202  0.8376
 5658TIP3   OH216937   7.067   3.198   1.626  0.5426  0.1473 -0.4163
 5658TIP3    H116938   7.028   3.199   1.713  2.0946  5.6082  0.5847
 5658TIP3    H216939   7.160   3.184   1.641  0.4067 -3.0824 -1.8091
 5659TIP3   OH216940   0.665   6.755   3.260  0.0873  0.0546  0.1719
 5659TIP3    H116941   0.605   6.817   3.218 -0.2936  0.4884  1.2971
 5659TIP3    H216942   0.652   6.673   3.214  0.4379  0.7454 -1.2177
 5660TIP3   OH216943   0.126   6.350   5.523 -0.1276  0.4893 -0.4128
 5660TIP3    H116944   0.064   6.279   5.503 -0.3803 -0.1575  2.2903
 5660TIP3    H216945   0.074   6.415   5.570  0.6085  1.4001 -0.8329
 5661TIP3   OH216946   1.912   3.365   0.920 -0.4638  0.1142  0.1971
 5661TIP3    H116947   1.969   3.302   0.965 -0.6257 -0.0400  0.1867
 5661TIP3    H216948   1.972   3.421   0.870 -0.4013 -0.8234 -0.8036
 5662TIP3   OH216949   4.102   4.082   3.519 -0.0649 -0.0245 -0.4340
 5662TIP3    H116950   4.129   4.169   3.547 -0.9168  0.1875 -0.2480
 5662TIP3    H216951   4.136   4.073   3.430  0.5879  0.2350 -0.2141
 5663TIP3   OH216952   2.065   0.425   5.749  0.1350  0.6612 -0.0745
 5663TIP3    H116953   2.147   0.377   5.743 -1.0586 -1.3451 -1.4866
 5663TIP3    H216954   2.086   0.503   5.800  2.5168 -0.6117  1.0278
 5664TIP3   OH216955   3.177   5.853   2.780 -0.1156 -0.0347  0.3520
 5664TIP3    H116956   3.119   5.904   2.837  0.1748 -0.3109  0.8965
 5664TIP3    H216957   3.262   5.855   2.824  0.6046  1.3232 -1.0012
 5665TIP3   OH216958   6.938   1.983   5.690 -0.1794  0.1716 -0.1684
 5665TIP3    H116959   6.891   1.935   5.758 -0.7339 -0.4445 -0.9792
 5665TIP3    H216960   7.031   1.964   5.706 -0.2235  0.8879  1.0528
 5666TIP3   OH216961   7.008   6.465   5.415 -0.8709  0.0981 -0.0189
 5666TIP3    H116962   7.079   6.470   5.479 -0.0226  2.4101 -1.0130
 5666TIP3    H216963   6.936   6.515   5.453 -0.5996  0.9163 -0.5481
 5667TIP3   OH216964   3.488   3.465   5.597  0.4756 -0.6336 -0.3364
 5667TIP3    H116965   3.393   3.455   5.604  0.3700  0.9930  1.3722
 5667TIP3    H216966   3.500   3.523   5.522 -0.1791  1.8217  1.3274
 5668TIP3   OH216967   4.313   5.375   1.867  0.1200  0.1601 -0.5801
 5668TIP3    H116968   4.320   5.342   1.956  2.1785 -0.6141 -0.9833
 5668TIP3    H216969   4.404   5.385   1.837 -0.5080  0.8974 -2.4172
 5669TIP3   OH216970   6.753   3.003   5.170 -0.3867  0.4275 -0.9147
 5669TIP3    H116971   6.829   2.945   5.172  0.4178  1.4477 -0.3243
 5669TIP3    H216972   6.679   2.946   5.151  0.3543 -0.7985 -0.2599
 5670TIP3   OH216973   4.465   6.548   4.148 -0.3782  0.2001 -0.0428
 5670TIP3    H116974   4.448   6.566   4.055  0.0193  0.4807 -0.0659
 5670TIP3    H216975   4.555   6.576   4.161 -0.5091  0.3829  0.4846
 5671TIP3   OH216976   4.408   6.481   4.871 -0.0368  0.3001 -0.7299
 5671TIP3    H116977   4.355   6.551   4.834  0.5076  1.4069  0.4915
 5671TIP3    H216978   4.498   6.505   4.849  0.3050  0.9981  1.2284
 5672TIP3   OH216979   5.203   1.319   2.914  0.1044  0.1600  0.1528
 5672TIP3    H116980   5.136   1.353   2.973  0.6528 -3.0776  2.9561
 5672TIP3    H216981   5.277   1.379   2.923 -0.4242  0.6394  1.4733
 5673TIP3   OH216982   2.695   5.857   3.934 -0.3962  0.0899  0.2472
 5673TIP3    H116983   2.617   5.822   3.978 -0.9824  3.6232  2.4468
 5673TIP3    H216984   2.764   5.853   4.001  0.6624 -0.7073 -0.8587
 5674TIP3   OH216985   1.396   5.605   2.383 -0.0090 -0.6948 -0.4823
 5674TIP3    H116986   1.358   5.675   2.435 -1.8473 -1.5254 -0.6398
 5674TIP3    H216987   1.398   5.529   2.441 -2.4839 -1.7509 -1.6554
 5675TIP3   OH216988   2.124   2.282   5.151 -0.5243  0.1125 -0.2551
 5675TIP3    H116989   2.098   2.233   5.073  0.6322  1.2140 -1.3750
 5675TIP3    H216990   2.100   2.373   5.131  0.4432  0.5178  0.3655
 5676TIP3   OH216991   1.163   3.021   5.246 -0.3994  0.0858  0.3541
 5676TIP3    H116992   1.251   3.057   5.261 -1.0230  1.3258  1.1506
 5676TIP3    H216993   1.160   3.006   5.151  0.6661  0.0053  0.3143
 5677TIP3   OH216994   0.623   1.110   0.545 -0.5498 -0.0180  0.5645
 5677TIP3    H116995   0.658   1.144   0.627 -1.5239 -0.0299  0.9943
 5677TIP3    H216996   0.542   1.159   0.530 -0.1007  0.3985 -0.7028
 5678TIP3   OH216997   6.690   1.740   1.135 -0.3600 -0.4923  0.4681
 5678TIP3    H116998   6.643   1.753   1.217  0.4249  0.4565  0.7921
 5678TIP3    H216999   6.754   1.672   1.155  0.9931  0.9263  1.1902
 5679TIP3   OH217000   6.727   4.945   3.842 -0.6220  0.3731  0.9014
 5679TIP3    H117001   6.775   5.019   3.805 -1.2250 -0.2998 -1.4122
 5679TIP3    H217002   6.699   4.975   3.929  1.2297  1.9136  1.0134
 5680TIP3   OH217003   6.564   0.938   3.715 -0.1430 -0.0819 -0.3237
 5680TIP3    H117004   6.492   1.000   3.698 -0.3996  0.3536  2.0454
 5680TIP3    H217005   6.522   0.864   3.758  0.4941 -0.9516 -1.1716
 5681TIP3   OH217006   5.205   2.259   4.712 -0.2330 -0.2416 -0.0162
 5681TIP3    H117007   5.218   2.216   4.628 -2.2970  0.3658 -0.7031
 5681TIP3    H217008   5.229   2.351   4.697  1.1874 -0.4925  0.5950
 5682TIP3   OH217009   6.106   4.759   4.178  0.3865  0.2677 -0.2684
 5682TIP3    H117010   6.193   4.756   4.140  1.9734  1.3120  2.9350
 5682TIP3    H217011   6.069   4.673   4.161  1.4464  0.2502 -2.8504
 5683TIP3   OH217012   0.139   6.472   1.268 -0.0023 -0.0529  0.5487
 5683TIP3    H117013   0.148   6.563   1.295  1.3536 -0.2378  0.7493
 5683TIP3    H217014   0.202   6.461   1.197 -1.9856 -0.1552 -1.3356
 5684TIP3   OH217015   2.111   4.476   2.234  0.3592  0.5523 -0.2827
 5684TIP3    H117016   2.087   4.453   2.144 -2.0336 -0.7447  0.6188
 5684TIP3    H217017   2.056   4.551   2.255 -2.2584 -1.6930  1.4099
 5685TIP3   OH217018   4.424   0.812   2.713 -1.4307 -0.3054  0.3473
 5685TIP3    H117019   4.373   0.746   2.666 -0.5745 -1.7916  1.4109
 5685TIP3    H217020   4.489   0.761   2.763 -1.0452  1.3139  1.5847
 5686TIP3   OH217021   4.380   1.170   3.068  0.5314 -0.1369  0.3608
 5686TIP3    H117022   4.344   1.083   3.051  1.1780 -0.7592  1.9553
 5686TIP3    H217023   4.315   1.212   3.124 -1.5582  1.8590 -3.2309
 5687TIP3   OH217024   4.666   3.766   3.813  0.2184 -0.1197  0.2191
 5687TIP3    H117025   4.655   3.814   3.731 -0.3694  0.2542  0.5118
 5687TIP3    H217026   4.726   3.695   3.792  1.4901  1.0069 -0.1278
 5688TIP3   OH217027   4.751   3.725   0.145 -0.1845  0.2455 -0.3148
 5688TIP3    H117028   4.768   3.801   0.200 -1.6388 -0.3594  1.0716
 5688TIP3    H217029   4.656   3.714   0.148 -0.1252 -0.8906 -1.4978
 5689TIP3   OH217030   2.145   3.643   2.031  0.1128  0.1140 -0.1743
 5689TIP3    H117031   2.233   3.628   1.997 -0.1284 -0.2801 -0.6335
 5689TIP3    H217032   2.146   3.605   2.119  0.3457 -0.0549 -0.2506
 5690TIP3   OH217033   0.570   2.500   4.849  0.6201 -0.2519 -0.1462
 5690TIP3    H117034   0.550   2.412   4.817  0.7035 -0.4930  0.4436
 5690TIP3    H217035   0.515   2.509   4.927  0.0297  0.5151 -0.6371
 5691TIP3   OH217036   0.836   5.842   2.000 -0.1969 -0.0348 -0.8885
 5691TIP3    H117037   0.924   5.852   2.036  0.2940  0.6887 -2.2209
 5691TIP3    H217038   0.781   5.896   2.057  0.1774 -0.6814  0.0947
 5692TIP3   OH217039   6.496   3.593   2.370 -0.0808 -0.5532 -0.0993
 5692TIP3    H117040   6.418   3.610   2.318 -0.5359 -1.1256  0.3900
 5692TIP3    H217041   6.545   3.676   2.367 -0.0404 -0.5891 -1.4996
 5693TIP3   OH217042   1.317   2.386   0.919  0.2104 -0.0693  0.1560
 5693TIP3    H117043   1.277   2.304   0.890  0.2375 -0.6751  1.7584
 5693TIP3    H217044   1.249   2.428   0.972  1.2529 -0.5686  1.9594
 5694TIP3   OH217045   3.083   5.718   4.714 -0.0438  0.1217  0.4136
 5694TIP3    H117046   3.041   5.731   4.799 -0.5239  0.2063  0.1655
 5694TIP3    H217047   3.120   5.630   4.718 -2.0532 -0.7820 -0.1257
 5695TIP3   OH217048   3.608   3.003   4.097 -0.3296  0.2301 -0.2334
 5695TIP3    H117049   3.642   2.943   4.164  1.0524  0.4153 -0.7304
 5695TIP3    H217050   3.513   3.001   4.108 -0.1320  0.3901  1.8427
 5696TIP3   OH217051   2.985   0.509   2.677 -0.2166 -0.4315 -0.1540
 5696TIP3    H117052   2.911   0.452   2.697  0.1333 -0.7191  0.3550
 5696TIP3    H217053   3.044   0.454   2.625 -0.4462 -0.1405 -0.7344
 5697TIP3   OH217054   4.501   6.692   5.360 -0.0668 -0.9680 -0.0908
 5697TIP3    H117055   4.485   6.675   5.267 -0.0296 -1.3887 -0.0199
 5697TIP3    H217056   4.596   6.699   5.368 -0.0761 -0.8111 -0.1029
 5698TIP3   OH217057   1.426   5.497   2.913 -0.0937 -0.3079  0.2166
 5698TIP3    H117058   1.351   5.530   2.963 -0.0573 -0.0070  0.0720
 5698TIP3    H217059   1.498   5.493   2.975 -0.0728 -0.0226  0.2096
 5699TIP3   OH217060   3.379   4.310   0.181  0.2013  0.3437 -0.2739
 5699TIP3    H117061   3.316   4.277   0.245  0.3453 -2.7586 -1.5431
 5699TIP3    H217062   3.325   4.339   0.107  0.1276 -0.4197 -0.5399
 5700TIP3   OH217063   0.180   3.905   5.365 -0.0305  0.4496 -0.2049
 5700TIP3    H117064   0.221   3.833   5.316 -0.5421 -0.0502  0.0845
 5700TIP3    H217065   0.088   3.880   5.370  0.0802  0.2388  1.4259
 5701TIP3   OH217066   5.668   0.887   3.433  0.4391  0.4182  0.6591
 5701TIP3    H117067   5.758   0.903   3.406  0.8224  0.0181  1.6794
 5701TIP3    H217068   5.647   0.801   3.396  0.0923  0.9735 -0.4938
 5702TIP3   OH217069   4.944   3.361   0.083 -0.1085 -0.5130  0.1891
 5702TIP3    H117070   4.882   3.298   0.046 -1.5583  1.2896 -0.5811
 5702TIP3    H217071   4.997   3.389   0.008 -1.0096  0.8748  0.0536
 5703TIP3   OH217072   6.245   3.678   5.010  0.0632  0.0148 -0.5651
 5703TIP3    H117073   6.295   3.709   5.086 -0.2573 -1.1258  0.1274
 5703TIP3    H217074   6.242   3.583   5.019  0.0563 -0.1503 -2.0454
 5704TIP3   OH217075   4.230   4.934   0.264  0.3956  0.5795  0.1013
 5704TIP3    H117076   4.183   5.009   0.301  1.0893  1.2143 -0.2838
 5704TIP3    H217077   4.321   4.962   0.262  0.8919 -0.8132  1.2782
 5705TIP3   OH217078   1.615   3.129   1.957 -0.1053 -0.4554  0.5950
 5705TIP3    H117079   1.592   3.036   1.956 -0.6095 -0.3317  0.1941
 5705TIP3    H217080   1.709   3.131   1.974  0.4667 -1.1535 -2.0389
 5706TIP3   OH217081   0.502   4.327   5.920 -0.3866  0.4007 -0.0038
 5706TIP3    H117082   0.593   4.320   5.893 -0.2244 -0.4343  0.6923
 5706TIP3    H217083   0.452   4.299   5.844  0.0224 -0.8497  0.1545
 5707TIP3   OH217084   4.445   1.124   5.037 -0.5126  0.0351  0.0034
 5707TIP3    H117085   4.435   1.196   4.974 -1.2549  0.7740  0.9396
 5707TIP3    H217086   4.505   1.158   5.103  0.0714 -0.6522 -0.1602
 5708TIP3   OH217087   1.433   2.395   2.023  0.0188  0.1187 -0.2004
 5708TIP3    H117088   1.424   2.475   2.076  2.9414  0.5298 -0.1756
 5708TIP3    H217089   1.401   2.420   1.937  0.3264  1.1607 -0.0341
 5709TIP3   OH217090   5.570   2.001   5.342 -0.0821 -0.1383 -0.4346
 5709TIP3    H117091   5.552   1.993   5.248 -0.4117  1.1550 -0.4959
 5709TIP3    H217092   5.530   1.923   5.381  1.1683 -1.3591 -1.4898
 5710TIP3   OH217093   5.568   1.300   1.024  0.3032  0.2099 -0.0278
 5710TIP3    H117094   5.476   1.302   1.050  0.7632  0.5877  1.6715
 5710TIP3    H217095   5.573   1.232   0.957 -1.5089  1.3697 -1.4340
 5711TIP3   OH217096   6.676   0.776   3.460  0.7349  0.5315  0.0563
 5711TIP3    H117097   6.627   0.857   3.450  0.6680  0.4004 -0.7969
 5711TIP3    H217098   6.609   0.708   3.471  0.7432  0.4369 -0.4578
 5712TIP3   OH217099   0.019   5.641   1.485  0.4497  0.5776  0.2446
 5712TIP3    H117100  -0.055   5.667   1.431  0.2124 -0.7697 -0.1325
 5712TIP3    H217101   0.061   5.570   1.436 -0.5353 -1.6046  2.3489
 5713TIP3   OH217102   4.044   5.642   5.561  0.2096  0.3492  0.3846
 5713TIP3    H117103   3.967   5.668   5.512 -0.8676 -0.7467  1.4277
 5713TIP3    H217104   4.112   5.705   5.535 -2.2608  4.6184  3.0589
 5714TIP3   OH217105   6.373   3.785   5.841  1.0051  0.0145 -0.1676
 5714TIP3    H117106   6.286   3.747   5.855  1.5338 -0.4675  2.0933
 5714TIP3    H217107   6.364   3.877   5.865  1.3768 -0.3138  1.3300
 5715TIP3   OH217108   4.703   6.578   0.396  0.2697 -0.0089  0.0019
 5715TIP3    H117109   4.768   6.585   0.326  1.8394 -2.9259  1.0046
 5715TIP3    H217110   4.752   6.595   0.477 -0.4621 -1.0580  0.6992
 5716TIP3   OH217111   2.913   3.229   4.427 -0.0953  0.8485 -0.3547
 5716TIP3    H117112   2.850   3.211   4.497 -1.7857  0.0602 -1.9884
 5716TIP3    H217113   2.917   3.324   4.421 -1.0237  0.9105 -0.1081
 5717TIP3   OH217114   1.708   0.100   0.889 -0.0094  0.2876  0.1474
 5717TIP3    H117115   1.796   0.122   0.859 -0.4582  2.1152  0.0225
 5717TIP3    H217116   1.669   0.055   0.815 -0.8345  4.0546 -1.9996
 5718TIP3   OH217117   5.419   2.131   0.674 -0.2703  0.1960 -0.5971
 5718TIP3    H117118   5.374   2.171   0.599  1.4006  1.8766 -0.7717
 5718TIP3    H217119   5.509   2.121   0.644  0.1455 -0.3018  0.7704
 5719TIP3   OH217120   6.784   4.868   3.162  0.1271  0.3105 -0.0792
 5719TIP3    H117121   6.805   4.842   3.072 -0.0643 -1.1811  0.2785
 5719TIP3    H217122   6.866   4.905   3.195  0.6494 -0.5222 -0.4035
 5720TIP3   OH217123   2.931   2.112   5.555 -0.1730  0.1398 -0.5168
 5720TIP3    H117124   2.858   2.142   5.501 -0.6145 -1.1249 -0.6625
 5720TIP3    H217125   2.907   2.022   5.580  0.1945  0.5351  1.4499
 5721TIP3   OH217126   4.483   5.576   1.249 -0.2227 -0.2051 -0.5223
 5721TIP3    H117127   4.389   5.576   1.268 -0.4682  1.3047 -1.5489
 5721TIP3    H217128   4.494   5.508   1.183 -0.7827  0.3111 -1.1653
 5722TIP3   OH217129   3.866   3.998   3.884 -0.1386 -0.2387  0.0442
 5722TIP3    H117130   3.944   3.951   3.855 -0.5083  0.0374 -1.4502
 5722TIP3    H217131   3.851   3.967   3.973  1.5880 -0.4096  0.3024
 5723TIP3   OH217132   4.704   6.329   0.503 -0.7701 -0.6294  0.0525
 5723TIP3    H117133   4.688   6.423   0.494 -0.3682 -0.5372  0.2773
 5723TIP3    H217134   4.637   6.288   0.447 -1.2063 -0.2294  0.2723
 5724TIP3   OH217135   1.174   3.198   4.456 -0.0643  0.3453  0.1629
 5724TIP3    H117136   1.184   3.290   4.431 -1.7083  0.3963 -0.3948
 5724TIP3    H217137   1.094   3.170   4.412 -0.0442 -1.1226  1.0168
 5725TIP3   OH217138   0.652   4.401   2.659  0.0077 -0.2027 -0.1373
 5725TIP3    H117139   0.705   4.412   2.738  0.1651  0.5199 -0.3278
 5725TIP3    H217140   0.563   4.421   2.687  0.1450  0.6381 -0.2502
 5726TIP3   OH217141   3.341   2.922   2.776  0.4347 -0.3379  0.3997
 5726TIP3    H117142   3.302   2.910   2.863  1.2608  0.5210  0.9062
 5726TIP3    H217143   3.436   2.924   2.792  0.6019 -0.2546 -0.5367
 5727TIP3   OH217144   6.615   3.169   2.834 -0.1644  0.0345 -0.2821
 5727TIP3    H117145   6.629   3.085   2.877  0.4536 -0.1509 -0.8398
 5727TIP3    H217146   6.651   3.158   2.746 -0.6340  0.6872 -0.5662
 5728TIP3   OH217147   1.727   2.146   1.287  0.2480 -0.2000  0.3588
 5728TIP3    H117148   1.650   2.192   1.321 -0.5619 -1.0856 -0.2126
 5728TIP3    H217149   1.775   2.212   1.237 -1.0801 -0.0179 -0.7530
 5729TIP3   OH217150   1.078   2.482   0.253 -0.5152 -0.4465 -0.4099
 5729TIP3    H117151   1.001   2.530   0.223 -0.3776  0.0998  0.0906
 5729TIP3    H217152   1.151   2.543   0.241 -0.3347 -0.5240  0.2245
 5730TIP3   OH217153   1.339   1.693   1.155  0.2639 -0.1722  0.0993
 5730TIP3    H117154   1.364   1.639   1.080  0.9842 -0.8604  0.8165
 5730TIP3    H217155   1.378   1.779   1.136 -0.0792 -0.1618 -0.5951
 5731TIP3   OH217156   3.362   6.119   3.702 -0.1391  0.1611 -0.1075
 5731TIP3    H117157   3.445   6.149   3.665  1.0347  0.6300  2.6923
 5731TIP3    H217158   3.385   6.042   3.753 -1.3403  0.5328  1.0317
 5732TIP3   OH217159   4.159   3.464   0.417  0.0229  0.0784 -0.1890
 5732TIP3    H117160   4.096   3.535   0.435  0.8818  0.8684 -0.2279
 5732TIP3    H217161   4.148   3.446   0.324  1.0042  1.3869 -0.5882
 5733TIP3   OH217162   5.560   4.066   3.196  0.0480  0.1952 -0.2212
 5733TIP3    H117163   5.633   4.022   3.153  0.3407  0.7960 -0.3576
 5733TIP3    H217164   5.509   4.105   3.125  0.3046  0.8447 -0.0613
 5734TIP3   OH217165   5.869   5.444   2.374 -0.2311 -0.0447  0.2189
 5734TIP3    H117166   5.817   5.512   2.330 -1.6755 -0.0553  1.7955
 5734TIP3    H217167   5.850   5.364   2.324 -1.3909  0.0465  0.4763
 5735TIP3   OH217168   2.836   1.425   4.605  0.5090  0.5635 -1.0146
 5735TIP3    H117169   2.795   1.510   4.587 -0.4145  0.2017 -0.6801
 5735TIP3    H217170   2.816   1.372   4.528 -1.8284 -0.3932  0.1745
 5736TIP3   OH217171   2.059   6.629   4.677 -0.7550 -0.1419  0.1080
 5736TIP3    H117172   2.023   6.566   4.615 -1.1784  0.6354 -0.4590
 5736TIP3    H217173   2.007   6.708   4.663  0.2475  0.5614  0.2966
 5737TIP3   OH217174   0.884   0.190   2.944 -0.5520  0.4009  0.4415
 5737TIP3    H117175   0.915   0.116   2.996  0.4733  0.5365  0.0539
 5737TIP3    H217176   0.814   0.229   2.997 -0.7486 -0.5223  0.8849
 5738TIP3   OH217177   2.877   6.421   4.660  0.1812  0.2235 -0.1177
 5738TIP3    H117178   2.842   6.334   4.677 -1.4584  0.7035 -0.8432
 5738TIP3    H217179   2.949   6.407   4.599 -0.3156 -0.5961 -0.5216
 5739TIP3   OH217180   4.446   2.766   5.034 -0.7889 -0.4130 -0.0889
 5739TIP3    H117181   4.532   2.785   4.997 -1.3971  1.1906 -0.7601
 5739TIP3    H217182   4.435   2.672   5.021  1.4897 -0.9792  1.4132
 5740TIP3   OH217183   6.962   2.918   4.074  0.0017 -0.1162 -0.3101
 5740TIP3    H117184   6.885   2.943   4.024  0.2094  0.3332 -0.4113
 5740TIP3    H217185   6.927   2.880   4.155 -0.3247  0.6490 -0.0818
 5741TIP3   OH217186   4.586   1.064   4.512  0.3072 -1.0302  0.4153
 5741TIP3    H117187   4.529   1.115   4.454  0.4713 -1.8704 -0.5307
 5741TIP3    H217188   4.600   1.120   4.588  0.6480  0.4148 -0.6576
 5742TIP3   OH217189   2.259   1.717   5.409 -0.3116 -0.2419 -0.2114
 5742TIP3    H117190   2.314   1.641   5.429  0.7965  0.7943  0.9621
 5742TIP3    H217191   2.302   1.759   5.334 -1.0985 -0.9222 -1.0562
 5743TIP3   OH217192   5.520   6.203   1.629  0.5495 -0.3411 -0.3333
 5743TIP3    H117193   5.475   6.119   1.636  0.0848 -0.2009 -1.3719
 5743TIP3    H217194   5.594   6.186   1.571 -0.4496  0.2715 -1.8739
 5744TIP3   OH217195   3.824   4.364   5.647 -0.0076 -0.2480 -0.0090
 5744TIP3    H117196   3.841   4.456   5.625 -1.6729  0.0740 -0.1522
 5744TIP3    H217197   3.892   4.315   5.602 -0.0494  0.8127 -1.2789
 5745TIP3   OH217198   6.027   2.741   3.056  0.0233  0.1092  0.3060
 5745TIP3    H117199   5.945   2.703   3.087  0.2590 -0.5496  0.1380
 5745TIP3    H217200   6.096   2.689   3.098  0.3468 -0.4759 -0.8970
 5746TIP3   OH217201   4.734   5.217   4.895 -0.1700 -0.0151  0.1801
 5746TIP3    H117202   4.756   5.215   4.802  1.0104  4.3245  0.1751
 5746TIP3    H217203   4.818   5.208   4.939  0.3046  4.0582  0.4842
 5747TIP3   OH217204   5.634   4.672   5.737 -0.2340 -0.0468 -0.0345
 5747TIP3    H117205   5.631   4.766   5.759 -1.1534 -0.2077  0.6084
 5747TIP3    H217206   5.633   4.670   5.642  2.7595  0.6562 -0.1983
 5748TIP3   OH217207   4.383   3.254   4.787  0.1611  0.1830  0.8788
 5748TIP3    H117208   4.434   3.187   4.741  0.5605  0.1087  1.4293
 5748TIP3    H217209   4.297   3.251   4.745  0.0750 -0.9051  1.1032
 5749TIP3   OH217210   3.283   6.505   0.870  0.9500 -0.2027 -0.1396
 5749TIP3    H117211   3.360   6.504   0.813 -0.0323  0.0911 -1.5284
 5749TIP3    H217212   3.217   6.457   0.821  0.4166 -0.9780  1.3005
 5750TIP3   OH217213   1.575   1.566   2.650 -0.1039  0.8001  0.4979
 5750TIP3    H117214   1.654   1.518   2.676  0.9195  0.8452 -2.2396
 5750TIP3    H217215   1.533   1.510   2.585 -0.0687  2.5580 -1.1181
 5751TIP3   OH217216   5.678   6.042   0.783 -1.0354  0.2666  0.5158
 5751TIP3    H117217   5.607   5.978   0.778 -1.5474  0.9013 -1.5067
 5751TIP3    H217218   5.637   6.125   0.757  0.5555  0.5249 -1.4323
 5752TIP3   OH217219   5.078   2.661   1.125  0.2515  0.2650  0.0680
 5752TIP3    H117220   5.097   2.607   1.049 -0.0369  0.4228 -0.1189
 5752TIP3    H217221   5.004   2.715   1.098 -0.3406 -0.2033  0.7120
 5753TIP3   OH217222   5.811   5.381   0.251 -0.1443 -0.5207 -0.4373
 5753TIP3    H117223   5.904   5.366   0.234  0.6651  0.3502  2.6713
 5753TIP3    H217224   5.766   5.326   0.187  2.4859 -1.0141 -1.9886
 5754TIP3   OH217225   6.470   6.384   0.990  0.5150 -0.2334  0.0460
 5754TIP3    H117226   6.547   6.405   1.043  0.6923 -0.1006 -0.2666
 5754TIP3    H217227   6.503   6.376   0.901 -0.3093  3.2006 -0.7028
 5755TIP3   OH217228   2.926   3.451   0.748 -0.2302 -0.1002  0.5645
 5755TIP3    H117229   2.852   3.511   0.742  0.9401  1.4362  0.7242
 5755TIP3    H217230   2.938   3.437   0.842  0.1354  0.2651  0.5752
 5756TIP3   OH217231   6.947   1.399   4.597  0.7553  0.0407  0.2904
 5756TIP3    H117232   6.888   1.341   4.645  2.3164 -0.9530  1.0868
 5756TIP3    H217233   6.911   1.487   4.613 -0.4988 -0.5187  0.7182
 5757TIP3   OH217234   2.989   6.129   4.939  0.1690 -0.5456  0.0586
 5757TIP3    H117235   2.905   6.175   4.945 -0.2856 -1.3348 -0.1059
 5757TIP3    H217236   3.041   6.164   5.011 -0.2161  0.1255  0.0196
 5758TIP3   OH217237   5.062   6.067   2.891 -0.5849  0.2934  0.9990
 5758TIP3    H117238   5.156   6.050   2.901 -0.3658  1.1166  0.4859
 5758TIP3    H217239   5.020   6.005   2.950  0.2499 -0.5596  0.7280
 5759TIP3   OH217240   6.553   1.859   4.893  0.4844  0.1872  0.1905
 5759TIP3    H117241   6.587   1.781   4.848 -0.9908  0.7547 -2.0710
 5759TIP3    H217242   6.507   1.908   4.825  0.1749  2.3674  1.8486
 5760TIP3   OH217243   4.360   5.867   0.151  0.5840 -0.7587 -0.2033
 5760TIP3    H117244   4.346   5.773   0.161 -1.2017 -0.4784  0.2509
 5760TIP3    H217245   4.359   5.901   0.241 -1.8711  0.0430 -0.4642
 5761TIP3   OH217246   2.842   1.998   1.671 -0.0377 -0.1853 -0.0715
 5761TIP3    H117247   2.838   2.072   1.610 -1.5894 -0.2333 -0.0596
 5761TIP3    H217248   2.857   1.922   1.614 -0.3243 -0.0941 -0.2687
 5762TIP3   OH217249   6.156   4.844   2.218  0.0579  0.0976 -0.3189
 5762TIP3    H117250   6.087   4.788   2.181 -1.2854  1.3165  0.2253
 5762TIP3    H217251   6.125   4.933   2.202  0.7000  0.6706  1.4261
 5763TIP3   OH217252   5.908   0.341   4.118 -0.3860  0.1422 -0.3953
 5763TIP3    H117253   5.998   0.310   4.126 -0.0845  1.2076  0.4205
 5763TIP3    H217254   5.910   0.431   4.150 -1.7053  0.2434 -0.5490
 5764TIP3   OH217255   1.835   1.487   2.210 -0.0357 -0.8451 -0.4626
 5764TIP3    H117256   1.900   1.530   2.155  0.3749  0.0096  0.6779
 5764TIP3    H217257   1.825   1.400   2.170  1.1201 -0.6741 -1.1850
 5765TIP3   OH217258   5.436   5.620   4.602  0.0241 -0.1222 -0.5686
 5765TIP3    H117259   5.526   5.647   4.582 -0.0606 -0.5609 -1.6024
 5765TIP3    H217260   5.381   5.685   4.558 -0.1638 -0.1787 -0.4189
 5766TIP3   OH217261   0.231   3.526   1.925  0.0439 -0.0821 -0.0539
 5766TIP3    H117262   0.267   3.523   1.836 -1.5801 -1.2491 -0.7223
 5766TIP3    H217263   0.189   3.611   1.932 -2.3354 -1.0369 -1.5208
 5767TIP3   OH217264   5.213   5.549   1.007 -0.1556  0.5265  0.5631
 5767TIP3    H117265   5.253   5.466   0.983 -2.7343 -0.4462 -0.6859
 5767TIP3    H217266   5.278   5.615   0.982  0.6133 -0.9380 -1.5671
 5768TIP3   OH217267   5.568   5.246   0.416  0.2043  0.4511  0.1339
 5768TIP3    H117268   5.520   5.313   0.367  0.5691 -0.1454 -1.1043
 5768TIP3    H217269   5.657   5.251   0.381 -0.4333 -2.8188 -2.4924
 5769TIP3   OH217270   7.019   5.482   0.394 -0.0578  0.2407  0.1772
 5769TIP3    H117271   6.977   5.560   0.430  1.3768  0.2982  1.8841
 5769TIP3    H217272   7.111   5.507   0.385  0.1412 -0.7543 -0.8289
 5770TIP3   OH217273   4.655   2.870   4.870 -0.2659 -0.6097  0.0679
 5770TIP3    H117274   4.738   2.896   4.910  0.6256 -1.9714 -0.8179
 5770TIP3    H217275   4.670   2.780   4.840 -1.6590 -0.4385 -1.2429
 5771TIP3   OH217276   5.170   0.684   0.509  0.0387 -0.2351  0.3364
 5771TIP3    H117277   5.174   0.592   0.484 -1.6025  0.0432 -1.1535
 5771TIP3    H217278   5.234   0.727   0.451 -1.1148 -0.1067 -0.8938
 5772TIP3   OH217279   6.151   2.095   3.152  0.3320  0.1224 -0.5035
 5772TIP3    H117280   6.075   2.106   3.095 -0.2755 -2.2488 -0.2442
 5772TIP3    H217281   6.180   2.005   3.136  2.6729  0.7418 -0.0676
 5773TIP3   OH217282   1.473   1.080   2.657 -0.1568  0.1154 -0.1219
 5773TIP3    H117283   1.560   1.046   2.681  0.7011  1.6856 -0.8003
 5773TIP3    H217284   1.468   1.067   2.562  0.2517  1.8885 -0.4212
 5774TIP3   OH217285   4.316   0.733   5.038 -0.3968 -0.2408 -0.1199
 5774TIP3    H117286   4.352   0.712   5.124  0.1986 -0.5758 -0.4526
 5774TIP3    H217287   4.263   0.657   5.015  0.5226 -0.7351 -0.6401
 5775TIP3   OH217288   0.660   1.856   3.618 -0.3329 -0.5465  0.0809
 5775TIP3    H117289   0.690   1.886   3.704 -1.1635  0.7349 -0.0563
 5775TIP3    H217290   0.739   1.858   3.563 -0.3620  1.6151  0.0447
 5776TIP3   OH217291   2.077   2.462   4.618 -0.5358  0.5245  0.2623
 5776TIP3    H117292   2.062   2.555   4.599 -0.2724  0.4772 -0.2000
 5776TIP3    H217293   2.014   2.416   4.563  0.0572  0.3950 -0.3286
 5777TIP3   OH217294   5.999   1.683   3.689 -0.0523  0.1037 -0.2769
 5777TIP3    H117295   5.925   1.652   3.743 -2.8626  4.2535 -1.2577
 5777TIP3    H217296   6.058   1.724   3.752 -1.2379  1.2710  0.1247
 5778TIP3   OH217297   3.190   6.225   5.506 -1.2461  0.0843 -0.1771
 5778TIP3    H117298   3.114   6.264   5.550 -1.2873  0.5066 -0.6123
 5778TIP3    H217299   3.208   6.145   5.556 -1.0286  0.7609  0.8575
 5779TIP3   OH217300   4.530   2.931   1.124 -0.3470  1.0168  0.0090
 5779TIP3    H117301   4.479   3.011   1.111  0.3743  1.2703 -1.4948
 5779TIP3    H217302   4.570   2.913   1.039  0.8775 -0.0037  0.7453
 5780TIP3   OH217303   1.752   1.778   2.962 -0.4149 -0.5660 -0.5744
 5780TIP3    H117304   1.767   1.837   2.888  0.2707 -1.1710 -0.9293
 5780TIP3    H217305   1.662   1.796   2.989  0.0655  1.2920 -0.0772
 5781TIP3   OH217306   0.083   2.988   3.652 -0.0552 -0.2291 -0.1020
 5781TIP3    H117307   0.035   2.912   3.618 -1.7260  0.3243  0.9134
 5781TIP3    H217308   0.038   3.063   3.614  2.0224  0.3160 -1.6646
 5782TIP3   OH217309   6.758   6.439   4.961 -0.0040 -0.1654  0.1426
 5782TIP3    H117310   6.827   6.428   5.027  0.9748 -1.0915 -0.9865
 5782TIP3    H217311   6.805   6.457   4.880 -1.0471 -1.4291 -0.7838
 5783TIP3   OH217312   2.601   6.039   3.400 -0.4366  0.3636  0.3253
 5783TIP3    H117313   2.567   6.122   3.434 -0.8746  0.1183  0.4980
 5783TIP3    H217314   2.610   5.983   3.478  0.0433  0.3151  0.2344
 5784TIP3   OH217315   1.156   2.542   5.239  0.0817 -0.0986 -0.0896
 5784TIP3    H117316   1.095   2.469   5.251 -0.2852  0.4154  1.3553
 5784TIP3    H217317   1.104   2.620   5.258 -0.1187  0.8081 -3.6170
 5785TIP3   OH217318   0.613   1.235   4.525  0.0995 -0.2965  0.2133
 5785TIP3    H117319   0.692   1.289   4.530  0.2956 -0.5656  0.0903
 5785TIP3    H217320   0.545   1.286   4.570  0.4236 -0.2093  0.6074
 5786TIP3   OH217321   0.335   5.412   2.251 -0.2562  0.3781  0.2786
 5786TIP3    H117322   0.347   5.368   2.335  4.2766  0.9519  0.1649
 5786TIP3    H217323   0.375   5.352   2.187  0.3441  1.8406 -0.7678
 5787TIP3   OH217324   0.578   4.812   4.417  0.2259 -0.1822  0.0018
 5787TIP3    H117325   0.654   4.831   4.473  0.6770  1.3227 -1.0679
 5787TIP3    H217326   0.551   4.897   4.384 -0.1451 -1.0023 -1.9073
 5788TIP3   OH217327   2.251   1.081   0.042  0.1360  0.7262 -0.2881
 5788TIP3    H117328   2.341   1.094   0.015  0.1093  0.6590 -0.4089
 5788TIP3    H217329   2.256   1.030   0.123  0.1512 -0.5270 -1.0586
 5789TIP3   OH217330   1.165   0.283   2.106 -0.0648  0.1551 -0.0718
 5789TIP3    H117331   1.215   0.345   2.053 -0.0281  1.1265  1.0630
 5789TIP3    H217332   1.088   0.333   2.135  0.8927  0.3238  2.4212
 5790TIP3   OH217333   4.620   1.710   3.670 -0.5199  0.3372  0.0162
 5790TIP3    H117334   4.610   1.696   3.764 -0.2407 -0.6628 -0.0973
 5790TIP3    H217335   4.574   1.793   3.653 -1.5644 -0.0580  0.8263
 5791TIP3   OH217336   6.597   2.295   3.615 -0.1270 -0.0214  0.6692
 5791TIP3    H117337   6.526   2.245   3.574  0.3629  1.6479 -2.5655
 5791TIP3    H217338   6.676   2.260   3.575  0.6185  0.2880  1.8422
 5792TIP3   OH217339   5.334   6.051   0.722  0.1057  0.3107 -0.0477
 5792TIP3    H117340   5.305   6.041   0.812 -0.5978 -0.6662 -0.3677
 5792TIP3    H217341   5.277   6.118   0.685  0.8561  1.2379  0.4029
 5793TIP3   OH217342   5.712   6.669   2.723  0.2228 -0.1375 -0.3605
 5793TIP3    H117343   5.732   6.576   2.728  1.6548  0.2122  1.4424
 5793TIP3    H217344   5.782   6.711   2.774 -0.4437  1.9139 -1.0504
 5794TIP3   OH217345   1.723   4.631   1.868 -0.3071 -0.3370 -0.1606
 5794TIP3    H117346   1.758   4.542   1.861 -1.0779 -0.6393 -0.2538
 5794TIP3    H217347   1.692   4.638   1.959  0.0637 -0.0445 -0.0543
 5795TIP3   OH217348   6.156   3.347   4.291 -0.4132  0.1932  0.4965
 5795TIP3    H117349   6.073   3.306   4.317 -0.5407  0.1523  0.0197
 5795TIP3    H217350   6.221   3.277   4.298 -0.5135  0.0849  0.3310
 5796TIP3   OH217351   6.437   2.284   0.655  0.5629 -0.1165 -0.1066
 5796TIP3    H117352   6.505   2.330   0.704  0.7383  0.2016 -0.6402
 5796TIP3    H217353   6.485   2.236   0.587  0.2618  0.1251 -0.4969
 5797TIP3   OH217354   5.099   5.195   1.798  0.1385 -0.7108  0.0690
 5797TIP3    H117355   5.009   5.205   1.830 -0.1864 -0.6788 -0.8172
 5797TIP3    H217356   5.092   5.135   1.725  0.0108  2.8162 -3.1426
 5798TIP3   OH217357   1.908   2.849   4.011 -0.0693  0.3550 -0.4746
 5798TIP3    H117358   1.942   2.923   3.959  1.6215 -0.1276 -0.1188
 5798TIP3    H217359   1.927   2.772   3.958  0.1167  0.0054  0.0878
 5799TIP3   OH217360   1.878   1.065   0.121 -0.2106 -0.1363  0.0695
 5799TIP3    H117361   1.882   0.974   0.094  0.7924  0.0791 -0.5703
 5799TIP3    H217362   1.938   1.110   0.061  2.1362  0.3682  2.5945
 5800TIP3   OH217363   0.040   0.287   4.634  0.4925  0.0404 -0.4442
 5800TIP3    H117364   0.114   0.240   4.598 -0.4287 -2.2675  0.5084
 5800TIP3    H217365  -0.002   0.328   4.558  3.1440  2.2096 -0.9189
 5801TIP3   OH217366   2.382   2.035   2.633  0.6908  0.2363  0.5386
 5801TIP3    H117367   2.413   2.123   2.650  1.9613 -0.2472  0.8576
 5801TIP3    H217368   2.462   1.984   2.619 -0.0684 -0.4026 -1.9921
 5802TIP3   OH217369   6.232   6.220   1.054  0.0212  1.0104  0.3531
 5802TIP3    H117370   6.204   6.178   0.972  0.5243 -1.9189  1.5372
 5802TIP3    H217371   6.301   6.281   1.028 -1.3348  1.8230 -1.6018
 5803TIP3   OH217372   2.580   3.763   0.960 -0.2126 -0.1502  0.3353
 5803TIP3    H117373   2.647   3.775   1.027 -0.3707  0.5808  0.3698
 5803TIP3    H217374   2.620   3.796   0.880 -1.1651  2.1367  0.7105
 5804TIP3   OH217375   7.141   5.941   3.358  0.2056  0.4539 -0.0181
 5804TIP3    H117376   7.158   5.857   3.315  0.2918  0.4466  0.0290
 5804TIP3    H217377   7.109   5.918   3.445  1.1198  0.4673  0.3345
 5805TIP3   OH217378   5.050   0.450   4.484  0.3886 -0.2397  0.2335
 5805TIP3    H117379   5.026   0.362   4.454 -0.6591 -0.5036  1.7333
 5805TIP3    H217380   5.021   0.508   4.414 -1.5838 -0.8700  0.4707
 5806TIP3   OH217381   5.809   4.611   2.863 -0.1757  0.0253  0.0833
 5806TIP3    H117382   5.828   4.636   2.773 -2.0644  0.3095 -0.2848
 5806TIP3    H217383   5.718   4.580   2.860 -0.1145 -0.3979  1.7984
 5807TIP3   OH217384   1.642   2.809   5.823 -0.0782 -0.3099  0.0684
 5807TIP3    H117385   1.691   2.854   5.891 -0.0427 -0.7016  0.3073
 5807TIP3    H217386   1.597   2.878   5.775  0.7348  0.0671 -0.1777
 5808TIP3   OH217387   4.133   6.706   5.679 -0.1681  0.3952 -0.0830
 5808TIP3    H117388   4.053   6.658   5.702 -1.1341  1.7738 -0.4860
 5808TIP3    H217389   4.168   6.659   5.604 -0.4577 -0.3639  0.2438
 5809TIP3   OH217390   0.679   1.704   1.224 -0.2368 -0.2243  0.0004
 5809TIP3    H117391   0.597   1.720   1.178  0.6189  1.8686 -0.9343
 5809TIP3    H217392   0.718   1.791   1.235  0.9253 -0.9481  2.2362
 5810TIP3   OH217393   4.108   0.205   3.381  0.1244 -0.2434  0.2863
 5810TIP3    H117394   4.083   0.141   3.447  1.7473 -0.9436  0.2668
 5810TIP3    H217395   4.059   0.284   3.404  0.8598 -0.3810  2.5108
 5811TIP3   OH217396   1.920   2.291   4.483 -0.4210  0.2098 -0.1171
 5811TIP3    H117397   1.993   2.230   4.474  0.7119  1.4949 -0.0507
 5811TIP3    H217398   1.924   2.345   4.403 -1.7980 -0.1954 -0.4855
 5812TIP3   OH217399   2.981   3.448   3.242 -0.1020 -0.2399 -0.2042
 5812TIP3    H117400   2.938   3.436   3.327  0.3438  1.1953  0.2705
 5812TIP3    H217401   2.950   3.534   3.212 -1.0849 -1.1819 -2.0270
 5813TIP3   OH217402   6.563   6.398   2.323  0.5833  0.2176 -0.0209
 5813TIP3    H117403   6.649   6.364   2.299  0.8833  0.4293  0.7144
 5813TIP3    H217404   6.577   6.493   2.333  0.1428  0.3264 -0.4103
 5814TIP3   OH217405   2.310   5.097   5.621  0.1958 -0.0827  0.2028
 5814TIP3    H117406   2.352   5.169   5.668 -0.3713  1.3953 -1.4736
 5814TIP3    H217407   2.226   5.132   5.592  0.0604 -1.2884 -0.9697
 5815TIP3   OH217408   3.983   1.276   3.569  0.4015  0.6078 -0.3884
 5815TIP3    H117409   4.072   1.241   3.581  0.2525  0.2465 -0.3096
 5815TIP3    H217410   3.926   1.210   3.608  0.1125  0.9703 -0.1895
 5816TIP3   OH217411   1.910   2.416   1.248 -0.3198 -0.4100 -0.4808
 5816TIP3    H117412   1.961   2.337   1.227 -1.4363 -1.1221 -0.6184
 5816TIP3    H217413   1.910   2.466   1.167  0.3129 -0.3061 -0.4245
 5817TIP3   OH217414   6.951   4.700   4.636 -0.4097  0.4802 -0.4533
 5817TIP3    H117415   6.862   4.688   4.606 -1.1706  1.5803  1.1880
 5817TIP3    H217416   6.963   4.635   4.706  1.0523 -1.5001 -2.3986
 5818TIP3   OH217417   3.657   0.327   1.775 -0.1548  0.3766  0.1119
 5818TIP3    H117418   3.656   0.420   1.755 -0.3759  0.2735 -0.3561
 5818TIP3    H217419   3.641   0.323   1.870 -0.1964  0.8104  0.1241
 5819TIP3   OH217420   2.968   5.777   3.604 -0.4373  0.5189 -0.3590
 5819TIP3    H117421   2.926   5.691   3.604  1.2429 -0.3345  0.0336
 5819TIP3    H217422   3.039   5.770   3.667 -0.6631  2.4338  0.2050
 5820TIP3   OH217423   5.986   5.586   1.706  0.1486  0.4698  0.2734
 5820TIP3    H117424   6.009   5.669   1.665 -0.7832  0.2813 -0.6557
 5820TIP3    H217425   5.898   5.566   1.674  0.9863 -1.6877 -0.8964
 5821TIP3   OH217426   1.895   5.502   0.203  0.4897  0.4117  0.3034
 5821TIP3    H117427   1.853   5.580   0.167  0.8980  0.8912  0.8448
 5821TIP3    H217428   1.980   5.498   0.159  0.6990  0.6011  0.6788
 5822TIP3   OH217429   1.173   0.668   4.268  0.1473  0.2982 -0.4265
 5822TIP3    H117430   1.124   0.728   4.212  0.0181  0.3927 -0.2148
 5822TIP3    H217431   1.250   0.719   4.295  0.0363  0.3676 -0.2448
 5823TIP3   OH217432   7.187   6.611   1.063  0.0855  0.0232  0.4290
 5823TIP3    H117433   7.225   6.553   0.997  1.3117  0.2369  0.9229
 5823TIP3    H217434   7.237   6.592   1.143 -0.8856  0.2891  1.1232
 5824TIP3   OH217435   4.490   0.697   3.332 -0.0734 -0.6238  0.1983
 5824TIP3    H117436   4.456   0.609   3.314 -0.1421 -0.6320  0.3649
 5824TIP3    H217437   4.452   0.721   3.416  0.8888 -0.9241  0.7328
 5825TIP3   OH217438   4.020   2.584   1.614 -0.3289 -0.0758  0.0257
 5825TIP3    H117439   4.052   2.515   1.673  1.2699  0.7091  0.1371
 5825TIP3    H217440   4.083   2.586   1.543 -0.9346  0.5919 -0.5049
 5826TIP3   OH217441   4.697   1.470   1.148 -0.0472  0.2948 -0.2111
 5826TIP3    H117442   4.697   1.421   1.230 -1.0947  0.8209  0.1227
 5826TIP3    H217443   4.648   1.550   1.167  1.7444  1.5743 -0.7206
 5827TIP3   OH217444   4.176   0.266   3.942 -0.2625 -0.3668  0.6458
 5827TIP3    H117445   4.259   0.224   3.919  0.4746  2.4933 -2.8639
 5827TIP3    H217446   4.200   0.337   4.001 -0.5698 -0.7883  1.2958
 5828TIP3   OH217447   2.049   3.743   1.603 -0.3324  0.3293  0.3304
 5828TIP3    H117448   2.103   3.740   1.524  0.5446  2.7233  0.7603
 5828TIP3    H217449   2.025   3.651   1.619 -0.3247 -0.2684 -2.5209
 5829TIP3   OH217450   6.869   3.923   1.274  0.1353 -0.2882  0.8271
 5829TIP3    H117451   6.807   3.859   1.239  0.6937 -0.0749 -0.6321
 5829TIP3    H217452   6.932   3.872   1.325  2.8889 -1.6264 -3.4194
 5830TIP3   OH217453   3.666   1.552   5.870 -0.6401 -0.1476  0.5047
 5830TIP3    H117454   3.628   1.531   5.784  2.0194 -2.5024 -0.2524
 5830TIP3    H217455   3.732   1.618   5.851  1.6784 -2.4184  0.1737
 5831TIP3   OH217456   4.672   0.268   3.147  0.4910  0.6072  0.3269
 5831TIP3    H117457   4.699   0.255   3.056  2.9424  0.5084  1.0071
 5831TIP3    H217458   4.646   0.360   3.151 -0.1565  0.4749 -0.5810
 5832TIP3   OH217459   4.723   1.859   1.536  0.7249 -0.0187  0.0478
 5832TIP3    H117460   4.745   1.790   1.599 -0.8180 -1.1006 -0.5341
 5832TIP3    H217461   4.754   1.940   1.577  1.6335 -0.9268  1.2265
 5833TIP3   OH217462   1.145   3.719   4.220  0.2983 -0.2100 -0.3505
 5833TIP3    H117463   1.228   3.748   4.184 -0.2214  0.4133 -1.0862
 5833TIP3    H217464   1.090   3.703   4.143 -0.6814  0.6768  0.1508
 5834TIP3   OH217465   6.648   1.188   5.564 -0.3334 -0.2606  0.4118
 5834TIP3    H117466   6.642   1.262   5.625 -2.1397 -0.6492  0.7610
 5834TIP3    H217467   6.622   1.225   5.480  2.3527  0.3243 -0.2639
 5835TIP3   OH217468   2.313   4.179   5.673  0.5539  0.1545 -0.0011
 5835TIP3    H117469   2.223   4.147   5.677  0.0903  1.0967 -1.9800
 5835TIP3    H217470   2.317   4.230   5.592  3.0456 -0.4290 -0.3305
 5836TIP3   OH217471   5.307   6.176   4.553 -0.3658  0.0234  0.3029
 5836TIP3    H117472   5.303   6.082   4.569 -1.2947  0.0851  0.4501
 5836TIP3    H217473   5.261   6.188   4.470 -0.2993  0.3532  0.3134
 5837TIP3   OH217474   2.861   2.878   3.300  0.3934  0.1715  0.4727
 5837TIP3    H117475   2.773   2.862   3.266 -0.2584 -0.0646  2.1961
 5837TIP3    H217476   2.901   2.937   3.236 -0.5106 -0.7970 -1.0535
 5838TIP3   OH217477   2.719   3.188   5.212  0.2035  0.3313  0.0691
 5838TIP3    H117478   2.740   3.267   5.161 -1.8439  1.1325  0.3961
 5838TIP3    H217479   2.691   3.124   5.146 -1.8212  1.1602  0.0555
 5839TIP3   OH217480   1.306   1.523   5.284 -0.0574 -0.1456 -0.4228
 5839TIP3    H117481   1.241   1.569   5.337  0.7311 -0.7294  1.1133
 5839TIP3    H217482   1.280   1.541   5.193 -2.8294 -1.0266  0.0905
 5840TIP3   OH217483   0.187   0.936   0.662  0.6308  0.5382 -0.3947
 5840TIP3    H117484   0.246   0.876   0.709 -1.1960 -0.4958  0.7119
 5840TIP3    H217485   0.216   0.931   0.571  1.6367 -0.6835 -0.0407
 5841TIP3   OH217486   1.240   6.083   2.885 -0.0577  0.2172  0.4258
 5841TIP3    H117487   1.214   6.170   2.854 -0.4654 -0.1073 -0.1743
 5841TIP3    H217488   1.172   6.025   2.851 -0.3761 -0.1945  1.7393
 5842TIP3   OH217489   3.180   0.184   1.254  0.3899 -0.2449 -0.6320
 5842TIP3    H117490   3.205   0.255   1.194  1.3172 -0.2628 -0.2782
 5842TIP3    H217491   3.262   0.157   1.295 -0.0322 -1.1931 -0.3917
 5843TIP3   OH217492   4.122   1.412   0.709 -0.0403  0.0219  0.0611
 5843TIP3    H117493   4.066   1.489   0.705 -0.6105 -0.3132  1.2078
 5843TIP3    H217494   4.127   1.381   0.618 -1.1314  0.4540 -0.1546
 5844TIP3   OH217495   1.075   1.610   2.785  0.1214 -0.5013  0.0177
 5844TIP3    H117496   1.093   1.591   2.877 -0.2182  1.0568  0.4223
 5844TIP3    H217497   0.988   1.649   2.785 -1.1775 -3.1471 -1.3291
 5845TIP3   OH217498   2.113   6.691   2.656 -0.6328  0.0501  0.2681
 5845TIP3    H117499   2.136   6.754   2.588 -0.9171  0.5108  0.5920
 5845TIP3    H217500   2.042   6.639   2.617 -1.9464  1.3804  0.7680
 5846TIP3   OH217501   4.073   2.638   0.792 -0.4339  0.1630 -0.2039
 5846TIP3    H117502   4.085   2.717   0.844  2.2670 -0.9508  1.0874
 5846TIP3    H217503   4.108   2.660   0.706 -0.4631  0.5999 -0.1037
 5847TIP3   OH217504   6.810   5.723   4.733 -0.4812 -0.1039  0.2734
 5847TIP3    H117505   6.791   5.791   4.668 -2.6571 -2.5553 -1.8692
 5847TIP3    H217506   6.759   5.749   4.810 -0.9010  0.9141 -0.3223
 5848TIP3   OH217507   0.803   4.140   3.234  0.0287 -0.0607  0.2519
 5848TIP3    H117508   0.839   4.174   3.316  0.7074 -0.8507  0.2910
 5848TIP3    H217509   0.872   4.155   3.170 -0.5415  0.6533 -0.2131
 5849TIP3   OH217510   2.666   1.900   4.646 -0.2532 -0.2723  0.5536
 5849TIP3    H117511   2.756   1.930   4.658  0.9294 -2.5805 -1.6011
 5849TIP3    H217512   2.624   1.971   4.597  0.5818  0.5204  0.9498
 5850TIP3   OH217513   0.168   4.811   0.160  0.0050 -0.2286  0.2717
 5850TIP3    H117514   0.108   4.875   0.198  0.7895  1.3417 -0.9579
 5850TIP3    H217515   0.138   4.801   0.069  1.0576 -0.0623 -0.1164
 5851TIP3   OH217516   2.373   0.258   2.494 -0.3835 -0.1198  0.1776
 5851TIP3    H117517   2.315   0.224   2.426  0.1256 -0.4833 -0.0848
 5851TIP3    H217518   2.432   0.319   2.448 -1.6416  1.5991  0.7310
 5852TIP3   OH217519   3.949   4.957   2.562 -0.3522  0.2701  0.1517
 5852TIP3    H117520   4.007   4.894   2.520 -0.3905 -0.3093  0.9342
 5852TIP3    H217521   4.000   5.038   2.568 -0.0252  0.0884 -0.1584
 5853TIP3   OH217522   4.129   5.207   2.461  0.0336  0.6738  0.3458
 5853TIP3    H117523   4.063   5.276   2.463 -0.0131  0.6601 -0.5071
 5853TIP3    H217524   4.145   5.186   2.553 -0.1796  1.6054  0.6030
 5854TIP3   OH217525   5.700   5.226   3.237  0.0536  0.2004 -0.2095
 5854TIP3    H117526   5.639   5.300   3.235 -0.0536  0.1036 -1.8890
 5854TIP3    H217527   5.778   5.258   3.192 -0.0316 -0.7234 -1.0429
 5855TIP3   OH217528   3.832   3.501   3.773 -0.3543  0.6260 -0.3287
 5855TIP3    H117529   3.741   3.485   3.747  0.0072  1.3897 -2.2390
 5855TIP3    H217530   3.869   3.414   3.786 -0.7866  0.1966 -1.7581
 5856TIP3   OH217531   5.275   5.696   2.616 -0.3628 -0.3616 -0.3274
 5856TIP3    H117532   5.248   5.678   2.706  1.5184 -2.1897 -0.0444
 5856TIP3    H217533   5.296   5.789   2.616 -1.3170 -0.1193  0.8476
 5857TIP3   OH217534   4.825   1.529   4.254  0.4781  0.2727 -0.7704
 5857TIP3    H117535   4.908   1.486   4.273  0.1898  0.4077  1.0117
 5857TIP3    H217536   4.778   1.468   4.197  1.7045  0.1197 -1.6479
 5858TIP3   OH217537   4.290   1.666   5.453 -0.0259 -0.8032  0.4327
 5858TIP3    H117538   4.347   1.661   5.376 -0.5336 -0.6971  0.0490
 5858TIP3    H217539   4.307   1.584   5.500  0.1312 -0.9669  0.0977
 5859TIP3   OH217540   6.585   3.940   3.501  0.8344  0.8091 -0.0333
 5859TIP3    H117541   6.638   3.887   3.442 -2.0896 -1.5316 -0.8346
 5859TIP3    H217542   6.510   3.967   3.448 -1.2764 -0.3179  2.2099
 5860TIP3   OH217543   5.905   1.942   5.425  0.9600 -0.1101 -0.2236
 5860TIP3    H117544   5.958   2.021   5.435  0.7113  0.0017  0.2591
 5860TIP3    H217545   5.848   1.942   5.502 -2.9401  2.1861 -2.7824
 5861TIP3   OH217546   4.189   4.244   2.761  0.1653 -0.0570 -0.3795
 5861TIP3    H117547   4.168   4.276   2.673  1.9669 -0.6812 -1.0832
 5861TIP3    H217548   4.106   4.208   2.794 -0.2753 -0.9687 -2.3282
 5862TIP3   OH217549   5.585   1.754   3.997  0.6599  0.3782 -0.4911
 5862TIP3    H117550   5.621   1.747   3.909  0.2709  0.5278 -0.6627
 5862TIP3    H217551   5.606   1.843   4.025  1.3566  0.1230 -0.1768
 5863TIP3   OH217552   3.847   1.090   4.907  0.6372  0.2492  0.6493
 5863TIP3    H117553   3.922   1.031   4.914  0.7477  0.2000 -0.6759
 5863TIP3    H217554   3.828   1.093   4.814 -1.1590  0.0943  0.9814
 5864TIP3   OH217555   4.907   5.177   2.082  0.1546  0.2593  0.0019
 5864TIP3    H117556   5.002   5.189   2.087  0.1018  0.7728 -0.1792
 5864TIP3    H217557   4.872   5.266   2.075 -0.2918  0.0352 -0.7442
 5865TIP3   OH217558   2.468   5.709   2.244  0.2021  0.3692  0.0736
 5865TIP3    H117559   2.488   5.707   2.338  1.8865 -0.5532 -0.2518
 5865TIP3    H217560   2.511   5.788   2.212 -0.7664  0.9307  0.1499
 5866TIP3   OH217561   4.330   3.316   1.444 -0.0584  0.2526 -0.2465
 5866TIP3    H117562   4.295   3.376   1.378 -0.0907  0.5050 -0.0002
 5866TIP3    H217563   4.363   3.242   1.393  2.3289  1.5754 -0.7797
 5867TIP3   OH217564   3.449   3.374   2.408  0.3366  0.2561 -0.4716
 5867TIP3    H117565   3.501   3.298   2.434  2.3798  2.0000  0.8814
 5867TIP3    H217566   3.443   3.367   2.312 -0.7098 -2.2371 -0.3149
 5868TIP3   OH217567   6.997   3.322   4.384  0.0741 -0.2080  0.1306
 5868TIP3    H117568   7.058   3.350   4.452  1.3033  0.4104 -1.1806
 5868TIP3    H217569   7.052   3.303   4.308 -1.2627 -0.8560 -0.7146
 5869TIP3   OH217570   5.073   4.852   0.775  0.0922 -0.4738 -0.2444
 5869TIP3    H117571   5.006   4.830   0.840  1.4535  1.3669  1.9569
 5869TIP3    H217572   5.128   4.774   0.770  0.3818 -0.4234  1.4480
 5870TIP3   OH217573   0.390   3.343   4.809  0.4381 -0.0851 -0.1689
 5870TIP3    H117574   0.400   3.335   4.904 -0.6778  0.2677  0.0030
 5870TIP3    H217575   0.421   3.431   4.789 -0.5134  0.3301  0.0849
 5871TIP3   OH217576   6.132   5.365   3.223  0.1844 -0.1704 -0.4120
 5871TIP3    H117577   6.062   5.406   3.174 -0.2083  0.1154  0.3761
 5871TIP3    H217578   6.088   5.319   3.295  0.7494 -0.5051 -0.2732
 5872TIP3   OH217579   4.362   6.703   0.738 -0.2762  0.1289  0.1001
 5872TIP3    H117580   4.284   6.724   0.790  0.2458  4.9045 -0.5668
 5872TIP3    H217581   4.436   6.723   0.796  0.4292 -0.5994 -0.5224
 5873TIP3   OH217582   4.910   6.520   1.083 -0.0636 -0.2622  0.3582
 5873TIP3    H117583   4.942   6.430   1.088 -0.5604 -0.5378 -1.1017
 5873TIP3    H217584   4.849   6.521   1.009  1.5901  1.7643 -1.0952
 5874TIP3   OH217585   2.512   2.325   0.868  0.1723  0.4398 -0.4058
 5874TIP3    H117586   2.591   2.271   0.868 -0.2349 -0.2592  2.1510
 5874TIP3    H217587   2.538   2.405   0.912 -0.4495  0.3453  0.1430
 5875TIP3   OH217588   3.804   2.490   3.332 -0.0785  0.5481 -0.4544
 5875TIP3    H117589   3.821   2.583   3.346  0.1338  0.6698 -1.4614
 5875TIP3    H217590   3.710   2.480   3.347 -0.7666  1.5570 -3.3644
 5876TIP3   OH217591   4.690   4.906   1.282  0.0798  0.4537 -0.0969
 5876TIP3    H117592   4.667   4.930   1.192  0.9844  0.9780 -0.1981
 5876TIP3    H217593   4.622   4.946   1.336 -0.3087  0.3790 -0.5217
 5877TIP3   OH217594   0.554   1.767   0.124  0.8522  0.4129  0.1195
 5877TIP3    H117595   0.610   1.711   0.178  1.4578  0.2310 -0.6846
 5877TIP3    H217596   0.593   1.854   0.132  0.9340  0.3885 -0.0192
 5878TIP3   OH217597   4.213   5.692   1.253  0.6420 -0.2217  0.0596
 5878TIP3    H117598   4.180   5.780   1.269  3.0539  0.4887  1.7503
 5878TIP3    H217599   4.157   5.657   1.183 -1.1305  2.1726  0.1694
 5879TIP3   OH217600   4.233   6.612   0.261  0.2091 -0.1017 -0.1538
 5879TIP3    H117601   4.156   6.668   0.251  0.7620  0.8775  0.8119
 5879TIP3    H217602   4.236   6.591   0.355 -1.7088 -4.3683 -0.8036
 5880TIP3   OH217603   5.745   1.343   5.651 -0.0711  0.7729  0.4803
 5880TIP3    H117604   5.655   1.349   5.683 -0.0893 -1.0736  0.8377
 5880TIP3    H217605   5.770   1.252   5.664  1.5483  1.0395 -0.4677
 5881TIP3   OH217606   4.268   1.641   1.035 -0.2787  0.3963  0.0439
 5881TIP3    H117607   4.286   1.657   1.128  0.4933 -0.2183  0.0052
 5881TIP3    H217608   4.310   1.557   1.016  0.2678  0.9080 -1.0658
 5882TIP3   OH217609   4.268   0.090   5.804 -0.0462 -0.4835 -0.0082
 5882TIP3    H117610   4.298   0.145   5.733  1.1026  0.8331  1.4279
 5882TIP3    H217611   4.257   0.003   5.765  0.6359  0.1733 -1.7386
 5883TIP3   OH217612   5.923   4.110   4.089  0.2401 -0.2440  0.2286
 5883TIP3    H117613   5.988   4.118   4.158  0.8474 -1.3662 -0.1767
 5883TIP3    H217614   5.968   4.142   4.010  0.9162 -2.4682 -0.3716
 5884TIP3   OH217615   1.679   3.453   3.338 -0.1651  0.0933 -0.1208
 5884TIP3    H117616   1.599   3.488   3.377 -0.1390  0.4593 -0.3806
 5884TIP3    H217617   1.686   3.499   3.254  0.2793  0.0135 -0.1301
 5885TIP3   OH217618   0.129   4.746   5.891 -0.3243  0.1387 -0.1968
 5885TIP3    H117619   0.168   4.731   5.805  0.4331 -1.0321  0.3356
 5885TIP3    H217620   0.198   4.786   5.942  0.0290 -1.3655  0.5609
 5886TIP3   OH217621   1.012   4.221   3.062 -0.5929  0.0413 -0.2682
 5886TIP3    H117622   1.056   4.235   2.979 -1.3725  0.8602 -0.5475
 5886TIP3    H217623   0.972   4.305   3.084  0.5003  0.1652  1.4766
 5887TIP3   OH217624   3.965   3.490   2.791 -0.5612  0.3804 -0.1266
 5887TIP3    H117625   4.026   3.424   2.760 -0.4838 -0.0766  0.9537
 5887TIP3    H217626   3.902   3.442   2.845 -0.9496  1.0729  0.0568
 5888TIP3   OH217627   5.675   2.468   0.959 -0.2278 -0.2075  0.6055
 5888TIP3    H117628   5.640   2.544   1.006  0.6005  0.6893 -0.1752
 5888TIP3    H217629   5.752   2.442   1.010  0.4662  0.5468 -0.0269
 5889TIP3   OH217630   6.866   1.464   0.849 -0.4079 -0.0801  0.1518
 5889TIP3    H117631   6.830   1.553   0.846  0.0869  0.0897 -1.0327
 5889TIP3    H217632   6.960   1.476   0.852 -0.3622 -0.5624  1.0179
 5890TIP3   OH217633   3.885   0.486   3.417 -0.0440 -0.3721  0.3091
 5890TIP3    H117634   3.822   0.557   3.426 -1.3961 -1.4019 -0.6056
 5890TIP3    H217635   3.919   0.495   3.328 -0.2915 -0.9174  0.1553
 5891TIP3   OH217636   0.286   0.841   0.085  0.4043 -0.0247 -0.6001
 5891TIP3    H117637   0.243   0.789   0.016 -0.0722 -1.1025  0.4822
 5891TIP3    H217638   0.379   0.835   0.064  0.1651  1.4426 -2.3560
 5892TIP3   OH217639   5.392   2.229   4.915 -0.1791  0.0283  0.7972
 5892TIP3    H117640   5.317   2.242   4.857  0.4364 -0.5824 -0.1546
 5892TIP3    H217641   5.440   2.311   4.910 -0.4083  0.1694  0.8684
 5893TIP3   OH217642   4.235   0.376   1.597 -0.6020 -0.3922 -0.2224
 5893TIP3    H117643   4.325   0.395   1.625 -0.7542 -0.6197  0.4362
 5893TIP3    H217644   4.181   0.403   1.672 -0.9187 -2.2914  0.2754
 5894TIP3   OH217645   3.258   6.251   4.009  0.3477 -0.4671 -0.2930
 5894TIP3    H117646   3.204   6.172   4.012 -0.9617  0.3971 -0.1099
 5894TIP3    H217647   3.249   6.284   3.920  0.0637  0.0180 -0.0890
 5895TIP3   OH217648   0.444   2.479   1.747  0.1721 -0.4623 -0.3430
 5895TIP3    H117649   0.379   2.409   1.739  0.4288 -0.6054 -1.3372
 5895TIP3    H217650   0.436   2.510   1.837 -1.9009  0.1158 -0.6743
 5896TIP3   OH217651   4.567   5.408   1.788 -0.6537  0.0977  0.0333
 5896TIP3    H117652   4.559   5.417   1.693 -0.9272  0.7633  0.1143
 5896TIP3    H217653   4.633   5.473   1.812  1.4256 -1.8397 -0.0031
 5897TIP3   OH217654   7.065   4.409   3.447  0.1519  0.0764 -0.0974
 5897TIP3    H117655   7.033   4.422   3.358 -0.7300 -0.7943  0.0640
 5897TIP3    H217656   6.986   4.411   3.501  0.5703 -0.3434  0.5498
 5898TIP3   OH217657   2.714   2.715   2.204 -0.4941 -0.0072 -0.2406
 5898TIP3    H117658   2.766   2.779   2.253 -0.4955 -0.0528 -0.1794
 5898TIP3    H217659   2.677   2.765   2.131 -2.6483  0.6931  1.2643
 5899TIP3   OH217660   2.257   4.929   2.930 -0.1642  0.1299  0.2104
 5899TIP3    H117661   2.256   5.023   2.946 -0.7063  0.9280 -3.4785
 5899TIP3    H217662   2.185   4.894   2.983 -1.2764  2.1521  0.1212
 5900TIP3   OH217663   6.836   2.580   4.050  0.5082  0.1563  0.5757
 5900TIP3    H117664   6.759   2.600   3.996 -0.8025 -0.4472  2.1700
 5900TIP3    H217665   6.864   2.493   4.021 -0.8595 -0.6461  1.5631
 5901TIP3   OH217666   6.625   3.199   1.546 -0.0837 -0.3525  0.0883
 5901TIP3    H117667   6.612   3.135   1.615  0.4851  1.1103  1.6265
 5901TIP3    H217668   6.698   3.164   1.495 -0.3908 -1.3707  0.3334
 5902TIP3   OH217669   5.034   4.387   5.541  0.2076  0.2518  0.1060
 5902TIP3    H117670   5.084   4.309   5.515  0.8773  0.4871  0.6435
 5902TIP3    H217671   5.038   4.445   5.464 -1.8710 -0.9599 -1.0051
 5903TIP3   OH217672   0.818   3.551   3.683  0.8386 -0.4009 -0.4831
 5903TIP3    H117673   0.775   3.635   3.699 -0.7937 -1.2924  0.0695
 5903TIP3    H217674   0.880   3.541   3.755  2.6824  1.2790 -1.7307
 5904TIP3   OH217675   6.924   3.079   3.123 -0.2707 -0.0212 -0.0446
 5904TIP3    H117676   6.969   3.143   3.068  0.2499  0.9648  1.4526
 5904TIP3    H217677   6.994   3.027   3.162 -0.3597  1.3736  2.1237
 5905TIP3   OH217678   3.288   6.549   0.359 -0.0412  0.0115  0.6163
 5905TIP3    H117679   3.226   6.611   0.398 -0.6370  0.3158 -0.7406
 5905TIP3    H217680   3.372   6.595   0.362  0.0500 -0.2142  2.0487
 5906TIP3   OH217681   6.962   5.755   5.376 -0.6131  0.2688  0.1756
 5906TIP3    H117682   6.991   5.664   5.389 -0.5047  0.2486 -0.2144
 5906TIP3    H217683   7.030   5.808   5.418  0.1208  0.2329 -0.9428
 5907TIP3   OH217684   3.630   0.175   1.540 -0.0753  1.1080 -0.5076
 5907TIP3    H117685   3.653   0.089   1.576 -3.5934  0.1021 -0.3507
 5907TIP3    H217686   3.626   0.232   1.616 -0.2191  0.8067 -0.2862
 5908TIP3   OH217687   0.959   2.507   3.742 -0.4801 -0.0535 -0.0532
 5908TIP3    H117688   0.970   2.584   3.686 -2.2122  0.8919  0.8048
 5908TIP3    H217689   1.046   2.467   3.747  0.4447  1.8030 -0.5993
 5909TIP3   OH217690   5.946   6.666   3.612  0.0877  0.4170 -0.0909
 5909TIP3    H117691   5.950   6.735   3.679  0.1892 -0.7132  1.1013
 5909TIP3    H217692   6.016   6.688   3.550  1.1727  0.5398  1.1305
 5910TIP3   OH217693   1.016   5.459   0.349 -0.4642 -0.0373  0.0391
 5910TIP3    H117694   0.976   5.387   0.300 -0.4257  0.0831 -0.1718
 5910TIP3    H217695   1.109   5.456   0.324 -0.6555  0.7635 -0.8235
 5911TIP3   OH217696   0.930   5.861   1.575  0.2433  0.3516 -0.0445
 5911TIP3    H117697   0.889   5.939   1.614  1.6159  1.7678 -1.3005
 5911TIP3    H217698   1.024   5.877   1.583  0.6383  0.6589 -3.6451
 5912TIP3   OH217699   5.499   6.166   5.401  0.2476 -0.5034 -0.3189
 5912TIP3    H117700   5.537   6.081   5.421 -2.1968 -1.3072  1.3609
 5912TIP3    H217701   5.405   6.154   5.413 -0.1532  2.5426  0.4726
 5913TIP3   OH217702   4.262   5.394   0.633 -0.4137 -0.0193  0.2342
 5913TIP3    H117703   4.317   5.335   0.684  0.4850  0.6421  0.0421
 5913TIP3    H217704   4.203   5.434   0.698  0.3080  0.3535  0.6695
 5914TIP3   OH217705   5.549   4.108   5.201  0.1670 -0.1475  0.4601
 5914TIP3    H117706   5.508   4.157   5.272  1.0279  0.5405  0.5025
 5914TIP3    H217707   5.623   4.162   5.174 -0.1768 -0.3726 -1.0105
 5915TIP3   OH217708   1.955   1.663   5.379  0.0873 -0.1778  0.0335
 5915TIP3    H117709   1.949   1.759   5.372  0.2762 -0.2434 -1.2040
 5915TIP3    H217710   2.045   1.647   5.407  0.0403  0.0100  0.2954
 5916TIP3   OH217711   5.481   2.604   3.465  0.0134  0.4841 -0.1428
 5916TIP3    H117712   5.413   2.588   3.530  0.8170 -1.0372  0.3845
 5916TIP3    H217713   5.442   2.575   3.382  0.1257 -0.8001  0.2221
 5917TIP3   OH217714   2.576   6.576   0.361 -0.4590 -0.1367  0.0659
 5917TIP3    H117715   2.592   6.584   0.455 -0.2166  1.5534 -0.0805
 5917TIP3    H217716   2.509   6.642   0.343  0.5764  0.6113 -1.1714
 5918TIP3   OH217717   5.961   3.984   1.205 -0.0984  0.2481  0.1073
 5918TIP3    H117718   5.971   4.072   1.240 -1.1740  0.3479  0.1870
 5918TIP3    H217719   5.899   3.941   1.264 -2.2375  0.5417 -1.7735
 5919TIP3   OH217720   3.753   4.813   1.985 -0.2902 -0.6939  0.5167
 5919TIP3    H117721   3.847   4.816   1.969 -0.5818 -0.3180 -1.4794
 5919TIP3    H217722   3.728   4.905   1.997 -0.3073 -0.8581  1.8752
 5920TIP3   OH217723   5.557   0.406   2.062 -0.7979 -0.1857 -0.1408
 5920TIP3    H117724   5.623   0.474   2.048 -0.0363 -0.9576 -0.3364
 5920TIP3    H217725   5.474   0.455   2.068 -0.2125  0.7942  0.1883
 5921TIP3   OH217726   1.914   1.875   4.477 -0.4388  0.1786 -0.2098
 5921TIP3    H117727   1.880   1.890   4.389 -0.3129 -2.1364 -0.7203
 5921TIP3    H217728   1.844   1.828   4.522  0.3307 -0.5938  0.2098
 5922TIP3   OH217729   6.756   5.354   2.034  0.1289  0.1354  0.4697
 5922TIP3    H117730   6.734   5.289   1.967 -0.1456 -0.3697  1.0348
 5922TIP3    H217731   6.814   5.415   1.990  0.2572 -0.4004 -0.1249
 5923TIP3   OH217732   4.040   4.585   0.467 -0.1398 -0.2771 -0.0576
 5923TIP3    H117733   4.026   4.669   0.423 -1.2677 -0.1052  0.5755
 5923TIP3    H217734   3.955   4.565   0.508  0.5057 -1.0567  0.9505
 5924TIP3   OH217735   1.079   5.485   1.840  0.1427  0.4315 -0.0814
 5924TIP3    H117736   0.985   5.497   1.826 -0.1227  0.0568  1.2839
 5924TIP3    H217737   1.117   5.496   1.753 -0.7403  4.4465 -0.1826
 5925TIP3   OH217738   2.297   3.532   2.541 -0.2040  0.4618  0.1599
 5925TIP3    H117739   2.359   3.475   2.588  0.4030  0.9079 -0.0837
 5925TIP3    H217740   2.353   3.597   2.498 -0.8446  0.8208 -0.1359
 5926TIP3   OH217741   0.777   6.467   5.424 -0.3944  0.5567  0.1408
 5926TIP3    H117742   0.781   6.550   5.471  1.6029  0.7683 -0.2938
 5926TIP3    H217743   0.769   6.492   5.332 -1.2633  0.2240  0.1228
 5927TIP3   OH217744   4.838   3.810   1.967 -0.1491  0.1581  0.4573
 5927TIP3    H117745   4.856   3.721   1.996 -0.1773 -1.0399 -2.8320
 5927TIP3    H217746   4.747   3.808   1.937  1.3373 -0.5106 -4.9626
 5928TIP3   OH217747   2.873   6.675   5.340 -0.2558  0.3356 -0.2730
 5928TIP3    H117748   2.794   6.639   5.300 -0.5553 -0.9319  1.3460
 5928TIP3    H217749   2.944   6.618   5.309 -0.4191 -0.3352  0.5315
 5929TIP3   OH217750   6.366   1.961   4.739  0.4312 -0.5820 -0.4715
 5929TIP3    H117751   6.395   2.052   4.737 -1.3505  0.0283 -0.1570
 5929TIP3    H217752   6.274   1.966   4.765 -0.1523 -2.3439 -1.9923
 5930TIP3   OH217753   1.251   0.200   4.848  0.1484 -0.3421 -0.4329
 5930TIP3    H117754   1.271   0.173   4.938 -0.0374 -1.9300 -0.8306
 5930TIP3    H217755   1.329   0.248   4.820  0.4217 -0.2714  0.3979
 5931TIP3   OH217756   5.841   3.425   3.483 -0.4467 -0.5687 -0.2108
 5931TIP3    H117757   5.798   3.442   3.399 -0.8974  2.4526  0.4991
 5931TIP3    H217758   5.897   3.502   3.496  0.1356 -1.3014  1.9459
 5932TIP3   OH217759   6.400   1.935   0.701 -0.6130  0.3405 -0.1520
 5932TIP3    H117760   6.358   1.849   0.701  1.6994 -0.8743 -0.1024
 5932TIP3    H217761   6.361   1.981   0.775 -0.4337 -1.4751  1.1359
 5933TIP3   OH217762   1.479   5.926   2.415  0.0511 -0.2112 -0.3895
 5933TIP3    H117763   1.408   5.960   2.469  0.1498 -0.4199 -0.1256
 5933TIP3    H217764   1.540   5.886   2.478  0.2272 -0.3446 -0.6430
 5934TIP3   OH217765   0.136   2.823   0.613  0.5533  0.1495  0.0080
 5934TIP3    H117766   0.221   2.847   0.576  1.3704 -0.8752  1.1374
 5934TIP3    H217767   0.119   2.735   0.580  0.6308 -0.2175  0.9027
 5935TIP3   OH217768   1.192   6.720   1.640 -0.2849  0.1946  0.4261
 5935TIP3    H117769   1.104   6.691   1.616 -1.0236  1.1845  1.7851
 5935TIP3    H217770   1.249   6.647   1.616 -1.4238 -0.3219 -0.7966
 5936TIP3   OH217771   0.463   1.236   2.278 -0.0056 -0.4736  0.2430
 5936TIP3    H117772   0.526   1.184   2.227  0.2682 -0.8135  0.9150
 5936TIP3    H217773   0.433   1.177   2.347 -0.0105  0.1221  0.7628
 5937TIP3   OH217774   3.238   6.336   0.203  0.2961  0.2159 -0.2079
 5937TIP3    H117775   3.325   6.298   0.188  0.1068 -0.9197  1.2925
 5937TIP3    H217776   3.256   6.416   0.253  0.6251  1.5690 -2.3986
 5938TIP3   OH217777   4.975   5.622   0.139 -0.3903  0.2302 -0.2191
 5938TIP3    H117778   5.021   5.652   0.060  0.3672  0.7991  0.4103
 5938TIP3    H217779   4.930   5.543   0.112  0.3246  0.0933 -1.0795
 5939TIP3   OH217780   1.483   2.281   2.476 -0.2188  0.1255 -0.1884
 5939TIP3    H117781   1.487   2.331   2.557  0.8920  0.1302 -0.2357
 5939TIP3    H217782   1.412   2.218   2.490  0.0929 -0.0038  0.8618
 5940TIP3   OH217783   1.794   6.278   1.250  0.1813  0.2342 -0.2870
 5940TIP3    H117784   1.700   6.270   1.266  0.1654  1.1033  0.1331
 5940TIP3    H217785   1.800   6.316   1.162  0.0664  1.9691  0.4160
 5941TIP3   OH217786   3.784   0.383   2.990  0.1347 -0.2545 -0.0576
 5941TIP3    H117787   3.849   0.411   3.054 -0.2373  2.4871 -0.7512
 5941TIP3    H217788   3.799   0.439   2.914 -2.6964  0.2196 -0.3993
 5942TIP3   OH217789   3.427   1.146   2.166  0.0584  0.0461 -0.2074
 5942TIP3    H117790   3.361   1.202   2.208  0.7775  0.1631  0.8054
 5942TIP3    H217791   3.453   1.195   2.088  0.6373  1.1432  0.6337
 5943TIP3   OH217792   6.743   6.764   4.552 -0.5154 -0.2003 -0.3230
 5943TIP3    H117793   6.669   6.767   4.492 -0.3560 -1.0251 -0.5791
 5943TIP3    H217794   6.705   6.746   4.638 -0.6242 -0.5074 -0.4350
 5944TIP3   OH217795   6.482   5.275   4.753 -0.1031 -0.4479  0.0116
 5944TIP3    H117796   6.473   5.182   4.771 -0.8200 -0.2382  0.8067
 5944TIP3    H217797   6.437   5.288   4.669  1.4195 -1.0771 -0.9356
 5945TIP3   OH217798   3.185   5.877   1.209 -0.1341 -0.4379  0.0090
 5945TIP3    H117799   3.240   5.942   1.163 -0.8097 -0.7157 -1.2482
 5945TIP3    H217800   3.101   5.880   1.162 -0.7089 -1.0759  0.9685
 5946TIP3   OH217801   5.032   1.672   5.479 -0.0240 -0.0437  0.0705
 5946TIP3    H117802   5.006   1.741   5.541 -3.2889 -1.8108  0.9315
 5946TIP3    H217803   5.078   1.719   5.409 -0.4492  2.7330  1.4807
 5947TIP3   OH217804   6.794   4.423   4.099 -0.1461 -0.1889 -0.0598
 5947TIP3    H117805   6.707   4.454   4.123 -1.1237 -1.5268 -1.7017
 5947TIP3    H217806   6.814   4.357   4.166  0.6707  1.7220  1.6831
 5948TIP3   OH217807   3.833   1.923   1.295 -0.0961 -0.1612  0.6854
 5948TIP3    H117808   3.760   1.982   1.313 -0.2732 -0.5469  1.2679
 5948TIP3    H217809   3.904   1.980   1.264 -0.3198  0.3303  1.0703
 5949TIP3   OH217810   4.325   4.027   2.996  0.2226 -0.0015 -0.2740
 5949TIP3    H117811   4.286   4.035   2.909 -1.1115 -2.4392  0.0144
 5949TIP3    H217812   4.417   4.011   2.980  0.4549  1.8611 -1.1082
 5950TIP3   OH217813   3.517   4.433   3.714 -0.2393 -0.0732  0.4567
 5950TIP3    H117814   3.572   4.465   3.642 -2.3408  2.1172 -0.3153
 5950TIP3    H217815   3.576   4.378   3.766  2.4125  1.3924 -0.7642
 5951TIP3   OH217816   1.936   6.479   4.236 -0.4317  0.4152 -0.6589
 5951TIP3    H117817   2.000   6.497   4.167  0.7482  0.9152  0.5097
 5951TIP3    H217818   1.856   6.522   4.207  0.0927  0.7823 -1.6135
 5952TIP3   OH217819   0.151   0.869   1.508  0.5115  0.3969 -0.3556
 5952TIP3    H117820   0.124   0.798   1.566  1.9026  0.7891  0.8440
 5952TIP3    H217821   0.113   0.847   1.423  0.1015 -1.2560  0.2257
 5953TIP3   OH217822   7.218   1.488   1.564 -0.3560  0.4163 -0.0356
 5953TIP3    H117823   7.195   1.446   1.481  1.7538  0.6473 -0.7885
 5953TIP3    H217824   7.148   1.461   1.624 -0.6400 -1.7639 -1.2326
 5954TIP3   OH217825   7.156   2.218   0.661 -0.5021 -0.1659  0.2495
 5954TIP3    H117826   7.198   2.147   0.612 -2.3678 -1.2268  0.1125
 5954TIP3    H217827   7.111   2.173   0.733 -0.1452  1.0923  1.2881
 5955TIP3   OH217828   1.929   2.632   3.852  0.1796  0.0530 -0.0103
 5955TIP3    H117829   1.867   2.613   3.781  1.5518  1.8915 -1.8109
 5955TIP3    H217830   2.009   2.586   3.826  0.5122  0.2102  0.7122
 5956TIP3   OH217831   6.614   6.674   3.936  0.5006  0.1242 -0.6692
 5956TIP3    H117832   6.533   6.695   3.983  0.8549  1.1933 -0.5028
 5956TIP3    H217833   6.593   6.686   3.844  0.7311  1.3792 -0.5676
 5957TIP3   OH217834   3.012   5.275   0.325  0.1636 -0.3516  0.2118
 5957TIP3    H117835   3.052   5.259   0.411 -2.1707  2.4637  2.0289
 5957TIP3    H217836   2.971   5.192   0.302  0.9823 -1.2295  1.7669
 5958TIP3   OH217837   4.415   5.508   3.758 -0.3000 -0.0795  0.2057
 5958TIP3    H117838   4.404   5.591   3.711 -0.8754 -0.4046 -0.2391
 5958TIP3    H217839   4.509   5.493   3.759  0.0590  1.7542  2.3358
 5959TIP3   OH217840   2.078   6.074   2.497  0.3970  0.4208 -0.4136
 5959TIP3    H117841   2.012   6.036   2.555  0.1975  2.1956  0.5955
 5959TIP3    H217842   2.116   5.999   2.451 -1.5249 -0.7585 -0.1960
 5960TIP3   OH217843   3.045   1.256   2.596 -0.0808  0.3136 -0.2707
 5960TIP3    H117844   2.980   1.231   2.531  0.2090 -0.6189 -0.2152
 5960TIP3    H217845   3.126   1.267   2.547  0.0450  0.0200 -0.1308
 5961TIP3   OH217846   7.081   6.359   3.604 -0.1477 -0.1646  0.2900
 5961TIP3    H117847   7.087   6.283   3.661  1.5443 -0.7046 -0.5471
 5961TIP3    H217848   7.169   6.397   3.605  0.1585 -0.6019 -2.4435
 5962TIP3   OH217849   0.116   1.128   2.495 -0.4980  0.1132  0.4295
 5962TIP3    H117850   0.105   1.046   2.543 -0.2888 -1.1473 -1.5717
 5962TIP3    H217851   0.209   1.130   2.473 -0.9218 -0.3713 -1.5897
 5963TIP3   OH217852   1.393   4.550   0.467 -0.0376 -0.3249  0.1694
 5963TIP3    H117853   1.418   4.568   0.557  1.8622 -1.6138 -0.0272
 5963TIP3    H217854   1.311   4.597   0.454  0.1030  0.5925  2.2843
 5964TIP3   OH217855   6.779   5.472   5.262  0.2720  0.1435  0.2008
 5964TIP3    H117856   6.703   5.483   5.319 -0.2680  0.4152 -0.5621
 5964TIP3    H217857   6.790   5.556   5.219  1.4312  0.3179  0.8065
 5965TIP3   OH217858   0.955   2.083   2.126 -0.6334 -0.2905  0.3475
 5965TIP3    H117859   0.975   1.993   2.151 -0.0716 -0.0935  0.6403
 5965TIP3    H217860   1.040   2.127   2.128 -0.5403 -0.2708 -1.9957
 5966TIP3   OH217861   6.451   1.884   3.629  0.3775  0.0583 -1.1881
 5966TIP3    H117862   6.530   1.848   3.588  1.7562  1.4067  0.1703
 5966TIP3    H217863   6.482   1.960   3.678 -1.7133  0.3443 -0.2191
 5967TIP3   OH217864   1.010   3.491   4.752  0.0991  0.2723  0.4795
 5967TIP3    H117865   1.017   3.441   4.833  1.5448  1.2366  0.9886
 5967TIP3    H217866   0.993   3.425   4.685 -0.2736 -0.6363  1.4390
 5968TIP3   OH217867   4.515   2.545   3.128  0.1009 -0.0192 -0.4166
 5968TIP3    H117868   4.597   2.592   3.111  0.1780  0.4648  1.1030
 5968TIP3    H217869   4.543   2.461   3.166 -0.0463  1.3309  2.9994
 5969TIP3   OH217870   4.825   0.828   3.352 -0.0094  0.3826  0.1840
 5969TIP3    H117871   4.852   0.758   3.292  1.5171  0.2220  1.0164
 5969TIP3    H217872   4.874   0.905   3.323 -1.4301  1.0638 -0.5157
 5970TIP3   OH217873   3.017   3.667   4.770  0.4261 -0.2326 -0.0295
 5970TIP3    H117874   2.944   3.636   4.824 -0.2547  1.9956  0.4423
 5970TIP3    H217875   2.979   3.676   4.682  0.7804 -1.2641 -0.2923
 5971TIP3   OH217876   3.069   2.785   0.214  0.2161 -0.0362  0.2537
 5971TIP3    H117877   2.991   2.753   0.170 -0.8538  0.6621  1.5358
 5971TIP3    H217878   3.118   2.832   0.147 -0.7546 -0.0085 -0.4479
 5972TIP3   OH217879   7.088   4.451   2.264  1.1313  0.1261  0.7037
 5972TIP3    H117880   7.105   4.544   2.246 -0.9951  0.2737 -0.9092
 5972TIP3    H217881   7.130   4.404   2.193 -0.9503  0.1877 -0.6622
 5973TIP3   OH217882   0.267   1.050   2.023  0.0490  0.1211  0.4185
 5973TIP3    H117883   0.313   0.966   2.014 -1.9352 -0.8603 -1.3273
 5973TIP3    H217884   0.303   1.105   1.954 -0.0040  0.0450  0.3305
 5974TIP3   OH217885   6.444   3.126   4.855 -0.1011 -0.6984 -0.0143
 5974TIP3    H117886   6.463   3.179   4.933 -0.9851  0.1826 -0.3805
 5974TIP3    H217887   6.528   3.118   4.811  0.0435  0.4419  0.0346
 5975TIP3   OH217888   1.652   4.485   5.381  0.7398  0.3967 -0.1297
 5975TIP3    H117889   1.737   4.490   5.425  1.3258  1.0599 -1.2975
 5975TIP3    H217890   1.669   4.431   5.304 -0.4836 -1.5182  0.8812
 5976TIP3   OH217891   6.582   0.157   2.418  0.3487 -0.2659  0.2263
 5976TIP3    H117892   6.551   0.118   2.336  0.9219  0.5680 -0.4085
 5976TIP3    H217893   6.563   0.091   2.485 -2.1248 -0.1037 -0.2120
 5977TIP3   OH217894   1.112   1.625   1.330 -0.4098  0.0231 -0.0001
 5977TIP3    H117895   1.071   1.702   1.369  2.0884  0.4334  2.0754
 5977TIP3    H217896   1.190   1.659   1.286  0.0653 -1.1863 -0.1313
 5978TIP3   OH217897   3.492   6.047   1.747  0.0728 -0.0814  0.0584
 5978TIP3    H117898   3.567   5.998   1.780 -0.7056 -0.7197  0.9179
 5978TIP3    H217899   3.434   6.058   1.823  0.3905  2.5412  0.0235
 5979TIP3   OH217900   1.313   2.935   2.469 -0.0845  0.1514 -0.1771
 5979TIP3    H117901   1.361   2.858   2.497  1.3922  0.8010 -0.8455
 5979TIP3    H217902   1.287   2.978   2.551  1.3231  0.2861  0.2269
 5980TIP3   OH217903   1.150   5.146   4.234 -0.1785 -0.7055  0.2053
 5980TIP3    H117904   1.109   5.083   4.293 -0.8837  0.3685  0.9008
 5980TIP3    H217905   1.145   5.104   4.148  0.0414 -1.9079  0.7527
 5981TIP3   OH217906   4.429   4.054   0.695 -0.4917  0.2865  0.3547
 5981TIP3    H117907   4.480   4.123   0.652 -3.8962  2.4980 -0.5677
 5981TIP3    H217908   4.438   3.978   0.639  1.6264  0.5862  0.2095
 5982TIP3   OH217909   1.456   6.201   2.298 -0.0350  0.5264 -0.2310
 5982TIP3    H117910   1.475   6.124   2.352  0.1689  0.0714 -0.9304
 5982TIP3    H217911   1.378   6.176   2.249 -1.5848  1.7837  1.4613
 5983TIP3   OH217912   1.685   4.255   3.194 -0.6576  0.1453  0.2771
 5983TIP3    H117913   1.624   4.184   3.174  0.3098 -0.7298  0.3491
 5983TIP3    H217914   1.642   4.334   3.161 -2.3650 -0.2680  1.4270
 5984TIP3   OH217915   1.951   5.528   5.105  0.2399 -0.0301  0.5779
 5984TIP3    H117916   1.991   5.561   5.186  1.0484 -2.2648  1.1520
 5984TIP3    H217917   1.962   5.599   5.042  0.4080  1.4107  2.1560
 5985TIP3   OH217918   3.187   1.712   3.402 -0.2852 -0.7732 -0.4161
 5985TIP3    H117919   3.267   1.748   3.441  0.3303  0.2325 -2.4474
 5985TIP3    H217920   3.117   1.768   3.435 -0.0940 -1.2529  0.8606
 5986TIP3   OH217921   6.762   3.178   4.475 -0.0742  0.8150  0.2626
 5986TIP3    H117922   6.721   3.217   4.398  0.9365 -1.3094 -1.4709
 5986TIP3    H217923   6.856   3.195   4.464  0.5104 -2.3964 -0.9417
 5987TIP3   OH217924   6.659   1.456   0.516  0.2163 -0.5835 -0.1047
 5987TIP3    H117925   6.697   1.535   0.478  2.5536 -1.7991 -0.4559
 5987TIP3    H217926   6.594   1.428   0.451 -0.9729  1.2284  0.2327
 5988TIP3   OH217927   5.679   6.607   4.493  0.2273 -0.0042  0.4104
 5988TIP3    H117928   5.600   6.631   4.444  1.1569  1.5635 -0.3994
 5988TIP3    H217929   5.685   6.512   4.483 -0.8900 -0.0054 -0.5257
 5989TIP3   OH217930   0.845   2.121   4.558 -0.6186 -0.2411  0.3129
 5989TIP3    H117931   0.846   2.108   4.653 -0.8672  1.2591  0.5439
 5989TIP3    H217932   0.760   2.089   4.529 -0.9962  0.3360  0.7707
 5990TIP3   OH217933   4.547   2.292   3.252 -0.3644 -0.1673  0.6332
 5990TIP3    H117934   4.478   2.270   3.316 -0.3588  0.4720  0.8652
 5990TIP3    H217935   4.564   2.210   3.206  0.3922 -0.9307  2.1887
 5991TIP3   OH217936   7.016   1.534   0.344  0.2243  0.2807 -0.3040
 5991TIP3    H117937   7.013   1.609   0.284 -0.9446  1.0653  0.6804
 5991TIP3    H217938   7.018   1.573   0.431 -1.5009 -0.7807  0.2730
 5992TIP3   OH217939   3.206   5.455   4.676  0.3375  0.2213 -0.3637
 5992TIP3    H117940   3.208   5.401   4.755 -0.8627  2.4691  1.3355
 5992TIP3    H217941   3.274   5.418   4.620 -1.3213 -3.8643  0.0040
 5993TIP3   OH217942   5.040   2.741   2.782  0.1124 -0.4715  0.9061
 5993TIP3    H117943   5.103   2.721   2.851 -0.2132 -1.4776  0.9240
 5993TIP3    H217944   5.091   2.788   2.716  0.5700 -0.0845  1.5303
 5994TIP3   OH217945   0.438   5.499   0.889  0.3549 -0.3156 -0.0797
 5994TIP3    H117946   0.487   5.580   0.889  0.2191 -0.2292  0.6317
 5994TIP3    H217947   0.501   5.432   0.860  0.9118 -0.2191  0.8818
 5995TIP3   OH217948   2.508   4.074   5.852 -0.7098 -0.4288  0.3196
 5995TIP3    H117949   2.462   4.004   5.900 -0.3489 -1.7168 -1.1202
 5995TIP3    H217950   2.439   4.115   5.799 -0.6324 -0.8865 -0.1539
 5996TIP3   OH217951   3.642   4.697   5.064  0.2903  0.5436  0.5840
 5996TIP3    H117952   3.594   4.617   5.041 -0.0272  1.1701 -1.1016
 5996TIP3    H217953   3.692   4.674   5.142 -0.4325 -1.0479  0.6058
 5997TIP3   OH217954   6.416   1.988   5.478  0.3767  0.6155  0.0619
 5997TIP3    H117955   6.474   2.027   5.413  1.1745 -0.4397  0.1069
 5997TIP3    H217956   6.460   1.907   5.503 -0.2402  0.6805  1.4387
 5998TIP3   OH217957   2.401   2.407   1.319 -0.0192 -0.6591  0.5117
 5998TIP3    H117958   2.314   2.371   1.329 -0.5830  0.0083 -1.5693
 5998TIP3    H217959   2.397   2.492   1.364 -1.1447  0.3344 -1.3521
 5999TIP3   OH217960   4.932   4.564   0.319 -0.0384  0.5493  0.3786
 5999TIP3    H117961   4.984   4.602   0.389  2.5996 -2.8682  0.5192
 5999TIP3    H217962   4.878   4.497   0.362  1.1728 -1.1732 -0.6377
 6000TIP3   OH217963   3.393   1.319   1.957  0.5866  0.7819 -0.1389
 6000TIP3    H117964   3.305   1.325   1.921  0.5528  1.1254 -0.0090
 6000TIP3    H217965   3.405   1.402   2.003  1.0625  0.8299 -0.3471
 6001TIP3   OH217966   2.125   5.988   0.954  0.4756 -0.0179  0.0236
 6001TIP3    H117967   2.062   5.981   0.883 -0.9349 -1.0339  1.3041
 6001TIP3    H217968   2.077   6.030   1.025  1.3611 -0.4175  0.8907
 6002TIP3   OH217969   6.539   6.126   5.720 -0.5914 -0.4508 -0.4743
 6002TIP3    H117970   6.454   6.136   5.762 -1.0473  0.7739 -1.5922
 6002TIP3    H217971   6.601   6.116   5.792 -1.8110 -2.9316  0.3375
 6003TIP3   OH217972   1.286   4.319   5.412 -0.1897  0.1631 -0.5423
 6003TIP3    H117973   1.330   4.253   5.465  1.1282  1.5529  0.1596
 6003TIP3    H217974   1.352   4.386   5.396 -1.7516  1.8551 -0.3193
 6004TIP3   OH217975   6.220   3.563   0.220  0.6304  0.0317 -0.4027
 6004TIP3    H117976   6.312   3.561   0.195  1.1474  2.0684  1.0357
 6004TIP3    H217977   6.195   3.471   0.229  2.7414 -0.5591 -0.0704
 6005TIP3   OH217978   2.292   2.854   2.703 -0.1773 -0.0511 -0.6520
 6005TIP3    H117979   2.293   2.791   2.631 -0.4904  0.9466 -1.5665
 6005TIP3    H217980   2.384   2.871   2.721 -0.0892  0.4115 -1.4879
 6006TIP3   OH217981   6.264   0.473   0.980  0.0920  0.1576  0.1406
 6006TIP3    H117982   6.184   0.421   0.974 -0.2985  0.9125 -2.7047
 6006TIP3    H217983   6.266   0.523   0.898  2.3337  1.8605  1.1305
 6007TIP3   OH217984   4.886   6.177   5.792  0.3418 -0.3691 -0.3128
 6007TIP3    H117985   4.844   6.262   5.807  1.7075  0.3364 -0.2926
 6007TIP3    H217986   4.910   6.179   5.700 -0.8628 -1.3453 -0.6729
 6008TIP3   OH217987   2.421   2.544   5.640  0.3405  0.1534  0.4894
 6008TIP3    H117988   2.435   2.577   5.551  1.6947 -0.3590  0.4911
 6008TIP3    H217989   2.336   2.581   5.666 -0.8013 -0.8330 -1.5382
 6009TIP3   OH217990   1.064   6.057   4.428 -0.6661  0.7488 -0.5570
 6009TIP3    H117991   1.041   5.984   4.485 -0.2210  0.6419 -0.5132
 6009TIP3    H217992   0.990   6.118   4.436 -0.6952  0.6458 -0.0212
 6010TIP3   OH217993   6.706   1.639   4.058  0.2194  0.4479 -0.5187
 6010TIP3    H117994   6.689   1.552   4.096 -0.2097  0.2601 -1.1222
 6010TIP3    H217995   6.619   1.674   4.038  0.3313  1.4768  0.6909
 6011TIP3   OH217996   3.854   2.050   5.344 -0.4443 -0.3087  0.3322
 6011TIP3    H117997   3.809   2.010   5.418 -1.4783 -1.3727 -0.8035
 6011TIP3    H217998   3.800   2.126   5.321 -1.4294 -1.2659 -0.6813
 6012TIP3   OH217999   0.431   4.244   2.468  0.0819  0.1339 -0.1420
 6012TIP3    H118000   0.339   4.251   2.443 -0.0053  0.4408  0.2411
 6012TIP3    H218001   0.442   4.312   2.535  0.1829 -0.9688  0.9995
 6013TIP3   OH218002   5.639   5.924   2.694  1.1456 -0.3201 -0.1926
 6013TIP3    H118003   5.728   5.923   2.727  0.3858  0.5866  2.0589
 6013TIP3    H218004   5.589   5.972   2.760 -0.7464  0.4924 -2.1095
 6014TIP3   OH218005   5.067   4.166   4.502  0.1617  0.3644 -0.0451
 6014TIP3    H118006   5.124   4.217   4.560  0.4542 -1.9192  1.7844
 6014TIP3    H218007   4.985   4.215   4.501  1.0448  1.9180  0.0068
 6015TIP3   OH218008   4.474   4.219   4.288 -0.4442 -0.3100 -0.1790
 6015TIP3    H118009   4.541   4.152   4.304 -0.4619 -0.4793 -0.7744
 6015TIP3    H218010   4.449   4.206   4.196  0.7050  1.5389 -0.8181
 6016TIP3   OH218011   6.956   5.322   1.303  0.1831 -0.6032 -0.0214
 6016TIP3    H118012   6.880   5.296   1.252 -0.0505  0.7160 -0.3964
 6016TIP3    H218013   7.023   5.344   1.238  0.1404  0.3427  0.2257
 6017TIP3   OH218014   2.534   4.784   4.360  0.1750  0.5154 -0.1784
 6017TIP3    H118015   2.553   4.707   4.413  1.2425  1.0773  0.2650
 6017TIP3    H218016   2.614   4.836   4.362 -0.6100  1.7707 -0.2621
 6018TIP3   OH218017   6.265   0.153   5.452  0.0738 -0.5156 -0.9106
 6018TIP3    H118018   6.315   0.088   5.403  1.8246 -0.2633  0.4761
 6018TIP3    H218019   6.268   0.123   5.543  1.7239  1.9083 -0.0678
 6019TIP3   OH218020   4.358   4.967   3.638 -0.4953  0.0239 -0.6379
 6019TIP3    H118021   4.267   4.940   3.644 -0.3454 -0.0613  2.1873
 6019TIP3    H218022   4.360   5.056   3.674  0.1192  1.3199 -3.5591
 6020TIP3   OH218023   1.737   2.764   4.941  0.0245  0.1690  0.2366
 6020TIP3    H118024   1.801   2.760   4.869 -0.8863  1.5030 -0.6992
 6020TIP3    H218025   1.761   2.691   4.998  1.7628  0.0274 -0.5936
 6021TIP3   OH218026   0.507   1.510   2.864  0.4828 -0.5210 -0.1629
 6021TIP3    H118027   0.521   1.565   2.941  0.6899 -0.8486  0.0363
 6021TIP3    H218028   0.431   1.456   2.887 -0.9666  0.9936 -1.0947
 6022TIP3   OH218029   2.857   1.194   2.401  0.1082 -0.2207  0.0309
 6022TIP3    H118030   2.842   1.258   2.332 -0.3431  1.5044  1.6526
 6022TIP3    H218031   2.791   1.127   2.387  1.0337 -0.7694 -2.1228
 6023TIP3   OH218032   0.852   6.083   4.011  0.1368  0.0018 -0.3763
 6023TIP3    H118033   0.841   6.038   4.095 -0.8761 -0.1390 -0.5634
 6023TIP3    H218034   0.812   6.024   3.947  0.7970  0.1594 -0.9414
 6024TIP3   OH218035   6.593   4.617   0.941 -0.3628  0.2521  0.3918
 6024TIP3    H118036   6.586   4.542   1.000  1.6092  0.7349  1.3194
 6024TIP3    H218037   6.547   4.590   0.862 -1.2905 -1.2091  1.3897
 6025TIP3   OH218038   2.542   1.071   1.584  0.0667  0.3451  0.6903
 6025TIP3    H118039   2.609   1.103   1.643  1.3461 -2.2370  0.7829
 6025TIP3    H218040   2.583   0.997   1.539 -2.1689 -0.2709 -0.4874
 6026TIP3   OH218041   7.133   5.184   0.172  0.3094  0.0186 -0.0062
 6026TIP3    H118042   7.092   5.173   0.258 -3.8594  0.6632 -1.6902
 6026TIP3    H218043   7.154   5.277   0.168 -0.5692  0.2200 -0.0875
 6027TIP3   OH218044   6.916   2.947   1.227 -0.1446 -0.0236  0.5839
 6027TIP3    H118045   6.919   2.862   1.182 -0.5284  0.9222 -1.3676
 6027TIP3    H218046   6.824   2.957   1.253 -0.0308 -0.3495  1.1119
 6028TIP3   OH218047   1.460   6.214   5.586 -0.1082  0.2679  0.3700
 6028TIP3    H118048   1.524   6.244   5.651  0.2351 -1.2777  0.7904
 6028TIP3    H218049   1.386   6.183   5.638 -0.9368  1.4332 -0.0943
 6029TIP3   OH218050   5.397   2.937   5.716 -0.3805  0.0169  0.1629
 6029TIP3    H118051   5.366   3.027   5.728  0.6866  0.9582 -2.9961
 6029TIP3    H218052   5.492   2.945   5.707 -0.4153 -1.0862 -1.9754
 6030TIP3   OH218053   0.990   4.256   1.267  0.1158 -0.2826  0.1694
 6030TIP3    H118054   1.027   4.255   1.355  0.1934  0.8505  0.1657
 6030TIP3    H218055   1.038   4.188   1.220  1.5872  0.5416  0.4172
 6031TIP3   OH218056   6.908   3.894   5.304 -0.1204 -0.7719  0.0416
 6031TIP3    H118057   6.928   3.899   5.398  0.6418 -2.2435 -0.0179
 6031TIP3    H218058   6.960   3.821   5.272 -0.5241 -0.4203 -1.5101
 6032TIP3   OH218059   3.512   5.168   2.820  0.0375 -0.4465 -0.6915
 6032TIP3    H118060   3.467   5.083   2.816 -0.5000 -0.1674 -0.6727
 6032TIP3    H218061   3.459   5.226   2.766 -0.2872  0.1899  0.2782
 6033TIP3   OH218062   1.013   3.500   3.469 -0.0134  0.1399  0.1115
 6033TIP3    H118063   0.934   3.527   3.516 -0.2138 -1.6132  0.8774
 6033TIP3    H218064   0.980   3.468   3.384 -0.5545 -2.8758  1.3081
 6034TIP3   OH218065   2.354   1.718   0.414 -0.2738 -0.0912  0.2725
 6034TIP3    H118066   2.321   1.737   0.327  1.4123 -0.4174 -0.4755
 6034TIP3    H218067   2.336   1.625   0.427  0.1413 -0.2179 -0.0437
 6035TIP3   OH218068   6.605   5.763   1.265  0.6382  0.2655 -0.9086
 6035TIP3    H118069   6.618   5.857   1.257 -0.5744  0.5579  0.2185
 6035TIP3    H218070   6.552   5.753   1.345  2.7661 -1.5306  0.3908
 6036TIP3   OH218071   6.444   3.887   1.277 -0.1790 -0.2718  0.3571
 6036TIP3    H118072   6.374   3.950   1.293  1.6211  1.6618  1.0861
 6036TIP3    H218073   6.409   3.829   1.209 -2.0489  1.2918 -0.1164
 6037TIP3   OH218074   3.615   4.902   3.580 -0.3493  0.5648  0.2416
 6037TIP3    H118075   3.563   4.970   3.538  0.2143  0.0894 -1.2775
 6037TIP3    H218076   3.699   4.944   3.599  0.0396  0.2988 -0.8006
 6038TIP3   OH218077   2.965   1.674   0.990  0.5659 -0.4790  0.0915
 6038TIP3    H118078   3.059   1.658   0.996  0.6139 -1.2971 -1.9866
 6038TIP3    H218079   2.925   1.589   1.004  0.1639 -0.2553  0.3186
 6039TIP3   OH218080   4.415   0.384   3.391  0.1952 -0.0933 -0.1432
 6039TIP3    H118081   4.361   0.382   3.471  0.4037 -2.2739 -0.0084
 6039TIP3    H218082   4.413   0.294   3.358  3.8577 -0.3641 -0.0409
 6040TIP3   OH218083   5.894   1.254   0.881  0.3491 -0.0271 -0.1899
 6040TIP3    H118084   5.822   1.309   0.851  0.5327  0.0731 -0.4444
 6040TIP3    H218085   5.874   1.167   0.847  0.6466  0.1217 -0.7597
 6041TIP3   OH218086   6.315   0.392   2.517  0.0217  0.3749  0.3263
 6041TIP3    H118087   6.310   0.297   2.509 -0.1458  0.4934 -1.3300
 6041TIP3    H218088   6.370   0.420   2.444  2.6652  1.3557  2.5184
 6042TIP3   OH218089   3.559   6.339   4.459  0.1380 -0.3354 -1.0392
 6042TIP3    H118090   3.612   6.275   4.412  1.8007 -1.4746  2.0895
 6042TIP3    H218091   3.622   6.405   4.490 -0.9826  0.7731 -1.0359
 6043TIP3   OH218092   3.884   2.120   0.886 -0.2220 -0.2962  0.4157
 6043TIP3    H118093   3.912   2.051   0.826 -0.1130 -1.2143  1.4910
 6043TIP3    H218094   3.914   2.201   0.845 -1.1694 -0.7838 -1.3449
 6044TIP3   OH218095   5.749   5.558   3.488  0.0936 -0.4500 -0.7356
 6044TIP3    H118096   5.697   5.636   3.467  1.2122  0.6689  0.4143
 6044TIP3    H218097   5.839   5.589   3.484  0.5063 -1.1482  1.6297
 6045TIP3   OH218098   2.153   2.928   4.563  0.0942  0.0429  0.3171
 6045TIP3    H118099   2.163   2.909   4.656  0.0451 -0.8060  0.1596
 6045TIP3    H218100   2.130   3.020   4.559  0.5395  0.1915  1.1204
 6046TIP3   OH218101   2.027   1.116   1.129  0.5676 -0.3142 -0.8111
 6046TIP3    H118102   1.936   1.089   1.121  0.5695 -0.1813 -1.3629
 6046TIP3    H218103   2.032   1.197   1.078  1.0092 -0.3601 -0.8451
 6047TIP3   OH218104   5.471   3.200   4.216  0.3910  0.0601 -0.3421
 6047TIP3    H118105   5.493   3.257   4.142 -0.4682  1.2571  0.2926
 6047TIP3    H218106   5.526   3.123   4.204 -0.8162 -0.4939 -3.1195
 6048TIP3   OH218107   1.299   4.412   3.538 -0.2452  0.4940 -0.5881
 6048TIP3    H118108   1.376   4.447   3.494 -0.8469  0.0316 -2.0870
 6048TIP3    H218109   1.225   4.449   3.489 -0.9414 -3.2965 -2.8266
 6049TIP3   OH218110   0.656   2.130   0.233 -0.3221 -0.1649 -0.7508
 6049TIP3    H118111   0.645   2.072   0.308  0.9189  0.7663  0.2020
 6049TIP3    H218112   0.608   2.209   0.258 -2.1564 -0.7997 -2.1128
 6050TIP3   OH218113   5.752   1.680   1.857 -0.4400 -0.5008  0.6031
 6050TIP3    H118114   5.782   1.677   1.947  0.1091 -0.5450  0.4242
 6050TIP3    H218115   5.657   1.685   1.863 -0.3963 -0.2948  1.1864
 6051TIP3   OH218116   3.085   0.650   5.670  0.4516 -0.0285  0.3023
 6051TIP3    H118117   3.000   0.609   5.690  0.4382 -0.3441 -0.3677
 6051TIP3    H218118   3.147   0.577   5.668  0.3739 -0.0979 -1.2198
 6052TIP3   OH218119   2.695   6.788   2.399  0.3621  0.0764  0.1701
 6052TIP3    H118120   2.634   6.715   2.405  1.4328 -0.8415  0.0911
 6052TIP3    H218121   2.660   6.842   2.328 -1.3522  0.5460  1.3177
 6053TIP3   OH218122   6.664   1.014   1.105 -0.6739 -0.2580 -0.7550
 6053TIP3    H118123   6.662   1.016   1.009 -1.9957 -1.1874 -0.7704
 6053TIP3    H218124   6.576   1.041   1.131 -0.0206  1.0099  0.2480
 6054TIP3   OH218125   3.969   0.661   2.347  0.5160 -0.1200  0.0018
 6054TIP3    H118126   3.911   0.714   2.401  0.0657  1.4246 -1.8954
 6054TIP3    H218127   3.939   0.571   2.361 -1.4191  0.5074  0.1580
 6055TIP3   OH218128   7.010   0.812   4.210  0.1293  0.2797  0.0680
 6055TIP3    H118129   7.077   0.837   4.273  1.7048 -0.3980 -1.2648
 6055TIP3    H218130   6.999   0.889   4.155 -1.5677  1.0275  1.3622
 6056TIP3   OH218131   2.805   4.448   0.238  0.1377 -0.6008 -0.1468
 6056TIP3    H118132   2.798   4.481   0.148  1.9113 -0.0653 -0.1240
 6056TIP3    H218133   2.868   4.507   0.280 -1.0780 -0.4855  1.6390
 6057TIP3   OH218134   6.785   3.810   4.719  0.1558 -0.4047 -0.2154
 6057TIP3    H118135   6.715   3.870   4.689 -0.5269 -2.5406 -3.4616
 6057TIP3    H218136   6.859   3.830   4.661  1.1610 -0.3901  1.0308
 6058TIP3   OH218137   2.322   2.297   4.445  0.3748 -0.4571  0.2935
 6058TIP3    H118138   2.305   2.259   4.531  0.6379 -1.0099  0.1112
 6058TIP3    H218139   2.397   2.247   4.411  1.7244  1.2276  0.6544
 6059TIP3   OH218140   4.752   5.338   2.315 -0.0216  0.0448  0.6015
 6059TIP3    H118141   4.730   5.250   2.345 -0.3188 -0.3026 -0.6001
 6059TIP3    H218142   4.753   5.332   2.220 -0.9321  1.5567  0.4617
 6060TIP3   OH218143   6.750   4.878   2.663 -0.0605 -0.4593 -0.2966
 6060TIP3    H118144   6.730   4.925   2.581  0.2225 -0.0552 -0.1409
 6060TIP3    H218145   6.724   4.939   2.732  0.0196 -0.6622 -0.0879
 6061TIP3   OH218146   4.455   4.272   2.718  0.2072 -0.0885 -0.2171
 6061TIP3    H118147   4.448   4.324   2.637  2.0514  2.3522  1.0594
 6061TIP3    H218148   4.369   4.281   2.759 -0.1220  0.3358 -0.9664
 6062TIP3   OH218149   0.061   1.509   2.781  0.1362  0.2021  0.0809
 6062TIP3    H118150   0.025   1.570   2.717  1.1590  0.7110 -0.0274
 6062TIP3    H218151   0.156   1.516   2.771  0.2909 -0.7431  0.6926
 6063TIP3   OH218152   2.326   1.149   3.806  0.1722 -0.3507  0.5837
 6063TIP3    H118153   2.249   1.115   3.851  0.3706 -0.2560  1.0077
 6063TIP3    H218154   2.357   1.220   3.862  0.3628 -0.1574  0.2384
 6064TIP3   OH218155   4.685   1.371   0.053 -0.0368  0.5049  0.0488
 6064TIP3    H118156   4.778   1.352   0.038 -0.2940  0.3252 -1.5234
 6064TIP3    H218157   4.659   1.423  -0.023 -1.5543 -0.6149 -0.2425
 6065TIP3   OH218158   6.358   4.152   4.365 -0.2838 -0.1237  0.3238
 6065TIP3    H118159   6.403   4.071   4.390  0.2941  0.6684  2.0268
 6065TIP3    H218160   6.366   4.156   4.270  1.9382 -0.7858  0.4290
 6066TIP3   OH218161   1.262   0.475   5.612  0.3650 -0.0606 -0.6470
 6066TIP3    H118162   1.278   0.423   5.534 -2.0050 -0.9268 -0.6263
 6066TIP3    H218163   1.255   0.565   5.579 -0.8543 -0.4446 -1.4989
 6067TIP3   OH218164   3.275   1.007   2.763 -0.9092  0.0522 -0.8582
 6067TIP3    H118165   3.207   0.970   2.819 -0.5723 -1.1684 -1.2304
 6067TIP3    H218166   3.292   1.094   2.800 -2.5297  0.3191 -0.6545
 6068TIP3   OH218167   1.627   2.335   3.526  0.0505 -0.3832 -0.7198
 6068TIP3    H118168   1.649   2.248   3.559  0.9512 -0.1268 -0.6180
 6068TIP3    H218169   1.533   2.342   3.538  0.2495 -0.5613  1.2155
 6069TIP3   OH218170   3.985   6.540   1.523  0.0149  0.6765  0.0220
 6069TIP3    H118171   4.069   6.582   1.503  0.5934 -0.2899  0.3842
 6069TIP3    H218172   3.922   6.612   1.522  0.7305  1.3191 -0.9339
 6070TIP3   OH218173   5.171   3.528   5.636 -0.1570 -0.1412 -0.3356
 6070TIP3    H118174   5.231   3.594   5.601  0.9909 -1.8417 -1.7869
 6070TIP3    H218175   5.092   3.538   5.583  0.7100 -1.1250 -1.8930
 6071TIP3   OH218176   5.509   3.256   3.459 -0.6508  0.1645  0.8050
 6071TIP3    H118177   5.434   3.238   3.402  0.5083  0.6575 -0.9582
 6071TIP3    H218178   5.547   3.170   3.478 -0.7615  0.0299  0.4139
 6072TIP3   OH218179   7.072   5.588   2.613 -0.7851 -0.2245  0.7396
 6072TIP3    H118180   7.139   5.656   2.627 -0.9888 -0.1853  1.6343
 6072TIP3    H218181   7.084   5.561   2.522  0.1113  0.1449  0.7304
 6073TIP3   OH218182   3.877   0.566   0.422  0.2915  0.2308 -0.1970
 6073TIP3    H118183   3.826   0.634   0.467  0.2033  0.9699 -1.3632
 6073TIP3    H218184   3.825   0.545   0.344  1.7544  1.0622 -1.4618
 6074TIP3   OH218185   0.439   6.229   1.759  0.0043  0.2714 -0.2119
 6074TIP3    H118186   0.351   6.265   1.753 -0.3430 -0.3120  1.0858
 6074TIP3    H218187   0.429   6.137   1.736  0.3684  0.3094 -0.5407
 6075TIP3   OH218188   0.980   4.414   2.615 -0.4245 -0.2025 -0.3258
 6075TIP3    H118189   0.916   4.388   2.549 -1.0307  0.7732 -0.1401
 6075TIP3    H218190   1.026   4.489   2.577 -0.1309 -0.2256 -0.0250
 6076TIP3   OH218191   0.788   3.844   1.082 -0.0140 -0.0332 -0.4130
 6076TIP3    H118192   0.791   3.854   0.987  0.7281  0.1685 -0.3744
 6076TIP3    H218193   0.783   3.750   1.097 -0.9632 -0.0289 -0.6643
 6077TIP3   OH218194   4.094   2.039   1.387  0.1034  0.2014  0.1830
 6077TIP3    H118195   4.035   2.070   1.456  0.3012  0.1862  0.3590
 6077TIP3    H218196   4.075   2.096   1.312 -1.8918 -1.3622 -0.5871
 6078TIP3   OH218197   2.544   2.607   1.755 -0.2785 -0.3162 -0.0766
 6078TIP3    H118198   2.470   2.546   1.746  1.1586 -2.3868  1.3691
 6078TIP3    H218199   2.593   2.597   1.673 -0.4715 -0.5134 -0.1686
 6079TIP3   OH218200   6.194   0.659   5.336 -0.2167 -0.5755 -0.0414
 6079TIP3    H118201   6.212   0.610   5.416 -0.6568  0.9715  1.0593
 6079TIP3    H218202   6.208   0.750   5.361  0.0601 -0.0913 -1.8674
 6080TIP3   OH218203   3.511   6.784   3.099  0.0769  0.7531  0.2768
 6080TIP3    H118204   3.524   6.834   3.018  0.4606 -0.1516 -0.2491
 6080TIP3    H218205   3.512   6.692   3.070  1.1184  0.3787  1.4227
 6081TIP3   OH218206   0.596   4.617   4.910  0.6610 -0.0647 -0.1636
 6081TIP3    H118207   0.577   4.592   4.819  0.6116  0.0288 -0.1788
 6081TIP3    H218208   0.691   4.623   4.914  0.6041  1.3496 -0.5829
 6082TIP3   OH218209   1.823   4.235   3.994 -0.1183 -0.0456  0.5130
 6082TIP3    H118210   1.900   4.184   4.022 -0.7382 -0.7988  0.8777
 6082TIP3    H218211   1.799   4.198   3.909  2.3541  2.8851 -1.6630
 6083TIP3   OH218212   7.185   0.540   3.842  0.8466  0.2920  0.7999
 6083TIP3    H118213   7.175   0.454   3.883 -0.3687 -0.3434 -0.7256
 6083TIP3    H218214   7.167   0.525   3.750 -1.7047  2.5749  0.8010
 6084TIP3   OH218215   5.267   5.067   0.871  0.1159 -0.4480 -0.0598
 6084TIP3    H118216   5.355   5.029   0.865 -0.3330 -1.3332 -2.4957
 6084TIP3    H218217   5.211   5.001   0.830 -1.4758  0.6918  0.2273
 6085TIP3   OH218218   1.545   5.500   4.518 -0.1934 -0.6571  0.6017
 6085TIP3    H118219   1.639   5.497   4.502  0.2997  4.0515  1.3946
 6085TIP3    H218220   1.506   5.496   4.431  1.0062  0.6790 -0.0386
 6086TIP3   OH218221   2.038   5.449   5.797  0.2163 -0.1059 -0.1198
 6086TIP3    H118222   2.067   5.364   5.764 -0.1279  0.1573 -1.1178
 6086TIP3    H218223   2.118   5.492   5.826  0.3864 -0.7893  0.4526
 6087TIP3   OH218224   2.820   6.477   3.209 -0.0518 -0.2238  0.2980
 6087TIP3    H118225   2.846   6.459   3.119  0.4278 -1.9298  0.7356
 6087TIP3    H218226   2.724   6.477   3.207 -0.0433 -0.3913 -0.1883
 6088TIP3   OH218227   4.804   4.082   3.580 -1.0969  0.0318  0.2567
 6088TIP3    H118228   4.750   4.072   3.501  0.0297  2.8313 -1.0111
 6088TIP3    H218229   4.889   4.110   3.548 -0.0844 -0.3482  2.4175
 6089TIP3   OH218230   2.771   0.541   3.710 -0.2685  0.2561 -0.1826
 6089TIP3    H118231   2.832   0.528   3.784 -1.5433 -0.4455  0.7931
 6089TIP3    H218232   2.738   0.453   3.692 -3.2118  0.9206  1.3165
 6090TIP3   OH218233   2.176   1.385   3.606 -0.1938 -0.0368  0.0932
 6090TIP3    H118234   2.213   1.303   3.639  0.3197  1.1741  2.8516
 6090TIP3    H218235   2.250   1.428   3.563  0.2572  0.1035  0.9825
 6091TIP3   OH218236   5.499   0.607   1.453  0.4993 -0.3322  0.7198
 6091TIP3    H118237   5.562   0.673   1.480  2.1650 -1.0374 -1.2053
 6091TIP3    H218238   5.483   0.625   1.360 -0.2624 -1.6342  0.5604
 6092TIP3   OH218239   5.724  -0.002   5.047 -0.4035 -0.5503  0.0313
 6092TIP3    H118240   5.706   0.007   4.953 -0.2445 -1.8101 -0.1342
 6092TIP3    H218241   5.653   0.046   5.089 -0.3467  0.2259 -0.7382
 6093TIP3   OH218242   5.776   4.905   4.261 -0.6077 -0.1183 -0.4244
 6093TIP3    H118243   5.770   4.824   4.311 -2.4132  1.0961  1.5321
 6093TIP3    H218244   5.868   4.929   4.264 -0.1292 -1.8138 -0.6368
 6094TIP3   OH218245   4.598   5.583   3.507  0.1929 -0.6440  0.1444
 6094TIP3    H118246   4.614   5.649   3.574 -1.2928  0.7640 -0.8221
 6094TIP3    H218247   4.541   5.626   3.443  0.1494 -2.4852 -1.1486
 6095TIP3   OH218248   0.865   5.587   3.492  0.2444  0.1412 -0.0382
 6095TIP3    H118249   0.821   5.516   3.444  1.0274  0.7952 -1.8228
 6095TIP3    H218250   0.810   5.602   3.568 -2.2477  0.4155 -1.7722
 6096TIP3   OH218251   6.982   5.847   4.500  0.1110 -0.3666 -0.4167
 6096TIP3    H118252   7.063   5.855   4.449 -0.1993 -0.0725 -0.8711
 6096TIP3    H218253   6.934   5.775   4.458  0.3263 -0.8350  0.1230
 6097TIP3   OH218254   2.311   5.888   0.694 -0.8186  0.1697 -0.0894
 6097TIP3    H118255   2.247   5.948   0.656 -0.9902  1.0043  1.4259
 6097TIP3    H218256   2.261   5.836   0.758 -0.2260  0.0047  0.2499
 6098TIP3   OH218257   4.716   6.641   4.192  0.0897 -0.0298  0.0806
 6098TIP3    H118258   4.767   6.694   4.130  0.5030  0.5337  0.8847
 6098TIP3    H218259   4.769   6.564   4.209 -1.1524 -1.4989 -2.2296
 6099TIP3   OH218260   6.265   6.766   2.832 -1.0148 -0.0521  0.5022
 6099TIP3    H118261   6.346   6.805   2.799 -1.5104  0.2901 -0.3279
 6099TIP3    H218262   6.207   6.762   2.756 -2.0954  0.5099  1.2798
 6100TIP3   OH218263   1.667   3.334   5.172  0.6717  0.4527 -0.2256
 6100TIP3    H118264   1.759   3.355   5.185  0.4172  1.8649 -0.4369
 6100TIP3    H218265   1.666   3.276   5.096  1.2881  1.8989 -1.3970
 6101TIP3   OH218266   1.039   4.791   3.159  0.1776  0.5164 -0.3422
 6101TIP3    H118267   1.036   4.862   3.223  2.2076 -0.2846  0.7525
 6101TIP3    H218268   1.133   4.778   3.142 -0.2334 -0.5284 -2.0922
 6102TIP3   OH218269   1.308   2.491   4.261 -0.3630 -0.0402  0.1549
 6102TIP3    H118270   1.308   2.422   4.194 -0.8956 -0.9584  1.0846
 6102TIP3    H218271   1.366   2.559   4.225  0.4919 -1.1363 -0.6015
 6103TIP3   OH218272   3.156   0.864   4.402 -0.0367  0.6904  0.0263
 6103TIP3    H118273   3.091   0.847   4.471  0.2719 -1.4576 -0.1504
 6103TIP3    H218274   3.188   0.952   4.421 -1.6174  1.0515  1.2529
 6104TIP3   OH218275   2.575   1.774   3.260  0.0791  0.3511 -0.0613
 6104TIP3    H118276   2.496   1.731   3.226  0.1452  0.1371  0.0539
 6104TIP3    H218277   2.597   1.839   3.193 -0.4865  0.7642  0.1486
 6105TIP3   OH218278   0.444   1.196   1.404 -0.1483 -0.0558  0.3294
 6105TIP3    H118279   0.520   1.204   1.347  0.6616 -1.8500  1.0649
 6105TIP3    H218280   0.369   1.198   1.345  0.5289  0.6425 -0.5266
 6106TIP3   OH218281   5.428   2.287   5.323  0.6608  0.3302  0.0505
 6106TIP3    H118282   5.449   2.361   5.267  2.3351  1.4037  1.9762
 6106TIP3    H218283   5.499   2.224   5.307 -0.5503 -0.7732 -1.2949
 6107TIP3   OH218284   5.097   3.000   1.400  0.2733 -0.2511 -0.3272
 6107TIP3    H118285   5.112   3.086   1.439 -2.3182 -0.1268  0.6081
 6107TIP3    H218286   5.026   3.014   1.338 -0.5891 -1.7837  0.2564
 6108TIP3   OH218287   6.943   5.057   5.357  0.1294 -0.5482  0.1050
 6108TIP3    H118288   6.984   4.971   5.364  0.5545 -0.2502  1.7162
 6108TIP3    H218289   7.013   5.119   5.375 -0.5841  0.0487  0.8906
 6109TIP3   OH218290   3.942   4.816   2.939  0.4611 -0.3945 -0.1104
 6109TIP3    H118291   4.036   4.828   2.955  0.0828  4.3966 -0.2575
 6109TIP3    H218292   3.900   4.844   3.020 -0.9095  0.2618 -1.0244
 6110TIP3   OH218293   6.751   0.077   3.120 -0.1336 -0.2607 -0.2976
 6110TIP3    H118294   6.673   0.030   3.150 -1.2008  1.1951 -0.7270
 6110TIP3    H218295   6.719   0.160   3.087  1.6036  0.3564 -0.5596
 6111TIP3   OH218296   2.698   1.931   3.871  0.0992 -0.0541  0.3614
 6111TIP3    H118297   2.737   1.848   3.843  2.1665  0.4122  1.6793
 6111TIP3    H218298   2.659   1.967   3.791 -0.4748 -2.0578 -0.3253
 6112TIP3   OH218299   7.079   0.360   1.453  0.3978  0.6242 -0.0399
 6112TIP3    H118300   7.135   0.282   1.448 -0.0096  0.2629  0.8991
 6112TIP3    H218301   7.119   0.414   1.521  0.4946  1.0910 -0.4648
 6113TIP3   OH218302   3.386   6.177   2.333  0.1226 -0.1709 -0.0192
 6113TIP3    H118303   3.319   6.155   2.269  1.3441 -1.5694 -0.8773
 6113TIP3    H218304   3.453   6.110   2.323  1.4836  0.9316  1.0811
 6114TIP3   OH218305   0.553   1.593   3.611  0.1109  0.0442  0.2316
 6114TIP3    H118306   0.642   1.559   3.611  0.3969  0.7727  0.7439
 6114TIP3    H218307   0.563   1.688   3.609 -0.6490  0.1470  0.6967
 6115TIP3   OH218308   2.063   5.165   2.020  0.1128 -0.3956 -0.4213
 6115TIP3    H118309   2.101   5.139   1.936  1.3562  1.9816 -0.6557
 6115TIP3    H218310   1.968   5.159   2.006  0.3092 -2.0358 -1.2836
 6116TIP3   OH218311   6.735   4.591   2.665 -0.1074  0.5037  0.0432
 6116TIP3    H118312   6.671   4.540   2.616  0.8595 -1.3578  0.6157
 6116TIP3    H218313   6.706   4.681   2.655 -1.4696 -0.0605 -1.6515
 6117TIP3   OH218314   1.399   4.426   4.428  0.2538 -0.2542 -1.1192
 6117TIP3    H118315   1.343   4.440   4.503  0.0126 -2.0918 -0.9027
 6117TIP3    H218316   1.376   4.496   4.367  1.4367  2.1270  1.0033
 6118TIP3   OH218317   3.971   5.945   4.204  0.4626  0.0136  0.2040
 6118TIP3    H118318   3.942   5.874   4.147  1.0545 -0.6151  0.6581
 6118TIP3    H218319   3.948   5.916   4.292 -0.9861  1.2485  0.2653
 6119TIP3   OH218320   6.460   6.404   1.467  0.3970  0.4990 -0.5952
 6119TIP3    H118321   6.544   6.446   1.487  0.2072 -0.0444  1.6559
 6119TIP3    H218322   6.400   6.440   1.533 -0.7798 -0.1980 -1.2639
 6120TIP3   OH218323   6.357   3.935   0.824 -0.3517 -0.1970  0.7430
 6120TIP3    H118324   6.378   4.021   0.860  0.8121 -0.8357  1.6455
 6120TIP3    H218325   6.359   3.876   0.899  2.8362 -1.6985 -0.3200
 6121TIP3   OH218326   0.775   1.477   0.608 -0.1342 -0.5816  0.2289
 6121TIP3    H118327   0.683   1.448   0.607 -0.1492 -0.6091  1.3374
 6121TIP3    H218328   0.797   1.482   0.701  0.9869 -0.5474 -0.0332
 6122TIP3   OH218329   2.280   5.201   2.463  0.5056  0.0800  0.3128
 6122TIP3    H118330   2.375   5.190   2.454  0.3963 -1.0985  0.4172
 6122TIP3    H218331   2.254   5.133   2.525 -0.9041 -2.1423 -2.4922
 6123TIP3   OH218332   3.928   2.971   4.316 -0.1747  0.3759 -0.4071
 6123TIP3    H118333   3.924   2.958   4.221  0.5453 -0.7624 -0.3138
 6123TIP3    H218334   3.915   2.883   4.352 -0.3064  0.7741  0.5473
 6124TIP3   OH218335   0.253   5.957   0.913  0.4654 -0.0662  0.1820
 6124TIP3    H118336   0.176   6.010   0.892 -0.4578 -0.7620  1.6184
 6124TIP3    H218337   0.264   5.968   1.008  0.7336 -1.7783  0.3811
 6125TIP3   OH218338   0.499   4.293   5.645  0.3596  0.9214  0.1747
 6125TIP3    H118339   0.543   4.261   5.566 -0.3095  2.1569 -0.7337
 6125TIP3    H218340   0.435   4.357   5.613  0.6936  2.1262  1.7848
 6126TIP3   OH218341   3.443   2.576   4.172 -0.3804  0.3932  0.1107
 6126TIP3    H118342   3.531   2.576   4.135 -0.2315 -1.0045  0.4010
 6126TIP3    H218343   3.401   2.498   4.135 -1.4626  0.9736  0.0663
 6127TIP3   OH218344   5.651   1.911   2.573  0.1937 -0.4414 -0.2815
 6127TIP3    H118345   5.669   1.851   2.645 -1.2272 -0.2888  0.2318
 6127TIP3    H218346   5.738   1.934   2.539  0.7902 -2.7640 -0.5186
 6128TIP3   OH218347   1.904   1.401   0.041  0.0361 -0.5709 -0.3883
 6128TIP3    H118348   1.842   1.350   0.094  0.0302 -0.3872 -0.2152
 6128TIP3    H218349   1.940   1.465   0.103 -1.0219  0.5844 -0.9304
 6129TIP3   OH218350   5.868   4.366   4.340 -0.3220  0.0482 -0.1460
 6129TIP3    H118351   5.948   4.312   4.333  0.3445  0.9948 -0.0547
 6129TIP3    H218352   5.798   4.303   4.357  0.5613 -0.7285  0.7953
 6130TIP3   OH218353   5.814   0.475   2.068  0.1992  0.0671 -0.0721
 6130TIP3    H118354   5.873   0.528   2.121  0.9363 -0.7188 -0.0931
 6130TIP3    H218355   5.845   0.386   2.079  0.3013 -0.1448 -1.7018
 6131TIP3   OH218356   2.810   6.111   3.231 -0.6502 -0.0438  0.0938
 6131TIP3    H118357   2.823   6.129   3.324  0.4495  1.7715 -0.3675
 6131TIP3    H218358   2.715   6.098   3.222 -0.8118  0.1107  1.3840
 6132TIP3   OH218359   7.106   6.683   1.421  0.1163  0.7508  0.1870
 6132TIP3    H118360   7.166   6.741   1.373 -0.5593  1.9343  0.7314
 6132TIP3    H218361   7.025   6.684   1.370  0.2550 -0.1416 -0.0726
 6133TIP3   OH218362   6.584   6.016   5.471  0.2725 -0.3009  0.4287
 6133TIP3    H118363   6.610   6.050   5.557  0.4645  1.8423 -0.4112
 6133TIP3    H218364   6.578   6.094   5.415 -0.5282 -1.5591 -1.3397
 6134TIP3   OH218365   2.960   5.048   4.548 -0.3506 -0.5419 -0.0904
 6134TIP3    H118366   3.050   5.077   4.563 -0.5375  0.7643 -1.2804
 6134TIP3    H218367   2.969   4.966   4.500  0.2135 -0.4195 -0.2019
 6135TIP3   OH218368   5.091   1.479   0.198  0.4388  0.2394  0.2291
 6135TIP3    H118369   5.178   1.495   0.161  1.0257  0.9774  1.8551
 6135TIP3    H218370   5.044   1.561   0.183  0.1675  0.0076 -0.2163
 6136TIP3   OH218371   4.813   1.552   2.878 -0.0727 -0.7927 -0.0751
 6136TIP3    H118372   4.893   1.599   2.856 -0.3145 -0.5456 -0.4381
 6136TIP3    H218373   4.777   1.525   2.794  0.0249 -1.5708  0.1234
 6137TIP3   OH218374   1.196   5.767   0.385 -0.2630 -0.0169  0.2661
 6137TIP3    H118375   1.283   5.799   0.363 -1.0957  1.3855 -1.2312
 6137TIP3    H218376   1.161   5.734   0.302 -0.9584 -1.0744  0.9611
 6138TIP3   OH218377   2.829   5.051   2.090 -0.3397  0.0310  0.7819
 6138TIP3    H118378   2.884   5.077   2.016  0.8583  0.9370  1.9286
 6138TIP3    H218379   2.744   5.091   2.073 -0.3183 -0.4265 -0.4640
 6139TIP3   OH218380   4.947   5.594   4.193 -0.1996  0.2312 -0.2411
 6139TIP3    H118381   4.879   5.553   4.139 -0.1645 -2.1857  1.3957
 6139TIP3    H218382   4.903   5.613   4.276  0.8028 -0.1889  0.4036
 6140TIP3   OH218383   7.147   2.747   3.519  0.3990  0.0346 -0.0964
 6140TIP3    H118384   7.128   2.669   3.571  0.0360 -0.5916 -1.1278
 6140TIP3    H218385   7.068   2.801   3.527  0.9507  0.6828  1.2490
 6141TIP3   OH218386   1.501   4.942   0.638  0.5960  0.2435  0.5890
 6141TIP3    H118387   1.449   5.004   0.689 -0.6689 -1.8532  2.0058
 6141TIP3    H218388   1.451   4.930   0.557 -0.0467 -0.1694  1.0373
 6142TIP3   OH218389   0.860   3.618   0.486  0.0486  0.1369  0.4053
 6142TIP3    H118390   0.777   3.656   0.459 -0.6447 -0.9617  0.9045
 6142TIP3    H218391   0.855   3.526   0.459  1.2948  0.1487  0.0404
 6143TIP3   OH218392   4.839   4.505   0.739 -0.1624  0.0399 -0.3772
 6143TIP3    H118393   4.851   4.577   0.677  1.8867  0.6879  0.6867
 6143TIP3    H218394   4.892   4.434   0.705  2.0249  0.8198  1.1701
 6144TIP3   OH218395   1.417   6.090   3.250 -0.4397  0.3705 -0.2150
 6144TIP3    H118396   1.469   6.075   3.171  1.5417 -3.9883  1.5398
 6144TIP3    H218397   1.328   6.063   3.226 -0.0530 -0.0852 -1.1778
 6145TIP3   OH218398   4.056   5.556   0.104 -0.2563 -0.2140 -0.2546
 6145TIP3    H118399   3.998   5.623   0.068 -0.8998  0.0828  1.2703
 6145TIP3    H218400   4.093   5.513   0.026 -1.3074  0.6178 -1.2626
 6146TIP3   OH218401   3.265   5.513   1.524 -0.5548  0.8787  0.0129
 6146TIP3    H118402   3.324   5.537   1.595 -1.4244 -0.1104  1.1190
 6146TIP3    H218403   3.319   5.463   1.463 -0.1435  0.3914  0.7687
 6147TIP3   OH218404   3.998   6.533   2.813 -0.1768 -0.2223 -0.1310
 6147TIP3    H118405   4.068   6.531   2.878 -0.1492  0.6785 -0.1188
 6147TIP3    H218406   3.919   6.552   2.864 -0.5813 -1.9827 -0.0390
 6148TIP3   OH218407   2.944   3.875   1.711  0.5024 -0.0291 -0.7826
 6148TIP3    H118408   2.986   3.796   1.745 -0.2813 -0.6402 -1.2170
 6148TIP3    H218409   2.852   3.851   1.700  0.0358  1.2425  0.0272
 6149TIP3   OH218410   5.226   6.777   3.545 -0.3005  0.2170  0.0424
 6149TIP3    H118411   5.281   6.837   3.595  1.1918 -0.4227 -0.7402
 6149TIP3    H218412   5.146   6.767   3.597  0.6021  0.6634  1.5780
 6150TIP3   OH218413   1.238   2.601   3.471  0.2202 -0.6401  0.0914
 6150TIP3    H118414   1.317   2.647   3.441  1.2117 -0.8535  2.1843
 6150TIP3    H218415   1.264   2.509   3.476 -1.1281 -1.2092 -2.0803
 6151TIP3   OH218416   2.806   6.531   2.629 -0.5381 -0.3418 -0.0697
 6151TIP3    H118417   2.785   6.553   2.720 -1.1853 -1.5848  0.1049
 6151TIP3    H218418   2.842   6.612   2.592 -2.0505  0.7382  0.7359
 6152TIP3   OH218419   5.297   3.487   3.206  0.1650  0.0088 -0.3805
 6152TIP3    H118420   5.330   3.563   3.158  1.4690  0.0765  0.5738
 6152TIP3    H218421   5.292   3.516   3.297 -3.1008  0.1648 -0.4875
 6153TIP3   OH218422   3.644   5.203   4.179  0.6616 -0.1334 -0.1579
 6153TIP3    H118423   3.551   5.188   4.196  0.5566  1.1154  0.4612
 6153TIP3    H218424   3.688   5.176   4.259  0.7437  0.0934 -0.1248
 6154TIP3   OH218425   2.054   5.211  -0.013  0.6487  0.8734  0.2294
 6154TIP3    H118426   1.965   5.245  -0.004  0.6409  0.9116  0.0330
 6154TIP3    H218427   2.088   5.207   0.076  0.8943  2.0614  0.2128
 6155TIP3   OH218428   3.911   6.220   4.297  0.2887  0.4808  0.0452
 6155TIP3    H118429   3.935   6.150   4.237  0.7214  0.8710 -0.2501
 6155TIP3    H218430   3.853   6.277   4.246  1.5431  1.4204 -0.4032
 6156TIP3   OH218431   2.325   5.827   5.308  0.3397 -0.5275  0.5822
 6156TIP3    H118432   2.243   5.783   5.328 -0.2391 -0.3061 -1.1431
 6156TIP3    H218433   2.390   5.757   5.306 -0.3033 -1.1202 -0.6478
 6157TIP3   OH218434   3.393   4.008   4.410 -0.3572  0.0018  0.0281
 6157TIP3    H118435   3.402   4.029   4.317 -1.2306  2.1458  0.3834
 6157TIP3    H218436   3.474   4.040   4.449  0.3699 -1.6175 -0.0502
 6158TIP3   OH218437   6.890   5.805   2.433  1.4615 -0.2071 -0.2995
 6158TIP3    H118438   6.924   5.875   2.488  1.4692 -0.2201 -0.2878
 6158TIP3    H218439   6.962   5.782   2.374  1.4494 -0.1851 -0.3231
 6159TIP3   OH218440   0.403   1.076   2.501 -0.2500 -0.0424  0.0505
 6159TIP3    H118441   0.432   0.988   2.478 -0.6200 -0.0643 -0.3403
 6159TIP3    H218442   0.461   1.102   2.573 -0.7254 -0.9514  0.7801
 6160TIP3   OH218443   5.076   3.884   2.814 -0.2077 -0.3583 -0.0988
 6160TIP3    H118444   5.150   3.871   2.753  0.5625 -1.2409  0.9928
 6160TIP3    H218445   5.102   3.837   2.893 -1.6159 -0.0117  0.5869
 6161TIP3   OH218446   0.909   3.099   5.033 -0.3963  0.3963 -0.6025
 6161TIP3    H118447   0.925   3.033   4.966 -1.0021  0.5733 -0.9288
 6161TIP3    H218448   0.878   3.050   5.110 -0.1124  0.2328 -0.5933
 6162TIP3   OH218449   6.866   1.918   4.986 -0.4296  0.1641 -0.2760
 6162TIP3    H118450   6.898   1.909   4.896  0.1566  0.6890 -0.1265
 6162TIP3    H218451   6.945   1.926   5.039 -0.7903  0.8412  0.1768
 6163TIP3   OH218452   4.652   0.544   0.316 -0.5422 -0.6864 -0.0550
 6163TIP3    H118453   4.737   0.551   0.361 -0.6752 -2.7158  0.5875
 6163TIP3    H218454   4.673   0.557   0.224  0.2128  0.3434  0.2361
 6164TIP3   OH218455   0.590   1.369   5.717 -0.2363  0.3652 -0.4836
 6164TIP3    H118456   0.629   1.317   5.647  0.1993  0.1725 -0.1026
 6164TIP3    H218457   0.524   1.421   5.673 -0.0960  0.1115 -1.0122
 6165TIP3   OH218458   5.338   2.174   4.121  0.1259  0.2280  0.6000
 6165TIP3    H118459   5.249   2.192   4.150 -0.1945  0.0126 -0.2004
 6165TIP3    H218460   5.380   2.130   4.194 -0.8488 -0.8895  0.5116
 6166TIP3   OH218461   0.939   5.167   1.774 -0.1654 -0.1782  0.2415
 6166TIP3    H118462   1.016   5.190   1.721  0.5789  0.8162  1.6738
 6166TIP3    H218463   0.963   5.193   1.863 -1.0656 -2.4738  1.2355
 6167TIP3   OH218464   3.636   6.513   3.869 -0.2023  0.7419  0.2757
 6167TIP3    H118465   3.678   6.450   3.810 -2.0036  0.5159 -0.8453
 6167TIP3    H218466   3.675   6.496   3.954  1.1619 -0.1804 -0.5012
 6168TIP3   OH218467   0.602   0.877   4.497 -0.1164  0.1846 -0.0010
 6168TIP3    H118468   0.646   0.885   4.582 -1.4259  0.0546  0.7087
 6168TIP3    H218469   0.594   0.782   4.483 -0.5960  0.2051  0.1123
 6169TIP3   OH218470   2.083   1.646   3.861 -0.4946  0.0980 -0.2098
 6169TIP3    H118471   2.167   1.687   3.882  0.5891 -1.6664 -0.8818
 6169TIP3    H218472   2.019   1.716   3.874  0.9310  1.2143  1.3375
 6170TIP3   OH218473   0.218   4.593   5.249  0.6441  0.6769  0.3265
 6170TIP3    H118474   0.259   4.651   5.185 -1.5819 -0.4921 -2.3527
 6170TIP3    H218475   0.125   4.599   5.232  0.0352 -0.6672  2.6906
 6171TIP3   OH218476   4.946   6.724   5.653 -0.4499 -0.4081  0.0739
 6171TIP3    H118477   4.939   6.665   5.577  1.5222 -1.9399  0.9666
 6171TIP3    H218478   4.868   6.707   5.705 -0.3233 -1.6445 -0.1154
 6172TIP3   OH218479   1.513   3.435   0.556  0.1180  0.0325 -0.8134
 6172TIP3    H118480   1.587   3.449   0.615 -1.4831 -1.2633  1.6874
 6172TIP3    H218481   1.436   3.435   0.614 -1.4627 -2.7302 -2.6866
 6173TIP3   OH218482   3.790   5.243   0.239  0.3263  0.2542  0.6024
 6173TIP3    H118483   3.825   5.188   0.168  0.1478  1.2549 -0.2916
 6173TIP3    H218484   3.700   5.262   0.213  0.1069  0.2488  1.3410
 6174TIP3   OH218485   4.452   5.214   5.585  0.0348 -0.4618  0.3653
 6174TIP3    H118486   4.523   5.273   5.608 -0.2396 -0.3236  0.8606
 6174TIP3    H218487   4.393   5.268   5.532 -0.0376 -0.3911  0.5182
 6175TIP3   OH218488   2.610   5.802   4.954  0.0382  0.0702  0.9305
 6175TIP3    H118489   2.537   5.862   4.944  0.6239  1.0614  2.3323
 6175TIP3    H218490   2.571   5.715   4.949 -1.4249  0.5679  2.8156
 6176TIP3   OH218491   1.959   2.302   3.706 -0.3457 -0.3744 -0.3400
 6176TIP3    H118492   1.927   2.264   3.787 -1.4272  1.0087 -0.0730
 6176TIP3    H218493   1.899   2.375   3.688  1.2978  0.8673 -1.0864
 6177TIP3   OH218494   3.614   4.447   1.673 -0.4082  0.1349 -0.7120
 6177TIP3    H118495   3.592   4.430   1.764  0.0864 -0.8991 -0.7623
 6177TIP3    H218496   3.604   4.362   1.630  0.9428  0.2222 -1.2726
 6178TIP3   OH218497   6.713   1.366   4.839 -0.6226 -0.2229  0.0975
 6178TIP3    H118498   6.635   1.312   4.856 -0.9734  0.1276 -0.3627
 6178TIP3    H218499   6.782   1.325   4.890 -1.0531 -0.6942  0.3117
 6179TIP3   OH218500   0.508   2.682   0.412  0.2396  0.2781  0.7925
 6179TIP3    H118501   0.482   2.724   0.494 -1.1817 -0.1425  0.6016
 6179TIP3    H218502   0.474   2.741   0.344 -1.1346 -0.7627  0.5273
 6180TIP3   OH218503   1.376   3.725   4.107  0.6541  0.2614  0.1515
 6180TIP3    H118504   1.403   3.787   4.040  2.8795 -1.1540 -0.3608
 6180TIP3    H218505   1.406   3.640   4.075  1.0519 -0.5758  2.5314
 6181TIP3   OH218506   7.179   2.959   4.314 -0.1019 -0.4565 -0.2482
 6181TIP3    H118507   7.229   2.883   4.284 -1.7084 -1.1125 -1.4472
 6181TIP3    H218508   7.150   3.001   4.233 -0.6069  0.4845  0.4094
 6182TIP3   OH218509   2.186   0.143   2.024  0.8770 -0.1058 -0.0965
 6182TIP3    H118510   2.114   0.172   1.968  0.5618  1.5501  1.0610
 6182TIP3    H218511   2.147   0.138   2.112  1.7769 -0.8695  0.2713
 6183TIP3   OH218512   2.942   1.925   4.853 -0.1418  0.0241 -0.0548
 6183TIP3    H118513   3.027   1.895   4.822  0.4544 -0.0049  1.5389
 6183TIP3    H218514   2.961   1.990   4.920 -1.3602 -0.4813  0.8216
 6184TIP3   OH218515   3.711   2.831   2.023  0.0947  0.1694  0.2154
 6184TIP3    H118516   3.767   2.795   2.092  0.7068 -0.8272 -0.7838
 6184TIP3    H218517   3.665   2.755   1.988  1.1605  0.3581 -1.7098
 6185TIP3   OH218518   0.310   5.572   0.531  0.4550  0.4109  0.1558
 6185TIP3    H118519   0.274   5.605   0.614 -1.4662 -1.0161 -0.0482
 6185TIP3    H218520   0.367   5.643   0.500 -2.2447  2.9091  0.4866
 6186TIP3   OH218521   3.017   0.071   4.885 -0.2128  0.2751  0.1875
 6186TIP3    H118522   3.006   0.075   4.980  1.4525 -1.8305  0.5590
 6186TIP3    H218523   2.934   0.036   4.853 -0.9853  1.4948  0.7570
 6187TIP3   OH218524   3.574   3.840   1.815 -0.0584  0.6669  0.2490
 6187TIP3    H118525   3.487   3.848   1.776 -0.1002  2.7274  0.6853
 6187TIP3    H218526   3.634   3.840   1.740 -0.3815 -0.1949 -0.0227
 6188TIP3   OH218527   0.101   2.046   0.543 -0.3528 -0.0112 -0.4077
 6188TIP3    H118528   0.155   1.968   0.541 -0.3316  0.0193 -1.0723
 6188TIP3    H218529   0.163   2.119   0.549 -0.3854 -0.0551  0.6866
 6189TIP3   OH218530   6.781   5.310   5.515  0.0214 -0.7314  0.3684
 6189TIP3    H118531   6.761   5.221   5.544  0.6622 -1.3855 -1.0953
 6189TIP3    H218532   6.696   5.346   5.489 -0.0770 -1.3657 -0.2050
 6190TIP3   OH218533   4.987   2.326   5.597  0.3786 -0.1711 -0.0508
 6190TIP3    H118534   4.942   2.364   5.522 -0.0170 -0.2268  0.1597
 6190TIP3    H218535   5.032   2.400   5.639 -0.7949  0.1622  0.6488
 6191TIP3   OH218536   4.069   4.375   0.052  0.0488  0.0256  0.4601
 6191TIP3    H118537   4.126   4.410   0.120  1.7051  0.8436 -1.2592
 6191TIP3    H218538   4.117   4.301   0.015 -0.8825 -0.4885  0.2192
 6192TIP3   OH218539   5.952   4.543   3.283  0.3216  0.2685 -0.0664
 6192TIP3    H118540   5.966   4.532   3.189 -1.1123 -1.0030 -0.1592
 6192TIP3    H218541   5.976   4.458   3.321 -2.0523 -0.3125  0.3120
 6193TIP3   OH218542   3.552   4.455   2.926  0.5323 -0.1931 -0.3082
 6193TIP3    H118543   3.460   4.440   2.948  0.8972 -1.3856  0.5593
 6193TIP3    H218544   3.551   4.480   2.834 -0.6449 -0.5329 -0.4065
 6194TIP3   OH218545   4.248   1.688   3.878  0.0061  0.3746  0.1838
 6194TIP3    H118546   4.158   1.676   3.848  0.2477  0.3951 -0.5476
 6194TIP3    H218547   4.293   1.607   3.855  0.3074  0.5755  0.0590
 6195TIP3   OH218548   1.491   0.662   3.409  0.9965 -0.2459  0.2974
 6195TIP3    H118549   1.572   0.701   3.444  1.6943 -2.2443  1.0575
 6195TIP3    H218550   1.433   0.657   3.485  1.3876 -1.8007  0.5147
 6196TIP3   OH218551   2.023   6.121   0.420 -0.1193 -0.0598 -0.2720
 6196TIP3    H118552   2.067   6.129   0.335  0.4150 -0.1310 -0.0027
 6196TIP3    H218553   1.944   6.174   0.410 -0.5701 -0.8682 -1.1481
 6197TIP3   OH218554   2.551   1.522   0.972 -0.2315 -0.0222  0.3115
 6197TIP3    H118555   2.480   1.476   1.017  0.2243 -0.0940  0.9661
 6197TIP3    H218556   2.573   1.594   1.030 -0.5491  0.6923 -0.4384
 6198TIP3   OH218557   4.721   2.199   5.261  0.0079 -0.0720 -0.0913
 6198TIP3    H118558   4.632   2.176   5.289  0.5570 -2.3729 -0.0733
 6198TIP3    H218559   4.745   2.273   5.318 -2.1816  1.2004 -0.7065
 6199TIP3   OH218560   2.497   0.710   1.176 -0.1436  0.1035  0.3531
 6199TIP3    H118561   2.508   0.715   1.271 -0.9349  0.5527  0.4356
 6199TIP3    H218562   2.418   0.657   1.164 -1.0618  1.4882  0.0325
 6200TIP3   OH218563   3.042   4.579   0.297 -0.1805 -0.0242  0.3362
 6200TIP3    H118564   3.101   4.585   0.221 -1.6597  0.8523 -0.7935
 6200TIP3    H218565   3.100   4.591   0.372  1.1989  0.0845 -0.6908
 6201TIP3   OH218566   2.680   6.279   2.583  0.0586  0.2230 -0.2959
 6201TIP3    H118567   2.628   6.300   2.661 -0.4982 -0.1652 -0.5551
 6201TIP3    H218568   2.718   6.363   2.557 -0.5136  0.5340 -0.1479
 6202TIP3   OH218569   4.558   1.640   5.315  0.0045 -0.3631 -0.0605
 6202TIP3    H118570   4.602   1.644   5.400  0.1246  1.0609 -0.1606
 6202TIP3    H218571   4.510   1.557   5.316 -1.8676  0.6119  2.3775
 6203TIP3   OH218572   1.054   3.822   4.458  0.0742  0.0602  0.5132
 6203TIP3    H118573   1.101   3.759   4.404  1.1046 -1.0310  2.5597
 6203TIP3    H218574   1.039   3.896   4.400 -1.6123 -2.1667 -2.1736
 6204TIP3   OH218575   4.442   4.524   3.917  0.9775 -0.2465 -0.1627
 6204TIP3    H118576   4.520   4.481   3.950  1.2188 -0.2442 -0.7179
 6204TIP3    H218577   4.370   4.485   3.966  1.1245 -1.7601 -1.0911
 6205TIP3   OH218578   3.852   3.275   2.330  0.1033 -0.2364 -0.1900
 6205TIP3    H118579   3.779   3.225   2.366 -0.5050 -0.0411 -1.1110
 6205TIP3    H218580   3.930   3.226   2.356 -0.3800 -0.7369  0.3505
 6206TIP3   OH218581   0.163   0.538   5.344  0.5788 -0.1353 -0.0102
 6206TIP3    H118582   0.200   0.626   5.345 -2.2483  1.1707  1.6173
 6206TIP3    H218583   0.094   0.541   5.278  0.1530 -0.9993  0.3819
 6207TIP3   OH218584   1.304   1.517   0.210  0.1802 -0.4682 -0.4371
 6207TIP3    H118585   1.388   1.474   0.223 -0.1209 -0.7419  0.6530
 6207TIP3    H218586   1.250   1.451   0.167 -0.5831 -1.5933  2.0802
 6208TIP3   OH218587   1.714   5.424   3.102 -0.5504  0.4680 -0.4014
 6208TIP3    H118588   1.667   5.341   3.107  0.4872 -0.1059  0.1791
 6208TIP3    H218589   1.758   5.432   3.187  1.2847  0.4294 -1.2916
 6209TIP3   OH218590   5.904   3.659   4.537  0.3904  0.1832 -0.1173
 6209TIP3    H118591   5.870   3.608   4.611  0.8919 -0.2166 -0.1572
 6209TIP3    H218592   5.906   3.749   4.569 -1.2997  0.3310 -0.3197
 6210TIP3   OH218593   2.104   6.080   4.095 -0.2081  0.6599 -0.2286
 6210TIP3    H118594   2.069   6.008   4.042 -0.5664  0.7124 -0.0683
 6210TIP3    H218595   2.191   6.097   4.059  0.5222 -0.8861  0.6860
 6211TIP3   OH218596   1.255   3.902   1.498 -0.4339 -0.3501 -0.2597
 6211TIP3    H118597   1.274   3.995   1.491  0.8476 -0.3198  2.4302
 6211TIP3    H218598   1.340   3.859   1.502 -0.9573 -1.3505  1.0598
 6212TIP3   OH218599   7.178   4.080   1.521 -0.0909 -0.8569 -0.2226
 6212TIP3    H118600   7.185   4.168   1.484 -0.6184 -0.8044 -0.2141
 6212TIP3    H218601   7.214   4.087   1.609  0.5797 -0.8306 -0.4957
 6213TIP3   OH218602   6.890   6.521   4.735  0.4638 -0.4700 -0.2907
 6213TIP3    H118603   6.968   6.560   4.696 -0.2148 -0.2742 -1.5151
 6213TIP3    H218604   6.826   6.592   4.736  0.5530 -0.3550  1.5772
 6214TIP3   OH218605   0.175   4.110   4.570  0.1060  0.3473 -0.3446
 6214TIP3    H118606   0.268   4.129   4.561  0.2899 -0.0300  0.6279
 6214TIP3    H218607   0.155   4.132   4.661 -0.6288 -0.1047 -0.3876
 6215TIP3   OH218608   4.079   4.713   4.351  0.2158  0.6077  0.0678
 6215TIP3    H118609   4.098   4.666   4.432  1.8124  1.2185  0.0849
 6215TIP3    H218610   4.097   4.650   4.281  1.9721  1.0416  0.1023
 6216TIP3   OH218611   6.566   3.583   5.030  0.5065 -0.6581 -0.1499
 6216TIP3    H118612   6.656   3.614   5.027 -0.3374  2.1785  1.0938
 6216TIP3    H218613   6.540   3.579   4.938  1.0030  1.5145 -0.4363
 6217TIP3   OH218614   6.857   6.752   0.367 -0.1204  0.2961  0.0973
 6217TIP3    H118615   6.866   6.669   0.415 -1.0677  1.0802  1.7355
 6217TIP3    H218616   6.767   6.750   0.333  0.2091  0.1966 -0.7834
 6218TIP3   OH218617   1.319   0.666   0.858  0.5554  0.1992  0.0304
 6218TIP3    H118618   1.366   0.612   0.921  0.7005  1.1363  0.7453
 6218TIP3    H218619   1.318   0.753   0.897  0.9396  0.8839 -1.4073
 6219TIP3   OH218620   4.125   6.579   4.857 -0.1937 -0.0040  0.3729
 6219TIP3    H118621   4.107   6.620   4.772  2.4556 -1.0832 -0.8117
 6219TIP3    H218622   4.136   6.486   4.837  1.3315 -0.1563  1.7407
 6220TIP3   OH218623   0.751   1.639   5.703 -0.5019  0.1212  0.0196
 6220TIP3    H118624   0.834   1.592   5.716 -0.5843 -0.3334 -1.0209
 6220TIP3    H218625   0.686   1.585   5.749 -0.3285  0.1280  0.2772
 6221TIP3   OH218626   2.193   0.668   1.794  0.1791 -0.1684  0.5225
 6221TIP3    H118627   2.214   0.753   1.754  1.5673 -0.4862  0.5258
 6221TIP3    H218628   2.122   0.687   1.855 -0.8122  0.6412 -0.8420
 6222TIP3   OH218629   2.221   5.028   5.138  0.8032 -0.0478  0.1113
 6222TIP3    H118630   2.176   4.944   5.144  1.9137 -0.5941  1.1490
 6222TIP3    H218631   2.171   5.077   5.073 -0.1680 -1.3147 -0.1382
 6223TIP3   OH218632   5.962   0.957   5.187 -0.3813  0.1548  0.5385
 6223TIP3    H118633   5.966   0.929   5.278 -3.0812  1.6761  1.2228
 6223TIP3    H218634   6.009   1.041   5.185 -0.8242  0.4050  0.6541
 6224TIP3   OH218635   3.183   1.935   1.924  0.4385  0.0302  0.0828
 6224TIP3    H118636   3.232   1.885   1.858 -0.4806 -0.6328 -0.1111
 6224TIP3    H218637   3.199   2.026   1.902  0.2399 -0.1831 -0.9765
 6225TIP3   OH218638   0.188   4.968   1.779  0.8852 -0.2638  0.2815
 6225TIP3    H118639   0.179   4.933   1.691 -0.0429  1.2589 -0.2589
 6225TIP3    H218640   0.261   5.030   1.773  0.4580  0.2593  0.4369
 6226TIP3   OH218641   6.476   3.454   2.044 -0.2813 -0.4368 -0.4691
 6226TIP3    H118642   6.435   3.480   1.962  0.3900  0.7462 -0.4525
 6226TIP3    H218643   6.408   3.405   2.090 -0.0922 -2.7976 -2.4944
 6227TIP3   OH218644   3.607   2.914   5.580 -0.0649  0.4146  0.1230
 6227TIP3    H118645   3.671   2.847   5.557 -1.5243 -1.1836  0.4860
 6227TIP3    H218646   3.603   2.911   5.676 -0.4179  0.7531  0.1216
 6228TIP3   OH218647   6.671   3.332   4.141  0.1125  0.0466  0.6396
 6228TIP3    H118648   6.598   3.393   4.155 -0.8495 -0.7573 -0.5828
 6228TIP3    H218649   6.684   3.332   4.046 -1.2087 -3.0309  0.3462
 6229TIP3   OH218650   5.861   4.981   2.447 -0.0967  0.2800  0.2991
 6229TIP3    H118651   5.928   5.049   2.460  0.1636  0.2775 -0.9033
 6229TIP3    H218652   5.808   4.984   2.527  0.8368  0.8499  0.9184
 6230TIP3   OH218653   7.084   2.788   5.412 -0.5322  0.4901  0.0152
 6230TIP3    H118654   7.117   2.797   5.323  0.2222  1.3114  0.3639
 6230TIP3    H218655   7.046   2.873   5.432 -0.6332  0.3334  0.5046
 6231TIP3   OH218656   2.286   2.699   2.468  0.3344  0.0506  0.5467
 6231TIP3    H118657   2.201   2.656   2.478  0.1586  0.3527  0.3595
 6231TIP3    H218658   2.327   2.654   2.395 -0.6678  1.4849 -0.9733
 6232TIP3   OH218659   4.635   0.543   3.151  0.0307 -0.3961 -0.1163
 6232TIP3    H118660   4.647   0.590   3.069  2.1761 -1.2908 -0.3650
 6232TIP3    H218661   4.601   0.609   3.212  1.3791  1.0654 -0.8902
 6233TIP3   OH218662   6.037   1.440   1.140 -0.2177 -0.1501 -0.0549
 6233TIP3    H118663   6.020   1.352   1.174  2.4397  0.2741  2.8652
 6233TIP3    H218664   6.043   1.428   1.045 -0.4514 -3.0333  0.1997
 6234TIP3   OH218665   2.732   5.614   1.068 -0.5321 -1.0216 -0.2082
 6234TIP3    H118666   2.652   5.586   1.112 -0.4693  0.7907  1.1707
 6234TIP3    H218667   2.790   5.642   1.139  0.2649  0.3268 -1.3306
 6235TIP3   OH218668   0.987   3.358   4.984 -0.1747  0.0960 -0.4085
 6235TIP3    H118669   1.022   3.390   5.067  0.6474 -0.5777 -0.4804
 6235TIP3    H218670   0.959   3.268   5.003 -0.7156  0.2044 -0.6706
 6236TIP3   OH218671   6.438   5.822   4.117  0.2067  0.0498  0.2067
 6236TIP3    H118672   6.481   5.875   4.183  0.6509 -0.1614  0.0937
 6236TIP3    H218673   6.499   5.823   4.042  0.0295 -0.2737  0.0553
 6237TIP3   OH218674   1.446   1.606   4.419  0.4696  0.5416 -0.8751
 6237TIP3    H118675   1.510   1.596   4.349  0.9124 -0.6083 -0.3196
 6237TIP3    H218676   1.430   1.701   4.423  0.5066  0.6431 -2.4419
 6238TIP3   OH218677   3.646   0.865   5.779 -0.1711  0.0451  0.5507
 6238TIP3    H118678   3.701   0.837   5.852 -0.1407  2.5687  1.6260
 6238TIP3    H218679   3.593   0.936   5.816  0.1218  1.7017 -1.9666
 6239TIP3   OH218680   5.200   0.721   5.128 -0.0787 -0.2118 -0.3426
 6239TIP3    H118681   5.206   0.760   5.041 -0.4080  0.2378 -0.1697
 6239TIP3    H218682   5.246   0.638   5.121  0.1576 -0.0375 -0.8670
 6240TIP3   OH218683   4.004   0.981   1.317 -0.0473 -0.0487 -0.1128
 6240TIP3    H118684   3.916   0.995   1.351  0.0773  0.5017 -0.0107
 6240TIP3    H218685   3.993   0.971   1.223 -0.2423 -0.2057 -0.0732
 6241TIP3   OH218686   6.803   6.454   3.898 -0.2710  0.3226 -0.0387
 6241TIP3    H118687   6.878   6.499   3.859 -0.4564  0.3789 -0.3375
 6241TIP3    H218688   6.736   6.521   3.906 -0.8302 -0.0519 -1.2407
 6242TIP3   OH218689   0.184   3.029   3.280  0.7055  0.1610 -0.2313
 6242TIP3    H118690   0.264   2.995   3.320 -0.2845 -0.9221  0.9028
 6242TIP3    H218691   0.204   3.121   3.263  1.4477  0.5348  2.1804
 6243TIP3   OH218692   4.697   2.883   1.723  0.5767  0.0366  0.2030
 6243TIP3    H118693   4.706   2.910   1.815 -0.5391  3.5748 -0.5634
 6243TIP3    H218694   4.614   2.835   1.720  0.9851 -0.7635  1.1195
 6244TIP3   OH218695   0.507   6.145   2.508 -0.4851  0.6625  0.6117
 6244TIP3    H118696   0.594   6.175   2.536 -0.6601  0.4259  1.4413
 6244TIP3    H218697   0.448   6.184   2.572 -1.2869  2.8666 -1.3195
 6245TIP3   OH218698   7.054   5.138   2.649  0.0030 -0.1264 -0.1632
 6245TIP3    H118699   7.135   5.181   2.625 -0.2710  0.4480 -0.0681
 6245TIP3    H218700   6.986   5.205   2.639 -0.6392 -0.9139 -1.3820
 6246TIP3   OH218701   6.343   3.949   5.086 -0.0519  0.2472  0.1769
 6246TIP3    H118702   6.423   3.911   5.049 -0.2959 -1.5868  1.3690
 6246TIP3    H218703   6.373   4.022   5.140  0.6579  0.5558 -0.6264
 6247TIP3   OH218704   5.523   4.183   0.770  0.4928  0.0090  0.7893
 6247TIP3    H118705   5.608   4.225   0.754 -1.1018  3.0895 -0.3780
 6247TIP3    H218706   5.540   4.122   0.841  3.9046 -0.3498 -0.1517
 6248TIP3   OH218707   0.263   6.546   4.754 -0.3315  0.6194  0.5835
 6248TIP3    H118708   0.181   6.566   4.799 -1.0664 -2.8077  1.0657
 6248TIP3    H218709   0.236   6.531   4.663 -0.2107 -0.0684  0.6534
 6249TIP3   OH218710   0.220   0.562   4.744 -0.1306 -0.0114 -0.4814
 6249TIP3    H118711   0.168   0.539   4.822  0.3620 -0.8998 -0.4078
 6249TIP3    H218712   0.309   0.538   4.767  0.6521  2.9052 -0.0134
 6250TIP3   OH218713   4.199   5.326   3.138 -0.4231  0.3932 -0.2291
 6250TIP3    H118714   4.245   5.308   3.220  0.6305 -0.9649 -1.0906
 6250TIP3    H218715   4.200   5.422   3.131  1.6160  0.4392  0.1593
 6251TIP3   OH218716   7.182   1.082   4.268  0.0942  0.1263 -0.1418
 6251TIP3    H118717   7.109   1.130   4.308 -1.1300 -2.5524  1.0716
 6251TIP3    H218718   7.198   1.009   4.328  2.6937 -0.3263 -1.2528
 6252TIP3   OH218719   2.588   5.397   0.511  0.7195 -0.4575 -0.2344
 6252TIP3    H118720   2.616   5.319   0.463 -1.5465 -1.5768  0.0845
 6252TIP3    H218721   2.613   5.380   0.601  0.1535 -0.8811 -0.1515
 6253TIP3   OH218722   0.258   5.183   5.263  0.0294 -0.5097 -0.1120
 6253TIP3    H118723   0.263   5.279   5.262  0.0038 -0.4832  0.9387
 6253TIP3    H218724   0.182   5.162   5.209 -0.9877  0.1663  1.0017
 6254TIP3   OH218725   6.698   6.154   3.650 -0.2665  0.2680  0.5566
 6254TIP3    H118726   6.696   6.084   3.715 -1.0386 -1.2013 -0.9490
 6254TIP3    H218727   6.633   6.217   3.680 -0.5146 -0.3160  1.2770
 6255TIP3   OH218728   2.474   0.131   3.221  0.6554  0.0840 -0.1812
 6255TIP3    H118729   2.505   0.202   3.164 -1.8151  0.1821 -1.5062
 6255TIP3    H218730   2.414   0.174   3.281 -1.1695 -0.8830 -1.2437
 6256TIP3   OH218731   4.228   5.012   0.671 -0.1179  0.2266 -0.2086
 6256TIP3    H118732   4.299   5.054   0.720  0.7171  0.5803 -1.6636
 6256TIP3    H218733   4.268   4.932   0.636 -0.8872 -0.3485  0.1994
 6257TIP3   OH218734   6.243   0.446   3.233  0.1915 -0.1527 -0.1116
 6257TIP3    H118735   6.335   0.428   3.216 -0.5663 -1.6794 -3.5931
 6257TIP3    H218736   6.234   0.541   3.220  0.9680 -0.3023 -2.1790
 6258TIP3   OH218737   4.063   1.888   1.822 -0.0175 -0.2578 -0.3752
 6258TIP3    H118738   4.066   1.962   1.883  0.4278 -1.3315  0.9577
 6258TIP3    H218739   4.127   1.910   1.755 -0.3470  0.8433 -0.3625
 6259TIP3   OH218740   5.701   3.389   4.811 -0.7093 -0.3186 -0.5057
 6259TIP3    H118741   5.729   3.357   4.897 -1.4114  1.0173  0.2715
 6259TIP3    H218742   5.760   3.348   4.749 -0.1425 -1.2743  0.6300
 6260TIP3   OH218743   3.546   4.467   2.630 -0.2998  0.0441 -0.0928
 6260TIP3    H118744   3.623   4.466   2.573  0.0261 -0.3363  0.3449
 6260TIP3    H218745   3.479   4.418   2.582 -0.0063 -0.3335 -0.1212
 6261TIP3   OH218746   5.612   3.062   1.574 -0.3082  0.1308  0.1876
 6261TIP3    H118747   5.550   3.116   1.525  0.1170  0.9033  0.4777
 6261TIP3    H218748   5.698   3.092   1.545 -0.0543 -1.2788 -0.5804
 6262TIP3   OH218749   4.557   2.970   0.082  0.0904  0.0973 -0.0488
 6262TIP3    H118750   4.468   3.004   0.083 -0.2110 -0.6841 -0.0782
 6262TIP3    H218751   4.576   2.947   0.173 -0.6802 -2.1058 -0.3789
 6263TIP3   OH218752   5.981   2.761   3.761  0.4508  0.6343  0.4182
 6263TIP3    H118753   5.934   2.688   3.802  1.0037 -0.5166 -0.9270
 6263TIP3    H218754   5.948   2.764   3.671  0.1772  2.2983  0.5414
 6264TIP3   OH218755   0.926   1.318   3.649  0.0954  0.0119  0.2902
 6264TIP3    H118756   0.968   1.316   3.735 -0.0823  1.6186  0.4453
 6264TIP3    H218757   0.834   1.296   3.667  0.1311  0.0018  0.4579
 6265TIP3   OH218758   3.033   5.365   4.450  0.6802  0.7052  0.1193
 6265TIP3    H118759   3.026   5.448   4.402 -0.3493  0.3293 -0.4086
 6265TIP3    H218760   3.097   5.383   4.519  0.4512  1.9484  0.0358
 6266TIP3   OH218761   5.764   6.117   3.749 -0.1657 -0.2033 -0.7853
 6266TIP3    H118762   5.739   6.025   3.736 -0.9380  0.0199 -0.9190
 6266TIP3    H218763   5.809   6.118   3.833 -0.5638 -0.6371 -0.5609
 6267TIP3   OH218764   2.332   5.213   3.268 -0.0493 -0.0240  0.0158
 6267TIP3    H118765   2.250   5.166   3.255  0.8330 -1.0131 -2.7943
 6267TIP3    H218766   2.305   5.299   3.301 -2.2551 -0.2366 -1.0325
 6268TIP3   OH218767   0.041   0.734   0.920 -0.6316 -0.2821 -0.5338
 6268TIP3    H118768   0.029   0.640   0.934 -1.6966 -0.3629 -1.8939
 6268TIP3    H218769  -0.025   0.759   0.856 -0.5406  1.4645 -0.0136
 6269TIP3   OH218770   2.630   1.827   4.928  0.0293  0.1809 -0.6564
 6269TIP3    H118771   2.642   1.845   4.835 -1.7250  0.0321 -0.9450
 6269TIP3    H218772   2.633   1.914   4.969 -1.5231  0.5172 -1.1762
 6270TIP3   OH218773   6.918   3.153   4.920 -0.0321 -0.5706  0.0025
 6270TIP3    H118774   6.966   3.194   4.848  0.6454 -0.3386  0.5733
 6270TIP3    H218775   6.842   3.113   4.879 -0.2374  0.4949 -0.6967
 6271TIP3   OH218776   5.056   4.635   0.102  0.0264  0.0383 -0.1058
 6271TIP3    H118777   5.134   4.681   0.134  0.7387 -1.9028  1.1084
 6271TIP3    H218778   5.011   4.606   0.181 -1.3576  0.1734 -0.8162
 6272TIP3   OH218779   3.252   4.170   0.383  0.0397 -0.5446  0.6715
 6272TIP3    H118780   3.190   4.201   0.317  1.5588  1.0029 -0.1134
 6272TIP3    H218781   3.202   4.108   0.435 -1.9994  0.2193 -0.2572
 6273TIP3   OH218782   1.460   3.068   3.838 -0.3936  0.5027 -0.4532
 6273TIP3    H118783   1.444   3.124   3.761 -0.2799  0.7170 -0.3234
 6273TIP3    H218784   1.542   3.023   3.817  0.8212  2.1845  0.4496
 6274TIP3   OH218785   4.859   1.896   1.298  0.3574 -0.1154 -0.3382
 6274TIP3    H118786   4.801   1.879   1.372  2.8609 -0.5390  1.6386
 6274TIP3    H218787   4.875   1.990   1.301  0.0820 -0.0568 -0.6540
 6275TIP3   OH218788   2.549   0.857   0.779  0.0390  0.3065 -1.0087
 6275TIP3    H118789   2.626   0.810   0.811 -0.7234 -0.0348  0.3694
 6275TIP3    H218790   2.583   0.913   0.709  1.6803  0.6810  0.0337
 6276TIP3   OH218791   2.340   4.216   3.090  0.4550 -0.3218 -0.0493
 6276TIP3    H118792   2.369   4.125   3.081  1.3540 -0.0070 -0.3555
 6276TIP3    H218793   2.333   4.248   3.000  0.4372  0.0128  0.0716
 6277TIP3   OH218794   5.600   4.913   3.517 -0.3671 -0.1842 -0.2420
 6277TIP3    H118795   5.619   4.825   3.483 -1.5407  0.7858 -3.9564
 6277TIP3    H218796   5.509   4.908   3.547 -0.1582 -0.4303  0.3552
 6278TIP3   OH218797   3.504   0.500   3.098  0.1281  0.0072 -0.2709
 6278TIP3    H118798   3.562   0.536   3.030  0.4375 -1.3797 -0.7861
 6278TIP3    H218799   3.484   0.412   3.067 -2.7686  0.6234 -0.3918
 6279TIP3   OH218800   5.428   0.016   0.918  0.2184 -0.0529 -0.0753
 6279TIP3    H118801   5.516   0.049   0.934  0.1605 -0.5477  1.4130
 6279TIP3    H218802   5.394  -0.005   1.005 -1.1798 -0.3559 -0.6656
 6280TIP3   OH218803   5.891   6.442   3.195 -0.2022 -0.4355 -0.7331
 6280TIP3    H118804   5.984   6.423   3.188  0.5893  2.1423  1.1260
 6280TIP3    H218805   5.884   6.535   3.173 -2.4952 -0.7609 -1.6392
 6281TIP3   OH218806   2.678   3.941   1.990 -0.1426  0.2264 -0.1392
 6281TIP3    H118807   2.602   3.946   2.049  0.1669 -0.2123  0.2987
 6281TIP3    H218808   2.648   3.884   1.919 -0.1302 -0.1758  0.1754
 6282TIP3   OH218809   4.296   3.223   3.317 -0.2940  0.1081 -0.2911
 6282TIP3    H118810   4.343   3.305   3.301 -1.0440  0.4364 -0.8444
 6282TIP3    H218811   4.245   3.208   3.237 -0.0226 -0.9978 -0.2693
 6283TIP3   OH218812   6.657   4.419   0.043 -0.6974  0.2251 -0.3306
 6283TIP3    H118813   6.742   4.391   0.078 -1.6416 -1.2654  0.8839
 6283TIP3    H218814   6.637   4.356  -0.026 -0.4751  1.0653 -1.1929
 6284TIP3   OH218815   2.669   4.700   3.135  0.1726 -0.2334 -0.3508
 6284TIP3    H118816   2.634   4.731   3.051  1.7714 -0.7225 -1.2298
 6284TIP3    H218817   2.670   4.778   3.190 -1.6314 -0.0540 -0.4834
 6285TIP3   OH218818   6.389   5.971   0.996 -0.1007  0.2460  0.0466
 6285TIP3    H118819   6.357   6.045   0.943 -0.0576 -0.3840 -0.8931
 6285TIP3    H218820   6.438   6.012   1.067  0.5192  1.1162 -0.8450
 6286TIP3   OH218821   5.511   2.541   2.856  0.1485  0.1890  0.1366
 6286TIP3    H118822   5.451   2.545   2.930  0.3920  0.0629  0.3401
 6286TIP3    H218823   5.495   2.455   2.816  0.0691  0.2273  0.0861
 6287TIP3   OH218824   2.921   0.282   0.804 -0.2406  0.5031 -0.1464
 6287TIP3    H118825   2.970   0.364   0.801 -1.5098  1.2921  0.1745
 6287TIP3    H218826   2.868   0.288   0.883  0.1726 -0.9506  0.2748
 6288TIP3   OH218827   5.094   5.271   2.500  0.1575  0.1140  0.1365
 6288TIP3    H118828   5.128   5.336   2.562 -0.9117  0.6704  0.1585
 6288TIP3    H218829   5.109   5.309   2.414 -0.9374  0.6616  0.1632
 6289TIP3   OH218830   6.435   4.700   3.302  0.0195 -0.0657 -0.5753
 6289TIP3    H118831   6.361   4.713   3.242  1.2330  1.8438 -1.7658
 6289TIP3    H218832   6.489   4.634   3.259 -0.1120 -0.1601 -0.5952
 6290TIP3   OH218833   5.782   4.853   0.874 -0.1212  0.5628 -0.6280
 6290TIP3    H118834   5.770   4.837   0.781  1.0038 -1.0432 -0.5236
 6290TIP3    H218835   5.875   4.871   0.885 -0.1912  0.4917  0.2192
 6291TIP3   OH218836   6.903   0.572   3.154  0.2429  0.2315 -0.0103
 6291TIP3    H118837   6.995   0.546   3.149 -0.5618 -2.8489 -1.0420
 6291TIP3    H218838   6.877   0.587   3.063  0.0160  2.4976  0.3752
 6292TIP3   OH218839   4.632   0.533   3.537 -0.5208  0.0058  0.5176
 6292TIP3    H118840   4.578   0.473   3.485  0.6666  0.9039 -1.8972
 6292TIP3    H218841   4.600   0.620   3.514  0.8699  0.4748  0.2649
 6293TIP3   OH218842   6.001   4.123   5.302  0.3886 -0.0169 -0.3151
 6293TIP3    H118843   6.040   4.038   5.280 -0.8755 -0.4612 -0.9285
 6293TIP3    H218844   6.051   4.153   5.378  0.1416 -1.8385  0.6374
 6294TIP3   OH218845   1.492   6.745   5.285 -0.1037 -1.0547 -0.6724
 6294TIP3    H118846   1.519   6.827   5.244 -1.3855  0.4965  1.3900
 6294TIP3    H218847   1.561   6.683   5.262  0.7368  0.4895 -2.5740
 6295TIP3   OH218848   3.411   0.261   3.518 -0.4739  0.0754  0.0544
 6295TIP3    H118849   3.374   0.224   3.598  2.1668  0.9291  1.7747
 6295TIP3    H218850   3.499   0.224   3.512  0.3707  2.0910 -0.9607
 6296TIP3   OH218851   5.430   1.513   2.848 -0.6750 -0.0619  0.4237
 6296TIP3    H118852   5.506   1.468   2.810 -0.4362  1.1394 -0.6204
 6296TIP3    H218853   5.461   1.603   2.861 -2.0782  0.6063 -0.5858
 6297TIP3   OH218854   5.203   4.174   1.566 -0.0854  0.5143 -0.0119
 6297TIP3    H118855   5.284   4.129   1.589 -1.0525 -0.7953  0.9492
 6297TIP3    H218856   5.195   4.161   1.471  1.8134  2.4015 -0.5155
 6298TIP3   OH218857   0.099   1.755   0.138 -0.3314 -0.2037 -0.6883
 6298TIP3    H118858   0.089   1.814   0.212 -2.6570 -1.4068  0.0610
 6298TIP3    H218859   0.143   1.678   0.175  0.4294  0.0297 -1.0832
 6299TIP3   OH218860   5.715   5.090   5.580  0.2022 -0.0217 -0.0599
 6299TIP3    H118861   5.640   5.109   5.523  0.3978  0.1736 -0.2576
 6299TIP3    H218862   5.738   5.175   5.618  1.0779  0.1578 -0.9366
 6300TIP3   OH218863   5.672   3.664   4.728  0.1863 -0.2582 -0.3212
 6300TIP3    H118864   5.663   3.570   4.742 -1.0147 -0.1313 -0.0899
 6300TIP3    H218865   5.642   3.703   4.810  0.2109  0.3356 -0.5939
 6301TIP3   OH218866   0.778   3.493   4.338  0.4262  0.0337 -0.1334
 6301TIP3    H118867   0.720   3.539   4.278 -0.1240  1.4318  1.3921
 6301TIP3    H218868   0.791   3.555   4.410  0.1254 -1.9876  1.7458
 6302TIP3   OH218869   2.351   6.584   5.603  0.0192 -0.3196 -0.5158
 6302TIP3    H118870   2.369   6.628   5.520  0.8461 -0.5891 -0.4922
 6302TIP3    H218871   2.434   6.542   5.626 -0.5814 -1.4184 -0.2544
 6303TIP3   OH218872   2.658   0.061   0.347  0.1836 -0.1750  0.5313
 6303TIP3    H118873   2.652  -0.003   0.418  0.4775 -2.2266 -1.1813
 6303TIP3    H218874   2.631   0.012   0.269 -1.3208  2.3253 -0.6220
 6304TIP3   OH218875   4.201   0.103   3.139 -0.3019  0.1189  0.1381
 6304TIP3    H118876   4.172   0.158   3.212 -0.2145  2.2501 -1.3326
 6304TIP3    H218877   4.296   0.115   3.136 -0.4858  1.4161 -1.3216
 6305TIP3   OH218878   2.897   1.808   2.434  0.1015  0.7938 -0.4715
 6305TIP3    H118879   2.982   1.774   2.463  0.4643  1.0495 -1.2085
 6305TIP3    H218880   2.903   1.903   2.448 -1.0790  0.6034  2.0264
 6306TIP3   OH218881   3.653   3.823   3.785 -0.0182 -0.3260 -0.8347
 6306TIP3    H118882   3.702   3.779   3.716  2.0742  0.1305  0.2703
 6306TIP3    H218883   3.705   3.902   3.805 -1.7401  0.7311 -0.2704
 6307TIP3   OH218884   2.289   1.105   3.367  0.0515  0.0982 -0.6252
 6307TIP3    H118885   2.319   1.044   3.435 -1.0104  0.0265 -0.1968
 6307TIP3    H218886   2.336   1.078   3.288 -0.6776 -1.5500 -0.5416
 6308TIP3   OH218887   0.751   4.127   2.902  0.2328 -0.1464 -0.9190
 6308TIP3    H118888   0.783   4.217   2.897 -0.9804  0.4383  0.7963
 6308TIP3    H218889   0.658   4.133   2.877 -0.1114 -0.7286  0.1485
 6309TIP3   OH218890   0.300   4.985   4.187  0.0932 -0.2253  0.2914
 6309TIP3    H118891   0.358   5.042   4.237  0.5811  0.7509 -1.2990
 6309TIP3    H218892   0.354   4.951   4.116 -0.5310 -1.6887  0.4813
 6310TIP3   OH218893   6.831   1.008   3.732  0.5727 -0.0127  0.5398
 6310TIP3    H118894   6.772   1.080   3.711  3.2333  1.7631 -1.5338
 6310TIP3    H218895   6.777   0.929   3.722 -1.3758  1.4509 -1.5391
 6311TIP3   OH218896   5.629   2.680   2.475  0.3917 -0.0735 -0.0667
 6311TIP3    H118897   5.700   2.653   2.417 -0.6151 -1.0275 -0.9129
 6311TIP3    H218898   5.655   2.647   2.561  1.1337 -0.0919 -0.2885
 6312TIP3   OH218899   4.205   1.954   0.438  0.0398  0.3421 -0.1889
 6312TIP3    H118900   4.212   1.906   0.520 -0.0790 -0.8336 -0.8323
 6312TIP3    H218901   4.295   1.960   0.406 -0.1327 -1.3410 -1.1112
 6313TIP3   OH218902   1.260   2.139   5.315  0.2780 -0.2460 -0.6166
 6313TIP3    H118903   1.316   2.190   5.257  0.1548  0.4381 -0.1521
 6313TIP3    H218904   1.303   2.145   5.401  0.9030 -1.9300 -0.7739
 6314TIP3   OH218905   6.923   3.440   2.044  0.4491 -0.1089  0.8499
 6314TIP3    H118906   6.847   3.461   2.099  0.2529  1.0560  0.1737
 6314TIP3    H218907   6.891   3.374   1.983  0.1576 -0.0874  0.9747
 6315TIP3   OH218908   4.271   4.809   4.665  0.1603  0.0054  0.1717
 6315TIP3    H118909   4.345   4.828   4.607  0.1673  0.0766  0.2040
 6315TIP3    H218910   4.240   4.723   4.636 -0.4942  0.4908 -0.6225
 6316TIP3   OH218911   2.533   0.410   2.349  0.5131  0.3400  0.0307
 6316TIP3    H118912   2.517   0.493   2.304  1.8575 -0.2280 -1.5910
 6316TIP3    H218913   2.572   0.354   2.283 -1.9386 -2.2318  0.5695
 6317TIP3   OH218914   7.165   4.039   3.922  0.2056 -0.2192  0.3285
 6317TIP3    H118915   7.216   4.087   3.856 -0.6324 -1.5157 -1.3211
 6317TIP3    H218916   7.210   4.058   4.005  1.2317  1.5428 -0.5723
 6318TIP3   OH218917   5.104   0.277   0.178 -0.1705  0.1913 -0.2100
 6318TIP3    H118918   5.067   0.189   0.175  2.6605 -1.1398  0.5664
 6318TIP3    H218919   5.142   0.290   0.092  0.7363  0.0041  0.1544
 6319TIP3   OH218920   2.923   6.280   2.207  0.1595 -0.3143 -0.2652
 6319TIP3    H118921   2.965   6.365   2.201  0.3108 -0.1489  2.2167
 6319TIP3    H218922   2.833   6.299   2.231 -0.3997 -0.8280 -1.7798
 6320TIP3   OH218923   3.117   2.309   3.443  0.4453  0.0852 -0.1013
 6320TIP3    H118924   3.057   2.370   3.399  0.3331 -0.1920 -0.3344
 6320TIP3    H218925   3.150   2.253   3.373  1.1886  0.4075 -0.0139
 6321TIP3   OH218926   1.346   4.636   5.101  0.0125  0.0752  0.4861
 6321TIP3    H118927   1.436   4.662   5.078 -0.1143 -0.2168 -0.3603
 6321TIP3    H218928   1.350   4.618   5.195  0.1636  2.8901  1.1169
 6322TIP3   OH218929   4.138   4.645   2.701 -0.4490  0.0999  0.2178
 6322TIP3    H118930   4.116   4.725   2.748  1.3177 -0.0806  1.4482
 6322TIP3    H218931   4.088   4.576   2.746 -1.3880  0.3791 -0.3691
 6323TIP3   OH218932   1.848   6.507   3.578 -0.4136 -0.1632  0.3376
 6323TIP3    H118933   1.842   6.494   3.484 -2.8919 -2.9276  0.7291
 6323TIP3    H218934   1.916   6.446   3.606  0.5257  0.8649  0.3483
 6324TIP3   OH218935   2.311   5.494   0.283 -0.2931  0.2158 -0.1257
 6324TIP3    H118936   2.232   5.494   0.228 -0.8641  0.0974  0.6793
 6324TIP3    H218937   2.306   5.576   0.332 -0.2635 -0.0968  0.4080
 6325TIP3   OH218938   6.659   2.405   1.079 -0.2634  0.1242 -0.6181
 6325TIP3    H118939   6.735   2.362   1.119 -0.6089  0.4912  0.4584
 6325TIP3    H218940   6.667   2.497   1.105 -1.0227  0.1862 -0.5848
 6326TIP3   OH218941   5.602   3.421   5.642 -0.6375 -0.2109  0.4058
 6326TIP3    H118942   5.589   3.425   5.736  1.6628 -0.5116  0.8057
 6326TIP3    H218943   5.587   3.511   5.612  0.6223  0.3633  1.4099
 6327TIP3   OH218944   1.525   0.765   0.323 -0.6388 -0.2021 -0.0951
 6327TIP3    H118945   1.563   0.853   0.325  0.2754 -0.5787  2.1859
 6327TIP3    H218946   1.601   0.707   0.313 -0.7410 -0.8499  2.1945
 6328TIP3   OH218947   1.288   6.380   1.812  0.7646  0.0524  0.0958
 6328TIP3    H118948   1.379   6.384   1.781  0.7294 -0.7711 -0.1351
 6328TIP3    H218949   1.256   6.295   1.782 -0.4519  0.8067 -0.8294
 6329TIP3   OH218950   7.124   1.940   5.406 -0.2352  0.3210  0.1948
 6329TIP3    H118951   7.071   1.867   5.439  1.8031 -1.0597  0.5339
 6329TIP3    H218952   7.174   1.969   5.482  0.4591  0.7545 -0.4255
 6330TIP3   OH218953   4.756   4.218   4.818 -0.4603 -0.0875 -0.1220
 6330TIP3    H118954   4.846   4.192   4.802 -0.1316  1.6873 -1.4174
 6330TIP3    H218955   4.722   4.244   4.732 -1.9200  0.1325  0.4834
 6331TIP3   OH218956   3.112   0.622   1.415 -0.2490 -0.6626 -0.2128
 6331TIP3    H118957   3.084   0.533   1.395 -1.8130  0.0827 -1.6801
 6331TIP3    H218958   3.139   0.658   1.331  2.4908 -0.3772  0.6995
 6332TIP3   OH218959   6.624   5.649   3.395  0.0657  0.1284 -0.2088
 6332TIP3    H118960   6.685   5.721   3.381 -2.2535  2.8699  2.3888
 6332TIP3    H218961   6.659   5.603   3.472  0.0218  0.2831 -0.0972
 6333TIP3   OH218962   4.624   4.294   5.060  0.0820 -0.5772  0.3808
 6333TIP3    H118963   4.690   4.328   5.120  0.1779 -1.4859  0.8067
 6333TIP3    H218964   4.675   4.258   4.987  0.0680 -1.2838  0.7119
 6334TIP3   OH218965   6.384   5.590   0.414  1.0235 -0.0699 -0.2603
 6334TIP3    H118966   6.374   5.615   0.322  1.7589  0.4073 -0.2234
 6334TIP3    H218967   6.370   5.672   0.463 -0.5947 -0.5497  0.1591
 6335TIP3   OH218968   0.296   6.296   0.813  0.3604  0.3598 -0.1169
 6335TIP3    H118969   0.371   6.349   0.784  0.6770 -0.3897 -0.7106
 6335TIP3    H218970   0.259   6.261   0.732  1.5081 -2.1323  0.3638
 6336TIP3   OH218971   6.955   0.248   2.428  0.0777 -0.3526 -0.1116
 6336TIP3    H118972   7.002   0.222   2.507 -0.2511 -0.9733 -0.1172
 6336TIP3    H218973   6.936   0.166   2.383 -0.7914 -0.0906 -0.2396
 6337TIP3   OH218974   4.176   4.419   1.235  0.1835  0.3549  0.4413
 6337TIP3    H118975   4.257   4.427   1.185 -1.4631  1.0000 -2.3098
 6337TIP3    H218976   4.191   4.471   1.313  2.3455  0.5890 -0.0750
 6338TIP3   OH218977   4.045   4.267   5.540  0.1900  0.3290 -0.3403
 6338TIP3    H118978   4.125   4.276   5.489  0.9664  0.3181  0.8290
 6338TIP3    H218979   4.072   4.288   5.630 -0.5111 -2.2674  0.5440
 6339TIP3   OH218980   3.415   4.158   0.911  0.6243 -0.0328  0.3791
 6339TIP3    H118981   3.357   4.234   0.912  0.4474 -0.1631 -0.0581
 6339TIP3    H218982   3.490   4.185   0.965  1.4521  1.1479 -1.2589
 6340TIP3   OH218983   6.893   6.757   1.274 -1.0810 -0.1782  0.0195
 6340TIP3    H118984   6.869   6.727   1.186 -2.4121 -1.5810  0.7972
 6340TIP3    H218985   6.819   6.811   1.302 -1.2958 -0.8341  0.7582
 6341TIP3   OH218986   2.541   1.611   3.863 -0.3251 -0.3847  0.1962
 6341TIP3    H118987   2.621   1.662   3.856 -1.5141  1.7487  1.2143
 6341TIP3    H218988   2.520   1.587   3.772  0.7072  0.2080 -0.2199
 6342TIP3   OH218989   4.117   6.798   2.738  0.5005 -0.5546  0.4781
 6342TIP3    H118990   4.093   6.837   2.822  0.6881  1.5110 -0.3761
 6342TIP3    H218991   4.060   6.721   2.730 -3.2932  1.9565  0.2821
 6343TIP3   OH218992   3.529   5.134   1.616  0.4408 -0.1965  0.3460
 6343TIP3    H118993   3.528   5.068   1.686  0.0911  1.0755  1.5863
 6343TIP3    H218994   3.437   5.146   1.593  0.6305 -1.6719 -1.4381
 6344TIP3   OH218995   5.108   0.400   5.344 -0.1219 -0.6371 -0.0383
 6344TIP3    H118996   5.176   0.364   5.286 -0.6466  0.0755 -1.1416
 6344TIP3    H218997   5.145   0.483   5.375 -0.2248 -0.5574 -0.1279
 6345TIP3   OH218998   3.672   3.608   5.750 -0.3226 -0.3222 -0.6657
 6345TIP3    H118999   3.608   3.574   5.688 -0.0947 -0.1672 -0.9947
 6345TIP3    H219000   3.724   3.670   5.698 -1.5171  1.4930  0.2034
 6346TIP3   OH219001   5.823  -0.022   0.153  0.0850 -0.4290 -0.0230
 6346TIP3    H119002   5.896   0.018   0.200  1.7400 -1.9445 -1.1656
 6346TIP3    H219003   5.763   0.051   0.137  1.6687  1.0471  0.3434
 6347TIP3   OH219004   4.225   4.488   0.252  0.2818 -0.1234  0.8883
 6347TIP3    H119005   4.170   4.524   0.322  0.1100 -1.6419  1.5871
 6347TIP3    H219006   4.252   4.564   0.201  0.3856  1.0349  2.5845
 6348TIP3   OH219007   5.660   0.251   0.444  0.1604  0.0903 -0.5950
 6348TIP3    H119008   5.730   0.237   0.380 -0.8693 -0.4941 -1.6171
 6348TIP3    H219009   5.587   0.287   0.393 -0.2263  0.9197  0.4931
 6349TIP3   OH219010   0.733   3.536   1.869  0.5131 -0.4254  0.4429
 6349TIP3    H119011   0.646   3.576   1.870  1.2505  1.2962  0.4307
 6349TIP3    H219012   0.719   3.448   1.834 -1.0066  0.3952 -1.1891
 6350TIP3   OH219013   6.428   2.714   3.313 -0.2019  0.4037  0.4234
 6350TIP3    H119014   6.346   2.696   3.266 -0.0328  2.0687 -0.5638
 6350TIP3    H219015   6.496   2.676   3.258 -0.2356 -0.3421  0.8830
 6351TIP3   OH219016   5.080   1.764   4.157 -0.3475 -0.2694  0.1691
 6351TIP3    H119017   5.131   1.686   4.178  1.6279  0.6052 -1.1013
 6351TIP3    H219018   5.058   1.754   4.064  1.2577  1.3189 -0.4463
 6352TIP3   OH219019   0.134   5.267   4.350  0.0506 -0.0854 -0.0407
 6352TIP3    H119020   0.107   5.199   4.411 -4.7870 -0.5022 -2.1338
 6352TIP3    H219021   0.101   5.348   4.388 -1.0308 -0.0567 -0.9745
 6353TIP3   OH219022   6.791   4.325   4.826  0.1731 -0.8348  0.2476
 6353TIP3    H119023   6.883   4.322   4.852 -0.1004  1.5021  1.6689
 6353TIP3    H219024   6.752   4.247   4.867  1.2252 -1.0876  0.7941
 6354TIP3   OH219025   0.344   1.537   1.368 -0.2860 -0.3927  0.4193
 6354TIP3    H119026   0.430   1.508   1.336 -0.0651 -1.2026  1.6660
 6354TIP3    H219027   0.281   1.495   1.309  0.1434  2.2738 -2.1702
 6355TIP3   OH219028   1.912   3.208   1.645  0.3585  0.1295 -0.2513
 6355TIP3    H119029   1.851   3.185   1.575  0.8459 -1.8217 -0.0834
 6355TIP3    H219030   1.987   3.151   1.631  0.5480 -0.1568  1.7507
 6356TIP3   OH219031   1.913   2.757   4.753 -0.4857 -0.3115 -0.3626
 6356TIP3    H119032   1.880   2.684   4.702 -3.0261  0.2509  0.2980
 6356TIP3    H219033   1.944   2.820   4.688  0.6963 -1.4606 -0.9649
 6357TIP3   OH219034   0.027   3.632   0.012 -0.6179  0.1117  0.2980
 6357TIP3    H119035   0.024   3.642   0.107  3.5552 -0.2086  0.6191
 6357TIP3    H219036   0.062   3.715  -0.020  0.6014 -0.7264 -0.6372
 6358TIP3   OH219037   2.605   1.212   2.264  0.6103  0.3933 -0.0201
 6358TIP3    H119038   2.611   1.233   2.171 -1.1039 -0.0890 -0.2593
 6358TIP3    H219039   2.534   1.148   2.270 -0.1562  1.3483  1.7702
 6359TIP3   OH219040   6.296   0.204   0.224 -0.4091 -0.4227 -0.1437
 6359TIP3    H119041   6.336   0.124   0.259  0.4282  0.6332  1.4447
 6359TIP3    H219042   6.355   0.274   0.252 -1.7927  0.8766 -0.3784
 6360TIP3   OH219043   4.939   2.713   4.796 -0.1577 -0.1090  0.2328
 6360TIP3    H119044   5.031   2.736   4.790 -0.0738 -0.2482  0.9487
 6360TIP3    H219045   4.932   2.658   4.875 -0.8929  0.1254  0.3411
 6361TIP3   OH219046   0.609   4.429   5.236 -0.1389 -0.2403 -0.0317
 6361TIP3    H119047   0.534   4.422   5.177  0.9242 -1.1485 -1.3286
 6361TIP3    H219048   0.612   4.522   5.258 -2.5091 -0.3983  1.2672
 6362TIP3   OH219049   5.517   1.031   5.681 -0.2564 -0.3895 -0.2046
 6362TIP3    H119050   5.455   0.979   5.732  0.5866 -0.4391  0.7965
 6362TIP3    H219051   5.602   1.014   5.721 -0.0376  2.3671  0.6829
 6363TIP3   OH219052   3.288   0.248   5.424 -0.4626 -0.0987 -0.2345
 6363TIP3    H119053   3.243   0.268   5.342 -1.0519 -1.1290 -0.1776
 6363TIP3    H219054   3.303   0.153   5.422  0.5019  0.0164  0.3632
 6364TIP3   OH219055   5.343   1.714   1.030 -0.0000 -0.4956  0.2421
 6364TIP3    H119056   5.254   1.709   0.993 -0.4793  0.5482  1.1967
 6364TIP3    H219057   5.396   1.661   0.971 -1.1611 -0.7127 -0.6524
 6365TIP3   OH219058   2.793   0.961   4.486  0.1027 -0.0518  0.1470
 6365TIP3    H119059   2.745   0.922   4.412 -0.8627 -0.2006  0.8315
 6365TIP3    H219060   2.836   0.886   4.527 -0.2914 -0.1400  0.4039
 6366TIP3   OH219061   5.657   1.455   4.704  0.0792 -0.7126 -0.2319
 6366TIP3    H119062   5.637   1.460   4.797  0.1203  1.6610 -0.2901
 6366TIP3    H219063   5.746   1.419   4.701  0.5685  0.3238  0.7617
 6367TIP3   OH219064   3.479   2.562   1.689  0.1763  0.5531 -0.0052
 6367TIP3    H119065   3.411   2.494   1.696 -0.7105  1.4731  0.5470
 6367TIP3    H219066   3.556   2.514   1.659  0.0262 -1.0127  1.8729
 6368TIP3   OH219067   2.346   4.097   3.970  0.5051  0.1876  0.6345
 6368TIP3    H119068   2.262   4.130   3.936  0.0782  0.5597  1.9564
 6368TIP3    H219069   2.324   4.011   4.007  0.8219  0.0661  0.5400
 6369TIP3   OH219070   0.242   5.002   2.648  0.4155 -0.4008  0.0028
 6369TIP3    H119071   0.324   5.051   2.658 -0.2090  0.5275  0.8093
 6369TIP3    H219072   0.188   5.056   2.591 -0.1976 -0.2340  0.7196
 6370TIP3   OH219073   4.114   3.900   3.792 -0.4578  0.1303  0.0480
 6370TIP3    H119074   4.171   3.832   3.756 -0.0175 -0.1095  1.1802
 6370TIP3    H219075   4.160   3.982   3.772 -0.2738  0.0094 -0.0321
 6371TIP3   OH219076   0.050   5.113   5.108 -0.1827 -0.0299  0.3237
 6371TIP3    H119077   0.088   5.043   5.055  1.8144  1.1212  0.1217
 6371TIP3    H219078  -0.011   5.157   5.049  0.3227 -0.1507 -0.2990
 6372TIP3   OH219079   5.334   2.796   4.009 -0.2146  0.2253 -0.4108
 6372TIP3    H119080   5.347   2.835   4.095 -1.8562  0.5424 -0.2780
 6372TIP3    H219081   5.398   2.840   3.953  0.6495  0.2469  0.5681
 6373TIP3   OH219082   0.571   4.354   3.151  0.2658 -0.5147  0.4648
 6373TIP3    H119083   0.617   4.318   3.226 -0.3202 -1.6673  0.2940
 6373TIP3    H219084   0.558   4.280   3.092  0.5212  0.3140 -0.6897
 6374TIP3   OH219085   1.731   4.639   1.172 -0.8003 -0.5042 -0.3184
 6374TIP3    H119086   1.736   4.546   1.192  0.1258 -0.5360 -0.6559
 6374TIP3    H219087   1.637   4.659   1.172 -0.9541 -1.1393  1.0457
 6375TIP3   OH219088   0.432   5.272   4.222 -0.4939  0.9272 -0.0705
 6375TIP3    H119089   0.341   5.281   4.251 -1.0091  1.6782 -1.8008
 6375TIP3    H219090   0.437   5.326   4.143  0.9334 -0.6351 -1.1013
 6376TIP3   OH219091   4.427   0.206   4.145  0.2070  0.4598  0.1615
 6376TIP3    H119092   4.335   0.179   4.139  0.1182  0.5896  0.8597
 6376TIP3    H219093   4.447   0.244   4.059  0.7882 -3.1771 -1.5021
 6377TIP3   OH219094   2.696   2.384  -0.012 -0.5542  0.3957 -0.0636
 6377TIP3    H119095   2.688   2.433   0.070  0.2725  0.6745 -0.1350
 6377TIP3    H219096   2.789   2.362  -0.018 -0.4856  0.9126 -1.2266
 6378TIP3   OH219097   0.355   1.252   1.854  0.1327  0.1012 -0.0785
 6378TIP3    H119098   0.384   1.310   1.924  0.9238  0.7729 -0.9317
 6378TIP3    H219099   0.431   1.244   1.796  0.0295 -1.7467 -0.0332
 6379TIP3   OH219100   4.595   4.099   1.631 -0.0652 -0.5180  0.0069
 6379TIP3    H119101   4.567   4.032   1.694 -1.9642  0.5399  0.3614
 6379TIP3    H219102   4.613   4.176   1.684 -2.4798  0.6449 -0.7140
 6380TIP3   OH219103   1.086   2.547   1.003 -0.6047 -0.4897 -0.1541
 6380TIP3    H119104   1.103   2.639   0.987  1.6218 -0.8682 -0.2876
 6380TIP3    H219105   1.028   2.520   0.932  1.4812  0.0629 -2.1964
 6381TIP3   OH219106   0.736   2.108   5.097 -0.6180  0.2127  0.0147
 6381TIP3    H119107   0.828   2.132   5.084 -0.2309 -0.8371  0.7055
 6381TIP3    H219108   0.725   2.105   5.192 -1.0536 -0.7550 -0.0560
 6382TIP3   OH219109   1.051   1.874   1.030  0.6909  0.0585  0.1633
 6382TIP3    H119110   1.096   1.924   1.098  1.9123 -0.8983  0.0953
 6382TIP3    H219111   1.119   1.818   0.992 -0.5777 -1.6501  0.2512
 6383TIP3   OH219112   6.532   5.596   4.263  0.1494 -0.0610  0.1423
 6383TIP3    H119113   6.517   5.685   4.231  1.8029  0.8756  1.7659
 6383TIP3    H219114   6.451   5.572   4.308 -0.1943  0.7389 -0.0405
 6384TIP3   OH219115   4.010   0.925   0.323  0.0816  0.3227  0.0893
 6384TIP3    H119116   4.038   0.834   0.328 -1.4053 -0.1955 -0.3353
 6384TIP3    H219117   3.947   0.935   0.394  1.7132  1.6450  1.4580
 6385TIP3   OH219118   6.136   5.476   5.274 -0.1999  0.3699  0.0665
 6385TIP3    H119119   6.174   5.390   5.292  1.4607  1.3296  1.5786
 6385TIP3    H219120   6.042   5.463   5.276  0.0161 -1.2426  1.2808
 6386TIP3   OH219121   5.001   2.075   5.486  0.0832  0.4692  0.1657
 6386TIP3    H119122   4.979   2.014   5.557  0.0584  0.1170 -0.1443
 6386TIP3    H219123   4.997   2.162   5.527  0.9681  0.2111  0.8319
 6387TIP3   OH219124   2.917   5.903   1.091  0.2702 -0.2098  0.0033
 6387TIP3    H119125   2.868   5.885   1.012 -0.6294 -1.1230  0.7516
 6387TIP3    H219126   2.853   5.941   1.152 -0.3048 -3.8634  1.9435
 6388TIP3   OH219127   5.280   6.148   4.946  0.0892  0.7402  0.3312
 6388TIP3    H119128   5.235   6.223   4.906  1.8837  1.4626 -0.4190
 6388TIP3    H219129   5.244   6.072   4.900 -0.9747  1.2092  0.3570
 6389TIP3   OH219130   3.508   1.085   0.191 -0.1423  0.2175 -0.4418
 6389TIP3    H119131   3.440   1.145   0.221  0.2786  0.0965  0.8202
 6389TIP3    H219132   3.471   1.044   0.113 -0.8482  1.3420 -0.7277
 6390TIP3   OH219133   5.878   5.623   0.379  0.3316  0.2664  0.2363
 6390TIP3    H119134   5.844   5.537   0.355 -1.6440  0.6083  1.4868
 6390TIP3    H219135   5.953   5.637   0.322 -0.5808 -1.3817 -1.4743
 6391TIP3   OH219136   3.271   3.126   5.310 -0.2338 -0.4416 -0.3522
 6391TIP3    H119137   3.181   3.155   5.329  0.1542  0.4611  0.1740
 6391TIP3    H219138   3.275   3.037   5.345 -1.5767 -1.3762 -2.3671
 6392TIP3   OH219139   6.000   0.083   2.324 -0.0571  0.0644 -0.1378
 6392TIP3    H119140   5.984   0.149   2.391 -0.2158 -0.8322  0.7334
 6392TIP3    H219141   6.073   0.031   2.358  1.8046  1.3053 -1.9843
 6393TIP3   OH219142   5.124   1.903   2.514  0.1945  0.3861 -0.4892
 6393TIP3    H119143   5.049   1.946   2.473 -0.9702  1.4382  2.4992
 6393TIP3    H219144   5.107   1.810   2.504 -2.0311  0.5898  0.8820
 6394TIP3   OH219145   6.690   1.302   0.738 -0.3146 -0.2969  0.3959
 6394TIP3    H119146   6.670   1.338   0.652  3.2289 -1.5341 -1.0860
 6394TIP3    H219147   6.750   1.364   0.777  0.1627 -1.0407  0.8707
 6395TIP3   OH219148   5.651   6.017   4.479  0.4699  0.0026 -0.9156
 6395TIP3    H119149   5.727   5.960   4.488 -0.0759 -0.5438  0.5679
 6395TIP3    H219150   5.643   6.060   4.564  1.0833  2.6311 -2.0831
 6396TIP3   OH219151   4.812   2.097   0.022  0.1478 -0.1660 -0.4806
 6396TIP3    H119152   4.784   2.153  -0.050  3.1154 -1.5762 -2.9616
 6396TIP3    H219153   4.742   2.033   0.032 -0.5299  0.3542 -1.7916
 6397TIP3   OH219154   4.388   5.543   4.245  0.0511 -0.0513 -0.0948
 6397TIP3    H119155   4.406   5.492   4.166 -1.0418  1.3488 -1.2880
 6397TIP3    H219156   4.326   5.489   4.295 -0.3209 -0.3441 -0.8577
 6398TIP3   OH219157   2.787   2.896   0.973  0.4503 -0.0146  0.0983
 6398TIP3    H119158   2.816   2.981   1.007 -1.3235  1.1512 -1.1327
 6398TIP3    H219159   2.814   2.896   0.881 -1.9899  0.5002 -0.6939
 6399TIP3   OH219160   5.961   1.023   4.274  0.7423  0.4945 -0.1021
 6399TIP3    H119161   5.883   0.986   4.315  1.8685 -1.7165  0.1818
 6399TIP3    H219162   5.942   1.116   4.265 -1.9692  0.0043 -0.1562
 6400TIP3   OH219163   2.043   2.175   0.840  0.0192  0.5955 -0.0049
 6400TIP3    H119164   2.022   2.213   0.754 -2.9588  1.3533  0.9473
 6400TIP3    H219165   2.090   2.245   0.886  1.9229  0.0740 -1.0517
 6401TIP3   OH219166   0.179   4.910   3.754  0.0238 -0.3307 -0.2763
 6401TIP3    H119167   0.110   4.849   3.727 -0.4861 -0.8695  2.0626
 6401TIP3    H219168   0.132   4.991   3.776  0.0323 -0.7872  1.5924
 6402TIP3   OH219169   3.022   5.139   1.903  0.0233  0.2416  0.2005
 6402TIP3    H119170   3.025   5.222   1.855 -0.0704  1.0279  1.4997
 6402TIP3    H219171   3.111   5.127   1.937  0.1789 -0.4816 -0.4417
 6403TIP3   OH219172   3.939   4.158   0.570 -0.4238 -1.0167 -0.5485
 6403TIP3    H119173   3.880   4.094   0.609 -0.2028 -0.2962  1.0547
 6403TIP3    H219174   4.026   4.129   0.597 -0.1281 -1.3178 -1.7673
 6404TIP3   OH219175   5.591   6.076   2.377 -0.1397  0.4383  0.2931
 6404TIP3    H119176   5.562   6.141   2.441 -1.6486 -0.3694  0.4660
 6404TIP3    H219177   5.550   6.103   2.295 -0.3368 -0.0028  0.2472
 6405TIP3   OH219178   6.028   5.129   0.491 -0.3834  0.2941 -0.4679
 6405TIP3    H119179   6.017   5.123   0.586  0.1876 -1.4294 -0.4570
 6405TIP3    H219180   6.059   5.218   0.476  0.2445  0.3766  1.0646
 6406TIP3   OH219181   3.824   6.430   3.690  0.5526 -0.6862 -0.3271
 6406TIP3    H119182   3.834   6.470   3.604  0.3132 -0.1775 -0.1175
 6406TIP3    H219183   3.893   6.363   3.693  1.7368  0.5119 -0.2009
 6407TIP3   OH219184   3.245   5.323   4.921 -0.0384  0.3983  0.0744
 6407TIP3    H119185   3.181   5.377   4.968  0.5333  0.5493  0.6983
 6407TIP3    H219186   3.233   5.236   4.958 -0.9152  0.0915 -0.8862
 6408TIP3   OH219187   0.359   0.120   0.862  0.4000  0.6994  0.6396
 6408TIP3    H119188   0.305   0.101   0.786 -0.4475 -0.2423  1.4467
 6408TIP3    H219189   0.315   0.075   0.935  0.9860  1.8593  1.7537
 6409TIP3   OH219190   6.733   0.175   2.051 -0.1942 -0.0742 -0.0141
 6409TIP3    H119191   6.657   0.124   2.080 -0.5667 -0.6471 -1.8866
 6409TIP3    H219192   6.804   0.111   2.042 -0.0664  0.1018 -0.2781
 6410TIP3   OH219193   2.945   3.037   0.024  0.2840  0.0791  0.0011
 6410TIP3    H119194   2.921   3.060  -0.065  0.1991  1.6820  0.4082
 6410TIP3    H219195   2.867   2.995   0.060  0.0089  0.2465 -0.3966
 6411TIP3   OH219196   3.932   6.646   3.876  0.3000  0.0445  0.1393
 6411TIP3    H119197   3.903   6.563   3.837  0.1168  0.4974 -0.7200
 6411TIP3    H219198   3.877   6.658   3.953  0.4291 -0.7062  0.3523
 6412TIP3   OH219199   0.739   3.917   2.033  0.1357 -0.0866  0.4235
 6412TIP3    H119200   0.780   3.920   2.120  0.2601  1.6037  0.3344
 6412TIP3    H219201   0.646   3.906   2.051 -0.0571  1.9038  0.8884
 6413TIP3   OH219202   0.470   4.760   5.804 -0.5913  0.2353  0.3219
 6413TIP3    H119203   0.413   4.704   5.751  1.4294 -1.0032 -0.6796
 6413TIP3    H219204   0.551   4.767   5.753  0.8481  0.3401  2.4902
 6414TIP3   OH219205   4.725   4.121   5.852 -0.4951 -0.3762 -0.0388
 6414TIP3    H119206   4.741   4.202   5.803  0.9075 -0.2326  0.5932
 6414TIP3    H219207   4.808   4.074   5.848 -1.0784 -1.4675  0.2002
 6415TIP3   OH219208   6.692   2.349   5.448 -0.6748  0.4247  0.2063
 6415TIP3    H119209   6.726   2.298   5.375  0.5030 -0.2378  1.1749
 6415TIP3    H219210   6.747   2.427   5.451 -1.1558  0.7779 -0.0142
 6416TIP3   OH219211   6.343   2.381   0.313  0.6197 -0.1157  0.1752
 6416TIP3    H119212   6.398   2.409   0.387  0.1138  1.2465  0.0602
 6416TIP3    H219213   6.326   2.288   0.330  1.3337 -0.0737  1.2428
 6417TIP3   OH219214   6.112   1.734   1.571 -0.6519 -0.2080 -0.2125
 6417TIP3    H119215   6.098   1.676   1.496 -0.4473  0.1325 -0.5140
 6417TIP3    H219216   6.096   1.678   1.647  0.6539 -0.9680 -0.4662
 6418TIP3   OH219217   2.770   5.955   1.732  0.4319 -0.2830  0.3365
 6418TIP3    H119218   2.856   5.981   1.765  0.6315  1.8072 -1.5506
 6418TIP3    H219219   2.716   6.033   1.739 -1.7794 -1.8460  2.5504
 6419TIP3   OH219220   6.919   3.558   1.369  0.9767 -0.2086  0.1349
 6419TIP3    H119221   6.910   3.534   1.461  2.4254  0.3577  0.4503
 6419TIP3    H219222   6.870   3.640   1.360  0.9956 -0.1615  0.4505
 6420TIP3   OH219223   3.475   0.650   1.830  0.7165  0.0503  0.2960
 6420TIP3    H119224   3.531   0.726   1.841 -0.9518  1.3718  0.1256
 6420TIP3    H219225   3.436   0.635   1.916  0.0566  0.2061  0.0299
 6421TIP3   OH219226   2.424   1.126   1.967 -0.8957 -0.0831 -0.1180
 6421TIP3    H119227   2.507   1.128   1.919 -1.0982 -1.1754 -0.5283
 6421TIP3    H219228   2.419   1.038   2.004 -1.6693  0.1158  0.2842
 6422TIP3   OH219229   5.622   6.027   1.232 -0.2594  0.2102 -0.1118
 6422TIP3    H119230   5.594   6.116   1.212  0.9757  0.5212 -0.5166
 6422TIP3    H219231   5.670   5.998   1.155 -1.0147 -0.9913 -0.1733
 6423TIP3   OH219232   0.545   6.036   0.872  0.2742  0.0830 -0.5156
 6423TIP3    H119233   0.579   6.117   0.911 -0.4978  0.0030  0.3563
 6423TIP3    H219234   0.467   6.016   0.923  0.1576 -0.9294 -1.0681
 6424TIP3   OH219235   4.359   4.789   1.221 -0.2303 -0.3940  0.8000
 6424TIP3    H119236   4.372   4.833   1.137  1.5233 -0.4141  1.0304
 6424TIP3    H219237   4.315   4.855   1.275  1.3066  0.7062  0.7725
 6425TIP3   OH219238   7.081   3.273   0.036  0.1823 -0.4961 -0.1751
 6425TIP3    H119239   7.170   3.305   0.023  0.4907 -1.9720 -2.3019
 6425TIP3    H219240   7.026   3.351   0.033  1.2310  0.2416 -1.2062
 6426TIP3   OH219241   0.485   2.582   5.434  0.1289  0.0646  0.7908
 6426TIP3    H119242   0.486   2.491   5.404  1.4339  0.4749 -0.5416
 6426TIP3    H219243   0.443   2.631   5.363 -0.5004  0.5185  1.4678
 6427TIP3   OH219244   2.659   2.418   3.250 -0.0295  0.7263 -0.2755
 6427TIP3    H119245   2.687   2.491   3.194  0.4416  0.5551 -0.2687
 6427TIP3    H219246   2.623   2.460   3.328  0.9120  0.9542  0.0505
 6428TIP3   OH219247   5.575   0.363   4.979 -0.0460 -0.8693  0.0301
 6428TIP3    H119248   5.554   0.444   4.932 -0.9391 -0.4446  1.1277
 6428TIP3    H219249   5.495   0.311   4.976 -1.2617  0.4937  3.6887
 6429TIP3   OH219250   1.043   1.692   3.801 -1.0370 -0.0264  0.3986
 6429TIP3    H119251   1.075   1.780   3.820 -0.1379  0.1710 -1.6977
 6429TIP3    H219252   1.071   1.639   3.875  2.3777  0.5982 -0.2573
 6430TIP3   OH219253   5.474   2.289   2.760  0.2468  0.1444  0.4705
 6430TIP3    H119254   5.560   2.264   2.792  0.5671 -0.0046 -0.5011
 6430TIP3    H219255   5.413   2.250   2.823  0.7217 -2.7616 -0.7240
 6431TIP3   OH219256   3.215   2.984   0.077 -0.3060 -0.5337  0.0104
 6431TIP3    H119257   3.131   3.014   0.044 -0.2480  1.0418  1.1945
 6431TIP3    H219258   3.264   2.960  -0.002 -1.3683 -0.1508 -0.7926
 6432TIP3   OH219259   2.073   1.970   0.006 -0.0655 -0.1436  0.3840
 6432TIP3    H119260   2.062   1.875   0.007  0.8695 -0.3314 -1.9100
 6432TIP3    H219261   1.995   2.003   0.050 -1.2526 -1.9087 -0.2697
 6433TIP3   OH219262   4.143   1.576   1.348  0.1264  0.5371 -0.5336
 6433TIP3    H119263   4.209   1.540   1.407 -0.1445  0.2403 -0.4076
 6433TIP3    H219264   4.107   1.500   1.303 -0.3196  0.6735 -0.4072
 6434TIP3   OH219265   4.995   6.402   3.253 -0.2762  0.4069  0.4484
 6434TIP3    H119266   5.042   6.372   3.175 -2.2178  0.0277 -0.6449
 6434TIP3    H219267   5.030   6.490   3.269  0.5463  0.2815 -0.5064
 6435TIP3   OH219268   5.162   5.563   2.014  0.1956  0.7993  0.1806
 6435TIP3    H119269   5.192   5.643   1.970  1.6721 -0.3677 -1.0520
 6435TIP3    H219270   5.153   5.499   1.943 -0.7573 -0.1928  1.1638
 6436TIP3   OH219271   2.855   5.797   3.335  0.0620 -0.2862 -0.4528
 6436TIP3    H119272   2.788   5.852   3.375  1.5321  0.0675  1.7038
 6436TIP3    H219273   2.825   5.708   3.350 -0.8719 -0.1445 -1.3216
 6437TIP3   OH219274   3.897   6.558   5.693  0.1811  0.2137  0.1291
 6437TIP3    H119275   3.858   6.534   5.609  1.6938  0.4970 -0.6845
 6437TIP3    H219276   3.837   6.623   5.729 -1.0008 -0.6283 -0.2528
 6438TIP3   OH219277   1.673   2.179   0.257 -0.1502  0.5361  0.0135
 6438TIP3    H119278   1.707   2.141   0.338  0.9476  1.9849  0.2752
 6438TIP3    H219279   1.735   2.151   0.190  0.9444  2.1476  0.2855
 6439TIP3   OH219280   6.944   6.754   5.442  0.2959 -0.3470 -0.1569
 6439TIP3    H119281   6.975   6.776   5.530  1.1364  0.4047 -0.6172
 6439TIP3    H219282   6.911   6.837   5.407 -0.6368 -0.7820 -0.3167
 6440TIP3   OH219283   1.354   4.392   2.895  0.4124 -0.4850 -0.3520
 6440TIP3    H119284   1.290   4.444   2.945  1.3205  0.1585  0.1578
 6440TIP3    H219285   1.303   4.316   2.864 -0.3094 -0.6482  1.1138
 6441TIP3   OH219286   2.687   3.444   1.290 -0.0216 -0.5740 -0.0270
 6441TIP3    H119287   2.658   3.535   1.296  2.4796  0.2682  0.8846
 6441TIP3    H219288   2.700   3.429   1.196  1.4303  0.7446 -0.0844
 6442TIP3   OH219289   2.630   3.612   2.558 -0.3572  0.5830 -0.0287
 6442TIP3    H119290   2.725   3.606   2.548  0.1326  0.9407  3.1949
 6442TIP3    H219291   2.607   3.539   2.616 -1.7212  1.5587  0.7213
 6443TIP3   OH219292   1.963   6.124   3.271 -0.1550  0.7534  0.7585
 6443TIP3    H119293   1.894   6.111   3.336 -0.4170  0.7210  0.4753
 6443TIP3    H219294   1.924   6.182   3.205 -0.4266 -0.4319 -0.1643
 6444TIP3   OH219295   1.518   1.260   3.970 -0.2287  0.0328 -0.0708
 6444TIP3    H119296   1.511   1.300   4.057 -1.3750 -1.0885  0.3807
 6444TIP3    H219297   1.612   1.258   3.952 -0.0768  2.1045  0.2499
 6445TIP3   OH219298   1.527   2.491   5.386 -0.2870  0.2654 -0.1095
 6445TIP3    H119299   1.453   2.499   5.326 -0.2304 -2.5293 -0.6932
 6445TIP3    H219300   1.572   2.411   5.358  1.8377  0.8228  1.4461
 6446TIP3   OH219301   6.469   3.904   4.233  0.6065  0.0741 -0.1001
 6446TIP3    H119302   6.508   3.865   4.154 -0.0072  2.8816 -1.9185
 6446TIP3    H219303   6.544   3.937   4.282  0.8970  0.2013 -0.6131
 6447TIP3   OH219304   3.306   5.187   1.987  0.5875  0.0068  0.0094
 6447TIP3    H119305   3.302   5.249   2.060 -0.4573  0.0458 -0.0655
 6447TIP3    H219306   3.368   5.227   1.926 -0.1805  1.0867 -0.1108
 6448TIP3   OH219307   6.987   5.662   3.919 -0.8346  0.5511 -0.0749
 6448TIP3    H119308   6.937   5.580   3.921  2.0301 -1.3668  0.1821
 6448TIP3    H219309   7.026   5.668   4.007  0.7513  0.9618 -0.7751
 6449TIP3   OH219310   3.332   1.683   3.029  0.0331 -0.3175  0.1027
 6449TIP3    H119311   3.340   1.778   3.026  1.6844 -0.2432  3.2099
 6449TIP3    H219312   3.421   1.651   3.018 -0.2075 -1.3694  1.0236
 6450TIP3   OH219313   1.239   6.524   0.039 -0.8612  0.2768  0.1039
 6450TIP3    H119314   1.203   6.556   0.121 -1.6563 -0.3287  0.0049
 6450TIP3    H219315   1.199   6.580  -0.028 -2.0112 -0.6730 -0.0432
 6451TIP3   OH219316   3.846   2.945   5.242  0.5332 -0.2903  0.2576
 6451TIP3    H119317   3.756   2.971   5.222  0.2917 -1.6554 -0.6085
 6451TIP3    H219318   3.899   2.991   5.177  0.4877  0.5465  0.7924
 6452TIP3   OH219319   3.580   1.238   2.686 -0.2749 -0.0786 -0.1470
 6452TIP3    H119320   3.553   1.156   2.728  1.0188 -0.7319 -0.5653
 6452TIP3    H219321   3.642   1.277   2.747  0.3211 -0.1970 -0.6718
 6453TIP3   OH219322   0.687   4.592   3.937  0.2308  0.3970 -0.9313
 6453TIP3    H119323   0.633   4.544   3.875 -0.7875  0.2186  0.0706
 6453TIP3    H219324   0.635   4.596   4.017  2.4517 -1.5229  0.7393
 6454TIP3   OH219325   2.572   6.596   0.928 -0.2612  0.2008 -0.3312
 6454TIP3    H119326   2.487   6.627   0.959 -1.2439  0.5369 -3.1470
 6454TIP3    H219327   2.608   6.668   0.877 -0.2350 -1.3797 -2.6810
 6455TIP3   OH219328   4.584   3.204   1.960 -0.1366 -0.0682  0.5031
 6455TIP3    H119329   4.653   3.139   1.971 -0.0819  0.1375  1.4737
 6455TIP3    H219330   4.629   3.288   1.964  0.2145  0.1350 -3.3852
 6456TIP3   OH219331   2.073   3.647   4.364 -0.1371  0.1999  0.4223
 6456TIP3    H119332   2.044   3.736   4.384  0.3637  0.3208  0.6326
 6456TIP3    H219333   2.161   3.658   4.328  0.7429 -0.3302  2.2763
 6457TIP3   OH219334   2.837   5.458   1.597 -0.3606  0.6983 -0.6915
 6457TIP3    H119335   2.924   5.432   1.567  0.4015  1.9104  0.3681
 6457TIP3    H219336   2.850   5.544   1.636 -1.2251 -0.7421  3.1851
 6458TIP3   OH219337   2.044   3.023   5.229  0.0086  1.2182 -0.4385
 6458TIP3    H119338   2.102   3.099   5.226  2.5135 -0.5921 -1.7217
 6458TIP3    H219339   1.997   3.026   5.146 -0.6030  1.8277 -0.0833
 6459TIP3   OH219340   0.645   2.143   2.545 -0.3630 -0.4536  0.0771
 6459TIP3    H119341   0.609   2.215   2.598  0.1748 -0.7345  0.8298
 6459TIP3    H219342   0.672   2.185   2.463  0.0684  0.2331  0.5597
 6460TIP3   OH219343   0.469   1.649   2.580  0.1814 -0.0359  0.2241
 6460TIP3    H119344   0.442   1.574   2.527  1.6263 -0.2001 -0.3264
 6460TIP3    H219345   0.438   1.628   2.668 -1.9083  0.0600 -0.4491
 6461TIP3   OH219346   1.436   6.686   4.667  0.4294  0.2316  0.0483
 6461TIP3    H119347   1.361   6.631   4.644  1.2058 -0.4396 -0.9943
 6461TIP3    H219348   1.512   6.628   4.657  1.3793  1.7219 -2.1996
 6462TIP3   OH219349   7.130   5.584   4.184  0.3028 -0.1154 -0.3412
 6462TIP3    H119350   7.211   5.626   4.215  0.5576  1.4562 -2.8473
 6462TIP3    H219351   7.156   5.533   4.108 -0.7379 -1.4952  0.1799
 6463TIP3   OH219352   1.039   0.235   4.141  0.0739 -0.2560 -0.5507
 6463TIP3    H119353   1.088   0.155   4.160 -0.9112 -0.7665 -0.1147
 6463TIP3    H219354   0.967   0.206   4.085 -2.0446 -0.2417  1.9981
 6464TIP3   OH219355   3.401   4.914   0.918  0.0153 -0.1362  0.0720
 6464TIP3    H119356   3.462   4.927   0.846 -0.2843  0.0227 -0.1568
 6464TIP3    H219357   3.449   4.942   0.996  0.9905 -1.9839  0.1959
 6465TIP3   OH219358   5.439   5.208   5.699  0.1378 -0.2149  0.0261
 6465TIP3    H119359   5.441   5.131   5.642  1.0023  0.5147 -0.9598
 6465TIP3    H219360   5.353   5.247   5.685 -0.2473 -0.8990  0.4186
 6466TIP3   OH219361   1.948   2.260   5.638 -0.2559  1.0105  0.0281
 6466TIP3    H119362   1.877   2.324   5.635 -0.1896  1.0666 -1.7826
 6466TIP3    H219363   1.957   2.230   5.547  0.6529 -0.5331  0.5858
 6467TIP3   OH219364   5.082   2.588   3.623 -0.3935 -0.4113  0.2723
 6467TIP3    H119365   5.175   2.609   3.615 -0.5912  0.3231 -0.2168
 6467TIP3    H219366   5.079   2.492   3.622  0.2676 -0.4484 -0.9043
 6468TIP3   OH219367   6.060   1.830   2.277 -0.2246 -0.1158  0.2035
 6468TIP3    H119368   6.051   1.785   2.361  0.7671  0.2314  0.5133
 6468TIP3    H219369   6.100   1.914   2.300 -0.7384  0.3306 -0.5240
 6469TIP3   OH219370   6.533   1.151   4.101 -0.1274  0.0490 -0.1710
 6469TIP3    H119371   6.536   1.070   4.151  0.3067  0.7085  0.8935
 6469TIP3    H219372   6.474   1.132   4.028  0.1203 -1.2748 -0.0387
 6470TIP3   OH219373   6.846   0.736   3.723  0.0951 -0.0706  0.0971
 6470TIP3    H119374   6.922   0.734   3.665  0.1276 -0.2062  0.1434
 6470TIP3    H219375   6.772   0.750   3.664  0.3173  1.8524  0.2356
 6471TIP3   OH219376   2.079   2.661   2.179 -1.1072  0.4686  0.4832
 6471TIP3    H119377   2.080   2.756   2.166 -0.7121  0.4120  0.0825
 6471TIP3    H219378   2.100   2.650   2.272 -0.4701  0.7529  0.3801
 6472TIP3   OH219379   1.340   0.136   3.244 -0.5996 -0.7063  0.4726
 6472TIP3    H119380   1.306   0.105   3.160 -0.7787 -0.8971  0.6150
 6472TIP3    H219381   1.407   0.072   3.267  1.2673  0.6844 -0.7417
 6473TIP3   OH219382   1.335   2.250   4.702 -0.1739  0.3690  0.8364
 6473TIP3    H119383   1.394   2.326   4.709  0.3335  0.0750 -0.0617
 6473TIP3    H219384   1.297   2.258   4.614  0.8158 -1.0704  0.2455
 6474TIP3   OH219385   3.677   3.132   0.121  0.0963  0.5449  0.1498
 6474TIP3    H119386   3.656   3.217   0.083  1.0421  1.1154  0.8460
 6474TIP3    H219387   3.656   3.069   0.052  1.9139  1.5446 -1.4273
 6475TIP3   OH219388   3.762   1.880   0.269  0.0957  0.2303  0.5167
 6475TIP3    H119389   3.688   1.928   0.308  0.8545  2.5921 -0.7305
 6475TIP3    H219390   3.737   1.867   0.178  0.0434 -1.5592  0.7670
 6476TIP3   OH219391   3.262   1.998   1.131 -0.2394  0.3571  0.2507
 6476TIP3    H119392   3.348   2.041   1.129  0.0147 -0.1118  0.7212
 6476TIP3    H219393   3.250   1.974   1.223 -0.7254  0.1182  0.1276
 6477TIP3   OH219394   5.012   0.680   1.140  0.4000 -0.3938  0.0257
 6477TIP3    H119395   4.993   0.604   1.195 -0.4038 -0.2025  0.0199
 6477TIP3    H219396   4.928   0.704   1.102  1.0236 -0.8739 -1.7687
 6478TIP3   OH219397   6.765   4.879   4.854  0.2246 -0.0144 -0.4513
 6478TIP3    H119398   6.749   4.788   4.830  1.3952 -0.0250 -1.2958
 6478TIP3    H219399   6.780   4.878   4.948 -1.9781 -0.3529 -0.0657
 6479TIP3   OH219400   6.589   5.502   1.358  0.6771  0.1705 -0.3265
 6479TIP3    H119401   6.630   5.507   1.444 -1.7955  0.3984  0.9476
 6479TIP3    H219402   6.614   5.583   1.314  0.4869  0.9303  0.9349
 6480TIP3   OH219403   0.298   3.362   5.363 -0.4560  0.1843  0.5220
 6480TIP3    H119404   0.269   3.285   5.411  0.6171  0.0904  1.0396
 6480TIP3    H219405   0.229   3.427   5.379 -1.3144 -0.6092  0.1693
 6481TIP3   OH219406   0.085   2.991   4.804  0.1478  0.1464  0.0932
 6481TIP3    H119407   0.060   3.083   4.798 -0.1561  0.2174  1.8231
 6481TIP3    H219408   0.176   2.993   4.835  0.2337 -0.1293 -0.1432
 6482TIP3   OH219409   0.609   6.546   2.799  0.9008  0.3375  0.1002
 6482TIP3    H119410   0.671   6.479   2.771  0.3480 -0.5760  1.0459
 6482TIP3    H219411   0.659   6.628   2.792  1.0866  0.0967 -2.6625
 6483TIP3   OH219412   2.261   6.477   4.747  0.0378 -0.0647  0.1007
 6483TIP3    H119413   2.187   6.536   4.729 -0.9957 -0.7681  1.7814
 6483TIP3    H219414   2.313   6.479   4.667  0.3139  3.4485  0.2121
 6484TIP3   OH219415   1.480   3.282   2.754  0.3138 -0.2227  0.4525
 6484TIP3    H119416   1.540   3.328   2.813  1.1498 -0.0092 -0.5370
 6484TIP3    H219417   1.515   3.299   2.666 -1.3574  0.1313 -0.1694
 6485TIP3   OH219418   6.147   4.175   5.911 -0.0135 -0.0391 -0.0865
 6485TIP3    H119419   6.085   4.179   5.839  0.5550 -0.1225 -0.5912
 6485TIP3    H219420   6.205   4.250   5.898  1.2673 -1.1182 -0.8347
 6486TIP3   OH219421   1.925   6.491   2.263 -0.4060  0.0988 -0.7309
 6486TIP3    H119422   1.853   6.474   2.203  1.7305 -1.3468 -3.0999
 6486TIP3    H219423   1.923   6.419   2.326 -1.8620  0.9074  0.2124
 6487TIP3   OH219424   4.085   0.993   1.043 -0.1598  0.0092 -0.2281
 6487TIP3    H119425   4.133   0.951   0.971 -0.8930  1.2003 -1.4505
 6487TIP3    H219426   3.993   0.987   1.017 -0.3539  1.4318  0.0604
 6488TIP3   OH219427   4.233   5.059   1.881 -0.1658 -0.3040 -0.1064
 6488TIP3    H119428   4.304   5.062   1.946  1.0064  0.3820 -1.3519
 6488TIP3    H219429   4.169   5.123   1.912  0.3242 -0.0595  0.4235
 6489TIP3   OH219430   4.155   4.177   5.786 -0.6496 -0.2388 -0.1617
 6489TIP3    H119431   4.133   4.087   5.763  0.4168 -0.6139  0.1904
 6489TIP3    H219432   4.246   4.172   5.816 -0.4461  1.0233 -0.5059
 6490TIP3   OH219433   1.778   2.452   4.081  0.0357  0.2742  0.2736
 6490TIP3    H119434   1.788   2.542   4.052 -1.4091  0.9058  1.5783
 6490TIP3    H219435   1.850   2.438   4.142 -1.5480  1.7557  2.6902
 6491TIP3   OH219436   0.801   0.886   3.237  0.1198  0.0003 -0.0282
 6491TIP3    H119437   0.710   0.908   3.257 -0.2051 -1.1795 -0.1301
 6491TIP3    H219438   0.814   0.799   3.275  0.9810 -0.1595 -0.6493
 6492TIP3   OH219439   5.054   2.476   1.814  0.4308 -0.2990  0.9090
 6492TIP3    H119440   5.010   2.560   1.825  0.8963  0.0374  0.2725
 6492TIP3    H219441   5.103   2.463   1.895  3.2271  1.7775 -0.2878
 6493TIP3   OH219442   0.964   5.006   1.208  0.5959  0.1786 -0.2608
 6493TIP3    H119443   1.038   5.066   1.218  0.8068 -0.2862  1.0917
 6493TIP3    H219444   0.950   4.971   1.295 -0.1858 -0.9712 -0.8337
 6494TIP3   OH219445   0.798   4.545   1.143  0.4304 -0.4430  0.3254
 6494TIP3    H119446   0.832   4.508   1.224  0.5657 -1.3007 -0.1071
 6494TIP3    H219447   0.829   4.486   1.074  1.5883  1.0824 -0.5266
 6495TIP3   OH219448   4.615   6.150   0.327 -0.1989  0.1029 -0.3857
 6495TIP3    H119449   4.542   6.139   0.266 -0.1217 -0.4070 -0.3933
 6495TIP3    H219450   4.596   6.089   0.399  0.1942 -0.0068 -0.3710
 6496TIP3   OH219451   3.506   1.876   2.917  0.5352 -0.2091  0.3615
 6496TIP3    H119452   3.567   1.845   2.850  0.8928  0.1180  0.5260
 6496TIP3    H219453   3.558   1.937   2.969  0.3158 -0.5960  1.0472
 6497TIP3   OH219454   4.070   6.653   1.784 -0.4190  0.5313 -0.3240
 6497TIP3    H119455   4.131   6.681   1.717  2.1724  0.0283  1.6565
 6497TIP3    H219456   4.105   6.569   1.815 -0.9401  1.1813  2.2507
 6498TIP3   OH219457   4.899   4.248   2.386  0.3434  0.0951  0.8434
 6498TIP3    H119458   4.926   4.176   2.329 -1.0854 -0.5198  0.9280
 6498TIP3    H219459   4.982   4.285   2.418  1.2152  0.6855 -1.8723
 6499TIP3   OH219460   5.379   5.286   2.156 -0.1463 -0.0769 -0.2490
 6499TIP3    H119461   5.284   5.278   2.158  0.0073 -4.2496 -0.4401
 6499TIP3    H219462   5.399   5.310   2.065 -1.0025 -0.6027 -0.5932
 6500TIP3   OH219463   1.161   4.210   2.833  0.0919  0.3449  0.4849
 6500TIP3    H119464   1.120   4.248   2.755 -1.0453 -1.0789  0.3449
 6500TIP3    H219465   1.182   4.121   2.808  1.6369  0.4846  1.1750
 6501TIP3   OH219466   4.606   4.269   1.203  0.7803  0.2317 -0.2336
 6501TIP3    H119467   4.686   4.292   1.158  1.2707 -1.3205 -0.2094
 6501TIP3    H219468   4.598   4.174   1.192 -1.6719  0.4750 -1.2477
 6502TIP3   OH219469   3.867   4.423   4.782  0.1794  0.3466  0.1324
 6502TIP3    H119470   3.949   4.418   4.832  0.8897  0.0899 -1.0274
 6502TIP3    H219471   3.892   4.464   4.699  0.2628 -4.3424 -2.4460
 6503TIP3   OH219472   0.623   3.402   5.345  0.8637  0.4013 -0.0636
 6503TIP3    H119473   0.647   3.380   5.255  0.6523 -0.6660  0.1308
 6503TIP3    H219474   0.530   3.380   5.352  0.9426  0.2174  0.4958
 6504TIP3   OH219475   2.297   4.809   0.155  0.0332  0.2179  0.3222
 6504TIP3    H119476   2.299   4.825   0.060 -0.0595 -0.4073  0.2086
 6504TIP3    H219477   2.204   4.803   0.176 -0.0277  2.1236  0.7788
 6505TIP3   OH219478   1.659   2.997   0.981 -0.4963  0.1774 -0.4376
 6505TIP3    H119479   1.625   3.061   0.919 -2.0064 -0.3645 -0.2179
 6505TIP3    H219480   1.646   2.912   0.938 -1.0152 -0.1617  0.3676
 6506TIP3   OH219481   6.726   5.569   3.634  0.5119 -0.0628  0.4608
 6506TIP3    H119482   6.783   5.503   3.673 -0.5795 -0.3064  1.7256
 6506TIP3    H219483   6.749   5.650   3.679  0.1095 -0.1010  0.7476
 6507TIP3   OH219484   3.773   1.985   2.432  0.4615  0.3076 -0.0712
 6507TIP3    H119485   3.812   1.900   2.412  0.4798  0.7371 -2.0199
 6507TIP3    H219486   3.840   2.049   2.405 -1.0548  1.0250 -2.4059
 6508TIP3   OH219487   0.733   3.822   2.465  0.3119 -0.7280  0.1504
 6508TIP3    H119488   0.734   3.907   2.510 -0.4857 -1.6170  1.9838
 6508TIP3    H219489   0.791   3.833   2.390 -0.8376  1.8437 -0.4684
 6509TIP3   OH219490   4.252   0.706   2.522 -0.2285  1.0929 -0.1957
 6509TIP3    H119491   4.241   0.613   2.501 -0.7281  0.5060  2.3549
 6509TIP3    H219492   4.203   0.752   2.454 -3.8686 -0.7249  0.9571
 6510TIP3   OH219493   5.956   2.805   4.775  0.3340 -0.3188  0.5514
 6510TIP3    H119494   5.886   2.804   4.710  0.2192  1.5436  0.5879
 6510TIP3    H219495   5.951   2.719   4.817 -0.9046 -0.7984 -0.5097
 6511TIP3   OH219496   6.189   0.448   3.893 -0.5289 -0.4095 -0.1925
 6511TIP3    H119497   6.206   0.446   3.799 -0.3821  0.2436 -0.1803
 6511TIP3    H219498   6.166   0.357   3.915  1.4163 -1.0120 -0.4821
 6512TIP3   OH219499   2.944   0.463   5.024  0.2930 -0.0784  0.1306
 6512TIP3    H119500   2.870   0.403   5.028  1.3901 -1.5342 -0.5957
 6512TIP3    H219501   2.914   0.541   5.071 -2.1155 -0.1437 -1.1200
 6513TIP3   OH219502   0.162   5.968   3.637 -0.0333 -0.6860  0.0188
 6513TIP3    H119503   0.130   5.879   3.654  1.1457 -1.0635  0.3251
 6513TIP3    H219504   0.169   5.972   3.542 -1.4624 -0.4084 -0.1028
 6514TIP3   OH219505   2.201   2.968   1.853 -1.0767  0.3708  0.7139
 6514TIP3    H119506   2.232   2.892   1.903 -3.7529 -0.0486  1.8915
 6514TIP3    H219507   2.174   2.932   1.769 -1.5006  0.1599  0.9376
 6515TIP3   OH219508   0.810   0.754   5.308 -0.0884  0.2314 -0.0296
 6515TIP3    H119509   0.764   0.765   5.225 -0.1719 -0.4163 -0.0745
 6515TIP3    H219510   0.743   0.720   5.368  0.6202 -2.0063 -0.4390
 6516TIP3   OH219511   3.479   1.301   3.173  0.0485  0.9172  0.6052
 6516TIP3    H119512   3.486   1.324   3.266  0.4081  0.8805  0.5920
 6516TIP3    H219513   3.397   1.253   3.166  0.6166 -0.1903  1.1549
 6517TIP3   OH219514   5.229   6.441   1.389  0.4312  0.6931 -0.0234
 6517TIP3    H119515   5.265   6.383   1.322  0.4972  0.3102  0.3417
 6517TIP3    H219516   5.303   6.498   1.414  0.6182  0.3192  0.2809
 6518TIP3   OH219517   5.225   1.252   3.685 -0.0035  0.0614  0.3550
 6518TIP3    H119518   5.218   1.207   3.770 -0.0226 -2.2341 -0.7994
 6518TIP3    H219519   5.164   1.206   3.628  0.9967  0.6802 -1.2817
 6519TIP3   OH219520   6.582   0.767   0.894  0.4026 -0.2297  0.0129
 6519TIP3    H119521   6.641   0.843   0.897 -0.9266  0.8343  0.1882
 6519TIP3    H219522   6.609   0.720   0.815  2.2086 -0.4115  0.6883
 6520TIP3   OH219523   4.967   3.400   1.663 -0.0109  0.2374  0.0762
 6520TIP3    H119524   4.882   3.431   1.695 -1.1835 -1.2850 -1.3284
 6520TIP3    H219525   5.031   3.448   1.714 -1.7219  1.2269  1.4194
 6521TIP3   OH219526   4.700   4.057   4.233  0.1003 -0.5554 -0.3268
 6521TIP3    H119527   4.754   4.097   4.301 -0.7098  0.3350 -0.1777
 6521TIP3    H219528   4.762   4.011   4.177  0.7409 -1.7190  1.2634
 6522TIP3   OH219529   3.750   0.149   2.547  0.2528  0.3086 -0.7772
 6522TIP3    H119530   3.780   0.207   2.616 -1.8913 -0.7694  1.2147
 6522TIP3    H219531   3.667   0.188   2.518 -0.8092 -1.2211  0.0308
 6523TIP3   OH219532   1.527   0.590   1.348  0.2603 -0.1269  0.3523
 6523TIP3    H119533   1.501   0.598   1.256 -2.1382  2.1236  1.1115
 6523TIP3    H219534   1.570   0.673   1.368 -0.9671  0.2217  1.7018
 6524TIP3   OH219535   6.009   5.156   1.829 -0.1067 -0.3780  0.2494
 6524TIP3    H119536   5.992   5.079   1.883 -0.5576 -0.3864  0.0975
 6524TIP3    H219537   6.074   5.206   1.879  0.1752 -0.8396  0.3593
 6525TIP3   OH219538   4.812   1.449   3.593  0.6031  0.3346 -0.2990
 6525TIP3    H119539   4.788   1.524   3.539  0.5093  0.5296  0.0101
 6525TIP3    H219540   4.728   1.409   3.615  0.6336  0.3325 -0.1880
 6526TIP3   OH219541   1.461   1.162   5.899 -0.0819  0.3125  0.2974
 6526TIP3    H119542   1.521   1.088   5.893  0.6432  0.9727 -0.8868
 6526TIP3    H219543   1.408   1.157   5.820 -0.4523  0.7055  0.5149
 6527TIP3   OH219544   4.202   1.775   0.671 -0.0246 -0.1122 -1.1670
 6527TIP3    H119545   4.107   1.762   0.666 -0.0828 -0.3083  0.1501
 6527TIP3    H219546   4.239   1.691   0.645 -0.2489 -0.4209 -0.5164
 6528TIP3   OH219547   2.769   3.493   2.141  0.4106 -0.4274 -0.0330
 6528TIP3    H119548   2.813   3.578   2.131 -1.7036  0.6199 -1.1345
 6528TIP3    H219549   2.785   3.448   2.058  1.2041 -0.9597  0.4027
 6529TIP3   OH219550   5.267   2.002   1.461  0.6847  0.0092 -0.4046
 6529TIP3    H119551   5.194   1.940   1.465 -0.4294  1.3270  1.8200
 6529TIP3    H219552   5.273   2.027   1.369 -0.9482 -0.9447 -0.8093
 6530TIP3   OH219553   6.183   6.603   1.277  0.1427  0.1531  0.6573
 6530TIP3    H119554   6.208   6.513   1.297 -0.7367 -0.2776 -0.0642
 6530TIP3    H219555   6.211   6.615   1.186  0.0306  0.5291  0.6726
 6531TIP3   OH219556   0.475   6.752   2.211 -0.3011  0.4887 -0.3334
 6531TIP3    H119557   0.452   6.752   2.304 -0.8078  3.1562 -0.3851
 6531TIP3    H219558   0.568   6.731   2.209 -0.6785 -1.4880  0.5818
 6532TIP3   OH219559   4.607   1.241   3.256 -0.5619 -0.3640 -0.2035
 6532TIP3    H119560   4.589   1.333   3.279  1.1475  0.3189 -1.3455
 6532TIP3    H219561   4.562   1.229   3.172 -1.2253 -0.7543  0.2013
 6533TIP3   OH219562   4.531   6.839   1.915  0.7257  0.3859 -0.4984
 6533TIP3    H119563   4.494   6.757   1.948 -0.4725  0.8052 -0.7333
 6533TIP3    H219564   4.618   6.816   1.883  0.9607 -0.5142  0.7047
 6534TIP3   OH219565   0.395   3.144   1.456  0.3565 -0.3264  0.0549
 6534TIP3    H119566   0.395   3.191   1.373  0.6251  0.8771  0.7142
 6534TIP3    H219567   0.408   3.212   1.522 -0.5878 -1.1567  1.1385
 6535TIP3   OH219568   3.564   1.366   1.410  0.1634  0.1569  0.0629
 6535TIP3    H119569   3.598   1.455   1.410 -0.5767  0.4920 -1.8097
 6535TIP3    H219570   3.480   1.372   1.454  0.1557  0.3685  0.0188
 6536TIP3   OH219571   0.214   6.558   0.299  0.4482 -0.0731  0.2098
 6536TIP3    H119572   0.127   6.525   0.319 -0.1026  0.4907 -1.1365
 6536TIP3    H219573   0.273   6.501   0.348 -0.6401 -0.8904  0.6067
 6537TIP3   OH219574   5.421   2.695   0.883  0.0770  0.0531 -0.6097
 6537TIP3    H119575   5.438   2.688   0.977 -0.1171 -1.8302 -0.6953
 6537TIP3    H219576   5.508   2.688   0.843  0.0014 -0.8123 -0.6363
 6538TIP3   OH219577   4.234   6.451   5.117  0.6797  0.1390  0.0633
 6538TIP3    H119578   4.235   6.499   5.034  1.1540  2.2885  1.2467
 6538TIP3    H219579   4.144   6.422   5.126  0.3372  0.9174 -0.6560
 6539TIP3   OH219580   4.292   6.336   3.517  0.4284  0.0538  0.2284
 6539TIP3    H119581   4.266   6.245   3.534  1.5836 -0.5228 -0.9723
 6539TIP3    H219582   4.387   6.333   3.512  0.4098  1.0661 -1.2670
 6540TIP3   OH219583   3.364   5.724   4.085  0.3871  0.6851  0.2594
 6540TIP3    H119584   3.294   5.674   4.044 -0.4133  2.1465 -0.2508
 6540TIP3    H219585   3.441   5.667   4.080 -0.6236 -0.7338  0.3247
 6541TIP3   OH219586   5.936   6.513   2.084 -0.2477  0.2852  0.2772
 6541TIP3    H119587   5.986   6.489   2.006  0.0712  0.8243  0.3070
 6541TIP3    H219588   5.869   6.445   2.092 -0.7938  0.6471 -0.9369
 6542TIP3   OH219589   6.410   0.428   4.377  0.1999  0.0645  0.3232
 6542TIP3    H119590   6.383   0.471   4.295 -2.5293  0.4935  1.3306
 6542TIP3    H219591   6.441   0.342   4.349  1.0107  0.8348 -1.3050
 6543TIP3   OH219592   5.990   0.361   1.658 -0.5465 -0.2019 -0.1883
 6543TIP3    H119593   5.953   0.326   1.577 -1.5624 -0.8254  0.5268
 6543TIP3    H219594   6.081   0.382   1.636 -0.5301 -1.2850 -1.2099
 6544TIP3   OH219595   6.414   6.309   4.041  0.1824  0.2215  0.7167
 6544TIP3    H119596   6.466   6.231   4.023  0.3996  0.1954  1.4183
 6544TIP3    H219597   6.396   6.347   3.955 -0.8958 -1.2137  0.2668
 6545TIP3   OH219598   1.477   5.856   0.329  0.2282 -0.0101 -0.3359
 6545TIP3    H119599   1.476   5.841   0.424  0.0030  0.4056 -0.2686
 6545TIP3    H219600   1.453   5.948   0.319  0.8537  0.1140 -0.7687
 6546TIP3   OH219601   5.304   1.324   4.943  0.2288 -0.5646  0.4266
 6546TIP3    H119602   5.292   1.332   5.038  2.2591  0.8716  0.6293
 6546TIP3    H219603   5.397   1.305   4.932  0.1574 -0.0591 -1.2928
 6547TIP3   OH219604   0.044   2.170   2.965 -0.7739  0.3334 -1.0477
 6547TIP3    H119605   0.020   2.235   2.899  0.4718  1.0138 -0.8546
 6547TIP3    H219606   0.138   2.183   2.979 -1.1328  0.7451  1.4048
 6548TIP3   OH219607   1.990   0.621   5.298  0.3458 -0.2505 -0.6003
 6548TIP3    H119608   2.020   0.710   5.277 -1.1350  0.6280  0.7044
 6548TIP3    H219609   1.902   0.616   5.259 -0.3188 -0.4435  0.8531
 6549TIP3   OH219610   0.360   3.916   2.604  0.3418  0.0576 -0.9740
 6549TIP3    H119611   0.423   3.895   2.535  0.9745  0.4060 -0.5070
 6549TIP3    H219612   0.282   3.944   2.557  1.0236  1.0559 -1.5569
 6550TIP3   OH219613   1.573   1.312   5.035 -0.1137  0.5192 -0.1069
 6550TIP3    H119614   1.584   1.266   5.117 -1.9396  0.9112  0.4191
 6550TIP3    H219615   1.657   1.354   5.018  0.2326  0.5809  1.6585
 6551TIP3   OH219616   2.029   1.920   1.428  0.3475 -0.1293  0.0464
 6551TIP3    H119617   2.077   1.934   1.346 -0.8697 -0.0860 -0.6891
 6551TIP3    H219618   1.941   1.897   1.400 -0.4772  1.2440  1.3391
 6552TIP3   OH219619   1.584   2.862   5.381 -0.1137 -0.3796 -0.0088
 6552TIP3    H119620   1.568   2.774   5.347 -1.8327 -0.6553  1.3992
 6552TIP3    H219621   1.587   2.917   5.302  0.2388 -1.5700 -0.8592
 6553TIP3   OH219622   1.465   0.572   5.117 -0.4466  0.3219  0.2415
 6553TIP3    H119623   1.512   0.555   5.036  0.3661  2.4073  0.1980
 6553TIP3    H219624   1.522   0.537   5.186 -1.5622 -2.2831 -0.0568
 6554TIP3   OH219625   0.555   5.838   0.116 -0.1753 -0.4119 -0.3201
 6554TIP3    H119626   0.520   5.753   0.091 -0.1200 -0.3602 -0.5831
 6554TIP3    H219627   0.634   5.848   0.061 -0.2975 -0.1047 -0.4408
 6555TIP3   OH219628   0.883   1.348   3.313 -1.1164 -0.3518  0.2519
 6555TIP3    H119629   0.953   1.316   3.370 -0.0620  0.2325 -0.6947
 6555TIP3    H219630   0.912   1.435   3.285 -3.1537  0.8305  1.4473
 6556TIP3   OH219631   3.988   4.746   4.904 -0.1838  0.1775  0.6281
 6556TIP3    H119632   4.012   4.825   4.856 -0.6129 -1.0568 -1.8289
 6556TIP3    H219633   3.909   4.715   4.860  0.4893 -2.0880  0.8621
 6557TIP3   OH219634   6.255   1.889   3.437  0.0164 -0.0021  0.1313
 6557TIP3    H119635   6.302   1.913   3.517 -0.4070 -0.1106  0.4173
 6557TIP3    H219636   6.298   1.939   3.367  0.1797  0.3390  0.4751
 6558TIP3   OH219637   3.120   2.751   0.575  0.0195 -0.5820  0.2736
 6558TIP3    H119638   3.149   2.679   0.518  1.2884 -0.0113  0.1498
 6558TIP3    H219639   3.048   2.792   0.528 -0.8206 -1.8592  0.4144
 6559TIP3   OH219640   4.208   5.890   1.629  0.2802  0.3229  0.4084
 6559TIP3    H119641   4.303   5.884   1.640  0.5845  0.2209 -1.9106
 6559TIP3    H219642   4.182   5.806   1.591 -0.6999  0.4847  0.6799
 6560TIP3   OH219643   4.187   6.552   2.332  0.1975  0.5303  0.0361
 6560TIP3    H119644   4.249   6.481   2.314  0.4358  0.6282  0.4566
 6560TIP3    H219645   4.172   6.548   2.426  0.1681  1.0049  0.0552
 6561TIP3   OH219646   0.718   6.605   3.903 -0.4424  0.6559  0.5859
 6561TIP3    H119647   0.722   6.539   3.834 -0.6880 -1.4185  2.4409
 6561TIP3    H219648   0.806   6.603   3.942  0.0130  2.5297 -0.2212
 6562TIP3   OH219649   0.033   1.656   5.719 -0.1655 -0.3201  0.3151
 6562TIP3    H119650   0.093   1.687   5.651  1.1935 -1.2609  1.0386
 6562TIP3    H219651  -0.005   1.576   5.683 -0.6642  0.0320  0.0416
 6563TIP3   OH219652   6.222   4.784   0.631  0.7287 -0.0870 -0.3629
 6563TIP3    H119653   6.227   4.706   0.687  1.5043  0.2168  0.0100
 6563TIP3    H219654   6.277   4.762   0.556 -0.8133 -0.7438 -1.3583
 6564TIP3   OH219655   1.565   0.354   3.512  0.3549  0.2029 -0.0551
 6564TIP3    H119656   1.535   0.430   3.463 -0.1620 -0.0076 -0.0718
 6564TIP3    H219657   1.571   0.385   3.603 -3.2330 -0.5747  0.6157
 6565TIP3   OH219658   5.869   3.306   4.586  0.0062 -0.9748 -0.3271
 6565TIP3    H119659   5.955   3.347   4.592  0.5269 -2.1410  0.2836
 6565TIP3    H219660   5.837   3.330   4.499  0.9130 -0.4978 -0.5377
 6566TIP3   OH219661   6.487   5.330   3.018  0.1103 -0.3952  1.2930
 6566TIP3    H119662   6.546   5.387   2.969 -1.5010 -0.7493 -1.2463
 6566TIP3    H219663   6.543   5.260   3.051  1.4750  0.5109  0.9557
 6567TIP3   OH219664   4.046   1.880   4.916  0.5303  0.5539 -0.4050
 6567TIP3    H119665   3.973   1.828   4.948  1.4585  0.0994  1.0698
 6567TIP3    H219666   4.109   1.880   4.988  2.0059  0.9041 -1.6424
 6568TIP3   OH219667   5.750   4.932   5.374  0.5209 -0.7773  0.0233
 6568TIP3    H119668   5.748   4.982   5.456  1.9746  0.1241 -0.4382
 6568TIP3    H219669   5.730   4.997   5.306  0.1760 -1.3264 -0.4127
 6569TIP3   OH219670   2.151   5.633   5.271 -0.1490 -0.0172 -0.7468
 6569TIP3    H119671   2.186   5.594   5.191 -2.8139 -1.8733 -1.1523
 6569TIP3    H219672   2.197   5.588   5.342  1.2698  0.6725 -1.2030
 6570TIP3   OH219673   4.023   0.781   5.098 -0.1309  0.7413 -0.6600
 6570TIP3    H119674   4.118   0.773   5.104 -0.3339 -3.5619 -0.0585
 6570TIP3    H219675   3.990   0.736   5.176 -2.6291 -0.3280 -2.2097
 6571TIP3   OH219676   2.802   3.640   4.977  0.3062  0.2018  0.2115
 6571TIP3    H119677   2.769   3.635   5.066  0.9177  0.4847  0.4617
 6571TIP3    H219678   2.724   3.631   4.921  0.1281 -2.0310  0.7161
 6572TIP3   OH219679   4.908   4.821   1.859 -0.2654 -0.1123 -0.0052
 6572TIP3    H119680   4.888   4.785   1.946 -0.4636  0.5409  0.2235
 6572TIP3    H219681   4.997   4.790   1.841  0.1320  0.5019  0.8356
 6573TIP3   OH219682   4.511   6.152   0.800 -0.0236  0.1421 -0.2303
 6573TIP3    H119683   4.559   6.137   0.881  1.0539  1.2620 -0.6119
 6573TIP3    H219684   4.460   6.231   0.816 -0.6750 -0.2701 -0.2756
 6574TIP3   OH219685   4.813   3.141   1.262 -0.2326  0.5540 -0.4708
 6574TIP3    H119686   4.779   3.099   1.340  3.1414 -0.4607  0.6376
 6574TIP3    H219687   4.836   3.230   1.290 -0.3133  0.6477 -0.6962
 6575TIP3   OH219688   0.226   1.963   3.504 -0.5976 -0.4359 -0.6149
 6575TIP3    H119689   0.133   1.985   3.499 -0.7895 -1.1804 -0.4139
 6575TIP3    H219690   0.263   1.995   3.421 -1.3439 -1.5612 -1.4111
 6576TIP3   OH219691   1.428   4.575   1.408  0.2372  0.2296 -0.0455
 6576TIP3    H119692   1.407   4.658   1.450  0.9818  0.4160 -0.0356
 6576TIP3    H219693   1.493   4.534   1.466  2.0558  0.9402 -1.4687
 6577TIP3   OH219694   2.821   3.370   4.994 -0.2625  0.0452 -0.0988
 6577TIP3    H119695   2.829   3.463   4.977 -0.6673  0.3996  1.4950
 6577TIP3    H219696   2.769   3.336   4.921 -0.0716  1.0485 -0.7147
 6578TIP3   OH219697   4.129   3.193   0.131 -0.3131  0.0186 -0.4927
 6578TIP3    H119698   4.104   3.279   0.098  0.2320  1.8003  3.2480
 6578TIP3    H219699   4.048   3.143   0.134 -1.1957  1.4239 -0.1017
 6579TIP3   OH219700   1.024   2.444   4.192 -0.2607  0.2913  0.0620
 6579TIP3    H119701   1.101   2.474   4.240  0.2382 -0.3727 -0.2994
 6579TIP3    H219702   0.989   2.373   4.245 -0.8456  0.8222  0.4052
 6580TIP3   OH219703   1.998   4.839   5.023 -0.4281 -0.3315  0.0588
 6580TIP3    H119704   2.028   4.757   5.062 -1.7510 -0.4985  0.7962
 6580TIP3    H219705   1.978   4.817   4.932  2.7612  0.0796 -0.8699
 6581TIP3   OH219706   6.620   4.210   0.556  0.9663 -0.0431  0.7392
 6581TIP3    H119707   6.690   4.272   0.537  0.6977  0.2901  0.8313
 6581TIP3    H219708   6.661   4.144   0.612  0.8099  1.0471  2.1869
 6582TIP3   OH219709   2.076   6.548   0.676  0.5164 -0.0716 -0.4213
 6582TIP3    H119710   2.149   6.600   0.710  0.3417  0.8572 -1.4140
 6582TIP3    H219711   2.112   6.503   0.600  0.2131 -0.0832 -0.5599
 6583TIP3   OH219712   1.643   3.787   0.283 -0.1457 -0.4392  0.4399
 6583TIP3    H119713   1.634   3.759   0.374  0.2072 -1.3797  0.1905
 6583TIP3    H219714   1.717   3.736   0.249  1.1493  1.4447  0.2278
 6584TIP3   OH219715   3.257   4.121   3.584  0.1711 -0.2572 -0.4002
 6584TIP3    H119716   3.179   4.095   3.534  0.8366 -1.2233 -0.9514
 6584TIP3    H219717   3.318   4.152   3.517 -0.0542  1.3856  0.1115
 6585TIP3   OH219718   3.588   2.916   1.333  0.6682 -0.4469  0.7245
 6585TIP3    H119719   3.556   2.831   1.362  0.6478 -0.7450 -0.1545
 6585TIP3    H219720   3.676   2.922   1.371  0.6928 -0.8857  0.7424
 6586TIP3   OH219721   1.202   5.785   3.484 -0.4124  0.2325  0.0179
 6586TIP3    H119722   1.258   5.862   3.475 -1.7094  1.2734  0.5189
 6586TIP3    H219723   1.151   5.802   3.564 -0.4730 -1.3209  0.3474
 6587TIP3   OH219724   5.754   5.667   2.211  0.3017  0.5923 -0.0916
 6587TIP3    H119725   5.769   5.658   2.117 -0.5516 -3.0566 -0.0455
 6587TIP3    H219726   5.659   5.666   2.221  0.3855  0.6417  0.8352
 6588TIP3   OH219727   3.008   5.789   2.389 -0.3829  0.3604  0.6419
 6588TIP3    H119728   3.104   5.786   2.382 -0.4071 -1.6286  0.5764
 6588TIP3    H219729   2.989   5.880   2.410  1.4368  1.0608 -0.5044
 6589TIP3   OH219730   2.198   1.497   2.645  0.4491  0.4506  0.5037
 6589TIP3    H119731   2.288   1.478   2.620  0.1580  0.1011 -0.3072
 6589TIP3    H219732   2.146   1.430   2.600  0.0063 -1.2525  3.2846
 6590TIP3   OH219733   5.271   3.736   4.849  0.5251 -0.4782  0.1133
 6590TIP3    H119734   5.361   3.738   4.816 -0.0575 -1.0414 -1.6414
 6590TIP3    H219735   5.273   3.673   4.921  1.3664 -1.1961 -0.5202
 6591TIP3   OH219736   2.146   0.950   1.730  0.3976  0.6417  0.8490
 6591TIP3    H119737   2.177   1.040   1.731 -0.6900  1.1827 -2.1627
 6591TIP3    H219738   2.052   0.957   1.747 -0.0039  0.3352 -1.0235
 6592TIP3   OH219739   6.767   1.485   0.234  0.0459 -0.6704 -0.3209
 6592TIP3    H119740   6.766   1.389   0.237  0.7488 -0.6651  0.3507
 6592TIP3    H219741   6.848   1.509   0.279  0.5825  0.2040 -1.7057
 6593TIP3   OH219742   3.283   4.806   3.287 -0.3508 -0.5218  0.3900
 6593TIP3    H119743   3.227   4.866   3.336 -0.8085 -1.0888  0.5702
 6593TIP3    H219744   3.312   4.857   3.211 -1.0410 -0.1964  0.3395
 6594TIP3   OH219745   0.981   3.893   1.901 -0.7798 -0.3957 -0.2142
 6594TIP3    H119746   0.895   3.894   1.943 -0.6814  0.2638 -0.0202
 6594TIP3    H219747   0.994   3.802   1.875 -1.4017 -0.5580  0.0334
 6595TIP3   OH219748   6.056   4.564   3.674  0.2967 -0.1768 -0.0971
 6595TIP3    H119749   6.125   4.558   3.608  0.9127 -0.3365  0.5507
 6595TIP3    H219750   6.089   4.513   3.748 -0.9590 -1.1416 -0.1540
 6596TIP3   OH219751   6.184   2.994   2.682  0.3511  0.2807  0.4602
 6596TIP3    H119752   6.098   3.035   2.686 -1.2603 -2.6620 -0.4790
 6596TIP3    H219753   6.212   2.985   2.773 -0.9716  0.1363  0.8644
 6597TIP3   OH219754   5.194   0.299   2.272  0.6645  0.0891 -0.1782
 6597TIP3    H119755   5.256   0.257   2.213  1.4690 -2.1123  2.0742
 6597TIP3    H219756   5.109   0.264   2.246  0.9697 -0.6155 -0.2505
 6598TIP3   OH219757   1.113   3.607   5.761  0.4410 -0.1241 -0.6186
 6598TIP3    H119758   1.166   3.613   5.682  0.6629  0.0254 -0.4611
 6598TIP3    H219759   1.170   3.563   5.825 -0.3010 -1.7434 -1.0190
 6599TIP3   OH219760   0.758   3.624   3.204 -0.0405 -0.3370  0.1302
 6599TIP3    H119761   0.718   3.686   3.144 -1.5918  0.0295  1.4755
 6599TIP3    H219762   0.822   3.676   3.253  0.6716 -0.4628 -0.6484
 6600TIP3   OH219763   4.405   1.880   5.528  0.2824  0.0045  0.0520
 6600TIP3    H119764   4.359   1.799   5.503 -1.5380  0.8587  0.4631
 6600TIP3    H219765   4.497   1.858   5.521 -0.1681 -1.7558 -1.0110
 6601TIP3   OH219766   2.785   2.264   4.748 -0.1129 -0.1791 -0.1432
 6601TIP3    H119767   2.770   2.302   4.834  1.0751 -1.2112  0.5465
 6601TIP3    H219768   2.870   2.300   4.721 -0.0482 -0.5712 -0.4708
 6602TIP3   OH219769   4.984   5.103   4.979  0.3547 -0.4605  0.2983
 6602TIP3    H119770   5.014   5.122   4.890  0.6262 -1.5391  0.1417
 6602TIP3    H219771   5.063   5.113   5.033 -0.2389  2.2919  0.7864
 6603TIP3   OH219772   5.347   4.791   1.224 -0.0155  0.3480  0.2102
 6603TIP3    H119773   5.363   4.699   1.244  1.6485  0.1490 -1.7240
 6603TIP3    H219774   5.323   4.791   1.131  2.2873  2.0167 -0.4638
 6604TIP3   OH219775   4.081   0.699   0.652  0.9184  0.3295 -0.6060
 6604TIP3    H119776   4.099   0.759   0.724 -1.6653  0.4784  0.0386
 6604TIP3    H219777   4.036   0.753   0.587 -0.6427 -0.6671 -0.4054
 6605TIP3   OH219778   1.778   0.240   4.020  0.1901  0.0077 -0.2466
 6605TIP3    H119779   1.749   0.326   4.050 -0.6379 -0.5369  0.5709
 6605TIP3    H219780   1.803   0.194   4.100  1.6763 -0.1615 -0.7665
 6606TIP3   OH219781   5.734   2.749   4.609 -0.5657  0.0350 -0.7002
 6606TIP3    H119782   5.759   2.742   4.517  1.4329  2.3213 -0.4190
 6606TIP3    H219783   5.641   2.773   4.606 -0.4051  0.6078 -2.1565
 6607TIP3   OH219784   4.412   2.767   0.881 -0.7776 -0.1411 -0.2778
 6607TIP3    H119785   4.395   2.692   0.939  0.6362 -0.6395 -0.4684
 6607TIP3    H219786   4.507   2.767   0.870 -0.9739  0.2298 -2.2339
 6608TIP3   OH219787   1.851   2.507   3.087  0.2847 -0.2260  0.0725
 6608TIP3    H119788   1.857   2.488   3.181  1.1768  0.7179  0.2184
 6608TIP3    H219789   1.779   2.571   3.081  0.4939  0.0180  0.1613
 6609TIP3   OH219790   6.948   4.510   1.855 -0.4525  0.4952 -0.4434
 6609TIP3    H119791   6.906   4.483   1.774 -0.1394 -0.9680 -0.1325
 6609TIP3    H219792   7.023   4.563   1.827 -0.0338 -0.4468 -1.1244
 6610TIP3   OH219793   6.537   4.856   3.511  0.2285 -0.1712 -0.1388
 6610TIP3    H119794   6.505   4.855   3.420  0.8842  3.3141 -0.5761
 6610TIP3    H219795   6.461   4.833   3.564 -0.8461  0.1484 -1.4925
 6611TIP3   OH219796   1.479   5.604   1.911  1.1017 -0.0319  0.0933
 6611TIP3    H119797   1.571   5.580   1.907  0.8331 -1.4267  1.2666
 6611TIP3    H219798   1.447   5.565   1.993 -0.4378  0.7595 -0.0769
 6612TIP3   OH219799   4.750   6.601   5.796  0.2763  0.2726 -0.1926
 6612TIP3    H119800   4.744   6.586   5.890  0.0809 -2.9781 -0.6219
 6612TIP3    H219801   4.659   6.615   5.768  0.1322 -0.3839 -0.0792
 6613TIP3   OH219802   0.921   3.421   5.467  0.8028 -0.0892 -0.4960
 6613TIP3    H119803   0.933   3.329   5.493 -0.1931  0.5408  2.5892
 6613TIP3    H219804   0.826   3.430   5.457  0.6926  1.0137  1.2199
 6614TIP3   OH219805   1.969   3.130   2.419 -0.0427 -0.4531  0.0946
 6614TIP3    H119806   2.028   3.203   2.440 -0.7134 -0.2224  1.2181
 6614TIP3    H219807   1.956   3.137   2.324  1.5909 -0.4085 -0.1630
 6615TIP3   OH219808   5.914   5.784   4.839 -0.2175 -0.1804 -0.0398
 6615TIP3    H119809   5.909   5.862   4.783 -1.5299 -0.1597  0.0697
 6615TIP3    H219810   5.987   5.734   4.803  1.4216  1.6096  0.5845
 6616TIP3   OH219811   1.892   0.922   2.489 -0.0190  0.5067  0.4330
 6616TIP3    H119812   1.855   0.913   2.577  0.6660  0.8020  0.7627
 6616TIP3    H219813   1.985   0.939   2.504  0.0802  0.6976 -0.3462
 6617TIP3   OH219814   4.010   0.903   4.351  0.3679 -0.1270  0.0927
 6617TIP3    H119815   4.018   0.970   4.283 -1.4879 -0.3253 -0.3847
 6617TIP3    H219816   4.100   0.883   4.375  1.0352  1.0232 -1.2445
 6618TIP3   OH219817   0.040   4.596   4.063  0.1684  0.7311 -0.6299
 6618TIP3    H119818   0.067   4.688   4.072  1.8778  0.1610  0.8132
 6618TIP3    H219819   0.006   4.573   4.149  1.3983 -0.4346 -0.4169
 6619TIP3   OH219820   3.685   5.777   2.984 -0.7850  0.4270 -0.5443
 6619TIP3    H119821   3.637   5.699   3.012  0.2969 -0.4067 -0.9821
 6619TIP3    H219822   3.776   5.760   3.009 -0.4476  1.3077 -1.1512
 6620TIP3   OH219823   2.705   5.205   5.790 -0.6429 -0.1310 -0.0512
 6620TIP3    H119824   2.749   5.123   5.766  1.4185  0.7177  0.5507
 6620TIP3    H219825   2.641   5.180   5.856 -0.0914 -1.2740  0.0679
 6621TIP3   OH219826   5.728   0.355   5.688  0.1064  0.3517  0.0187
 6621TIP3    H119827   5.721   0.279   5.631 -1.2266  0.0338  0.5651
 6621TIP3    H219828   5.816   0.389   5.672  0.3938 -0.7583 -0.9044
 6622TIP3   OH219829   6.319   3.274   2.619  0.0574 -0.4326  0.6961
 6622TIP3    H119830   6.340   3.293   2.710  1.7276 -0.4079  0.3371
 6622TIP3    H219831   6.238   3.223   2.623 -1.3238  1.6715  2.0222
 6623TIP3   OH219832   1.735   2.552   5.832  0.1258 -0.5164  0.4358
 6623TIP3    H119833   1.771   2.503   5.906 -0.0353  0.9908  1.5553
 6623TIP3    H219834   1.694   2.629   5.872 -0.8724 -0.1865 -1.1474
 6624TIP3   OH219835   5.285   2.152   1.224  0.1355  0.5811 -0.4821
 6624TIP3    H119836   5.249   2.081   1.172  1.4024 -1.6128  1.4384
 6624TIP3    H219837   5.345   2.198   1.165  1.8553 -2.0634 -0.9560
 6625TIP3   OH219838   4.736   6.292   0.052  0.1372  0.1208 -0.6391
 6625TIP3    H119839   4.764   6.208   0.090 -1.1795 -0.5697 -1.1097
 6625TIP3    H219840   4.815   6.347   0.054  0.8141 -0.8399  0.4526
 6626TIP3   OH219841   1.864   0.694   3.234 -0.4388 -0.0566  0.1817
 6626TIP3    H119842   1.857   0.610   3.279 -1.1865 -0.3637 -0.4760
 6626TIP3    H219843   1.774   0.714   3.207 -0.2847  1.0015  0.4092
 6627TIP3   OH219844   0.046   5.885   4.091 -0.0341 -0.5648 -0.3256
 6627TIP3    H119845   0.112   5.920   4.030  0.9320 -0.5074  0.7103
 6627TIP3    H219846  -0.034   5.932   4.069  0.8622  1.2073  0.0051
 6628TIP3   OH219847   3.748   3.052   1.801 -0.4490  0.1415 -0.0897
 6628TIP3    H119848   3.785   3.018   1.719  1.1334 -0.5898  0.8843
 6628TIP3    H219849   3.753   2.979   1.862 -3.0436  0.1918  0.2885
 6629TIP3   OH219850   5.699   3.418   3.236 -1.0706 -0.1652 -0.1092
 6629TIP3    H119851   5.643   3.367   3.177 -0.6100 -0.7969 -0.0045
 6629TIP3    H219852   5.643   3.489   3.267 -0.9124  1.1228 -2.5214
 6630TIP3   OH219853   0.474   4.174   2.900  0.6484 -0.2160 -0.0226
 6630TIP3    H119854   0.402   4.236   2.914  0.6046 -0.1912 -0.3500
 6630TIP3    H219855   0.431   4.093   2.874  0.7605 -0.0370 -0.7928
 6631TIP3   OH219856   2.059   5.712   4.938 -0.2254  0.3949 -0.1062
 6631TIP3    H119857   2.101   5.796   4.956  0.8043 -0.0926 -0.1559
 6631TIP3    H219858   2.131   5.655   4.911 -1.0607 -0.1924 -1.1880
 6632TIP3   OH219859   0.337   0.456   2.889  0.3153  0.3504  0.1099
 6632TIP3    H119860   0.251   0.492   2.910  0.2989 -1.1297  3.0995
 6632TIP3    H219861   0.326   0.361   2.895  2.0940  0.1163  0.3877
 6633TIP3   OH219862   2.393   4.676   5.352 -0.1302 -0.4242  0.1135
 6633TIP3    H119863   2.460   4.607   5.347 -0.3459 -0.5824 -0.6760
 6633TIP3    H219864   2.443   4.758   5.350  0.1301 -0.5479  1.1213
 6634TIP3   OH219865   5.369   6.598   3.219  0.2705 -0.4951 -0.6949
 6634TIP3    H119866   5.446   6.642   3.181  0.1905 -0.2090 -0.5264
 6634TIP3    H219867   5.407   6.527   3.272  0.5994  1.3526  1.6929
 6635TIP3   OH219868   0.492   6.470   2.516  0.4242  0.1691  0.1452
 6635TIP3    H119869   0.512   6.511   2.601  0.0796  1.5044 -0.3921
 6635TIP3    H219870   0.471   6.543   2.459  0.9251 -0.6917 -1.1865
 6636TIP3   OH219871   3.632   2.220   3.800 -0.4176  0.0778  0.1442
 6636TIP3    H119872   3.544   2.233   3.765 -1.1089 -0.4612  1.6145
 6636TIP3    H219873   3.619   2.181   3.886  1.1853  1.8346  1.2767
 6637TIP3   OH219874   1.223   1.708   4.235  0.0091 -0.1597  0.2568
 6637TIP3    H119875   1.209   1.802   4.241 -0.8572 -0.3172  0.8932
 6637TIP3    H219876   1.176   1.672   4.310  0.4108 -1.0925  0.0738
 6638TIP3   OH219877   6.073   3.426   0.596  0.2147 -0.4899  0.1600
 6638TIP3    H119878   6.010   3.469   0.654  2.2010  2.4823  0.3766
 6638TIP3    H219879   6.125   3.370   0.654  0.4717  0.3865  0.8074
 6639TIP3   OH219880   6.071   4.824   3.570  0.2357 -0.7669 -0.0349
 6639TIP3    H119881   6.047   4.747   3.621 -1.3151 -1.2937 -1.4544
 6639TIP3    H219882   6.056   4.798   3.479 -0.7543  1.3047 -0.5298
 6640TIP3   OH219883   1.163   0.439   3.886  0.7268  0.1890 -0.6827
 6640TIP3    H119884   1.195   0.413   3.800 -1.1277 -1.1880 -1.0148
 6640TIP3    H219885   1.072   0.465   3.872  0.1717 -0.7249  0.9379
 6641TIP3   OH219886   2.484   1.588   4.977  0.4099  0.1581  0.2268
 6641TIP3    H119887   2.526   1.661   4.932 -0.7603 -0.2561 -1.6902
 6641TIP3    H219888   2.487   1.516   4.913 -1.1982 -0.5292  0.8632
 6642TIP3   OH219889   6.105   3.137   2.253 -0.5558  0.3364  0.1358
 6642TIP3    H119890   6.029   3.087   2.222 -1.3218  0.8481  1.1385
 6642TIP3    H219891   6.158   3.074   2.301 -1.9604  0.6240  2.1613
 6643TIP3   OH219892   1.843   0.394   3.258  0.9170  0.6266  0.9169
 6643TIP3    H119893   1.797   0.362   3.180  1.3495  1.1484  0.4416
 6643TIP3    H219894   1.823   0.329   3.326  0.7455  0.0311  0.3059
 6644TIP3   OH219895   5.633   5.942   5.498  0.4238 -0.4064  0.1343
 6644TIP3    H119896   5.545   5.925   5.529 -0.3131  0.2744 -1.4706
 6644TIP3    H219897   5.669   5.856   5.477 -0.5613 -0.5891 -0.9413
 6645TIP3   OH219898   1.430   1.329   0.008  0.0473 -0.0766 -0.3024
 6645TIP3    H119899   1.504   1.292   0.055 -0.7725  0.2868  1.3486
 6645TIP3    H219900   1.356   1.273   0.033 -0.2334 -0.6019 -2.1319
 6646TIP3   OH219901   1.640   3.017   5.146 -0.4668  0.0275 -0.2241
 6646TIP3    H119902   1.728   3.037   5.115 -0.1614  0.6240  0.9489
 6646TIP3    H219903   1.593   2.986   5.069  0.0438  2.1011 -1.4562
 6647TIP3   OH219904   2.297   4.012   5.367  0.0398  0.1350 -0.2636
 6647TIP3    H119905   2.332   4.096   5.397  0.8951 -0.5270  0.6515
 6647TIP3    H219906   2.235   4.036   5.298 -2.1881  1.7721  2.0697
 6648TIP3   OH219907   5.863   2.806   3.513 -0.2119 -0.2329 -0.4147
 6648TIP3    H119908   5.817   2.731   3.477 -1.4364  0.9258 -1.3658
 6648TIP3    H219909   5.901   2.850   3.437 -2.7041  2.1669 -0.4170
 6649TIP3   OH219910   2.114   6.301   5.005  0.0526  0.3481  0.1774
 6649TIP3    H119911   2.021   6.319   5.018  0.1969  0.5143  1.1210
 6649TIP3    H219912   2.142   6.260   5.088  1.2216  2.0116  0.6566
 6650TIP3   OH219913   7.075   0.999   3.408  0.0276  0.0791  0.6990
 6650TIP3    H119914   7.044   0.914   3.440 -1.6642  0.4139  0.0890
 6650TIP3    H219915   7.083   0.987   3.313 -0.9408  0.7866  0.5124
 6651TIP3   OH219916   3.753   4.973   1.195  0.3156 -0.3692 -0.5511
 6651TIP3    H119917   3.770   5.061   1.160 -4.2415  0.5918 -1.0033
 6651TIP3    H219918   3.770   4.914   1.122  0.5691  0.4834 -1.1927
 6652TIP3   OH219919   1.600   4.758   5.062  0.2409 -0.0739  0.2391
 6652TIP3    H119920   1.564   4.834   5.016  1.4822  1.4122  1.6183
 6652TIP3    H219921   1.666   4.794   5.121  0.3544 -2.1508  1.4890
 6653TIP3   OH219922   3.357   3.325   0.265 -0.2587 -0.2313 -0.7907
 6653TIP3    H119923   3.324   3.235   0.269 -1.2242  0.1538  0.7949
 6653TIP3    H219924   3.289   3.373   0.217 -0.6034 -0.0155 -0.0975
 6654TIP3   OH219925   2.781   0.949   3.116 -0.3975 -0.4897 -0.0689
 6654TIP3    H119926   2.834   1.028   3.124 -1.9699  0.7328 -1.0556
 6654TIP3    H219927   2.716   0.956   3.186 -0.5792 -0.8654 -0.1951
 6655TIP3   OH219928   3.128   4.359   2.240  0.3926 -0.1163  0.4026
 6655TIP3    H119929   3.059   4.343   2.177  1.7422  0.5950 -1.3530
 6655TIP3    H219930   3.115   4.450   2.269  1.6949  0.7461 -1.4994
 6656TIP3   OH219931   6.610   6.772   2.868  0.0116 -0.3566  0.8387
 6656TIP3    H119932   6.649   6.848   2.824  0.0066 -0.9209 -0.1858
 6656TIP3    H219933   6.625   6.787   2.961  1.4786  0.1129  0.5589
 6657TIP3   OH219934   2.132   5.639   5.577 -0.6036  0.6758  0.0949
 6657TIP3    H119935   2.047   5.614   5.612 -0.4710 -0.5811 -0.4227
 6657TIP3    H219936   2.177   5.556   5.560  0.7368  1.3059  0.3724
 6658TIP3   OH219937   2.064   5.184   3.692  0.2271  0.3117  0.3419
 6658TIP3    H119938   2.130   5.130   3.649 -0.6553  0.1517 -0.8839
 6658TIP3    H219939   2.035   5.132   3.767 -0.4751 -0.8846 -0.7106
 6659TIP3   OH219940   0.225   5.875   3.384 -0.1201 -0.1107  0.0764
 6659TIP3    H119941   0.264   5.815   3.447 -0.1593 -0.9037 -0.6336
 6659TIP3    H219942   0.207   5.820   3.307  0.8642  1.0143 -1.0042
 6660TIP3   OH219943   7.145   4.896   2.528 -0.0295  0.1492 -0.2791
 6660TIP3    H119944   7.062   4.851   2.514  0.3747 -0.4466 -0.7965
 6660TIP3    H219945   7.120   4.987   2.547 -0.7682  0.1807 -1.3260
 6661TIP3   OH219946   1.868   0.627   2.464 -0.2665  0.3492  0.6899
 6661TIP3    H119947   1.792   0.567   2.466  0.5112 -0.6582  0.8269
 6661TIP3    H219948   1.834   0.708   2.501 -1.3586  0.0004  0.5122
 6662TIP3   OH219949   3.577   4.698   1.802 -0.0909  0.4471  0.0191
 6662TIP3    H119950   3.634   4.711   1.877 -0.4355  2.7881 -0.0594
 6662TIP3    H219951   3.613   4.621   1.757  1.5163  0.4146  1.2865
 6663TIP3   OH219952   3.605   3.205   5.539  0.0071  0.1315 -0.3830
 6663TIP3    H119953   3.606   3.118   5.581  1.9494  0.6201  0.6892
 6663TIP3    H219954   3.538   3.254   5.588  3.0279  1.0944  3.2895
 6664TIP3   OH219955   4.719   6.699   2.843 -0.1763  0.4608  0.0783
 6664TIP3    H119956   4.657   6.758   2.884 -0.2320  0.9926 -0.7463
 6664TIP3    H219957   4.743   6.637   2.912 -1.3346  0.4690  0.4993
 6665TIP3   OH219958   4.670   4.577   5.590  0.0935 -0.2065 -0.1284
 6665TIP3    H119959   4.745   4.629   5.619 -0.1647 -0.3064  0.7718
 6665TIP3    H219960   4.595   4.616   5.635 -0.5671  0.5069 -1.7729
 6666TIP3   OH219961   0.191   6.500   1.625  0.0982 -0.2862  0.4065
 6666TIP3    H119962   0.098   6.518   1.613  0.1372 -0.3117  0.0633
 6666TIP3    H219963   0.231   6.523   1.541  0.3250 -0.7991  0.3715
 6667TIP3   OH219964   6.393   6.164   3.761 -0.6071  0.1149 -0.6348
 6667TIP3    H119965   6.365   6.254   3.777  0.1752  0.1030  0.9573
 6667TIP3    H219966   6.336   6.134   3.690 -1.5328  1.5379 -0.5443
 6668TIP3   OH219967   1.222   5.552   0.534  0.3029 -0.2077 -0.5689
 6668TIP3    H119968   1.229   5.639   0.494  1.1961  0.2003  0.4279
 6668TIP3    H219969   1.130   5.543   0.556 -0.2807 -0.5411 -2.8595
 6669TIP3   OH219970   4.165   5.888   2.735  0.0258  0.4587  0.3870
 6669TIP3    H119971   4.116   5.970   2.733 -0.7844 -0.0205 -0.1604
 6669TIP3    H219972   4.164   5.861   2.827  0.2864  1.0497  0.5668
 6670TIP3   OH219973   5.120   6.342   5.406 -0.0845  0.1321  0.1804
 6670TIP3    H119974   5.176   6.301   5.340 -0.1682  1.7077 -0.9339
 6670TIP3    H219975   5.077   6.269   5.450 -0.3577 -0.9770 -1.8040
 6671TIP3   OH219976   0.205   0.075   4.544  0.4730  0.4285 -0.6823
 6671TIP3    H119977   0.225   0.063   4.451  0.4882 -0.3120 -0.5862
 6671TIP3    H219978   0.291   0.082   4.586  0.4615  1.7895 -0.8438
 6672TIP3   OH219979   6.038   1.372   3.637 -0.2567 -0.8399  0.3209
 6672TIP3    H119980   6.022   1.434   3.708  0.8802  0.3591 -0.4151
 6672TIP3    H219981   6.081   1.298   3.679  0.0843 -0.2937  0.9612
 6673TIP3   OH219982   6.211   4.127   2.787  0.2457 -0.0257 -0.2493
 6673TIP3    H119983   6.159   4.110   2.865  0.0280  0.5051 -0.2743
 6673TIP3    H219984   6.283   4.182   2.818 -1.1455  2.2596 -0.7992
 6674TIP3   OH219985   5.564   6.408   0.116 -0.0164  0.0803  0.0539
 6674TIP3    H119986   5.618   6.421   0.193  0.4993 -0.5103 -0.2062
 6674TIP3    H219987   5.576   6.317   0.092 -1.7445 -0.2942  0.4444
 6675TIP3   OH219988   3.705   6.619   1.785 -0.3303 -0.1190  0.1270
 6675TIP3    H119989   3.752   6.554   1.838  0.0537  0.1454  0.1076
 6675TIP3    H219990   3.728   6.597   1.695 -1.9195 -1.3239 -0.0402
 6676TIP3   OH219991   1.027   3.962   0.112 -0.6297 -0.0709  0.2056
 6676TIP3    H119992   1.088   4.004   0.172 -0.2032 -1.5042  0.8144
 6676TIP3    H219993   0.976   3.903   0.168  0.0416 -1.7310 -0.8670
 6677TIP3   OH219994   5.604   5.109   4.657  0.4129  0.4226  0.2355
 6677TIP3    H119995   5.691   5.149   4.660  0.5589  0.0789  0.7444
 6677TIP3    H219996   5.549   5.174   4.612  0.7669  0.9522  0.5572
 6678TIP3   OH219997   2.248   5.703   3.923  0.4946  0.2882  0.7778
 6678TIP3    H119998   2.277   5.619   3.889  0.0311  1.0736 -1.8018
 6678TIP3    H219999   2.160   5.686   3.957 -0.5170  0.0651 -1.7234
 6679TIP3   OH220000   1.522   3.879   1.492  0.5167  0.2742  0.1816
 6679TIP3    H120001   1.518   3.854   1.584  4.4123 -0.9912  0.2057
 6679TIP3    H220002   1.612   3.911   1.480 -0.0305  0.9519 -3.0501
 6680TIP3   OH220003   3.506   5.895   1.493 -0.5032 -0.0471  0.5127
 6680TIP3    H120004   3.578   5.831   1.488 -0.3296  0.1259  0.8102
 6680TIP3    H220005   3.543   5.969   1.540 -0.6781  0.3141  0.0789
 6681TIP3   OH220006   1.383   0.339   0.571 -0.4666 -0.6851  0.2308
 6681TIP3    H120007   1.397   0.325   0.478 -2.2997  3.3414 -0.8829
 6681TIP3    H220008   1.434   0.417   0.592  0.1420 -1.6620  2.7316
 6682TIP3   OH220009   1.060   5.968   0.109 -0.9623  0.1143 -0.1946
 6682TIP3    H120010   1.087   6.045   0.158 -2.2692  0.7164 -0.3749
 6682TIP3    H220011   0.981   5.995   0.062 -0.8236 -1.0096 -1.1369
 6683TIP3   OH220012   4.822   1.555   1.664  0.0502 -0.0911  0.3669
 6683TIP3    H120013   4.732   1.539   1.692 -0.6849  1.4173 -1.0270
 6683TIP3    H220014   4.867   1.472   1.682 -1.9388 -1.3777 -0.2483
 6684TIP3   OH220015   1.442   3.856   0.094  0.2541  0.5335  0.0524
 6684TIP3    H120016   1.506   3.865   0.165 -0.7096  0.1292  0.9935
 6684TIP3    H220017   1.463   3.772   0.052  0.6134  0.6151  0.0657
 6685TIP3   OH220018   1.069   3.236   5.779  0.3839  0.4162  0.4281
 6685TIP3    H120019   1.031   3.155   5.812 -0.2355  0.0515 -1.0980
 6685TIP3    H220020   1.029   3.305   5.832 -0.4301 -0.1547  0.5737
 6686TIP3   OH220021   4.910   0.587   5.244 -0.0556 -0.0973 -0.6205
 6686TIP3    H120022   4.977   0.525   5.272 -0.3261  0.5686  1.7103
 6686TIP3    H220023   4.958   0.654   5.196  0.6667 -0.5754 -0.5804
 6687TIP3   OH220024   6.342   4.839   1.870  0.8783  0.0213  0.4394
 6687TIP3    H120025   6.252   4.808   1.870  1.1161 -0.7774  1.9055
 6687TIP3    H220026   6.357   4.868   1.961  1.9466  0.5822  0.1005
 6688TIP3   OH220027   1.579   3.846   3.945 -0.0265 -0.3126  0.8732
 6688TIP3    H120028   1.560   3.831   3.852  0.1472  1.5289  0.4957
 6688TIP3    H220029   1.647   3.782   3.966  0.0465 -0.6548 -0.3109
 6689TIP3   OH220030   0.150   3.777   1.881 -0.0754  0.6876 -0.5997
 6689TIP3    H120031   0.143   3.777   1.786 -0.0988 -2.0527 -0.6819
 6689TIP3    H220032   0.075   3.829   1.911 -1.1446  0.0421 -2.0399
 6690TIP3   OH220033   1.213   5.747   2.546 -0.3286 -0.0695  0.3733
 6690TIP3    H120034   1.188   5.725   2.636 -0.3563  0.6016  0.5320
 6690TIP3    H220035   1.227   5.841   2.547  2.6298 -0.3991  0.4157
 6691TIP3   OH220036   5.524   3.912   3.721 -0.5032 -0.2163  0.3413
 6691TIP3    H120037   5.612   3.945   3.705  0.6251 -2.2917  1.7655
 6691TIP3    H220038   5.474   3.988   3.750  1.7592  0.4251  2.8636
 6692TIP3   OH220039   1.140   2.747   3.259  0.5144  0.0937  0.3015
 6692TIP3    H120040   1.162   2.711   3.345  2.9828  2.0589  0.6013
 6692TIP3    H220041   1.160   2.676   3.198  0.6374 -0.6524  1.1718
 6693TIP3   OH220042   7.074   4.166   0.414 -0.0939  0.1477 -0.6681
 6693TIP3    H120043   7.095   4.181   0.322  0.3568  0.3983 -0.5305
 6693TIP3    H220044   7.103   4.246   0.459  1.3163 -0.6402 -0.0833
 6694TIP3   OH220045   4.133   6.146   2.863  0.1395  0.2094 -0.4227
 6694TIP3    H120046   4.213   6.119   2.817  0.2746  1.2963 -0.8588
 6694TIP3    H220047   4.105   6.225   2.818 -2.8194 -1.6181 -2.1453
 6695TIP3   OH220048   2.190   4.503   3.302  0.6275  0.0493  0.0985
 6695TIP3    H120049   2.148   4.576   3.257  0.1462  1.1465  2.2049
 6695TIP3    H220050   2.130   4.429   3.290 -1.5498  1.3403  2.2104
 6696TIP3   OH220051   2.674   6.574   5.213 -0.3052 -0.3312 -0.7206
 6696TIP3    H120052   2.611   6.642   5.191 -0.3447  0.3438  1.3050
 6696TIP3    H220053   2.626   6.492   5.204 -1.9034  0.2197  1.8703
 6697TIP3   OH220054   3.413   4.908   2.744 -0.0659 -0.6278 -0.0646
 6697TIP3    H120055   3.454   4.916   2.658  1.1644  2.2045  0.6856
 6697TIP3    H220056   3.329   4.954   2.735 -0.0416 -0.5295  0.2042
 6698TIP3   OH220057   1.121   6.696   4.873 -0.3052 -0.2987 -0.1861
 6698TIP3    H120058   1.080   6.779   4.898  1.4661  0.1413  1.5187
 6698TIP3    H220059   1.164   6.666   4.953  0.4531 -2.0610 -1.1987
 6699TIP3   OH220060   0.313   3.068   1.808  0.0002  0.2534  0.3056
 6699TIP3    H120061   0.377   3.047   1.739  0.8492  1.1104  0.8019
 6699TIP3    H220062   0.327   3.161   1.825 -0.2797  0.0831  1.5489
 6700TIP3   OH220063   5.550   1.917   3.237 -0.5850  0.6122 -0.5024
 6700TIP3    H120064   5.566   1.961   3.153  0.7592 -0.7998 -1.0307
 6700TIP3    H220065   5.616   1.848   3.241 -0.0198  1.1955  2.1433
 6701TIP3   OH220066   3.783   3.860   1.979 -0.3170 -0.0316  0.0602
 6701TIP3    H120067   3.713   3.818   1.930  1.0426 -0.6197 -1.4613
 6701TIP3    H220068   3.804   3.798   2.049  0.6093 -1.2171 -1.2195
 6702TIP3   OH220069   4.054   4.026   5.077  0.4626  0.4915 -0.3462
 6702TIP3    H120070   4.015   3.947   5.040 -1.6689 -0.2461  3.0120
 6702TIP3    H220071   4.124   3.995   5.134 -1.1438  0.7819  1.9147
 6703TIP3   OH220072   1.671   2.469   2.410  0.4873  0.2567  0.6351
 6703TIP3    H120073   1.598   2.411   2.433  0.7510  0.0487  0.9635
 6703TIP3    H220074   1.749   2.415   2.424  0.6823  0.2189 -0.4417
 6704TIP3   OH220075   1.728   2.103   2.590 -0.3347  0.2685  0.3843
 6704TIP3    H120076   1.686   2.162   2.528 -0.1860  0.7096  0.6962
 6704TIP3    H220077   1.766   2.034   2.536  0.5606  1.1118 -0.1007
 6705TIP3   OH220078   0.545   3.744   0.258 -0.1645  0.1313  0.4650
 6705TIP3    H120079   0.467   3.800   0.258 -0.5888 -0.4439  0.2174
 6705TIP3    H220080   0.565   3.730   0.350 -0.5299  0.0571  0.5348
 6706TIP3   OH220081   3.665   5.603   4.108 -0.3051  0.6531 -0.5280
 6706TIP3    H120082   3.759   5.605   4.094 -0.0940  0.2380  0.7061
 6706TIP3    H220083   3.655   5.587   4.202 -1.5987 -0.5699 -0.8410
 6707TIP3   OH220084   5.960   2.938   2.133 -0.2544  0.7240 -0.0812
 6707TIP3    H120085   5.976   2.866   2.194 -2.0334  0.2784 -0.1074
 6707TIP3    H220086   6.009   2.913   2.054 -1.0717 -0.6147 -0.1966
 6708TIP3   OH220087   3.274   1.539   1.681  0.0749  0.1119 -0.4416
 6708TIP3    H120088   3.273   1.455   1.636  1.8606  0.4484 -1.1702
 6708TIP3    H220089   3.345   1.532   1.745  0.1902  1.0418 -0.4462
 6709TIP3   OH220090   2.687   5.565   4.385  0.0900  0.2550  0.2587
 6709TIP3    H120091   2.634   5.639   4.416  0.5304  0.6488  0.0801
 6709TIP3    H220092   2.766   5.568   4.439 -0.2688 -0.6211  0.8544
 6710TIP3   OH220093   4.828   3.612   3.051 -0.0920 -0.4787  0.0923
 6710TIP3    H120094   4.903   3.554   3.065 -0.9856 -1.6623  0.1057
 6710TIP3    H220095   4.808   3.602   2.958  1.1643  1.6014 -0.4537
 6711TIP3   OH220096   6.865   4.786   0.611  0.5525  0.0910 -0.0959
 6711TIP3    H120097   6.894   4.826   0.694  1.3278  2.3134 -1.3452
 6711TIP3    H220098   6.804   4.718   0.638  1.4577  0.1157  2.3444
 6712TIP3   OH220099   1.236   0.258   2.661 -0.2335  0.1763 -0.1741
 6712TIP3    H120100   1.199   0.322   2.722  1.7881  0.1149  1.2177
 6712TIP3    H220101   1.299   0.309   2.610  0.2510 -0.3757 -0.1317
 6713TIP3   OH220102   1.986   3.900   5.430  0.0979  0.1286  0.3964
 6713TIP3    H120103   2.069   3.854   5.418 -0.1090 -0.2132  0.2567
 6713TIP3    H220104   1.928   3.834   5.469 -0.4549  0.0161 -0.5840
 6714TIP3   OH220105   6.876   2.882   1.757 -0.1376  0.0717 -0.1907
 6714TIP3    H120106   6.956   2.856   1.711 -1.3105 -0.7972 -1.8710
 6714TIP3    H220107   6.805   2.848   1.702 -1.6646 -0.8541  2.1991
 6715TIP3   OH220108   4.191   5.357   5.480  0.1016 -0.5853  0.1791
 6715TIP3    H120109   4.252   5.420   5.517  1.1358  0.0486 -2.4062
 6715TIP3    H220110   4.110   5.406   5.467 -0.5824 -1.0494  2.2634
 6716TIP3   OH220111   2.215   3.918   0.822 -0.2228  0.7220 -0.3336
 6716TIP3    H120112   2.163   3.993   0.850 -0.5950  0.2401  0.2836
 6716TIP3    H220113   2.247   3.879   0.903 -0.4079 -0.0546 -0.6283
 6717TIP3   OH220114   5.923   4.607   0.611 -0.7978  0.4541 -0.2149
 6717TIP3    H120115   5.953   4.673   0.549  0.1846 -1.5024 -1.9692
 6717TIP3    H220116   5.920   4.526   0.560 -2.3110 -0.8148  1.7199
 6718TIP3   OH220117   6.781   1.663   5.077  0.1274  0.0592  0.0673
 6718TIP3    H120118   6.772   1.639   4.985  1.8061  1.7915 -0.6215
 6718TIP3    H220119   6.783   1.758   5.077  1.0885  0.0844  1.7838
 6719TIP3   OH220120   1.250   3.969   3.755 -0.8394 -0.0514 -0.4073
 6719TIP3    H120121   1.209   4.004   3.676  1.1297  2.2212 -0.5387
 6719TIP3    H220122   1.250   3.874   3.741  0.1529  0.2727 -3.6111
 6720TIP3   OH220123   6.616   2.536   2.093  0.2363 -0.2726  0.0832
 6720TIP3    H120124   6.704   2.503   2.076 -0.6570 -2.5531 -0.5250
 6720TIP3    H220125   6.569   2.524   2.011 -0.7862  0.4270  0.5441
 6721TIP3   OH220126   4.871   2.960   4.010  0.3197  0.3533 -0.0179
 6721TIP3    H120127   4.934   2.939   4.079 -0.5873  0.7190  0.9547
 6721TIP3    H220128   4.842   3.048   4.031 -2.8003 -0.8790  1.4132
 6722TIP3   OH220129   1.152   1.956   1.655  0.6757 -0.3484  0.2324
 6722TIP3    H120130   1.093   1.958   1.731 -0.2848 -0.6127 -0.4880
 6722TIP3    H220131   1.120   1.883   1.602  1.2242 -0.0549 -0.5184
 6723TIP3   OH220132   6.174   3.260   0.166 -0.3136 -0.0110  0.5776
 6723TIP3    H120133   6.168   3.206   0.245 -1.1416 -3.0630 -1.3599
 6723TIP3    H220134   6.084   3.264   0.133  0.2829 -0.6667 -1.2631
 6724TIP3   OH220135   5.676   3.609   4.371 -0.0490  0.4315  0.3669
 6724TIP3    H120136   5.612   3.579   4.436 -1.9018  2.6462 -0.2821
 6724TIP3    H220137   5.751   3.639   4.423 -0.3802 -0.3044  1.3004
 6725TIP3   OH220138   1.219   3.719   3.604 -0.2572  0.2234 -0.2315
 6725TIP3    H120139   1.238   3.629   3.577 -0.0476 -0.2490  1.3786
 6725TIP3    H220140   1.140   3.743   3.554  0.1203 -0.5645 -1.2346
 6726TIP3   OH220141   6.950   0.283   2.841  0.0329  0.1685  0.0078
 6726TIP3    H120142   6.859   0.280   2.812 -0.3131  1.2578  0.8921
 6726TIP3    H220143   7.001   0.250   2.766 -1.0448 -0.0249 -0.6540
 6727TIP3   OH220144   2.849   0.209   2.101  0.5595  0.0483 -0.2600
 6727TIP3    H120145   2.863   0.123   2.140 -0.0381 -0.5040 -1.2087
 6727TIP3    H220146   2.862   0.271   2.172 -0.4978 -0.9125  0.7948
 6728TIP3   OH220147   6.910   1.784   4.137  0.0551 -0.3592  0.0087
 6728TIP3    H120148   6.909   1.784   4.233 -1.7737  1.3349  0.0626
 6728TIP3    H220149   6.833   1.733   4.112 -1.9727  2.6454 -0.3828
 6729TIP3   OH220150   6.931   2.626   3.012  0.3207  0.2139 -0.1212
 6729TIP3    H120151   7.015   2.671   2.998  0.5128 -0.1070 -0.0302
 6729TIP3    H220152   6.880   2.686   3.065  0.6585  0.2359  0.1876
 6730TIP3   OH220153   1.643   0.291   3.084 -0.5292 -0.0123  0.5788
 6730TIP3    H120154   1.591   0.238   3.023 -0.1604  1.2289 -0.8653
 6730TIP3    H220155   1.588   0.297   3.163 -0.6340 -2.4048  0.7698
 6731TIP3   OH220156   4.017   4.797   1.838  0.3606  0.1696  0.0922
 6731TIP3    H120157   4.095   4.823   1.788  0.1605  1.1959  0.2895
 6731TIP3    H220158   4.047   4.795   1.929  0.3677 -0.3058  0.0843
 6732TIP3   OH220159   6.928   0.610   0.069  0.2401 -0.5110  0.3664
 6732TIP3    H120160   6.948   0.681   0.130 -1.0146 -1.1987  1.6477
 6732TIP3    H220161   7.011   0.562   0.061  0.6531  0.1114  0.8486
 6733TIP3   OH220162   2.168   2.596   5.091 -0.1363  0.3880  0.0696
 6733TIP3    H120163   2.119   2.669   5.128 -0.3436  0.1491  0.2709
 6733TIP3    H220164   2.255   2.603   5.131 -0.7481 -0.6653  1.7150
 6734TIP3   OH220165   4.389   3.657   2.588 -0.9904  0.7281  0.4126
 6734TIP3    H120166   4.341   3.686   2.511  0.3656 -1.1204 -1.2578
 6734TIP3    H220167   4.415   3.567   2.567  0.8526  0.7321  2.3383
 6735TIP3   OH220168   2.481   1.388   5.252  0.2098  0.3700  0.3499
 6735TIP3    H120169   2.393   1.351   5.250 -0.0226  0.9279  0.1962
 6735TIP3    H220170   2.515   1.374   5.164 -0.6303  2.3103 -0.3193
 6736TIP3   OH220171   3.445   5.585   0.465 -0.0501  0.4834 -0.1273
 6736TIP3    H120172   3.538   5.566   0.457  0.2404  1.6219  0.3793
 6736TIP3    H220173   3.441   5.665   0.517 -1.3288  0.2487  0.1695
 6737TIP3   OH220174   3.793   6.730   0.725 -0.9177  0.5729  0.2940
 6737TIP3    H120175   3.842   6.812   0.718 -0.1736  0.0994 -0.2315
 6737TIP3    H220176   3.861   6.663   0.731 -1.4683 -0.1890 -1.4419
 6738TIP3   OH220177   4.432   2.853   2.972 -0.2559  0.0998 -0.2712
 6738TIP3    H120178   4.380   2.934   2.973 -1.0538 -0.3394 -1.9688
 6738TIP3    H220179   4.424   2.819   3.061 -1.4566  0.9395 -0.0197
 6739TIP3   OH220180   5.067   4.976   2.600  0.2842  0.1701  0.4779
 6739TIP3    H120181   5.025   5.054   2.564 -2.1873 -1.7865 -1.2166
 6739TIP3    H220182   5.135   4.953   2.536 -0.9364 -0.6174 -0.5969
 6740TIP3   OH220183   3.536   1.616   1.773 -0.0871 -0.0355 -0.4310
 6740TIP3    H120184   3.626   1.585   1.764 -0.5464 -1.4083 -0.4346
 6740TIP3    H220185   3.514   1.601   1.865 -1.2933 -2.6037 -1.0427
 6741TIP3   OH220186   5.138   1.728   5.045  0.0117  0.1868  0.0155
 6741TIP3    H120187   5.195   1.795   5.007  1.6136  0.2891  2.4014
 6741TIP3    H220188   5.129   1.662   4.976  0.0674  1.8435 -1.6552
 6742TIP3   OH220189   6.721   5.205   4.956 -0.7265 -0.3998 -0.3048
 6742TIP3    H120190   6.667   5.126   4.948  1.5185 -2.0558 -0.0717
 6742TIP3    H220191   6.752   5.204   5.046  1.8401 -1.0437 -1.1290
 6743TIP3   OH220192   0.488   5.232   3.520 -0.1145 -0.5898 -0.3872
 6743TIP3    H120193   0.429   5.211   3.593 -0.2487  0.3917 -0.1964
 6743TIP3    H220194   0.545   5.156   3.512 -1.2439 -1.4579 -0.4088
 6744TIP3   OH220195   0.827   5.950   2.419 -0.3930 -0.1536  0.9397
 6744TIP3    H120196   0.902   5.979   2.470  0.9037  1.0655 -1.5066
 6744TIP3    H220197   0.845   5.858   2.398 -0.3804 -0.3200  1.6682
 6745TIP3   OH220198   2.505   6.291   0.504 -0.8609  0.4379  0.0059
 6745TIP3    H120199   2.459   6.210   0.530  0.9619 -0.5825  0.2274
 6745TIP3    H220200   2.486   6.352   0.575 -2.3251  0.2588 -0.1901
 6746TIP3   OH220201   6.880   1.780   2.554  0.0327 -0.4204 -0.5461
 6746TIP3    H120202   6.877   1.822   2.468 -0.8446 -0.3666 -0.4985
 6746TIP3    H220203   6.788   1.767   2.578  0.2065  1.0923  1.1396
 6747TIP3   OH220204   5.641   2.698   0.712 -0.1380  0.3229 -0.5816
 6747TIP3    H120205   5.736   2.706   0.719 -0.0080  0.2388 -1.9636
 6747TIP3    H220206   5.628   2.625   0.650 -1.1002  0.2304 -0.2818
 6748TIP3   OH220207   5.956   3.229   3.746  0.1731 -0.2109 -0.2364
 6748TIP3    H120208   5.997   3.162   3.801  1.0660 -0.3596 -1.0651
 6748TIP3    H220209   5.940   3.303   3.805  1.3587 -0.2616  0.1606
 6749TIP3   OH220210   1.506   2.573   1.422 -0.0153 -0.0314 -0.2981
 6749TIP3    H120211   1.500   2.640   1.354 -0.3773  0.2426 -0.0019
 6749TIP3    H220212   1.519   2.622   1.503  1.9176 -0.4117 -0.3364
 6750TIP3   OH220213   3.656   1.407   2.500 -0.0278  0.2378  0.5506
 6750TIP3    H120214   3.571   1.406   2.458 -1.1799  2.5054  2.5953
 6750TIP3    H220215   3.665   1.319   2.539 -0.5360 -0.6397 -1.2187
 6751TIP3   OH220216   4.991   4.883   0.004 -0.3475 -0.1726 -0.5244
 6751TIP3    H120217   4.914   4.890   0.060  1.4418 -0.2267  2.0966
 6751TIP3    H220218   5.032   4.801   0.029  1.6433  0.8121 -0.3753
 6752TIP3   OH220219   3.880   5.586   1.361  0.7828  0.1317 -0.3933
 6752TIP3    H120220   3.884   5.594   1.266 -1.7770 -1.1394 -0.6988
 6752TIP3    H220221   3.905   5.495   1.378 -0.4375 -0.1424 -0.0271
 6753TIP3   OH220222   5.518   1.604   2.523  0.2226 -0.8826  0.4678
 6753TIP3    H120223   5.580   1.599   2.450 -0.8735  0.4163 -0.6158
 6753TIP3    H220224   5.563   1.562   2.596  1.8578 -1.1130 -0.6224
 6754TIP3   OH220225   1.885   0.614   4.381 -0.0807 -0.2614 -0.7758
 6754TIP3    H120226   1.960   0.639   4.327  1.2935 -0.5337  0.9187
 6754TIP3    H220227   1.845   0.696   4.407  0.3631 -0.0636 -0.7142
 6755TIP3   OH220228   4.292   3.945   5.221 -0.6889  0.4373  0.3335
 6755TIP3    H120229   4.354   3.887   5.266 -0.9966  0.3268  0.6198
 6755TIP3    H220230   4.337   4.030   5.220 -0.5241  0.3563  0.5293
 6756TIP3   OH220231   3.408   3.551   0.060 -0.7818 -0.4367  0.5855
 6756TIP3    H120232   3.418   3.593   0.145  1.3244  1.3055 -0.4223
 6756TIP3    H220233   3.328   3.500   0.067 -1.5927  1.0479  3.0219
 6757TIP3   OH220234   4.684   0.991   4.935 -0.4668 -0.1961 -0.3437
 6757TIP3    H120235   4.589   1.001   4.949 -0.1886  2.4767  0.1418
 6757TIP3    H220236   4.692   0.909   4.887 -2.8758 -1.4348  1.1105
 6758TIP3   OH220237   6.735   3.167   3.718 -0.3055  0.3089  0.2714
 6758TIP3    H120238   6.665   3.182   3.654 -0.2020  1.2276  0.3616
 6758TIP3    H220239   6.741   3.250   3.766  1.5199  0.5885 -0.3907
 6759TIP3   OH220240   6.325   1.255   0.607  0.3781 -0.1215  0.2835
 6759TIP3    H120241   6.360   1.206   0.682 -0.4426 -1.9068 -0.4317
 6759TIP3    H220242   6.231   1.257   0.622  0.0132 -1.8048 -1.3543
 6760TIP3   OH220243   1.837   0.252   2.347 -0.4012 -0.2160 -0.1555
 6760TIP3    H120244   1.931   0.234   2.349 -0.3045  0.0939 -1.2651
 6760TIP3    H220245   1.830   0.345   2.368 -0.1978  0.4691 -2.7382
 6761TIP3   OH220246   6.548   4.755   5.196  0.4295 -0.0221  0.6942
 6761TIP3    H120247   6.620   4.779   5.254  0.2664 -1.6418  1.6308
 6761TIP3    H220248   6.526   4.665   5.221 -0.4910 -0.3232 -1.0380
 6762TIP3   OH220249   2.874   3.601   5.791  0.0675  0.2454  0.0543
 6762TIP3    H120250   2.964   3.620   5.817 -0.3012 -0.6509  2.1421
 6762TIP3    H220251   2.871   3.506   5.782 -0.7493  0.2316  0.3700
 6763TIP3   OH220252   5.082   5.340   3.123 -0.0941  0.1580  0.8234
 6763TIP3    H120253   5.003   5.393   3.114 -0.1373 -0.0527 -0.1099
 6763TIP3    H220254   5.100   5.309   3.034 -0.2223 -1.5996  1.3703
 6764TIP3   OH220255   3.913   2.290   2.603  0.0726  0.7345  0.1754
 6764TIP3    H120256   3.829   2.334   2.589 -0.2372  0.1878  0.2902
 6764TIP3    H220257   3.969   2.357   2.643  0.6825  2.0910 -2.6218
 6765TIP3   OH220258   4.044   5.669   5.187 -0.1243 -0.6078  0.6194
 6765TIP3    H120259   4.067   5.746   5.134  2.1209 -0.1056  2.1741
 6765TIP3    H220260   3.981   5.702   5.251  2.8781  0.8259  3.0929
 6766TIP3   OH220261   5.097   0.634   3.044  0.0292 -0.6102  0.2230
 6766TIP3    H120262   5.042   0.608   3.118  1.0651 -0.3410  1.1052
 6766TIP3    H220263   5.068   0.723   3.023 -0.9281 -1.0423 -0.3377
 6767TIP3   OH220264   7.080   4.405   4.294  0.3416  0.0330  0.2145
 6767TIP3    H120265   7.069   4.458   4.374 -0.5584  1.3195 -0.7102
 6767TIP3    H220266   7.016   4.442   4.233  0.2050 -1.6822 -0.7295
 6768TIP3   OH220267   6.548   3.780   1.502  0.0590  0.3371  0.2534
 6768TIP3    H120268   6.511   3.692   1.509 -1.0665  0.8567  1.4223
 6768TIP3    H220269   6.506   3.817   1.424 -0.2790  0.1843  0.3580
 6769TIP3   OH220270   7.034   5.355   4.321 -0.3441  0.3510 -0.0841
 6769TIP3    H120271   7.073   5.422   4.265 -0.6005  0.3733 -0.2394
 6769TIP3    H220272   6.953   5.331   4.276  0.0788 -0.5603 -0.3975
 6770TIP3   OH220273   1.268   6.581   0.381  0.0989  0.1033 -0.1192
 6770TIP3    H120274   1.343   6.540   0.425  0.5435  0.6961 -0.2990
 6770TIP3    H220275   1.197   6.576   0.445  0.5919  0.4852  0.4758
 6771TIP3   OH220276   1.800   3.238   3.691  0.0791  0.1487  0.5239
 6771TIP3    H120277   1.868   3.291   3.649 -1.3941  2.3812  0.7753
 6771TIP3    H220278   1.737   3.219   3.620  1.2504 -2.5935  0.1004
 6772TIP3   OH220279   5.611   0.189   3.894 -0.3001  0.0060  0.6669
 6772TIP3    H120280   5.653   0.183   3.808  0.4355 -0.0380  1.0250
 6772TIP3    H220281   5.603   0.283   3.911 -2.0137  0.0700 -0.1844
 6773TIP3   OH220282   4.674   2.410   1.154  0.0019 -0.4138  0.2259
 6773TIP3    H120283   4.592   2.426   1.201  0.9341 -0.0331  1.7961
 6773TIP3    H220284   4.697   2.496   1.118  0.7032 -0.0237  1.5132
 6774TIP3   OH220285   2.205   0.747   5.059  0.0624 -0.4909  0.0132
 6774TIP3    H120286   2.211   0.842   5.051  2.0145 -0.5354  0.6135
 6774TIP3    H220287   2.222   0.715   4.970 -1.4663 -0.2938 -0.3845
 6775TIP3   OH220288   2.787   3.650   1.593 -0.4547 -0.2524  0.1097
 6775TIP3    H120289   2.839   3.571   1.574 -0.0125 -0.2002  1.0399
 6775TIP3    H220290   2.758   3.680   1.507 -1.9403 -2.2828 -0.1911
 6776TIP3   OH220291   5.247   4.061   3.532  0.1831 -0.2401  0.8580
 6776TIP3    H120292   5.180   4.108   3.482  2.7915  1.4659 -1.2756
 6776TIP3    H220293   5.296   4.130   3.576  0.9780 -1.4007  1.8405
 6777TIP3   OH220294   0.357   6.100   2.250  0.2742  0.5701  0.3737
 6777TIP3    H120295   0.334   6.014   2.214 -1.0950  1.4434 -0.9541
 6777TIP3    H220296   0.388   6.082   2.339  0.3130 -1.3109  0.0176
 6778TIP3   OH220297   4.433   3.915   1.169 -0.2166 -0.0783 -0.0605
 6778TIP3    H120298   4.432   3.852   1.097  0.5427 -1.1382  0.8163
 6778TIP3    H220299   4.483   3.990   1.136  1.3666 -1.1488 -0.1757
 6779TIP3   OH220300   1.662   2.239   1.702  0.5556 -0.3693  0.1881
 6779TIP3    H120301   1.717   2.236   1.781 -0.1851 -1.6878  0.6644
 6779TIP3    H220302   1.595   2.304   1.722  0.5995 -0.4177  0.4999
 6780TIP3   OH220303   1.829   4.578   3.004 -0.4261 -0.1156 -0.2775
 6780TIP3    H120304   1.845   4.490   2.970  0.5695  0.6322 -1.8477
 6780TIP3    H220305   1.734   4.582   3.016 -0.7460 -0.6928 -2.2888
 6781TIP3   OH220306   0.116   3.075   0.736  0.2161 -0.8771 -0.4685
 6781TIP3    H120307   0.090   2.992   0.698 -1.1177 -0.9347  0.4893
 6781TIP3    H220308   0.184   3.108   0.678  0.9708 -2.7488 -0.7172
 6782TIP3   OH220309   5.303   1.510   1.695 -0.1935 -0.1321  0.0648
 6782TIP3    H120310   5.391   1.472   1.701 -1.1151 -2.5227 -0.4056
 6782TIP3    H220311   5.264   1.467   1.619 -2.0915  0.1676  0.8341
 6783TIP3   OH220312   4.028   2.813   0.189 -0.4377  0.0025 -0.3023
 6783TIP3    H120313   4.007   2.776   0.103  2.1265  0.7754 -1.3646
 6783TIP3    H220314   4.119   2.786   0.205 -0.8835 -0.2344  2.2763
 6784TIP3   OH220315   7.079   1.678   2.983  0.2254 -0.2816  0.1415
 6784TIP3    H120316   7.142   1.622   3.029 -0.0966  0.5467  1.6621
 6784TIP3    H220317   7.110   1.680   2.892  1.3968 -1.2592  0.4931
 6785TIP3   OH220318   0.905   6.392   2.606 -0.0886  0.0528 -0.0638
 6785TIP3    H120319   0.951   6.435   2.534 -0.7985  1.1674  0.1312
 6785TIP3    H220320   0.973   6.342   2.651  1.1290  2.3164  0.7287
 6786TIP3   OH220321   6.450   0.112   1.091  0.1867  0.5147  0.2159
 6786TIP3    H120322   6.361   0.100   1.126  0.2140 -0.4372 -0.0139
 6786TIP3    H220323   6.506   0.115   1.169 -0.1317  2.0365  0.4075
 6787TIP3   OH220324   1.099   3.829   1.267  0.9486  0.3287 -0.1951
 6787TIP3    H120325   1.010   3.842   1.302  0.0711 -1.9126 -1.4007
 6787TIP3    H220326   1.155   3.829   1.345 -0.1210  1.5835  0.6114
 6788TIP3   OH220327   4.587   1.239   2.334  0.5568  0.4374 -0.3073
 6788TIP3    H120328   4.506   1.218   2.381  0.6726 -0.4141 -0.4862
 6788TIP3    H220329   4.606   1.162   2.282  0.9646  1.0051 -1.0185
 6789TIP3   OH220330   0.667   6.268   3.128 -0.1765  0.3069 -0.4749
 6789TIP3    H120331   0.610   6.249   3.203 -0.9224  0.6545 -0.9459
 6789TIP3    H220332   0.645   6.200   3.064  0.9704 -0.4243 -0.1226
 6790TIP3   OH220333   3.142   2.953   2.578  0.8809 -0.0430  0.1425
 6790TIP3    H120334   3.237   2.953   2.567  0.8796  0.1812  0.1387
 6790TIP3    H220335   3.116   2.864   2.553  1.5844 -1.6774  4.3969
 6791TIP3   OH220336   4.712   5.399   4.547 -0.1640 -0.0203  0.0566
 6791TIP3    H120337   4.731   5.483   4.505 -0.0908  0.7514  1.5434
 6791TIP3    H220338   4.619   5.404   4.568 -0.3661 -0.7030 -0.6515
 6792TIP3   OH220339   1.722   6.566   4.071 -0.1067 -0.3348  0.4147
 6792TIP3    H120340   1.706   6.537   3.981 -0.1322 -1.0621  0.6454
 6792TIP3    H220341   1.656   6.633   4.087 -0.6823 -0.8450  0.1897
 6793TIP3   OH220342   5.829   2.217   3.703 -0.6014 -0.7289  0.4171
 6793TIP3    H120343   5.894   2.147   3.707  0.4674  0.1499 -0.4796
 6793TIP3    H220344   5.762   2.193   3.766 -0.1233 -2.4061  0.3175
 6794TIP3   OH220345   0.226   4.102   3.623  0.0305 -0.0411  0.2785
 6794TIP3    H120346   0.302   4.160   3.630  0.8967 -1.0908 -0.1244
 6794TIP3    H220347   0.160   4.142   3.680  1.1669  0.4537  1.3044
 6795TIP3   OH220348   1.354   5.273   2.130  0.4718  0.1988  0.1105
 6795TIP3    H120349   1.410   5.342   2.166 -0.0762  0.6375  0.1329
 6795TIP3    H220350   1.337   5.299   2.040  1.3216 -0.5771 -0.2942
 6796TIP3   OH220351   6.967   2.349   2.859  0.2230 -0.0140 -0.0088
 6796TIP3    H120352   6.957   2.436   2.899  0.1169 -0.1416  0.2423
 6796TIP3    H220353   6.948   2.288   2.930  0.0457 -0.2427 -0.2547
 6797TIP3   OH220354   3.983   6.339   5.822  0.1819  0.0106  0.2482
 6797TIP3    H120355   3.962   6.413   5.766  0.3622 -0.0925  0.0431
 6797TIP3    H220356   3.917   6.273   5.801  0.8494 -0.4174 -0.5955
 6798TIP3   OH220357   2.073   5.815   3.320  0.6221  0.0468 -0.2247
 6798TIP3    H120358   2.099   5.906   3.339  0.3121  0.6753 -2.5085
 6798TIP3    H220359   2.068   5.773   3.406  0.3850  2.2995  0.9422
 6799TIP3   OH220360   7.048   5.236   3.477  0.1687 -0.5668  0.4430
 6799TIP3    H120361   6.953   5.226   3.487 -0.0815  0.4286 -0.6039
 6799TIP3    H220362   7.060   5.330   3.462  1.2442 -0.7693 -0.0674
 6800TIP3   OH220363   1.354   3.407   1.570  0.4060  0.2279 -0.2363
 6800TIP3    H120364   1.348   3.425   1.476  0.1925 -1.1907 -0.5244
 6800TIP3    H220365   1.430   3.348   1.577  0.3453  0.2313  0.4616
 6801TIP3   OH220366   0.785   1.336   4.244 -0.0663 -0.2279  0.4983
 6801TIP3    H120367   0.771   1.248   4.279 -0.4134  0.1233  1.2504
 6801TIP3    H220368   0.712   1.388   4.278  0.6526  0.5745  0.8594
 6802TIP3   OH220369   4.374   5.713   3.364  0.0513  0.0375 -0.2992
 6802TIP3    H120370   4.380   5.808   3.357 -0.2889  0.0390 -0.6344
 6802TIP3    H220371   4.343   5.697   3.453 -1.4822  0.3284 -0.7512
 6803TIP3   OH220372   0.547   4.961   1.597 -0.3399  0.5858 -0.3641
 6803TIP3    H120373   0.489   4.898   1.552  1.0934 -0.7039 -0.4859
 6803TIP3    H220374   0.596   5.002   1.526  0.5440 -0.0388 -0.1273
 6804TIP3   OH220375   7.009   1.835   1.541 -0.2784 -0.0169 -0.5299
 6804TIP3    H120376   7.102   1.839   1.516  0.2223  2.5279  1.3360
 6804TIP3    H220377   7.006   1.772   1.612 -0.3705 -1.5239 -1.8176
 6805TIP3   OH220378   6.141   0.912   3.663  0.2248  0.2701  0.6742
 6805TIP3    H120379   6.206   0.970   3.624  1.0056 -0.6784  0.5298
 6805TIP3    H220380   6.189   0.831   3.683 -0.9311 -0.5162  0.4101
 6806TIP3   OH220381   6.323   1.036   3.904 -0.2915  0.0017 -0.1979
 6806TIP3    H120382   6.277   1.042   3.987 -0.5841  0.4320 -0.3863
 6806TIP3    H220383   6.303   0.949   3.871 -1.2345  0.3017 -0.4295
 6807TIP3   OH220384   2.683   5.922   4.663 -0.1949 -0.4295  0.4671
 6807TIP3    H120385   2.640   5.838   4.680 -2.0271 -0.0392 -1.8485
 6807TIP3    H220386   2.775   5.899   4.647 -0.5342 -1.9096  0.4986
 6808TIP3   OH220387   4.502   6.732   5.783 -0.3848 -0.0867 -0.1850
 6808TIP3    H120388   4.482   6.769   5.697 -0.4959 -0.8942 -0.5174
 6808TIP3    H220389   4.504   6.807   5.842 -0.7670  0.4221 -0.8093
 6809TIP3   OH220390   7.167   2.260   4.813  0.2270 -0.2360  0.1527
 6809TIP3    H120391   7.168   2.194   4.882  0.0684 -1.1223 -0.6671
 6809TIP3    H220392   7.077   2.293   4.812 -0.2616 -1.5029 -0.7803
 6810TIP3   OH220393   5.058   5.696   1.483  0.3865 -0.1369  0.3464
 6810TIP3    H120394   4.995   5.633   1.519 -1.9425  1.7553 -0.1837
 6810TIP3    H220395   5.089   5.655   1.402 -2.1037 -0.1140 -0.6917
 6811TIP3   OH220396   1.028   2.562   2.674  0.1466  0.3180  0.0308
 6811TIP3    H120397   1.045   2.628   2.607 -1.1538  0.5737 -0.0633
 6811TIP3    H220398   0.952   2.514   2.643  0.4210 -0.5237  0.6236
 6812TIP3   OH220399   3.986   2.182   0.414 -0.1386 -0.3237 -0.6253
 6812TIP3    H120400   4.015   2.125   0.343 -0.0475 -0.0356 -0.8194
 6812TIP3    H220401   3.913   2.232   0.377  1.1316  1.2338 -1.1532
 6813TIP3   OH220402   6.785   0.783   5.834  0.2438  0.1248 -0.0654
 6813TIP3    H120403   6.841   0.785   5.757 -1.8768 -0.6716 -1.7323
 6813TIP3    H220404   6.713   0.725   5.810  0.3781 -1.6610  3.2144
 6814TIP3   OH220405   2.367   6.708   0.584  0.1460 -0.0644 -0.0893
 6814TIP3    H120406   2.349   6.646   0.655  1.2134 -0.3514 -0.0514
 6814TIP3    H220407   2.460   6.699   0.568 -0.2692 -0.8517 -2.3389
 6815TIP3   OH220408   5.404   3.892   5.128 -0.1845  0.7333  0.5052
 6815TIP3    H120409   5.332   3.873   5.189  0.5102 -1.1895  0.8131
 6815TIP3    H220410   5.441   3.974   5.159 -2.2337  1.7884  0.3226
 6816TIP3   OH220411   4.168   5.386   3.727 -0.4265 -0.9452 -0.0091
 6816TIP3    H120412   4.170   5.335   3.646 -1.2907  1.1156 -1.4016
 6816TIP3    H220413   4.251   5.433   3.728  0.1734 -1.9415  1.0498
 6817TIP3   OH220414   4.597   3.680   1.900  0.1234  0.1109 -0.8127
 6817TIP3    H120415   4.516   3.716   1.862  0.7929  1.3417 -1.1272
 6817TIP3    H220416   4.579   3.677   1.994 -0.1783  0.7024 -0.8450
 6818TIP3   OH220417   0.034   2.744   2.740  0.2250  0.1390 -0.0784
 6818TIP3    H120418   0.049   2.695   2.821 -0.1784 -1.1818 -0.7679
 6818TIP3    H220419  -0.059   2.730   2.722  0.6961 -1.1555 -1.7235
 6819TIP3   OH220420   3.379   2.694   5.708  0.5536  0.2564 -0.0415
 6819TIP3    H120421   3.329   2.640   5.769  2.2250  1.2259  2.3627
 6819TIP3    H220422   3.353   2.784   5.730  1.6063  0.6478 -0.3288
 6820TIP3   OH220423   1.365   2.201   3.855  0.3832  0.3021 -0.2066
 6820TIP3    H120424   1.316   2.145   3.795 -2.7666 -0.7909  3.0835
 6820TIP3    H220425   1.433   2.145   3.891 -0.4899 -0.3666  0.4249
 6821TIP3   OH220426   0.129   2.608   5.310 -0.1610 -0.3667 -0.0438
 6821TIP3    H120427   0.154   2.517   5.322 -3.4346 -1.2496  0.9236
 6821TIP3    H220428   0.136   2.647   5.397  0.6863  0.2129 -0.3516
 6822TIP3   OH220429   6.405   4.815   4.944  0.3102  0.1196  0.0705
 6822TIP3    H120430   6.331   4.875   4.955  0.2697  0.0632  0.1059
 6822TIP3    H220431   6.430   4.792   5.034 -0.7240 -1.2209  0.0417
 6823TIP3   OH220432   5.001   6.748   2.576  0.4012  0.3300  1.2693
 6823TIP3    H120433   5.003   6.656   2.600 -1.6637  0.5508  2.4584
 6823TIP3    H220434   4.953   6.750   2.493  1.1189  0.2881  0.8419
 6824TIP3   OH220435   6.496   4.192   2.100  0.0144 -0.3880  0.9746
 6824TIP3    H120436   6.461   4.277   2.076  1.3099  0.2945  1.3673
 6824TIP3    H220437   6.591   4.207   2.108  0.2356 -1.8044  1.2813
 6825TIP3   OH220438   3.238   2.410   4.368 -0.0082 -0.1115 -0.3876
 6825TIP3    H120439   3.248   2.446   4.280  0.7598  2.8830  0.8121
 6825TIP3    H220440   3.154   2.365   4.367 -0.4403  0.6777 -2.3764
 6826TIP3   OH220441   0.066   0.566   2.913  0.0624  0.1966  0.4823
 6826TIP3    H120442   0.022   0.549   2.996 -0.5483  0.7783  0.2882
 6826TIP3    H220443   0.003   0.539   2.846  0.5775 -0.3337  0.2024
 6827TIP3   OH220444   6.486   0.254   3.853  0.4204  0.3634 -0.5256
 6827TIP3    H120445   6.522   0.173   3.818 -1.0450 -0.5424 -0.0171
 6827TIP3    H220446   6.536   0.270   3.933 -0.2532 -0.8565  0.1623
 6828TIP3   OH220447   6.615   1.791   0.566  0.2885 -0.4083 -0.4531
 6828TIP3    H120448   6.561   1.713   0.576  0.5577 -0.8967 -2.4251
 6828TIP3    H220449   6.556   1.864   0.586  0.1774 -1.0725  1.9409
 6829TIP3   OH220450   0.159   0.430   2.535  0.0974 -0.0011 -0.2088
 6829TIP3    H120451   0.170   0.361   2.600 -0.0438 -0.5158 -0.7200
 6829TIP3    H220452   0.186   0.390   2.452  2.0398  1.1926 -0.2047
 6830TIP3   OH220453   0.310   0.561   1.734  0.1546  0.5137  0.1276
 6830TIP3    H120454   0.395   0.570   1.778 -1.3178  0.0130  3.3529
 6830TIP3    H220455   0.249   0.611   1.787 -1.9110 -0.5453 -1.0853
 6831TIP3   OH220456   6.467   5.247   4.183 -0.1142 -0.4269 -0.1892
 6831TIP3    H120457   6.389   5.290   4.146 -0.5405 -1.4817 -0.5391
 6831TIP3    H220458   6.433   5.196   4.257  0.2530 -0.8616 -0.3218
 6832TIP3   OH220459   4.197   0.843   3.868  0.0292  0.6327  0.4163
 6832TIP3    H120460   4.285   0.810   3.888  0.2154  0.5617 -0.4688
 6832TIP3    H220461   4.139   0.790   3.923  0.3670 -0.9081 -0.6353
 6833TIP3   OH220462   0.523   1.369   0.980 -0.1368 -0.3349 -0.3901
 6833TIP3    H120463   0.599   1.367   0.923  0.3841  1.0932  0.1990
 6833TIP3    H220464   0.483   1.283   0.971  0.6779 -0.5876 -1.8765
 6834TIP3   OH220465   4.745   3.980   0.214  0.1140  0.4511 -0.0423
 6834TIP3    H120466   4.758   4.049   0.149 -0.9468  0.4019 -0.3170
 6834TIP3    H220467   4.815   3.995   0.278  0.5149  1.1569 -0.6195
 6835TIP3   OH220468   0.168   2.617   2.548  0.1093 -0.8311 -0.0152
 6835TIP3    H120469   0.141   2.684   2.486  1.8062 -0.1806 -0.1032
 6835TIP3    H220470   0.122   2.639   2.629  0.6034  0.4250 -0.0561
 6836TIP3   OH220471   4.082   6.264   0.525  0.6015 -0.1155 -0.5986
 6836TIP3    H120472   4.087   6.197   0.592 -0.9569  2.4452  2.3377
 6836TIP3    H220473   4.165   6.258   0.478  2.0759 -1.6130  1.9756
 6837TIP3   OH220474   2.780   3.937   1.288 -0.0476 -0.3040  0.4313
 6837TIP3    H120475   2.812   3.990   1.362 -0.5857 -1.0236  1.1999
 6837TIP3    H220476   2.728   3.998   1.237  1.2873  0.5064 -0.0213
 6838TIP3   OH220477   4.065   3.118   2.411  0.3310 -0.0427  0.2184
 6838TIP3    H120478   4.117   3.113   2.491  1.3460  0.8630 -0.3601
 6838TIP3    H220479   4.101   3.049   2.355 -0.7612 -1.0621  0.7310
 6839TIP3   OH220480   1.946   5.380   3.289 -0.2710  0.1346  0.6619
 6839TIP3    H120481   1.993   5.462   3.272  0.0608 -0.1180  0.3207
 6839TIP3    H220482   1.972   5.323   3.217 -0.5868 -0.2347  0.8379
 6840TIP3   OH220483   6.271   6.584   1.024 -0.0851 -0.5712  0.1965
 6840TIP3    H120484   6.224   6.633   0.957 -0.3161 -0.5593  0.3684
 6840TIP3    H220485   6.337   6.534   0.975  1.6401  1.5775  0.1811
 6841TIP3   OH220486   6.558   1.309   2.579 -0.0643 -0.1356  0.0997
 6841TIP3    H120487   6.463   1.308   2.565  0.0802  2.1800 -1.7478
 6841TIP3    H220488   6.593   1.351   2.500  2.3376  0.6261  1.4628
 6842TIP3   OH220489   2.013   2.476   4.222  0.2312 -0.1903  0.8260
 6842TIP3    H120490   2.084   2.535   4.246  0.2105  0.2824 -0.2359
 6842TIP3    H220491   2.057   2.399   4.186  0.2127  0.7183 -1.2393
 6843TIP3   OH220492   0.248   4.446   3.870  0.1092  0.3728  0.2960
 6843TIP3    H120493   0.295   4.528   3.857 -0.8001  1.0090  0.9280
 6843TIP3    H220494   0.160   4.472   3.897  0.1505 -0.8109  1.7282
 6844TIP3   OH220495   7.130   1.453   5.583 -0.3702  0.2893  0.0064
 6844TIP3    H120496   7.087   1.419   5.662 -1.0130 -1.0659 -0.8823
 6844TIP3    H220497   7.064   1.507   5.541 -0.1973  0.6084  0.1466
 6845TIP3   OH220498   1.358   2.255   4.131  0.0748 -0.3457 -0.1289
 6845TIP3    H120499   1.442   2.222   4.162  1.6395  1.4950 -2.0584
 6845TIP3    H220500   1.355   2.227   4.039 -0.8263  0.6616 -0.4178
 6846TIP3   OH220501   3.042   5.977   0.169  0.4596 -0.1942  0.9731
 6846TIP3    H120502   3.056   6.047   0.232  1.1232  0.0478  0.5649
 6846TIP3    H220503   3.114   5.916   0.184 -0.5033 -1.1706  1.8121
 6847TIP3   OH220504   4.142   5.181   2.761 -0.5066  0.4239 -0.9295
 6847TIP3    H120505   4.074   5.190   2.828 -0.4616  0.0110 -0.8261
 6847TIP3    H220506   4.224   5.197   2.807 -0.5313  0.9813 -1.0668
 6848TIP3   OH220507   2.200   5.061   0.998  0.1812  0.1297 -0.0018
 6848TIP3    H120508   2.141   5.127   1.036  0.0605 -0.2756  0.5139
 6848TIP3    H220509   2.219   5.001   1.069  0.5936 -0.1912 -0.3754
 6849TIP3   OH220510   2.109   5.398   1.396  0.1435  0.1051  0.2219
 6849TIP3    H120511   2.036   5.456   1.376 -0.5495 -1.4023 -1.8152
 6849TIP3    H220512   2.105   5.388   1.491 -0.2311  2.6453  0.5560
 6850TIP3   OH220513   7.136   4.592   3.043  0.1406  0.7076 -0.1800
 6850TIP3    H120514   7.128   4.667   2.984  2.1278  0.7687 -0.4101
 6850TIP3    H220515   7.226   4.593   3.072  0.1021 -1.3333  0.1832
 6851TIP3   OH220516   2.219   0.217   1.383  0.5230 -0.1499  1.0667
 6851TIP3    H120517   2.140   0.164   1.397 -0.4586  1.0962  0.5203
 6851TIP3    H220518   2.190   0.287   1.323  1.9612  0.5293  1.1301
 6852TIP3   OH220519   5.504   6.758   5.238  0.4782  0.0788  0.3288
 6852TIP3    H120520   5.442   6.804   5.181  0.4892 -2.0188 -1.5504
 6852TIP3    H220521   5.540   6.825   5.294 -0.4709  2.0955 -1.3370
 6853TIP3   OH220522   1.121   2.970   2.284 -0.0428 -0.2232 -0.0493
 6853TIP3    H120523   1.170   2.984   2.365 -2.4536 -0.5465  1.5586
 6853TIP3    H220524   1.181   2.999   2.215  1.7653  0.9554  1.8854
 6854TIP3   OH220525   0.230   1.785   2.886 -0.8194  0.1121  0.2219
 6854TIP3    H120526   0.316   1.810   2.921 -0.8432  1.8896 -0.8902
 6854TIP3    H220527   0.190   1.733   2.956  0.4398  0.7732  1.4837
 6855TIP3   OH220528   1.253   3.223   0.828 -0.8289  0.2101  0.4922
 6855TIP3    H120529   1.210   3.146   0.791  1.3904 -0.6428 -0.4555
 6855TIP3    H220530   1.183   3.269   0.876 -2.8211 -0.9073 -1.2065
 6856TIP3   OH220531   4.413   5.295   1.478 -0.6519 -0.0232  0.2494
 6856TIP3    H120532   4.394   5.208   1.515 -0.3182 -0.1701  0.0830
 6856TIP3    H220533   4.335   5.318   1.428 -0.5940 -0.3993 -0.0200
 6857TIP3   OH220534   1.201   1.839   4.826  0.7467 -0.3772  0.4955
 6857TIP3    H120535   1.107   1.841   4.808  0.4159 -0.3043  2.0880
 6857TIP3    H220536   1.239   1.893   4.758 -0.2065 -1.4917 -0.9829
 6858TIP3   OH220537   1.815   0.525   3.888 -0.3264  0.7086 -0.3750
 6858TIP3    H120538   1.731   0.550   3.851 -1.2119  0.6112  1.4571
 6858TIP3    H220539   1.793   0.483   3.971  1.5131  0.3079 -0.0478
 6859TIP3   OH220540   6.414   1.278   1.270 -0.8592  0.3768 -0.3262
 6859TIP3    H120541   6.327   1.309   1.292 -1.5383 -0.0358 -2.2636
 6859TIP3    H220542   6.400   1.194   1.226  0.4356  0.5731 -1.1990
 6860TIP3   OH220543   3.799   3.323   1.249  0.3847  0.0978  0.4423
 6860TIP3    H120544   3.770   3.413   1.261  0.7146  0.2107  0.4142
 6860TIP3    H220545   3.718   3.273   1.237  0.2193  0.4719 -0.0766
 6861TIP3   OH220546   3.519   4.015   5.448  0.5600  0.2873  0.0101
 6861TIP3    H120547   3.427   3.991   5.457  0.1268  1.7488 -0.3165
 6861TIP3    H220548   3.539   4.062   5.529  0.5551  1.3622 -0.5956
 6862TIP3   OH220549   4.295   0.055   0.223 -0.3822 -0.1431 -0.9397
 6862TIP3    H120550   4.258  -0.033   0.229  1.5190 -1.1332 -2.5082
 6862TIP3    H220551   4.262   0.101   0.300 -2.2165 -1.9091 -0.6033
 6863TIP3   OH220552   0.470   6.791   3.766 -0.5655  0.3979  0.0494
 6863TIP3    H120553   0.441   6.716   3.715 -0.1143  0.8120 -0.8514
 6863TIP3    H220554   0.564   6.796   3.751 -0.1212 -0.3623  2.1697
 6864TIP3   OH220555   4.999   4.290   0.556 -0.1107 -0.2692 -0.6731
 6864TIP3    H120556   5.074   4.347   0.538 -1.3227  1.4742 -0.4583
 6864TIP3    H220557   5.036   4.217   0.606  1.7438 -0.4548 -2.2023
 6865TIP3   OH220558   6.675   2.141   1.615 -0.3112  0.0959 -0.2564
 6865TIP3    H120559   6.741   2.197   1.574 -1.4970  2.2160  0.5499
 6865TIP3    H220560   6.624   2.201   1.670 -0.4593 -2.1525  2.2234
 6866TIP3   OH220561   4.833   6.587   0.636  0.2370  0.2599 -0.8493
 6866TIP3    H120562   4.863   6.676   0.654  0.4502  0.1168 -0.4892
 6866TIP3    H220563   4.903   6.531   0.668 -0.4649 -0.0856  0.1541
 6867TIP3   OH220564   5.931   5.701   2.922  0.2047 -0.4425  0.3088
 6867TIP3    H120565   5.992   5.685   2.994 -0.1064 -1.1599  0.4175
 6867TIP3    H220566   5.942   5.794   2.901  1.2865 -0.5478  0.3729
 6868TIP3   OH220567   2.011   3.150   3.167  0.5909  0.1648  0.4275
 6868TIP3    H120568   2.099   3.184   3.150 -0.1059  0.9265 -2.0017
 6868TIP3    H220569   2.026   3.060   3.197  2.2517  1.0250  2.5057
 6869TIP3   OH220570   4.460   3.623   1.160 -0.2867 -0.5672 -0.1808
 6869TIP3    H120571   4.486   3.570   1.084 -3.3365 -2.3138 -0.1545
 6869TIP3    H220572   4.381   3.581   1.193 -0.4199  1.5526  2.5616
 6870TIP3   OH220573   0.188   6.564   3.856  0.3325  0.0886 -0.0383
 6870TIP3    H120574   0.258   6.616   3.895  1.6041 -2.0363  0.6816
 6870TIP3    H220575   0.148   6.517   3.929  1.0911 -2.0468 -0.9175
 6871TIP3   OH220576   6.980   1.309   1.984  0.0881  0.0045 -0.0107
 6871TIP3    H120577   7.029   1.227   1.981  0.9524  0.5212 -0.4075
 6871TIP3    H220578   6.964   1.323   2.078  0.2689 -0.4195  0.0886
 6872TIP3   OH220579   1.250   2.428   1.499  0.3277  0.0366  0.1350
 6872TIP3    H120580   1.174   2.423   1.441  0.3799 -0.4386  0.1005
 6872TIP3    H220581   1.315   2.479   1.450  0.4181 -0.4713 -0.2869
 6873TIP3   OH220582   6.288   3.867   3.676 -0.5195  0.5461 -0.1765
 6873TIP3    H120583   6.236   3.787   3.671 -2.2985  1.5892  0.6359
 6873TIP3    H220584   6.375   3.838   3.704 -1.4267 -0.9886  1.1912
 6874TIP3   OH220585   6.226   0.955   2.178  0.0375  0.3889 -0.0043
 6874TIP3    H120586   6.213   0.898   2.254 -1.7062 -0.4310 -0.8637
 6874TIP3    H220587   6.187   1.038   2.203 -1.6911 -0.2624 -0.4052
 6875TIP3   OH220588   4.458   3.835   4.635 -0.1450 -0.7101  0.5761
 6875TIP3    H120589   4.389   3.787   4.681 -0.4466  0.3744  1.2794
 6875TIP3    H220590   4.416   3.869   4.557 -0.2380 -0.5950  0.6763
 6876TIP3   OH220591   5.702   5.590   3.152 -0.2174 -0.2387  0.1180
 6876TIP3    H120592   5.678   5.640   3.074 -1.0350 -0.6673  0.0813
 6876TIP3    H220593   5.624   5.539   3.172  0.9217 -2.2918 -0.4454
 6877TIP3   OH220594   6.157   6.100   4.049  0.2256  0.1645 -0.0686
 6877TIP3    H120595   6.105   6.098   4.129  0.2829  0.3960 -0.0250
 6877TIP3    H220596   6.172   6.193   4.032  1.2136  0.0821  0.3087
 6878TIP3   OH220597   5.065   3.139   5.306 -0.2594  0.1090  0.4743
 6878TIP3    H120598   5.072   3.052   5.266  0.4627  0.1204  0.5760
 6878TIP3    H220599   5.083   3.200   5.234  0.6087  0.1385  0.7034
 6879TIP3   OH220600   6.088   3.421   3.142 -0.2657 -0.3222  0.8236
 6879TIP3    H120601   6.083   3.507   3.184  2.1855  0.8871 -1.1040
 6879TIP3    H220602   6.181   3.410   3.122 -0.9776 -1.8103 -2.1852
 6880TIP3   OH220603   6.930   1.076   3.010 -0.4621  0.9691  0.0326
 6880TIP3    H120604   6.981   1.154   2.990  0.2425  1.1760  2.3402
 6880TIP3    H220605   6.970   1.041   3.090 -2.5187 -0.1617  0.6411
 6881TIP3   OH220606   6.545   4.208   3.298  0.1515  0.2207  0.8369
 6881TIP3    H120607   6.548   4.153   3.219 -1.0336  0.6863  0.4378
 6881TIP3    H220608   6.633   4.203   3.335  0.5600 -0.4811 -0.1973
 6882TIP3   OH220609   3.324   0.222   4.058  0.4058  0.2951 -0.0768
 6882TIP3    H120610   3.361   0.178   3.981  0.5739 -0.2551  0.3122
 6882TIP3    H220611   3.306   0.151   4.120 -3.1661  0.2695 -0.9636
 6883TIP3   OH220612   5.606   6.609   5.025  0.1837  0.6116  0.0053
 6883TIP3    H120613   5.698   6.634   5.011  1.1114 -0.7386  2.9076
 6883TIP3    H220614   5.575   6.669   5.092 -0.8446  0.6200 -0.4703
 6884TIP3   OH220615   1.553   0.210   2.300 -0.7194  0.7610  0.0354
 6884TIP3    H120616   1.573   0.199   2.207 -2.3141 -0.3944 -0.2168
 6884TIP3    H220617   1.638   0.211   2.343  0.0125  0.1670 -1.3261
 6885TIP3   OH220618   0.395   5.191  -0.004  0.1978  0.3584  0.3078
 6885TIP3    H120619   0.356   5.148   0.073 -1.0615 -0.7184 -0.8812
 6885TIP3    H220620   0.489   5.177   0.007 -0.0928 -1.9332  0.4752
 6886TIP3   OH220621   3.277   6.299   1.328  0.0937  0.5564  0.2775
 6886TIP3    H120622   3.227   6.372   1.363  1.1793  1.3770  0.1820
 6886TIP3    H220623   3.305   6.250   1.406  1.9342  1.9986  0.5909
 6887TIP3   OH220624   3.217   0.528   2.212  0.1109 -0.1810 -0.0863
 6887TIP3    H120625   3.152   0.505   2.279 -0.4643 -1.4452 -1.0338
 6887TIP3    H220626   3.189   0.479   2.135 -0.1417  2.4029 -1.7433
 6888TIP3   OH220627   5.889   3.780   5.739 -0.0168  0.4837  0.1200
 6888TIP3    H120628   5.976   3.744   5.756 -0.1847 -0.5452 -1.0447
 6888TIP3    H220629   5.862   3.820   5.822  0.8464 -0.7185  1.0055
 6889TIP3   OH220630   2.032   2.040   3.029 -0.0847 -0.0946  0.8490
 6889TIP3    H120631   1.967   2.088   3.080  1.0851  0.6404  1.7046
 6889TIP3    H220632   1.985   2.010   2.951 -0.7386  3.0325 -0.0920
 6890TIP3   OH220633   6.931   3.220   2.393  0.2222 -0.3883 -0.0312
 6890TIP3    H120634   6.971   3.283   2.454  1.5827 -0.6417 -0.6184
 6890TIP3    H220635   6.998   3.153   2.380  0.3886  0.1733 -2.5634
 6891TIP3   OH220636   2.837   5.673   5.187  0.3008 -0.2512  0.2577
 6891TIP3    H120637   2.906   5.606   5.180  1.9373  1.3898 -0.2685
 6891TIP3    H220638   2.885   5.756   5.184 -1.6459  0.9587  1.0212
 6892TIP3   OH220639   3.113   3.306   4.623  0.2465  0.1223  0.1921
 6892TIP3    H120640   3.066   3.243   4.567 -1.9872  1.7655  0.0693
 6892TIP3    H220641   3.113   3.387   4.573  1.3240  0.7461  1.1588
 6893TIP3   OH220642   6.472   1.478   3.139 -0.6360 -0.3128 -0.0074
 6893TIP3    H120643   6.472   1.569   3.166 -0.9463 -0.2423 -0.2438
 6893TIP3    H220644   6.563   1.450   3.148  0.0265  0.7804 -2.4241
 6894TIP3   OH220645   4.562   5.221   3.630  0.0887  0.4291 -0.1266
 6894TIP3    H120646   4.625   5.149   3.627  0.6722  0.9182  0.1252
 6894TIP3    H220647   4.602   5.286   3.689 -0.7808  0.6287  0.2617
 6895TIP3   OH220648   6.087   0.233   0.918 -0.4955  0.0616  0.1089
 6895TIP3    H120649   6.075   0.145   0.882  2.4863  0.3364 -1.9010
 6895TIP3    H220650   6.013   0.284   0.884 -0.3496 -0.8554 -1.6552
 6896TIP3   OH220651   5.486   0.887   4.949  0.0871 -0.0999 -0.3182
 6896TIP3    H120652   5.540   0.894   4.870 -0.2004 -1.3862 -0.6548
 6896TIP3    H220653   5.412   0.832   4.923 -0.2968 -0.0943  0.7111
 6897TIP3   OH220654   4.078   5.185   5.102 -0.3392  0.0669  0.2861
 6897TIP3    H120655   4.111   5.195   5.012 -0.7160 -2.3658 -0.1862
 6897TIP3    H220656   4.158   5.175   5.155 -0.1562 -1.0529 -0.1727
 6898TIP3   OH220657   1.143   0.587   4.628 -0.0564  0.1688  0.5992
 6898TIP3    H120658   1.195   0.623   4.699 -0.4342  0.7735  0.5707
 6898TIP3    H220659   1.111   0.503   4.661 -0.3690  0.5238  1.2035
 6899TIP3   OH220660   0.237   6.049   5.579 -0.4912 -0.1050 -0.4365
 6899TIP3    H120661   0.326   6.056   5.613 -0.2990  0.2694 -1.0020
 6899TIP3    H220662   0.189   6.118   5.625 -0.6979 -0.8693  0.5034
 6900TIP3   OH220663   4.032   0.469   3.639  0.3323 -0.0184 -0.8642
 6900TIP3    H120664   3.985   0.518   3.707  1.1357  1.0859 -1.0831
 6900TIP3    H220665   3.978   0.480   3.561  0.7987  1.0265 -1.0518
 6901TIP3   OH220666   7.083   6.769   3.230 -0.3442  0.1468  0.0495
 6901TIP3    H120667   7.005   6.811   3.266 -0.7372  0.5172 -1.1967
 6901TIP3    H220668   7.154   6.831   3.246 -0.3574 -0.0453  0.8896
 6902TIP3   OH220669   5.442   5.937   1.499  0.3107  0.4607 -0.5161
 6902TIP3    H120670   5.469   5.943   1.408 -0.2887 -1.9811 -0.9258
 6902TIP3    H220671   5.499   5.870   1.537 -1.0879 -0.3826  0.1966
 6903TIP3   OH220672   2.629   2.023   1.425 -0.4333  0.5545 -0.3530
 6903TIP3    H120673   2.686   1.963   1.473 -1.4236 -0.4804 -0.4099
 6903TIP3    H220674   2.688   2.077   1.374  0.4740 -1.6903 -1.8192
 6904TIP3   OH220675   3.253   5.039   3.432 -0.2142  0.4051 -0.3411
 6904TIP3    H120676   3.171   5.034   3.481 -0.4157  0.5072 -0.6659
 6904TIP3    H220677   3.241   5.113   3.373 -0.0421  0.1599 -0.6814
 6905TIP3   OH220678   4.230   2.941   2.243 -0.1979 -0.0261  0.1293
 6905TIP3    H120679   4.268   3.021   2.205 -0.1337 -1.5598 -3.4178
 6905TIP3    H220680   4.305   2.897   2.284  0.2178  0.6467  0.1211
 6906TIP3   OH220681   0.663   0.190   3.113  0.5400  0.5358 -0.3294
 6906TIP3    H120682   0.600   0.262   3.121  2.2928  2.1887 -0.6593
 6906TIP3    H220683   0.637   0.128   3.180 -1.2358  1.3121 -0.2358
 6907TIP3   OH220684   4.557   3.571   0.753 -0.5776 -0.2126  0.0266
 6907TIP3    H120685   4.496   3.522   0.698  0.6756 -1.0037 -0.6774
 6907TIP3    H220686   4.593   3.507   0.813  0.2899  0.0386 -0.2068
 6908TIP3   OH220687   7.078   2.661   4.341  0.0947  0.5973 -0.3907
 6908TIP3    H120688   7.003   2.721   4.339 -0.0067  0.6640  2.1402
 6908TIP3    H220689   7.118   2.670   4.255 -1.5139  2.2249 -1.0429
 6909TIP3   OH220690   4.130   4.323   1.899 -0.5628  0.2456  0.2106
 6909TIP3    H120691   4.093   4.248   1.853 -0.9944  0.9988 -0.7211
 6909TIP3    H220692   4.054   4.379   1.917 -0.0887  1.0803 -0.3296
 6910TIP3   OH220693   2.345   1.791   5.105  0.4406  0.2836  0.2750
 6910TIP3    H120694   2.406   1.728   5.068 -0.2452 -1.3711  1.7921
 6910TIP3    H220695   2.303   1.832   5.029  2.6556  0.7463 -0.7754
 6911TIP3   OH220696   5.241   4.647   5.691  0.5320  0.1816  0.7402
 6911TIP3    H120697   5.177   4.712   5.662  1.2997  0.9529  0.7419
 6911TIP3    H220698   5.284   4.617   5.611 -0.5988 -1.2030  0.6047
 6912TIP3   OH220699   5.588   4.127   1.815 -0.4784  0.0881 -0.1746
 6912TIP3    H120700   5.546   4.079   1.743  0.0536 -1.8970  0.7617
 6912TIP3    H220701   5.672   4.082   1.828 -0.5600  0.3986  1.6765
 6913TIP3   OH220702   6.182   4.025   2.340  0.5390  0.1320  0.1578
 6913TIP3    H120703   6.255   4.009   2.280 -2.2414 -1.5296 -3.1548
 6913TIP3    H220704   6.162   3.940   2.377 -0.2632  0.3651  0.2819
 6914TIP3   OH220705   6.531   6.325   1.834 -0.0215 -0.1559 -0.8391
 6914TIP3    H120706   6.550   6.320   1.740  1.2600 -3.6969 -0.5514
 6914TIP3    H220707   6.617   6.326   1.876 -0.5863  0.5312  0.3363
 6915TIP3   OH220708   0.031   6.478   5.068 -0.8159 -0.0530 -0.2099
 6915TIP3    H120709   0.020   6.565   5.107 -2.6042 -0.1839 -0.3142
 6915TIP3    H220710   0.026   6.493   4.974  0.2991 -0.1250 -0.2972
 6916TIP3   OH220711   1.260   6.165   5.336 -0.5260  0.0395  0.4396
 6916TIP3    H120712   1.348   6.128   5.339  0.4855  2.2247  0.1804
 6916TIP3    H220713   1.271   6.255   5.368 -2.3092  0.9429 -1.2636
 6917TIP3   OH220714   4.821   6.374   2.005 -0.0035  0.4735  0.4230
 6917TIP3    H120715   4.789   6.416   2.085  1.2354 -0.6527  1.5610
 6917TIP3    H220716   4.863   6.444   1.956 -0.2395  1.0662  1.0491
 6918TIP3   OH220717   2.706   6.061   0.601 -0.5546  0.5432  0.4419
 6918TIP3    H120718   2.653   6.115   0.543  0.2542  1.2833  0.3694
 6918TIP3    H220719   2.716   5.978   0.555 -1.8895  0.2749  0.5955
 6919TIP3   OH220720   2.258   6.159   2.848 -0.2622 -0.5399 -0.2672
 6919TIP3    H120721   2.290   6.075   2.881  0.2544  0.0439  0.7596
 6919TIP3    H220722   2.183   6.180   2.904  0.3867  0.2789  0.3070
 6920TIP3   OH220723   6.752   2.087   2.383 -0.1232  0.2472 -0.5965
 6920TIP3    H120724   6.792   2.015   2.334 -1.5063  0.3803 -2.0194
 6920TIP3    H220725   6.765   2.064   2.475  1.9903 -0.3489 -0.9883
 6921TIP3   OH220726   6.081   5.132   2.192  0.1923 -0.1756  0.3177
 6921TIP3    H120727   6.086   5.224   2.163  0.8714  0.4245  2.1747
 6921TIP3    H220728   6.007   5.096   2.144 -0.2575  1.4250 -0.2752
 6922TIP3   OH220729   3.547   0.728   4.412 -0.1650 -0.2280 -0.1742
 6922TIP3    H120730   3.624   0.673   4.394 -0.2871 -0.9002  1.2530
 6922TIP3    H220731   3.579   0.796   4.470 -0.5196 -0.1456 -0.0720
 6923TIP3   OH220732   2.742   4.934   3.328  0.6010  0.1211 -0.3623
 6923TIP3    H120733   2.661   4.985   3.338 -0.0039 -0.7692 -0.6418
 6923TIP3    H220734   2.811   4.997   3.347 -0.2079  0.3330  2.3529
 6924TIP3   OH220735   4.407   2.971   5.467  0.2599  0.1673 -0.4939
 6924TIP3    H120736   4.349   2.974   5.544  3.1789  1.2348  1.8645
 6924TIP3    H220737   4.401   2.880   5.437 -1.3361 -0.1727  0.6933
 6925TIP3   OH220738   4.839   2.795   0.251 -0.0334 -0.3784 -0.0521
 6925TIP3    H120739   4.802   2.865   0.305  2.5245  3.4130 -2.6394
 6925TIP3    H220740   4.912   2.762   0.302 -0.0099  0.3647  0.4163
 6926TIP3   OH220741   3.988   4.858   3.992  0.1991  0.5430 -0.1241
 6926TIP3    H120742   3.937   4.889   4.067 -0.4713 -1.9849  0.5715
 6926TIP3    H220743   3.949   4.903   3.917 -2.5215 -0.5365  0.5017
 6927TIP3   OH220744   6.909   0.790   5.571  0.2351 -0.1404  0.2397
 6927TIP3    H120745   6.954   0.808   5.488 -0.7962 -2.4905 -0.9399
 6927TIP3    H220746   6.869   0.703   5.558 -1.1625  0.0437  2.6951
 6928TIP3   OH220747   4.235   4.292   5.321  0.7550 -0.3725  0.3844
 6928TIP3    H120748   4.310   4.252   5.277  0.3133 -0.5976 -0.1781
 6928TIP3    H220749   4.206   4.361   5.261  1.1425  0.4122  1.0717
 6929TIP3   OH220750   1.810   1.448   2.743  0.0378 -0.0053  0.2232
 6929TIP3    H120751   1.823   1.448   2.837 -0.9938 -2.1481  0.4274
 6929TIP3    H220752   1.863   1.375   2.710 -0.2629  0.1878 -0.7460
 6930TIP3   OH220753   5.468   0.218   0.211 -0.1344 -0.4426  0.0436
 6930TIP3    H120754   5.406   0.171   0.155  0.9365  0.2083 -1.7697
 6930TIP3    H220755   5.549   0.222   0.159  1.0153 -0.0786  1.7816
 6931TIP3   OH220756   0.987   5.343   0.980 -0.3322  0.4959 -0.5948
 6931TIP3    H120757   0.956   5.265   0.935 -1.5820  0.6865 -0.0994
 6931TIP3    H220758   1.072   5.319   1.015 -1.4942 -1.2983  1.1878
 6932TIP3   OH220759   4.834   3.899   4.018 -0.0856  0.2784 -0.1434
 6932TIP3    H120760   4.767   3.903   3.950  0.9593 -1.0077 -1.3219
 6932TIP3    H220761   4.893   3.830   3.988  1.2735  0.7735  1.2966
 6933TIP3   OH220762   2.944   2.884   0.433 -0.0124 -0.2246 -0.0503
 6933TIP3    H120763   2.970   2.862   0.344 -2.3367 -1.5631 -0.4816
 6933TIP3    H220764   2.863   2.934   0.423  0.6163  1.1513  1.2908
 6934TIP3   OH220765   3.050   4.857   2.437  0.0236  0.1284 -0.2086
 6934TIP3    H120766   2.996   4.926   2.399  0.7962  0.3884 -0.8508
 6934TIP3    H220767   3.064   4.884   2.528  0.1687  0.7186 -0.4069
 6935TIP3   OH220768   5.237   3.810   2.622 -0.3047 -0.3746  0.0185
 6935TIP3    H120769   5.241   3.784   2.530 -1.8087 -0.8942  0.0793
 6935TIP3    H220770   5.312   3.870   2.633  0.8926 -1.6004 -1.0987
 6936TIP3   OH220771   3.440   3.344   2.137  0.5652  0.3344 -0.6942
 6936TIP3    H120772   3.386   3.377   2.066 -0.0640 -0.3642 -0.5592
 6936TIP3    H220773   3.485   3.268   2.100  3.2198  2.1447 -1.4890
 6937TIP3   OH220774   6.745   6.232   3.151 -0.7028  0.2596  0.1673
 6937TIP3    H120775   6.820   6.258   3.205 -1.0436 -0.4364  0.9965
 6937TIP3    H220776   6.669   6.258   3.202 -1.0343 -0.0381 -0.1752
 6938TIP3   OH220777   3.823   4.383   3.347 -0.1014 -0.3548  0.6767
 6938TIP3    H120778   3.916   4.361   3.349 -0.0767 -0.2107  1.3974
 6938TIP3    H220779   3.786   4.337   3.423  0.2031  3.0928  3.1371
 6939TIP3   OH220780   4.681   2.980   1.473  0.3529  0.1273 -0.2795
 6939TIP3    H120781   4.688   2.901   1.419  0.0626 -0.2956  0.2933
 6939TIP3    H220782   4.699   2.950   1.562 -1.2409  0.4064  0.1651
 6940TIP3   OH220783   3.356   0.082   3.815 -0.0708 -0.4686  0.1810
 6940TIP3    H120784   3.307   0.001   3.829  0.3943 -0.7244  0.3563
 6940TIP3    H220785   3.447   0.054   3.813 -0.0154 -0.2580 -2.1084
 6941TIP3   OH220786   6.999   0.227   4.927 -0.9005  0.0137  0.5465
 6941TIP3    H120787   7.091   0.221   4.902 -0.5192  0.6056  1.7478
 6941TIP3    H220788   6.977   0.139   4.958 -0.5437  0.0344  0.8675
 6942TIP3   OH220789   0.793   5.541   4.357 -0.4135 -0.2957  0.3860
 6942TIP3    H120790   0.827   5.619   4.313  0.1408 -0.5658  0.3355
 6942TIP3    H220791   0.819   5.468   4.302 -0.7944 -0.5358  0.5173
 6943TIP3   OH220792   6.771   6.364   2.760 -0.2649  0.2668 -0.5244
 6943TIP3    H120793   6.688   6.399   2.730 -0.0804  0.3088 -0.9940
 6943TIP3    H220794   6.836   6.403   2.702  0.1133  0.4486  0.0091
 6944TIP3   OH220795   0.453   6.329   3.742 -0.3494  0.3448  0.2388
 6944TIP3    H120796   0.530   6.366   3.700  0.3127 -3.2690 -2.2272
 6944TIP3    H220797   0.465   6.347   3.836  2.7100  1.1539 -0.2076
 6945TIP3   OH220798   1.465   4.837   1.981  0.8493 -0.1093  0.3594
 6945TIP3    H120799   1.514   4.796   2.052  2.2417  0.2886 -0.3316
 6945TIP3    H220800   1.465   4.771   1.911  0.1071 -0.2260  0.4585
 6946TIP3   OH220801   3.988   1.856   5.203  0.5868 -0.0799  0.3447
 6946TIP3    H120802   3.928   1.796   5.161  0.4241 -0.0951  0.5946
 6946TIP3    H220803   3.932   1.923   5.243  0.7382 -0.0394  0.4956
 6947TIP3   OH220804   0.191   3.682   1.129 -0.2050 -0.0750  0.3224
 6947TIP3    H120805   0.227   3.763   1.164  3.2456 -1.1170 -0.4852
 6947TIP3    H220806   0.136   3.648   1.200  1.0353  1.2818  2.0149
 6948TIP3   OH220807   3.637   0.451   2.572 -0.0324  0.2491 -0.0571
 6948TIP3    H120808   3.642   0.508   2.648  0.1928  0.9684 -0.6018
 6948TIP3    H220809   3.573   0.493   2.514  0.4319  0.1763 -0.6397
 6949TIP3   OH220810   1.703   6.560   3.800  0.2480  0.3892 -1.1399
 6949TIP3    H120811   1.626   6.536   3.748 -0.2203 -0.2467 -0.1815
 6949TIP3    H220812   1.776   6.553   3.739 -0.2847 -0.3927 -1.7113
 6950TIP3   OH220813   0.503   0.537   4.720  0.0698  0.0548 -0.1430
 6950TIP3    H120814   0.520   0.455   4.675  0.2623 -0.7146  1.2809
 6950TIP3    H220815   0.589   0.579   4.727 -0.0116  0.3318 -0.7699
 6951TIP3   OH220816   2.512   3.986   2.198 -0.1697 -0.2418  0.2222
 6951TIP3    H120817   2.423   3.965   2.170 -0.5709  1.8470 -0.2154
 6951TIP3    H220818   2.500   4.049   2.269  0.9616 -0.5425  0.6938
 6952TIP3   OH220819   1.385   4.864   0.379  0.3475 -0.3644  0.3916
 6952TIP3    H120820   1.432   4.807   0.319  1.1972  0.4251  0.2811
 6952TIP3    H220821   1.293   4.842   0.366  0.4914 -0.0649 -1.3717
 6953TIP3   OH220822   2.620   3.958   3.836 -0.7114  0.4965  0.4259
 6953TIP3    H120823   2.630   4.043   3.878 -0.0275 -0.3163  1.9809
 6953TIP3    H220824   2.702   3.945   3.788 -0.8964  0.7886  0.0262
 6954TIP3   OH220825   1.129   1.875   2.520 -0.0458  0.3523 -0.5162
 6954TIP3    H120826   1.034   1.880   2.530  0.1176  1.4973  0.5758
 6954TIP3    H220827   1.149   1.782   2.533 -1.0091  0.0845 -0.8422
 6955TIP3   OH220828   5.957   3.658   1.426  0.7858 -0.0205  0.1843
 6955TIP3    H120829   5.930   3.593   1.361 -0.8552  1.9930 -1.2522
 6955TIP3    H220830   6.050   3.639   1.441  0.6534 -1.9489 -1.0436
 6956TIP3   OH220831   7.212   6.227   1.186 -0.1096  0.1380 -0.1201
 6956TIP3    H120832   7.176   6.315   1.184 -1.7316 -0.4936  0.0523
 6956TIP3    H220833   7.160   6.181   1.252  1.0876 -0.8054  0.2174
 6957TIP3   OH220834   4.346   2.001   5.758  0.5341  0.0928 -0.2365
 6957TIP3    H120835   4.386   1.955   5.684  0.1118 -0.6343 -0.0221
 6957TIP3    H220836   4.406   2.073   5.777  1.1411 -0.2978 -0.6551
 6958TIP3   OH220837   0.390   1.321   5.915  0.2526  0.2228  0.1761
 6958TIP3    H120838   0.457   1.338   5.849 -1.1125  0.0500 -1.3221
 6958TIP3    H220839   0.322   1.385   5.897 -0.2690  0.0021  1.2802
 6959TIP3   OH220840   0.031   2.299   3.708 -0.2257 -0.2105 -0.3027
 6959TIP3    H120841   0.107   2.308   3.765  0.0189  0.5315 -0.7241
 6959TIP3    H220842  -0.016   2.223   3.741 -1.9079  2.0392  3.0265
 6960TIP3   OH220843   6.209   6.442   4.328  1.0093  0.7253 -0.2972
 6960TIP3    H120844   6.270   6.368   4.332  0.0167 -0.0303  2.3979
 6960TIP3    H220845   6.168   6.444   4.414 -1.6572  2.1888 -1.5081
 6961TIP3   OH220846   4.817   3.697   1.240  0.2330 -0.5736 -0.7525
 6961TIP3    H120847   4.765   3.701   1.320 -0.2862 -0.7382 -1.0753
 6961TIP3    H220848   4.874   3.774   1.244  4.0982 -3.1656  2.3427
 6962TIP3   OH220849   2.393   4.153   2.403  0.0884 -0.3136  0.2900
 6962TIP3    H120850   2.384   4.105   2.485  0.3357  0.3248  0.7063
 6962TIP3    H220851   2.305   4.185   2.383 -0.2597 -1.7171 -0.4909
 6963TIP3   OH220852   2.483   1.573   0.712 -0.1350  0.0261 -0.3167
 6963TIP3    H120853   2.402   1.541   0.673 -0.8906 -0.0376  1.2537
 6963TIP3    H220854   2.474   1.556   0.805  2.1704 -1.0042 -0.2193
 6964TIP3   OH220855   2.386   1.221   2.884  0.7451  0.1490  0.2265
 6964TIP3    H120856   2.480   1.213   2.904  0.8850 -0.6240 -0.6957
 6964TIP3    H220857   2.381   1.209   2.789  0.1468  3.9180 -0.3882
 6965TIP3   OH220858   6.098   1.123   1.117 -0.0909  0.4099 -0.3942
 6965TIP3    H120859   6.106   1.044   1.064 -0.4263 -0.7284  1.1645
 6965TIP3    H220860   6.114   1.195   1.056  3.0143 -0.9254 -1.3460
 6966TIP3   OH220861   3.774   5.169   2.679 -0.2157 -0.1972 -0.6563
 6966TIP3    H120862   3.843   5.110   2.708 -1.1874 -1.1567 -0.2007
 6966TIP3    H220863   3.699   5.147   2.735 -1.4420 -0.4383 -2.3098
 6967TIP3   OH220864   2.583   1.331   3.174 -0.1233 -0.9365 -0.7367
 6967TIP3    H120865   2.614   1.287   3.253 -0.4088 -1.3982 -0.8739
 6967TIP3    H220866   2.631   1.413   3.171  0.4154 -1.2383 -0.4697
 6968TIP3   OH220867   0.837   4.713   5.511 -0.5475  0.1596  0.0365
 6968TIP3    H120868   0.904   4.735   5.446  0.2345  1.6687  1.2879
 6968TIP3    H220869   0.883   4.660   5.576 -1.3680 -1.5046 -0.6874
 6969TIP3   OH220870   4.099   1.946   3.049  0.5142 -0.2189 -0.9520
 6969TIP3    H120871   4.093   2.002   2.971  1.5970  0.9123 -0.2476
 6969TIP3    H220872   4.011   1.948   3.086  0.6726  1.5990 -0.5744
 6970TIP3   OH220873   6.942   5.480   4.756  0.0132  0.2526 -0.6833
 6970TIP3    H120874   6.887   5.552   4.726  0.7373  0.2613 -2.0877
 6970TIP3    H220875   7.016   5.523   4.799 -1.0831  0.2375  1.3367
 6971TIP3   OH220876   1.783   2.502   1.770  0.2640  0.0348  0.1038
 6971TIP3    H120877   1.828   2.433   1.723  0.1852  0.4303 -0.5588
 6971TIP3    H220878   1.850   2.567   1.790  0.3865 -0.3335  0.9386
 6972TIP3   OH220879   4.540   4.966   3.111 -0.0408  0.3942 -0.2669
 6972TIP3    H120880   4.445   4.977   3.115 -0.2102 -0.5428 -1.3058
 6972TIP3    H220881   4.569   4.982   3.201 -1.4852 -1.7931  0.6823
 6973TIP3   OH220882   3.192   1.401   3.492 -0.2804  0.7219 -0.4098
 6973TIP3    H120883   3.235   1.425   3.410  0.2954  1.8550  0.1959
 6973TIP3    H220884   3.250   1.435   3.560 -0.9034  0.0711  0.4625
 6974TIP3   OH220885   1.677   3.982   5.563  0.6064  0.2755 -0.0247
 6974TIP3    H120886   1.694   3.941   5.478 -1.5742  0.8123 -0.7936
 6974TIP3    H220887   1.711   3.921   5.627 -1.3334 -2.1870 -1.1562
 6975TIP3   OH220888   1.341   4.193   1.261 -0.2034  0.3278 -0.4977
 6975TIP3    H120889   1.320   4.125   1.196  2.6330 -1.2295  0.0447
 6975TIP3    H220890   1.315   4.275   1.219 -1.4016 -0.8800 -2.2705
 6976TIP3   OH220891   0.763   3.368   2.568  0.1017 -0.2702 -0.2065
 6976TIP3    H120892   0.713   3.300   2.613  2.2602 -1.5977  0.2961
 6976TIP3    H220893   0.854   3.348   2.586  0.8739  2.1829 -0.9282
 6977TIP3   OH220894   4.341   3.617   1.772  0.4599 -0.0121 -0.3335
 6977TIP3    H120895   4.267   3.624   1.832  0.8211  0.8328  0.0201
 6977TIP3    H220896   4.372   3.527   1.783  1.9963  0.7695  2.5256
 6978TIP3   OH220897   7.040   1.522   4.298 -0.5214  0.3006 -0.0773
 6978TIP3    H120898   7.052   1.486   4.386 -1.6055 -1.1030 -0.4715
 6978TIP3    H220899   6.980   1.595   4.310 -1.8395 -0.7689  0.2214
 6979TIP3   OH220900   5.474   4.205   2.755 -0.0008 -0.1099 -0.2385
 6979TIP3    H120901   5.546   4.263   2.731 -0.5545 -0.5759 -3.6512
 6979TIP3    H220902   5.395   4.258   2.746 -0.3016 -0.5506 -0.2593
 6980TIP3   OH220903   4.861   2.070   4.206  0.6290 -0.1013 -0.3445
 6980TIP3    H120904   4.849   2.159   4.172  0.2867 -0.1875 -0.4597
 6980TIP3    H220905   4.880   2.017   4.129 -3.7569 -0.9934 -1.1236
 6981TIP3   OH220906   6.438   5.580   5.111  0.4531 -0.0548 -0.1741
 6981TIP3    H120907   6.436   5.612   5.201  1.8623  1.2207 -0.5491
 6981TIP3    H220908   6.430   5.485   5.118  2.0377 -0.1176  1.4100
 6982TIP3   OH220909   6.631   5.522   4.923 -0.1524 -0.2493 -0.0341
 6982TIP3    H120910   6.692   5.567   4.981  0.3394  0.5870 -1.1545
 6982TIP3    H220911   6.547   5.526   4.968  0.4137 -0.5397  1.0797
 6983TIP3   OH220912   7.131   1.492   2.231  0.4154  0.1786 -0.3203
 6983TIP3    H120913   7.196   1.456   2.171 -0.8754 -1.9802 -0.5212
 6983TIP3    H220914   7.059   1.430   2.228 -1.2899  1.9893  0.6009
 6984TIP3   OH220915   6.163   0.058   5.712  0.2266  0.5893  0.1028
 6984TIP3    H120916   6.214   0.040   5.791  1.2022  1.2525 -0.3639
 6984TIP3    H220917   6.103   0.128   5.738 -1.1897 -0.8545  0.9332
 6985TIP3   OH220918   0.261   4.004   2.864  0.4786 -0.0369  0.4457
 6985TIP3    H120919   0.169   4.000   2.839  0.6114  0.7456 -0.2192
 6985TIP3    H220920   0.307   3.958   2.794  0.4913 -1.7659  1.5246
 6986TIP3   OH220921   0.233   1.433   1.091  0.8093  0.1964 -0.6534
 6986TIP3    H120922   0.282   1.388   1.021 -0.9177 -0.4112 -1.5147
 6986TIP3    H220923   0.154   1.466   1.048  0.1491  0.6088  0.8323
 6987TIP3   OH220924   6.955   0.178   4.511  0.1839  0.1364  0.0924
 6987TIP3    H120925   6.981   0.093   4.477 -1.0753 -0.0789 -0.3779
 6987TIP3    H220926   6.981   0.177   4.603 -0.4378 -1.0225  0.2696
 6988TIP3   OH220927   6.391   1.047   0.801  0.2198  1.0390 -0.3322
 6988TIP3    H120928   6.473   1.001   0.818  0.7509  2.5134  1.4901
 6988TIP3    H220929   6.329   1.012   0.865 -0.2001  0.8562 -0.8298
 6989TIP3   OH220930   0.236   5.190   1.218  0.2293  0.1987 -0.0884
 6989TIP3    H120931   0.305   5.205   1.154  1.3928  2.2304  1.4965
 6989TIP3    H220932   0.166   5.148   1.169 -0.5082  4.7684 -3.6655
 6990TIP3   OH220933   4.530   6.748   2.352 -0.3787  0.3598  0.5404
 6990TIP3    H120934   4.458   6.734   2.413 -0.5370 -2.6008 -0.2097
 6990TIP3    H220935   4.512   6.690   2.279  2.0232  0.6200 -0.3638
 6991TIP3   OH220936   0.187   4.950   3.496 -0.7427  0.3843 -0.1877
 6991TIP3    H120937   0.250   4.879   3.485 -1.9563 -0.8223  0.2812
 6991TIP3    H220938   0.180   4.962   3.590 -1.2008  0.5077 -0.2348
 6992TIP3   OH220939   4.216   1.449   3.002  0.0113 -0.5426 -0.0651
 6992TIP3    H120940   4.121   1.454   3.014  0.2436  0.9826  1.5574
 6992TIP3    H220941   4.245   1.383   3.065  0.1011 -0.4714 -0.0316
 6993TIP3   OH220942   4.870   5.473   3.021  0.0085  0.2173  0.2549
 6993TIP3    H120943   4.791   5.527   3.023 -0.5968 -0.3911 -2.5002
 6993TIP3    H220944   4.872   5.437   2.932  2.3883 -1.3148  0.8290
 6994TIP3   OH220945   3.812   5.888   2.608  0.6876 -0.0135 -0.0826
 6994TIP3    H120946   3.880   5.928   2.555 -0.7335  1.1443 -1.1133
 6994TIP3    H220947   3.800   5.947   2.682 -0.8391  1.1175 -1.1757
 6995TIP3   OH220948   2.599   4.454   0.693  0.6474  0.5368  0.2997
 6995TIP3    H120949   2.615   4.509   0.769 -1.0367 -0.1825  1.2325
 6995TIP3    H220950   2.606   4.513   0.618  0.9234  1.5518  1.1044
 6996TIP3   OH220951   1.909   0.511   1.050  0.0500 -0.0847 -0.3505
 6996TIP3    H120952   1.982   0.449   1.062 -0.7609 -1.1519 -0.7715
 6996TIP3    H220953   1.903   0.523   0.956  0.8181  1.4366 -0.2381
 6997TIP3   OH220954   1.154   5.652   2.830 -0.5934 -0.0034 -0.1766
 6997TIP3    H120955   1.114   5.621   2.911 -1.8450  2.8068  0.4324
 6997TIP3    H220956   1.224   5.711   2.859 -0.6080  0.5066 -1.1433
 6998TIP3   OH220957   2.231   6.638   0.874 -0.7720  0.2242 -0.0818
 6998TIP3    H120958   2.245   6.693   0.952  1.0297 -0.9645  0.4887
 6998TIP3    H220959   2.228   6.549   0.908  1.0635 -0.4135 -1.4428
 6999TIP3   OH220960   1.403   5.313   1.538  0.2568  0.3087 -0.2658
 6999TIP3    H120961   1.432   5.404   1.541  1.1394  0.0264  0.1796
 6999TIP3    H220962   1.483   5.263   1.522 -0.0842 -0.4516  0.3440
 7000TIP3   OH220963   3.666   0.831   1.910  0.3037 -0.1432 -0.1115
 7000TIP3    H120964   3.689   0.825   2.002 -0.4501 -0.2523  0.0785
 7000TIP3    H220965   3.611   0.909   1.903 -2.1183 -1.7035  0.1106
 7001TIP3   OH220966   0.099   4.294   3.107 -0.5266 -0.1578  0.3041
 7001TIP3    H120967   0.016   4.247   3.116 -0.6912  0.4535  3.2263
 7001TIP3    H220968   0.074   4.386   3.109 -0.0037  0.1565 -2.8105
 7002TIP3   OH220969   1.038   3.999   4.862  0.1937  0.0457  0.4773
 7002TIP3    H120970   0.984   3.952   4.798  0.3223 -2.3285  2.0032
 7002TIP3    H220971   1.126   4.001   4.823  0.1201 -0.7609  0.2535
 7003TIP3   OH220972   6.065   6.546   0.753 -0.8060  0.1025 -0.8593
 7003TIP3    H120973   6.153   6.511   0.748 -1.7239 -2.7153  0.4932
 7003TIP3    H220974   6.041   6.566   0.662  0.2851 -1.7023 -1.5916
 7004TIP3   OH220975   5.157   4.193   2.508 -0.0975 -0.2014  0.1404
 7004TIP3    H120976   5.209   4.125   2.466  2.4326  0.7636  1.4685
 7004TIP3    H220977   5.097   4.145   2.565 -0.2636 -1.3541 -0.9610
 7005TIP3   OH220978   2.566   3.210   5.440  0.7401 -0.1816 -0.0960
 7005TIP3    H120979   2.639   3.196   5.380  1.5601  0.1195  0.7958
 7005TIP3    H220980   2.554   3.305   5.441 -0.4609 -0.3009 -1.1319
 7006TIP3   OH220981   5.662   1.123   4.784 -0.1704 -0.6426 -0.2059
 7006TIP3    H120982   5.711   1.085   4.857 -0.6253  0.7058  0.8274
 7006TIP3    H220983   5.730   1.151   4.723  0.1884 -3.2115 -1.1219
 7007TIP3   OH220984   6.782   6.099   0.134 -0.2441 -0.2249  0.3115
 7007TIP3    H120985   6.871   6.105   0.168  0.5146 -0.9633 -1.4559
 7007TIP3    H220986   6.742   6.027   0.184 -0.9129  1.9851  3.2198
 7008TIP3   OH220987   1.446   2.966   5.720  0.1916  0.2816 -0.0186
 7008TIP3    H120988   1.484   3.014   5.646  0.2422  1.7577  0.9341
 7008TIP3    H220989   1.416   3.034   5.780 -0.2721 -0.8899  1.1168
 7009TIP3   OH220990   0.900   3.975   5.481 -0.3010  0.6045 -0.6790
 7009TIP3    H120991   0.972   4.003   5.538  0.0327  1.9464 -1.7065
 7009TIP3    H220992   0.916   3.882   5.466 -0.7145  0.0460  1.8248
 7010TIP3   OH220993   0.332   2.875   5.372  0.1802  0.0883  0.5574
 7010TIP3    H120994   0.335   2.799   5.315 -1.2510  0.9613 -0.7899
 7010TIP3    H220995   0.405   2.930   5.343  0.2244 -0.0464  0.4134
 7011TIP3   OH220996   0.555   3.147   5.124  0.0537 -0.5370  0.0233
 7011TIP3    H120997   0.607   3.219   5.090 -0.8541 -1.1605 -3.0742
 7011TIP3    H220998   0.599   3.120   5.205  3.0675  0.5203 -1.1357
 7012TIP3   OH220999   1.923   2.023   2.781  0.0865  0.4158 -0.1574
 7012TIP3    H121000   1.976   1.964   2.729  0.1567  0.5305 -0.2178
 7012TIP3    H221001   1.860   2.059   2.719 -1.0941 -0.9081  0.2313
 7013TIP3   OH221002   7.084   6.635   4.276 -0.0651  0.2297 -0.4009
 7013TIP3    H121003   7.121   6.656   4.191  2.0377 -0.6874  0.2281
 7013TIP3    H221004   7.025   6.562   4.260  0.0035  0.3292 -1.1108
 7014TIP3   OH221005   2.051   5.797   0.081 -0.0290  0.4892  0.3008
 7014TIP3    H121006   1.960   5.776   0.097 -0.1136  0.6185 -0.0103
 7014TIP3    H221007   2.077   5.742   0.007  0.6420 -0.8351  1.4684
 7015TIP3   OH221008   2.957   2.219   0.732  0.4531  0.0257  0.1779
 7015TIP3    H121009   3.000   2.294   0.772  0.6010 -0.7515  1.5319
 7015TIP3    H221010   2.867   2.222   0.766  0.3008 -0.0854 -0.2130
 7016TIP3   OH221011   0.891   1.017   4.024 -0.8901  0.2190 -0.2920
 7016TIP3    H121012   0.867   1.106   3.997  0.8415  0.9567  0.4895
 7016TIP3    H221013   0.883   1.018   4.119  1.0957  0.1824 -0.0930
 7017TIP3   OH221014   4.493   3.936   2.237 -0.4847 -0.7564  0.2394
 7017TIP3    H121015   4.521   3.998   2.170 -1.5901 -2.5296 -2.0318
 7017TIP3    H221016   4.559   3.942   2.306  0.7014  1.1889 -0.9904
 7018TIP3   OH221017   2.658   4.343   2.244  0.1415 -0.4123  0.3716
 7018TIP3    H121018   2.573   4.379   2.271 -0.3556 -0.8872 -0.5322
 7018TIP3    H221019   2.704   4.418   2.206  0.0076 -0.2183  0.5910
 7019TIP3   OH221020   3.410   5.324   3.677 -0.0240 -0.5648  0.0474
 7019TIP3    H121021   3.322   5.294   3.657  0.3203 -1.5285 -0.0624
 7019TIP3    H221022   3.458   5.245   3.701  0.5999  0.0475  0.8959
 7020TIP3   OH221023   5.286   3.649   1.077  0.2747  0.2828  0.1468
 7020TIP3    H121024   5.324   3.601   1.004  0.8015  0.1709  0.4936
 7020TIP3    H221025   5.192   3.651   1.058  0.1540 -1.4010  0.4109
 7021TIP3   OH221026   3.975   5.133   4.211 -0.0167  0.6766 -0.5874
 7021TIP3    H121027   3.935   5.074   4.147  0.6744 -0.4129 -0.0290
 7021TIP3    H221028   3.946   5.100   4.296  0.1644  1.3111 -0.2750
 7022TIP3   OH221029   1.840   1.838   0.933 -0.2839 -0.4854 -0.2082
 7022TIP3    H121030   1.799   1.924   0.943  0.7765 -0.0832  0.8906
 7022TIP3    H221031   1.929   1.857   0.903  0.1115 -1.1642  0.4804
 7023TIP3   OH221032   5.995   2.402   3.898 -0.1986  0.3072  0.4570
 7023TIP3    H121033   6.046   2.445   3.829  3.0655 -1.8429  1.2862
 7023TIP3    H221034   5.975   2.315   3.862 -2.4787  0.7204  0.5955
 7024TIP3   OH221035   3.250   3.828   2.737 -0.0189 -0.4909 -0.1145
 7024TIP3    H121036   3.204   3.750   2.768 -0.0933 -1.3720 -2.3213
 7024TIP3    H221037   3.195   3.864   2.668 -0.1814  1.8183  1.0918
 7025TIP3   OH221038   4.233   3.413   3.641 -0.0026  0.7282 -0.1819
 7025TIP3    H121039   4.312   3.360   3.630 -0.3689 -0.2819  1.7185
 7025TIP3    H221040   4.265   3.499   3.669  0.4356  0.2230  0.9239
 7026TIP3   OH221041   3.053   0.326   3.694  0.6221 -0.5040  0.2916
 7026TIP3    H121042   2.966   0.363   3.712  0.7366 -0.4619  0.7898
 7026TIP3    H221043   3.109   0.365   3.761  0.9293 -0.9000  0.2659
 7027TIP3   OH221044   1.507   3.656   1.338 -0.4856  0.1326  0.3116
 7027TIP3    H121045   1.559   3.590   1.383  0.9250  0.3678 -0.9070
 7027TIP3    H221046   1.539   3.739   1.371  0.4834  0.3035 -1.0043
 7028TIP3   OH221047   6.729   2.687   2.294  0.3989 -0.0532 -0.0202
 7028TIP3    H121048   6.681   2.667   2.214  0.2507  2.1743 -0.5644
 7028TIP3    H221049   6.769   2.604   2.320  1.1200 -0.6728 -2.8396
 7029TIP3   OH221050   7.033   6.065   1.297 -0.6476 -0.0938  0.2838
 7029TIP3    H121051   6.951   6.107   1.270 -0.1546  0.6199 -0.1477
 7029TIP3    H221052   7.057   6.009   1.223 -1.1134 -0.8667  0.7080
 7030TIP3   OH221053   0.473   4.972   1.943  0.0440 -0.7931 -0.9428
 7030TIP3    H121054   0.421   4.974   1.863 -0.0423 -1.4343 -0.9103
 7030TIP3    H221055   0.509   4.883   1.946  2.4598  0.0740 -1.7949
 7031TIP3   OH221056   5.326   2.750   1.212  0.4515  0.6111  0.3239
 7031TIP3    H121057   5.345   2.843   1.199  0.9646  0.3207 -1.1532
 7031TIP3    H221058   5.243   2.736   1.166  0.4970  0.2920  0.3358
 7032TIP3   OH221059   7.089   0.294   3.303  0.0414  0.3803  0.2960
 7032TIP3    H121060   7.062   0.258   3.387 -0.2997  0.9632  0.4433
 7032TIP3    H221061   7.071   0.224   3.240 -0.8896  0.3844  0.5345
 7033TIP3   OH221062   5.964   2.243   5.261 -0.0422  0.1190 -0.1990
 7033TIP3    H121063   6.054   2.212   5.273  0.2598  1.2661  0.6380
 7033TIP3    H221064   5.940   2.282   5.345 -1.1663  0.2111 -0.5477
 7034TIP3   OH221065   4.619   0.629   4.363  0.4889 -0.8323 -0.4526
 7034TIP3    H121066   4.537   0.679   4.365  1.1844  0.3194  0.4423
 7034TIP3    H221067   4.610   0.571   4.287 -2.1998 -2.5699  1.0330
 7035TIP3   OH221068   7.170   3.472   0.742 -0.1429 -0.3777 -0.4275
 7035TIP3    H121069   7.111   3.481   0.667 -1.9484 -2.5052  0.6396
 7035TIP3    H221070   7.148   3.546   0.799 -1.0896 -0.5888 -0.5057
 7036TIP3   OH221071   4.974   6.466   5.831 -0.2219  0.1307 -0.0720
 7036TIP3    H121072   5.046   6.476   5.769 -0.1785 -1.3168 -0.3031
 7036TIP3    H221073   4.907   6.527   5.800  0.0930 -0.0324 -1.1140
 7037TIP3   OH221074   2.210   3.134   0.351  0.0906 -0.6014  0.1710
 7037TIP3    H121075   2.262   3.082   0.411 -0.1053 -1.7097 -0.5976
 7037TIP3    H221076   2.260   3.134   0.269 -1.2977 -2.0756 -0.7193
 7038TIP3   OH221077   0.073   1.525   5.006  0.6512 -0.1788 -0.6288
 7038TIP3    H121078   0.031   1.611   4.997  0.5653 -0.0004  1.1893
 7038TIP3    H221079   0.024   1.468   4.946 -1.2928  0.3650  0.3753
 7039TIP3   OH221080   2.211   3.228   4.143 -0.6587 -0.1331  0.6092
 7039TIP3    H121081   2.284   3.167   4.133 -0.7472  0.0194 -1.3082
 7039TIP3    H221082   2.241   3.290   4.209  0.4559 -0.7892  0.7461
 7040TIP3   OH221083   0.125   4.474   4.952 -0.1468  0.0369  0.0201
 7040TIP3    H121084   0.074   4.523   5.017 -0.8565  0.2837 -0.7066
 7040TIP3    H221085   0.131   4.532   4.876 -1.0794 -0.9971 -0.8851
 7041TIP3   OH221086   3.350   3.776   1.062 -0.0344 -0.4037 -0.0143
 7041TIP3    H121087   3.281   3.802   1.000  0.5212  0.2652 -0.3588
 7041TIP3    H221088   3.416   3.845   1.055 -0.0794 -0.1735  1.5281
 7042TIP3   OH221089   2.224   5.045   1.804  0.4650  0.2752  0.2465
 7042TIP3    H121090   2.281   5.119   1.825 -0.1318  0.5286  1.0363
 7042TIP3    H221091   2.265   4.970   1.847  0.5841  0.3207  0.2128
 7043TIP3   OH221092   6.580   0.112   1.344 -0.0593 -0.1602  0.0971
 7043TIP3    H121093   6.547   0.132   1.432 -0.0783  1.4048 -0.2397
 7043TIP3    H221094   6.675   0.123   1.352  0.0320 -0.9088  0.1274
 7044TIP3   OH221095   1.320   2.131   0.610 -0.1281  0.3247 -0.0693
 7044TIP3    H121096   1.303   2.200   0.547 -1.6100 -0.1603 -0.2488
 7044TIP3    H221097   1.259   2.061   0.587  0.9010 -0.8134  0.4793
 7045TIP3   OH221098   2.289   5.399   0.608 -0.0351 -0.0863 -0.0632
 7045TIP3    H121099   2.317   5.446   0.529 -1.0650 -1.7973 -1.5186
 7045TIP3    H221100   2.210   5.351   0.582 -0.2413 -0.9584  1.9259
 7046TIP3   OH221101   0.216   6.728   0.073 -0.3147 -0.1874  0.3834
 7046TIP3    H121102   0.151   6.710   0.005  0.0418 -0.0440  0.0026
 7046TIP3    H221103   0.222   6.647   0.124  0.0279 -0.5712 -0.2627
 7047TIP3   OH221104   2.782   2.105   2.838  0.1305 -0.2940 -0.1309
 7047TIP3    H121105   2.792   2.190   2.795 -0.2645  0.7772  1.7630
 7047TIP3    H221106   2.832   2.044   2.784  0.3246  1.1132 -1.6085
 7048TIP3   OH221107   1.288   0.466   1.935 -0.3396 -0.2290  0.1919
 7048TIP3    H121108   1.257   0.490   1.847 -0.7738 -1.3968  0.0022
 7048TIP3    H221109   1.373   0.508   1.942 -1.9571  3.3119  0.8228
 7049TIP3   OH221110   0.388   2.082   5.344 -0.3105 -0.1230 -0.2666
 7049TIP3    H121111   0.442   2.007   5.317  0.2845  0.4940 -0.8534
 7049TIP3    H221112   0.342   2.107   5.264  0.7059  1.1110 -0.4974
 7050TIP3   OH221113   2.778   3.785   3.509 -0.0519  0.9913  0.7792
 7050TIP3    H121114   2.794   3.874   3.539  1.8046  1.4330 -1.2822
 7050TIP3    H221115   2.747   3.795   3.419  0.6297 -0.4516  0.3507
 7051TIP3   OH221116   0.046   3.989   2.698  0.2482  0.4328 -0.1803
 7051TIP3    H121117   0.027   3.896   2.686  1.3131 -0.1372  2.1064
 7051TIP3    H221118   0.093   4.014   2.618 -0.0398 -0.9868 -0.8184
 7052TIP3   OH221119   4.953   2.266   4.030  1.0465 -0.1815  0.1514
 7052TIP3    H121120   4.928   2.348   3.986  1.2186 -0.3668 -0.3062
 7052TIP3    H221121   4.961   2.203   3.958  0.0948 -0.8158  0.5907
 7053TIP3   OH221122   6.539   6.098   5.152  0.2876 -0.2601  0.0579
 7053TIP3    H121123   6.596   6.157   5.201  0.7707 -0.1672 -0.6004
 7053TIP3    H221124   6.529   6.022   5.209 -1.6181  1.0517  1.6157
 7054TIP3   OH221125   0.424   5.156   4.984  0.1180  0.1861 -0.0757
 7054TIP3    H121126   0.499   5.213   4.967 -0.1666  0.5159 -0.2411
 7054TIP3    H221127   0.449   5.106   5.062 -0.1466  1.4467  0.8434
 7055TIP3   OH221128   6.881   5.652   4.321 -0.5412 -0.1326  0.2132
 7055TIP3    H121129   6.967   5.632   4.283 -0.5554  0.4041 -0.1077
 7055TIP3    H221130   6.826   5.578   4.295 -0.4178 -0.0218 -0.3881
 7056TIP3   OH221131   3.265   1.917   5.420  0.3547  0.3277  0.5434
 7056TIP3    H121132   3.230   1.903   5.508  0.8279  0.5296  0.7690
 7056TIP3    H221133   3.232   2.004   5.395  0.8339  0.5929  0.8262
 7057TIP3   OH221134   3.620   3.180   3.495 -0.2711  0.2972  0.0470
 7057TIP3    H121135   3.660   3.264   3.473  1.5722 -0.5411 -0.0066
 7057TIP3    H221136   3.583   3.193   3.582  0.7572  0.9316  0.4047
 7058TIP3   OH221137   2.387   2.453   0.441 -0.1096  0.6870  0.3583
 7058TIP3    H121138   2.316   2.507   0.408 -0.1911  0.5611  0.3267
 7058TIP3    H221139   2.358   2.423   0.527  0.5873  1.9576  1.0637
 7059TIP3   OH221140   2.309   3.691   3.452 -0.1877 -0.3561  0.1098
 7059TIP3    H121141   2.339   3.781   3.436  0.5700 -0.5386  0.4707
 7059TIP3    H221142   2.364   3.660   3.524  0.1234 -1.3995 -0.5624
 7060TIP3   OH221143   1.875   1.019   0.654  0.4735  0.1634 -0.1186
 7060TIP3    H121144   1.928   1.083   0.701 -1.0285  1.8022 -0.5725
 7060TIP3    H221145   1.788   1.058   0.650 -0.4224 -1.7844 -0.6990
 7061TIP3   OH221146   2.563   5.486   5.536 -0.2324 -0.0852 -0.1358
 7061TIP3    H121147   2.559   5.544   5.612 -1.5417  1.5362 -1.3771
 7061TIP3    H221148   2.646   5.508   5.493  0.5316 -1.0351  0.7886
 7062TIP3   OH221149   2.297   5.300   4.968  0.3409  0.3072 -0.1616
 7062TIP3    H121150   2.392   5.310   4.965  0.5044 -1.2236 -0.8796
 7062TIP3    H221151   2.280   5.217   4.923 -1.2492  0.0280  0.8826
 7063TIP3   OH221152   6.682   5.262   3.823  0.0731  0.5879 -0.2291
 7063TIP3    H121153   6.632   5.269   3.904 -0.0074 -0.1670 -0.2078
 7063TIP3    H221154   6.742   5.336   3.826  0.7259  0.0423  0.9724
 7064TIP3   OH221155   4.100   6.099   5.627  0.5210  0.6712  0.0906
 7064TIP3    H121156   4.075   6.050   5.705  2.3368 -0.0877  0.2266
 7064TIP3    H221157   4.079   6.190   5.648 -2.2426  0.1208  0.0981
 7065TIP3   OH221158   0.662   3.643   5.493  0.8707  0.0320 -0.0331
 7065TIP3    H121159   0.649   3.585   5.418 -1.1016  0.7036 -0.2832
 7065TIP3    H221160   0.640   3.731   5.460  1.1767  0.5159  1.0038
 7066TIP3   OH221161   0.543   5.615   2.562  0.0531 -0.1358  0.1539
 7066TIP3    H121162   0.566   5.584   2.474  0.7198  0.2799  0.1757
 7066TIP3    H221163   0.610   5.578   2.619  0.0824  0.2487  0.3714
 7067TIP3   OH221164   5.248   3.465   3.759  0.0826  0.0547 -0.0113
 7067TIP3    H121165   5.177   3.419   3.803 -0.3138  0.9518  0.3147
 7067TIP3    H221166   5.235   3.558   3.782  1.8677  0.1599  0.8177
 7068TIP3   OH221167   0.950   5.237   2.072 -0.1070 -0.3457  0.1209
 7068TIP3    H121168   0.865   5.205   2.042  0.7079 -1.4269 -1.2184
 7068TIP3    H221169   0.981   5.169   2.132 -0.2494  0.1402  0.7598
 7069TIP3   OH221170   1.769   4.126   1.694  0.2425 -0.0775 -0.1542
 7069TIP3    H121171   1.701   4.062   1.714 -0.5857  0.1772 -1.9560
 7069TIP3    H221172   1.798   4.157   1.780 -0.4371 -1.7061  0.7094
 7070TIP3   OH221173   5.684   0.265   1.833  0.8134 -0.6107 -0.1796
 7070TIP3    H121174   5.672   0.331   1.765 -0.6405  0.1468  0.7621
 7070TIP3    H221175   5.641   0.302   1.910  1.9873 -1.6611  1.0273
 7071TIP3   OH221176   3.413   2.226   0.360  0.3392  0.0288 -0.2098
 7071TIP3    H121177   3.333   2.181   0.333 -0.3929  0.4193  1.1904
 7071TIP3    H221178   3.431   2.288   0.289 -1.2307  0.6831 -0.0774
 7072TIP3   OH221179   1.023   2.860   4.145 -0.0470  0.4327 -0.4527
 7072TIP3    H121180   0.998   2.787   4.090  0.7754 -0.9702  0.9332
 7072TIP3    H221181   1.080   2.914   4.090 -0.0978 -0.3508 -1.2888
 7073TIP3   OH221182   5.300   6.604   1.015 -0.1232  0.1449  0.1138
 7073TIP3    H121183   5.260   6.519   0.995  0.5869 -0.2420  0.3088
 7073TIP3    H221184   5.385   6.602   0.971 -0.0576  0.7241  0.1993
 7074TIP3   OH221185   4.824   6.659   3.251 -0.2843 -0.2354  0.3358
 7074TIP3    H121186   4.906   6.636   3.296  0.4283  1.5230 -0.0076
 7074TIP3    H221187   4.776   6.712   3.314  0.3580  1.5629 -0.6419
 7075TIP3   OH221188   4.074   4.294   2.476 -0.1134  0.0636 -0.3064
 7075TIP3    H121189   4.045   4.385   2.472  2.3531  0.9186 -0.5343
 7075TIP3    H221190   4.094   4.271   2.385  2.4162  0.4903  0.0583
 7076TIP3   OH221191   4.911   2.984   5.027 -0.2464  0.8835  0.3667
 7076TIP3    H121192   4.969   3.013   4.957  1.3949  0.4646  1.5024
 7076TIP3    H221193   4.968   2.938   5.089 -2.3217 -2.7548 -0.1536
 7077TIP3   OH221194   6.187   2.519   1.064  0.0167 -0.2180  0.1731
 7077TIP3    H121195   6.279   2.534   1.039 -0.6172  1.7716 -1.2180
 7077TIP3    H221196   6.165   2.434   1.026  1.3020 -0.8154  0.6921
 7078TIP3   OH221197   4.394   6.071   2.717  0.0393 -0.0319  0.0150
 7078TIP3    H121198   4.481   6.109   2.702  0.3785 -0.3423  1.1577
 7078TIP3    H221199   4.407   5.977   2.709 -0.2424 -0.0683 -0.0154
 7079TIP3   OH221200   6.216   1.794   3.824 -0.3616  0.8407  0.7789
 7079TIP3    H121201   6.199   1.849   3.900 -0.5185 -1.1314  2.2378
 7079TIP3    H221202   6.310   1.800   3.811 -0.2046  0.4687  1.7120
 7080TIP3   OH221203   2.892   4.318   5.630  0.1164 -1.0830 -0.2365
 7080TIP3    H121204   2.925   4.400   5.594 -1.1525 -0.1448  0.6336
 7080TIP3    H221205   2.905   4.326   5.724  1.2976 -2.5283 -0.2388
 7081TIP3   OH221206   6.970   5.433   2.810 -0.2727 -0.5861  0.0563
 7081TIP3    H121207   7.060   5.442   2.842  0.3907 -2.0739 -1.2379
 7081TIP3    H221208   6.969   5.479   2.727 -0.4095 -1.4032 -0.4062
 7082TIP3   OH221209   4.281   2.213   5.193 -0.5820 -0.1652  0.2208
 7082TIP3    H121210   4.352   2.195   5.253 -1.1441  0.5855  1.1353
 7082TIP3    H221211   4.208   2.242   5.249 -0.7520  1.6959 -0.8806
 7083TIP3   OH221212   3.436   3.647   5.410  0.2744  0.0592 -0.7310
 7083TIP3    H121213   3.357   3.699   5.400 -0.7705 -1.2802  0.2493
 7083TIP3    H221214   3.489   3.669   5.332 -0.6135  1.6590 -0.9315
 7084TIP3   OH221215   5.503   0.528   0.356 -0.3963 -0.2825 -0.4497
 7084TIP3    H121216   5.503   0.573   0.441 -1.2155 -0.2793 -0.4451
 7084TIP3    H221217   5.573   0.570   0.307  0.1396 -0.3351  0.2535
 7085TIP3   OH221218   2.649   6.327   2.268  0.3194 -0.0679 -1.0457
 7085TIP3    H121219   2.636   6.359   2.179 -0.4354  2.2546 -0.1929
 7085TIP3    H221220   2.560   6.321   2.305  0.6566 -0.4115 -0.2643
 7086TIP3   OH221221   5.251   0.407   4.064 -0.4355  0.3615 -0.5719
 7086TIP3    H121222   5.319   0.458   4.108  0.4758  0.3750 -1.9351
 7086TIP3    H221223   5.293   0.322   4.045 -1.2079 -0.0880 -0.3157
 7087TIP3   OH221224   5.071   4.644   1.383 -0.4438  0.3094 -0.3211
 7087TIP3    H121225   5.066   4.696   1.303 -0.6030  0.5773 -0.1419
 7087TIP3    H221226   4.996   4.674   1.435  1.1168  2.0164  1.0505
 7088TIP3   OH221227   2.422   3.957   3.365  0.8709 -0.3122  0.1479
 7088TIP3    H121228   2.399   4.049   3.375 -0.4332 -0.4493 -1.2904
 7088TIP3    H221229   2.500   3.946   3.419  0.1098  1.2403  1.6537
 7089TIP3   OH221230   3.036   1.659   3.005 -0.1311  0.2950  0.1011
 7089TIP3    H121231   2.988   1.695   2.931 -1.5707 -2.0982 -0.2217
 7089TIP3    H221232   3.127   1.654   2.974 -0.1531  2.1492 -0.3498
 7090TIP3   OH221233   1.221   6.345   4.881  0.2352 -0.3961 -0.2220
 7090TIP3    H121234   1.275   6.280   4.836  0.1508 -0.0366 -0.8602
 7090TIP3    H221235   1.135   6.336   4.841  0.0562 -0.3295  0.1426
 7091TIP3   OH221236   0.523   1.797   2.965  0.0874 -0.7542 -0.3262
 7091TIP3    H121237   0.531   1.867   3.030  0.3760 -1.5439  0.5145
 7091TIP3    H221238   0.606   1.800   2.917  0.2876 -0.8061  0.0116
 7092TIP3   OH221239   5.230   3.554   5.038 -0.3086 -0.0681 -0.4692
 7092TIP3    H121240   5.259   3.531   5.126 -1.8034  2.6413  0.8480
 7092TIP3    H221241   5.148   3.506   5.025  0.0820 -0.7206 -0.5251
 7093TIP3   OH221242   4.357   3.174   2.199 -0.0181  0.7507  0.4914
 7093TIP3    H121243   4.412   3.175   2.121 -0.4212 -1.6314  0.0903
 7093TIP3    H221244   4.360   3.263   2.233  1.3047  1.4854 -1.4435
 7094TIP3   OH221245   3.176   6.294   3.740  0.4035  0.6553  0.0607
 7094TIP3    H121246   3.244   6.360   3.730  1.0437  0.0622  0.3865
 7094TIP3    H221247   3.223   6.210   3.733 -0.4398  0.2264 -0.7569
 7095TIP3   OH221248   6.619   4.413   5.044  0.2273 -0.2956 -0.2111
 7095TIP3    H121249   6.538   4.425   4.994 -0.7357  0.0103  1.3561
 7095TIP3    H221250   6.647   4.324   5.023  0.0789 -0.0412 -1.5881
 7096TIP3   OH221251   1.268   6.012   2.555  0.4164  0.4097  0.0947
 7096TIP3    H121252   1.331   6.079   2.582 -1.6216  1.5725  2.3800
 7096TIP3    H221253   1.183   6.057   2.558 -0.8473 -1.8467  0.1062
 7097TIP3   OH221254   2.711   0.303   4.999 -0.7082  0.6809 -0.1631
 7097TIP3    H121255   2.677   0.391   4.983 -1.9190  0.7058  2.1025
 7097TIP3    H221256   2.646   0.245   4.959 -1.2189  0.8052  0.4630
 7098TIP3   OH221257   6.615   0.247   4.095  0.4318 -0.5004  0.8770
 7098TIP3    H121258   6.652   0.187   4.160  3.8702 -0.2335 -0.6001
 7098TIP3    H221259   6.648   0.333   4.120  1.9643 -0.4068 -1.1593
 7099TIP3   OH221260   5.543   1.093   0.285  0.0282  0.6390 -0.4699
 7099TIP3    H121261   5.514   1.176   0.246  1.1768  1.6365  0.6865
 7099TIP3    H221262   5.635   1.108   0.306 -0.0092 -0.5862  0.6721
 7100TIP3   OH221263   0.864   6.208   1.194  0.1539  0.4520 -0.5199
 7100TIP3    H121264   0.945   6.248   1.226 -1.1092  0.8399  2.5631
 7100TIP3    H221265   0.804   6.214   1.268 -1.7233 -2.6847 -1.6106
 7101TIP3   OH221266   3.950   6.304   4.007  0.3088  0.0596 -0.1533
 7101TIP3    H121267   3.856   6.304   4.021  0.2345  1.6049 -0.4515
 7101TIP3    H221268   3.983   6.374   4.063  1.2593 -0.3320 -0.1972
 7102TIP3   OH221269   0.701   0.500   3.555 -0.1763  0.5965 -0.3091
 7102TIP3    H121270   0.651   0.569   3.600 -2.3225 -0.8771 -0.2956
 7102TIP3    H221271   0.636   0.435   3.531  1.7258 -1.2568 -0.7145
 7103TIP3   OH221272   6.789   2.545   5.693 -0.5733  0.3105  0.3392
 7103TIP3    H121273   6.854   2.508   5.752  0.7436 -0.4566 -1.4782
 7103TIP3    H221274   6.731   2.472   5.673  0.8725 -0.3919 -1.7103
 7104TIP3   OH221275   6.263   5.600   5.639 -0.1215  0.2635 -0.1330
 7104TIP3    H121276   6.258   5.674   5.700 -1.3676 -0.2395  0.3982
 7104TIP3    H221277   6.335   5.546   5.673  0.6169  1.0641 -0.3680
 7105TIP3   OH221278   3.699   4.155   2.084 -0.5406 -0.2068  0.4201
 7105TIP3    H121279   3.699   4.098   2.006 -0.1785  1.1941 -0.6416
 7105TIP3    H221280   3.756   4.228   2.060 -1.3985  0.8756  1.5567
 7106TIP3   OH221281   5.034   0.977   0.254 -0.2877  0.0895 -0.1358
 7106TIP3    H121282   5.102   1.041   0.236  0.5999 -0.3989  1.3914
 7106TIP3    H221283   4.981   1.016   0.324 -1.3600  0.2798 -1.0105
 7107TIP3   OH221284   0.554   1.860   2.427 -0.2790  0.2252 -0.1430
 7107TIP3    H121285   0.535   1.942   2.473 -0.6792  0.1435 -0.1633
 7107TIP3    H221286   0.509   1.793   2.477 -0.7042  0.1309 -0.6452
 7108TIP3   OH221287   1.213   3.472   3.026  0.3833 -0.0726  0.3077
 7108TIP3    H121288   1.256   3.540   3.077  0.1585 -0.2112  0.6862
 7108TIP3    H221289   1.236   3.390   3.070  1.2993 -0.3291 -0.5941
 7109TIP3   OH221290   7.191   4.685   3.680  0.0001 -0.2063  0.2181
 7109TIP3    H121291   7.183   4.598   3.718 -2.6691 -0.3261 -0.4110
 7109TIP3    H221292   7.224   4.670   3.591 -2.6175 -0.8798 -0.7148
 7110TIP3   OH221293   3.512   1.965   2.524  0.0144  0.2160 -0.2751
 7110TIP3    H121294   3.601   1.994   2.502  0.4285 -1.2574 -0.6820
 7110TIP3    H221295   3.490   1.902   2.456 -1.8849  1.4968 -0.9146
 7111TIP3   OH221296   1.884   5.747   4.558  0.3181  0.3683 -0.0966
 7111TIP3    H121297   1.860   5.787   4.642 -0.6288 -1.1961  0.4300
 7111TIP3    H221298   1.849   5.807   4.492 -0.1532  0.9370  0.6509
 7112TIP3   OH221299   1.221   1.337   1.184 -0.1306  0.3438  0.6755
 7112TIP3    H121300   1.200   1.383   1.265 -0.8937 -0.2256  0.8095
 7112TIP3    H221301   1.148   1.277   1.170  0.4578 -0.2623  0.0834
 7113TIP3   OH221302   6.743   0.095   4.284 -0.0700 -0.1082 -0.4005
 7113TIP3    H121303   6.831   0.062   4.301 -0.0495  0.1031 -0.0943
 7113TIP3    H221304   6.689   0.016   4.274  0.1995 -0.2423 -0.8567
 7114TIP3   OH221305   6.206   4.198   0.181  0.2963  0.0089  0.1687
 7114TIP3    H121306   6.289   4.245   0.170 -0.8054  1.9095 -0.4486
 7114TIP3    H221307   6.205   4.172   0.273  1.9659 -0.8929 -0.0211
 7115TIP3   OH221308   0.787   1.051   4.276 -0.2013 -0.2469  0.0408
 7115TIP3    H121309   0.771   0.989   4.348 -0.1184 -0.2438  0.0623
 7115TIP3    H221310   0.717   1.033   4.213 -1.0585  0.6253  0.6972
 7116TIP3   OH221311   5.818   6.670   5.461  0.1521 -0.0198 -0.2487
 7116TIP3    H121312   5.823   6.751   5.409 -0.3262 -0.6236 -1.2813
 7116TIP3    H221313   5.802   6.700   5.550 -0.3448  1.0225 -0.6656
 7117TIP3   OH221314   3.812   4.772   2.706 -0.1088  0.7356 -0.0569
 7117TIP3    H121315   3.868   4.837   2.664  0.7097 -0.3202 -0.6329
 7117TIP3    H221316   3.841   4.771   2.797  1.4528 -0.4167 -0.5248
 7118TIP3   OH221317   7.077   3.832   1.407 -0.6395  0.4190  0.6931
 7118TIP3    H121318   7.142   3.766   1.432 -0.2800  0.1243 -0.9245
 7118TIP3    H221319   7.102   3.910   1.457  0.0544 -0.1241  1.2158
 7119TIP3   OH221320   1.507   4.166   5.483 -0.2227 -0.1596  0.3601
 7119TIP3    H121321   1.531   4.187   5.393 -0.1345 -1.3725  0.0837
 7119TIP3    H221322   1.574   4.104   5.512 -0.6646 -0.3534  0.9968
 7120TIP3   OH221323   4.102   4.082   4.628  0.1263 -0.2107  0.1281
 7120TIP3    H121324   4.142   4.113   4.709  0.1820  1.6429 -0.5518
 7120TIP3    H221325   4.086   4.162   4.577  0.0512 -1.3184 -1.6759
 7121TIP3   OH221326   4.543   0.201   1.457  0.2895 -0.1242  0.0303
 7121TIP3    H121327   4.628   0.243   1.472  0.2018  0.4666 -1.0084
 7121TIP3    H221328   4.479   0.261   1.496  0.2481  0.1510 -0.4550
 7122TIP3   OH221329   1.584   2.200   0.638 -0.5273  0.0053 -0.0182
 7122TIP3    H121330   1.502   2.156   0.619 -1.5609  1.9822 -0.4099
 7122TIP3    H221331   1.570   2.243   0.722 -0.3108  1.2462 -0.5973
 7123TIP3   OH221332   6.309   1.366   2.534  0.3696  0.5446 -0.4306
 7123TIP3    H121333   6.243   1.369   2.603  1.4097  0.6999  0.5940
 7123TIP3    H221334   6.289   1.442   2.479  0.4385  1.3419  0.5925
 7124TIP3   OH221335   0.960   3.366   2.958  0.3619  0.8820 -0.3690
 7124TIP3    H121336   1.049   3.375   2.925  0.4189 -0.2201 -0.5684
 7124TIP3    H221337   0.942   3.272   2.953 -0.3853  0.9392  0.7870
 7125TIP3   OH221338   7.049   5.960   3.626  0.2641 -0.1351  0.1760
 7125TIP3    H121339   7.045   6.050   3.657 -0.0563 -0.3662  0.8017
 7125TIP3    H221340   7.122   5.921   3.674 -0.6057 -0.6600  1.0854
 7126TIP3   OH221341   3.157   5.126   0.537  0.5732 -0.4316  0.8910
 7126TIP3    H121342   3.232   5.150   0.482 -0.8743  0.4312 -0.8301
 7126TIP3    H221343   3.183   5.152   0.626  1.6601  1.4984  0.0795
 7127TIP3   OH221344   0.447   4.870   5.493 -0.0768 -0.4048  0.3418
 7127TIP3    H121345   0.419   4.960   5.477 -1.3958 -0.6446  1.1631
 7127TIP3    H221346   0.517   4.877   5.558 -1.5266 -0.0656  1.9284
 7128TIP3   OH221347   0.955   1.353   2.486  0.2253 -0.5044 -0.3117
 7128TIP3    H121348   0.916   1.269   2.510  0.3538 -0.5961 -0.4190
 7128TIP3    H221349   1.046   1.346   2.514 -0.3709  0.6310  2.2039
 7129TIP3   OH221350   1.908   6.568   2.556  0.0246  0.6625  0.3403
 7129TIP3    H121351   1.910   6.482   2.515 -4.8593 -1.5579  3.7465
 7129TIP3    H221352   1.843   6.617   2.506 -0.5529  0.6461  1.0637
 7130TIP3   OH221353   5.338   0.571   2.063 -0.2787  0.8383  0.6769
 7130TIP3    H121354   5.255   0.545   2.024 -0.0815  0.3180  0.5857
 7130TIP3    H221355   5.336   0.666   2.064 -0.8243  0.8316  0.5679
 7131TIP3   OH221356   4.367   2.758   5.300 -0.0275  1.1998  0.2493
 7131TIP3    H121357   4.273   2.777   5.311 -0.5837 -1.4163  0.5538
 7131TIP3    H221358   4.384   2.775   5.207 -1.2965 -0.1001 -0.2545
 7132TIP3   OH221359   0.984   4.490   3.247 -0.6104  0.1493  0.0862
 7132TIP3    H121360   0.958   4.508   3.337  1.0214  0.5936  0.5017
 7132TIP3    H221361   0.970   4.573   3.201  1.1937  0.7737  0.6037
 7133TIP3   OH221362   3.449   6.496   1.308 -0.0269 -0.2937 -0.2994
 7133TIP3    H121363   3.475   6.520   1.219  1.1505  0.0720  0.1257
 7133TIP3    H221364   3.380   6.430   1.296  0.3520 -0.4961 -1.4720
 7134TIP3   OH221365   1.300   5.828   2.976  0.2561  0.1999  0.8509
 7134TIP3    H121366   1.299   5.923   2.969 -0.2147  0.2358  1.3454
 7134TIP3    H221367   1.350   5.810   3.056 -0.7120  0.0883  1.4500
 7135TIP3   OH221368   0.814   1.079   2.384  0.1369  0.5553  0.3843
 7135TIP3    H121369   0.733   1.073   2.332 -0.5954  1.1494  1.4255
 7135TIP3    H221370   0.792   1.035   2.466  1.2834 -0.3760  0.2166
 7136TIP3   OH221371   5.673   0.676   5.500  0.1326  0.5395  0.4318
 7136TIP3    H121372   5.759   0.673   5.458  0.4919  2.3999  0.9400
 7136TIP3    H221373   5.630   0.752   5.461 -1.4420 -0.5251 -0.0319
 7137TIP3   OH221374   7.035   1.073   1.542  0.2036 -0.5322  0.4874
 7137TIP3    H121375   7.129   1.094   1.544 -0.2248  1.4512  2.0733
 7137TIP3    H221376   6.999   1.129   1.473  0.0754 -0.8795  0.2674
 7138TIP3   OH221377   7.027   6.104   3.144  0.4635 -0.2139 -0.1219
 7138TIP3    H121378   7.066   6.079   3.227  1.4936 -1.5464 -0.9572
 7138TIP3    H221379   7.088   6.169   3.107  0.2116  0.0869 -0.0091
 7139TIP3   OH221380   0.595   3.701   0.504 -0.4226 -0.2935  0.0965
 7139TIP3    H121381   0.524   3.640   0.524  1.8721 -2.5996  1.9768
 7139TIP3    H221382   0.581   3.775   0.563 -0.8949 -1.0322  0.9377
 7140TIP3   OH221383   0.499   5.094   4.557 -0.1548  0.4132  0.1430
 7140TIP3    H121384   0.530   5.051   4.637  0.5989  0.3879 -0.1509
 7140TIP3    H221385   0.490   5.186   4.581 -1.0749  0.2196  0.5751
 7141TIP3   OH221386   4.669   1.580   5.038  0.4335 -0.0484 -0.1832
 7141TIP3    H121387   4.714   1.612   5.117  1.2972 -1.3370 -0.1193
 7141TIP3    H221388   4.579   1.609   5.049  0.0436 -1.8279  2.2763
 7142TIP3   OH221389   2.085   4.824   4.541  0.3236 -0.0795 -0.4414
 7142TIP3    H121390   2.047   4.910   4.526 -0.7814 -0.5356 -0.3858
 7142TIP3    H221391   2.046   4.768   4.474 -0.2921 -0.8948  0.5664
 7143TIP3   OH221392   1.937   3.724   1.084  0.0243 -0.3038 -0.1445
 7143TIP3    H121393   1.896   3.800   1.124 -0.7595 -0.2478 -1.0163
 7143TIP3    H221394   1.887   3.709   1.003  1.8553 -0.0806 -1.3898
 7144TIP3   OH221395   6.642   5.716   5.818 -0.1730 -0.2133  0.4379
 7144TIP3    H121396   6.662   5.753   5.732 -2.2749 -1.0524 -0.4909
 7144TIP3    H221397   6.549   5.733   5.830  0.0758 -0.1286  2.5790
 7145TIP3   OH221398   6.939   2.744   0.896  0.2958  0.1123 -0.2651
 7145TIP3    H121399   6.972   2.724   0.808  0.5758 -0.6915  0.0177
 7145TIP3    H221400   7.007   2.711   0.955 -0.2506 -0.0499  0.2796
 7146TIP3   OH221401   2.725   2.879   3.960 -0.6452 -0.0790  0.0121
 7146TIP3    H121402   2.789   2.903   3.893  0.7141 -1.1003  0.8853
 7146TIP3    H221403   2.669   2.814   3.917 -0.3467 -0.0659 -0.4054
 7147TIP3   OH221404   0.995   2.469   1.875 -0.2336  0.3046 -0.1105
 7147TIP3    H121405   0.987   2.374   1.880 -1.7632  0.4137  0.0003
 7147TIP3    H221406   0.947   2.493   1.795  0.9412  0.9184 -0.6596
 7148TIP3   OH221407   3.327   5.245   2.611  0.6347  0.0013  0.6158
 7148TIP3    H121408   3.260   5.287   2.557 -0.0333 -0.7468  0.8385
 7148TIP3    H221409   3.391   5.210   2.548  1.0879  1.1346  0.4239
 7149TIP3   OH221410   6.648   1.624   4.781 -0.4533 -0.4806  1.0030
 7149TIP3    H121411   6.555   1.618   4.801 -0.5712 -0.0815  0.6078
 7149TIP3    H221412   6.681   1.535   4.792 -0.9484 -0.6919  0.8262
 7150TIP3   OH221413   5.411   2.007   5.097 -1.1245  0.5010  0.1131
 7150TIP3    H121414   5.326   2.020   5.141 -0.9313  1.1344  0.3131
 7150TIP3    H221415   5.426   2.089   5.049  0.1938  1.1442  1.5088
 7151TIP3   OH221416   5.236   4.418   0.480 -0.3303 -0.4753  0.4441
 7151TIP3    H121417   5.303   4.399   0.414 -2.5651  0.4168 -2.2772
 7151TIP3    H221418   5.220   4.512   0.472 -0.9772 -0.4188  2.0206
 7152TIP3   OH221419   0.794   0.561   1.565  0.4120 -0.1661 -0.1562
 7152TIP3    H121420   0.802   0.656   1.567 -0.7857 -0.0590  0.7733
 7152TIP3    H221421   0.758   0.542   1.479 -1.6608  0.4704  0.5152
 7153TIP3   OH221422   1.951   3.061   0.994 -0.4100  0.3040 -0.1459
 7153TIP3    H121423   1.979   3.085   1.082 -1.3950  1.8114 -0.1959
 7153TIP3    H221424   1.855   3.067   0.996 -0.4126  3.5672 -2.0447
 7154TIP3   OH221425   2.668   3.203   4.116  0.0324 -0.5490  0.0022
 7154TIP3    H121426   2.703   3.124   4.157 -0.4953 -0.4314  0.6902
 7154TIP3    H221427   2.577   3.207   4.145  0.2393  0.6983  0.5581
 7155TIP3   OH221428   6.842   3.928   2.194  0.0889 -0.3091  0.3396
 7155TIP3    H121429   6.932   3.898   2.178  0.5042  1.2216 -0.3389
 7155TIP3    H221430   6.807   3.947   2.108  0.3102  2.3490  0.7525
 7156TIP3   OH221431   4.792   2.362   2.731 -0.2066  0.2281  0.1770
 7156TIP3    H121432   4.784   2.431   2.665 -0.6198  1.1717  1.2005
 7156TIP3    H221433   4.702   2.338   2.752 -0.1275 -2.4936 -2.0313
 7157TIP3   OH221434   4.926   1.116   5.603  0.5919  0.7767  0.3622
 7157TIP3    H121435   5.016   1.091   5.624  0.5101  0.9823  0.9710
 7157TIP3    H221436   4.933   1.162   5.519  1.0715  0.8994  0.4662
 7158TIP3   OH221437   6.575   0.843   1.863 -0.0198  0.2795  0.4607
 7158TIP3    H121438   6.655   0.799   1.835  2.3030  2.8671  2.4377
 7158TIP3    H221439   6.583   0.848   1.959 -3.1775 -0.3431  0.8637
 7159TIP3   OH221440   1.304   2.304   0.389 -0.2131  0.3115 -0.0630
 7159TIP3    H121441   1.350   2.376   0.433  3.0383 -0.9236 -1.1629
 7159TIP3    H221442   1.233   2.347   0.341  0.3217  2.4854  0.9576
 7160TIP3   OH221443   4.342   3.754   2.047  0.0384 -0.1806  0.0162
 7160TIP3    H121444   4.369   3.698   2.120  0.4168 -0.4849 -0.3530
 7160TIP3    H221445   4.397   3.832   2.057 -0.8668  0.3763  0.8454
 7161TIP3   OH221446   6.436   5.791   2.002 -0.0020  0.5661 -0.4678
 7161TIP3    H121447   6.511   5.848   2.015  0.7644 -0.9214  2.7464
 7161TIP3    H221448   6.360   5.848   2.013  0.7372  1.1750  2.6220
 7162TIP3   OH221449   2.357   4.543   4.967 -0.8194 -0.4215 -0.4563
 7162TIP3    H121450   2.321   4.582   4.887  0.4872 -0.3974 -1.0670
 7162TIP3    H221451   2.353   4.448   4.951 -2.0896 -0.4946  0.1672
 7163TIP3   OH221452   1.944   0.382   1.694 -0.2772 -0.0987 -0.1823
 7163TIP3    H121453   1.896   0.305   1.663 -1.8254  0.4792  0.6444
 7163TIP3    H221454   1.881   0.454   1.686 -0.0585  0.4516  2.2606
 7164TIP3   OH221455   5.520   2.054   2.992 -0.1767  0.0352  0.2529
 7164TIP3    H121456   5.432   2.082   3.016 -0.6163 -1.3633  0.3488
 7164TIP3    H221457   5.556   2.128   2.943 -1.3261  0.7026  0.3872
 7165TIP3   OH221458   1.179   6.122   1.123  0.1918  0.1565  0.6192
 7165TIP3    H121459   1.212   6.039   1.156  1.4531  0.5462  0.3914
 7165TIP3    H221460   1.127   6.158   1.195 -0.4907 -0.8805  0.6629
 7166TIP3   OH221461   5.803   1.562   2.514 -0.3809 -0.1131 -0.0881
 7166TIP3    H121462   5.766   1.602   2.593 -1.8414  2.7516 -2.0731
 7166TIP3    H221463   5.801   1.468   2.532 -0.4717  0.4005  3.3207
 7167TIP3   OH221464   1.445   3.505   0.322 -0.4085  0.0702  0.0149
 7167TIP3    H121465   1.473   3.486   0.412 -0.4312  0.0963  0.0279
 7167TIP3    H221466   1.526   3.508   0.272 -0.4391 -0.4284 -0.0596
 7168TIP3   OH221467   6.171   2.481   2.156 -0.1688  0.8069  0.1445
 7168TIP3    H121468   6.182   2.575   2.169 -0.2048  1.2753 -2.4997
 7168TIP3    H221469   6.091   2.473   2.104  0.5155 -0.5469 -0.7589
 7169TIP3   OH221470   6.131   5.994   0.812 -0.2372 -0.0744 -0.1103
 7169TIP3    H121471   6.062   6.039   0.763  0.6245  0.5668 -0.7565
 7169TIP3    H221472   6.086   5.918   0.851 -1.3639  0.4819 -0.2748
 7170TIP3   OH221473   1.060   5.666   4.284  0.0563  0.2727 -0.8345
 7170TIP3    H121474   1.046   5.646   4.377 -1.3660  1.6085 -0.7278
 7170TIP3    H221475   1.089   5.583   4.246  0.4336 -0.3518  0.7588
 7171TIP3   OH221476   0.729   0.157   5.778  0.8112  0.2542  0.0114
 7171TIP3    H121477   0.651   0.115   5.742  1.7370 -1.4833 -0.0641
 7171TIP3    H221478   0.728   0.246   5.742 -0.7403  0.0281 -0.5477
 7172TIP3   OH221479   0.676   6.415   0.528 -0.5322 -0.1950 -0.4292
 7172TIP3    H121480   0.761   6.448   0.556 -1.2168 -0.8582  2.7786
 7172TIP3    H221481   0.666   6.332   0.573 -2.2963 -0.8768 -1.9271
 7173TIP3   OH221482   5.690   2.768   1.883 -0.1501  0.2963  0.1056
 7173TIP3    H121483   5.781   2.753   1.860  0.3932  1.8796  1.0218
 7173TIP3    H221484   5.646   2.686   1.865  1.3886 -0.3788 -0.7095
 7174TIP3   OH221485   2.524   1.778   2.822 -0.5611 -0.0105  0.3324
 7174TIP3    H121486   2.431   1.796   2.809 -0.3846  0.7103  0.0406
 7174TIP3    H221487   2.544   1.707   2.761 -0.5212  1.0443 -0.9031
 7175TIP3   OH221488   4.222   5.684   2.543  0.5688  0.1882 -0.0911
 7175TIP3    H121489   4.250   5.637   2.621 -0.1913  1.1077  0.7648
 7175TIP3    H221490   4.185   5.765   2.576 -0.2811  0.3539 -1.3719
 7176TIP3   OH221491   3.907   5.759   0.037 -0.1160 -0.1410  0.0325
 7176TIP3    H121492   3.940   5.793   0.121 -0.6948  1.5726 -0.3793
 7176TIP3    H221493   3.817   5.732   0.055  0.3591 -1.5516  0.3705
 7177TIP3   OH221494   4.117   4.418   4.890  0.2309 -0.3595  0.0970
 7177TIP3    H121495   4.183   4.487   4.881  0.7631 -0.7048  1.2490
 7177TIP3    H221496   4.167   4.337   4.897 -0.1644 -0.4710  2.7501
 7178TIP3   OH221497   6.246   2.760   1.169 -0.7375 -0.4800 -0.5319
 7178TIP3    H121498   6.182   2.784   1.236 -0.0280 -1.7660  0.6480
 7178TIP3    H221499   6.223   2.671   1.144  0.5503 -0.9580 -0.1080
 7179TIP3   OH221500   2.927   1.659   1.931 -0.3786 -0.0064  0.5218
 7179TIP3    H121501   2.872   1.610   1.870 -1.1155  0.3214  0.9080
 7179TIP3    H221502   2.983   1.713   1.875 -2.0776  1.4143  0.1102
 7180TIP3   OH221503   3.189   6.259   3.248 -0.5810  0.0101 -0.4458
 7180TIP3    H121504   3.144   6.214   3.176  0.3218 -0.3869 -0.7814
 7180TIP3    H221505   3.182   6.199   3.322 -0.1964 -0.2589 -0.6277
 7181TIP3   OH221506   3.210   3.823   5.232  0.1316 -0.5559  0.0292
 7181TIP3    H121507   3.175   3.830   5.143 -1.0452  1.5905  0.5964
 7181TIP3    H221508   3.212   3.913   5.264  1.6601 -1.1545  1.7825
 7182TIP3   OH221509   3.366   0.946   5.094 -0.2574  0.0580 -0.0892
 7182TIP3    H121510   3.423   0.961   5.018  2.0016  0.6900  1.6260
 7182TIP3    H221511   3.366   0.850   5.105  3.4448  0.0927  1.8391
 7183TIP3   OH221512   5.800   1.204   3.637 -0.2907 -0.1427  0.0182
 7183TIP3    H121513   5.727   1.218   3.697  1.5085 -0.4518  2.4638
 7183TIP3    H221514   5.830   1.293   3.616 -0.7494 -0.0373 -0.2131
 7184TIP3   OH221515   7.003   0.929  -0.005 -0.2234 -0.1223 -0.0781
 7184TIP3    H121516   6.961   0.889   0.071  0.5713  0.8192  0.8866
 7184TIP3    H221517   7.085   0.881  -0.015 -0.1386  0.0195 -0.0739
 7185TIP3   OH221518   6.403   6.544   0.260  0.1453  0.3645 -0.3193
 7185TIP3    H121519   6.370   6.472   0.207  1.8015 -0.5461 -0.1864
 7185TIP3    H221520   6.378   6.521   0.350  0.2072  0.2052 -0.3418
 7186TIP3   OH221521   6.184   2.995   3.507 -0.6531 -0.5395  0.1381
 7186TIP3    H121522   6.210   3.057   3.439 -1.3079 -1.5698 -1.0828
 7186TIP3    H221523   6.098   3.027   3.537 -0.1066  0.2468  0.9367
 7187TIP3   OH221524   3.544   5.753   5.713  0.7034 -0.1516 -0.0433
 7187TIP3    H121525   3.627   5.798   5.697  0.8458 -0.3665  0.0733
 7187TIP3    H221526   3.559   5.704   5.795  0.8079 -1.0112 -0.5657
 7188TIP3   OH221527   5.825   2.806   1.459  0.0168  0.5015 -0.0206
 7188TIP3    H121528   5.751   2.858   1.492  0.5333  1.4003 -0.2568
 7188TIP3    H221529   5.827   2.729   1.516  0.1517  1.4510  1.2893
 7189TIP3   OH221530   2.579   4.633   1.897  0.6230  0.2504  0.0444
 7189TIP3    H121531   2.645   4.564   1.904 -0.9369 -1.1666  1.7325
 7189TIP3    H221532   2.623   4.711   1.931  1.5660 -0.5471  0.7132
 7190TIP3   OH221533   4.883   4.853   4.924 -0.2720 -0.5881  0.4727
 7190TIP3    H121534   4.896   4.944   4.950  0.6374 -1.1496  2.1162
 7190TIP3    H221535   4.795   4.831   4.955 -1.0033  0.0544 -1.0373
 7191TIP3   OH221536   6.843   2.805   4.270 -0.1998  0.2478 -0.3757
 7191TIP3    H121537   6.799   2.846   4.344  0.1250  0.8414 -0.5114
 7191TIP3    H221538   6.780   2.739   4.240 -1.4100  1.6790 -1.1416
 7192TIP3   OH221539   1.596   0.131   4.298  0.3184 -0.3117 -0.0492
 7192TIP3    H121540   1.631   0.212   4.335 -0.3317 -0.1130  0.1475
 7192TIP3    H221541   1.663   0.065   4.316  1.6792  0.5044 -1.7669
 7193TIP3   OH221542   3.719   4.885   3.169 -0.9526  0.3536 -0.5471
 7193TIP3    H121543   3.692   4.808   3.119  1.5380 -0.2951 -1.0367
 7193TIP3    H221544   3.695   4.864   3.260 -0.4184 -0.9787 -0.6867
 7194TIP3   OH221545   4.329   1.066   3.989 -0.7976 -0.5674  0.0618
 7194TIP3    H121546   4.269   0.991   3.980 -1.8320  0.0843  1.2911
 7194TIP3    H221547   4.273   1.143   3.976  0.3698  0.0218 -1.8063
 7195TIP3   OH221548   3.610   2.106   1.360 -0.1098 -0.1099 -0.1629
 7195TIP3    H121549   3.521   2.112   1.393 -0.1993 -2.8587  0.3247
 7195TIP3    H221550   3.650   2.191   1.382 -2.4563  1.0384 -0.0882
 7196TIP3   OH221551   0.661   4.138   1.529  0.4579 -0.2452  0.1963
 7196TIP3    H121552   0.733   4.079   1.551  1.5860  0.5938 -1.1273
 7196TIP3    H221553   0.692   4.225   1.554  0.0263  0.1613 -0.6311
 7197TIP3   OH221554   3.119   0.102   3.565  0.6410 -0.3927 -0.2753
 7197TIP3    H121555   3.118   0.144   3.479 -0.2982 -0.1588 -0.1602
 7197TIP3    H221556   3.099   0.173   3.626  0.8304 -0.6566  0.0944
 7198TIP3   OH221557   1.223   6.277   2.127 -0.4878  0.2932 -0.2030
 7198TIP3    H121558   1.241   6.365   2.096  2.2184 -0.8692 -2.4227
 7198TIP3    H221559   1.161   6.241   2.063  1.5642 -0.6296 -1.7815
 7199TIP3   OH221560   0.373   2.501   4.101 -0.8454 -0.3907 -0.3344
 7199TIP3    H121561   0.322   2.566   4.052  0.3632  1.2075  0.4316
 7199TIP3    H221562   0.449   2.484   4.046 -1.8555 -2.3681 -1.2263
 7200TIP3   OH221563   3.529   3.967   0.542  0.5513  0.1082 -0.4813
 7200TIP3    H121564   3.533   3.895   0.479  1.1209 -0.2536 -0.0285
 7200TIP3    H221565   3.458   3.943   0.602  1.8592 -0.9173  0.6946
 7201TIP3   OH221566   0.317   2.119   4.612 -0.2316 -0.0881 -0.0924
 7201TIP3    H121567   0.270   2.038   4.590 -0.7679 -0.7576  2.9575
 7201TIP3    H221568   0.248   2.186   4.617 -0.3120 -0.2069  0.5549
 7202TIP3   OH221569   7.066   0.436   2.230 -0.1511 -0.3013  0.0117
 7202TIP3    H121570   7.077   0.389   2.147 -2.8578  0.1541 -0.6738
 7202TIP3    H221571   7.016   0.376   2.285 -1.6565  0.8293 -0.0685
 7203TIP3   OH221572   5.606   5.000   4.055  0.2039  0.0455 -0.6215
 7203TIP3    H121573   5.655   4.978   4.134 -0.7441 -0.9059 -0.2738
 7203TIP3    H221574   5.632   4.934   3.991 -0.6856 -0.5475 -0.3940
 7204TIP3   OH221575   2.417   3.822   3.695  0.1127 -0.0975 -0.0987
 7204TIP3    H121576   2.331   3.862   3.702 -0.7558 -1.8057 -0.5201
 7204TIP3    H221577   2.477   3.886   3.734 -1.3686  1.0010  0.4397
 7205TIP3   OH221578   0.218   2.126   2.615  0.5837  0.2251  0.5537
 7205TIP3    H121579   0.266   2.184   2.556  1.2253 -2.3527 -1.6552
 7205TIP3    H221580   0.260   2.138   2.700  3.4136  0.0707 -0.6997
 7206TIP3   OH221581   3.690   0.303   3.844 -0.2167  0.3374  0.6618
 7206TIP3    H121582   3.619   0.329   3.785  0.3506  0.4314  0.0115
 7206TIP3    H221583   3.657   0.224   3.888 -0.4792  0.0102 -0.1025
 7207TIP3   OH221584   2.900   0.684   1.602 -0.0843 -0.4758  0.4319
 7207TIP3    H121585   2.865   0.597   1.621  1.2630 -1.0261  0.5308
 7207TIP3    H221586   2.942   0.675   1.516 -0.1303  0.1398  0.3400
 7208TIP3   OH221587   4.139   0.951   3.423 -0.4907  0.4398 -0.9143
 7208TIP3    H121588   4.121   1.045   3.436  0.5435  0.4816  0.4223
 7208TIP3    H221589   4.226   0.938   3.461 -1.2880 -1.3920  0.4141
 7209TIP3   OH221590   1.861   1.038   1.727  0.1223  0.1339 -0.8475
 7209TIP3    H121591   1.824   1.066   1.643 -2.0250 -0.2929 -0.1214
 7209TIP3    H221592   1.794   0.980   1.764  2.5680 -2.6811 -0.4472
 7210TIP3   OH221593   0.071   4.163   5.133  0.1350 -0.0190 -0.3608
 7210TIP3    H121594   0.044   4.251   5.158  1.0259 -0.0242  0.7104
 7210TIP3    H221595   0.147   4.145   5.188 -1.8393 -2.6604  1.7569
 7211TIP3   OH221596   0.374   2.923   2.422 -0.1726  0.1569  0.0973
 7211TIP3    H121597   0.286   2.886   2.426  0.1103 -0.7425 -1.2068
 7211TIP3    H221598   0.426   2.866   2.479 -0.1748 -0.1263 -0.1817
 7212TIP3   OH221599   3.201   0.476   4.199 -0.1106 -0.5109 -0.2736
 7212TIP3    H121600   3.276   0.416   4.205  0.9254  0.8042  0.6887
 7212TIP3    H221601   3.216   0.525   4.118  1.3368  1.2612  0.9731
 7213TIP3   OH221602   2.075   4.879   2.086  0.4616 -0.4056 -0.6278
 7213TIP3    H121603   2.105   4.879   2.177 -1.8606 -0.7177  0.2006
 7213TIP3    H221604   2.076   4.972   2.061 -2.5316  0.2462  1.1142
 7214TIP3   OH221605   2.782   2.530   4.228  0.2206  0.0477 -0.1456
 7214TIP3    H121606   2.834   2.525   4.309 -0.3824  0.3668  0.2717
 7214TIP3    H221607   2.727   2.608   4.240  0.0161  0.0103 -0.8016
 7215TIP3   OH221608   2.781   4.608   1.167  0.5767 -0.0869  0.6473
 7215TIP3    H121609   2.731   4.644   1.094 -0.0239  0.2555  1.2069
 7215TIP3    H221610   2.829   4.682   1.202  0.3250 -0.0925  1.0176
 7216TIP3   OH221611   6.513   1.964   1.445 -0.2586 -0.6773  0.2115
 7216TIP3    H121612   6.432   2.015   1.442  0.1597 -0.0438 -1.7584
 7216TIP3    H221613   6.580   2.028   1.470 -0.0181 -0.6524 -0.4780
 7217TIP3   OH221614   1.763   2.443   2.046 -0.0524 -0.2112  0.0623
 7217TIP3    H121615   1.678   2.434   2.089  0.0920  1.9474  0.8972
 7217TIP3    H221616   1.741   2.469   1.956 -0.2691 -0.2368  0.1067
 7218TIP3   OH221617   1.924   4.784   4.772 -0.0327 -0.2539 -0.1430
 7218TIP3    H121618   1.970   4.843   4.711  1.2555 -1.4210 -0.3374
 7218TIP3    H221619   1.864   4.735   4.716 -0.7559  0.5041 -0.0526
 7219TIP3   OH221620   4.006   4.700   3.709  0.1965 -0.3797  0.0846
 7219TIP3    H121621   4.042   4.781   3.673  0.4465 -0.9814 -1.0542
 7219TIP3    H221622   4.073   4.671   3.772  0.5252 -0.1651 -0.1605
 7220TIP3   OH221623   1.210   5.118   3.153 -0.4388  0.1641 -0.1729
 7220TIP3    H121624   1.188   5.056   3.223  1.2315 -0.1104  0.1619
 7220TIP3    H221625   1.215   5.203   3.197 -0.5527  0.1836 -0.1971
 7221TIP3   OH221626   0.057   3.430   1.650  0.2379 -0.1979  0.4014
 7221TIP3    H121627   0.132   3.485   1.673 -0.3199  0.1886  1.3791
 7221TIP3    H221628   0.052   3.366   1.721 -1.2138  0.6850  1.1661
 7222TIP3   OH221629   3.927   4.707   0.743  0.0887  0.2914  0.5038
 7222TIP3    H121630   3.984   4.709   0.820  0.8923  0.3644 -0.0924
 7222TIP3    H221631   3.958   4.779   0.688  0.5099 -0.7014 -0.5888
 7223TIP3   OH221632   0.757   0.668   4.990 -0.0198  0.1157  0.3046
 7223TIP3    H121633   0.717   0.754   4.978  0.5693  0.0845 -2.5189
 7223TIP3    H221634   0.686   0.613   5.024 -1.9537  0.5453 -2.7015
 7224TIP3   OH221635   6.100   6.560   5.110  0.1302 -0.2729 -0.1126
 7224TIP3    H121636   6.166   6.584   5.044 -0.1397  0.8015 -0.0090
 7224TIP3    H221637   6.022   6.609   5.085  0.1344  0.4608  1.2033
 7225TIP3   OH221638   3.679   1.944   5.606 -0.2727  0.2603 -0.1304
 7225TIP3    H121639   3.619   2.018   5.593  0.8253  0.9606 -1.5498
 7225TIP3    H221640   3.647   1.877   5.546 -0.7191 -0.0724  0.4747
 7226TIP3   OH221641   5.970   0.266   5.792  0.5941 -0.3108  0.3270
 7226TIP3    H121642   5.933   0.189   5.836 -0.1952 -0.1100  0.0475
 7226TIP3    H221643   5.909   0.337   5.813  1.0616  0.1356  0.2038
 7227TIP3   OH221644   4.464   6.442   5.477  0.3179 -0.3789  0.0104
 7227TIP3    H121645   4.472   6.537   5.475  1.5773 -0.4886 -1.5648
 7227TIP3    H221646   4.476   6.419   5.570 -1.0328  1.0315  0.5816
 7228TIP3   OH221647   6.418   6.278   2.883 -0.0453  0.0888 -0.2789
 7228TIP3    H121648   6.488   6.225   2.922  0.8138  1.6617  0.3957
 7228TIP3    H221649   6.457   6.314   2.803 -0.7677 -0.6134 -0.9642
 7229TIP3   OH221650   2.041   2.696   4.439  0.4102 -0.1790  0.3318
 7229TIP3    H121651   2.123   2.651   4.418  1.2183  0.6546  1.5719
 7229TIP3    H221652   2.068   2.781   4.473 -0.9582  0.0195  0.9868
 7230TIP3   OH221653   5.005   1.452   3.795 -0.0091 -0.0727 -0.0777
 7230TIP3    H121654   5.018   1.366   3.834 -0.3983 -0.6825 -1.2187
 7230TIP3    H221655   4.931   1.440   3.735  2.2139  0.0427 -3.0716
 7231TIP3   OH221656   4.991   5.002   1.320  0.0458 -0.0228  0.4817
 7231TIP3    H121657   5.062   5.050   1.278 -0.8458  0.1815 -0.8935
 7231TIP3    H221658   4.912   5.037   1.278 -0.6466 -2.8556 -0.8321
 7232TIP3   OH221659   4.962   4.089   2.656  0.1747 -0.1521 -1.0999
 7232TIP3    H121660   4.867   4.099   2.650  0.0974 -0.9328 -1.3270
 7232TIP3    H221661   4.976   4.035   2.734  0.5617  1.5238  0.0390
 7233TIP3   OH221662   3.375   5.534   2.722 -0.6224 -0.1116  0.3091
 7233TIP3    H121663   3.418   5.480   2.656 -0.1605  0.3093  0.2579
 7233TIP3    H221664   3.418   5.620   2.714  1.0947 -0.6690  2.7317
 7234TIP3   OH221665   5.282   4.247   5.151  0.3328 -0.1281 -0.0300
 7234TIP3    H121666   5.334   4.272   5.075 -0.0074  0.9130  0.0738
 7234TIP3    H221667   5.191   4.261   5.125  0.0416 -2.1133 -0.2750
 7235TIP3   OH221668   0.343   4.706   3.857  0.6976  0.2906 -0.8097
 7235TIP3    H121669   0.411   4.748   3.910 -1.5304  2.0152  0.9053
 7235TIP3    H221670   0.276   4.774   3.845 -1.2680 -1.6176 -1.3754
 7236TIP3   OH221671   2.859   0.499   2.163  0.4402 -0.7035  0.0047
 7236TIP3    H121672   2.777   0.548   2.154  0.4090 -0.7516  0.0263
 7236TIP3    H221673   2.913   0.530   2.090  1.0223  0.5114  0.9415
 7237TIP3   OH221674   4.269   4.575   5.413 -0.2966 -0.2082 -0.2266
 7237TIP3    H121675   4.179   4.559   5.384 -0.7026  1.8620 -0.2616
 7237TIP3    H221676   4.273   4.540   5.502 -0.2557 -2.8485 -1.1576
 7238TIP3   OH221677   6.997   3.843   3.833  0.7689  0.3021 -0.4081
 7238TIP3    H121678   7.035   3.921   3.872 -0.6800  1.4401 -1.1893
 7238TIP3    H221679   6.930   3.876   3.773  0.0925 -1.5359 -0.7263
 7239TIP3   OH221680   6.889   5.453   0.977  0.2701  1.0472  0.3087
 7239TIP3    H121681   6.918   5.434   0.888  0.3136  1.4931  0.2288
 7239TIP3    H221682   6.888   5.367   1.020 -0.1462  0.7669 -0.2333
 7240TIP3   OH221683   3.410   4.075   2.320 -0.2841 -0.1956  0.6687
 7240TIP3    H121684   3.472   4.025   2.267 -1.2324 -0.8144  0.1108
 7240TIP3    H221685   3.426   4.047   2.410 -1.0755 -1.8517  0.3259
 7241TIP3   OH221686   2.745   1.567   3.203  0.9603 -0.2286  0.1158
 7241TIP3    H121687   2.703   1.650   3.225  2.0003  0.3691 -0.0531
 7241TIP3    H221688   2.827   1.568   3.254  1.0958 -1.0431 -0.0695
 7242TIP3   OH221689   2.970   1.075   4.696  0.2925 -0.1537  0.3419
 7242TIP3    H121690   2.935   1.035   4.616  1.6326 -1.1606  0.2357
 7242TIP3    H221691   2.920   1.034   4.767  0.3902 -0.6509  0.1275
 7243TIP3   OH221692   4.879   0.908   2.724 -0.2764 -0.0613  0.3793
 7243TIP3    H121693   4.911   0.916   2.813 -1.6780 -0.8235  0.9909
 7243TIP3    H221694   4.836   0.822   2.721 -1.8037  0.6823 -0.4856
 7244TIP3   OH221695   0.769   0.177   4.149  0.4108  0.4747 -0.1702
 7244TIP3    H121696   0.686   0.156   4.192  0.0272  0.3204 -0.9783
 7244TIP3    H221697   0.830   0.191   4.222  0.2054 -1.4745  0.4405
 7245TIP3   OH221698   1.093   6.006   5.191  0.2166 -0.7360 -0.1928
 7245TIP3    H121699   1.149   6.056   5.251 -2.4033  2.2530 -0.0097
 7245TIP3    H221700   1.123   6.032   5.104 -1.2210  1.4709 -0.1035
 7246TIP3   OH221701   3.152   4.956   2.701 -0.5294  0.0602 -0.1136
 7246TIP3    H121702   3.099   4.953   2.780 -0.0928 -0.1272  0.1776
 7246TIP3    H221703   3.161   5.049   2.681  0.0313  0.1462  0.5164
 7247TIP3   OH221704   4.080   2.664   3.421  0.4840 -0.3954  0.4124
 7247TIP3    H121705   4.027   2.708   3.488  0.9377  0.0095  0.5174
 7247TIP3    H221706   4.122   2.736   3.373 -0.2887 -0.6667 -0.6890
 7248TIP3   OH221707   1.615   2.293   4.251  0.1369 -0.2100 -0.4910
 7248TIP3    H121708   1.679   2.338   4.196  1.7197 -1.5594  0.1595
 7248TIP3    H221709   1.594   2.357   4.319  1.3779  0.0322 -0.2986
 7249TIP3   OH221710   3.056   0.401   5.304  0.3605 -0.2138 -0.0131
 7249TIP3    H121711   3.050   0.377   5.397  1.1242 -1.5858 -0.2937
 7249TIP3    H221712   2.983   0.354   5.263 -0.5091  1.0753 -0.0072
 7250TIP3   OH221713   5.346   1.767   3.832 -0.0680 -0.5305  0.0833
 7250TIP3    H121714   5.286   1.838   3.857 -0.9546 -0.7525 -1.3161
 7250TIP3    H221715   5.416   1.772   3.897 -1.1424  0.3051  1.2452
 7251TIP3   OH221716   3.106   5.284   2.330 -0.2153 -0.5892  0.0590
 7251TIP3    H121717   3.199   5.286   2.309 -0.0523 -1.4456  0.6574
 7251TIP3    H221718   3.063   5.325   2.255  0.7274  0.9391  0.3080
 7252TIP3   OH221719   0.995   0.467   4.299  0.3777 -0.2369  0.4230
 7252TIP3    H121720   1.059   0.538   4.296  0.6073 -0.3799  1.4518
 7252TIP3    H221721   1.025   0.405   4.232 -0.7649  1.3577 -1.7091
 7253TIP3   OH221722   1.362   4.081  -0.022 -0.3373  0.1573 -0.1820
 7253TIP3    H121723   1.415   4.007   0.006 -1.8856 -1.4811 -1.3708
 7253TIP3    H221724   1.336   4.125   0.060  0.4251 -0.7269  0.5499
 7254TIP3   OH221725   0.442   0.915   4.277  0.0014 -0.0934  0.5264
 7254TIP3    H121726   0.512   0.915   4.342 -0.3077 -1.7425  0.9161
 7254TIP3    H221727   0.362   0.904   4.328 -0.2182 -1.7640 -0.1139
 7255TIP3   OH221728   2.535   1.238   5.480 -0.0783  0.6168 -0.7660
 7255TIP3    H121729   2.466   1.174   5.465  1.5087 -1.2400 -0.4151
 7255TIP3    H221730   2.532   1.294   5.402 -1.3508 -0.0056 -1.1884
 7256TIP3   OH221731   0.815   5.544   5.369 -0.0653 -0.3141 -0.3806
 7256TIP3    H121732   0.881   5.591   5.419  0.0166 -0.0963 -0.6843
 7256TIP3    H221733   0.787   5.607   5.302  0.7565 -1.0140 -1.4291
 7257TIP3   OH221734   2.202   6.413   0.486  0.3735 -0.0548  0.4624
 7257TIP3    H121735   2.155   6.365   0.417 -0.9352  1.1637  0.4629
 7257TIP3    H221736   2.261   6.472   0.438 -1.7008  1.9819  0.2291
 7258TIP3   OH221737   4.006   4.514   5.305  0.1899 -0.2332 -0.1716
 7258TIP3    H121738   3.997   4.446   5.238  3.1374  0.9351 -1.9587
 7258TIP3    H221739   3.977   4.595   5.262 -2.4244 -0.0902  1.6327
 7259TIP3   OH221740   2.424   6.011   4.899 -0.0561  0.0028  0.1204
 7259TIP3    H121741   2.365   6.018   4.824 -0.9487  0.4008  0.8376
 7259TIP3    H221742   2.438   6.102   4.927  1.5355 -0.0310 -0.5108
 7260TIP3   OH221743   0.287   3.619   2.867  0.2077  0.4585  0.2483
 7260TIP3    H121744   0.357   3.656   2.814  0.4623  0.7872  0.8147
 7260TIP3    H221745   0.330   3.583   2.944  0.1531 -2.2116 -0.8413
 7261TIP3   OH221746   4.278   0.535   0.955 -0.3848 -0.1232  0.1475
 7261TIP3    H121747   4.242   0.513   0.869  2.1543 -1.0623 -0.7857
 7261TIP3    H221748   4.339   0.607   0.938 -1.8292  1.5569  1.6792
 7262TIP3   OH221749   4.361   4.861   2.845 -0.6311 -0.2377 -0.0562
 7262TIP3    H121750   4.315   4.943   2.864 -1.1475 -0.6772  0.6479
 7262TIP3    H221751   4.390   4.829   2.930  0.7293 -0.1387 -0.4518
 7263TIP3   OH221752   1.211   3.984   3.056  0.0781  0.1737 -0.6389
 7263TIP3    H121753   1.153   3.908   3.062  0.9247 -0.3761  1.1309
 7263TIP3    H221754   1.152   4.059   3.062 -0.6344 -0.3338 -1.0480
 7264TIP3   OH221755   4.759   4.342   0.412  0.2395  0.1116 -0.1677
 7264TIP3    H121756   4.831   4.309   0.466 -0.7959 -0.1859  1.0748
 7264TIP3    H221757   4.782   4.316   0.323  2.1951  0.9564  0.0194
 7265TIP3   OH221758   5.386   4.816   5.271 -0.0773  0.8471  0.1669
 7265TIP3    H121759   5.347   4.901   5.289 -0.3299  0.7044  0.3093
 7265TIP3    H221760   5.437   4.829   5.191 -0.0333  1.1548  0.2443
 7266TIP3   OH221761   1.590   5.215   5.110  0.0048  0.8773  0.3700
 7266TIP3    H121762   1.591   5.310   5.123  0.6360  1.1429 -1.3652
 7266TIP3    H221763   1.679   5.187   5.134 -0.7040  0.3747  2.7567
 7267TIP3   OH221764   3.592   5.721   5.260  0.1155  0.0475  0.4752
 7267TIP3    H121765   3.583   5.682   5.346 -1.4442  0.3234  0.4532
 7267TIP3    H221766   3.513   5.696   5.212  0.9451 -0.1078 -0.8917
 7268TIP3   OH221767   6.188   3.217   1.018 -0.6964  0.4194 -0.3580
 7268TIP3    H121768   6.096   3.195   1.032 -0.1343 -0.7091  2.2909
 7268TIP3    H221769   6.235   3.135   1.033  0.8824  1.4575  0.7442
 7269TIP3   OH221770   2.942   1.898   5.791  0.8157  0.4218  0.1804
 7269TIP3    H121771   2.935   1.901   5.695  0.9201  1.4312  0.1884
 7269TIP3    H221772   2.991   1.978   5.813  0.1887  0.5552  1.1260
 7270TIP3   OH221773   3.359   0.391   4.505  0.3483  0.2225  0.1287
 7270TIP3    H121774   3.279   0.341   4.520  0.6321  0.2329  1.7884
 7270TIP3    H221775   3.329   0.480   4.486 -0.0440  0.1472  0.4034
 7271TIP3   OH221776   5.270   4.987   5.804 -0.1382  0.6150 -0.1737
 7271TIP3    H121777   5.279   4.988   5.709  0.1698 -1.5209 -0.2273
 7271TIP3    H221778   5.355   4.957   5.836 -0.8620 -0.7318  0.6046
 7272TIP3   OH221779   0.776   4.123   2.272 -0.6033  0.3894 -0.1480
 7272TIP3    H121780   0.791   4.091   2.361 -1.1251 -0.3752 -0.3206
 7272TIP3    H221781   0.864   4.132   2.235 -0.4311 -0.9116 -0.0949
 7273TIP3   OH221782   0.497   2.764   0.735 -0.1714  0.0823  0.4976
 7273TIP3    H121783   0.455   2.837   0.689 -1.3629 -1.0228 -0.2396
 7273TIP3    H221784   0.590   2.786   0.736 -0.5900  2.0077  1.0485
 7274TIP3   OH221785   5.724   4.628   4.838 -0.7572  0.3060  0.3589
 7274TIP3    H121786   5.667   4.663   4.770 -0.4834  1.0165  0.4956
 7274TIP3    H221787   5.778   4.562   4.793 -1.3663 -0.0506  0.1371
 7275TIP3   OH221788   2.952   6.749   0.050  0.7970  0.0736 -0.3244
 7275TIP3    H121789   2.949   6.784  -0.039  0.0676 -0.1370 -0.3942
 7275TIP3    H221790   3.032   6.697   0.053  0.3592 -0.6876 -1.1666
 7276TIP3   OH221791   5.906   3.337   2.446 -0.2935  0.1830 -0.6764
 7276TIP3    H121792   5.953   3.410   2.405  1.1308 -1.3609 -1.9263
 7276TIP3    H221793   5.829   3.325   2.390  0.1891 -0.1234 -1.2960
 7277TIP3   OH221794   2.894   2.539   5.765  0.0196  0.3412  0.0827
 7277TIP3    H121795   2.858   2.624   5.739 -1.5080 -0.7898 -1.7194
 7277TIP3    H221796   2.818   2.482   5.775  0.9903 -0.7742  1.5818
 7278TIP3   OH221797   1.722   3.581   4.517 -0.0002  0.1252 -0.2923
 7278TIP3    H121798   1.780   3.576   4.440  1.2824  1.4521  0.5207
 7278TIP3    H221799   1.645   3.629   4.486  0.2876  0.2223 -0.8745
 7279TIP3   OH221800   4.848   3.406   5.561 -0.3145 -0.1288  0.8399
 7279TIP3    H121801   4.888   3.476   5.510 -0.1552 -1.1187 -0.4434
 7279TIP3    H221802   4.754   3.417   5.548 -0.2581 -0.6306 -0.0323
 7280TIP3   OH221803   4.781   2.493   2.415 -0.1723 -0.2100  0.5407
 7280TIP3    H121804   4.784   2.538   2.331 -2.2379 -1.0903 -0.0702
 7280TIP3    H221805   4.754   2.560   2.477  1.4661  0.4703  0.5698
 7281TIP3   OH221806   2.828   1.832   1.465 -0.2698 -0.1699  0.3993
 7281TIP3    H121807   2.894   1.763   1.465 -0.0968 -0.0497 -1.3167
 7281TIP3    H221808   2.747   1.788   1.438 -0.4763  0.0336  0.6851
 7282TIP3   OH221809   0.733   3.031   0.236 -0.3398 -0.0549  0.7908
 7282TIP3    H121810   0.762   2.952   0.281 -1.5412 -1.0594 -0.1333
 7282TIP3    H221811   0.681   2.999   0.162  0.2843  1.5688 -0.4189
 7283TIP3   OH221812   4.439   3.878   1.718  0.1915 -0.3714  0.5276
 7283TIP3    H121813   4.363   3.931   1.695 -0.1251 -1.4876 -1.2224
 7283TIP3    H221814   4.408   3.787   1.711  1.4859 -0.8324  0.5048
 7284TIP3   OH221815   5.265   2.479   5.076 -0.1551  0.1852 -0.6555
 7284TIP3    H121816   5.293   2.569   5.090 -1.8872  1.3608 -3.7313
 7284TIP3    H221817   5.345   2.427   5.088  1.4919  2.4123 -1.2476
 7285TIP3   OH221818   3.227   3.465   3.101 -0.2497  0.6161  0.1503
 7285TIP3    H121819   3.293   3.396   3.097 -0.6091  0.3387 -2.2923
 7285TIP3    H221820   3.177   3.445   3.181 -0.2638 -1.8907 -0.3896
 7286TIP3   OH221821   1.200   4.800   2.766  0.5446 -0.0190  0.3037
 7286TIP3    H121822   1.216   4.781   2.859 -1.1495  0.3481  0.7033
 7286TIP3    H221823   1.104   4.799   2.758  0.4320  3.7798 -0.5875
 7287TIP3   OH221824   0.215   5.914   5.329  0.3667 -0.0275  0.6434
 7287TIP3    H121825   0.165   5.987   5.293  0.4885 -0.9742 -1.6279
 7287TIP3    H221826   0.234   5.940   5.420 -1.7588  1.5919  0.7033
 7288TIP3   OH221827   4.325   1.576   0.274 -0.1686  0.0365 -0.2456
 7288TIP3    H121828   4.261   1.617   0.216  0.6173  1.6728 -0.0204
 7288TIP3    H221829   4.407   1.579   0.224  0.1880  0.0087  0.3341
 7289TIP3   OH221830   2.560   6.380   2.801 -0.3552  0.1618 -0.5418
 7289TIP3    H121831   2.523   6.314   2.858 -3.1290  2.3675  0.4398
 7289TIP3    H221832   2.493   6.448   2.795  2.2822  2.9650 -1.3903
 7290TIP3   OH221833   0.927   6.613   2.064  0.2958 -0.1133 -0.7128
 7290TIP3    H121834   0.900   6.630   1.973  0.1535 -1.5567 -0.9614
 7290TIP3    H221835   1.021   6.593   2.057 -0.0505 -1.8437 -0.7907
 7291TIP3   OH221836   5.296   4.390   3.012 -0.1135 -0.4302 -0.2012
 7291TIP3    H121837   5.213   4.350   2.989 -1.0248  2.0936 -1.7271
 7291TIP3    H221838   5.303   4.378   3.107 -1.6891 -1.6090 -0.1949
 7292TIP3   OH221839   4.448   1.343   4.827 -0.7357  0.1204 -0.4614
 7292TIP3    H121840   4.367   1.306   4.792 -1.2788  0.0499  0.8188
 7292TIP3    H221841   4.438   1.437   4.816 -2.2784  0.3550  2.2051
 7293TIP3   OH221842   2.615   4.941   1.708  0.0736  0.8043 -0.1724
 7293TIP3    H121843   2.662   5.003   1.763  2.4453 -0.8508 -0.2088
 7293TIP3    H221844   2.681   4.904   1.650 -1.7859  0.2830 -2.1045
 7294TIP3   OH221845   4.643   5.621   3.029  0.3533 -0.0635  0.9460
 7294TIP3    H121846   4.601   5.664   3.103 -1.6738 -0.3709  0.0424
 7294TIP3    H221847   4.649   5.689   2.962  0.2841 -0.3033  0.6938
 7295TIP3   OH221848   5.903   6.104   4.870 -0.2016  0.4655  0.0864
 7295TIP3    H121849   5.836   6.088   4.804  0.4162  0.5537 -0.5738
 7295TIP3    H221850   5.855   6.139   4.945 -0.9898 -0.2261 -0.0815
 7296TIP3   OH221851   5.020   1.683   2.787  0.0848  0.3675 -0.4751
 7296TIP3    H121852   5.048   1.764   2.829 -0.0488 -0.0220  0.3754
 7296TIP3    H221853   5.097   1.651   2.740  0.0905  1.0693 -0.9509
 7297TIP3   OH221854   2.306   5.435   5.466 -0.2841  0.0768  0.3449
 7297TIP3    H121855   2.388   5.441   5.516 -0.5214 -0.2312  0.7738
 7297TIP3    H221856   2.330   5.389   5.385  0.1592  0.8252  0.0378
 7298TIP3   OH221857   3.611   0.110   3.202  0.1976  0.0551 -0.1930
 7298TIP3    H121858   3.660   0.141   3.279  1.3490  0.9092 -1.2423
 7298TIP3    H221859   3.523   0.094   3.236  0.8609 -0.3299  1.4822
 7299TIP3   OH221860   0.750   2.772   0.318  0.0822  0.1897 -0.6424
 7299TIP3    H121861   0.761   2.720   0.238 -1.2197 -0.1821 -0.5971
 7299TIP3    H221862   0.682   2.727   0.368  0.6322  0.6109  0.5267
 7300TIP3   OH221863   2.500   5.209   2.882 -0.2165 -0.1225 -0.0803
 7300TIP3    H121864   2.583   5.175   2.850 -0.4015 -0.1414 -0.5401
 7300TIP3    H221865   2.483   5.286   2.828  0.2620  0.7926  1.0298
 7301TIP3   OH221866   6.505   5.117   3.663 -0.4194  0.5553  0.3515
 7301TIP3    H121867   6.554   5.167   3.728  0.9353  0.3792 -0.4934
 7301TIP3    H221868   6.563   5.045   3.639 -1.8615 -0.7700  0.6755
 7302TIP3   OH221869   2.236   4.927   5.844 -0.0071  0.2692 -0.2995
 7302TIP3    H121870   2.210   5.000   5.900  1.0089  0.6937 -0.3666
 7302TIP3    H221871   2.266   4.968   5.763 -1.6862 -0.3472 -1.2874
 7303TIP3   OH221872   5.001   2.929   0.825 -0.4514  0.1537 -0.2115
 7303TIP3    H121873   5.092   2.959   0.816 -0.5377  0.2506 -0.8053
 7303TIP3    H221874   4.949   3.009   0.828 -0.5258  0.0975  0.0914
 7304TIP3   OH221875   5.887   3.959   2.204 -0.0143 -0.0348  1.0809
 7304TIP3    H121876   5.908   4.024   2.137 -0.4988 -0.6771  0.2860
 7304TIP3    H221877   5.957   3.969   2.269 -0.1899  1.4136  1.0906
 7305TIP3   OH221878   1.181   1.733   3.200  0.3551  0.0349 -0.0388
 7305TIP3    H121879   1.099   1.739   3.250  0.3823  1.5977 -0.1450
 7305TIP3    H221880   1.165   1.661   3.138 -1.6934  1.4922 -1.3426
 7306TIP3   OH221881   5.466   1.874   1.278  0.6846 -0.0130  0.0029
 7306TIP3    H121882   5.414   1.903   1.353 -0.2668 -0.8167 -0.3286
 7306TIP3    H221883   5.557   1.878   1.309  0.2815 -0.7291  1.3492
 7307TIP3   OH221884   1.532   0.596   1.905 -0.7075  0.2588 -0.3811
 7307TIP3    H121885   1.523   0.651   1.983  1.8698  1.9154 -1.1235
 7307TIP3    H221886   1.477   0.639   1.839  0.0783  1.1214 -0.5071
 7308TIP3   OH221887   3.671   0.745   0.835 -0.1556 -0.0946  0.0523
 7308TIP3    H121888   3.679   0.656   0.870  0.6198 -0.5931 -1.3167
 7308TIP3    H221889   3.689   0.735   0.741  2.4138  1.8741  0.2468
 7309TIP3   OH221890   1.084   0.193   5.158  0.4152  0.0101 -0.5385
 7309TIP3    H121891   1.020   0.210   5.088 -1.3058 -1.3060  0.6361
 7309TIP3    H221892   1.142   0.269   5.155  0.4593 -0.0099 -3.4016
 7310TIP3   OH221893   0.303   2.272   1.662 -0.2326  0.4677 -0.1590
 7310TIP3    H121894   0.312   2.179   1.684  0.5117  0.8282  1.1816
 7310TIP3    H221895   0.291   2.273   1.567 -0.1326 -0.9910 -0.2145
 7311TIP3   OH221896   0.829   5.068   2.618  0.2317  0.1487 -0.2359
 7311TIP3    H121897   0.788   5.143   2.574 -2.7929 -0.2085  1.6712
 7311TIP3    H221898   0.812   4.994   2.561  1.9847  0.6047 -1.4360
 7312TIP3   OH221899   3.177   4.566   1.582  0.9204 -0.0280  0.4182
 7312TIP3    H121900   3.195   4.607   1.498  0.5683  0.1484  0.4238
 7312TIP3    H221901   3.082   4.575   1.593  0.9245 -0.2984  0.7033
 7313TIP3   OH221902   2.354   1.405   4.286  0.2175 -0.1548  0.1517
 7313TIP3    H121903   2.446   1.400   4.263  0.8024  0.3363  2.1280
 7313TIP3    H221904   2.353   1.399   4.382 -1.6335  1.6015  0.3251
 7314TIP3   OH221905   3.658   2.106   2.990  0.2183 -0.3039  0.5375
 7314TIP3    H121906   3.668   2.114   2.895 -0.1391 -2.9739  0.2027
 7314TIP3    H221907   3.658   2.197   3.022  3.6272  0.6004 -1.5961
 7315TIP3   OH221908   6.331   5.627   3.457  0.2920 -0.1294 -0.3032
 7315TIP3    H121909   6.361   5.561   3.396  0.7560 -0.2680  0.0661
 7315TIP3    H221910   6.401   5.693   3.458  1.1826 -1.0135  1.4246
 7316TIP3   OH221911   4.714   6.414   4.815 -0.7264  0.1114 -0.1245
 7316TIP3    H121912   4.783   6.354   4.784  0.0673  1.1034 -0.3268
 7316TIP3    H221913   4.729   6.494   4.766 -0.0048  1.4439  2.1079
 7317TIP3   OH221914   6.590   6.330   0.112  0.0355 -0.2221 -0.0769
 7317TIP3    H121915   6.495   6.317   0.110  0.0422 -0.3527  0.4080
 7317TIP3    H221916   6.620   6.275   0.184  0.5331 -0.5052 -0.4939
 7318TIP3   OH221917   2.073   1.338   1.963 -0.6316 -0.2655 -0.3499
 7318TIP3    H121918   2.000   1.299   1.915 -0.8823  0.2576 -0.4021
 7318TIP3    H221919   2.042   1.425   1.989 -1.0925 -1.0801  2.1281
 7319TIP3   OH221920   4.898   3.123   1.712 -0.2700  0.3902  0.2725
 7319TIP3    H121921   4.893   3.207   1.666 -1.1858  1.6350  2.4714
 7319TIP3    H221922   4.813   3.082   1.696 -0.6571  0.9055  0.9514
 7320TIP3   OH221923   4.099   2.461   4.248  0.5298 -0.5172  0.9948
 7320TIP3    H121924   4.098   2.368   4.224  0.3718 -0.4509  0.7369
 7320TIP3    H221925   4.007   2.486   4.251  0.5905 -0.0297 -0.2997
 7321TIP3   OH221926   0.333   3.605   3.440 -0.4739  0.2640  0.6636
 7321TIP3    H121927   0.261   3.550   3.471 -0.7685  0.2411 -0.0380
 7321TIP3    H221928   0.291   3.667   3.380  0.2865 -0.6613 -0.8715
 7322TIP3   OH221929   1.941   3.851   3.500 -0.1069  0.2005 -0.7416
 7322TIP3    H121930   1.926   3.792   3.426 -0.8631  1.3247 -1.5118
 7322TIP3    H221931   1.883   3.925   3.484  1.0077  1.2863  0.0628
 7323TIP3   OH221932   1.435   6.791   4.920  0.4343 -0.0148 -0.1780
 7323TIP3    H121933   1.425   6.710   4.970  1.3727 -0.3964 -0.5777
 7323TIP3    H221934   1.442   6.762   4.829  1.2209  0.4706 -0.2819
 7324TIP3   OH221935   7.126   6.461   1.570  0.0569  0.2345  0.3148
 7324TIP3    H121936   7.117   6.546   1.528  0.7664  0.3925  0.4681
 7324TIP3    H221937   7.062   6.461   1.640 -1.5062 -0.2203 -1.0473
 7325TIP3   OH221938   0.579   3.468   0.125 -0.1115  0.2635 -0.1407
 7325TIP3    H121939   0.638   3.522   0.073 -0.2237  0.7891  0.2638
 7325TIP3    H221940   0.508   3.527   0.149 -0.4343 -0.1715 -0.0148
 7326TIP3   OH221941   6.420   2.052   5.093 -0.2634  0.2455 -0.6507
 7326TIP3    H121942   6.432   1.979   5.032  2.4891  1.1240 -1.3269
 7326TIP3    H221943   6.407   2.128   5.036 -2.4652  0.4516  0.0354
 7327TIP3   OH221944   7.053   6.421   2.738 -0.2985  0.2772  0.0393
 7327TIP3    H121945   7.049   6.341   2.792  1.1893  0.6825  0.8121
 7327TIP3    H221946   7.047   6.389   2.648  1.4037 -0.8502  0.2793
 7328TIP3   OH221947   6.148   2.155   2.207 -0.3985  0.0957  0.1324
 7328TIP3    H121948   6.191   2.234   2.240  0.3646 -0.0610 -0.4444
 7328TIP3    H221949   6.218   2.089   2.206 -0.3034  0.1719 -2.0246
 7329TIP3   OH221950   2.477   6.079   4.140 -0.0645 -0.1792  0.2262
 7329TIP3    H121951   2.531   6.072   4.218  1.4734 -1.3102 -0.8568
 7329TIP3    H221952   2.468   5.988   4.109 -0.0847  0.2903 -1.2388
 7330TIP3   OH221953   6.022   1.106   2.719  0.3836 -0.3469  0.2433
 7330TIP3    H121954   6.025   1.090   2.814  2.4542 -4.1629 -0.2309
 7330TIP3    H221955   6.114   1.104   2.692 -0.1994 -0.3064 -1.9349
 7331TIP3   OH221956   0.814   0.975   5.796 -0.2906 -0.2972  0.0606
 7331TIP3    H121957   0.767   0.912   5.850  0.3030 -0.5697  0.2730
 7331TIP3    H221958   0.830   0.929   5.714 -0.9638  0.0252 -0.2536
 7332TIP3   OH221959   5.593   2.051   4.862 -0.3700 -0.1664 -0.2548
 7332TIP3    H121960   5.682   2.079   4.842  0.3534 -1.8164  0.4779
 7332TIP3    H221961   5.543   2.133   4.867  1.4101  0.9232  0.8711
 7333TIP3   OH221962   3.532   3.842   2.160 -0.2526 -0.3166  0.3085
 7333TIP3    H121963   3.504   3.909   2.097  0.6989 -0.3493 -0.1594
 7333TIP3    H221964   3.533   3.761   2.109 -0.1179 -0.4572  0.5380
 7334TIP3   OH221965   0.279   1.535   4.213 -0.0246  0.5935 -0.1642
 7334TIP3    H121966   0.314   1.538   4.124 -0.9279  0.3340 -0.5425
 7334TIP3    H221967   0.240   1.448   4.220  0.5073  0.4185  0.6724
 7335TIP3   OH221968   3.759   5.999   0.973 -0.1383 -0.0829  0.4461
 7335TIP3    H121969   3.665   6.013   0.959 -0.2243 -1.5839 -0.8134
 7335TIP3    H221970   3.765   5.957   1.059 -0.7196 -0.7320  0.1801
 7336TIP3   OH221971   0.822   5.072   3.698 -0.1997  0.2797  0.0806
 7336TIP3    H121972   0.747   5.078   3.639  0.1085  1.5704 -0.2307
 7336TIP3    H221973   0.796   5.124   3.774 -0.0749 -0.2667  0.5003
 7337TIP3   OH221974   1.346   3.095   1.376  0.7004 -0.4985  0.1334
 7337TIP3    H121975   1.382   3.144   1.302 -1.1571 -1.0713 -1.2431
 7337TIP3    H221976   1.356   3.003   1.350 -0.3352 -0.6961  0.4080
 7338TIP3   OH221977   7.207   5.463   1.725  0.2660 -0.5739  0.1583
 7338TIP3    H121978   7.186   5.556   1.734 -1.9588 -1.2220  3.1252
 7338TIP3    H221979   7.158   5.435   1.648 -0.2333  0.4336  0.0873
 7339TIP3   OH221980   2.606   6.334   4.445  0.0002 -0.1665 -0.6283
 7339TIP3    H121981   2.659   6.413   4.435  0.1512 -0.3402 -1.2208
 7339TIP3    H221982   2.518   6.367   4.465  0.3459  0.1189  0.4524
 7340TIP3   OH221983   2.261   0.972   0.286 -0.0806  0.2971 -0.3651
 7340TIP3    H121984   2.204   1.031   0.335  2.2819  1.7573  0.8393
 7340TIP3    H221985   2.231   0.884   0.309 -1.1940  0.9935  0.9903
 7341TIP3   OH221986   5.579   3.530   1.353  0.3583  0.2732 -0.1525
 7341TIP3    H121987   5.608   3.529   1.444  0.0491  0.5788 -0.0475
 7341TIP3    H221988   5.655   3.502   1.303  0.7201  0.7091  0.1487
 7342TIP3   OH221989   5.728   1.457   2.113 -0.3847  0.0591  0.0328
 7342TIP3    H121990   5.745   1.371   2.074  1.4919  1.0732 -1.5602
 7342TIP3    H221991   5.809   1.506   2.098 -0.6522  1.4862  2.6977
 7343TIP3   OH221992   1.377   3.902   3.360  0.6700 -0.3019  0.5361
 7343TIP3    H121993   1.284   3.884   3.348  0.9497 -1.0459 -0.7761
 7343TIP3    H221994   1.385   3.931   3.450 -0.8442 -0.1629  0.6449
 7344TIP3   OH221995   2.866   2.187   0.448  0.2773  0.1406 -0.2986
 7344TIP3    H121996   2.893   2.255   0.508  0.0702  1.2591 -1.4210
 7344TIP3    H221997   2.779   2.214   0.419 -0.1836 -1.0620 -0.1238
 7345TIP3   OH221998   6.277   4.448   0.431 -0.1237 -0.0027 -0.0601
 7345TIP3    H121999   6.307   4.380   0.491 -2.8449 -2.4121 -1.1596
 7345TIP3    H222000   6.338   4.444   0.357 -0.3972 -1.5316 -0.2353
 7346TIP3   OH222001   0.956   1.081   0.752  0.2202  0.5467  0.4047
 7346TIP3    H122002   0.862   1.094   0.741  0.0209 -0.4098  0.9485
 7346TIP3    H222003   0.995   1.153   0.702 -0.7849  0.7397 -0.1386
 7347TIP3   OH222004   1.172   0.029   3.872  0.5613 -0.2823 -0.1946
 7347TIP3    H122005   1.132   0.001   3.955  1.2296  0.4524  0.3829
 7347TIP3    H222006   1.227   0.103   3.895 -0.5019  0.9998 -1.5568
 7348TIP3   OH222007   3.199   6.386   2.404  0.8753 -0.2502  0.2264
 7348TIP3    H122008   3.267   6.328   2.367  1.6706  0.4168  0.6117
 7348TIP3    H222009   3.222   6.392   2.496 -0.2519 -0.7339  0.5510
 7349TIP3   OH222010   4.673   0.251   5.425  0.0605  0.2251  0.0695
 7349TIP3    H122011   4.744   0.218   5.370 -0.4191 -1.0265  0.1684
 7349TIP3    H222012   4.696   0.223   5.513 -0.4700 -0.0564  0.1237
 7350TIP3   OH222013   6.466  -0.015   4.099  0.5293  0.2114  0.2361
 7350TIP3    H122014   6.395  -0.013   4.035  0.4931 -0.6842  0.2283
 7350TIP3    H222015   6.482   0.076   4.121  2.6577  0.8759 -3.3510
 7351TIP3   OH222016   5.138   6.628   4.278  0.0620  0.8793 -0.1268
 7351TIP3    H122017   5.212   6.618   4.338 -1.3372  1.0804  1.7170
 7351TIP3    H222018   5.075   6.562   4.306 -0.7213  1.0928 -1.2932
 7352TIP3   OH222019   4.567   3.082   4.050 -0.3590  0.1935  0.0941
 7352TIP3    H122020   4.548   3.077   3.956  0.6940 -0.8669 -0.0886
 7352TIP3    H222021   4.497   3.031   4.091 -0.3729 -0.0299 -0.1985
 7353TIP3   OH222022   2.810   4.854   5.300 -0.4553 -0.1359 -0.0413
 7353TIP3    H122023   2.745   4.824   5.363  0.4624 -1.1393  0.4429
 7353TIP3    H222024   2.879   4.788   5.302  0.6271  0.9433 -0.4925
 7354TIP3   OH222025   1.816   2.815   5.590 -0.1860 -0.0571  0.3160
 7354TIP3    H122026   1.758   2.850   5.522  1.4134  1.4852 -0.3173
 7354TIP3    H222027   1.757   2.793   5.662 -1.7220 -0.0024 -0.8627
 7355TIP3   OH222028   3.309   2.764   2.378  0.5091  0.0542  0.1177
 7355TIP3    H122029   3.333   2.673   2.392 -0.3467 -0.2466 -0.2775
 7355TIP3    H222030   3.215   2.767   2.396  0.5118  0.8399  0.0446
 7356TIP3   OH222031   5.391   4.443   4.682 -0.0619  0.1708  0.2531
 7356TIP3    H122032   5.300   4.421   4.660  0.1475 -1.1988  0.6854
 7356TIP3    H222033   5.429   4.471   4.599 -0.5470 -0.4700 -0.2006
 7357TIP3   OH222034   6.718   2.697   0.245  0.0733 -0.0553  0.5158
 7357TIP3    H122035   6.640   2.721   0.195  0.2049 -0.3374  0.1727
 7357TIP3    H222036   6.732   2.604   0.226  1.1956  0.2765 -0.3980
 7358TIP3   OH222037   0.841   0.873   2.616 -0.4121  0.2075  0.1566
 7358TIP3    H122038   0.788   0.805   2.657  0.1851 -0.6909 -0.5353
 7358TIP3    H222039   0.918   0.827   2.582 -0.3888  1.0904 -1.0522
 7359TIP3   OH222040   6.133   1.893   4.076 -0.2242  0.2668  0.2038
 7359TIP3    H122041   6.135   1.849   4.161 -0.6230  0.8565  0.5284
 7359TIP3    H222042   6.189   1.970   4.088  0.7986 -0.3496 -0.4822
 7360TIP3   OH222043   5.256   4.033   4.896 -0.0105 -0.0158 -0.2494
 7360TIP3    H122044   5.255   3.939   4.881  1.9445  0.0176 -0.8520
 7360TIP3    H222045   5.337   4.050   4.944 -0.2443  1.3698 -0.2863
 7361TIP3   OH222046   0.828   6.193   4.452 -0.8303 -0.4177 -0.1058
 7361TIP3    H122047   0.752   6.224   4.403 -0.8738 -0.9862 -0.3998
 7361TIP3    H222048   0.794   6.173   4.539 -1.3851 -2.2938 -0.7136
 7362TIP3   OH222049   1.381   2.948   0.210 -0.0576 -0.3372 -0.3162
 7362TIP3    H122050   1.398   3.030   0.256 -2.1936  0.4543 -0.8164
 7362TIP3    H222051   1.430   2.956   0.128  0.6954 -0.0945  0.1451
 7363TIP3   OH222052   3.363   2.196   1.409  0.5744  0.1725 -0.7687
 7363TIP3    H122053   3.296   2.143   1.365 -1.0029  1.2378  0.2350
 7363TIP3    H222054   3.377   2.270   1.350  0.2405  0.3741 -0.5972
 7364TIP3   OH222055   5.377   5.169   1.494  0.2256  0.2331 -0.5400
 7364TIP3    H122056   5.300   5.225   1.498  0.5917  0.8052 -1.2249
 7364TIP3    H222057   5.382   5.140   1.403  1.0359  0.5292 -0.6024
 7365TIP3   OH222058   6.084   1.571   0.897 -0.1912 -0.0457  0.4333
 7365TIP3    H122059   6.093   1.665   0.886 -0.2095 -0.1919 -0.9807
 7365TIP3    H222060   6.048   1.540   0.814  1.3208 -1.4843  0.2533
 7366TIP3   OH222061   7.137   4.803   0.508 -0.2854  0.0358  0.0303
 7366TIP3    H122062   7.044   4.823   0.518 -0.0352  1.2913  0.0049
 7366TIP3    H222063   7.178   4.839   0.587  0.0681 -1.4103  0.5399
 7367TIP3   OH222064   5.724   6.623   3.402  0.4251 -0.2622 -0.1051
 7367TIP3    H122065   5.781   6.618   3.479  0.3141 -1.5306 -0.0805
 7367TIP3    H222066   5.704   6.532   3.382 -3.3279  0.1229  1.1824
 7368TIP3   OH222067   4.826   3.699   0.813 -0.0150 -0.4094 -0.8889
 7368TIP3    H122068   4.781   3.709   0.729 -1.7462 -1.6665 -0.1623
 7368TIP3    H222069   4.869   3.614   0.807 -0.4954 -0.6953 -0.3561
 7369TIP3   OH222070   4.614   4.518   2.810  0.4685  0.6075 -0.3059
 7369TIP3    H122071   4.588   4.439   2.763  0.7735  0.4094 -0.1417
 7369TIP3    H222072   4.646   4.577   2.741  2.3702 -0.2517 -0.2170
 7370TIP3   OH222073   2.708   2.997   0.378 -0.2142 -0.4277  0.1416
 7370TIP3    H122074   2.683   3.082   0.414  0.4278 -0.9836  1.9995
 7370TIP3    H222075   2.716   3.013   0.284  2.5910  2.2911  0.6761
 7371TIP3   OH222076   4.316   6.117   2.037  0.1719 -0.0048 -0.1532
 7371TIP3    H122077   4.296   6.151   1.950  0.4026 -1.7128 -0.9112
 7371TIP3    H222078   4.252   6.046   2.050 -0.2851  0.6423  1.3559
 7372TIP3   OH222079   2.108   5.655   1.152 -0.8014 -0.4147 -0.5704
 7372TIP3    H122080   2.086   5.735   1.199  0.4965 -1.8621  2.8091
 7372TIP3    H222081   2.042   5.592   1.180  0.1519 -1.3846 -0.4673
 7373TIP3   OH222082   5.580   4.411   2.604  0.3619  0.0525 -0.4736
 7373TIP3    H122083   5.538   4.378   2.525  3.2280  0.1757 -2.1849
 7373TIP3    H222084   5.673   4.388   2.593  1.0458  1.0990  2.3281
 7374TIP3   OH222085   5.374   5.964   5.741 -0.1593  0.1794  0.0530
 7374TIP3    H122086   5.374   5.868   5.751  0.7774  0.0565 -0.9259
 7374TIP3    H222087   5.366   5.978   5.647 -0.3390  1.0761  0.1934
 7375TIP3   OH222088   1.344   2.332   3.549 -0.5010 -0.5713  0.1049
 7375TIP3    H122089   1.324   2.381   3.629  1.6026 -0.7967  0.8407
 7375TIP3    H222090   1.323   2.241   3.571 -0.2906 -0.5797  0.2767
 7376TIP3   OH222091   5.921   0.931   2.359 -0.5215  0.5778 -0.2117
 7376TIP3    H122092   5.860   0.951   2.430  0.0270 -0.4380  0.5673
 7376TIP3    H222093   6.007   0.956   2.394  0.1146 -2.3665  0.5692
 7377TIP3   OH222094   0.728   3.952   5.800  0.3208 -0.2040  0.3390
 7377TIP3    H122095   0.683   3.920   5.878  3.0105  1.1441  2.6634
 7377TIP3    H222096   0.782   3.879   5.771 -0.1801 -0.4992  0.1411
 7378TIP3   OH222097   1.052   2.496   1.307 -0.1637 -0.0749 -0.1422
 7378TIP3    H122098   1.075   2.512   1.215  1.6889 -2.5521 -0.2151
 7378TIP3    H222099   0.958   2.482   1.305 -0.4133  1.4187 -1.3881
 7379TIP3   OH222100   3.447   4.046   3.185  0.4527 -0.5848 -0.2722
 7379TIP3    H122101   3.529   3.999   3.170  1.2781  0.2666  1.3134
 7379TIP3    H222102   3.469   4.112   3.251 -1.4899 -0.2573  0.1045
 7380TIP3   OH222103   2.509   3.074   1.126  0.1173 -0.8831  0.1876
 7380TIP3    H122104   2.450   3.046   1.057  0.0791 -2.0568  0.6709
 7380TIP3    H222105   2.468   3.043   1.207 -0.1001  0.9074  0.8179
 7381TIP3   OH222106   1.146   6.534   2.984 -0.5149  0.0056  0.5972
 7381TIP3    H122107   1.239   6.529   3.005 -0.5755 -2.3730  0.6216
 7381TIP3    H222108   1.141   6.595   2.910  1.1151 -0.1702  0.3105
 7382TIP3   OH222109   2.284   6.171   5.830  0.5976  0.2048  0.0852
 7382TIP3    H122110   2.217   6.131   5.774  0.8957 -1.3893  0.7970
 7382TIP3    H222111   2.262   6.264   5.831 -0.9281 -0.1108 -0.6033
 7383TIP3   OH222112   5.552   4.371   1.077  0.1543 -0.0275  0.4357
 7383TIP3    H122113   5.555   4.281   1.045  1.1498 -0.1645  0.8682
 7383TIP3    H222114   5.600   4.421   1.012  0.4722  0.0235  0.7100
 7384TIP3   OH222115   4.730   2.497   5.830 -0.0609  0.0840  0.0946
 7384TIP3    H122116   4.746   2.560   5.901 -0.3240 -0.9281  1.0880
 7384TIP3    H222117   4.678   2.545   5.766 -1.2498  0.5686  1.3739
 7385TIP3   OH222118   6.029   2.817   4.196  0.4409  0.7331  0.1695
 7385TIP3    H122119   6.122   2.830   4.180  0.4316  0.7081  0.0962
 7385TIP3    H222120   5.986   2.846   4.116  0.4997 -0.8611 -0.4765
 7386TIP3   OH222121   4.118   1.743   4.162 -0.2580 -0.4653  0.2331
 7386TIP3    H122122   4.158   1.707   4.083 -0.6245  1.0851 -0.6821
 7386TIP3    H222123   4.170   1.820   4.183 -1.3914  0.3085  0.3042
 7387TIP3   OH222124   1.727   0.952   0.379  0.2301 -0.3501  0.1394
 7387TIP3    H122125   1.776   0.995   0.308 -2.3018  0.3765 -1.3219
 7387TIP3    H222126   1.698   1.024   0.435 -0.7215 -0.5384 -0.0903
 7388TIP3   OH222127   6.558   5.812   3.849 -0.0866  0.2038 -0.3874
 7388TIP3    H122128   6.509   5.747   3.798 -1.6722  0.6738  0.4709
 7388TIP3    H222129   6.647   5.807   3.814 -0.9101 -0.0247 -2.6631
 7389TIP3   OH222130   0.401   5.821   4.373 -0.2011  0.3610 -0.4735
 7389TIP3    H122131   0.480   5.775   4.401 -0.2986  0.4886  0.0123
 7389TIP3    H222132   0.350   5.834   4.453 -0.0963  1.4593 -0.5572
 7390TIP3   OH222133   4.467   4.820   4.500 -0.0154  0.2431 -0.6531
 7390TIP3    H122134   4.441   4.784   4.415  0.1451 -0.3959 -0.4386
 7390TIP3    H222135   4.563   4.814   4.500 -0.0707 -1.2714  0.1970
 7391TIP3   OH222136   4.756   4.423   5.243  0.5664 -0.0151  0.7383
 7391TIP3    H122137   4.669   4.438   5.280  0.6845  1.9501  0.2936
 7391TIP3    H222138   4.808   4.498   5.272  0.5847  1.8772 -3.5697
 7392TIP3   OH222139   5.507   3.167   5.579  0.1091 -0.1520  0.3926
 7392TIP3    H122140   5.544   3.252   5.603 -0.0524  0.2115 -0.6158
 7392TIP3    H222141   5.422   3.187   5.542  0.8905 -0.5453 -1.7407
 7393TIP3   OH222142   1.152   3.616   1.078 -0.2048  0.3965  0.0515
 7393TIP3    H122143   1.158   3.642   0.986  0.2148  0.4886  0.1040
 7393TIP3    H222144   1.126   3.696   1.123  0.7631  0.6632  0.1680
 7394TIP3   OH222145   4.104   2.169   2.402 -0.5392 -0.4946 -0.2053
 7394TIP3    H122146   4.061   2.116   2.335 -2.5036 -1.1971  1.5146
 7394TIP3    H222147   4.047   2.245   2.413  0.4366  0.2599 -0.1873
 7395TIP3   OH222148   7.218   6.593   2.926 -0.0749  0.5598 -0.0021
 7395TIP3    H122149   7.155   6.552   2.867 -0.0223  2.1408 -1.2533
 7395TIP3    H222150   7.213   6.542   3.007 -1.3311 -0.6980 -0.8246
 7396TIP3   OH222151   5.084   0.835   2.527 -0.2402 -0.0170 -0.5382
 7396TIP3    H122152   5.139   0.900   2.570  0.9048 -0.5520 -1.1630
 7396TIP3    H222153   4.994   0.865   2.545  0.2447  1.7717 -0.8514
 7397TIP3   OH222154   1.573   4.026   0.406  0.1175 -0.1085 -0.2150
 7397TIP3    H122155   1.512   4.006   0.478  0.2880  0.2445  0.0288
 7397TIP3    H222156   1.626   3.946   0.398  1.2231  0.4323  1.1896
 7398TIP3   OH222157   1.327   2.654   2.566  0.0370 -0.6426  0.2957
 7398TIP3    H122158   1.297   2.711   2.637  0.3085 -0.5878  0.3669
 7398TIP3    H222159   1.387   2.593   2.608  0.1553 -0.6461  0.1223
 7399TIP3   OH222160   4.210   1.322   3.239 -0.2118 -0.0195 -0.4675
 7399TIP3    H122161   4.193   1.297   3.330 -0.7290 -1.2096 -0.8704
 7399TIP3    H222162   4.191   1.416   3.236 -1.7242 -0.2763  0.2865
 7400TIP3   OH222163   4.448   2.388   0.069  0.0205 -0.5811 -0.4416
 7400TIP3    H122164   4.462   2.330   0.144  1.1770 -0.6738 -0.7028
 7400TIP3    H222165   4.388   2.340   0.013 -0.7725 -0.5568  0.3674
 7401TIP3   OH222166   0.969   6.245   5.425 -0.4049  0.1763 -0.0913
 7401TIP3    H122167   0.992   6.329   5.386 -1.1193  0.3731 -0.1106
 7401TIP3    H222168   0.874   6.240   5.416 -0.4429 -0.3259  0.5303
 7402TIP3   OH222169   1.378   4.909   3.680  0.1681  0.4186 -0.4925
 7402TIP3    H122170   1.382   4.883   3.772  0.5111 -1.5542 -1.0227
 7402TIP3    H222171   1.305   4.859   3.644  2.3045 -1.7969 -2.0937
 7403TIP3   OH222172   4.013   5.390   1.133 -0.3729 -0.1000 -0.4513
 7403TIP3    H122173   4.085   5.355   1.186  0.9369  0.8384 -1.5455
 7403TIP3    H222174   3.941   5.328   1.146  0.4540 -0.7983  1.0633
 7404TIP3   OH222175   6.949   0.468   1.829  0.1997  0.4086 -0.2950
 7404TIP3    H122176   6.913   0.390   1.786  0.9473 -0.5164  0.6751
 7404TIP3    H222177   7.014   0.501   1.767  0.2607 -0.0696 -0.4946
 7405TIP3   OH222178   2.957   2.736   1.151  0.2229 -0.2881  0.4329
 7405TIP3    H122179   2.866   2.734   1.122 -0.5505  1.7626  2.3770
 7405TIP3    H222180   2.998   2.802   1.095  1.2642 -2.8790 -2.0740
 7406TIP3   OH222181   0.275   1.681   4.802  0.2467 -0.2412  0.1352
 7406TIP3    H122182   0.244   1.613   4.742 -1.1323  0.8251 -0.4166
 7406TIP3    H222183   0.206   1.687   4.869 -0.0719  1.1774 -0.3004
 7407TIP3   OH222184   4.662   3.112   2.882  0.3099  0.0566  0.2778
 7407TIP3    H122185   4.722   3.186   2.889 -0.3251  0.5255  0.8219
 7407TIP3    H222186   4.575   3.151   2.876  0.1285 -0.5614 -1.9577
 7408TIP3   OH222187   0.782   0.104   1.667 -0.0283 -0.4696 -0.1485
 7408TIP3    H122188   0.834   0.071   1.594  0.4082 -0.8343  0.3175
 7408TIP3    H222189   0.831   0.078   1.745 -1.5176 -1.9527  0.3575
 7409TIP3   OH222190   5.643   0.362   0.693  0.1863 -0.3164  0.6073
 7409TIP3    H122191   5.645   0.312   0.612 -1.5174 -0.6568  0.7436
 7409TIP3    H222192   5.575   0.428   0.678  1.6312  1.2888  0.8331
 7410TIP3   OH222193   2.200   4.346   3.545  0.7502 -0.2352  0.7458
 7410TIP3    H122194   2.207   4.417   3.481  1.0058 -2.1500 -1.4667
 7410TIP3    H222195   2.289   4.314   3.555  0.6427 -0.2374  1.7639
 7411TIP3   OH222196   6.783   4.975   3.515 -0.0437  0.2836 -0.1774
 7411TIP3    H122197   6.708   4.916   3.503 -0.5343  0.7865  0.3650
 7411TIP3    H222198   6.852   4.936   3.462 -0.2474 -0.9916  0.4469
 7412TIP3   OH222199   0.513   6.372   5.361  0.0582  0.2442 -0.2852
 7412TIP3    H122200   0.519   6.277   5.353 -0.9289  0.0124  1.2339
 7412TIP3    H222201   0.587   6.396   5.417 -0.3714  0.1979  0.3158
 7413TIP3   OH222202   2.517   2.371   5.178  0.3903 -0.0295 -0.8199
 7413TIP3    H122203   2.489   2.459   5.203  0.6659 -0.3996  0.8679
 7413TIP3    H222204   2.509   2.370   5.082 -0.3250  1.5757 -0.8075
 7414TIP3   OH222205   7.149   3.551   3.253  0.3004  0.2521  0.2902
 7414TIP3    H122206   7.091   3.475   3.260  0.1368  0.4433  1.0561
 7414TIP3    H222207   7.091   3.627   3.258  0.5660  0.4398  0.5676
 7415TIP3   OH222208   4.197   5.635   1.779  0.0641 -0.0898  0.1240
 7415TIP3    H122209   4.155   5.618   1.695  0.3941 -0.6027  0.0618
 7415TIP3    H222210   4.227   5.549   1.809 -1.0192 -0.0894  1.2933
 7416TIP3   OH222211   5.758   1.370   0.284  0.3693  0.1555  0.0782
 7416TIP3    H122212   5.695   1.375   0.212  2.0935  3.4365 -1.4234
 7416TIP3    H222213   5.778   1.276   0.292 -1.7256 -0.5641 -2.0253
 7417TIP3   OH222214   5.126   5.130   3.488 -0.1536 -0.0966  0.3582
 7417TIP3    H122215   5.210   5.099   3.524  0.5573  1.3583  0.0369
 7417TIP3    H222216   5.095   5.193   3.552 -0.9567 -0.5396  0.4107
 7418TIP3   OH222217   6.358   6.567   4.586 -0.5325  0.0003 -0.4983
 7418TIP3    H122218   6.361   6.504   4.658  0.9897  0.2053 -0.3595
 7418TIP3    H222219   6.286   6.626   4.608 -0.6344 -0.4546  0.4202
 7419TIP3   OH222220   6.402   1.616   0.646  0.0798  0.3320  0.3799
 7419TIP3    H122221   6.322   1.587   0.602  1.0593 -1.0260 -0.6023
 7419TIP3    H222222   6.437   1.537   0.687  1.3278  0.7211  0.1102
 7420TIP3   OH222223   3.476   1.733   2.360 -0.4369 -0.0031 -0.3985
 7420TIP3    H122224   3.555   1.724   2.307 -0.6486  2.3384 -1.2251
 7420TIP3    H222225   3.507   1.730   2.450  0.9248  2.5853 -0.6908
 7421TIP3   OH222226   2.105   4.473   4.751  0.7664  0.4013  0.4578
 7421TIP3    H122227   2.053   4.406   4.796  2.4924 -1.0142  0.4622
 7421TIP3    H222228   2.068   4.476   4.663  1.5630 -1.6512  0.0137
 7422TIP3   OH222229   7.028   3.941   5.585  0.2817  0.4285 -0.3117
 7422TIP3    H122230   7.083   3.927   5.663  0.2994  0.5154 -0.3089
 7422TIP3    H222231   7.049   4.030   5.556 -0.1027  0.5852 -0.1176
 7423TIP3   OH222232   0.416   5.775   2.151 -0.4402 -0.8917  0.1452
 7423TIP3    H122233   0.456   5.804   2.233  0.4464  0.4444 -0.7207
 7423TIP3    H222234   0.350   5.711   2.178 -0.9862  0.3664  1.9791
 7424TIP3   OH222235   5.257   6.465   2.100  0.0964  0.3030 -0.7500
 7424TIP3    H122236   5.234   6.502   2.014 -0.5935 -0.0084 -0.7041
 7424TIP3    H222237   5.284   6.540   2.152 -0.7675  0.6758 -0.8286
 7425TIP3   OH222238   0.393   0.365   5.232 -0.0742 -0.2220 -0.4856
 7425TIP3    H122239   0.415   0.319   5.314 -0.8633  2.3745  1.3052
 7425TIP3    H222240   0.311   0.409   5.251  1.1076  2.7192 -1.6926
 7426TIP3   OH222241   2.397   0.071   1.233 -0.0936 -0.0785  0.0641
 7426TIP3    H122242   2.359   0.060   1.145 -0.6406 -0.7055  0.3753
 7426TIP3    H222243   2.334   0.125   1.280  0.5034  0.7970 -0.1095
 7427TIP3   OH222244   6.875   6.001   4.298  0.4262 -0.1287 -0.6332
 7427TIP3    H122245   6.934   5.961   4.362  1.6148  1.6980 -0.5103
 7427TIP3    H222246   6.923   5.998   4.216 -0.4817 -1.1102 -1.1499
 7428TIP3   OH222247   4.907   0.896   1.645  0.2360 -0.1336 -0.3021
 7428TIP3    H122248   4.967   0.823   1.660  0.2298 -0.2907 -1.0389
 7428TIP3    H222249   4.820   0.856   1.644  0.1034  0.0904  0.7437
 7429TIP3   OH222250   1.694   4.128   0.703  0.1712 -0.5654 -0.1778
 7429TIP3    H122251   1.605   4.092   0.707  0.6400 -1.6287  1.4363
 7429TIP3    H222252   1.743   4.078   0.768  1.0336  2.5573  1.7619
 7430TIP3   OH222253   5.742   3.308   5.388  0.0447  0.5165  0.3719
 7430TIP3    H122254   5.664   3.252   5.386 -0.0254  0.6243 -0.5206
 7430TIP3    H222255   5.711   3.391   5.423 -0.2948  0.6179 -0.1550
 7431TIP3   OH222256   2.973   0.447   0.566  0.2690  0.1216  0.6637
 7431TIP3    H122257   2.959   0.542   0.571  0.0523  0.2039 -0.8832
 7431TIP3    H222258   2.958   0.426   0.474  1.2763 -1.2669  0.7834
 7432TIP3   OH222259   7.039   1.966   2.988  0.5851 -0.6339  0.1254
 7432TIP3    H122260   7.077   1.885   3.021  2.9270  0.3856  0.1106
 7432TIP3    H222261   7.113   2.018   2.958 -0.8588  1.3879 -0.2205
 7433TIP3   OH222262   2.367   3.264   3.359 -0.0447  0.1785  0.4593
 7433TIP3    H122263   2.300   3.198   3.373  0.3231 -0.4468 -0.6348
 7433TIP3    H222264   2.431   3.248   3.428  0.0657 -0.6492  0.1740
 7434TIP3   OH222265   2.527   3.980   0.495  0.3657  0.6543  0.4675
 7434TIP3    H122266   2.451   4.038   0.494  1.3917  2.1157  1.3856
 7434TIP3    H222267   2.492   3.893   0.477 -1.3811  1.4068  0.0026
 7435TIP3   OH222268   7.193   5.766   0.856  0.6487 -0.2081  0.2100
 7435TIP3    H122269   7.263   5.735   0.799 -0.2284 -2.4227  0.2170
 7435TIP3    H222270   7.114   5.727   0.820 -0.0968 -0.6287  2.1646
 7436TIP3   OH222271   1.863   1.153   5.046 -0.5966 -0.1411 -0.0339
 7436TIP3    H122272   1.931   1.165   5.112  0.3721 -1.3499 -0.7660
 7436TIP3    H222273   1.890   1.207   4.972  0.2865 -1.5745 -0.8091
 7437TIP3   OH222274   3.772   1.415   4.341 -0.3444  0.1022 -0.6515
 7437TIP3    H122275   3.813   1.497   4.369 -2.7243  1.1369  0.0760
 7437TIP3    H222276   3.750   1.429   4.249 -0.5967  0.1984 -0.5754
 7438TIP3   OH222277   1.504   3.167   4.377  0.2036 -0.7141 -0.1957
 7438TIP3    H122278   1.499   3.164   4.282 -1.3253 -1.1059 -0.1393
 7438TIP3    H222279   1.450   3.242   4.402  0.7715 -0.4798  0.3640
 7439TIP3   OH222280   5.973   6.336   5.230 -0.1187 -0.9400 -0.3639
 7439TIP3    H122281   6.026   6.391   5.171 -0.7980 -1.2587 -1.3046
 7439TIP3    H222282   6.037   6.283   5.277  0.4544 -0.6039 -0.7490
 7440TIP3   OH222283   6.444   2.575   0.979  0.3090 -0.9490 -0.4464
 7440TIP3    H122284   6.512   2.589   1.045 -0.5953  0.6306  0.1966
 7440TIP3    H222285   6.460   2.642   0.914 -2.2403  1.3640  1.1214
 7441TIP3   OH222286   4.834   0.246   2.901 -0.2712 -0.0222  0.3578
 7441TIP3    H122287   4.780   0.231   2.823  0.9488  1.0226 -0.7368
 7441TIP3    H222288   4.924   0.240   2.869  0.3056  3.4624  0.9860
 7442TIP3   OH222289   4.324   2.183   1.447  0.4834 -0.4531  0.6511
 7442TIP3    H122290   4.385   2.110   1.434  1.6022  0.6202 -0.5072
 7442TIP3    H222291   4.237   2.143   1.443  1.0710 -1.8885  1.3281
 7443TIP3   OH222292   7.154   2.815   2.019  0.4916 -0.1946 -0.0866
 7443TIP3    H122293   7.134   2.765   2.097 -1.0645 -2.4202 -1.7828
 7443TIP3    H222294   7.249   2.812   2.012  0.5689 -0.8960  1.1000
 7444TIP3   OH222295   3.626   0.055   2.164 -0.0057  0.0867 -0.1655
 7444TIP3    H122296   3.569   0.014   2.229  1.6898 -0.7053  0.8914
 7444TIP3    H222297   3.671  -0.018   2.122 -0.3419  0.6520 -1.5945
 7445TIP3   OH222298   7.056   4.927   2.046 -0.3170  0.2530 -0.2101
 7445TIP3    H122299   7.014   4.984   2.111 -2.0036  0.4234 -1.3673
 7445TIP3    H222300   7.103   4.988   1.989  1.4713  0.0729  1.0127
 7446TIP3   OH222301   7.085   5.198   1.823  0.7594 -0.0028 -0.2266
 7446TIP3    H122302   7.062   5.142   1.749  1.4149 -1.7269  0.7999
 7446TIP3    H222303   7.131   5.272   1.784 -3.6141  2.0530 -2.0260
 7447TIP3   OH222304   0.487   5.203   5.893  0.3943  0.5392  0.0004
 7447TIP3    H122305   0.541   5.258   5.836 -0.0395 -1.5922 -2.6717
 7447TIP3    H222306   0.404   5.251   5.899 -0.0414  0.2340 -2.4201
 7448TIP3   OH222307   6.381   5.769   1.744  0.2337  0.3061  0.2152
 7448TIP3    H122308   6.293   5.802   1.758  0.1197  0.0471  0.1105
 7448TIP3    H222309   6.421   5.768   1.831 -0.4438 -1.2332  0.5229
 7449TIP3   OH222310   3.539   2.005   1.115  0.0705 -0.0398 -0.7106
 7449TIP3    H122311   3.561   1.912   1.109  0.7329 -0.0187  0.9235
 7449TIP3    H222312   3.567   2.031   1.202  1.0998  2.0362 -1.5830
 7450TIP3   OH222313   1.360   0.710   3.674 -0.3832 -0.1010  0.4106
 7450TIP3    H122314   1.307   0.772   3.725  0.4661  0.3428  0.7717
 7450TIP3    H222315   1.305   0.631   3.668 -1.0529  0.3173  0.8313
 7451TIP3   OH222316   6.250   3.376   5.052 -0.1522  0.8237  0.0054
 7451TIP3    H122317   6.178   3.313   5.058 -0.4535  1.1209 -0.3694
 7451TIP3    H222318   6.329   3.322   5.052 -0.4539  0.2960 -2.0216
 7452TIP3   OH222319   5.414   2.986   1.994  0.7179 -0.0289  0.4389
 7452TIP3    H122320   5.439   2.942   1.913 -1.9792 -1.5855  0.3057
 7452TIP3    H222321   5.484   2.966   2.055  1.5505 -1.0616 -0.8044
 7453TIP3   OH222322   5.889   6.741   5.010  0.1671  0.0413 -0.0245
 7453TIP3    H122323   5.876   6.793   4.931  1.7439  0.5619  0.0143
 7453TIP3    H222324   5.893   6.806   5.081  0.9718 -0.2059  0.1724
 7454TIP3   OH222325   6.068   4.161   2.552 -0.3752 -0.1727 -0.2424
 7454TIP3    H122326   6.125   4.125   2.484 -0.7905 -0.8953 -0.2162
 7454TIP3    H222327   6.116   4.146   2.634 -0.2945 -0.1358 -0.2818
 7455TIP3   OH222328   2.102   0.284   2.645  0.1807  0.0327  0.4893
 7455TIP3    H122329   2.114   0.369   2.603 -1.7277  0.3614  0.5167
 7455TIP3    H222330   2.119   0.221   2.575  1.1978  0.4175  0.3595
 7456TIP3   OH222331   2.633   3.497   0.123  0.0346  0.1728 -1.0413
 7456TIP3    H122332   2.687   3.476   0.047  0.6813  0.8944 -0.7929
 7456TIP3    H222333   2.644   3.592   0.135 -0.0947  0.0775 -0.0833
 7457TIP3   OH222334   1.905   6.277   2.432  0.1218 -0.4738  0.5676
 7457TIP3    H122335   1.841   6.213   2.400 -0.2564 -0.0233  0.3961
 7457TIP3    H222336   1.980   6.225   2.459 -0.0291 -0.9604  0.0726
 7458TIP3   OH222337   1.325   3.335   5.435  0.0310 -0.0454 -0.3647
 7458TIP3    H122338   1.354   3.247   5.411  1.2538 -0.1981  1.4535
 7458TIP3    H222339   1.394   3.393   5.403 -1.0487  0.3633 -2.0713
 7459TIP3   OH222340   4.654   1.952   2.616  0.4273  0.3971  0.0629
 7459TIP3    H122341   4.668   2.017   2.546  0.6762  0.3106  0.0309
 7459TIP3    H222342   4.724   1.969   2.678  0.5251  0.1231  0.0280
 7460TIP3   OH222343   2.990   4.012   4.702  0.3516 -0.1176 -0.2837
 7460TIP3    H122344   2.960   3.939   4.648 -1.7337  0.9192 -0.6004
 7460TIP3    H222345   3.042   3.970   4.771 -0.5808 -1.8673 -0.5806
 7461TIP3   OH222346   0.149   4.921   1.518  0.1052 -0.2339 -0.0699
 7461TIP3    H122347   0.103   4.894   1.438  2.1068  4.8338 -3.3973
 7461TIP3    H222348   0.239   4.892   1.504  0.6055  1.2561 -0.0611
 7462TIP3   OH222349   4.889   1.879   2.155  0.6386  0.2828 -0.0939
 7462TIP3    H122350   4.850   1.918   2.077  2.5087  0.3264 -1.0636
 7462TIP3    H222351   4.822   1.820   2.189 -0.2759  0.3752 -1.6640
 7463TIP3   OH222352   4.463   3.628   3.937 -0.0253  0.3216  0.3823
 7463TIP3    H122353   4.539   3.672   3.898  0.6879 -0.8592  0.3895
 7463TIP3    H222354   4.495   3.541   3.960 -2.0017 -1.1166 -1.8475
 7464TIP3   OH222355   3.177   0.234   0.654  0.5987 -0.1235  0.4368
 7464TIP3    H122356   3.155   0.141   0.661 -0.4738 -0.1201 -1.8610
 7464TIP3    H222357   3.099   0.273   0.614  1.9076  1.3440 -0.7654
 7465TIP3   OH222358   0.893   3.091   2.955  0.4075 -0.3756  0.4204
 7465TIP3    H122359   0.841   3.077   3.035 -2.2582 -0.4522 -1.1832
 7465TIP3    H222360   0.917   3.003   2.927  0.0172 -0.4652  0.3521
 7466TIP3   OH222361   4.169   4.370   1.598  0.2374  0.0108 -0.5964
 7466TIP3    H122362   4.107   4.441   1.614 -1.8865 -1.5315 -1.4730
 7466TIP3    H222363   4.207   4.351   1.684  0.3291  1.6807 -0.2246
 7467TIP3   OH222364   0.715   2.508   3.575  0.0454 -0.1654  0.6944
 7467TIP3    H122365   0.649   2.477   3.637  0.5477 -1.2432  0.7129
 7467TIP3    H222366   0.788   2.537   3.630  0.2047 -0.4447  0.6320
 7468TIP3   OH222367   2.744   3.282   0.535 -0.2829  0.6350 -0.1522
 7468TIP3    H122368   2.794   3.307   0.457  0.4277  2.4932  0.8300
 7468TIP3    H222369   2.805   3.297   0.608 -0.3042 -2.7028  0.7113
 7469TIP3   OH222370   3.288   0.214   4.811 -0.2601 -0.1600 -0.1491
 7469TIP3    H122371   3.208   0.168   4.786 -1.0141  0.0226  1.7268
 7469TIP3    H222372   3.260   0.277   4.878  1.2507  0.8344 -0.3802
 7470TIP3   OH222373   0.407   0.258   1.508 -0.1413  0.4233 -0.0450
 7470TIP3    H122374   0.422   0.184   1.567  1.6377 -0.4993 -1.5435
 7470TIP3    H222375   0.445   0.333   1.554  0.4618 -0.1150  0.3557
 7471TIP3   OH222376   4.275   0.466   3.157 -0.0654 -0.1542  0.3256
 7471TIP3    H122377   4.322   0.437   3.235 -1.2869  0.1810  1.2246
 7471TIP3    H222378   4.322   0.426   3.084  2.0799  0.8155  1.0981
 7472TIP3   OH222379   0.849   4.177   5.698 -0.1883  0.1675  0.4991
 7472TIP3    H122380   0.848   4.086   5.728 -0.3486 -0.5943 -1.6454
 7472TIP3    H222381   0.770   4.184   5.643  0.9347  0.9395 -1.0952
 7473TIP3   OH222382   6.810   0.930   2.780 -0.0478  0.1600 -0.3372
 7473TIP3    H122383   6.811   1.015   2.824 -0.4568  0.7305 -1.4025
 7473TIP3    H222384   6.898   0.922   2.741  0.4776 -0.5546  0.9271
 7474TIP3   OH222385   1.800   4.962   5.149  0.2466  0.1164  0.1589
 7474TIP3    H122386   1.875   4.924   5.104 -0.0118  1.2252 -1.3091
 7474TIP3    H222387   1.816   5.057   5.145 -2.0843  0.5208 -1.9170
 7475TIP3   OH222388   6.783   5.326   3.247  0.3272 -0.0020 -0.2888
 7475TIP3    H122389   6.781   5.338   3.342  1.3838  0.6012 -0.3250
 7475TIP3    H222390   6.815   5.410   3.213 -0.6241  0.0027 -1.2320
 7476TIP3   OH222391   5.304   4.011   2.375  0.1275  0.3018 -0.2419
 7476TIP3    H122392   5.264   3.931   2.340 -0.7184  1.3531 -1.8028
 7476TIP3    H222393   5.380   4.026   2.320 -0.6413  1.4297 -1.0432
 7477TIP3   OH222394   5.156   6.515   1.847 -0.6177 -0.0978  0.1072
 7477TIP3    H122395   5.068   6.534   1.813  0.1033  0.1126 -1.7360
 7477TIP3    H222396   5.202   6.474   1.774  0.9338  0.0975  0.9310
 7478TIP3   OH222397   4.046   2.266   5.344  0.5655 -0.8089 -0.0811
 7478TIP3    H122398   4.060   2.274   5.439 -1.4959  0.0454  0.2212
 7478TIP3    H222399   3.993   2.187   5.335 -1.0628  0.2517 -0.2349
 7479TIP3   OH222400   7.082   5.011   1.230  0.4779  0.3336  0.2663
 7479TIP3    H122401   7.008   4.995   1.289 -0.1643 -0.2247 -0.6791
 7479TIP3    H222402   7.115   4.924   1.209 -0.2701  0.4102 -1.3999
 7480TIP3   OH222403   3.105   2.856   3.453  0.1080  0.3601  0.2309
 7480TIP3    H122404   3.028   2.862   3.396  0.3088  0.1844 -0.0581
 7480TIP3    H222405   3.178   2.842   3.394  0.4863  1.4121  0.4347
 7481TIP3   OH222406   6.492   5.742   0.902  0.0283 -0.2541  0.4371
 7481TIP3    H122407   6.577   5.746   0.947  0.5695 -2.2036 -0.3168
 7481TIP3    H222408   6.451   5.827   0.921  2.7264  1.3510 -0.3446
 7482TIP3   OH222409   1.468   3.712   0.729 -0.2331  0.2412  0.1741
 7482TIP3    H122410   1.407   3.645   0.758  0.6182 -0.5022  0.2764
 7482TIP3    H222411   1.537   3.712   0.796  0.2616  0.5451 -0.3244
 7483TIP3   OH222412   3.355   1.733   1.467  0.0674  0.4743  0.0477
 7483TIP3    H122413   3.441   1.768   1.492  0.6978 -1.3806  0.5899
 7483TIP3    H222414   3.317   1.700   1.548 -1.2199  1.3267 -0.1757
 7484TIP3   OH222415   1.854   0.789   3.989 -0.2156 -0.0508 -0.6495
 7484TIP3    H122416   1.765   0.777   4.023 -0.3285  0.2708 -0.8339
 7484TIP3    H222417   1.859   0.730   3.914 -0.0189 -0.6418 -0.1912
 7485TIP3   OH222418   1.421   6.160   4.764 -0.1217 -0.1284 -0.4310
 7485TIP3    H122419   1.488   6.098   4.734  0.4660 -0.1481  0.8504
 7485TIP3    H222420   1.404   6.216   4.689 -0.7046 -1.8603 -1.6502
 7486TIP3   OH222421   3.701   5.294   0.758  0.3334 -0.0075  0.0431
 7486TIP3    H122422   3.704   5.276   0.664 -0.2273 -0.7570  0.1567
 7486TIP3    H222423   3.742   5.218   0.799 -0.0582 -0.0144  0.4341
 7487TIP3   OH222424   2.728   3.229   1.045 -0.4044 -0.0770  0.2520
 7487TIP3    H122425   2.674   3.158   1.078  0.6554 -0.6356  0.8424
 7487TIP3    H222426   2.671   3.277   0.985 -1.5743 -0.5702  0.9436
 7488TIP3   OH222427   6.344   5.631   0.154  0.1811  0.2773  0.1067
 7488TIP3    H122428   6.358   5.658   0.063 -1.6246  0.3850 -0.1696
 7488TIP3    H222429   6.336   5.536   0.150  0.6012  0.2341  0.2370
 7489TIP3   OH222430   4.984   1.577   4.818  0.2020 -0.4318 -0.3108
 7489TIP3    H122431   4.933   1.508   4.862  1.4707  0.2001  2.3671
 7489TIP3    H222432   4.918   1.632   4.776 -1.2396 -0.6649  1.4904
 7490TIP3   OH222433   2.815   5.148   5.368 -0.4024  0.1473 -0.1213
 7490TIP3    H122434   2.733   5.181   5.404 -0.4410  0.2211 -0.2790
 7490TIP3    H222435   2.818   5.056   5.397  1.0287  0.9504  2.7226
 7491TIP3   OH222436   4.719   2.121   4.477  0.1555  0.1005 -0.0714
 7491TIP3    H122437   4.804   2.078   4.485  1.8094  2.4398 -2.9453
 7491TIP3    H222438   4.699   2.152   4.565  1.4654 -1.8153  0.9765
 7492TIP3   OH222439   5.873   1.664   1.227 -0.6944  0.4164  0.8720
 7492TIP3    H122440   5.843   1.656   1.318 -0.7980  1.1125  0.9101
 7492TIP3    H222441   5.893   1.575   1.200 -0.7227  0.1954  1.5605
 7493TIP3   OH222442   5.734   1.667   2.753 -0.1533  0.4717 -0.0522
 7493TIP3    H122443   5.777   1.602   2.809  1.8037  1.9665  0.2773
 7493TIP3    H222444   5.675   1.715   2.811 -1.7052 -0.9932 -0.3211
 7494TIP3   OH222445   5.771   0.181   3.651  0.2019 -0.6715  0.3461
 7494TIP3    H122446   5.791   0.089   3.635 -1.7058 -1.0130 -0.3693
 7494TIP3    H222447   5.736   0.213   3.567  0.9812  0.7562  0.5333
 7495TIP3   OH222448   4.581   1.374   1.885  0.6777 -0.3060  0.5673
 7495TIP3    H122449   4.560   1.373   1.979  3.5656  1.3758  1.3720
 7495TIP3    H222450   4.600   1.283   1.864 -1.4498 -0.9418  1.1930
 7496TIP3   OH222451   4.979   1.134   3.552  0.4441  0.3791 -0.3732
 7496TIP3    H122452   4.900   1.130   3.606 -0.8175 -3.2626 -2.1886
 7496TIP3    H222453   4.957   1.196   3.482 -1.1990 -1.1852 -1.3056
 7497TIP3   OH222454   4.567   5.321   3.350 -0.2561  0.2904  0.8597
 7497TIP3    H122455   4.556   5.389   3.416  0.1379  0.2497  0.9697
 7497TIP3    H222456   4.599   5.245   3.399 -1.8333 -0.3621  0.9397
 7498TIP3   OH222457   4.780   4.780   0.669 -0.1232 -0.0197  0.1503
 7498TIP3    H122458   4.743   4.721   0.603 -1.0782 -1.9811  2.2786
 7498TIP3    H222459   4.852   4.824   0.624 -0.9126 -0.9875 -2.2589
 7499TIP3   OH222460   4.430   3.260   2.825 -0.3950 -0.0909 -0.3230
 7499TIP3    H122461   4.446   3.321   2.897  1.3541 -1.0704  0.1851
 7499TIP3    H222462   4.454   3.308   2.746 -0.5032  0.3687 -0.0797
 7500TIP3   OH222463   3.840   2.417   3.797  0.0368  0.1192  0.2082
 7500TIP3    H122464   3.909   2.384   3.855 -0.9092 -1.2873  0.5806
 7500TIP3    H222465   3.783   2.342   3.783  0.1114  0.4498 -2.3866
 7501TIP3   OH222466   4.739   2.892   2.308 -0.2533 -0.2123 -0.3700
 7501TIP3    H122467   4.767   2.931   2.391  1.2751  1.2959 -1.5359
 7501TIP3    H222468   4.793   2.814   2.299 -0.0418 -0.0870 -0.2059
 7502TIP3   OH222469   2.611   3.917   2.790  0.1535  0.1533 -0.0489
 7502TIP3    H122470   2.606   3.959   2.876 -0.5540  0.3977 -0.1997
 7502TIP3    H222471   2.683   3.855   2.798  0.4946  0.6094  0.5279
 7503TIP3   OH222472   3.332   4.711   0.680  0.4167 -0.1788 -0.3542
 7503TIP3    H122473   3.373   4.788   0.719  0.7862 -0.8633  0.6870
 7503TIP3    H222474   3.397   4.641   0.693  0.4242 -0.4993 -1.9882
 7504TIP3   OH222475   0.048   5.203   1.476 -0.1122  0.3820 -0.0059
 7504TIP3    H122476   0.085   5.120   1.505  0.2342  0.8137  0.8306
 7504TIP3    H222477  -0.033   5.179   1.430 -0.2329 -0.3888  0.5896
 7505TIP3   OH222478   7.121   0.888   4.465  0.1030  0.0285  0.0922
 7505TIP3    H122479   7.187   0.828   4.499 -0.1069 -0.4480 -0.3300
 7505TIP3    H222480   7.039   0.859   4.507 -0.0784 -0.2791 -0.4619
 7506TIP3   OH222481   6.161   1.225   0.869 -0.1116  0.0068 -0.0394
 7506TIP3    H122482   6.079   1.264   0.839  0.0298 -0.5423 -1.2172
 7506TIP3    H222483   6.150   1.131   0.853  0.5340 -0.1392  0.3175
 7507TIP3   OH222484   4.174   0.240   0.417 -0.1917 -0.1532 -0.0346
 7507TIP3    H122485   4.097   0.257   0.471  0.4182  1.8287  0.2974
 7507TIP3    H222486   4.162   0.295   0.340  1.3856  1.1172  0.5660
 7508TIP3   OH222487   1.263   2.496   5.523 -0.4863 -0.1480  0.3807
 7508TIP3    H122488   1.264   2.570   5.463 -0.0376 -0.5853 -0.1638
 7508TIP3    H222489   1.335   2.513   5.584  3.1257 -2.5189 -2.7732
 7509TIP3   OH222490   5.976   2.925   3.276  0.6192 -0.1140 -1.0224
 7509TIP3    H122491   6.023   2.854   3.233 -0.6821 -0.9228 -1.1524
 7509TIP3    H222492   6.043   2.991   3.293  1.2845  0.1143 -3.9464
 7510TIP3   OH222493   6.521   0.692   4.174 -0.4822  0.0565  0.3571
 7510TIP3    H122494   6.556   0.737   4.097 -1.0449 -0.4166 -0.1898
 7510TIP3    H222495   6.459   0.628   4.138 -1.1535  0.1905  1.2405
 7511TIP3   OH222496   3.537   6.025   2.630  0.7023  0.5836  0.0494
 7511TIP3    H122497   3.446   6.051   2.643  0.7263  0.2268  1.0001
 7511TIP3    H222498   3.582   6.051   2.710  1.1049 -0.6439  0.2534
 7512TIP3   OH222499   6.751   6.647   5.287  0.3103 -0.2833 -0.1146
 7512TIP3    H122500   6.678   6.705   5.310 -0.5319 -1.7349  1.0937
 7512TIP3    H222501   6.822   6.674   5.345  0.7296  1.0399 -1.1911
 7513TIP3   OH222502   7.020   5.471   2.356 -0.0670  0.1140 -0.1719
 7513TIP3    H122503   7.046   5.552   2.314 -0.2493  0.2626  0.0008
 7513TIP3    H222504   7.038   5.403   2.291  0.8160  0.1993 -0.0330
 7514TIP3   OH222505   5.283   0.799   2.266  0.3946 -0.0970  0.4425
 7514TIP3    H122506   5.352   0.745   2.306  0.4473  1.2272  2.2581
 7514TIP3    H222507   5.201   0.758   2.296  0.3755 -0.9470 -0.7127
 7515TIP3   OH222508   3.440   4.551   3.330 -0.2025 -0.0683  0.2462
 7515TIP3    H122509   3.391   4.517   3.255  0.5003 -0.0975 -0.2111
 7515TIP3    H222510   3.399   4.636   3.348 -0.3126 -0.0126 -0.2366
 7516TIP3   OH222511   4.032   0.246   2.921 -0.0670 -0.4591 -0.0955
 7516TIP3    H122512   4.087   0.184   2.970 -1.6104 -1.5403  0.3411
 7516TIP3    H222513   3.970   0.190   2.873 -0.6536  0.7190 -0.7475
 7517TIP3   OH222514   6.373   4.714   0.126 -0.3163 -0.4545  0.1621
 7517TIP3    H122515   6.293   4.746   0.168 -1.1281 -0.2640 -1.4583
 7517TIP3    H222516   6.429   4.791   0.118  0.4410 -0.7471  2.0819
 7518TIP3   OH222517   6.785   3.649   1.741  0.3875  0.0866  0.5120
 7518TIP3    H122518   6.712   3.669   1.683 -0.1508  2.1609  1.7933
 7518TIP3    H222519   6.842   3.593   1.688 -0.7305  0.7360 -1.5261
 7519TIP3   OH222520   1.570   3.848   2.842  0.0166  0.0605  0.1426
 7519TIP3    H122521   1.566   3.944   2.843 -0.7398  0.0415 -0.1704
 7519TIP3    H222522   1.659   3.828   2.815  0.3307  0.6753  0.7019
 7520TIP3   OH222523   5.988   3.336   5.249  0.3717 -0.2789 -0.3327
 7520TIP3    H122524   5.898   3.354   5.277  0.9137  0.8922  0.7185
 7520TIP3    H222525   6.038   3.412   5.277  1.8648 -1.2965 -0.1315
 7521TIP3   OH222526   2.220   4.620   1.414 -0.1745  0.1935 -0.1136
 7521TIP3    H122527   2.262   4.555   1.358  0.2037  0.0090  0.3732
 7521TIP3    H222528   2.137   4.640   1.371 -0.0599 -0.2317 -0.5309
 7522TIP3   OH222529   0.006   2.674   5.910 -0.4752 -0.0403  0.2458
 7522TIP3    H122530  -0.025   2.655   5.822 -0.5192 -1.3534  0.5238
 7522TIP3    H222531   0.102   2.679   5.900 -0.3980 -1.1377  0.2635
 7523TIP3   OH222532   7.078   5.711   5.086 -0.2290  0.4156 -0.2065
 7523TIP3    H122533   7.080   5.791   5.138  0.2516 -0.6464  1.4773
 7523TIP3    H222534   7.136   5.728   5.012  0.2645  1.4487  0.4069
 7524TIP3   OH222535   5.137   3.070   3.608  0.6827 -0.1113 -0.1162
 7524TIP3    H122536   5.043   3.059   3.596  0.3742  1.1381  0.9544
 7524TIP3    H222537   5.159   3.011   3.681  1.0883 -1.7230 -1.4848
 7525TIP3   OH222538   2.938   2.730   1.679  0.0539  0.4752  0.5212
 7525TIP3    H122539   2.991   2.766   1.608 -0.9206  1.1126  0.0996
 7525TIP3    H222540   2.959   2.637   1.679  0.8108  0.6354  0.0461
 7526TIP3   OH222541   1.346   5.844   5.131 -0.0530  0.5249  0.0502
 7526TIP3    H122542   1.410   5.781   5.166 -0.3457  0.9065  1.3415
 7526TIP3    H222543   1.293   5.868   5.207 -0.3955  1.7879 -0.5643
 7527TIP3   OH222544   3.912   0.076   1.419 -0.3302 -0.9721  0.5450
 7527TIP3    H122545   3.977   0.097   1.352 -1.3274  0.2689 -0.0629
 7527TIP3    H222546   3.838   0.132   1.400 -1.0565 -1.3491  2.0729
 7528TIP3   OH222547   1.472   1.669   3.233 -0.4271 -0.4773 -0.4792
 7528TIP3    H122548   1.495   1.694   3.143  1.3302  1.1247  0.3480
 7528TIP3    H222549   1.377   1.656   3.231 -0.3110 -1.4397 -2.7647
 7529TIP3   OH222550   4.418   5.236   2.336 -0.0693 -0.9409 -0.1704
 7529TIP3    H122551   4.486   5.210   2.398 -0.9359  1.7490  2.1189
 7529TIP3    H222552   4.339   5.245   2.389 -1.1704  0.2576 -1.9018
 7530TIP3   OH222553   5.785   0.720   4.892  0.7147 -0.1105 -0.2942
 7530TIP3    H122554   5.764   0.744   4.802  1.8096 -0.0799 -0.5585
 7530TIP3    H222555   5.770   0.801   4.942  0.0211 -0.1524 -0.4292
 7531TIP3   OH222556   2.144   4.581   0.305  0.5779 -0.6058  0.2110
 7531TIP3    H122557   2.088   4.566   0.229 -0.3311  0.7209  0.5800
 7531TIP3    H222558   2.089   4.632   0.365  1.5643 -0.8896  1.3959
 7532TIP3   OH222559   4.143   5.269   1.652  0.4385  0.1338  0.0764
 7532TIP3    H122560   4.193   5.187   1.648 -0.7182 -0.6713  1.1946
 7532TIP3    H222561   4.198   5.328   1.704  0.5649 -0.5036  0.6836
 7533TIP3   OH222562   0.161   1.403   0.340  0.1977 -0.1651  0.2778
 7533TIP3    H122563   0.129   1.389   0.251 -0.7256 -0.3301  0.6300
 7533TIP3    H222564   0.094   1.456   0.382 -0.3921 -1.7731  1.4818
 7534TIP3   OH222565   6.428   4.436   0.197 -0.9737 -0.5306  0.2601
 7534TIP3    H122566   6.403   4.524   0.170 -0.4991  0.2785  2.2830
 7534TIP3    H222567   6.505   4.416   0.144  0.7290  1.5430  1.7528
 7535TIP3   OH222568   5.640   5.702   2.879  0.4959 -0.0533 -0.4275
 7535TIP3    H122569   5.634   5.745   2.793 -0.5401 -0.1746 -0.4250
 7535TIP3    H222570   5.733   5.709   2.902  0.7948 -0.0273 -1.5606
 7536TIP3   OH222571   5.246   0.340   1.346 -0.0476  0.1167 -0.0163
 7536TIP3    H122572   5.298   0.328   1.266  0.5855 -0.3513  0.4498
 7536TIP3    H222573   5.253   0.256   1.391 -0.0271  0.5210  0.7499
 7537TIP3   OH222574   3.927   2.179   1.616 -0.2337 -0.3460 -0.2596
 7537TIP3    H122575   3.900   2.102   1.665 -0.1146 -0.1303  0.1441
 7537TIP3    H222576   3.966   2.237   1.681 -2.0308  0.8882 -0.2174
 7538TIP3   OH222577   6.099   6.407   1.886  0.5726 -0.6827  0.5652
 7538TIP3    H122578   6.106   6.349   1.961  2.0732 -0.2579  0.7711
 7538TIP3    H222579   6.065   6.351   1.816 -0.4966 -1.1659  1.4250
 7539TIP3   OH222580   6.367   4.262   4.635 -0.2624 -0.2276  0.3596
 7539TIP3    H122581   6.360   4.182   4.583  0.7990 -1.5908  2.2155
 7539TIP3    H222582   6.276   4.287   4.652 -0.6592 -2.0033  1.1173
 7540TIP3   OH222583   3.930   6.738   1.985  0.7897  0.4331  0.3214
 7540TIP3    H122584   3.991   6.702   1.920 -0.9002 -0.7543 -0.6847
 7540TIP3    H222585   3.918   6.667   2.048 -0.3232  0.2561 -0.0687
 7541TIP3   OH222586   3.090   6.166   0.359 -0.0571 -0.2844 -0.0352
 7541TIP3    H122587   3.172   6.214   0.349  0.0316 -0.2595  0.7262
 7541TIP3    H222588   3.029   6.230   0.396 -0.0351 -0.6586  0.6633
 7542TIP3   OH222589   1.477   4.372   1.670  0.0119 -0.9846  0.3757
 7542TIP3    H122590   1.538   4.436   1.633 -0.6635 -0.6795 -0.2546
 7542TIP3    H222591   1.520   4.339   1.748 -0.2505  1.3778  1.6135
 7543TIP3   OH222592   3.845   0.963   0.955  0.3720  0.0740  0.0909
 7543TIP3    H122593   3.785   0.899   0.916 -0.0945 -0.1735  1.1762
 7543TIP3    H222594   3.814   1.048   0.922 -0.0283 -0.1256 -0.0526
 7544TIP3   OH222595   4.731   5.857   2.871  0.6319  0.1424  0.5205
 7544TIP3    H122596   4.818   5.860   2.910  1.7883  2.3513 -1.9146
 7544TIP3    H222597   4.676   5.906   2.933  1.1003 -1.0218  1.9356
 7545TIP3   OH222598   3.403   0.528   2.413  0.2821  0.1648 -0.1640
 7545TIP3    H122599   3.340   0.526   2.340  0.0730 -2.7583 -0.0063
 7545TIP3    H222600   3.360   0.582   2.480 -1.7879 -1.1267 -0.3510
 7546TIP3   OH222601   0.899   1.315   2.966 -0.0021 -0.2627 -0.0621
 7546TIP3    H122602   0.912   1.223   2.943  0.4818 -0.5722  1.3606
 7546TIP3    H222603   0.815   1.316   3.012  1.2260 -0.5207  2.3770
 7547TIP3   OH222604   4.819   1.555   1.377 -0.0829  0.1577 -0.4135
 7547TIP3    H122605   4.804   1.550   1.472 -2.2529 -2.2293 -0.7668
 7547TIP3    H222606   4.862   1.639   1.364 -2.2387  1.8798  2.3963
 7548TIP3   OH222607   5.921   2.624   0.605 -0.1996 -0.6418 -0.1717
 7548TIP3    H122608   6.017   2.625   0.608 -0.1386 -1.2607 -1.4225
 7548TIP3    H222609   5.896   2.716   0.611  0.4573 -0.4881  0.3891
 7549TIP3   OH222610   0.604   1.786   5.503  0.2933  0.1203 -0.2011
 7549TIP3    H122611   0.643   1.871   5.527  1.2637 -0.4228  0.1940
 7549TIP3    H222612   0.661   1.721   5.545 -0.9645 -0.7108  0.2677
 7550TIP3   OH222613   4.286   4.734   0.095 -0.7885 -0.1165  0.3214
 7550TIP3    H122614   4.236   4.804   0.138  0.4913  0.8799  0.2245
 7550TIP3    H222615   4.295   4.763   0.004  0.9358  0.2898  0.5900
 7551TIP3   OH222616   4.968   4.243   1.790 -0.0977 -0.0168 -0.4447
 7551TIP3    H122617   4.931   4.156   1.776 -3.3948  1.0283  0.9071
 7551TIP3    H222618   4.987   4.276   1.702 -0.1825 -1.5262 -1.0514
 7552TIP3   OH222619   4.135   0.416   0.197  0.6967  0.4744 -0.3067
 7552TIP3    H122620   4.104   0.412   0.106  1.2521  0.7864 -0.5219
 7552TIP3    H222621   4.211   0.475   0.193  1.6777 -0.7195  0.0914
 7553TIP3   OH222622   2.747   1.213   5.128 -0.2221 -0.2722  0.0144
 7553TIP3    H122623   2.825   1.262   5.100 -0.0354 -1.4514 -1.6793
 7553TIP3    H222624   2.770   1.181   5.215  0.6389  0.5252  0.1099
 7554TIP3   OH222625   4.548   0.029   0.505  0.5060  0.0796  0.0820
 7554TIP3    H122626   4.602  -0.046   0.530 -0.9686 -1.0197  0.0866
 7554TIP3    H222627   4.580   0.053   0.417 -0.1234 -1.6868 -0.6750
 7555TIP3   OH222628   3.680   1.168   2.338 -0.4330 -0.2708 -0.8699
 7555TIP3    H122629   3.685   1.080   2.375 -1.0811 -0.6088 -1.5729
 7555TIP3    H222630   3.589   1.195   2.351 -0.3741  0.0714 -1.1534
 7556TIP3   OH222631   1.065   4.177   2.213  0.0578 -0.2195 -0.1250
 7556TIP3    H122632   1.117   4.113   2.165  0.6287 -0.0160  0.2224
 7556TIP3    H222633   1.069   4.257   2.160  1.5064  0.3037  0.7311
 7557TIP3   OH222634   0.425   4.033   3.889 -0.3904  0.3380 -0.0755
 7557TIP3    H122635   0.447   4.099   3.824  0.5986  0.3312  0.2404
 7557TIP3    H222636   0.365   4.078   3.949 -0.2986  0.7289 -0.2755
 7558TIP3   OH222637   3.937   3.426   4.098 -0.3033 -0.0988  0.4064
 7558TIP3    H122638   3.939   3.364   4.025  0.6609 -0.3508  0.6437
 7558TIP3    H222639   3.933   3.372   4.176 -0.9133  0.1679  0.5668
 7559TIP3   OH222640   3.508   1.671   3.770  0.1467 -0.1075  0.0955
 7559TIP3    H122641   3.595   1.661   3.809 -0.0139  0.5643  0.6356
 7559TIP3    H222642   3.493   1.765   3.768 -0.5182 -0.2131 -0.1131
 7560TIP3   OH222643   1.193   5.606   2.064  0.0285  1.0044 -0.3867
 7560TIP3    H122644   1.147   5.556   1.996 -2.2288  2.3690  0.0522
 7560TIP3    H222645   1.192   5.548   2.140  0.8095  0.2536 -0.9302
 7561TIP3   OH222646   0.616   2.529   4.284  0.4880  0.4767  0.5972
 7561TIP3    H122647   0.532   2.566   4.259  0.8553  0.4486 -0.7384
 7561TIP3    H222648   0.596   2.472   4.359 -0.7339  0.2215  0.0950
 7562TIP3   OH222649   2.806   0.570   5.619 -0.4612  0.0794 -0.3244
 7562TIP3    H122650   2.731   0.551   5.675 -0.7015  0.6724 -0.4452
 7562TIP3    H222651   2.772   0.562   5.530  0.1464 -1.8504 -0.4478
 7563TIP3   OH222652   5.268   3.488   5.895  0.0345 -0.3223  0.2701
 7563TIP3    H122653   5.201   3.437   5.941  0.0531 -0.0112  0.6488
 7563TIP3    H222654   5.224   3.522   5.817 -0.3677  0.2084  0.7201
 7564TIP3   OH222655   1.909   1.653   4.106  0.0246  0.2812 -0.1237
 7564TIP3    H122656   1.888   1.633   4.015 -1.4428  1.0352  0.0240
 7564TIP3    H222657   1.979   1.592   4.128  1.9950  1.5710 -2.4149
 7565TIP3   OH222658   1.846   0.983   5.335  0.4987 -0.0324 -0.2724
 7565TIP3    H122659   1.804   0.897   5.334 -1.3340  0.8199 -1.6707
 7565TIP3    H222660   1.810   1.029   5.259  2.9022  1.3122 -0.7205
 7566TIP3   OH222661   5.594   0.439   3.954 -0.3746  0.1491 -0.5233
 7566TIP3    H122662   5.577   0.460   4.046 -1.3046 -0.3380 -0.5709
 7566TIP3    H222663   5.574   0.520   3.907 -2.7071 -0.3811 -0.5687
 7567TIP3   OH222664   0.523   4.553   4.174  0.5503  0.7149 -0.1428
 7567TIP3    H122665   0.593   4.531   4.235 -1.2769  1.7074  2.5267
 7567TIP3    H222666   0.454   4.490   4.194  0.0181  0.8432 -1.4883
 7568TIP3   OH222667   6.107   5.337   5.898 -0.7880  0.5012 -0.1877
 7568TIP3    H122668   6.106   5.429   5.870 -1.8645  0.6785  0.3811
 7568TIP3    H222669   6.101   5.287   5.817  0.2744  0.9034 -0.5420
 7569TIP3   OH222670   0.730   4.742   0.807 -0.1383  0.1978  0.8756
 7569TIP3    H122671   0.761   4.761   0.895  1.5854 -0.1517  0.3747
 7569TIP3    H222672   0.676   4.818   0.783  1.2923  1.3999  1.3616
 7570TIP3   OH222673   6.180   1.357   4.906 -0.0378  0.0460  0.0299
 7570TIP3    H122674   6.253   1.308   4.868  0.0883  0.3089 -0.0657
 7570TIP3    H222675   6.215   1.445   4.920 -0.9667  0.8066 -2.0182
 7571TIP3   OH222676   4.669   0.390   1.203 -0.1145 -0.4703  0.2522
 7571TIP3    H122677   4.579   0.358   1.210 -0.5397  0.4672 -0.6247
 7571TIP3    H222678   4.699   0.358   1.118  0.6557 -1.3972  0.8521
 7572TIP3   OH222679   5.597   6.086   2.940  0.2409 -0.3229  0.2486
 7572TIP3    H122680   5.652   6.029   2.994 -0.9104 -0.2972  1.5079
 7572TIP3    H222681   5.604   6.172   2.980  0.8939  0.1460 -0.8330
 7573TIP3   OH222682   3.254   4.603   2.683  0.0307 -0.0606  0.3510
 7573TIP3    H122683   3.241   4.690   2.644  0.5750 -0.2783 -0.3389
 7573TIP3    H222684   3.344   4.604   2.713  0.4465 -0.8044 -0.7957
 7574TIP3   OH222685   1.123   3.068   1.110  0.2779  0.5093  0.5315
 7574TIP3    H122686   1.189   3.133   1.084  0.1471  0.1364 -0.8192
 7574TIP3    H222687   1.040   3.115   1.110  0.0144  0.1667 -1.5287
 7575TIP3   OH222688   6.230   4.033   1.337 -0.0585 -0.6094  0.3049
 7575TIP3    H122689   6.197   4.063   1.253  0.7654  0.9202  0.4945
 7575TIP3    H222690   6.173   4.074   1.402  0.3876 -0.3466  0.5365
 7576TIP3   OH222691   1.026   5.397   5.212 -0.0153 -0.1804  0.1355
 7576TIP3    H122692   1.081   5.460   5.166 -0.6859  0.3234  0.0069
 7576TIP3    H222693   0.950   5.448   5.240 -1.3322 -1.2232 -1.3315
 7577TIP3   OH222694   1.277   2.104   2.567 -0.3784  0.4093  0.1835
 7577TIP3    H122695   1.198   2.157   2.558 -0.6526  0.1596  0.9953
 7577TIP3    H222696   1.251   2.016   2.539 -0.0136  0.6169 -0.8432
 7578TIP3   OH222697   0.115   3.249   5.067  0.0898 -0.3310 -0.5778
 7578TIP3    H122698   0.073   3.271   5.150 -0.4190 -2.1737 -0.3136
 7578TIP3    H222699   0.165   3.169   5.086  0.4597 -0.4343 -1.9000
 7579TIP3   OH222700   4.516   2.311   5.842  0.3080  0.0501  0.1421
 7579TIP3    H122701   4.596   2.347   5.880 -0.0001  2.0808 -0.9841
 7579TIP3    H222702   4.527   2.323   5.748 -1.3897  0.6033 -0.0208
 7580TIP3   OH222703   4.007   1.393   2.579  0.5791  0.0820 -0.1911
 7580TIP3    H122704   4.069   1.406   2.651  2.3245  1.3827 -1.8046
 7580TIP3    H222705   4.024   1.304   2.548  0.8380  0.0243  0.1116
 7581TIP3   OH222706   0.141   0.247   1.462  0.1437 -0.4051  0.2903
 7581TIP3    H122707   0.232   0.250   1.493  1.2854  0.4762 -2.7987
 7581TIP3    H222708   0.133   0.162   1.420 -1.2626 -1.4348  2.4683
 7582TIP3   OH222709   4.114   0.103   5.132 -0.2380  0.8607 -0.2869
 7582TIP3    H122710   4.178   0.165   5.097 -0.6664  2.0214  0.9205
 7582TIP3    H222711   4.168   0.037   5.176  0.2151  0.3515 -1.5248
 7583TIP3   OH222712   6.155   4.416   2.569  0.1463 -0.1141 -0.3563
 7583TIP3    H122713   6.080   4.472   2.549  0.4500  0.7254  0.7359
 7583TIP3    H222714   6.118   4.328   2.577 -0.7353  0.2942  0.2113
 7584TIP3   OH222715   3.831   6.699   2.326  0.0577 -0.4104 -0.3807
 7584TIP3    H122716   3.759   6.636   2.339  0.2291 -0.6693 -0.6835
 7584TIP3    H222717   3.902   6.647   2.288  0.1480 -0.0020 -0.7786
 7585TIP3   OH222718   2.921   3.336   0.042  0.3420  0.2454  0.8904
 7585TIP3    H122719   2.942   3.249   0.008 -0.8682 -0.8345  2.7294
 7585TIP3    H222720   2.928   3.394  -0.034  0.3209 -1.5983 -0.5915
 7586TIP3   OH222721   4.917   4.734   2.180  0.2205 -0.2243  0.2844
 7586TIP3    H122722   4.944   4.643   2.163 -0.9344 -0.4417 -0.5122
 7586TIP3    H222723   4.999   4.783   2.183  0.9224 -1.3839  1.3816
 7587TIP3   OH222724   5.800   3.882   0.084  0.0409  0.5082  0.0722
 7587TIP3    H122725   5.811   3.788   0.100 -0.3202  0.0993 -1.9042
 7587TIP3    H222726   5.889   3.915   0.072  0.4293  0.9965  3.2975
 7588TIP3   OH222727   3.134   5.301   3.606  0.1594  0.3003 -0.2030
 7588TIP3    H122728   3.044   5.272   3.591  0.5157 -1.3911  0.7095
 7588TIP3    H222729   3.141   5.382   3.556 -1.3792 -0.3600 -1.5944
 7589TIP3   OH222730   3.716   5.498   5.086 -0.5705 -0.1943 -0.0842
 7589TIP3    H122731   3.798   5.510   5.134 -0.6190  1.0508 -0.2796
 7589TIP3    H222732   3.664   5.440   5.140  0.6632 -1.4986 -0.2315
 7590TIP3   OH222733   5.966   2.950  -0.008  0.4984 -0.2060  0.2478
 7590TIP3    H122734   5.872   2.970  -0.003  0.6360  0.2754  1.0209
 7590TIP3    H222735   6.000   2.969   0.079  0.9768 -2.2630  0.5415
 7591TIP3   OH222736   7.146   1.098   1.229 -0.2538  0.0607  0.2633
 7591TIP3    H122737   7.083   1.160   1.264  1.2096  2.5989 -1.2798
 7591TIP3    H222738   7.142   1.110   1.134  1.8831 -0.3386  0.0687
 7592TIP3   OH222739   2.379   1.488   3.461 -0.3516  0.4286  0.0141
 7592TIP3    H122740   2.472   1.505   3.447  0.0226 -0.0325  1.6931
 7592TIP3    H222741   2.339   1.500   3.375  1.4991 -1.0378 -1.1239
 7593TIP3   OH222742   4.307   0.051   3.515 -0.0634 -0.0710  0.2428
 7593TIP3    H122743   4.283  -0.041   3.529 -0.2985 -0.0298  0.1219
 7593TIP3    H222744   4.267   0.073   3.431  1.4001 -0.3319 -0.5515
 7594TIP3   OH222745   3.652   3.133   0.948 -0.2019 -0.1820 -0.3224
 7594TIP3    H122746   3.580   3.196   0.943  0.2110  0.8293  3.2431
 7594TIP3    H222747   3.612   3.054   0.986  0.4686  0.4053  1.7327
 7595TIP3   OH222748   3.210   1.222   3.187  0.4901  0.5493 -0.1477
 7595TIP3    H122749   3.222   1.317   3.182  0.5169  0.5125 -0.7986
 7595TIP3    H222750   3.116   1.210   3.199  0.3572  0.6276 -1.0602
 7596TIP3   OH222751   0.231   2.368   2.401  0.0304 -0.3826  0.4080
 7596TIP3    H122752   0.268   2.362   2.313 -1.9362 -0.2581 -0.4978
 7596TIP3    H222753   0.242   2.460   2.425  0.8870 -0.4917  0.4493
 7597TIP3   OH222754   5.202   6.240   1.916 -0.5132  0.5794 -0.3069
 7597TIP3    H122755   5.213   6.329   1.952  3.1249  0.0735  0.2966
 7597TIP3    H222756   5.242   6.244   1.829  1.9128 -0.8765  0.6354
 7598TIP3   OH222757   7.136   6.694   5.248  0.0226  0.2417 -0.2705
 7598TIP3    H122758   7.104   6.660   5.332 -0.3849  0.7401 -0.2191
 7598TIP3    H222759   7.063   6.744   5.213 -0.4042 -1.3022 -1.7068
 7599TIP3   OH222760   4.834   1.969   5.272  0.2452 -0.2980  0.1762
 7599TIP3    H122761   4.910   2.004   5.319 -0.6571  2.3141 -0.1199
 7599TIP3    H222762   4.768   2.039   5.279 -1.5490 -1.7849 -0.9937
 7600TIP3   OH222763   1.803   4.959   0.080 -0.6919 -0.0036 -0.6101
 7600TIP3    H122764   1.731   4.906   0.113 -0.5029  0.3870  0.4785
 7600TIP3    H222765   1.771   5.049   0.085 -0.9242  0.0227 -2.2151
 7601TIP3   OH222766   1.320   3.938   5.429 -0.1984  0.2160 -0.0081
 7601TIP3    H122767   1.371   4.001   5.379  0.5201 -0.1339  0.2828
 7601TIP3    H222768   1.263   3.993   5.484 -0.1148  0.6047 -0.3026
 7602TIP3   OH222769   3.850   3.733   3.602 -0.2131  0.3914  0.2829
 7602TIP3    H122770   3.938   3.770   3.591  0.2318 -0.9305 -0.8796
 7602TIP3    H222771   3.865   3.649   3.645 -0.8547 -0.1118 -0.4714
 7603TIP3   OH222772   2.427   4.880   1.902 -0.6464  0.0995 -0.0858
 7603TIP3    H122773   2.455   4.792   1.875  0.2869  0.3529  0.0131
 7603TIP3    H222774   2.480   4.939   1.847  2.3290  0.6798  3.0503
 7604TIP3   OH222775   2.722   0.287   0.558 -0.1437 -0.0050  0.1571
 7604TIP3    H122776   2.801   0.325   0.596 -1.4433  1.3871  1.6404
 7604TIP3    H222777   2.663   0.361   0.545 -1.7505 -1.1588  0.4719
 7605TIP3   OH222778   5.592   6.319   3.112  0.5041 -0.0458  0.3980
 7605TIP3    H122779   5.645   6.335   3.190 -1.1515  1.0704  1.3550
 7605TIP3    H222780   5.585   6.404   3.069 -2.1265  0.3590  1.4187
 7606TIP3   OH222781   1.590   1.502   4.657 -0.5255 -0.1139  0.3116
 7606TIP3    H122782   1.553   1.544   4.735  0.6147 -0.0052  0.8152
 7606TIP3    H222783   1.545   1.543   4.583 -2.7173 -1.2454  0.9030
 7607TIP3   OH222784   2.777   4.347   1.241  0.5281 -0.4826 -0.1151
 7607TIP3    H122785   2.713   4.283   1.211  0.8870 -0.0250 -1.9682
 7607TIP3    H222786   2.740   4.432   1.215  1.3971 -0.1424 -0.2699
 7608TIP3   OH222787   4.560   4.079   0.972  0.3242 -0.4637 -0.0421
 7608TIP3    H122788   4.503   4.067   0.896  0.4297 -0.0993 -0.1820
 7608TIP3    H222789   4.647   4.095   0.935  0.2146  0.5793  0.1293
 7609TIP3   OH222790   4.500   6.775   0.426 -0.2706  0.2016  0.4469
 7609TIP3    H122791   4.574   6.812   0.474  0.9615 -0.4769 -0.8721
 7609TIP3    H222792   4.524   6.684   0.409 -0.7806  0.3319 -1.1792
 7610TIP3   OH222793   2.526   5.565   4.154  0.4999 -0.3865 -0.4433
 7610TIP3    H122794   2.605   5.560   4.208 -0.3062 -0.3035  0.8035
 7610TIP3    H222795   2.465   5.506   4.198 -1.1023  1.7349  0.3644
 7611TIP3   OH222796   5.601   1.386   4.983 -0.3122  0.0674 -0.1169
 7611TIP3    H122797   5.675   1.430   5.025  1.1445 -1.1181 -1.3531
 7611TIP3    H222798   5.605   1.296   5.015  0.4133 -0.6849 -2.1673
 7612TIP3   OH222799   4.592   6.693   0.878 -0.1634 -0.3265  0.1312
 7612TIP3    H122800   4.631   6.780   0.883 -0.3419 -0.2648  0.5571
 7612TIP3    H222801   4.657   6.639   0.833  0.6244 -0.3392  1.2296
 7613TIP3   OH222802   2.357   6.615   3.558  0.0637  0.3321  0.0297
 7613TIP3    H122803   2.269   6.594   3.590 -0.5165 -0.6345 -2.0634
 7613TIP3    H222804   2.355   6.709   3.542 -0.5450  0.3344  0.1076
 7614TIP3   OH222805   4.367   6.765   2.588 -0.1343 -0.1718 -0.1154
 7614TIP3    H122806   4.412   6.845   2.613  0.4819 -0.7932  0.8324
 7614TIP3    H222807   4.280   6.773   2.628 -0.2617  0.2488 -0.4698
 7615TIP3   OH222808   0.278   3.115   4.071  0.0911 -0.3606  0.3132
 7615TIP3    H122809   0.276   3.153   3.984  1.1661  0.2145  0.5235
 7615TIP3    H222810   0.309   3.186   4.128 -1.7721 -0.3324  1.3897
 7616TIP3   OH222811   1.690   6.214   3.577  0.2861 -0.1349 -0.3475
 7616TIP3    H122812   1.654   6.295   3.540  1.5078  1.5954  2.0000
 7616TIP3    H222813   1.692   6.153   3.503 -0.3889  2.0461 -2.2955
 7617TIP3   OH222814   4.674   6.122   2.473  0.1695  0.7445 -0.4964
 7617TIP3    H122815   4.675   6.048   2.412  0.7540  0.9363 -0.7266
 7617TIP3    H222816   4.734   6.097   2.543  0.2629  0.9449 -0.5039
 7618TIP3   OH222817   1.207   6.307   2.425  0.1749 -0.2935 -0.8992
 7618TIP3    H122818   1.249   6.279   2.344  0.3076 -2.0511 -0.2724
 7618TIP3    H222819   1.272   6.289   2.493 -0.4177 -0.0756 -0.2645
 7619TIP3   OH222820   6.723   5.780   5.560  0.5185  0.0626  0.8237
 7619TIP3    H122821   6.769   5.756   5.480 -0.2799 -1.2719  0.7342
 7619TIP3    H222822   6.668   5.855   5.535 -1.0169 -1.3903 -0.3766
 7620TIP3   OH222823   6.409   1.574   1.194  0.5505  0.0368  0.5170
 7620TIP3    H122824   6.390   1.536   1.108 -1.3375  1.4831  0.2002
 7620TIP3    H222825   6.500   1.551   1.212  1.2062  0.2005 -2.1661
 7621TIP3   OH222826   1.655   5.211   0.078  0.4708  0.1091 -0.3201
 7621TIP3    H122827   1.560   5.208   0.063  0.6411  0.9927 -1.7099
 7621TIP3    H222828   1.663   5.244   0.167 -0.5268 -1.5030  0.4356
 7622TIP3   OH222829   4.754   0.216   0.989 -0.5818 -0.1574  0.0097
 7622TIP3    H122830   4.817   0.145   0.999 -0.3903  0.2367  1.8425
 7622TIP3    H222831   4.672   0.179   1.023  0.4737  1.7755  5.5562
 7623TIP3   OH222832   4.483   0.503   1.579 -0.1504  0.7845  0.2352
 7623TIP3    H122833   4.524   0.551   1.651  0.2106  0.6121  0.1458
 7623TIP3    H222834   4.556   0.475   1.524 -0.2679 -0.6458  0.7592
 7624TIP3   OH222835   6.833   0.357   3.894  0.0087 -0.4062  0.1138
 7624TIP3    H122836   6.918   0.313   3.891  1.5456  2.3744 -1.3076
 7624TIP3    H222837   6.854   0.447   3.918 -2.5538  0.3837 -0.3195
 7625TIP3   OH222838   6.338   5.571   4.494 -0.3533 -0.0253  0.3976
 7625TIP3    H122839   6.267   5.580   4.431 -0.3001  0.0204  0.3437
 7625TIP3    H222840   6.359   5.477   4.493 -1.2846 -0.2567  1.3731
 7626TIP3   OH222841   6.772   0.485   1.114 -0.0857 -0.7787 -0.1921
 7626TIP3    H122842   6.692   0.442   1.082 -0.3639  0.5684 -1.3975
 7626TIP3    H222843   6.741   0.548   1.179  0.0915 -0.7976 -0.0884
 7627TIP3   OH222844   0.949   2.251   5.875  0.0181  0.4534 -0.1790
 7627TIP3    H122845   0.853   2.252   5.868  0.0513  1.0263 -0.6122
 7627TIP3    H222846   0.972   2.341   5.897  0.4768  0.3830 -0.3642
 7628TIP3   OH222847   0.426   5.860   0.632 -0.2185 -0.0211  0.0694
 7628TIP3    H122848   0.372   5.794   0.677 -0.0677  0.3956  0.8858
 7628TIP3    H222849   0.456   5.918   0.702  2.1556 -0.8303 -0.1893
 7629TIP3   OH222850   2.716   2.485   0.623 -0.5993 -0.4414  0.1425
 7629TIP3    H122851   2.635   2.519   0.661 -1.0395 -1.1889 -0.1188
 7629TIP3    H222852   2.785   2.526   0.675 -1.0643  1.5868 -0.7151
 7630TIP3   OH222853   2.082   6.431   5.439  0.1076 -0.1750 -0.4102
 7630TIP3    H122854   2.018   6.503   5.433  0.3341  0.0336 -0.3643
 7630TIP3    H222855   2.074   6.399   5.529 -0.8770 -1.0412 -0.7862
 7631TIP3   OH222856   0.188   1.303   4.333 -0.2934  0.6054 -0.0128
 7631TIP3    H122857   0.184   1.313   4.428  0.4280 -0.5232  0.1594
 7631TIP3    H222858   0.108   1.255   4.310  0.9615 -1.9192  0.4788
 7632TIP3   OH222859   0.679   6.626   3.528  0.4534 -0.4530  0.1308
 7632TIP3    H122860   0.677   6.722   3.533  1.9755 -0.4081  0.6432
 7632TIP3    H222861   0.588   6.599   3.537 -0.0683  0.9653 -0.5597
 7633TIP3   OH222862   0.576   6.140   0.376 -0.1602 -0.1164  0.1850
 7633TIP3    H122863   0.501   6.115   0.321 -0.0584  0.7382 -0.3682
 7633TIP3    H222864   0.649   6.089   0.342  0.1242  1.1120 -1.1602
 7634TIP3   OH222865   0.829   4.288   0.262  0.1987 -0.3824  0.1455
 7634TIP3    H122866   0.824   4.221   0.331 -0.1451 -1.6128 -1.0236
 7634TIP3    H222867   0.744   4.332   0.267 -0.5947 -1.7327 -0.6751
 7635TIP3   OH222868   0.684   3.058   1.206  0.2114 -0.5746  0.3082
 7635TIP3    H122869   0.745   2.989   1.180 -0.9705 -2.2719  1.8231
 7635TIP3    H222870   0.617   3.013   1.257 -2.0736  1.2842 -0.8470
 7636TIP3   OH222871   5.943   3.129   2.631 -0.4525  0.1122  0.4244
 7636TIP3    H122872   5.943   3.186   2.554  1.9943 -2.6279 -1.8482
 7636TIP3    H222873   5.996   3.176   2.695  2.1027  0.2563 -1.6082
 7637TIP3   OH222874   6.162   0.578   2.911  1.0006 -0.1998 -0.0123
 7637TIP3    H122875   6.173   0.616   2.999  0.2901 -0.2742  0.1153
 7637TIP3    H222876   6.220   0.630   2.856  0.9153  0.3240  0.3762
 7638TIP3   OH222877   5.099   3.778   3.278 -0.7002 -0.5109  0.3327
 7638TIP3    H122878   5.036   3.763   3.349 -0.0000 -0.6693  0.9319
 7638TIP3    H222879   5.176   3.728   3.304  1.1569  2.7326  1.5858
 7639TIP3   OH222880   0.371   4.787   1.408 -0.2233 -0.0728  0.0164
 7639TIP3    H122881   0.359   4.692   1.411 -1.0542 -0.0259 -1.0734
 7639TIP3    H222882   0.344   4.811   1.319 -0.9989  1.3084  0.6041
 7640TIP3   OH222883   0.040   1.754   0.789 -0.5381  0.8667 -0.1069
 7640TIP3    H122884  -0.030   1.819   0.797 -1.0719  0.2889  0.0222
 7640TIP3    H222885   0.004   1.675   0.830 -0.1997  0.2574 -0.9521
 7641TIP3   OH222886   2.530   6.442   3.222 -0.7004 -0.5897  0.5470
 7641TIP3    H122887   2.506   6.391   3.300  0.3650 -1.4793  0.3247
 7641TIP3    H222888   2.482   6.524   3.231 -1.1189 -0.9475  1.8013
 7642TIP3   OH222889   2.295   0.196   5.166  0.0891 -0.4241  0.0291
 7642TIP3    H122890   2.331   0.162   5.248  0.8982 -0.4491 -0.3338
 7642TIP3    H222891   2.256   0.280   5.190  0.6364 -0.2658  0.3752
 7643TIP3   OH222892   4.586   5.697   0.340 -0.0709  0.2540  0.2989
 7643TIP3    H122893   4.561   5.650   0.419 -1.2506  0.9641  0.3573
 7643TIP3    H222894   4.521   5.766   0.330  0.7995  0.9909 -0.5842
 7644TIP3   OH222895   2.594   3.283   0.271  0.3353 -0.0466 -0.0379
 7644TIP3    H122896   2.560   3.331   0.347 -1.9552 -0.8982 -0.4594
 7644TIP3    H222897   2.617   3.352   0.208 -1.0075  0.5992  0.1360
 7645TIP3   OH222898   3.045   4.413   2.673  0.1221 -0.0014 -0.4266
 7645TIP3    H122899   3.117   4.476   2.671  1.9715 -1.9678 -0.0338
 7645TIP3    H222900   3.015   4.414   2.764  0.1293  0.3344 -0.4289
 7646TIP3   OH222901   5.652   5.397   1.243 -0.9825  0.2679 -0.0512
 7646TIP3    H122902   5.735   5.353   1.223 -0.7549  0.6666  0.0088
 7646TIP3    H222903   5.626   5.437   1.159  0.6913  3.1534  0.6832
 7647TIP3   OH222904   6.825   3.600   4.987  0.4543 -0.1302  1.1027
 7647TIP3    H122905   6.840   3.579   4.895 -2.2221  2.2089 -0.0309
 7647TIP3    H222906   6.892   3.666   5.007  0.6875 -0.2193  0.6387
 7648TIP3   OH222907   3.762   4.607   2.165 -0.6379 -0.1014 -0.0013
 7648TIP3    H122908   3.754   4.693   2.124  0.3065  0.3814  0.7939
 7648TIP3    H222909   3.682   4.597   2.217 -0.5744  0.4699  0.2099
 7649TIP3   OH222910   6.726   0.341   3.086 -0.0554  0.0041  0.2821
 7649TIP3    H122911   6.725   0.358   2.992 -0.8917 -2.0515 -0.1302
 7649TIP3    H222912   6.794   0.399   3.121 -0.3386  1.4262 -1.4461
 7650TIP3   OH222913   4.811   3.265   5.835  0.7657  0.5653  0.4302
 7650TIP3    H122914   4.781   3.315   5.759  1.3772  0.8182  0.3490
 7650TIP3    H222915   4.730   3.244   5.883  0.1201 -1.4368 -1.3694
 7651TIP3   OH222916   0.775   4.436   2.107 -0.3503  0.1853  0.2002
 7651TIP3    H122917   0.868   4.416   2.105 -0.2518  0.6575 -1.6001
 7651TIP3    H222918   0.771   4.530   2.127 -0.4802  0.0452  0.8625
 7652TIP3   OH222919   0.601   1.438   1.349 -0.1434  0.3628 -0.2451
 7652TIP3    H122920   0.642   1.365   1.303  1.9780 -0.5374  2.8184
 7652TIP3    H222921   0.651   1.515   1.321  1.4698 -0.2482  0.8292
 7653TIP3   OH222922   3.367   6.487   3.748 -0.2929 -0.8292 -0.5321
 7653TIP3    H122923   3.444   6.508   3.801 -0.3478  2.5804 -1.5378
 7653TIP3    H222924   3.385   6.528   3.663 -2.5150 -1.3716 -1.3304
 7654TIP3   OH222925   6.757   2.160   1.197  0.3686  0.0379  0.7214
 7654TIP3    H122926   6.696   2.119   1.136  1.3435 -0.6461  0.1609
 7654TIP3    H222927   6.801   2.087   1.240  2.6026  0.3882 -0.7624
 7655TIP3   OH222928   0.693   2.327   1.897 -0.4342  0.0966  0.0379
 7655TIP3    H122929   0.640   2.405   1.916 -0.0465  0.8358 -1.7139
 7655TIP3    H222930   0.697   2.280   1.981 -0.0670  2.3276  1.3689
 7656TIP3   OH222931   3.538   0.620   5.374 -0.2482 -0.7121 -0.2091
 7656TIP3    H122932   3.533   0.676   5.296  2.9951  0.0359  0.0011
 7656TIP3    H222933   3.547   0.532   5.339  1.5177 -0.3494 -0.7634
 7657TIP3   OH222934   1.453   3.605   2.799  0.2047 -0.2821  0.3385
 7657TIP3    H122935   1.495   3.688   2.822 -0.5890  0.0663  0.5629
 7657TIP3    H222936   1.518   3.538   2.823  0.7636  0.2570  0.3610
 7658TIP3   OH222937   4.516   0.648   5.726 -0.0736 -0.3132  0.2509
 7658TIP3    H122938   4.562   0.726   5.756 -0.1190  0.1046 -0.7314
 7658TIP3    H222939   4.577   0.576   5.743 -0.1079 -0.1145  1.3406
 7659TIP3   OH222940   3.065   6.772   2.820  0.5830  0.0424  0.5552
 7659TIP3    H122941   3.032   6.845   2.872  0.6704 -0.3075  1.1110
 7659TIP3    H222942   2.998   6.757   2.754  1.1889  1.5339 -0.4635
 7660TIP3   OH222943   5.058   2.168   4.966 -0.1795 -0.2413 -0.2493
 7660TIP3    H122944   4.966   2.146   4.958 -0.1097 -0.4720 -0.4380
 7660TIP3    H222945   5.085   2.188   4.876  0.2182 -1.2372 -0.3640
 7661TIP3   OH222946   6.424   4.872   2.160  0.4696 -0.0643  0.3609
 7661TIP3    H122947   6.335   4.841   2.174  0.1255 -0.1669 -1.8302
 7661TIP3    H222948   6.439   4.932   2.233 -1.8566  0.9375  0.1057
 7662TIP3   OH222949   6.718   5.278   1.189 -0.2757 -0.1873 -0.1774
 7662TIP3    H122950   6.644   5.335   1.167 -0.2284 -0.7369 -1.8327
 7662TIP3    H222951   6.678   5.195   1.213 -0.2860  0.1955  1.2550
 7663TIP3   OH222952   0.472   5.273   2.550 -0.2106 -0.1253 -0.2453
 7663TIP3    H122953   0.517   5.201   2.594 -0.7475 -0.2117  0.1780
 7663TIP3    H222954   0.527   5.293   2.475  1.0574  0.4493  0.8037
 7664TIP3   OH222955   2.332   1.885   0.690  0.6182 -0.8730 -0.0713
 7664TIP3    H122956   2.343   1.811   0.630  1.1844 -0.6508 -0.2451
 7664TIP3    H222957   2.393   1.951   0.658 -0.6284  0.0921 -0.5594
 7665TIP3   OH222958   7.109   0.048   1.685  0.0587  0.0471 -0.4956
 7665TIP3    H122959   7.203   0.037   1.693  0.1625  0.7453 -0.6670
 7665TIP3    H222960   7.077  -0.035   1.650  0.3909 -0.8001  1.1467
 7666TIP3   OH222961   3.976   3.146   4.807  0.2176  0.3261 -0.4281
 7666TIP3    H122962   3.975   3.081   4.736 -0.8398  0.3187 -0.4324
 7666TIP3    H222963   3.901   3.202   4.787  1.4035  1.8589 -0.6975
 7667TIP3   OH222964   1.073   4.899   0.791 -0.8613  0.2493  0.0822
 7667TIP3    H122965   1.074   4.804   0.799  0.0736  0.2166 -0.3011
 7667TIP3    H222966   1.158   4.927   0.826 -1.5860  1.0524  1.3205
 7668TIP3   OH222967   6.170   5.087   0.968  0.0039 -0.2611 -0.5086
 7668TIP3    H122968   6.125   5.165   0.999 -1.4409 -0.8256 -1.0844
 7668TIP3    H222969   6.236   5.120   0.908  0.8370  0.6323  0.8571
 7669TIP3   OH222970   3.507   1.971   3.536 -0.3287  0.1399  0.6528
 7669TIP3    H122971   3.594   2.003   3.510 -0.0093 -0.9680  0.2965
 7669TIP3    H222972   3.446   2.016   3.478  0.2650 -1.2877 -1.1703
 7670TIP3   OH222973   5.924   6.243   0.789  0.1667  0.2318 -0.2488
 7670TIP3    H122974   5.835   6.226   0.759 -0.1544  1.2182  0.0985
 7670TIP3    H222975   5.915   6.315   0.852  1.1872  0.2242 -0.0717
 7671TIP3   OH222976   4.137   3.266   4.624 -0.4587  0.0336  0.0995
 7671TIP3    H122977   4.145   3.195   4.560 -0.6445  0.0502  0.0563
 7671TIP3    H222978   4.077   3.231   4.691  0.1722 -0.1941  0.5575
 7672TIP3   OH222979   0.103   5.904   4.972  0.5021  0.2405  0.4617
 7672TIP3    H122980   0.043   5.948   5.033  1.6720  1.4600  0.8044
 7672TIP3    H222981   0.116   5.968   4.902  0.2748 -0.5925 -0.3485
 7673TIP3   OH222982   1.099   2.525   3.054  0.3272 -0.4951  0.2227
 7673TIP3    H122983   1.146   2.491   2.977  3.6699  0.8711  1.4661
 7673TIP3    H222984   1.061   2.447   3.095  1.1059 -1.6570 -1.1574
 7674TIP3   OH222985   4.142   3.817   5.432  0.2827  0.0797 -0.1765
 7674TIP3    H122986   4.101   3.891   5.389  1.6757  1.0502  0.0901
 7674TIP3    H222987   4.236   3.827   5.414  0.5462 -1.4301  0.1485
 7675TIP3   OH222988   3.526   2.294   0.932 -0.1328  0.6213 -0.1296
 7675TIP3    H122989   3.556   2.385   0.936 -0.3545  0.7113 -0.5066
 7675TIP3    H222990   3.430   2.300   0.937 -0.1289  0.3759  0.3431
 7676TIP3   OH222991   5.023   0.041   1.896  0.1123  0.3931 -0.1659
 7676TIP3    H122992   5.087   0.028   1.966 -0.9483 -2.3614  0.4262
 7676TIP3    H222993   5.061  -0.002   1.820 -1.7942 -3.3235  0.7657
 7677TIP3   OH222994   6.266   5.370   3.780  0.1113 -0.5828 -0.0259
 7677TIP3    H122995   6.173   5.348   3.775 -0.0516 -0.0744  0.6439
 7677TIP3    H222996   6.305   5.327   3.703 -0.7501 -0.3991 -0.5762
 7678TIP3   OH222997   7.222   6.219   4.322 -0.1004 -0.0137  0.6050
 7678TIP3    H122998   7.160   6.220   4.395  0.3562  0.3265  0.9946
 7678TIP3    H222999   7.227   6.311   4.294 -0.4625 -0.1792 -0.0215
 7679TIP3   OH223000   5.967   4.670   2.077 -0.0918  0.2859 -0.0514
 7679TIP3    H123001   5.889   4.726   2.073 -0.6126 -0.3698  0.7485
 7679TIP3    H223002   5.934   4.583   2.095  0.8613  0.0630  0.7224
 7680TIP3   OH223003   6.683   0.567   0.706 -0.3074 -0.4235 -0.0684
 7680TIP3    H123004   6.637   0.485   0.728 -0.1091 -0.5526 -0.1369
 7680TIP3    H223005   6.672   0.575   0.611 -1.7491  0.4844  0.1457
 7681TIP3   OH223006   2.627   3.577   0.649  0.6101 -0.4570 -0.2867
 7681TIP3    H123007   2.549   3.632   0.648  1.1761  0.4236 -2.4362
 7681TIP3    H223008   2.698   3.637   0.626  1.4670 -1.8189 -1.2997
 7682TIP3   OH223009   3.671   6.062   2.015  0.1946  0.0676 -0.0851
 7682TIP3    H123010   3.607   6.124   1.979  1.5300  0.1196 -2.6363
 7682TIP3    H223011   3.678   6.086   2.108 -3.3929  0.0338  0.3173
 7683TIP3   OH223012   4.902   5.623   5.731  0.0731 -0.4876  0.0269
 7683TIP3    H123013   4.975   5.681   5.707 -0.7277  0.6608  0.2962
 7683TIP3    H223014   4.824   5.673   5.711 -0.7147 -2.2058 -1.5043
 7684TIP3   OH223015   0.402   5.630   1.448  0.1578  0.4943  0.3508
 7684TIP3    H123016   0.403   5.539   1.418  0.4587  0.4387  0.5253
 7684TIP3    H223017   0.436   5.680   1.374 -2.7364  0.8443 -0.9091
 7685TIP3   OH223018   6.340   1.928   2.329  0.2182 -0.0111  0.1636
 7685TIP3    H123019   6.335   1.918   2.424  1.2021  2.1652  0.4979
 7685TIP3    H223020   6.421   1.977   2.314 -1.3827  2.3510 -1.5315
 7686TIP3   OH223021   0.871   3.264   1.018 -0.3358  0.6053  0.1755
 7686TIP3    H123022   0.914   3.307   1.093 -1.1560  0.9465  0.4552
 7686TIP3    H223023   0.919   3.296   0.942  0.9728 -0.2912  0.5951
 7687TIP3   OH223024   4.942   3.425   3.542  0.0269  0.1313  0.6198
 7687TIP3    H123025   5.013   3.368   3.513 -0.0868 -1.1283  2.6195
 7687TIP3    H223026   4.983   3.488   3.601 -0.4809 -0.5733  1.7489
 7688TIP3   OH223027   6.492   4.792   5.546  0.5187 -0.3176 -0.4644
 7688TIP3    H123028   6.444   4.806   5.628  1.1183 -0.0521 -0.1496
 7688TIP3    H223029   6.425   4.765   5.483 -0.2500  1.1885 -0.3427
 7689TIP3   OH223030   2.423   3.458   4.045  0.9142 -0.7552 -0.1076
 7689TIP3    H123031   2.352   3.502   3.999  0.7566 -2.0538 -1.1656
 7689TIP3    H223032   2.494   3.454   3.980  1.4276 -0.8088  0.4476
 7690TIP3   OH223033   0.140   0.044   1.849  0.1604  0.0038  0.3859
 7690TIP3    H123034   0.178   0.031   1.936 -0.8326 -1.3068  0.6666
 7690TIP3    H223035   0.150   0.137   1.831  2.0119 -0.0061  1.1143
 7691TIP3   OH223036   4.615   1.264   3.545 -0.3967 -0.3716 -0.1437
 7691TIP3    H123037   4.611   1.216   3.462 -0.3762 -2.2615  0.8922
 7691TIP3    H223038   4.524   1.269   3.574 -0.2416 -1.5846  0.6768
 7692TIP3   OH223039   1.245   3.902   0.270 -0.4696  0.5299  0.0813
 7692TIP3    H123040   1.271   3.893   0.179  0.1628 -0.7856  0.3591
 7692TIP3    H223041   1.302   3.970   0.306  0.0022  0.3118 -0.2518
 7693TIP3   OH223042   6.522   3.306   5.044  0.0182  0.0951  0.2079
 7693TIP3    H123043   6.612   3.284   5.068  0.3324  0.2069 -0.8407
 7693TIP3    H223044   6.514   3.399   5.066  0.3267  0.2141 -0.1689
 7694TIP3   OH223045   0.783   0.954   4.695  0.0851 -0.1314 -0.7319
 7694TIP3    H123046   0.839   0.877   4.695 -0.5818 -0.6372  0.3967
 7694TIP3    H223047   0.836   1.023   4.655  0.8745 -1.0328 -1.2742
 7695TIP3   OH223048   2.027   2.983   3.417 -0.0408  0.0492 -0.0290
 7695TIP3    H123049   2.090   2.927   3.371  2.0834  1.0400  1.5808
 7695TIP3    H223050   2.077   3.027   3.485 -2.9517 -1.1547  3.2179
 7696TIP3   OH223051   5.875   2.510   0.302 -0.3915  0.1420  0.3210
 7696TIP3    H123052   5.860   2.415   0.301 -2.1649  0.3824 -0.2243
 7696TIP3    H223053   5.925   2.526   0.383  1.0995 -1.3779 -0.2496
 7697TIP3   OH223054   2.876   6.665   0.336 -0.1034 -0.3694 -0.0982
 7697TIP3    H123055   2.887   6.699   0.247 -0.2426  0.7455  0.2922
 7697TIP3    H223056   2.790   6.624   0.336  0.7528 -2.2772 -1.0445
 7698TIP3   OH223057   5.017   4.581   5.258 -0.3484  0.5200  0.3601
 7698TIP3    H123058   4.965   4.660   5.245 -0.3010  0.4664 -0.1593
 7698TIP3    H223059   5.090   4.589   5.197 -1.3379 -0.7791 -1.0811
 7699TIP3   OH223060   3.427   4.126   2.045 -0.2354 -0.4109 -0.1531
 7699TIP3    H123061   3.470   4.203   2.008 -2.6189  0.5526 -1.1003
 7699TIP3    H223062   3.416   4.147   2.138  0.9941 -0.5544  0.0427
 7700TIP3   OH223063   2.370   0.996   2.336 -0.3322  0.2524 -0.1134
 7700TIP3    H123064   2.337   0.920   2.383 -1.0381 -0.0913 -1.1168
 7700TIP3    H223065   2.407   0.960   2.255 -1.0063  0.9972 -0.7693
 7701TIP3   OH223066   5.393   0.705   3.185  0.0267  0.3687 -0.5369
 7701TIP3    H123067   5.371   0.631   3.129  1.2523 -0.9625  0.6833
 7701TIP3    H223068   5.336   0.696   3.261 -1.6023  2.1472 -1.4488
 7702TIP3   OH223069  -0.015   4.004   4.925 -0.0545 -0.1541  0.6453
 7702TIP3    H123070   0.002   4.066   4.996  1.7740  0.8971 -0.6302
 7702TIP3    H223071   0.072   3.973   4.899 -0.7903 -1.6545 -0.1667
 7703TIP3   OH223072   3.187   5.487   1.089  0.3369  0.4705 -0.5053
 7703TIP3    H123073   3.178   5.411   1.148  1.3414 -0.6866 -1.7750
 7703TIP3    H223074   3.245   5.547   1.136 -0.3484  0.4133  0.4566
 7704TIP3   OH223075   1.043   1.192   1.453 -0.1126 -0.1698 -0.3770
 7704TIP3    H123076   0.964   1.224   1.496  0.4961 -1.3872  1.7861
 7704TIP3    H223077   1.106   1.263   1.463 -0.0136 -0.3985  0.6677
 7705TIP3   OH223078   0.968   0.641   2.787 -0.1793 -0.0727 -0.6287
 7705TIP3    H123079   0.904   0.668   2.853  1.2332 -1.3709  1.3906
 7705TIP3    H223080   1.027   0.717   2.778  0.3532 -0.3154  0.6019
 7706TIP3   OH223081   0.245   1.393   3.213 -0.2821  0.0706  0.1340
 7706TIP3    H123082   0.169   1.346   3.248  1.1904 -1.7648  1.0001
 7706TIP3    H223083   0.301   1.409   3.288  0.8319  0.1889 -0.6958
 7707TIP3   OH223084   0.533   4.370   1.193  0.0042 -0.0372  0.6004
 7707TIP3    H123085   0.602   4.303   1.195  0.5039  0.4620  0.4039
 7707TIP3    H223086   0.575   4.445   1.151  0.2957  1.3597  3.2102
 7708TIP3   OH223087   0.181   4.317   2.383 -0.0267  0.2607  0.0652
 7708TIP3    H123088   0.137   4.291   2.464  0.3361  0.9927  0.5115
 7708TIP3    H223089   0.124   4.286   2.313 -0.3584 -0.3609  0.5980
 7709TIP3   OH223090   5.016   4.774   1.150 -0.2599 -0.2109  0.0352
 7709TIP3    H123091   4.999   4.845   1.211  1.1951  0.4901 -0.3359
 7709TIP3    H223092   4.938   4.771   1.094 -1.0073  0.0398  1.0481
 7710TIP3   OH223093   4.870   3.233   2.088 -0.6062 -0.4434 -0.1277
 7710TIP3    H123094   4.952   3.262   2.127 -0.2760  0.2276 -1.2621
 7710TIP3    H223095   4.896   3.168   2.023 -0.8277  0.6241 -1.3242
 7711TIP3   OH223096   6.547   4.601   1.866  0.2278 -0.5042  0.2757
 7711TIP3    H123097   6.560   4.564   1.778  0.7583 -0.3287  0.2770
 7711TIP3    H223098   6.506   4.686   1.850  0.8520 -0.2197  0.1630
 7712TIP3   OH223099   0.887   1.427   0.876  0.4452  0.6288  0.0885
 7712TIP3    H123100   0.883   1.484   0.953  0.2196  0.2670  0.3453
 7712TIP3    H223101   0.980   1.422   0.855  0.4419  1.3512 -0.1324
 7713TIP3   OH223102   4.088   3.855   2.327 -0.1492  0.4722  0.3779
 7713TIP3    H123103   4.034   3.776   2.327  1.3001 -0.5657  0.0048
 7713TIP3    H223104   4.037   3.920   2.279 -1.6337 -0.0317  1.2356
 7714TIP3   OH223105   4.847   3.101   0.259  0.9596 -0.2920  0.1976
 7714TIP3    H123106   4.803   3.102   0.344 -0.3641 -2.0339 -0.4191
 7714TIP3    H223107   4.784   3.141   0.200  0.8612 -1.3274 -0.4059
 7715TIP3   OH223108   4.750   2.955   1.987  0.4724 -0.1058 -0.2521
 7715TIP3    H123109   4.736   2.949   2.081  1.8752  0.7033  0.0461
 7715TIP3    H223110   4.846   2.957   1.977  0.3807 -1.2902 -1.7801
 7716TIP3   OH223111   3.005   0.353   1.409 -0.1251  0.4553  0.0285
 7716TIP3    H123112   3.059   0.366   1.488 -1.7966  0.7590  1.1795
 7716TIP3    H223113   3.052   0.287   1.358  1.1665  0.4824  1.1236
 7717TIP3   OH223114   1.916   0.451   0.800  0.3586  0.1071 -0.0418
 7717TIP3    H123115   2.007   0.456   0.771  0.7160 -2.3189  0.4639
 7717TIP3    H223116   1.868   0.422   0.722  0.2480 -0.0805  0.0975
 7718TIP3   OH223117   0.920   1.069   2.796  0.4910 -0.1192  0.1076
 7718TIP3    H123118   0.932   1.024   2.879  0.5233 -0.2198  0.0491
 7718TIP3    H223119   0.897   1.000   2.734 -1.4040  0.1833  0.4090
 7719TIP3   OH223120   1.863   4.319   2.897  0.5332 -0.5370 -0.1901
 7719TIP3    H123121   1.913   4.350   2.821 -0.7374  0.8877 -0.5132
 7719TIP3    H223122   1.772   4.331   2.871  0.0490 -1.5448  0.9798
 7720TIP3   OH223123   2.699   4.197   2.477 -0.2722  0.4777  0.1646
 7720TIP3    H123124   2.645   4.232   2.406  1.0440 -1.9519 -2.2633
 7720TIP3    H223125   2.696   4.102   2.464  2.5197  0.1119  1.4417
 7721TIP3   OH223126   0.837   6.430   3.408  0.2660 -0.3486 -0.7219
 7721TIP3    H123127   0.904   6.473   3.356  2.1673 -1.6751  0.4956
 7721TIP3    H223128   0.770   6.497   3.421  1.2732  0.9915 -2.0915
 7722TIP3   OH223129   5.943   5.046   4.882 -0.2244  0.1481  0.0448
 7722TIP3    H123130   5.966   5.134   4.852  0.0015  0.0556 -0.0477
 7722TIP3    H223131   5.858   5.058   4.925 -1.4006  0.0071 -2.0975
 7723TIP3   OH223132   3.137   2.821   3.819  0.0591 -0.5144 -0.5547
 7723TIP3    H123133   3.101   2.815   3.907  1.1338  1.2456  0.0663
 7723TIP3    H223134   3.232   2.820   3.832  0.2373 -1.0111 -1.7789
 7724TIP3   OH223135   3.140   1.330   1.863  0.4987 -0.3672 -0.9978
 7724TIP3    H123136   3.093   1.359   1.785 -0.2225 -0.7006 -0.6985
 7724TIP3    H223137   3.078   1.271   1.907  0.9031 -0.1993 -0.1925
 7725TIP3   OH223138   0.401   6.817   1.133 -0.3729 -0.0847 -0.0119
 7725TIP3    H123139   0.371   6.750   1.072  1.1273 -0.5387 -0.2670
 7725TIP3    H223140   0.487   6.788   1.161  0.3637  1.7972 -0.2206
 7726TIP3   OH223141   3.850   3.061   2.614  0.2086  0.1418 -0.2699
 7726TIP3    H123142   3.925   3.087   2.561 -0.6557 -0.4358 -1.8437
 7726TIP3    H223143   3.858   3.112   2.695  2.3661 -0.0280 -0.3216
 7727TIP3   OH223144   4.641   4.456   0.950  0.4007 -0.1619  0.2026
 7727TIP3    H123145   4.689   4.488   0.874  1.1683  0.7753  1.0552
 7727TIP3    H223146   4.709   4.438   1.015 -0.3736  3.7593  2.4226
 7728TIP3   OH223147   6.482   6.766   5.648 -0.3198  0.6926  0.2197
 7728TIP3    H123148   6.390   6.793   5.648 -0.8989 -1.1523  0.9549
 7728TIP3    H223149   6.516   6.797   5.732 -0.2390  1.4164 -0.0720
 7729TIP3   OH223150   2.986   0.755   4.141 -0.2433  0.1818 -0.8946
 7729TIP3    H123151   2.925   0.826   4.123 -0.6006 -0.2206 -1.2973
 7729TIP3    H223152   3.040   0.787   4.213  0.1282  1.1789 -1.5859
 7730TIP3   OH223153   1.237   1.617   2.576 -0.1299 -0.2173  0.3302
 7730TIP3    H123154   1.331   1.633   2.588 -0.2968 -0.2984  1.9346
 7730TIP3    H223155   1.202   1.613   2.665 -1.2968 -2.4443 -0.1722
 7731TIP3   OH223156   6.510   6.311   4.671  0.4348  0.3386 -0.3395
 7731TIP3    H123157   6.457   6.239   4.637 -0.7860  1.4522 -0.8427
 7731TIP3    H223158   6.548   6.352   4.593 -0.0119  1.0979 -0.1651
 7732TIP3   OH223159   2.366   4.058   2.658  0.0231 -0.7414 -0.2296
 7732TIP3    H123160   2.438   4.005   2.693 -0.2520  0.0459  1.6580
 7732TIP3    H223161   2.366   4.136   2.713 -2.7104 -1.0127  0.2756
 7733TIP3   OH223162   5.281   3.226   5.018  0.4074  0.2538 -0.0534
 7733TIP3    H123163   5.257   3.318   5.009  3.3180  0.9509 -2.4140
 7733TIP3    H223164   5.211   3.179   4.972  0.9303  1.7244 -2.5447
 7734TIP3   OH223165   3.128   3.142   0.303  0.0814 -0.4775  0.2889
 7734TIP3    H123166   3.169   3.113   0.222  1.9121 -0.6879  1.2453
 7734TIP3    H223167   3.159   3.080   0.369  0.5345  1.0711  1.5771
 7735TIP3   OH223168   1.021   0.938   0.975 -0.1239 -0.0480 -0.0332
 7735TIP3    H123169   1.002   0.995   0.900  2.4310 -0.6948 -1.2774
 7735TIP3    H223170   0.984   0.854   0.950 -0.4261  0.0642  0.0309
 7736TIP3   OH223171   5.822   1.096   0.282 -0.2824 -0.2702 -0.1779
 7736TIP3    H123172   5.850   1.101   0.191 -1.4815  0.7812 -0.5203
 7736TIP3    H223173   5.836   1.004   0.306 -1.9160 -1.1208 -2.1072
 7737TIP3   OH223174   4.245   3.816   1.462  0.1054  0.0850  0.2318
 7737TIP3    H123175   4.220   3.886   1.522 -1.8357  0.3455 -0.7817
 7737TIP3    H223176   4.191   3.831   1.384 -2.2438 -3.7976  0.7942
 7738TIP3   OH223177   6.733   5.172   5.223  1.0340 -0.2167 -0.2067
 7738TIP3    H123178   6.740   5.258   5.264 -0.5587  0.2784 -0.8648
 7738TIP3    H223179   6.809   5.124   5.254 -0.3323 -0.1527  3.8678
 7739TIP3   OH223180   0.961   4.547   0.265 -0.2795  0.4593  0.5540
 7739TIP3    H123181   0.928   4.458   0.254  0.8540  0.0767  0.1599
 7739TIP3    H223182   0.917   4.597   0.196 -0.0652 -0.0423  0.0467
 7740TIP3   OH223183   5.401   0.669   4.191 -0.0677  0.7715 -0.1645
 7740TIP3    H123184   5.393   0.642   4.282  1.8365 -1.2423 -0.4992
 7740TIP3    H223185   5.492   0.648   4.168 -0.9619 -0.4687 -3.0295
 7741TIP3   OH223186   4.596   2.352   2.275 -0.1926  0.3772 -0.9113
 7741TIP3    H123187   4.632   2.277   2.228 -0.1528  1.4011 -2.5855
 7741TIP3    H223188   4.673   2.402   2.303 -0.2312  1.0040 -1.8757
 7742TIP3   OH223189   2.487   6.711   2.886 -0.2253 -0.0106  0.4565
 7742TIP3    H123190   2.450   6.645   2.827  1.5831 -1.8635  1.2282
 7742TIP3    H223191   2.456   6.795   2.852 -1.5780 -1.1754 -1.3695
 7743TIP3   OH223192   4.991   1.449   3.066 -0.3619 -0.3080 -0.4288
 7743TIP3    H123193   4.966   1.477   3.154  1.5017  0.8974 -0.2325
 7743TIP3    H223194   4.934   1.500   3.008 -0.4798  0.1138  0.0489
 7744TIP3   OH223195   0.745   4.380   1.566 -0.3647  0.2446  0.1620
 7744TIP3    H123196   0.798   4.440   1.514 -0.3510  0.1837  0.1047
 7744TIP3    H223197   0.696   4.436   1.626 -0.3970  0.3167  0.0686
 7745TIP3   OH223198   2.975   6.167   2.662  0.5377 -0.6225 -0.3047
 7745TIP3    H123199   2.921   6.169   2.741  2.3443 -2.6877  1.1005
 7745TIP3    H223200   3.019   6.253   2.661 -0.1957 -0.2204  0.4106
 7746TIP3   OH223201   4.193   4.978   1.340  0.6542 -0.0427 -0.5967
 7746TIP3    H123202   4.151   4.989   1.254  1.0544  1.1336 -0.6616
 7746TIP3    H223203   4.120   4.960   1.400  0.2760 -0.0546 -1.0524
 7747TIP3   OH223204   1.658   4.544   4.870  0.4225 -0.0824 -0.1710
 7747TIP3    H123205   1.636   4.617   4.927  1.7173 -0.9319  1.5197
 7747TIP3    H223206   1.731   4.575   4.817  0.8426 -0.0893  0.4028
 7748TIP3   OH223207   2.934   1.417   2.202 -0.6323 -0.6638  0.3653
 7748TIP3    H123208   2.877   1.492   2.221 -1.1915 -1.2653  1.0982
 7748TIP3    H223209   3.018   1.457   2.179 -1.3748  0.2536 -0.9328
 7749TIP3   OH223210   5.240   0.430   0.941  0.5443 -0.1008  0.1984
 7749TIP3    H123211   5.146   0.418   0.940  0.5058  0.0223  1.1587
 7749TIP3    H223212   5.266   0.426   0.849 -0.4299  0.1690 -0.1007
 7750TIP3   OH223213   1.660   3.088   3.054 -0.3302  0.1898  0.1856
 7750TIP3    H123214   1.729   3.148   3.027 -1.0615  0.9265 -0.0746
 7750TIP3    H223215   1.664   3.086   3.149 -0.4537  0.8270  0.2030
 7751TIP3   OH223216   1.280   5.845   5.403 -0.0566  0.0099 -0.0353
 7751TIP3    H123217   1.366   5.888   5.406  1.3798 -2.6930  0.8601
 7751TIP3    H223218   1.218   5.915   5.425  1.9886  1.8149  0.3993
 7752TIP3   OH223219   5.133   5.398   2.230  0.2376  0.7680  0.3075
 7752TIP3    H123220   5.068   5.447   2.280  0.1291 -0.5930  1.5779
 7752TIP3    H223221   5.127   5.433   2.141 -1.2412  1.6241  0.7177
 7753TIP3   OH223222   4.714   1.046   3.706  0.3396  0.0286 -0.0140
 7753TIP3    H123223   4.675   1.018   3.623  0.3618 -0.5354  0.1596
 7753TIP3    H223224   4.686   1.137   3.716  0.9243  0.3232 -0.9826
 7754TIP3   OH223225   3.170   3.149   2.833  0.3204 -0.0861 -0.0337
 7754TIP3    H123226   3.099   3.093   2.863  2.6269 -2.4094  1.5314
 7754TIP3    H223227   3.204   3.106   2.755  0.9644  0.1395  0.1157
 7755TIP3   OH223228   5.708   3.033   0.018  0.4432 -0.7471  0.4299
 7755TIP3    H123229   5.658   3.029   0.100  0.8996  0.1713  0.7684
 7755TIP3    H223230   5.645   3.009  -0.050 -0.5537  0.7083  0.8117
 7756TIP3   OH223231   1.011   1.991   3.152  0.2294 -0.4189 -0.2320
 7756TIP3    H123232   0.959   1.911   3.152  0.1684 -0.3799 -0.2160
 7756TIP3    H223233   1.000   2.028   3.065  3.1388 -2.2634 -1.5332
 7757TIP3   OH223234   2.397   0.880   2.111 -0.0095 -0.1588  0.4018
 7757TIP3    H123235   2.479   0.872   2.063 -0.5386 -0.4729 -0.4866
 7757TIP3    H223236   2.349   0.800   2.091 -0.8456  0.3496  0.2856
 7758TIP3   OH223237   2.542   2.824   2.848  0.3281 -0.4885  0.4271
 7758TIP3    H123238   2.577   2.830   2.759  0.6690 -2.8225  0.3487
 7758TIP3    H223239   2.608   2.774   2.896 -1.1499 -1.7151  1.2447
 7759TIP3   OH223240   2.619   0.195   1.934 -0.0457 -0.2873 -0.1782
 7759TIP3    H123241   2.550   0.178   1.997 -0.1137  1.3322  0.2266
 7759TIP3    H223242   2.693   0.225   1.987 -0.3607  1.8678 -0.8870
 7760TIP3   OH223243   5.198   1.053   2.830  0.2451  0.1590  0.6987
 7760TIP3    H123244   5.234   1.067   2.743  1.3680  0.5406  1.2111
 7760TIP3    H223245   5.189   1.141   2.867 -0.4910  0.0169  0.8695
 7761TIP3   OH223246   1.049   2.540   5.687 -0.1887 -0.1756  0.5508
 7761TIP3    H123247   1.113   2.493   5.634  0.8375  0.4034  1.2122
 7761TIP3    H223248   1.101   2.610   5.729 -1.7074  1.7902 -0.6852
 7762TIP3   OH223249   1.285   2.274   4.422 -0.0995 -0.2597 -0.8215
 7762TIP3    H123250   1.295   2.357   4.376  1.0457 -1.0680 -2.0819
 7762TIP3    H223251   1.304   2.207   4.357  2.9550 -1.4320  1.0821
 7763TIP3   OH223252   6.254   6.353   0.105 -0.5461 -0.2171 -0.0456
 7763TIP3    H123253   6.263   6.269   0.059 -0.2574 -0.0861 -0.2281
 7763TIP3    H223254   6.263   6.419   0.037  0.7314  0.0003  0.3049
 7764TIP3   OH223255   0.574   4.177   0.576 -0.0580  0.0975  0.1398
 7764TIP3    H123256   0.513   4.231   0.526  0.6448  0.0008 -0.8478
 7764TIP3    H223257   0.575   4.216   0.663 -0.9919  0.5194 -0.0301
 7765TIP3   OH223258   4.578   1.945   4.321 -0.0720  0.3705  0.5596
 7765TIP3    H123259   4.600   1.998   4.244 -0.8909  0.9559  0.7210
 7765TIP3    H223260   4.635   1.979   4.390 -0.2770  0.7472  0.5481
 7766TIP3   OH223261   1.256   3.675   0.448  0.2099 -0.2337 -0.4250
 7766TIP3    H123262   1.317   3.612   0.409  0.1077 -0.2189 -0.6083
 7766TIP3    H223263   1.264   3.753   0.392 -0.4105 -0.4330 -0.7959
 7767TIP3   OH223264   0.401   5.086   3.735  0.7669  0.2778  0.4716
 7767TIP3    H123265   0.345   5.013   3.762 -0.3064  1.4493  1.5443
 7767TIP3    H223266   0.486   5.068   3.776  0.0514  0.4182  2.0839
 7768TIP3   OH223267   1.758   4.040   3.406  0.1513 -0.2510  0.6570
 7768TIP3    H123268   1.759   4.134   3.386 -1.3967 -0.3529 -0.0501
 7768TIP3    H223269   1.675   4.009   3.371  1.0927 -2.1075 -0.1018
 7769TIP3   OH223270   4.107   0.411   5.638  0.3253 -0.2269  0.2522
 7769TIP3    H123271   4.076   0.347   5.574  0.0857  0.5017 -0.3782
 7769TIP3    H223272   4.044   0.404   5.711 -0.9111  0.6787 -0.6737
 7770TIP3   OH223273   1.451   4.089   3.881 -0.0689  0.1945 -0.1546
 7770TIP3    H123274   1.363   4.054   3.863 -0.5396 -0.6945  3.2183
 7770TIP3    H223275   1.504   4.012   3.899  0.9316  0.8517 -0.1996
 7771TIP3   OH223276   0.162   4.453   1.907 -0.3717  0.5319 -0.1472
 7771TIP3    H123277   0.078   4.409   1.897 -0.9927  1.5324  0.4410
 7771TIP3    H223278   0.170   4.469   2.001  0.9910 -0.4822 -0.0549
 7772TIP3   OH223279   0.613   2.014   3.096  0.2747  0.4457 -0.3067
 7772TIP3    H123280   0.622   2.079   3.026 -0.7648  0.8625 -0.0666
 7772TIP3    H223281   0.645   2.058   3.175  0.0904  0.4725 -0.2472
 7773TIP3   OH223282   0.409   1.553   5.283 -0.5607  0.6537 -0.5815
 7773TIP3    H123283   0.487   1.585   5.328  0.3520  1.5674 -2.6698
 7773TIP3    H223284   0.433   1.467   5.250 -0.8840  0.3984 -0.1583
 7774TIP3   OH223285   5.020   3.209   0.505  0.2900  0.0993 -0.7974
 7774TIP3    H123286   4.957   3.228   0.435  0.3024  0.8732 -0.6054
 7774TIP3    H223287   5.047   3.119   0.489 -1.3060 -0.4638 -0.5546
 7775TIP3   OH223288   5.246   2.773   4.739 -0.3028 -0.1514 -0.0031
 7775TIP3    H123289   5.294   2.773   4.822  1.0066  4.0821 -0.4931
 7775TIP3    H223290   5.280   2.698   4.690  2.1668 -0.1844  1.6157
 7776TIP3   OH223291   1.414   3.906   4.330  0.0308 -0.1161  0.1224
 7776TIP3    H123292   1.435   3.996   4.358 -0.6989 -0.1210  0.7119
 7776TIP3    H223293   1.326   3.912   4.293 -0.0446 -0.6045  0.2187
 7777TIP3   OH223294   2.787   1.647   2.253 -0.1220  0.2155 -0.9833
 7777TIP3    H123295   2.830   1.694   2.324  1.2602  1.1899 -2.3980
 7777TIP3    H223296   2.705   1.616   2.291  0.1148  1.5572  0.7397
 7778TIP3   OH223297   2.683   4.716   0.928  0.3358 -0.6698 -0.2696
 7778TIP3    H123298   2.639   4.774   0.990  2.6495  0.3397  0.5054
 7778TIP3    H223299   2.700   4.771   0.851 -0.2471 -1.2332 -0.8250
 7779TIP3   OH223300   2.416   1.692   4.652  0.0233  0.0494 -0.6760
 7779TIP3    H123301   2.320   1.683   4.653  0.0384 -0.0826 -0.1655
 7779TIP3    H223302   2.432   1.773   4.604 -0.4099  0.8251  0.4702
 7780TIP3   OH223303   3.688   2.608   4.609  0.6137 -0.3202 -0.5415
 7780TIP3    H123304   3.597   2.579   4.620 -0.5031  2.6249 -1.0605
 7780TIP3    H223305   3.694   2.633   4.517  2.5679 -2.0777 -0.9809
 7781TIP3   OH223306   4.162   1.435   5.099 -0.2800 -0.7088 -0.3161
 7781TIP3    H123307   4.073   1.400   5.099 -0.2680 -0.7349 -0.8810
 7781TIP3    H223308   4.216   1.363   5.067 -0.0552 -0.6863  0.0105
 7782TIP3   OH223309   3.627   4.267   1.453  0.0852 -0.3188  0.5762
 7782TIP3    H123310   3.663   4.180   1.433 -0.0172  0.3492 -3.3709
 7782TIP3    H223311   3.674   4.326   1.394 -2.3202  1.7284  0.5646
 7783TIP3   OH223312   7.167   2.358   2.356  0.0052 -0.0682 -0.2958
 7783TIP3    H123313   7.256   2.353   2.391  0.3462  1.4671 -0.8733
 7783TIP3    H223314   7.111   2.345   2.433  0.7218 -0.4544  0.1774
 7784TIP3   OH223315   0.043   3.625   1.450 -0.4744 -0.5346  0.2753
 7784TIP3    H123316   0.011   3.541   1.484  0.4245 -2.1836 -2.6024
 7784TIP3    H223317   0.118   3.646   1.505 -0.4635 -1.8583  0.8062
 7785TIP3   OH223318   1.067   2.293   3.198 -0.3011  0.3960 -0.0445
 7785TIP3    H123319   1.020   2.322   3.276 -3.4432  1.1144 -2.0483
 7785TIP3    H223320   1.044   2.201   3.188 -0.6076  0.5207 -0.5515
 7786TIP3   OH223321   5.716   5.828   0.266 -0.2140  0.1952  0.2192
 7786TIP3    H123322   5.681   5.873   0.343  1.3213  1.1081  0.4393
 7786TIP3    H223323   5.775   5.762   0.302 -0.5596 -0.3215 -0.1562
 7787TIP3   OH223324   4.478   3.200   4.408  0.0979 -0.7253  0.1501
 7787TIP3    H123325   4.468   3.188   4.503  1.5535 -0.1093  0.4112
 7787TIP3    H223326   4.537   3.129   4.381  1.0857  0.1116  0.0363
 7788TIP3   OH223327   2.996   6.437   4.091  0.4469 -0.0371 -0.1705
 7788TIP3    H123328   2.958   6.351   4.074 -0.0848  0.4404 -1.4665
 7788TIP3    H223329   3.084   6.418   4.125  0.3072 -1.0848 -0.3685
 7789TIP3   OH223330   5.026   2.400   0.629 -0.0328  0.0313  0.8388
 7789TIP3    H123331   4.977   2.479   0.653  0.1452  0.4496 -0.1265
 7789TIP3    H223332   4.959   2.339   0.599  0.0508  0.8665 -1.1970
 7790TIP3   OH223333   1.180   3.302   2.438  0.1976  0.3605  0.1081
 7790TIP3    H123334   1.275   3.293   2.441  0.1884  0.2394  0.0445
 7790TIP3    H223335   1.165   3.385   2.393  0.2386 -0.5349 -1.6050
 7791TIP3   OH223336   4.446   3.353   0.042  0.2327  0.4505 -0.2742
 7791TIP3    H123337   4.380   3.298   0.085  2.2302 -0.9913  1.0989
 7791TIP3    H223338   4.396   3.405  -0.020 -1.8953 -2.5082 -1.2782
 7792TIP3   OH223339   2.554   6.458   2.004  0.4311 -0.4932  0.3915
 7792TIP3    H123340   2.563   6.548   2.035  3.3804 -0.3946 -0.3522
 7792TIP3    H223341   2.608   6.455   1.925  0.6180 -2.9551  0.5213
 7793TIP3   OH223342   5.718   6.297   3.353  0.3278  0.4583  0.0046
 7793TIP3    H123343   5.793   6.330   3.302  0.6653 -0.7924 -0.3450
 7793TIP3    H223344   5.727   6.201   3.349 -1.0069  0.3028  0.4008
 7794TIP3   OH223345   5.614   4.687   0.207  0.2285 -0.4175 -0.5159
 7794TIP3    H123346   5.624   4.728   0.121 -0.1040 -1.5569 -1.1242
 7794TIP3    H223347   5.701   4.656   0.229  0.2871 -0.2446 -0.5021
 7795TIP3   OH223348   2.525   0.049   3.649  0.1343  0.0712  0.2255
 7795TIP3    H123349   2.433   0.073   3.635  0.2872  0.4271 -0.1923
 7795TIP3    H223350   2.536   0.050   3.744 -0.3797 -0.3011  0.2952
 7796TIP3   OH223351   5.854   3.433   0.385  0.4828 -0.2780 -0.1825
 7796TIP3    H123352   5.821   3.400   0.468 -1.1489 -2.9518 -1.7437
 7796TIP3    H223353   5.879   3.355   0.336 -1.6191  0.8463 -3.3661
 7797TIP3   OH223354   1.220   6.546   0.711 -0.0419 -0.0653 -0.6538
 7797TIP3    H123355   1.215   6.489   0.788 -1.7867 -0.4261 -1.0043
 7797TIP3    H223356   1.292   6.510   0.659  0.4523 -0.4641  0.2697
 7798TIP3   OH223357   0.441   4.135   4.873  0.0042 -0.8944  0.1876
 7798TIP3    H123358   0.399   4.217   4.898  1.8343 -0.8207  3.5268
 7798TIP3    H223359   0.447   4.139   4.777 -0.7385  2.4562  0.1799
 7799TIP3   OH223360   1.140   4.005   5.646 -0.3801  0.0678 -0.0313
 7799TIP3    H123361   1.175   4.094   5.645  0.0767 -0.0996  0.5984
 7799TIP3    H223362   1.189   3.961   5.715 -1.6391 -0.2632  0.6772
 7800TIP3   OH223363   4.736   3.474   1.791  0.5439 -0.1108 -0.7320
 7800TIP3    H123364   4.687   3.542   1.838  1.9459  0.1706  0.3767
 7800TIP3    H223365   4.676   3.445   1.723 -0.8444  0.8201  0.0388
 7801TIP3   OH223366   0.824   2.432   1.667  0.0622 -0.4063  0.3745
 7801TIP3    H123367   0.784   2.409   1.751  1.7936 -0.3128  1.2647
 7801TIP3    H223368   0.805   2.357   1.610 -0.6554 -0.7142  0.9967
 7802TIP3   OH223369   4.985   0.256   0.706  0.0164 -0.2970 -0.0896
 7802TIP3    H123370   4.917   0.307   0.660  1.1415 -0.7938 -2.4416
 7802TIP3    H223371   4.984   0.292   0.795 -2.3308  0.6888 -0.4130
 7803TIP3   OH223372   0.719   1.927   1.719 -0.3942 -0.3797  0.8023
 7803TIP3    H123373   0.802   1.894   1.752  0.5978 -0.4453 -1.5450
 7803TIP3    H223374   0.653   1.896   1.781  1.1554 -1.7231  1.8253
 7804TIP3   OH223375   5.600   1.391   2.682 -0.5167  0.4195  0.7348
 7804TIP3    H123376   5.528   1.354   2.631 -0.6042 -1.3481  2.0192
 7804TIP3    H223377   5.643   1.314   2.722  2.4208  1.3364 -0.3770
 7805TIP3   OH223378   3.747   2.548   0.184  0.0596  0.5917  0.1631
 7805TIP3    H123379   3.796   2.503   0.114 -0.8128  1.1925 -0.8679
 7805TIP3    H223380   3.664   2.573   0.142  0.0820  2.1953  1.0333
 7806TIP3   OH223381   2.416   4.883   0.923  0.2361 -0.6156  0.2610
 7806TIP3    H123382   2.355   4.956   0.937  2.6634  1.5475  0.4128
 7806TIP3    H223383   2.401   4.857   0.833 -1.4107 -0.6998  0.5177
 7807TIP3   OH223384   6.576   2.301   2.877 -0.0519 -0.2395 -0.2678
 7807TIP3    H123385   6.565   2.339   2.964  0.4984 -0.5098 -0.0755
 7807TIP3    H223386   6.582   2.376   2.819 -1.3029 -0.0629 -0.1903
 7808TIP3   OH223387   1.906   5.734   0.914  0.2870  0.3390 -0.4562
 7808TIP3    H123388   1.984   5.707   0.962  0.1442 -0.8318 -0.8324
 7808TIP3    H223389   1.939   5.793   0.846  0.8194  0.0252 -0.4801
 7809TIP3   OH223390   1.007   1.044   0.204  0.4356 -0.3474 -0.0677
 7809TIP3    H123391   0.950   1.075   0.274  1.1111 -0.6117  0.6213
 7809TIP3    H223392   0.953   1.045   0.126 -0.1684  0.4943  0.3550
 7810TIP3   OH223393   2.736   5.871   0.879  0.3510  0.2889 -0.1194
 7810TIP3    H123394   2.716   5.847   0.969  1.6879 -1.1117 -0.1660
 7810TIP3    H223395   2.705   5.961   0.871 -0.3613  0.2247  1.5340
 7811TIP3   OH223396   5.473   1.736   4.693  0.9557 -0.3482 -0.1137
 7811TIP3    H123397   5.441   1.660   4.742  1.3286 -0.6315 -0.3073
 7811TIP3    H223398   5.434   1.727   4.606 -0.3914  0.6044  0.3581
 7812TIP3   OH223399   2.443   2.341   4.902 -0.1835 -0.0241  0.2070
 7812TIP3    H123400   2.412   2.263   4.856  0.1675 -0.5164  0.7952
 7812TIP3    H223401   2.382   2.410   4.876 -1.7916 -0.9561  1.3464
 7813TIP3   OH223402   6.447   2.379   0.003 -0.0178 -0.2862 -0.1747
 7813TIP3    H123403   6.418   2.350   0.090 -0.0552  1.5277  0.4454
 7813TIP3    H223404   6.368   2.411  -0.040 -0.0487 -1.4155 -1.0100
 7814TIP3   OH223405   0.258   5.394   4.994  0.1878  1.1215  0.1157
 7814TIP3    H123406   0.290   5.304   4.992  1.0806  1.4218  0.3882
 7814TIP3    H223407   0.170   5.389   4.959 -0.0407  0.0238  0.7982
 7815TIP3   OH223408   0.213   0.064   5.280  0.2652  0.3395 -0.3030
 7815TIP3    H123409   0.188   0.091   5.191 -1.3489 -0.3869 -0.1118
 7815TIP3    H223410   0.249  -0.023   5.269  0.6205  0.4856 -0.3081
 7816TIP3   OH223411   1.112   6.624   1.194  0.1916  0.0005 -0.7874
 7816TIP3    H123412   1.093   6.708   1.237 -0.9451 -0.1205 -1.0042
 7816TIP3    H223413   1.186   6.642   1.137  0.7589  0.5434  0.1058
 7817TIP3   OH223414   1.134   2.246   0.109 -0.6043 -0.2304  0.1865
 7817TIP3    H123415   1.067   2.186   0.145 -1.5225  1.3242  1.1835
 7817TIP3    H223416   1.119   2.328   0.154  1.2886  0.4996 -0.4254
 7818TIP3   OH223417   1.261   6.669   5.126 -0.2151  0.2721  0.1272
 7818TIP3    H123418   1.325   6.712   5.183 -0.1557 -0.6976  0.7960
 7818TIP3    H223419   1.195   6.635   5.185  0.9174 -2.6081 -0.1366
 7819TIP3   OH223420   5.835   1.102   4.555  0.0320  0.0584 -0.0307
 7819TIP3    H123421   5.913   1.113   4.499 -0.1487  0.0449 -0.2880
 7819TIP3    H223422   5.771   1.163   4.518 -0.1213 -0.0205  0.1038
 7820TIP3   OH223423   1.738   1.811   5.141 -0.0435  0.2419  0.2417
 7820TIP3    H123424   1.696   1.738   5.186  0.4492  0.4421  1.0481
 7820TIP3    H223425   1.737   1.883   5.205 -1.0625  1.1483 -0.7492
 7821TIP3   OH223426   3.763   4.587   0.467 -0.2377  0.1261  0.4741
 7821TIP3    H123427   3.747   4.663   0.522  0.4607 -1.4200  2.9730
 7821TIP3    H223428   3.675   4.556   0.442 -0.5219  1.6217 -0.4938
 7822TIP3   OH223429   4.019  -0.006   0.963  0.2291  0.3746 -0.3204
 7822TIP3    H123430   3.969  -0.027   0.884  0.1914 -0.3140 -0.1196
 7822TIP3    H223431   4.075   0.067   0.937 -0.2523  0.5826 -0.7957
 7823TIP3   OH223432   3.404   2.585   1.050  0.5382  0.0231  0.1727
 7823TIP3    H123433   3.489   2.619   1.024  0.8123  2.8304  3.9650
 7823TIP3    H223434   3.343   2.620   0.986  1.9226 -0.1333 -1.2844
 7824TIP3   OH223435   2.403   6.346   2.350 -0.5315  0.8287 -0.0452
 7824TIP3    H123436   2.398   6.307   2.438  0.0536  0.0227 -0.3555
 7824TIP3    H223437   2.318   6.327   2.311  0.0926 -1.1184 -0.5714
 7825TIP3   OH223438   6.820   4.185   2.949  0.7300 -0.5257 -0.2519
 7825TIP3    H123439   6.906   4.222   2.927 -0.2587  1.8368 -0.4951
 7825TIP3    H223440   6.758   4.251   2.919 -1.0849 -1.1482  1.8780
 7826TIP3   OH223441   0.974   6.567   3.220  0.4112 -0.1534  0.0333
 7826TIP3    H123442   0.969   6.643   3.278 -1.1787 -0.7815  0.7595
 7826TIP3    H223443   1.033   6.595   3.149 -0.3794  1.8557  0.1101
 7827TIP3   OH223444   3.621   0.081   0.010  0.0167  0.0886 -0.0789
 7827TIP3    H123445   3.582   0.045   0.090 -2.2064  2.0087 -0.1776
 7827TIP3    H223446   3.568   0.045  -0.061  0.4522  0.2628 -0.4994
 7828TIP3   OH223447   4.435   3.937   3.798 -0.2271 -0.0008 -0.3469
 7828TIP3    H123448   4.494   3.867   3.825 -1.8813 -0.6342  1.8547
 7828TIP3    H223449   4.456   4.010   3.856 -2.1791 -0.5624  1.1742
 7829TIP3   OH223450   4.893   4.051   2.135 -0.3496 -0.7537  0.0553
 7829TIP3    H123451   4.893   3.987   2.206 -0.1905 -0.1175  0.6438
 7829TIP3    H223452   4.883   3.999   2.056 -2.1256 -1.3620  0.6445
 7830TIP3   OH223453   3.369   4.654   1.034 -0.0947  0.1385  0.2684
 7830TIP3    H123454   3.350   4.593   0.963 -0.2283 -0.9842  1.2275
 7830TIP3    H223455   3.368   4.741   0.993 -0.2081 -0.4737 -1.0723
 7831TIP3   OH223456   6.585   6.752   0.351  0.1826  0.2571  0.1437
 7831TIP3    H123457   6.535   6.828   0.321 -0.4853  0.0310  0.6467
 7831TIP3    H223458   6.528   6.677   0.333 -0.6377  0.1770  2.6814
 7832TIP3   OH223459   1.899   1.131   2.318 -0.2428  0.0624 -0.6693
 7832TIP3    H123460   1.904   1.071   2.393  2.8669  1.2530  0.2378
 7832TIP3    H223461   1.968   1.100   2.258  0.1127  1.5504 -1.0639
 7833TIP3   OH223462   1.121   1.504   4.025  0.0245  0.1545  0.0363
 7833TIP3    H123463   1.140   1.430   3.967 -1.1654  0.2799 -0.5577
 7833TIP3    H223464   1.206   1.533   4.057  0.5198 -1.4063  0.2058
 7834TIP3   OH223465   5.222   3.790   0.167 -0.1619  0.1474 -0.0225
 7834TIP3    H123466   5.286   3.862   0.171 -1.2276  1.1122  0.2357
 7834TIP3    H223467   5.170   3.799   0.247 -1.7803  0.5281 -1.0554
 7835TIP3   OH223468   1.196   2.554   4.615 -0.8128 -0.2664  0.2518
 7835TIP3    H123469   1.214   2.619   4.547 -1.3854 -0.2018  0.1518
 7835TIP3    H223470   1.282   2.524   4.644 -0.4800 -2.4239 -2.5231
 7836TIP3   OH223471   0.115   6.135   0.649  0.3437  0.1654 -0.1506
 7836TIP3    H123472   0.125   6.070   0.580 -0.5897  0.6456 -0.7551
 7836TIP3    H223473   0.050   6.097   0.708  1.9599 -0.7639  1.1335
 7837TIP3   OH223474   1.005   5.391   4.580  0.5198  0.1262  0.5863
 7837TIP3    H123475   1.083   5.336   4.582  1.1839  1.0429  0.4592
 7837TIP3    H223476   0.934   5.333   4.606  1.5204 -0.2703  2.6501
 7838TIP3   OH223477   1.079   3.021   3.241  0.0670 -0.5400  0.1837
 7838TIP3    H123478   1.126   2.938   3.251  3.9066  1.3073 -0.4708
 7838TIP3    H223479   1.071   3.033   3.147  1.4371  0.6739  0.1782
 7839TIP3   OH223480   3.326   3.922   0.743 -0.2591  0.2371 -0.3913
 7839TIP3    H123481   3.340   4.006   0.786 -0.0962 -0.1530  0.3272
 7839TIP3    H223482   3.275   3.871   0.806  2.3998 -1.3688  0.6452
 7840TIP3   OH223483   3.807   6.191   5.429 -0.3608 -0.6143  0.3769
 7840TIP3    H123484   3.815   6.150   5.343 -1.0935 -2.0679  0.9677
 7840TIP3    H223485   3.712   6.205   5.440 -0.1018  2.6090 -0.3788
 7841TIP3   OH223486   0.092   2.440   3.243 -0.2308  0.3468 -0.0612
 7841TIP3    H123487   0.105   2.535   3.241 -1.3169  0.5572  1.2861
 7841TIP3    H223488   0.094   2.417   3.336 -1.9414 -0.6302 -0.2083
 7842TIP3   OH223489   0.685   3.409   2.955 -0.3122  0.5072 -0.0927
 7842TIP3    H123490   0.774   3.404   2.921 -0.1807 -1.9721  0.4505
 7842TIP3    H223491   0.689   3.472   3.027  0.9941  0.4112 -0.0734
 7843TIP3   OH223492   1.001   3.689   5.466  0.1539 -0.3425  0.1437
 7843TIP3    H123493   0.966   3.603   5.493  0.0781 -0.7739 -1.2458
 7843TIP3    H223494   1.096   3.678   5.470  0.1439 -0.3621  0.3486
 7844TIP3   OH223495   2.903   6.398   2.957 -0.4443  0.2796 -0.2516
 7844TIP3    H123496   2.870   6.309   2.943  1.4780 -0.1902 -2.1645
 7844TIP3    H223497   2.838   6.454   2.914 -0.8302 -0.3176 -0.4652
 7845TIP3   OH223498   0.390   0.397   0.097  0.2003  0.1690  0.4770
 7845TIP3    H123499   0.410   0.478   0.050 -2.4305  1.2551  1.0390
 7845TIP3    H223500   0.413   0.327   0.036  1.3734  1.3704 -0.5064
 7846TIP3   OH223501   2.893   6.067   4.443  0.2682 -0.2480 -0.6964
 7846TIP3    H123502   2.904   6.045   4.536 -0.7015  4.2161  0.7554
 7846TIP3    H223503   2.979   6.101   4.416 -0.1301  1.0055 -0.4859
 7847TIP3   OH223504   0.878   6.568  -0.014 -0.4410  0.0437  0.9433
 7847TIP3    H123505   0.811   6.637  -0.019  1.1248  1.5817 -0.5333
 7847TIP3    H223506   0.927   6.588   0.066 -0.4597  0.1903  0.9184
 7848TIP3   OH223507   2.492   4.636   0.258 -0.0900 -0.3869 -0.1475
 7848TIP3    H123508   2.419   4.695   0.241 -0.6846 -0.7980  0.8903
 7848TIP3    H223509   2.453   4.549   0.259  0.2304 -0.5349  1.3327
 7849TIP3   OH223510   2.007   0.561   3.479  0.2494  0.0787 -0.0493
 7849TIP3    H123511   2.072   0.596   3.540  0.0434  0.3910 -0.0060
 7849TIP3    H223512   2.056   0.545   3.398  0.1898  1.2221 -0.3283
 7850TIP3   OH223513   4.258   1.340   5.547 -0.3120  0.1833 -0.6227
 7850TIP3    H123514   4.294   1.253   5.533  1.2028  0.9802 -2.1061
 7850TIP3    H223515   4.175   1.325   5.593  0.0335 -1.9929 -0.6025
 7851TIP3   OH223516   6.334   1.883   2.597  0.3998  0.5110 -0.2232
 7851TIP3    H123517   6.272   1.829   2.646  1.2305  0.4138  0.7585
 7851TIP3    H223518   6.336   1.966   2.645 -0.0415  1.0397 -1.0900
 7852TIP3   OH223519   4.395   3.069   5.872  0.2501 -0.4917  0.1705
 7852TIP3    H123520   4.352   3.024   5.800  2.9235 -2.5132 -0.3199
 7852TIP3    H223521   4.350   3.039   5.951 -0.6874 -0.7262 -0.4523
 7853TIP3   OH223522   6.117   5.051   1.557 -0.1656  0.1106  0.0477
 7853TIP3    H123523   6.067   5.116   1.606 -1.0410 -0.2150 -0.3878
 7853TIP3    H223524   6.063   4.972   1.559  0.6279 -0.4431  0.1006
 7854TIP3   OH223525   0.861   5.609   5.659 -0.0989 -0.7052 -0.5104
 7854TIP3    H123526   0.901   5.525   5.680 -1.2995 -1.9556 -2.7722
 7854TIP3    H223527   0.926   5.655   5.605  1.0429  0.4265  1.7003
 7855TIP3   OH223528   0.954   6.796   3.367 -0.2722 -0.2778 -0.1263
 7855TIP3    H123529   0.863   6.784   3.396 -0.3671  0.4676 -0.0873
 7855TIP3    H223530   1.002   6.818   3.447 -0.0150 -0.8515 -0.1170
 7856TIP3   OH223531   1.515   2.279   1.070 -0.1189 -0.8768  0.6151
 7856TIP3    H123532   1.517   2.303   1.163  0.3038  0.0798  0.3804
 7856TIP3    H223533   1.431   2.312   1.039  0.7177  0.9900  0.1522
 7857TIP3   OH223534   4.756   3.860   1.482 -0.2992 -0.1606  0.1271
 7857TIP3    H123535   4.781   3.794   1.547 -0.7641 -0.1901  0.2849
 7857TIP3    H223536   4.665   3.837   1.460 -0.4563  0.4153  0.1687
 7858TIP3   OH223537   4.136   0.926   3.120  0.5718 -0.4303 -0.3749
 7858TIP3    H123538   4.214   0.871   3.123  0.4144 -0.6063  1.6661
 7858TIP3    H223539   4.087   0.903   3.198 -0.7846  0.7715 -0.8255
 7859TIP3   OH223540   6.007   0.605   0.676  0.2828  0.1737  0.3763
 7859TIP3    H123541   6.083   0.655   0.705 -0.7651  1.6924  0.6180
 7859TIP3    H223542   5.979   0.649   0.596  1.3924 -2.2005 -1.4566
 7860TIP3   OH223543   0.571   2.023   4.468 -0.7168 -0.7328 -0.3352
 7860TIP3    H123544   0.482   2.007   4.500 -0.6952 -1.5458 -0.6600
 7860TIP3    H223545   0.602   1.936   4.440  0.0662 -0.4029 -0.4982
 7861TIP3   OH223546   6.080   4.707   5.186  0.3686 -0.0437 -0.1665
 7861TIP3    H123547   5.987   4.695   5.169  0.7777 -2.0123 -1.4348
 7861TIP3    H223548   6.123   4.647   5.125  2.4124 -0.1603  1.2710
 7862TIP3   OH223549   0.122   0.031   0.741 -0.5481 -0.2491  0.4073
 7862TIP3    H123550   0.066   0.076   0.804 -0.8830 -0.2064  0.0790
 7862TIP3    H223551   0.129   0.091   0.667 -0.7083 -0.5796  0.1178
 7863TIP3   OH223552   2.401   2.052   3.407  0.6900 -0.3525  0.6274
 7863TIP3    H123553   2.493   2.063   3.382  1.0340 -1.1912  1.4285
 7863TIP3    H223554   2.355   2.123   3.363  1.6537 -0.1956 -0.1653
 7864TIP3   OH223555   3.762   0.287   4.188 -0.4886  0.1036 -0.6588
 7864TIP3    H123556   3.738   0.314   4.277  1.5415  1.9588 -0.5700
 7864TIP3    H223557   3.688   0.313   4.134 -0.3699  2.1162  0.0582
 7865TIP3   OH223558   0.275   4.421   0.115  0.1290  0.3772  0.4072
 7865TIP3    H123559   0.202   4.423   0.053  0.6660  1.3190 -0.2229
 7865TIP3    H223560   0.338   4.361   0.076  0.6792  1.3405 -0.2435
 7866TIP3   OH223561   3.425  -0.007   0.427 -0.2407 -0.3895 -0.2545
 7866TIP3    H123562   3.515   0.012   0.401 -0.8454  0.1605 -2.1325
 7866TIP3    H223563   3.420   0.020   0.519  1.6926 -1.1747  0.1281
 7867TIP3   OH223564   2.449   0.741   4.410 -0.0131 -0.5578 -0.1833
 7867TIP3    H123565   2.418   0.662   4.366  1.4676 -1.3514  0.1104
 7867TIP3    H223566   2.545   0.734   4.406  0.1468  0.8688  0.4823
 7868TIP3   OH223567   4.796   0.554   2.324 -0.2050 -0.3263  0.5777
 7868TIP3    H123568   4.766   0.519   2.409 -1.4161  0.9988  0.7352
 7868TIP3    H223569   4.724   0.611   2.296  0.6592  0.0944 -0.8347
 7869TIP3   OH223570   6.412   5.596   2.508 -0.2775 -0.2097  0.0083
 7869TIP3    H123571   6.378   5.681   2.482  0.7475  0.4653  0.8243
 7869TIP3    H223572   6.359   5.570   2.583 -2.2733 -1.4941 -1.7436
 7870TIP3   OH223573   0.802   4.934   2.027 -0.9809 -0.7035 -0.2817
 7870TIP3    H123574   0.789   4.931   1.932  1.2054  1.4945 -0.7381
 7870TIP3    H223575   0.767   5.018   2.054 -3.1960 -2.0118  1.2530
 7871TIP3   OH223576   2.226   3.712   1.375 -0.5061 -0.2465 -0.0797
 7871TIP3    H123577   2.316   3.726   1.406 -1.3642  3.5562  1.1334
 7871TIP3    H223578   2.222   3.756   1.291 -0.7977 -2.1290 -1.1009
 7872TIP3   OH223579   6.134   3.873   5.260 -0.2090 -0.4233  0.2164
 7872TIP3    H123580   6.167   3.882   5.350 -1.2039  2.0650  0.3945
 7872TIP3    H223581   6.207   3.904   5.205 -0.8778  1.6585  0.4224
 7873TIP3   OH223582   6.373   1.381   3.811  0.1038  0.0989 -0.4580
 7873TIP3    H123583   6.405   1.463   3.773 -0.5824  0.6914  0.1919
 7873TIP3    H223584   6.307   1.409   3.874  0.0796 -0.9485 -0.0020
 7874TIP3   OH223585   1.880   4.742   0.804 -0.3800 -0.5158  0.1408
 7874TIP3    H123586   1.913   4.706   0.886  0.9355 -0.7503 -0.4719
 7874TIP3    H223587   1.827   4.671   0.766  0.1658 -0.9215  0.1232
 7875TIP3   OH223588   3.842   6.598   1.205 -0.1720  0.3123  0.3713
 7875TIP3    H123589   3.854   6.691   1.187  0.7532  0.0146 -0.7303
 7875TIP3    H223590   3.752   6.580   1.178  0.5915  0.2775 -2.5473
 7876TIP3   OH223591   0.577   0.765   3.406 -0.1682 -0.5662  0.2470
 7876TIP3    H123592   0.485   0.791   3.401  0.2522  1.1602  0.6901
 7876TIP3    H223593   0.618   0.834   3.458  1.4554 -1.0776 -0.3095
 7877TIP3   OH223594   6.129   6.370   4.594 -0.3154  0.0418 -0.3832
 7877TIP3    H123595   6.202   6.312   4.573 -1.6328 -1.0540 -2.2640
 7877TIP3    H223596   6.094   6.335   4.676 -0.6847 -1.4727 -1.1546
 7878TIP3   OH223597   3.302   4.776   4.989 -0.3152 -0.2253 -0.3092
 7878TIP3    H123598   3.382   4.724   4.981 -0.4301 -0.3640 -0.5763
 7878TIP3    H223599   3.231   4.712   4.981 -0.4697  0.0704 -1.4691
 7879TIP3   OH223600   2.826   5.344   5.161 -0.0170 -0.0551 -0.4395
 7879TIP3    H123601   2.859   5.265   5.204  1.0750  0.9168  0.5886
 7879TIP3    H223602   2.733   5.327   5.147  0.0559 -1.2484  0.3803
 7880TIP3   OH223603   2.506   1.188   0.211  0.0226 -0.5642 -0.0388
 7880TIP3    H123604   2.559   1.236   0.147 -0.0372  1.6250  1.4277
 7880TIP3    H223605   2.556   1.109   0.229  1.2882 -0.0061 -0.9218
 7881TIP3   OH223606   5.946   4.783   4.795  0.1245  0.0574  0.0381
 7881TIP3    H123607   5.950   4.865   4.844  4.4194  0.5702 -0.6958
 7881TIP3    H223608   5.854   4.773   4.770 -0.7094  4.2680  0.7475
 7882TIP3   OH223609   3.476   6.562   5.049 -0.0893  0.4462 -0.1477
 7882TIP3    H123610   3.432   6.647   5.052 -0.6507  0.1612 -0.2525
 7882TIP3    H223611   3.565   6.582   5.018 -0.2721  0.9726 -0.3375
 7883TIP3   OH223612   2.955   5.116   3.358  0.1469  0.4420 -0.5357
 7883TIP3    H123613   2.995   5.165   3.286 -0.6901  2.0854  0.0516
 7883TIP3    H223614   2.895   5.179   3.399 -2.1385 -1.5333 -0.6379
 7884TIP3   OH223615   0.936   3.987   2.774  0.0373 -0.1464 -0.1190
 7884TIP3    H123616   0.919   3.894   2.787  0.4498 -0.1037  0.7491
 7884TIP3    H223617   0.870   4.032   2.826 -0.8079  0.0779 -1.3287
 7885TIP3   OH223618   5.506   1.210   2.026  0.4672  0.0012  0.0300
 7885TIP3    H123619   5.426   1.167   2.055  0.2042 -0.9796 -1.9860
 7885TIP3    H223620   5.566   1.139   2.005  0.5695  0.6059 -1.9189
 7886TIP3   OH223621   0.643   2.791   5.517  0.6723  0.0916  0.5761
 7886TIP3    H123622   0.707   2.743   5.570  0.5637 -0.1048  0.5332
 7886TIP3    H223623   0.581   2.724   5.489 -1.1968  0.6557  2.9707
 7887TIP3   OH223624   3.960   6.710   5.336  0.4784 -0.5554  0.0294
 7887TIP3    H123625   3.911   6.633   5.363 -0.3393 -0.5109 -1.2776
 7887TIP3    H223626   3.972   6.700   5.242 -1.3891  1.8364 -0.5681
 7888TIP3   OH223627   5.532   6.230   2.149 -0.4447 -0.0193  0.6450
 7888TIP3    H123628   5.550   6.237   2.055 -0.2083  2.1501  0.8065
 7888TIP3    H223629   5.446   6.271   2.161  0.5174  1.8393  1.6279
 7889TIP3   OH223630   2.601   0.721   2.999 -0.1399 -0.6895 -0.2931
 7889TIP3    H123631   2.672   0.658   2.983  0.6427  0.3874 -1.2335
 7889TIP3    H223632   2.646   0.804   3.014 -1.1638 -0.3166  0.8098
 7890TIP3   OH223633   6.872   1.183   4.086 -0.5647  0.0131 -0.0685
 7890TIP3    H123634   6.859   1.201   4.179  0.6026 -1.3026  0.3910
 7890TIP3    H223635   6.920   1.259   4.053  0.5124 -0.2559  0.8140
 7891TIP3   OH223636   1.647   5.979   0.741 -0.1590  0.2493 -0.6603
 7891TIP3    H123637   1.560   5.953   0.772 -0.5037  1.4938 -0.5188
 7891TIP3    H223638   1.648   5.953   0.649 -0.3122 -0.6479 -0.4145
 7892TIP3   OH223639   7.153   3.238   2.582  0.0550 -0.3280  0.1614
 7892TIP3    H123640   7.227   3.193   2.541  0.5126  0.3733  0.2070
 7892TIP3    H223641   7.129   3.183   2.656  0.3261 -0.7192 -0.0396
 7893TIP3   OH223642   1.958   0.593   0.345  0.1552 -0.0016 -0.2011
 7893TIP3    H123643   2.023   0.645   0.299 -0.8306  2.1103  0.6608
 7893TIP3    H223644   2.009   0.525   0.390  1.7490  1.4637  0.2994
 7894TIP3   OH223645   0.869   5.813   0.797  0.4504  0.5732 -0.4471
 7894TIP3    H123646   0.872   5.909   0.797 -2.6992  0.7722 -0.7926
 7894TIP3    H223647   0.862   5.789   0.704 -2.4214  0.3285 -0.2554
 7895TIP3   OH223648   5.219   0.307   4.648 -0.0663 -0.0589  0.4308
 7895TIP3    H123649   5.188   0.355   4.572 -0.8054 -2.7533 -1.1126
 7895TIP3    H223650   5.140   0.269   4.686  0.5938 -1.2143  0.6985
 7896TIP3   OH223651   4.079   3.406   3.252  0.0193 -0.3307  0.1098
 7896TIP3    H123652   4.053   3.458   3.328 -0.3001  0.4517 -0.5251
 7896TIP3    H223653   4.174   3.417   3.247 -0.1002  0.5818 -0.2947
 7897TIP3   OH223654   2.388   4.457   2.298  0.1929 -0.1595  0.4105
 7897TIP3    H123655   2.419   4.548   2.306  1.3647 -0.3476 -1.4626
 7897TIP3    H223656   2.298   4.466   2.268  0.3449  0.3898  0.0930
 7898TIP3   OH223657   2.627   4.150   1.146 -0.2401 -0.7972  0.0001
 7898TIP3    H123658   2.674   4.155   1.062  0.9547 -0.2427  0.6655
 7898TIP3    H223659   2.539   4.123   1.122 -0.4237  0.9819 -1.6419
 7899TIP3   OH223660   3.059   6.705   4.132 -0.1317 -0.2418 -0.4282
 7899TIP3    H123661   3.013   6.757   4.198  0.2904  0.0031 -0.3214
 7899TIP3    H223662   3.008   6.624   4.125 -1.5092  0.6506 -1.4692
 7900TIP3   OH223663   6.367   1.638   5.404  0.1024  0.2209  0.2156
 7900TIP3    H123664   6.303   1.709   5.393 -0.5007 -0.2315  0.7942
 7900TIP3    H223665   6.409   1.656   5.488  0.1379  0.0361  0.2374
 7901TIP3   OH223666   3.002   0.314   5.559 -0.0281 -0.0365  0.3108
 7901TIP3    H123667   3.047   0.260   5.623  1.0015  0.3717 -0.0378
 7901TIP3    H223668   2.962   0.385   5.610  0.0198 -0.2111  0.5895
 7902TIP3   OH223669   4.017   0.753   4.042 -0.0595  0.4549 -0.1397
 7902TIP3    H123670   3.926   0.775   4.021  0.5107  1.3790 -1.8330
 7902TIP3    H223671   4.011   0.672   4.092 -1.9550  1.7587  1.9679
 7903TIP3   OH223672   4.638   5.811   3.259  0.0044  0.3144  0.4226
 7903TIP3    H123673   4.593   5.840   3.338  0.3307  2.2704 -0.0672
 7903TIP3    H223674   4.727   5.790   3.287 -0.3603 -0.7179  0.8618
 7904TIP3   OH223675   2.255   1.702   0.867 -0.5464  0.5303  0.0515
 7904TIP3    H123676   2.288   1.781   0.824 -0.7038 -0.2147 -1.5243
 7904TIP3    H223677   2.286   1.709   0.957 -1.6246  2.9867  0.3169
 7905TIP3   OH223678   1.495   0.360   2.560 -0.1763  0.1000 -0.1544
 7905TIP3    H123679   1.439   0.396   2.491 -1.0848  0.7723  0.9109
 7905TIP3    H223680   1.511   0.434   2.619  2.0793  0.0005 -0.5498
 7906TIP3   OH223681   2.359   3.497   3.147  0.1241 -0.6667  0.3527
 7906TIP3    H123682   2.453   3.500   3.161  0.4287  1.5573 -1.5913
 7906TIP3    H223683   2.322   3.540   3.225  0.8173 -0.2495  0.4633
 7907TIP3   OH223684   5.048   0.668   1.704 -0.0015 -0.3997  0.2371
 7907TIP3    H123685   5.074   0.609   1.776  0.8268 -0.2007  0.1161
 7907TIP3    H223686   5.047   0.611   1.626 -0.8079 -0.5950  0.3764
 7908TIP3   OH223687   4.686   3.341   3.501 -0.2234  0.3529 -0.0197
 7908TIP3    H123688   4.770   3.384   3.518  0.1671 -0.3162 -0.2161
 7908TIP3    H223689   4.704   3.283   3.427 -0.5252 -0.7355  0.7416
 7909TIP3   OH223690   4.719   6.800   1.347 -0.5399  0.4089  0.2051
 7909TIP3    H123691   4.812   6.787   1.332 -0.7225 -0.9879  0.2158
 7909TIP3    H223692   4.693   6.729   1.405 -1.8241  0.1425 -0.6567
 7910TIP3   OH223693   2.290   0.711   0.520  0.1341 -0.1364  0.7146
 7910TIP3    H123694   2.221   0.757   0.568 -1.0080  1.2275 -2.0222
 7910TIP3    H223695   2.243   0.657   0.456  1.5504  0.4586 -0.9027
 7911TIP3   OH223696   2.699   2.116   0.849  0.2400 -0.3457 -0.0140
 7911TIP3    H123697   2.689   2.080   0.761  1.0149 -2.1546  0.5725
 7911TIP3    H223698   2.671   2.045   0.907  1.1152  0.2652  1.2077
 7912TIP3   OH223699   3.250   5.126   1.596  0.1089  0.2422 -0.1262
 7912TIP3    H123700   3.215   5.041   1.621  0.4895  0.1119 -0.0260
 7912TIP3    H223701   3.205   5.188   1.653  0.9960 -0.0531  0.9491
 7913TIP3   OH223702   2.171   3.955   3.629  0.1326 -0.0747  0.2850
 7913TIP3    H123703   2.106   3.887   3.611  1.2933 -1.0214 -0.5119
 7913TIP3    H223704   2.177   4.004   3.547 -0.6799  0.9875  0.8490
 7914TIP3   OH223705   0.957   2.738   5.232  0.2658 -0.2346 -0.3140
 7914TIP3    H123706   0.884   2.676   5.241  1.4051 -1.4950  0.7927
 7914TIP3    H223707   0.936   2.809   5.291 -0.5619 -0.0603 -0.8010
 7915TIP3   OH223708   5.088   0.571   2.306  0.2909  0.3164 -0.7268
 7915TIP3    H123709   5.122   0.483   2.289  0.1217  0.1331 -0.1332
 7915TIP3    H223710   4.999   0.556   2.339  0.7725  0.6309  0.7643
 7916TIP3   OH223711   0.937   2.974   2.649 -0.7638  0.4130  0.4210
 7916TIP3    H123712   0.934   3.057   2.603  0.2748 -0.3779 -1.1438
 7916TIP3    H223713   1.012   2.982   2.708 -0.3927  0.4202 -0.0517
 7917TIP3   OH223714   7.074   2.042   0.096 -0.2849 -0.1809 -0.4137
 7917TIP3    H123715   7.029   2.101   0.156 -0.9463  1.5762 -2.5410
 7917TIP3    H223716   7.166   2.050   0.119 -0.5266  0.4141  0.3817
 7918TIP3   OH223717   2.826   5.434   4.844 -0.5510  0.0766  0.3327
 7918TIP3    H123718   2.826   5.528   4.828  0.2686  0.2340  1.2107
 7918TIP3    H223719   2.855   5.396   4.761 -1.2435  0.5626 -0.1449
 7919TIP3   OH223720   0.085   1.907   3.253 -0.0996 -0.6386  0.3039
 7919TIP3    H123721   0.041   1.992   3.254  0.1347 -0.4934  2.1328
 7919TIP3    H223722   0.176   1.927   3.232 -0.5002 -0.7531 -1.7600
 7920TIP3   OH223723   3.636   1.002   4.289 -0.0073  0.3538  0.2391
 7920TIP3    H123724   3.586   0.940   4.236  0.3641 -0.6014  0.9889
 7920TIP3    H223725   3.728   0.979   4.274  0.1646  1.0425  0.1582
 7921TIP3   OH223726   3.604   6.476   3.104 -0.3879 -0.2314  0.0306
 7921TIP3    H123727   3.657   6.501   3.179  2.1325 -0.3566 -1.5900
 7921TIP3    H223728   3.577   6.386   3.123  0.1352 -0.2253  0.8279
 7922TIP3   OH223729   0.806   4.188   4.147  0.1323  0.2169 -0.2662
 7922TIP3    H123730   0.776   4.100   4.125  0.5765 -0.6862  2.3215
 7922TIP3    H223731   0.756   4.212   4.226  0.1029  2.2689 -0.8315
 7923TIP3   OH223732   6.511   2.543   0.497 -0.4716  0.4622  0.5648
 7923TIP3    H123733   6.481   2.613   0.439 -0.8075  0.5028  0.7862
 7923TIP3    H223734   6.606   2.553   0.499 -0.5880  1.6084  1.4628
 7924TIP3   OH223735   5.677   0.598   4.492  0.1860  0.2289 -0.1742
 7924TIP3    H123736   5.685   0.505   4.473  1.0738 -0.7779  4.1782
 7924TIP3    H223737   5.763   0.623   4.525 -1.5625  0.8577  4.5791
 7925TIP3   OH223738   6.000   5.944   4.611 -0.3872 -0.1533 -0.4677
 7925TIP3    H123739   5.986   5.865   4.557 -1.3312 -0.1731 -0.2076
 7925TIP3    H223740   6.095   5.955   4.612 -0.0174 -2.6065  1.3254
 7926TIP3   OH223741   2.134   0.820   5.439 -0.2901 -0.1417  0.4264
 7926TIP3    H123742   2.199   0.875   5.483  0.3469  0.0665 -0.7299
 7926TIP3    H223743   2.049   0.859   5.462  0.1054  0.7710  0.3778
 7927TIP3   OH223744   6.312   0.291   5.189 -0.2140  0.5469  0.1145
 7927TIP3    H123745   6.255   0.231   5.238 -1.1344  0.9100 -0.4789
 7927TIP3    H223746   6.377   0.320   5.253  0.3006 -1.1345  0.3887
 7928TIP3   OH223747   5.021   0.130   4.669  0.2720 -0.3346  0.0810
 7928TIP3    H123748   5.074   0.070   4.722  1.3602  0.3412 -0.2088
 7928TIP3    H223749   4.999   0.080   4.591  1.0796 -0.4054 -0.1064
 7929TIP3   OH223750   0.418   6.597   3.569 -0.0825 -0.4570  0.7377
 7929TIP3    H123751   0.385   6.638   3.489 -1.6913 -0.4614  1.3582
 7929TIP3    H223752   0.350   6.534   3.594  1.0715 -1.5170  1.3159
 7930TIP3   OH223753   1.676   4.007   2.607 -0.2730  0.5696  0.3159
 7930TIP3    H123754   1.749   3.976   2.660 -0.5230 -0.4279  0.0897
 7930TIP3    H223755   1.640   3.928   2.566 -1.2202  1.0950  0.0979
 7931TIP3   OH223756   0.046   4.859   4.168 -0.1677  0.4014 -0.0355
 7931TIP3    H123757   0.132   4.898   4.183 -0.0982 -0.3117  1.5966
 7931TIP3    H223758  -0.011   4.933   4.148  0.7667  0.9064 -0.8910
 7932TIP3   OH223759   0.997   4.552   4.506  0.1697  0.4197  0.5745
 7932TIP3    H123760   1.090   4.574   4.506 -0.2976  2.6920 -0.3849
 7932TIP3    H223761   0.978   4.527   4.596  1.8234 -0.7802  0.6378
 7933TIP3   OH223762   0.967   6.448   4.533  0.0362 -0.4896 -0.4406
 7933TIP3    H123763   0.975   6.402   4.616 -0.2192 -0.7569 -0.5659
 7933TIP3    H223764   0.929   6.384   4.473  0.1660 -0.2797 -0.7494
 7934TIP3   OH223765   7.175   0.992   3.145 -0.4115 -0.2348  0.3500
 7934TIP3    H123766   7.209   0.931   3.080  1.0459  0.0241  0.8214
 7934TIP3    H223767   7.218   1.075   3.124 -0.7204  0.0973  1.0032
 7935TIP3   OH223768   2.263   2.539   4.358  0.0748  0.2091  0.6931
 7935TIP3    H123769   2.273   2.452   4.395 -0.0610 -0.2028 -0.2076
 7935TIP3    H223770   2.327   2.542   4.287 -0.9829  0.2727 -0.2808
 7936TIP3   OH223771   4.366   5.785   4.082  0.8617 -0.4587  0.2364
 7936TIP3    H123772   4.363   5.692   4.108 -3.5794 -0.3994  0.6139
 7936TIP3    H223773   4.362   5.833   4.165 -2.8587 -0.1605  0.0505
 7937TIP3   OH223774   3.340   6.362   4.937 -0.1287  0.1054  0.3912
 7937TIP3    H123775   3.332   6.388   4.845 -1.9777 -2.6030 -0.3482
 7937TIP3    H223776   3.402   6.425   4.975  1.2159  0.9370 -2.8374
 7938TIP3   OH223777   0.094   1.939   3.799 -0.4255  0.2154 -0.2401
 7938TIP3    H123778   0.032   1.889   3.852 -2.2421  0.6565 -1.8248
 7938TIP3    H223779   0.135   1.874   3.742 -0.2927  0.0845  0.0019
 7939TIP3   OH223780   0.926   1.644   3.368 -0.8795 -0.0559 -0.5149
 7939TIP3    H123781   0.847   1.691   3.343 -0.5383  0.0644 -1.4155
 7939TIP3    H223782   0.910   1.616   3.458 -1.0923  1.7858  0.0669
 7940TIP3   OH223783   5.470   0.624   1.173  0.1541 -0.0621 -0.1323
 7940TIP3    H123784   5.554   0.648   1.134  0.2486 -2.5156 -1.7087
 7940TIP3    H223785   5.405   0.656   1.111 -0.0329  0.7995  0.4935
 7941TIP3   OH223786   3.370   1.496   2.733 -0.5097 -0.1500 -0.6357
 7941TIP3    H123787   3.425   1.419   2.744  0.5384  0.6320 -0.1892
 7941TIP3    H223788   3.299   1.485   2.797 -0.9006 -1.1665 -1.2172
 7942TIP3   OH223789   2.430   3.769   5.117  0.2661  0.3943  0.2453
 7942TIP3    H123790   2.436   3.771   5.022  0.2192  0.1666  0.2348
 7942TIP3    H223791   2.451   3.857   5.145  1.6988  0.1176  0.1015
 7943TIP3   OH223792   5.537   3.525   1.638  0.0420 -0.6965  0.0391
 7943TIP3    H123793   5.517   3.614   1.667  0.5387  0.1009 -1.9122
 7943TIP3    H223794   5.628   3.512   1.665 -0.0854 -0.7018  0.4857
 7944TIP3   OH223795   3.061   5.180   5.494 -0.1503 -0.2835 -0.3915
 7944TIP3    H123796   2.975   5.211   5.468  0.7022  1.2850 -1.5547
 7944TIP3    H223797   3.052   5.156   5.586 -1.3373  1.8667  0.1109
 7945TIP3   OH223798   4.235   2.028   4.678  0.1011  0.0684 -0.2765
 7945TIP3    H123799   4.259   2.059   4.766  2.0962  0.8719 -1.0456
 7945TIP3    H223800   4.202   2.105   4.633  2.1514  0.4668 -1.2118
 7946TIP3   OH223801   2.791   5.689   1.325  0.3504 -0.2037 -0.4617
 7946TIP3    H123802   2.851   5.704   1.398 -0.1823 -1.1217  0.1741
 7946TIP3    H223803   2.705   5.711   1.359  0.2478  0.7416 -1.2634
 7947TIP3   OH223804   5.338   6.529   4.945 -0.3494  0.7802 -0.0175
 7947TIP3    H123805   5.278   6.497   5.012 -0.0840  2.2406  0.9745
 7947TIP3    H223806   5.421   6.542   4.991  2.1610 -4.8133 -2.0519
 7948TIP3   OH223807   2.854   3.348   3.960 -0.3975 -0.0524 -0.1199
 7948TIP3    H123808   2.806   3.292   4.021 -1.0601  0.2877 -0.3142
 7948TIP3    H223809   2.935   3.300   3.942 -0.3123 -0.2734  0.8133
 7949TIP3   OH223810   1.674   3.405   1.974 -0.8475  0.0808  0.0380
 7949TIP3    H123811   1.597   3.455   2.001 -0.9554 -1.0599  2.0549
 7949TIP3    H223812   1.647   3.314   1.979  0.0121 -0.2936 -1.3929
 7950TIP3   OH223813   0.998   2.704   4.968  0.1723  0.0180 -0.0655
 7950TIP3    H123814   0.998   2.740   5.056 -1.7641  0.9070 -0.3730
 7950TIP3    H223815   0.920   2.649   4.965  0.3550 -0.2066 -1.1492
 7951TIP3   OH223816   6.833   1.458   2.940  0.8479 -0.6168 -0.2882
 7951TIP3    H123817   6.739   1.452   2.921  0.9665 -2.1991 -0.5393
 7951TIP3    H223818   6.853   1.551   2.936 -0.6749 -0.2715 -0.4116
 7952TIP3   OH223819   3.835   6.207   0.128 -0.3732  0.2493 -0.1186
 7952TIP3    H123820   3.863   6.176   0.042  1.4216  1.1566  0.1051
 7952TIP3    H223821   3.824   6.126   0.179  2.3715 -0.2080 -0.1009
 7953TIP3   OH223822   4.521   5.747   5.446 -0.0644 -0.3839 -0.2031
 7953TIP3    H123823   4.552   5.769   5.534 -0.5378 -0.3350 -0.0492
 7953TIP3    H223824   4.578   5.799   5.388  1.2642 -1.5684 -0.0121
 7954TIP3   OH223825   1.562   6.176   5.024  0.1947  0.0959  0.1756
 7954TIP3    H123826   1.487   6.132   5.065  1.0694 -0.3322  1.3511
 7954TIP3    H223827   1.551   6.157   4.930 -1.4481  0.5031  0.2480
 7955TIP3   OH223828   3.542   5.996   4.426 -0.0230  0.6945 -0.0758
 7955TIP3    H123829   3.619   6.004   4.483 -1.7503  1.9185  2.2982
 7955TIP3    H223830   3.488   5.929   4.468 -1.7666  2.2763  0.3483
 7956TIP3   OH223831   0.369   3.483   0.512  0.0752 -0.2281 -0.1904
 7956TIP3    H123832   0.325   3.515   0.591 -0.6238 -0.3783 -0.5073
 7956TIP3    H223833   0.318   3.520   0.440  0.9067  0.1880 -0.5845
 7957TIP3   OH223834   6.572   6.567   3.417 -0.1649  0.4578  0.3504
 7957TIP3    H123835   6.558   6.494   3.357 -0.7601 -0.0662  1.1133
 7957TIP3    H223836   6.666   6.564   3.436 -0.2171 -0.2231  0.5220
 7958TIP3   OH223837   5.923   0.926   1.371  1.0385 -0.0360 -0.3153
 7958TIP3    H123838   5.993   0.895   1.428  1.0208 -2.0404 -1.2985
 7958TIP3    H223839   5.866   0.850   1.359 -0.6802  1.2236 -0.4851
 7959TIP3   OH223840   4.576   3.920   2.906  0.6904  0.8753 -0.6216
 7959TIP3    H123841   4.536   3.839   2.936 -0.2330  0.2021 -3.3716
 7959TIP3    H223842   4.668   3.912   2.931 -0.0489  0.6931  2.3654
 7960TIP3   OH223843   1.689   3.911   5.290  0.0187  0.4369 -0.5462
 7960TIP3    H123844   1.620   3.853   5.259  0.5014 -0.2668 -0.3377
 7960TIP3    H223845   1.733   3.941   5.210 -0.0678  0.3122 -0.6405
 7961TIP3   OH223846   6.709   5.150   2.717  0.1682 -0.0921 -0.4242
 7961TIP3    H123847   6.630   5.204   2.718 -0.4599 -0.9954  0.5363
 7961TIP3    H223848   6.701   5.094   2.794  1.7275 -0.2404 -0.3460
 7962TIP3   OH223849   4.525   1.337   1.369  0.0735  0.4445 -0.2989
 7962TIP3    H123850   4.473   1.388   1.431  0.7166  1.6316 -0.6895
 7962TIP3    H223851   4.550   1.258   1.417 -0.7691  0.6017  0.4079
 7963TIP3   OH223852   5.035   3.205   2.590  0.1401  0.1459  0.2290
 7963TIP3    H123853   5.102   3.267   2.560  0.3688 -0.4934 -0.5892
 7963TIP3    H223854   5.001   3.245   2.671 -0.0886  1.5948 -0.5492
 7964TIP3   OH223855   0.165   2.159   5.192  0.5831  0.7326  0.5255
 7964TIP3    H123856   0.141   2.067   5.201  1.6440  0.4966  1.0461
 7964TIP3    H223857   0.182   2.170   5.098  1.3050  0.1729  0.5850
 7965TIP3   OH223858   3.908   3.157   1.037 -0.7705 -0.4989 -0.2301
 7965TIP3    H123859   3.938   3.195   1.119  1.2390 -0.7060 -0.8179
 7965TIP3    H223860   3.813   3.167   1.039 -0.8065 -0.8436  2.2689
 7966TIP3   OH223861   0.118   2.084   1.489 -0.1134  0.1227  0.3637
 7966TIP3    H123862   0.103   1.991   1.469 -0.2532 -0.6034  3.3790
 7966TIP3    H223863   0.105   2.129   1.405 -0.3774 -2.5254 -1.1226
 7967TIP3   OH223864   2.108   0.416   4.919 -0.1918  0.5722  0.6592
 7967TIP3    H123865   2.147   0.466   4.847  2.0203 -1.2320  0.4796
 7967TIP3    H223866   2.147   0.453   4.998  1.5645 -0.8016  0.5176
 7968TIP3   OH223867   4.909   2.160   1.350 -0.4014 -0.2425  0.0325
 7968TIP3    H123868   4.955   2.223   1.294  1.5674 -0.1244  1.6761
 7968TIP3    H223869   4.834   2.209   1.383  0.7249  1.0869  0.7521
 7969TIP3   OH223870   2.382   4.822   3.876 -0.1747  0.5863  0.2131
 7969TIP3    H123871   2.443   4.752   3.899 -1.4535 -0.3837  0.7591
 7969TIP3    H223872   2.411   4.897   3.929 -0.2805 -0.2716  1.5259
 7970TIP3   OH223873   3.601   1.462   0.425 -0.8232  0.2777 -0.3661
 7970TIP3    H123874   3.642   1.481   0.509 -1.3659 -1.7520  0.4124
 7970TIP3    H223875   3.507   1.458   0.444 -0.8690 -1.2868 -0.8033
 7971TIP3   OH223876   1.400   5.418   4.277 -0.1294 -0.2756 -0.8451
 7971TIP3    H123877   1.305   5.419   4.285 -0.2047 -1.6170 -1.2487
 7971TIP3    H223878   1.418   5.467   4.197 -0.3711  1.0660 -0.1041
 7972TIP3   OH223879   1.996   5.817   5.373 -0.8627  0.5148  0.0645
 7972TIP3    H123880   1.926   5.778   5.426 -0.0433 -0.5361  0.4190
 7972TIP3    H223881   2.060   5.747   5.363  0.7112  1.7851  0.7570
 7973TIP3   OH223882   3.576   3.264   1.747  0.4280 -0.0655  0.0258
 7973TIP3    H123883   3.609   3.326   1.812  1.0566  1.6761 -1.8496
 7973TIP3    H223884   3.649   3.204   1.732  0.2952 -0.4509  0.8497
 7974TIP3   OH223885   5.377   3.936   4.102 -0.8641  0.1128  0.0091
 7974TIP3    H123886   5.309   3.952   4.166  0.6430  1.4373  1.3700
 7974TIP3    H223887   5.421   3.857   4.132  1.0728  1.7617  1.8600
 7975TIP3   OH223888   3.231   3.504   2.519 -0.4647  0.1484 -0.0673
 7975TIP3    H123889   3.307   3.455   2.487  0.0662  1.0987 -0.2960
 7975TIP3    H223890   3.206   3.560   2.446 -0.4854  0.8924  0.4983
 7976TIP3   OH223891   5.213   5.264   5.554  0.1311 -0.0854 -0.2158
 7976TIP3    H123892   5.124   5.298   5.567 -0.7145 -1.7426 -1.3526
 7976TIP3    H223893   5.230   5.278   5.461  0.6137 -0.7938 -0.2381
 7977TIP3   OH223894   6.800   3.940   3.666 -0.5940 -0.7819 -0.3054
 7977TIP3    H123895   6.835   3.919   3.579 -0.4878  0.4066 -0.5672
 7977TIP3    H223896   6.709   3.963   3.649 -0.4438 -0.0768 -0.1781
 7978TIP3   OH223897   5.924   0.282   2.502 -0.4041 -0.0956  0.0467
 7978TIP3    H123898   5.893   0.367   2.471 -0.4922 -0.4953 -1.0027
 7978TIP3    H223899   5.964   0.301   2.587 -0.9699  0.8896  0.1135
 7979TIP3   OH223900   2.792   3.125   2.073 -0.0443  0.2763 -0.0017
 7979TIP3    H123901   2.827   3.036   2.074 -0.8209 -0.0779 -1.5730
 7979TIP3    H223902   2.846   3.172   2.137  2.3688 -0.5556 -1.2905
 7980TIP3   OH223903   1.133   0.014   2.770 -0.9932 -0.6046 -0.5176
 7980TIP3    H123904   1.151  -0.040   2.693 -0.4732 -2.0711  0.5952
 7980TIP3    H223905   1.167   0.101   2.747 -0.4484 -1.1293 -1.7745
 7981TIP3   OH223906   1.330   4.769   3.335  0.2182 -0.7121  0.3096
 7981TIP3    H123907   1.332   4.719   3.254  0.5744 -1.6188  0.8704
 7981TIP3    H223908   1.298   4.855   3.309 -2.2080 -1.7475 -0.3959
 7982TIP3   OH223909   4.473   5.812   1.685 -0.3393 -0.1566 -0.2509
 7982TIP3    H123910   4.517   5.826   1.769 -0.5078  1.0787 -0.3486
 7982TIP3    H223911   4.540   5.772   1.630 -0.2914 -1.1718  0.5263
 7983TIP3   OH223912   4.495   1.840   5.126  0.0424 -0.3844  0.1535
 7983TIP3    H123913   4.522   1.797   5.207  0.6501 -0.0875  0.1166
 7983TIP3    H223914   4.407   1.874   5.145 -0.9072 -2.5147 -0.1551
 7984TIP3   OH223915   0.115   3.592   5.415 -0.1056  0.6341 -0.2315
 7984TIP3    H123916   0.113   3.592   5.511 -0.4863  0.9756 -0.2319
 7984TIP3    H223917   0.022   3.595   5.390 -0.1935 -2.5680 -0.6485
 7985TIP3   OH223918   3.140   3.853   0.919  1.0081 -0.6151 -0.1174
 7985TIP3    H123919   3.092   3.830   0.999  1.1843 -1.4801 -0.2434
 7985TIP3    H223920   3.072   3.881   0.858  1.0971  3.5549  1.3584
 7986TIP3   OH223921   3.868   2.345   2.275 -0.0695 -0.4016  0.1186
 7986TIP3    H123922   3.780   2.341   2.312 -0.6426 -1.2252 -1.2711
 7986TIP3    H223923   3.889   2.439   2.275 -1.2767 -0.1049 -0.2705
 7987TIP3   OH223924   2.848   5.471   5.856  0.1964  0.0272  0.1836
 7987TIP3    H123925   2.782   5.405   5.837  1.6075 -1.3109 -0.3323
 7987TIP3    H223926   2.864   5.463   5.950  0.0435 -0.0602  0.2015
 7988TIP3   OH223927   6.500   0.814   2.111 -0.0663  0.0346 -0.0604
 7988TIP3    H123928   6.425   0.870   2.129  1.5593  2.0681  0.7321
 7988TIP3    H223929   6.567   0.843   2.173  0.9682 -2.6348  0.1931
 7989TIP3   OH223930   2.272   6.087   1.280  0.1296  0.0551 -0.1293
 7989TIP3    H123931   2.303   6.005   1.241 -0.4421 -0.8036  1.1355
 7989TIP3    H223932   2.179   6.072   1.296 -0.0830  1.1245 -0.2806
 7990TIP3   OH223933   1.782   5.378   4.243 -0.2002  0.2465 -0.0945
 7990TIP3    H123934   1.814   5.394   4.332  1.2262 -0.5792 -0.4354
 7990TIP3    H223935   1.763   5.466   4.209  3.0917  1.0044 -0.3325
 7991TIP3   OH223936   0.947   0.406   2.235  0.1975  0.4845 -0.2802
 7991TIP3    H123937   0.931   0.492   2.272  2.4881  0.3487  1.2340
 7991TIP3    H223938   0.911   0.345   2.300 -0.7108  0.2794 -0.9651
 7992TIP3   OH223939   1.022   6.604   0.208  0.2622 -0.3108  0.7366
 7992TIP3    H123940   1.025   6.677   0.271  1.5162  1.2887 -1.0781
 7992TIP3    H223941   0.955   6.545   0.243 -0.6369  1.5904  2.4068
 7993TIP3   OH223942   0.242   0.154   5.670  0.0915  0.2603 -0.1413
 7993TIP3    H123943   0.199   0.070   5.655 -1.1827  1.2261 -2.4999
 7993TIP3    H223944   0.182   0.219   5.633  1.6210  2.0990  0.4077
 7994TIP3   OH223945   1.604   4.347   2.827  0.1216  0.5337  0.8140
 7994TIP3    H123946   1.637   4.420   2.774 -1.9789  0.7286 -0.3482
 7994TIP3    H223947   1.518   4.376   2.856 -0.4177 -1.1757  1.0087
 7995TIP3   OH223948   4.999   3.374   4.641  0.1239 -0.3100 -0.3343
 7995TIP3    H123949   5.005   3.407   4.552 -0.8884  1.8691  0.3384
 7995TIP3    H223950   4.918   3.323   4.643  0.1075 -0.2946 -0.6556
 7996TIP3   OH223951   2.052   4.630   4.332  0.3681 -0.0283  0.4240
 7996TIP3    H123952   2.093   4.583   4.260  0.5888 -0.8480  1.0606
 7996TIP3    H223953   2.027   4.561   4.394  0.5451  0.6760  1.3085
 7997TIP3   OH223954   2.121   1.038   1.398  0.2322  0.1277 -0.1235
 7997TIP3    H123955   2.084   1.120   1.428  0.0017 -0.4459  1.2313
 7997TIP3    H223956   2.148   1.055   1.308  1.5151  2.1082  0.5717
 7998TIP3   OH223957   6.806   1.235   2.772  0.6001 -0.2207  0.8144
 7998TIP3    H123958   6.840   1.284   2.697 -0.1605  0.0280  0.6260
 7998TIP3    H223959   6.837   1.284   2.848 -1.2773  1.3674  0.6214
 7999TIP3   OH223960   4.037   3.141   3.195 -0.1737  0.3641  0.5098
 7999TIP3    H123961   4.049   3.236   3.196 -2.1154  0.6499  0.1078
 7999TIP3    H223962   4.021   3.120   3.103 -2.7013  0.1118  0.9308
 8000TIP3   OH223963   2.634   0.945   5.189 -0.3698  0.3995  0.3841
 8000TIP3    H123964   2.549   0.953   5.231  0.3909 -0.3806  2.1743
 8000TIP3    H223965   2.687   1.015   5.227  0.2242 -0.0964  0.5043
 8001TIP3   OH223966   4.316   3.663   3.714  0.2434 -0.2132  0.3544
 8001TIP3    H123967   4.334   3.651   3.807 -1.4062 -2.3437  0.4951
 8001TIP3    H223968   4.395   3.631   3.670  0.6511 -0.1379  1.0203
 8002TIP3   OH223969   4.192   6.621   3.496 -0.8064  0.0445  0.1559
 8002TIP3    H123970   4.098   6.629   3.515 -0.1455  1.0713  3.7269
 8002TIP3    H223971   4.210   6.528   3.502 -1.7192 -0.2789 -1.5695
 8003TIP3   OH223972   3.852   5.357   4.078 -0.2655 -0.1919  0.1126
 8003TIP3    H123973   3.914   5.314   4.138 -1.2414 -1.5861  0.1643
 8003TIP3    H223974   3.771   5.307   4.088 -0.4483 -0.4779 -2.4018
 8004TIP3   OH223975   2.449   5.802   1.807  0.8339  0.1124  0.4036
 8004TIP3    H123976   2.480   5.893   1.798 -1.3144  0.8334 -0.3170
 8004TIP3    H223977   2.392   5.804   1.884 -0.1874 -0.3332 -0.3281
 8005TIP3   OH223978   1.627   4.114   1.241  0.1991  0.1445 -0.0647
 8005TIP3    H123979   1.612   4.023   1.215 -1.5502  0.8275 -1.6171
 8005TIP3    H223980   1.540   4.150   1.256  0.8709  1.5394  0.7185
 8006TIP3   OH223981   1.887   5.037   0.927 -0.6521  0.1850  0.1082
 8006TIP3    H123982   1.881   4.998   1.015 -0.0961  0.5644  0.3193
 8006TIP3    H223983   1.978   5.023   0.901 -0.9403 -0.3705 -0.6235
 8007TIP3   OH223984   3.994   6.235   2.093  0.3657  0.0580 -0.2519
 8007TIP3    H123985   4.066   6.176   2.115  1.6413  2.4174  2.4561
 8007TIP3    H223986   3.944   6.243   2.173 -1.0372  0.9802 -1.1815
 8008TIP3   OH223987   1.862   5.227   5.814 -0.7956  0.0026  0.2200
 8008TIP3    H123988   1.823   5.189   5.892  0.9994 -0.3180  1.0142
 8008TIP3    H223989   1.859   5.321   5.828 -1.7155  0.0125  0.0259
 8009TIP3   OH223990   5.781   0.374   4.387  0.1265 -0.7394 -0.0772
 8009TIP3    H123991   5.809   0.291   4.426 -0.1740  0.2448  2.4559
 8009TIP3    H223992   5.857   0.406   4.339  1.7738 -0.4565  2.5610
 8010TIP3   OH223993   3.869   5.247   0.540 -0.2055 -0.5135 -0.3140
 8010TIP3    H123994   3.873   5.204   0.454  0.1750 -0.1591 -0.4773
 8010TIP3    H223995   3.893   5.338   0.522 -1.3338 -0.1437 -0.0260
 8011TIP3   OH223996   3.426   2.647   0.568  0.3114  0.1074  0.2245
 8011TIP3    H123997   3.484   2.723   0.564  2.0752 -1.1888 -0.0599
 8011TIP3    H223998   3.373   2.653   0.489  1.3528  0.3682 -0.4762
 8012TIP3   OH223999   1.272   2.137   1.500 -0.4236  0.1550  0.7425
 8012TIP3    H124000   1.215   2.090   1.561 -1.0399 -0.6959 -0.4610
 8012TIP3    H224001   1.230   2.222   1.490 -1.1592 -0.2456  0.3408
 8013TIP3   OH224002   7.179   0.767   0.651  0.1160  0.3161  0.1294
 8013TIP3    H124003   7.164   0.703   0.581  0.4158  0.6297 -0.2247
 8013TIP3    H224004   7.255   0.818   0.622 -0.2134  0.9383  0.3358
 8014TIP3   OH224005   5.965   4.218   5.728 -0.5915  0.0600  0.0861
 8014TIP3    H124006   5.926   4.305   5.725  0.8894  0.7245 -0.4554
 8014TIP3    H224007   5.942   4.178   5.644 -0.4210  0.2996 -0.0731
 8015TIP3   OH224008   5.405   6.341   3.821 -0.0198  0.1854 -0.6178
 8015TIP3    H124009   5.337   6.273   3.819  0.0107  0.1355 -0.2145
 8015TIP3    H224010   5.377   6.405   3.756 -0.0240 -0.2375 -1.0359
 8016TIP3   OH224011   3.133   4.863   1.573 -0.1081 -0.5843 -0.4756
 8016TIP3    H124012   3.190   4.824   1.506  0.2466 -0.2579 -0.3673
 8016TIP3    H224013   3.166   4.827   1.656 -0.6627 -1.1320 -0.4833
 8017TIP3   OH224014   5.437   1.256   4.666 -0.0695  0.0462  0.2517
 8017TIP3    H124015   5.462   1.344   4.694  0.6661  0.3721 -1.3582
 8017TIP3    H224016   5.501   1.198   4.708  0.1877  0.3926  0.3343
 8018TIP3   OH224017   7.192   1.617   5.259 -0.0029  0.5126  0.2280
 8018TIP3    H124018   7.214   1.556   5.188 -2.2753 -0.1221 -0.0082
 8018TIP3    H224019   7.236   1.699   5.234 -0.1567  0.0991 -1.5371
 8019TIP3   OH224020   2.257   1.854   1.585  0.0817  0.0551  0.2954
 8019TIP3    H124021   2.263   1.916   1.658  1.7668  0.2800  0.0044
 8019TIP3    H224022   2.178   1.880   1.538  0.8455  2.1610  0.0620
 8020TIP3   OH224023   4.235   0.906   1.742 -0.3967 -0.5882  0.5317
 8020TIP3    H124024   4.145   0.941   1.742 -0.3114 -0.2387 -1.6720
 8020TIP3    H224025   4.248   0.875   1.653  2.3531  1.1845  0.2112
 8021TIP3   OH224026   6.366   5.229   2.153  0.7394  0.1943 -0.5843
 8021TIP3    H124027   6.340   5.158   2.212  1.2092  0.6024  0.1419
 8021TIP3    H224028   6.398   5.298   2.212 -1.8544  1.9672 -1.1133
 8022TIP3   OH224029   7.150   5.914   5.480 -0.1381  0.1932  0.2848
 8022TIP3    H124030   7.228   5.902   5.534 -0.9137 -0.5458  1.2942
 8022TIP3    H224031   7.123   6.004   5.496 -0.3853 -0.0310  1.2000
 8023TIP3   OH224032   5.267   3.220   5.757  0.7195  0.2609  0.5739
 8023TIP3    H124033   5.296   3.309   5.739 -0.2912  0.3439 -0.7689
 8023TIP3    H224034   5.196   3.204   5.695 -0.1503 -0.9483  1.8063
 8024TIP3   OH224035   2.577   1.664   4.247  0.8986  0.2953 -0.0643
 8024TIP3    H124036   2.495   1.695   4.207  0.6816  2.0642  1.6315
 8024TIP3    H224037   2.574   1.569   4.236 -0.6729  0.4435 -1.3200
 8025TIP3   OH224038   5.500   0.618   0.651 -0.6819 -0.2384 -0.4828
 8025TIP3    H124039   5.424   0.568   0.678 -0.8348  1.2558  2.2073
 8025TIP3    H224040   5.471   0.710   0.652  1.0466  0.3549  0.4887
 8026TIP3   OH224041   1.410   4.607   5.373 -0.4869  0.6260 -0.4778
 8026TIP3    H124042   1.399   4.691   5.418 -0.7703  0.4736 -0.2598
 8026TIP3    H224043   1.505   4.596   5.366 -0.3460 -0.2292  1.7937
 8027TIP3   OH224044   7.035   3.290   5.874  0.3264  0.2399  0.3512
 8027TIP3    H124045   6.988   3.213   5.842  0.3523  0.7621 -0.9653
 8027TIP3    H224046   7.128   3.267   5.864  0.3351  0.7198 -0.7527
 8028TIP3   OH224047   0.731   1.323   0.193  0.1547  0.3141  0.5062
 8028TIP3    H124048   0.638   1.316   0.172  0.4242 -1.1484 -0.3233
 8028TIP3    H224049   0.764   1.233   0.189  2.0931  1.0142 -1.5857
 8029TIP3   OH224050   6.278   3.691   2.200  0.1572 -0.7677  0.0035
 8029TIP3    H124051   6.218   3.725   2.135 -0.9102  3.2019  2.7016
 8029TIP3    H224052   6.365   3.712   2.167 -0.2350 -0.9743 -1.1775
 8030TIP3   OH224053   1.732   1.386   1.033 -0.0151  0.0514  0.0081
 8030TIP3    H124054   1.689   1.341   1.106  0.2727  1.7637  1.2756
 8030TIP3    H224055   1.711   1.331   0.957 -0.8657 -1.4399  1.2431
 8031TIP3   OH224056   4.142   3.976   2.052  0.0259  0.1175 -0.2410
 8031TIP3    H124057   4.056   3.982   2.095  0.3430 -0.7535  0.5337
 8031TIP3    H224058   4.177   3.892   2.080  1.8385  1.1440  0.7780
 8032TIP3   OH224059   6.536   3.870   0.623  0.4221 -0.1188  0.1337
 8032TIP3    H124060   6.481   3.883   0.700  1.0260 -1.3787  0.8193
 8032TIP3    H224061   6.474   3.855   0.551 -0.1338  0.0366  0.5747
 8033TIP3   OH224062   4.905   1.975   3.885  0.2513 -0.1211  0.5964
 8033TIP3    H124063   4.962   1.903   3.913  1.1193  0.2842 -0.0651
 8033TIP3    H224064   4.819   1.953   3.920  1.0973 -0.0425  2.8530
 8034TIP3   OH224065   5.011   5.075   3.247  0.1477 -0.2414 -0.1581
 8034TIP3    H124066   5.050   5.141   3.189  1.1600  0.0641  0.8321
 8034TIP3    H224067   5.054   5.089   3.332 -0.2789 -1.5946  0.3098
 8035TIP3   OH224068   4.857   6.811   3.998  0.0034 -0.3877 -0.2245
 8035TIP3    H124069   4.789   6.755   3.959  0.5285 -1.3755  0.2380
 8035TIP3    H224070   4.937   6.759   3.991  0.6339  0.5834 -0.3644
 8036TIP3   OH224071   5.719   3.657   2.364  0.3721  0.3254  0.5638
 8036TIP3    H124072   5.740   3.724   2.300  0.3191 -1.0279 -0.9493
 8036TIP3    H224073   5.803   3.618   2.386  0.1964 -0.5937 -0.3141
 8037TIP3   OH224074   0.248   5.412   1.674  0.0372  0.1681  0.3052
 8037TIP3    H124075   0.163   5.417   1.716 -0.8647 -2.8315 -0.9073
 8037TIP3    H224076   0.234   5.448   1.586 -0.3620 -1.3892 -0.3055
 8038TIP3   OH224077   2.302   4.576   4.058 -0.4272 -0.0866  0.5884
 8038TIP3    H124078   2.231   4.538   4.006 -1.3739  1.7156  0.4925
 8038TIP3    H224079   2.382   4.553   4.010 -0.9277 -1.8934  0.5410
 8039TIP3   OH224080   4.625   1.681   0.417  0.3436  0.4088  0.0900
 8039TIP3    H124081   4.573   1.704   0.340  1.6601  1.6604 -0.4708
 8039TIP3    H224082   4.666   1.597   0.395  0.9798  0.9228 -0.7505
 8040TIP3   OH224083   3.574   2.908   4.400  0.1819 -0.0916  1.0119
 8040TIP3    H124084   3.632   2.864   4.337  0.3359  0.2380  0.9195
 8040TIP3    H224085   3.500   2.848   4.410  0.4479 -0.4277  0.9836
 8041TIP3   OH224086   2.180   5.495   4.696  0.0732  0.2747  0.0771
 8041TIP3    H124087   2.207   5.577   4.654  2.5068 -1.1325 -1.2948
 8041TIP3    H224088   2.259   5.441   4.697 -2.0036 -3.0853 -1.5068
 8042TIP3   OH224089   1.460   0.604   0.556  0.2629 -0.2672  0.3654
 8042TIP3    H124090   1.527   0.633   0.494 -0.6398  0.1472 -0.4336
 8042TIP3    H224091   1.466   0.666   0.628 -0.1626  0.5987 -0.3243
 8043TIP3   OH224092   3.929   0.154   3.971 -0.0056  0.1542 -0.1447
 8043TIP3    H124093   4.017   0.190   3.974  0.1686 -0.3069  0.5492
 8043TIP3    H224094   3.876   0.214   4.022  0.0376  0.0832 -0.0166
 8044TIP3   OH224095   1.212   2.153   4.935  0.5416 -0.2166  0.1413
 8044TIP3    H124096   1.297   2.122   4.966 -0.6562 -2.1604  1.6663
 8044TIP3    H224097   1.234   2.210   4.860  3.2678  1.0742  1.7543
 8045TIP3   OH224098   1.459   3.328   2.405 -0.4339 -0.0791  0.0424
 8045TIP3    H124099   1.543   3.284   2.393 -1.3344 -1.4160 -1.7679
 8045TIP3    H224100   1.478   3.420   2.386  0.5718 -0.3987 -0.6135
 8046TIP3   OH224101   3.854   0.233   4.991 -0.1846  0.4894 -0.0888
 8046TIP3    H124102   3.833   0.262   4.902  0.2562 -0.2843 -0.4601
 8046TIP3    H224103   3.888   0.144   4.980 -0.0164  0.4241  0.8434
 8047TIP3   OH224104   1.948   2.584   1.028 -0.3517 -0.0477 -0.0456
 8047TIP3    H124105   1.975   2.661   0.978 -2.0421 -0.2349 -1.3370
 8047TIP3    H224106   1.956   2.511   0.967 -3.1214 -0.1850 -0.3836
 8048TIP3   OH224107   0.584   3.234   2.100  0.2644  0.2670  0.0047
 8048TIP3    H124108   0.658   3.236   2.160  0.1067 -0.3593  0.2273
 8048TIP3    H224109   0.529   3.162   2.132 -0.6265  0.9551  0.0642
 8049TIP3   OH224110   1.230   5.250   4.959 -0.0270 -0.2823  0.2976
 8049TIP3    H124111   1.141   5.222   4.935  0.3020 -2.6104  1.5284
 8049TIP3    H224112   1.234   5.342   4.931 -3.0367  0.1221  0.7649
 8050TIP3   OH224113   6.873   3.009   0.848 -0.1614 -0.7845  0.3507
 8050TIP3    H124114   6.795   3.007   0.792 -1.4394 -0.0367  1.9910
 8050TIP3    H224115   6.886   2.919   0.876 -0.8274 -0.8333  0.5265
 8051TIP3   OH224116   4.035   1.568   5.334  0.0725 -0.1942  0.2848
 8051TIP3    H124117   4.102   1.503   5.313 -0.0974  0.1131 -1.3983
 8051TIP3    H224118   4.028   1.621   5.254 -0.5494  1.2238  1.2404
 8052TIP3   OH224119   3.383   1.255   4.846 -0.5231 -1.0803  0.0929
 8052TIP3    H124120   3.419   1.325   4.792 -2.1981  0.5991  1.0327
 8052TIP3    H224121   3.345   1.300   4.922 -0.8806 -3.0905  1.1797
 8053TIP3   OH224122   0.446   3.199   0.225  0.4451  0.0104 -0.5278
 8053TIP3    H124123   0.504   3.239   0.160  1.3155 -0.1054  0.1690
 8053TIP3    H224124   0.482   3.111   0.239  0.3700  0.1024  0.2543
 8054TIP3   OH224125   4.487   4.169   5.284 -0.1284  0.5427  0.0044
 8054TIP3    H124126   4.500   4.241   5.345 -0.6080  1.1986 -0.6356
 8054TIP3    H224127   4.545   4.189   5.210 -0.4544  0.4155 -0.2918
 8055TIP3   OH224128   3.368   1.314   0.322 -0.2761 -0.1461  0.1651
 8055TIP3    H124129   3.343   1.373   0.251  0.9361 -0.2637 -0.3993
 8055TIP3    H224130   3.352   1.363   0.402  1.9171  1.4924 -0.3112
 8056TIP3   OH224131   3.623   2.638   1.367 -0.0847 -0.6146  0.1806
 8056TIP3    H124132   3.661   2.600   1.446 -0.2208  0.0672  0.5907
 8056TIP3    H224133   3.690   2.629   1.300 -0.1338 -1.5949  0.2596
 8057TIP3   OH224134   6.513   0.149   0.040 -0.4794  0.1753 -0.1732
 8057TIP3    H124135   6.478   0.126   0.126  0.5538 -0.8682 -0.0109
 8057TIP3    H224136   6.608   0.148   0.051 -0.3441  0.6653 -1.1706
 8058TIP3   OH224137   4.259   1.343   2.096  0.2102 -0.4674 -0.6110
 8058TIP3    H124138   4.209   1.340   2.177 -0.1068 -1.2097 -0.8258
 8058TIP3    H224139   4.309   1.425   2.101  0.2491 -0.5452  0.3554
 8059TIP3   OH224140   3.024   0.933   1.455  0.0720 -0.1461  0.3006
 8059TIP3    H124141   3.016   1.028   1.468 -0.5594 -0.0677 -0.5837
 8059TIP3    H224142   3.075   0.924   1.375  1.2381 -0.5874  1.0711
 8060TIP3   OH224143   6.812   4.682   2.927  0.2613  0.1257  0.1825
 8060TIP3    H124144   6.889   4.702   2.872  0.7220  0.4344  0.9293
 8060TIP3    H224145   6.740   4.675   2.865  0.8376  0.1336 -0.5045
 8061TIP3   OH224146   2.429   2.229   2.033 -0.0012 -0.2140  0.3387
 8061TIP3    H124147   2.338   2.243   2.009 -0.4787  1.7734  2.8838
 8061TIP3    H224148   2.430   2.144   2.076 -0.9577  0.3184  1.4569
 8062TIP3   OH224149   0.207   5.106   0.196  0.1613  0.4190  0.4157
 8062TIP3    H124150   0.114   5.114   0.175  0.1323  0.7377  0.6561
 8062TIP3    H224151   0.219   5.162   0.273  0.4793  0.0983  0.6007
 8063TIP3   OH224152   4.097   1.623   0.085 -0.2247 -0.0472  0.4550
 8063TIP3    H124153   4.064   1.697   0.136 -0.5827  0.4133 -0.4113
 8063TIP3    H224154   4.146   1.663   0.013  1.8955 -0.7058  1.4503
 8064TIP3   OH224155   0.200   5.743   1.651 -0.4183  0.6545  0.2777
 8064TIP3    H124156   0.115   5.714   1.619 -0.7431  0.2205  1.4815
 8064TIP3    H224157   0.263   5.699   1.593 -0.9870  2.5795 -1.9395
 8065TIP3   OH224158   3.336   4.414   2.087 -0.9417 -0.1577  0.0291
 8065TIP3    H124159   3.344   4.481   2.156  0.5651 -0.4787  0.2073
 8065TIP3    H224160   3.256   4.367   2.110 -2.3175  1.8478 -0.3712
 8066TIP3   OH224161   7.024   1.500   1.763 -0.1034 -0.3502  0.7041
 8066TIP3    H124162   6.951   1.561   1.777 -1.5265 -1.2837 -1.8427
 8066TIP3    H224163   7.015   1.435   1.832 -0.1364  0.8928  1.9050
 8067TIP3   OH224164   1.655   1.211   0.136 -0.0529 -0.0793  0.1232
 8067TIP3    H124165   1.639   1.145   0.069 -1.2124  0.4809 -0.1909
 8067TIP3    H224166   1.745   1.196   0.164  0.3547 -0.5508 -1.3159
 8068TIP3   OH224167   1.746   2.159   4.901  0.3706 -0.0175  0.1662
 8068TIP3    H124168   1.834   2.137   4.932 -0.8438 -1.0259  3.3002
 8068TIP3    H224169   1.758   2.240   4.852  2.9109  0.6168  1.6088
 8069TIP3   OH224170   1.730   3.467   0.737 -0.2182  0.0059  0.3870
 8069TIP3    H124171   1.783   3.394   0.770 -0.7562 -0.1645  0.8884
 8069TIP3    H224172   1.767   3.545   0.780 -0.1626 -0.0736  0.4834
 8070TIP3   OH224173   1.455   1.378   2.452 -0.1409 -0.4903  0.1222
 8070TIP3    H124174   1.397   1.342   2.519 -0.7367  0.0795 -0.0890
 8070TIP3    H224175   1.502   1.301   2.419 -1.3296 -1.0811 -0.2534
 8071TIP3   OH224176   5.834   3.583   0.926 -0.7431 -0.7574 -0.1303
 8071TIP3    H124177   5.795   3.517   0.869 -0.2248 -1.4940  0.3550
 8071TIP3    H224178   5.844   3.539   1.010  1.6885 -0.7868 -0.3868
 8072TIP3   OH224179   1.563   0.584   4.368 -0.4105 -0.5088  0.0537
 8072TIP3    H124180   1.633   0.632   4.414 -0.9191 -1.4173  1.8606
 8072TIP3    H224181   1.494   0.649   4.356  0.0013 -0.0836 -0.0618
 8073TIP3   OH224182   3.378   1.979   4.763  0.0541  0.5783  0.1821
 8073TIP3    H124183   3.321   2.014   4.831 -1.0342 -2.1578  0.8318
 8073TIP3    H224184   3.319   1.931   4.705  1.4856 -1.2816  0.1422
 8074TIP3   OH224185   0.616   3.611   1.178 -0.4877  0.2462 -0.1174
 8074TIP3    H124186   0.650   3.521   1.184 -3.2905 -0.7767  3.2055
 8074TIP3    H224187   0.556   3.609   1.104  0.7453 -0.0704 -1.1438
 8075TIP3   OH224188   2.857   6.707   2.052  0.1209 -0.0863  0.1839
 8075TIP3    H124189   2.831   6.671   2.137  0.0384 -1.6268 -0.4658
 8075TIP3    H224190   2.951   6.720   2.059  0.3835 -1.7229 -0.0010
 8076TIP3   OH224191   3.904   3.060   0.269 -0.0314 -0.2805 -0.0956
 8076TIP3    H124192   3.950   2.981   0.241 -2.2594 -1.6165 -0.2440
 8076TIP3    H224193   3.838   3.075   0.201 -0.8555  0.6227  0.8693
 8077TIP3   OH224194   5.381   5.197   0.183 -0.9987 -0.2583  0.1411
 8077TIP3    H124195   5.364   5.203   0.089 -1.7081  0.9931  0.3264
 8077TIP3    H224196   5.320   5.129   0.214 -0.1759 -1.2838 -0.4032
 8078TIP3   OH224197   0.584   1.609   4.724  0.2712 -0.0503 -0.2380
 8078TIP3    H124198   0.664   1.617   4.671  0.5189  0.8250  0.2498
 8078TIP3    H224199   0.590   1.681   4.787 -1.0963  0.2528 -0.4416
 8079TIP3   OH224200   4.830   5.463   1.233 -0.2030  0.5362  0.3000
 8079TIP3    H124201   4.880   5.437   1.156 -0.2967  1.1243  0.0348
 8079TIP3    H224202   4.779   5.385   1.257  0.3738  0.1263  0.2068
 8080TIP3   OH224203   6.757   0.667   1.768  0.3014 -0.2929  0.5845
 8080TIP3    H124204   6.835   0.616   1.791  0.3977  0.4071  1.8843
 8080TIP3    H224205   6.788   0.731   1.704  0.2286 -1.6670 -0.8889
 8081TIP3   OH224206   4.664   2.354   3.781  0.1732 -0.2981  0.9199
 8081TIP3    H124207   4.744   2.362   3.833 -0.4813  2.1537  1.6836
 8081TIP3    H224208   4.692   2.371   3.691  0.6166 -0.0836  1.0952
 8082TIP3   OH224209   4.667   5.479   0.810 -0.2361 -0.3477 -0.0530
 8082TIP3    H124210   4.755   5.499   0.842 -0.4340 -0.7307  0.7305
 8082TIP3    H224211   4.617   5.455   0.888 -1.0373 -0.1524 -0.4908
 8083TIP3   OH224212   1.123   2.283   2.455 -0.1540  0.2978 -0.8041
 8083TIP3    H124213   1.083   2.360   2.417 -0.2462  0.4807 -0.3487
 8083TIP3    H224214   1.163   2.237   2.381  1.4199  1.6692 -0.8667
 8084TIP3   OH224215   3.863   1.180   0.159  0.1864  0.5296 -0.1042
 8084TIP3    H124216   3.816   1.233   0.224  1.9246  0.8720  0.9364
 8084TIP3    H224217   3.952   1.172   0.194  0.7465 -0.6534 -1.6709
 8085TIP3   OH224218   0.883   4.796   0.403  0.6284 -0.0129  0.0957
 8085TIP3    H124219   0.894   4.792   0.308  0.8909 -2.1237  0.1742
 8085TIP3    H224220   0.810   4.736   0.422  0.1375  0.8752  1.1869
 8086TIP3   OH224221   4.993   6.808   1.344  0.1001  0.0918  0.2993
 8086TIP3    H124222   5.043   6.784   1.266  1.1464 -0.6114  1.1679
 8086TIP3    H224223   5.022   6.748   1.411 -1.5029  0.0558  1.0071
 8087TIP3   OH224224   0.919   6.194   3.177  0.0387 -0.2967  0.7060
 8087TIP3    H124225   0.851   6.254   3.206 -0.4471 -0.0114 -0.9290
 8087TIP3    H224226   0.875   6.109   3.170  0.5348 -0.7117  2.2523
 8088TIP3   OH224227   4.677   4.510   3.089 -0.4689 -0.3331 -0.8972
 8088TIP3    H124228   4.739   4.438   3.076  2.0177  1.4297  0.2901
 8088TIP3    H224229   4.654   4.539   3.001  1.9313  0.1137 -1.4354
 8089TIP3   OH224230   7.183   3.444   4.945  0.3716  0.3435 -0.4187
 8089TIP3    H124231   7.113   3.381   4.929 -0.7535  1.7575 -1.2977
 8089TIP3    H224232   7.250   3.395   4.993 -1.0358 -1.1478  0.0832
 8090TIP3   OH224233   0.208   6.761   3.022  0.4777 -0.0496 -0.2335
 8090TIP3    H124234   0.169   6.807   3.096  1.6279  1.7515 -0.6881
 8090TIP3    H224235   0.136   6.708   2.987 -0.1620 -0.7797  1.9758
 8091TIP3   OH224236   2.086   1.301   2.432  0.3382  0.3625  0.4717
 8091TIP3    H124237   2.144   1.328   2.361  1.7485 -1.9780  0.6325
 8091TIP3    H224238   2.004   1.276   2.388  0.1614  1.6616  0.0203
 8092TIP3   OH224239   2.932   0.005   1.632 -0.1123 -0.1262  0.1633
 8092TIP3    H124240   2.984   0.029   1.709 -0.2772  1.2746 -0.1418
 8092TIP3    H224241   2.842   0.026   1.655 -0.5564 -2.2126  0.5518
 8093TIP3   OH224242   3.201   5.976   5.659 -0.0069  0.2312 -0.1491
 8093TIP3    H124243   3.119   5.928   5.663  0.2784 -0.3529 -0.9982
 8093TIP3    H224244   3.259   5.921   5.607  1.2646  0.1635  1.2566
 8094TIP3   OH224245   3.095   2.267   3.875  0.0170 -0.0947 -0.3143
 8094TIP3    H124246   3.027   2.202   3.891 -0.7803  0.2619 -2.0299
 8094TIP3    H224247   3.050   2.351   3.877  0.6354  0.2465 -0.2777
 8095TIP3   OH224248   4.227   3.605   4.967 -0.3521 -0.5735  0.4039
 8095TIP3    H124249   4.185   3.530   5.009  0.6124 -1.7588 -0.6938
 8095TIP3    H224250   4.160   3.640   4.908 -0.5523 -1.0460  0.3503
 8096TIP3   OH224251   2.899   4.554   1.459 -0.4941  0.2976 -0.3399
 8096TIP3    H124252   2.870   4.635   1.500 -1.0951 -0.0008 -0.1636
 8096TIP3    H224253   2.820   4.516   1.421 -0.6683 -1.3075  1.4990
 8097TIP3   OH224254   3.686   6.421   5.198  0.3526 -0.3317  0.6463
 8097TIP3    H124255   3.674   6.516   5.197  0.4138 -0.1889  3.7453
 8097TIP3    H224256   3.597   6.386   5.203  0.3557 -0.4138  0.1473
 8098TIP3   OH224257   3.432   1.097   5.323 -0.1783  0.0828 -0.0929
 8098TIP3    H124258   3.402   1.036   5.255  1.2480 -2.1470  1.1261
 8098TIP3    H224259   3.459   1.175   5.275 -2.4432 -0.0187 -1.7169
 8099TIP3   OH224260   0.936   6.169   0.437  0.4835 -0.0542 -0.0179
 8099TIP3    H124261   0.876   6.096   0.454 -0.6466  1.2823  2.0576
 8099TIP3    H224262   0.902   6.241   0.489  2.9824  1.2753 -0.0837
 8100TIP3   OH224263   6.847   0.168   0.844 -0.3027  0.3054  1.0628
 8100TIP3    H124264   6.916   0.229   0.819 -2.1107  2.2758  0.5792
 8100TIP3    H224265   6.842   0.173   0.939  0.7521 -0.5250  1.1840
 8101TIP3   OH224266   5.637   0.291   2.313  0.2694  0.1646 -0.1571
 8101TIP3    H124267   5.713   0.347   2.324 -0.5210  1.2677 -0.0974
 8101TIP3    H224268   5.613   0.301   2.221  0.1633 -0.1273 -0.1609
 8102TIP3   OH224269   1.180   5.184   1.608 -0.0213 -0.3685 -0.0761
 8102TIP3    H124270   1.264   5.228   1.597  0.1596 -0.1841  1.7045
 8102TIP3    H224271   1.203   5.097   1.640 -0.5011 -0.1791  0.8148
 8103TIP3   OH224272   2.924   1.943   1.204  0.5587  0.3529  0.0652
 8103TIP3    H124273   2.900   1.917   1.293  0.9075 -0.7983 -0.1534
 8103TIP3    H224274   3.018   1.961   1.208  0.6696 -0.1351 -0.1429
 8104TIP3   OH224275   5.205   2.517   3.975 -0.4526 -0.0474  0.1623
 8104TIP3    H124276   5.141   2.490   4.041 -0.3856 -0.8364 -0.0862
 8104TIP3    H224277   5.230   2.606   4.002 -0.8355 -0.1435  0.8821
 8105TIP3   OH224278   4.017   2.840   0.964  0.5201 -0.4702  0.3921
 8105TIP3    H124279   4.000   2.876   1.051  1.6765 -0.1373  0.4940
 8105TIP3    H224280   3.954   2.885   0.907 -0.7708 -1.2366  1.1385
 8106TIP3   OH224281   2.138   0.446   2.279 -0.4684  0.3394  0.3562
 8106TIP3    H124282   2.136   0.351   2.279  2.7412  0.1541  1.1113
 8106TIP3    H224283   2.157   0.470   2.370 -0.4760  1.6512  0.0395
 8107TIP3   OH224284   3.170   5.310   2.851 -0.4223  0.0762  0.0646
 8107TIP3    H124285   3.243   5.308   2.789  0.2795  0.1877  0.8784
 8107TIP3    H224286   3.186   5.386   2.906  0.1291 -1.2094  1.7543
 8108TIP3   OH224287   4.304   1.238   0.782  0.5526 -0.4512  0.2041
 8108TIP3    H124288   4.239   1.291   0.736 -0.0303 -1.4913 -0.2105
 8108TIP3    H224289   4.343   1.298   0.846 -0.7669  0.2131  0.4283
 8109TIP3   OH224290   5.668   3.593   5.154 -0.0970  0.0934  0.8456
 8109TIP3    H124291   5.675   3.681   5.116 -0.2724 -0.2154  0.0673
 8109TIP3    H224292   5.576   3.569   5.141  0.4241 -1.1191 -1.1150
 8110TIP3   OH224293   5.255   2.473   2.042  0.5093  0.2358  0.1032
 8110TIP3    H124294   5.333   2.477   2.097  1.0051 -4.2016  0.1096
 8110TIP3    H224295   5.273   2.532   1.969  2.9656  0.8540  1.1220
 8111TIP3   OH224296   5.720   6.091   4.204  0.2199 -0.4390 -0.1742
 8111TIP3    H124297   5.684   6.004   4.191  2.9354 -1.9945  1.5874
 8111TIP3    H224298   5.690   6.117   4.291  1.9992 -1.1129  0.6846
 8112TIP3   OH224299   3.969   1.011   3.881 -0.3179 -0.2250  0.0785
 8112TIP3    H124300   4.040   0.946   3.887  2.2701  2.2263 -1.3260
 8112TIP3    H224301   3.931   0.998   3.794  1.2696  0.9945 -0.8663
 8113TIP3   OH224302   7.148   3.249   0.882  0.0892  0.2462 -0.4653
 8113TIP3    H124303   7.172   3.332   0.841 -0.2182  1.0381  0.8892
 8113TIP3    H224304   7.191   3.182   0.828  0.2102  1.2583 -1.6739
 8114TIP3   OH224305   3.345   2.023   3.300 -0.2446  0.0775 -0.3259
 8114TIP3    H124306   3.269   2.055   3.250  0.4605  0.7254 -1.0014
 8114TIP3    H224307   3.420   2.063   3.258  0.2931  2.2471  2.3973
 8115TIP3   OH224308   2.271   3.926   1.947 -0.2443  0.2974 -0.4087
 8115TIP3    H124309   2.264   4.005   2.000  1.7594 -0.1403  0.6231
 8115TIP3    H224310   2.214   3.862   1.991  0.1004  0.4322  0.2426
 8116TIP3   OH224311   0.050   4.776   1.300  0.4965  0.4464 -0.2624
 8116TIP3    H124312  -0.004   4.718   1.352 -0.4458  0.2212 -1.4450
 8116TIP3    H224313   0.016   4.767   1.211  1.1636  1.8469 -0.6886
 8117TIP3   OH224314   0.307   6.614   0.951  0.2968  0.0347 -0.6753
 8117TIP3    H124315   0.388   6.602   0.902  0.7337 -1.4458  0.3523
 8117TIP3    H224316   0.289   6.528   0.989 -1.5930  0.4092 -0.6234
 8118TIP3   OH224317   2.723   2.663   3.120 -0.1847  0.7890  0.2106
 8118TIP3    H124318   2.635   2.697   3.137 -1.1881 -2.0160  1.1797
 8118TIP3    H224319   2.762   2.727   3.060 -3.6076  1.1235 -1.9458
 8119TIP3   OH224320   6.775   6.257   0.421 -0.0642  0.4031  0.0787
 8119TIP3    H124321   6.734   6.256   0.508  1.5515 -0.6731  0.8688
 8119TIP3    H224322   6.722   6.197   0.369 -0.5587  0.4210  0.5522
 8120TIP3   OH224323   5.218   0.605   3.443 -0.2623  0.0507  0.3394
 8120TIP3    H124324   5.150   0.537   3.442 -0.8307  0.6244 -0.5236
 8120TIP3    H224325   5.181   0.674   3.498 -0.2134  0.1900  0.1972
 8121TIP3   OH224326   7.179   3.535   5.728 -0.7514  0.1694  0.1392
 8121TIP3    H124327   7.200   3.590   5.804  0.5956  0.7875 -0.6325
 8121TIP3    H224328   7.103   3.577   5.688 -1.2612  0.0347  0.9579
 8122TIP3   OH224329   7.098   0.775   2.156  0.1270  0.3273 -0.5042
 8122TIP3    H124330   7.181   0.749   2.195  0.2728  0.3321 -0.8086
 8122TIP3    H224331   7.032   0.745   2.218  0.3458  0.1122 -0.3751
 8123TIP3   OH224332   0.969   5.499   1.286  0.0642 -0.3539  0.1512
 8123TIP3    H124333   0.945   5.481   1.377  0.2763  1.5899  0.6427
 8123TIP3    H224334   0.909   5.446   1.234  0.2287 -1.8541  1.3958
 8124TIP3   OH224335   5.703   5.505   1.491 -0.1203 -0.2570 -0.1362
 8124TIP3    H124336   5.706   5.472   1.401  1.5526 -0.4035 -0.0562
 8124TIP3    H224337   5.732   5.430   1.544 -0.3717  0.0636  0.4566
 8125TIP3   OH224338   0.695   4.829   2.953  0.6804  0.0654  0.0434
 8125TIP3    H124339   0.675   4.789   2.868 -1.5533  0.2545  0.4111
 8125TIP3    H224340   0.672   4.762   3.017  1.5120  0.2409  0.5375
 8126TIP3   OH224341   1.394   6.278   3.474 -0.1116 -0.4041 -0.1727
 8126TIP3    H124342   1.447   6.272   3.394  0.1227 -2.1273  0.0786
 8126TIP3    H224343   1.314   6.324   3.446  0.8400  0.8978 -0.8893
 8127TIP3   OH224344   4.205   5.753   3.846 -0.1743  0.1389  0.3285
 8127TIP3    H124345   4.188   5.834   3.894  0.3165  0.1985  0.4093
 8127TIP3    H224346   4.228   5.689   3.914 -1.1220 -0.2276  0.3187
 8128TIP3   OH224347   3.350   1.534   0.147  0.3872  0.0380 -0.2747
 8128TIP3    H124348   3.303   1.598   0.201 -0.0011 -1.6903  1.5502
 8128TIP3    H224349   3.303   1.534   0.064  0.1508  1.7914 -0.1900
 8129TIP3   OH224350   6.444   3.681   4.791  0.4121  0.0244  0.5649
 8129TIP3    H124351   6.371   3.667   4.852  1.0337 -1.5788  1.0070
 8129TIP3    H224352   6.402   3.691   4.706 -0.3400 -1.5168  0.7160
 8130TIP3   OH224353   3.691   5.544   1.747 -0.5776  0.2228  0.1924
 8130TIP3    H124354   3.717   5.496   1.826 -0.4971 -0.3660 -0.1841
 8130TIP3    H224355   3.716   5.486   1.675 -0.3961  0.8805 -0.2784
 8131TIP3   OH224356   6.404   4.846   4.550 -0.0030 -0.2234 -0.3634
 8131TIP3    H124357   6.443   4.913   4.606 -0.0460 -0.9624  0.5646
 8131TIP3    H224358   6.468   4.835   4.479  0.1931  0.5038 -0.3118
 8132TIP3   OH224359   6.677   5.442   4.549 -0.0070  0.0664  0.1622
 8132TIP3    H124360   6.707   5.453   4.459  1.7895  0.3116  0.7566
 8132TIP3    H224361   6.581   5.444   4.543  0.0726  2.2269 -1.4854
 8133TIP3   OH224362   6.570   5.006   1.049  0.0795 -0.0453  0.0857
 8133TIP3    H124363   6.522   5.085   1.022  1.3890  1.0914  0.9239
 8133TIP3    H224364   6.506   4.936   1.045 -1.5025  1.3194  0.6945
 8134TIP3   OH224365   2.098   2.869   1.607 -0.0914 -0.2956  0.2073
 8134TIP3    H124366   2.114   2.877   1.513 -0.1782 -0.7377  0.1555
 8134TIP3    H224367   2.004   2.884   1.617  0.1035  0.9573  0.3639
 8135TIP3   OH224368   3.353   0.708   0.729  0.4537 -0.4294  0.8796
 8135TIP3    H124369   3.350   0.722   0.634  0.6784 -2.2228  0.5724
 8135TIP3    H224370   3.415   0.774   0.760 -0.6269  1.0806 -0.0060
 8136TIP3   OH224371   0.122   2.141   0.956 -0.7412 -0.1364  0.1891
 8136TIP3    H124372   0.031   2.124   0.931 -0.6510 -1.3355  0.6166
 8136TIP3    H224373   0.116   2.210   1.022 -1.0344  2.5947 -2.4758
 8137TIP3   OH224374   6.596   6.025   1.223 -0.2318 -0.0607  0.3206
 8137TIP3    H124375   6.679   6.057   1.189 -1.5186  0.2675 -2.7969
 8137TIP3    H224376   6.555   6.101   1.263  0.7114 -0.1101  1.4273
 8138TIP3   OH224377   3.971   2.531   5.281 -0.1406  0.0461  0.1906
 8138TIP3    H124378   3.994   2.455   5.335 -1.7946  0.5171  1.6271
 8138TIP3    H224379   3.955   2.495   5.194  0.0857 -1.1075  0.6152
 8139TIP3   OH224380   5.358   0.961   2.642  0.3364 -0.0977  0.4478
 8139TIP3    H124381   5.410   0.928   2.715 -1.2057 -1.8912  0.7964
 8139TIP3    H224382   5.390   0.912   2.566  0.2090 -0.0733  0.3785
 8140TIP3   OH224383   3.472   5.636   5.476 -0.1976  0.5358 -0.0421
 8140TIP3    H124384   3.501   5.636   5.567 -0.1887 -0.6256 -0.0317
 8140TIP3    H224385   3.377   5.634   5.481 -0.1926 -0.4998 -0.0282
 8141TIP3   OH224386   4.178   3.868   1.203 -1.1328  0.9642 -0.0274
 8141TIP3    H124387   4.270   3.890   1.189 -1.0782 -0.0213 -1.4157
 8141TIP3    H224388   4.135   3.886   1.120 -1.4299 -2.1577 -0.6760
 8142TIP3   OH224389   4.332   6.784   4.717  0.7900  0.2461 -0.0385
 8142TIP3    H124390   4.416   6.814   4.682  1.5072 -0.4582  1.0182
 8142TIP3    H224391   4.346   6.779   4.812 -0.5115  0.3031  0.1690
 8143TIP3   OH224392   1.692   5.873   1.876  0.2870 -0.3575 -0.2721
 8143TIP3    H124393   1.712   5.904   1.965  1.9032  0.8593 -1.0008
 8143TIP3    H224394   1.711   5.779   1.879 -0.6438 -0.5234  0.9180
 8144TIP3   OH224395   3.809   0.583   1.774  0.3268  0.4962 -0.0673
 8144TIP3    H124396   3.777   0.652   1.716 -1.0238  0.2727  0.3670
 8144TIP3    H224397   3.832   0.628   1.855  0.0150  0.5146  0.0114
 8145TIP3   OH224398   2.391   6.682   5.348  0.2742  0.2854  0.2239
 8145TIP3    H124399   2.449   6.755   5.368  0.3115  0.2810  0.1311
 8145TIP3    H224400   2.334   6.715   5.278  1.2421 -0.2539 -0.8574
 8146TIP3   OH224401   2.908   4.271   2.122 -0.2497  0.4282  0.0124
 8146TIP3    H124402   2.908   4.185   2.166 -0.0898  0.2826 -0.2691
 8146TIP3    H224403   2.815   4.290   2.106 -0.3955  0.9676  1.3454
 8147TIP3   OH224404   6.521   6.682   3.663 -0.3650  0.0957 -0.2518
 8147TIP3    H124405   6.447   6.732   3.628  0.6119  2.1879  0.4907
 8147TIP3    H224406   6.558   6.637   3.587 -1.9196 -0.3727 -0.7604
 8148TIP3   OH224407   3.108   0.917   2.938  0.1064 -0.0110 -0.3175
 8148TIP3    H124408   3.040   0.979   2.911 -1.1171 -0.7569  0.9205
 8148TIP3    H224409   3.062   0.850   2.987  2.0423  1.6233  4.4202
 8149TIP3   OH224410   1.884   4.149   5.304  0.0847 -0.3918  0.1453
 8149TIP3    H124411   1.798   4.153   5.263 -1.2043  1.2392  2.7709
 8149TIP3    H224412   1.887   4.064   5.348  0.4419 -1.0509 -1.1048
 8150TIP3   OH224413   6.385   2.779   1.606 -0.1119  0.3821 -0.2363
 8150TIP3    H124414   6.307   2.728   1.630 -0.7156  1.3267 -0.1596
 8150TIP3    H224415   6.370   2.866   1.643  1.8955  0.0642  1.5383
 8151TIP3   OH224416   2.371   0.007   1.655 -0.7250 -0.3740 -0.0977
 8151TIP3    H124417   2.312  -0.033   1.591 -1.1562  0.8809 -0.5194
 8151TIP3    H224418   2.373   0.100   1.631 -2.3346  0.5384  2.7395
 8152TIP3   OH224419   4.808   1.400   4.890  0.5048  0.1416 -0.1150
 8152TIP3    H124420   4.788   1.320   4.842  0.8655 -1.6221  2.4978
 8152TIP3    H224421   4.729   1.419   4.940  1.0816  0.3068  0.7514
 8153TIP3   OH224422   2.490   2.501   4.214  0.1203  0.6013 -1.1197
 8153TIP3    H124423   2.472   2.427   4.156  0.4546 -2.9010  2.7527
 8153TIP3    H224424   2.566   2.475   4.265  1.4825  4.5685 -0.7261
 8154TIP3   OH224425   4.615   2.603  -0.003  0.2511  0.3667  0.6396
 8154TIP3    H124426   4.572   2.521   0.020  0.1897  0.8018  2.2074
 8154TIP3    H224427   4.545   2.669   0.006  0.2415  0.5773 -0.8090
 8155TIP3   OH224428   1.484   4.542   3.376 -0.4949 -0.3371 -0.4922
 8155TIP3    H124429   1.533   4.554   3.295 -1.4073  1.5903 -0.8240
 8155TIP3    H224430   1.444   4.628   3.393  1.5931  0.0898  3.3057
 8156TIP3   OH224431   5.880   4.653   1.309 -0.1152 -0.3122  0.1415
 8156TIP3    H124432   5.902   4.690   1.394 -1.9580 -0.1027  0.5762
 8156TIP3    H224433   5.790   4.682   1.293  0.1379 -0.4752 -1.8141
 8157TIP3   OH224434   3.037   6.271   0.034  0.4469  0.3832 -0.1903
 8157TIP3    H124435   3.111   6.293   0.090 -0.4771  1.0740  0.7758
 8157TIP3    H224436   3.032   6.175   0.038  0.5526  0.4092  0.7034
 8158TIP3   OH224437   2.092   2.905   1.311  0.4491  0.1913 -0.1569
 8158TIP3    H124438   2.018   2.850   1.285  2.3235 -2.2943 -0.6235
 8158TIP3    H224439   2.073   2.990   1.272 -2.0171 -0.3937 -0.4390
 8159TIP3   OH224440   6.999   6.747   0.097  0.1217 -0.3363 -0.3084
 8159TIP3    H124441   6.979   6.799   0.175  1.1085  2.8595 -1.9908
 8159TIP3    H224442   6.917   6.703   0.075 -1.8391  3.0939 -0.5071
 8160TIP3   OH224443   6.963   0.798   0.282 -0.1545 -0.3330  0.0109
 8160TIP3    H124444   6.918   0.874   0.319 -0.3978 -0.4099 -0.1285
 8160TIP3    H224445   7.055   0.822   0.283 -0.3274  0.3918 -1.0428
 8161TIP3   OH224446   5.040   6.061   4.397 -0.4538 -0.2164 -0.2412
 8161TIP3    H124447   4.978   6.031   4.463 -0.1141  0.3907  0.3604
 8161TIP3    H224448   5.026   6.155   4.391  1.0338  0.0986  0.6011
 8162TIP3   OH224449   3.241   2.921   1.833 -0.3240 -0.1108  0.3034
 8162TIP3    H124450   3.203   2.938   1.747 -0.3570  0.4874  0.4330
 8162TIP3    H224451   3.332   2.897   1.814 -0.7573 -1.5789 -0.0061
 8163TIP3   OH224452   3.237   0.966   2.500  0.0391 -0.3221  0.3203
 8163TIP3    H124453   3.287   0.978   2.580  0.3141 -0.2188  0.1338
 8163TIP3    H224454   3.150   0.940   2.530  0.0309  0.0868  0.6662
 8164TIP3   OH224455   0.208   6.311   2.014 -0.1988  0.0539 -0.2078
 8164TIP3    H124456   0.138   6.268   2.064  0.1672 -1.0025 -0.5671
 8164TIP3    H224457   0.197   6.277   1.925  0.9333 -0.3452 -0.2092
 8165TIP3   OH224458   1.064   4.391   2.050 -0.1511 -0.1985  0.0060
 8165TIP3    H124459   1.117   4.470   2.051  0.0431 -0.3090  1.8546
 8165TIP3    H224460   1.061   4.365   1.958 -0.7329  2.2655 -0.7488
 8166TIP3   OH224461   6.524   1.425   4.151 -0.1332 -0.3626 -0.3087
 8166TIP3    H124462   6.509   1.340   4.109 -2.5353 -0.0462 -0.1941
 8166TIP3    H224463   6.519   1.406   4.245  1.2815 -0.3892 -0.2152
 8167TIP3   OH224464   1.767   3.332   3.950  0.5426 -0.4630 -0.0370
 8167TIP3    H124465   1.838   3.279   3.988  1.5965  0.1651 -1.0558
 8167TIP3    H224466   1.749   3.289   3.866 -1.7779 -1.8570  1.0733
 8168TIP3   OH224467   1.430   1.085   3.727 -0.3913  0.2096 -0.1782
 8168TIP3    H124468   1.507   1.048   3.683 -0.4556 -0.3843  0.2032
 8168TIP3    H224469   1.466   1.127   3.805 -0.2808  1.2403 -0.7606
 8169TIP3   OH224470   0.455   0.295   3.444 -0.1976 -0.5040 -0.2740
 8169TIP3    H124471   0.464   0.214   3.494  1.3960  0.8751  1.7956
 8169TIP3    H224472   0.376   0.336   3.477 -0.8772 -1.0535 -1.1611
 8170TIP3   OH224473  -0.025   5.234   5.376 -0.3657  0.5815 -0.1249
 8170TIP3    H124474   0.005   5.191   5.296  0.5412  0.7267  0.1229
 8170TIP3    H224475   0.028   5.314   5.381  0.0865  0.2366  0.9748
 8171TIP3   OH224476   3.069   3.046   4.093  0.5065 -0.4083  0.2916
 8171TIP3    H124477   3.141   2.997   4.134 -0.4552 -1.7470  0.4425
 8171TIP3    H224478   2.994   2.987   4.098 -0.7150  1.0821  0.4477
 8172TIP3   OH224479   5.838   4.331   5.195  0.0538  0.2655 -0.5543
 8172TIP3    H124480   5.826   4.391   5.269 -0.8263 -0.9145  0.2934
 8172TIP3    H224481   5.920   4.285   5.216  0.5402  0.8868 -1.0300
 8173TIP3   OH224482   3.044   6.084   3.106  0.1769 -0.1495 -0.1765
 8173TIP3    H124483   2.957   6.102   3.143  0.4818 -0.0397  0.5026
 8173TIP3    H224484   3.026   6.030   3.029 -0.5268  0.2747 -0.3207
 8174TIP3   OH224485   0.422   1.055   4.645  0.0139  0.3255 -0.2935
 8174TIP3    H124486   0.459   1.110   4.715  0.1877 -0.0523 -0.0867
 8174TIP3    H224487   0.488   1.058   4.576  1.5307 -2.1223  0.9156
 8175TIP3   OH224488   3.412   0.389   0.658  0.1631 -0.5685 -0.0234
 8175TIP3    H124489   3.333   0.338   0.641 -0.3891  0.4444 -0.6059
 8175TIP3    H224490   3.430   0.433   0.574  1.2661 -0.6776  0.1435
 8176TIP3   OH224491   2.371   3.011   0.872  0.1304  0.2505  0.7654
 8176TIP3    H124492   2.437   3.043   0.810 -0.4314 -0.7646 -0.3928
 8176TIP3    H224493   2.297   3.071   0.861  0.7962  1.3724  2.0449
 8177TIP3   OH224494   2.945   2.630   5.026 -1.0190  0.5228  0.6434
 8177TIP3    H124495   2.982   2.713   5.056  0.5980 -0.2658  0.9624
 8177TIP3    H224496   2.976   2.620   4.936  1.8613 -1.3334  1.7105
 8178TIP3   OH224497   6.015   6.767   5.854  0.0625  0.2597  0.3829
 8178TIP3    H124498   5.976   6.848   5.888 -0.4062 -0.4515  1.6111
 8178TIP3    H224499   5.941   6.719   5.817  0.6880  1.4054 -2.5807
 8179TIP3   OH224500   2.634   1.628   1.430 -0.5084 -0.2007  0.4166
 8179TIP3    H124501   2.617   1.538   1.402 -0.3787 -0.0951 -0.0104
 8179TIP3    H224502   2.553   1.676   1.410  0.0149  0.1479 -0.9628
 8180TIP3   OH224503   5.151   4.401   1.295  0.3151  0.0588 -0.1939
 8180TIP3    H124504   5.119   4.337   1.359  0.1690 -0.2412 -0.5663
 8180TIP3    H224505   5.103   4.481   1.315 -1.7324 -0.7462 -1.6237
 8181TIP3   OH224506   5.023   3.611   2.278  0.1590 -0.1406 -0.1846
 8181TIP3    H124507   4.978   3.620   2.194 -1.2308 -1.0883  0.4156
 8181TIP3    H224508   5.056   3.521   2.278 -0.9054 -0.5547  0.7461
 8182TIP3   OH224509   1.171   3.140   0.341  0.5410  0.1192  0.0705
 8182TIP3    H124510   1.143   3.231   0.336  1.3739  0.4249  0.7627
 8182TIP3    H224511   1.267   3.144   0.347  0.7092 -0.8590 -1.4131
 8183TIP3   OH224512   4.895   1.264   3.316  0.1698  0.1835 -0.4421
 8183TIP3    H124513   4.907   1.358   3.311 -1.2850  0.3569 -1.4565
 8183TIP3    H224514   4.800   1.252   3.320  0.2357 -1.2737 -2.0448
 8184TIP3   OH224515   6.188   6.382   3.539  0.1827  0.0351 -0.4620
 8184TIP3    H124516   6.215   6.293   3.561  0.9200  0.6151  1.1724
 8184TIP3    H224517   6.121   6.404   3.604  0.2893  0.7994 -0.5989
 8185TIP3   OH224518   5.059   4.231   2.991  0.0656  0.0444 -0.2210
 8185TIP3    H124519   5.074   4.156   3.047  0.1029  0.8805  0.9126
 8185TIP3    H224520   4.964   4.235   2.980  0.0704 -0.2119 -0.3459
 8186TIP3   OH224521   4.736   5.175   0.331 -0.1921  0.6252 -0.4858
 8186TIP3    H124522   4.814   5.153   0.280 -0.4926  1.2372 -1.2384
 8186TIP3    H224523   4.722   5.268   0.316 -0.6545  0.6828  0.2247
 8187TIP3   OH224524   5.056   0.553   2.640 -0.1576 -0.2898  0.1514
 8187TIP3    H124525   5.134   0.498   2.637 -0.5428 -0.8244 -1.4045
 8187TIP3    H224526   5.075   0.626   2.581 -0.3769  0.2226  0.7067
 8188TIP3   OH224527   6.832   3.808   4.242  0.1272  0.4180 -0.3741
 8188TIP3    H124528   6.816   3.729   4.294 -1.1451  0.7177 -0.2577
 8188TIP3    H224529   6.922   3.800   4.212  0.1276 -0.9145 -0.0771
 8189TIP3   OH224530   6.576   1.387   5.373 -0.0060 -0.1035 -0.0031
 8189TIP3    H124531   6.660   1.407   5.332 -0.6149 -0.0363 -1.2618
 8189TIP3    H224532   6.524   1.467   5.362 -1.1532 -1.0326 -1.6826
 8190TIP3   OH224533   1.815   6.163   5.211  0.0372 -0.8649  0.8023
 8190TIP3    H124534   1.828   6.207   5.127 -1.5863 -1.5082  0.1830
 8190TIP3    H224535   1.734   6.198   5.246 -0.3103 -1.9857  1.1858
 8191TIP3   OH224536   3.179   2.178   5.449 -0.1861  0.0562 -0.1381
 8191TIP3    H124537   3.088   2.153   5.461 -0.2711 -0.2524 -1.2823
 8191TIP3    H224538   3.175   2.271   5.425 -0.2471 -0.0881 -0.7008
 8192TIP3   OH224539   4.682   4.528   3.711  0.6079 -0.4640  0.0597
 8192TIP3    H124540   4.679   4.608   3.659  2.3885 -1.0872 -1.0904
 8192TIP3    H224541   4.618   4.470   3.670 -0.2536  0.1372  0.5294
 8193TIP3   OH224542   4.973   1.365   0.419 -0.9723 -0.3309  0.1138
 8193TIP3    H124543   4.893   1.413   0.398 -1.7662 -1.5451  0.2433
 8193TIP3    H224544   5.041   1.404   0.363 -2.0663 -0.5489 -1.4211
 8194TIP3   OH224545   0.025   0.832   0.224  0.2574  1.0229 -0.0194
 8194TIP3    H124546   0.102   0.823   0.168  0.0787 -2.2287  0.0524
 8194TIP3    H224547   0.033   0.919   0.262  2.0459  2.1310 -2.6502
 8195TIP3   OH224548   2.310   0.851   1.536 -0.0537 -0.5816 -0.0150
 8195TIP3    H124549   2.269   0.913   1.477  1.8741  1.3578  0.5680
 8195TIP3    H224550   2.279   0.876   1.623  0.5286 -0.5944  0.2026
 8196TIP3   OH224551   5.945   3.175   0.790  0.0332 -0.1934 -0.9503
 8196TIP3    H124552   6.032   3.192   0.825 -0.2783 -0.1496 -0.1828
 8196TIP3    H224553   5.888   3.168   0.867 -1.0670  2.0111 -1.4692
 8197TIP3   OH224554   2.193   6.188   0.176  0.0160 -0.3225  0.4624
 8197TIP3    H124555   2.288   6.181   0.161  0.0239 -0.0649  0.3891
 8197TIP3    H224556   2.154   6.140   0.103  0.0253  1.7467 -0.9806
 8198TIP3   OH224557   3.761   4.971   5.732 -1.2828  0.0778  0.0423
 8198TIP3    H124558   3.670   4.991   5.709 -1.3253 -0.8443 -0.6453
 8198TIP3    H224559   3.756   4.894   5.788 -0.9906  0.7308  0.9859
 8199TIP3   OH224560   5.291   3.642   3.993  0.6536 -0.7132  0.4493
 8199TIP3    H124561   5.296   3.563   4.046 -0.0432  0.2727  2.0429
 8199TIP3    H224562   5.380   3.678   3.995  0.8508 -1.1708  0.1387
 8200TIP3   OH224563   1.958   0.966   5.682 -0.4074 -0.2165 -0.1075
 8200TIP3    H124564   1.891   0.913   5.724 -1.2846  0.0838 -1.0960
 8200TIP3    H224565   1.912   1.043   5.649  0.1816 -0.5397 -1.8156
 8201TIP3   OH224566   6.590   0.263   3.401  0.1820 -0.1875 -0.1563
 8201TIP3    H124567   6.587   0.206   3.324 -1.0284  0.1664 -0.3853
 8201TIP3    H224568   6.499   0.270   3.430  0.5844 -0.0997  1.1609
 8202TIP3   OH224569   1.478   1.335   1.126  0.2404  0.2090 -0.4875
 8202TIP3    H124570   1.458   1.401   1.060  1.1090 -0.7368 -1.7724
 8202TIP3    H224571   1.396   1.322   1.173 -0.6877  0.2456 -2.0220
 8203TIP3   OH224572   6.935   6.179   4.947 -0.3974 -0.0955  0.4668
 8203TIP3    H124573   6.917   6.244   5.015 -1.1707 -0.7616  0.9201
 8203TIP3    H224574   6.853   6.172   4.899  0.5425  1.4693 -1.5510
 8204TIP3   OH224575   1.100   3.126   1.479 -0.0462  0.0045  0.2127
 8204TIP3    H124576   1.187   3.118   1.441  0.6618 -2.4181  2.0581
 8204TIP3    H224577   1.095   3.215   1.512  2.0516 -0.0208  0.7146
 8205TIP3   OH224578   1.902  -0.003   4.818 -0.4596  0.2591  0.2979
 8205TIP3    H124579   1.811   0.026   4.822 -0.1577  1.6856 -1.6989
 8205TIP3    H224580   1.952   0.067   4.860 -0.2162 -0.2229  0.8249
 8206TIP3   OH224581   0.877   0.496   5.212  0.4171 -0.1369 -0.0565
 8206TIP3    H124582   0.943   0.474   5.278 -0.5791 -0.5796  0.8168
 8206TIP3    H224583   0.858   0.589   5.227 -0.0102 -0.3054  0.4783
 8207TIP3   OH224584   3.672   1.887   0.835  0.2368 -0.5560 -0.2910
 8207TIP3    H124585   3.666   1.842   0.751 -0.9724  0.3011 -0.6887
 8207TIP3    H224586   3.751   1.852   0.875  1.2903 -0.3998 -2.1251
 8208TIP3   OH224587   3.462   0.688   3.318 -0.0362 -0.2032 -0.0086
 8208TIP3    H124588   3.396   0.741   3.272  0.4244  1.0388  0.7277
 8208TIP3    H224589   3.504   0.637   3.249  0.4147  1.3776 -0.9336
 8209TIP3   OH224590   4.010   5.251   4.531 -0.2156 -0.2793 -0.3010
 8209TIP3    H124591   4.081   5.316   4.534 -1.0925  0.6859  1.1973
 8209TIP3    H224592   4.054   5.167   4.544  0.6500  0.3364  1.0631
 8210TIP3   OH224593   0.550   3.907   5.396 -0.6007  0.1557 -0.2285
 8210TIP3    H124594   0.529   3.900   5.303 -4.3071 -1.5019  0.5713
 8210TIP3    H224595   0.585   3.996   5.406 -1.2673  0.8264 -2.9802
 8211TIP3   OH224596   5.633   2.928   0.251 -0.1208  0.0057 -0.0613
 8211TIP3    H124597   5.581   2.935   0.331 -2.9678 -0.1381 -1.7461
 8211TIP3    H224598   5.633   2.834   0.231  1.1576 -0.0364  0.1078
 8212TIP3   OH224599   7.087   4.787   2.843  0.1344  0.7713  0.1028
 8212TIP3    H124600   7.102   4.878   2.866 -0.7372  0.8716  0.3034
 8212TIP3    H224601   7.157   4.766   2.780  1.5602  0.9680  1.5636
 8213TIP3   OH224602   1.747   4.469   0.695  0.1456 -0.0999 -0.5016
 8213TIP3    H124603   1.750   4.468   0.600 -0.4975  1.6568 -0.5698
 8213TIP3    H224604   1.654   4.476   0.717  0.3631  0.9684  0.1936
 8214TIP3   OH224605   2.320   5.193   2.161 -0.1297  0.0893 -0.2494
 8214TIP3    H124606   2.228   5.196   2.136 -0.1634  0.9484 -0.0333
 8214TIP3    H224607   2.322   5.227   2.251  0.5408  1.2694 -0.6908
 8215TIP3   OH224608   5.639   2.652   4.916 -0.1478  0.0838 -0.2811
 8215TIP3    H124609   5.665   2.733   4.960 -0.6728 -0.2213  0.6228
 8215TIP3    H224610   5.721   2.612   4.889  0.1533  0.5922 -0.1379
 8216TIP3   OH224611   5.846   0.497   1.140 -0.0616  0.0523 -0.9483
 8216TIP3    H124612   5.791   0.563   1.098 -1.3868 -1.0331 -1.0067
 8216TIP3    H224613   5.882   0.446   1.067 -0.2844 -0.2277 -0.8666
 8217TIP3   OH224614   4.558   2.361   4.910 -0.3922  0.2722  0.0543
 8217TIP3    H124615   4.522   2.412   4.983 -0.4726  0.3262 -0.0230
 8217TIP3    H224616   4.639   2.325   4.944 -0.8289 -0.3712  0.4363
 8218TIP3   OH224617   1.832   3.565   2.201  0.3118  0.0104  0.5131
 8218TIP3    H124618   1.864   3.586   2.113 -0.3508 -0.0204  0.2625
 8218TIP3    H224619   1.841   3.470   2.208  0.5999  0.0404  0.5772
 8219TIP3   OH224620   6.559   6.131   0.324  0.2602  0.2802  0.4016
 8219TIP3    H124621   6.528   6.046   0.293  1.5954  0.1675 -0.7352
 8219TIP3    H224622   6.513   6.145   0.407 -1.0404 -0.8814 -0.0888
 8220TIP3   OH224623   2.937   4.815   5.589  0.4417  0.2868  0.1384
 8220TIP3    H124624   3.031   4.823   5.569 -0.1866  2.0854 -2.6515
 8220TIP3    H224625   2.908   4.741   5.536  0.1534  0.2464  0.3554
 8221TIP3   OH224626   4.576   4.811   4.845 -0.4152 -0.2349  0.6017
 8221TIP3    H124627   4.630   4.796   4.768 -0.4062  1.2176  0.3049
 8221TIP3    H224628   4.521   4.886   4.822 -1.7211 -0.9328  1.3347
 8222TIP3   OH224629   1.656   2.066   3.553  0.4592 -0.0574 -0.1358
 8222TIP3    H124630   1.734   2.012   3.553  0.4662 -0.0688  1.0508
 8222TIP3    H224631   1.594   2.019   3.498  0.2993 -1.5529  1.2658
 8223TIP3   OH224632   1.237   4.493   4.719  0.6380  0.3583 -0.6964
 8223TIP3    H124633   1.307   4.472   4.781 -0.2562  0.5441  0.4009
 8223TIP3    H224634   1.161   4.446   4.751 -0.2983  1.8348 -0.6451
 8224TIP3   OH224635   0.524   1.828   4.886 -0.2079 -0.0913  0.0252
 8224TIP3    H124636   0.442   1.788   4.856  0.1305  0.0116 -1.0997
 8224TIP3    H224637   0.540   1.790   4.972 -0.8476 -0.9934 -0.2450
 8225TIP3   OH224638   6.906   5.483   5.686 -0.0284  0.0645  0.6658
 8225TIP3    H124639   6.968   5.526   5.627 -1.5938  0.6261 -0.6201
 8225TIP3    H224640   6.859   5.421   5.631 -1.6910  0.7690  1.2517
 8226TIP3   OH224641   4.238   3.552   1.289  0.7262  0.0678 -0.1103
 8226TIP3    H124642   4.176   3.571   1.219 -0.6554  0.6731  1.2131
 8226TIP3    H224643   4.226   3.623   1.352  2.1541 -0.2801  0.5906
 8227TIP3   OH224644   5.830   5.229   4.093  0.9130  0.4609 -0.6492
 8227TIP3    H124645   5.764   5.162   4.111  1.3454 -0.0007 -0.7655
 8227TIP3    H224646   5.789   5.287   4.029  0.4067  0.5098 -0.2818
 8228TIP3   OH224647   4.006   5.575   2.913 -0.2566 -0.0341 -0.8452
 8228TIP3    H124648   4.015   5.630   2.991 -0.0755 -0.1467 -0.7829
 8228TIP3    H224649   4.087   5.590   2.863  0.4622 -1.2887 -0.1359
 8229TIP3   OH224650   5.135   4.906   2.190  0.1010  0.4147 -0.0083
 8229TIP3    H124651   5.131   4.998   2.165  0.7391  0.5092  0.2249
 8229TIP3    H224652   5.183   4.905   2.273 -2.4012  0.1713  1.5452
 8230TIP3   OH224653   4.106   3.460   2.056 -0.1373 -0.2518  0.2188
 8230TIP3    H124654   4.050   3.382   2.057 -0.4251 -0.0458  1.0285
 8230TIP3    H224655   4.184   3.434   2.105 -0.6848  0.2712  1.4128
 8231TIP3   OH224656   3.833   1.962   3.117  0.6581 -0.2331  0.1565
 8231TIP3    H124657   3.778   1.937   3.191 -0.2703 -0.3682 -0.5492
 8231TIP3    H224658   3.785   2.033   3.074 -0.1767 -1.8432 -1.7925
 8232TIP3   OH224659   1.050   5.185   2.938  0.1320  0.0676  0.0044
 8232TIP3    H124660   1.107   5.256   2.908 -1.9066  1.8214  0.0749
 8232TIP3    H224661   1.099   5.144   3.009  1.4540  1.2784 -0.1633
 8233TIP3   OH224662   0.241   4.481   2.174 -0.3656 -0.2377  0.1351
 8233TIP3    H124663   0.328   4.517   2.189 -0.3659  0.1629 -0.7628
 8233TIP3    H224664   0.222   4.430   2.253  0.6929 -0.3621  0.3282
 8234TIP3   OH224665   5.723   2.284   4.822  0.4304  0.0282  0.3192
 8234TIP3    H124666   5.650   2.331   4.782 -0.2152  0.1920  1.6654
 8234TIP3    H224667   5.785   2.352   4.847  0.2405  0.0357  0.7759
 8235TIP3   OH224668   5.590   3.678   5.549  0.5213 -0.4780  0.3090
 8235TIP3    H124669   5.673   3.661   5.505 -0.1295  0.7425 -1.5037
 8235TIP3    H224670   5.606   3.756   5.602  1.0198 -1.3462  1.4769
 8236TIP3   OH224671   3.372   1.004   3.960  0.0792  0.2253 -0.2057
 8236TIP3    H124672   3.461   1.010   3.924  0.5659 -0.0738  0.9151
 8236TIP3    H224673   3.384   0.969   4.048 -1.2065 -0.3247 -0.2339
 8237TIP3   OH224674   6.269   2.342   5.586 -0.6046 -0.0278 -0.1768
 8237TIP3    H124675   6.322   2.334   5.507  0.3301  1.7227  0.2165
 8237TIP3    H224676   6.263   2.253   5.620 -1.0874 -0.8226 -2.2353
 8238TIP3   OH224677   6.175   1.318   1.439 -0.0099 -0.8434 -0.2883
 8238TIP3    H124678   6.207   1.334   1.528 -3.3789 -1.8310  1.2578
 8238TIP3    H224679   6.168   1.406   1.400  1.1313 -0.3648  0.5183
 8239TIP3   OH224680   3.986   6.745   4.627  0.3904 -0.3340 -0.2789
 8239TIP3    H124681   4.015   6.667   4.580  0.5757 -0.2179 -0.3562
 8239TIP3    H224682   4.028   6.818   4.582  1.0364 -0.2590  0.4165
 8240TIP3   OH224683   4.438   5.114   4.502 -0.7012  0.0469 -0.3311
 8240TIP3    H124684   4.461   5.057   4.576 -1.0787  0.3523  0.0233
 8240TIP3    H224685   4.387   5.058   4.444 -0.4405 -0.1822 -0.3434
 8241TIP3   OH224686   2.859   0.073   3.128  0.0075 -0.1610  0.2393
 8241TIP3    H124687   2.796   0.010   3.093 -0.0758 -0.5868  1.1323
 8241TIP3    H224688   2.807   0.132   3.183 -0.0169  1.0913 -1.0677
 8242TIP3   OH224689   4.583   5.034   3.930 -0.4751  0.0408  0.1008
 8242TIP3    H124690   4.492   5.059   3.942 -0.3601  0.7074 -0.3927
 8242TIP3    H224691   4.583   4.938   3.935 -1.0616  0.0872  1.0113
 8243TIP3   OH224692   4.705   6.449   1.294  0.5769 -0.8277  0.0212
 8243TIP3    H124693   4.669   6.361   1.303  2.8367 -1.8047  0.1616
 8243TIP3    H224694   4.797   6.440   1.317  0.9124  1.5686 -0.0972
 8244TIP3   OH224695   6.389   6.196   1.306 -0.0968  0.1875  0.0965
 8244TIP3    H124696   6.332   6.238   1.241  0.1786 -0.3878 -0.5347
 8244TIP3    H224697   6.421   6.268   1.360 -0.3635  0.6776 -0.3852
 8245TIP3   OH224698   3.075   2.644   4.761 -0.4630  0.5369  0.1420
 8245TIP3    H124699   3.155   2.684   4.795 -1.5454  0.8900  2.5117
 8245TIP3    H224700   3.037   2.710   4.702  1.0388  0.2808 -1.1610
 8246TIP3   OH224701   2.724   6.038   0.055  0.4992 -0.2563 -0.9577
 8246TIP3    H124702   2.787   6.031  -0.017 -1.0533 -1.5976 -2.2752
 8246TIP3    H224703   2.694   5.949   0.070  0.8295 -0.0298  1.4690
 8247TIP3   OH224704   4.527   6.535   2.716  0.4668  0.0077 -0.3445
 8247TIP3    H124705   4.618   6.548   2.744  0.3291 -0.8061  0.5388
 8247TIP3    H224706   4.510   6.607   2.656  0.9652  1.5257  1.2454
 8248TIP3   OH224707   0.347   1.419   5.591  0.4048  0.2956  0.5750
 8248TIP3    H124708   0.290   1.472   5.535  0.2820  0.4449  0.8354
 8248TIP3    H224709   0.291   1.349   5.623 -0.7841  2.4405  3.7962
 8249TIP3   OH224710   5.125   1.900   1.748 -0.1770  0.1711  0.3017
 8249TIP3    H124711   5.032   1.901   1.770 -0.0714  0.6219  0.7340
 8249TIP3    H224712   5.166   1.954   1.815  0.0267  2.5199 -1.6157
 8250TIP3   OH224713   6.829   2.591   5.431  0.2747 -0.2213  0.0270
 8250TIP3    H124714   6.810   2.618   5.521 -2.0025 -0.8585 -0.2041
 8250TIP3    H224715   6.912   2.633   5.410 -0.4962  2.1848  1.4829
 8251TIP3   OH224716   3.432   2.433   4.577 -0.2736  0.0421  0.7709
 8251TIP3    H124717   3.387   2.403   4.656  0.1129 -2.0707  0.2377
 8251TIP3    H224718   3.370   2.415   4.506  0.7339 -1.4326  0.2172
 8252TIP3   OH224719   2.386   4.386   0.332 -0.7040 -0.0016  0.1449
 8252TIP3    H124720   2.315   4.449   0.341  0.1802  0.8402  1.6878
 8252TIP3    H224721   2.375   4.326   0.405  0.8599  0.9190  1.2089
 8253TIP3   OH224722   5.303   1.134   0.684  0.1757  0.0153 -0.0109
 8253TIP3    H124723   5.239   1.200   0.709  0.8593  1.0311 -0.8187
 8253TIP3    H224724   5.313   1.146   0.589 -0.3629 -1.8863 -0.3334
 8254TIP3   OH224725   2.631   0.266   5.692 -0.0948  0.1983  0.0565
 8254TIP3    H124726   2.664   0.187   5.735 -2.8434 -0.5501  0.9355
 8254TIP3    H224727   2.644   0.250   5.599  2.4473  0.2297  0.3254
 8255TIP3   OH224728   6.277   4.724   5.383 -0.4123  0.3250  0.1957
 8255TIP3    H124729   6.220   4.740   5.308  0.8425  1.9920 -0.4754
 8255TIP3    H224730   6.346   4.667   5.350 -0.5351  0.0261  0.4426
 8256TIP3   OH224731   3.434   5.514   0.199 -0.6286 -0.2650 -0.1259
 8256TIP3    H124732   3.397   5.574   0.133 -1.4984 -0.0888  0.4998
 8256TIP3    H224733   3.400   5.547   0.282  1.3960  0.2270  0.5563
 8257TIP3   OH224734   6.413   4.313   2.411  0.2385  0.7005 -0.4343
 8257TIP3    H124735   6.347   4.349   2.470 -0.4016 -1.0119 -0.0354
 8257TIP3    H224736   6.364   4.288   2.332  0.6424  0.6580 -0.6768
 8258TIP3   OH224737   3.200   3.314   1.501  0.4910  0.0435  0.1342
 8258TIP3    H124738   3.178   3.259   1.425 -0.5212 -1.0609  1.1913
 8258TIP3    H224739   3.292   3.293   1.519  0.3385 -0.7251  0.0486
 8259TIP3   OH224740   2.125   6.179   5.252  0.1595  0.0823  0.5874
 8259TIP3    H124741   2.122   6.237   5.328  0.8216 -0.4934  1.0593
 8259TIP3    H224742   2.036   6.144   5.245 -0.6294  2.1241 -0.4940
 8260TIP3   OH224743   1.002   3.123   3.601 -0.2130  0.7021 -0.0330
 8260TIP3    H124744   1.075   3.062   3.601 -1.6920 -1.1656 -0.2409
 8260TIP3    H224745   0.979   3.134   3.693  0.1478  1.0812  0.0140
 8261TIP3   OH224746   2.559   3.588   3.631 -0.0757 -0.4925  0.2245
 8261TIP3    H124747   2.526   3.646   3.699  1.3373 -0.4771  0.9338
 8261TIP3    H224748   2.582   3.646   3.558 -1.3284 -0.4830 -0.1933
 8262TIP3   OH224749   0.785   2.545   5.039  0.0143  0.5063  0.8756
 8262TIP3    H124750   0.718   2.551   4.971 -0.2132  0.9817  1.1328
 8262TIP3    H224751   0.742   2.580   5.118  0.1800 -0.3057  1.3372
 8263TIP3   OH224752   1.697   0.777   1.449  0.0318 -0.0696  0.0021
 8263TIP3    H124753   1.732   0.856   1.492 -0.8142 -0.8402  2.2623
 8263TIP3    H224754   1.771   0.743   1.398  0.8700  1.3347  0.2323
 8264TIP3   OH224755   5.936   3.157   5.501  0.3964 -0.2395  0.5487
 8264TIP3    H124756   5.896   3.205   5.429  0.4255 -1.9113 -0.6167
 8264TIP3    H224757   6.023   3.196   5.511  0.0894  0.5410  0.2518
 8265TIP3   OH224758   1.628   6.537   5.160  0.5500 -0.6256 -0.2954
 8265TIP3    H124759   1.602   6.481   5.233  0.2809  0.9452  0.8874
 8265TIP3    H224760   1.569   6.514   5.089 -2.8583  1.3304  1.6303
 8266TIP3   OH224761   2.794   1.095   5.363  0.4547  0.1189 -0.6895
 8266TIP3    H124762   2.745   1.065   5.440  0.5082 -3.9735 -2.0094
 8266TIP3    H224763   2.865   1.148   5.398 -0.8744  0.3347  1.8587
 8267TIP3   OH224764   0.329   2.118   2.885  0.3187  0.3296  0.1796
 8267TIP3    H124765   0.320   2.031   2.923 -1.8269 -0.1450 -1.2073
 8267TIP3    H224766   0.423   2.127   2.868  0.6238 -1.6189  0.5760
 8268TIP3   OH224767   1.918   0.958   4.668 -0.0151 -0.5196 -0.0802
 8268TIP3    H124768   1.990   0.993   4.721 -1.2573  1.6989  0.2609
 8268TIP3    H224769   1.962   0.902   4.603  2.1699  1.5848 -0.5836
 8269TIP3   OH224770   3.150   5.624   2.149  0.5875 -0.0102  0.0574
 8269TIP3    H124771   3.175   5.587   2.233  1.2574  0.1335 -0.0691
 8269TIP3    H224772   3.230   5.666   2.117 -0.4888  2.8243  0.8412
 8270TIP3   OH224773   6.880   1.685   3.191  0.4349  0.3432  1.0071
 8270TIP3    H124774   6.830   1.694   3.110  0.9048  0.3149  0.7038
 8270TIP3    H224775   6.971   1.678   3.161  0.6569  0.7965  1.5612
 8271TIP3   OH224776   0.446   2.925   4.378  0.2250 -0.1412  0.4971
 8271TIP3    H124777   0.539   2.909   4.389  0.1037 -0.5058  0.9954
 8271TIP3    H224778   0.439   3.020   4.368  0.5173  0.0347  1.7865
 8272TIP3   OH224779   5.852   5.295   1.602  0.1313  0.0906 -0.5116
 8272TIP3    H124780   5.800   5.217   1.585 -0.6542  0.0933  1.6626
 8272TIP3    H224781   5.918   5.268   1.666 -1.8398  1.6924  2.4358
 8273TIP3   OH224782   2.386   3.619   0.197  0.1752 -0.2747  0.1503
 8273TIP3    H124783   2.436   3.541   0.169 -1.1433 -0.6830 -1.2058
 8273TIP3    H224784   2.405   3.684   0.130 -0.0380  0.0229  0.3795
 8274TIP3   OH224785   1.656   0.405   5.184 -0.1967 -0.0944 -0.5199
 8274TIP3    H124786   1.749   0.390   5.203 -0.1802  2.0971  1.7258
 8274TIP3    H224787   1.609   0.350   5.247 -0.2413  2.1495  1.5781
 8275TIP3   OH224788   3.072   3.137   2.378  0.0533 -0.8850 -0.1638
 8275TIP3    H124789   3.128   3.103   2.307  1.6178  1.0229  0.0897
 8275TIP3    H224790   3.089   3.078   2.452  0.2110 -1.4833 -0.6638
 8276TIP3   OH224791   2.628   2.821   4.212  0.3402  0.0438  0.7720
 8276TIP3    H124792   2.684   2.888   4.251  1.8920 -1.0520  0.5472
 8276TIP3    H224793   2.641   2.832   4.117  1.2680 -1.0348  0.7388
 8277TIP3   OH224794   6.400   2.052   2.023 -0.1258  0.2682  0.3275
 8277TIP3    H124795   6.458   2.084   2.092  1.5610 -0.5129 -0.6611
 8277TIP3    H224796   6.427   1.961   2.010 -2.2750 -0.4692  0.4916
 8278TIP3   OH224797   5.014   2.843   5.598 -0.1829  0.1799  0.0162
 8278TIP3    H124798   4.997   2.902   5.671 -1.2352 -0.0012 -0.0682
 8278TIP3    H224799   4.927   2.820   5.564  0.2458 -0.5746 -0.6209
 8279TIP3   OH224800   3.804   4.567   1.534 -0.0651 -0.5732  0.3760
 8279TIP3    H124801   3.750   4.509   1.588  2.5104 -0.3462  3.4666
 8279TIP3    H224802   3.818   4.517   1.453 -2.0659 -2.0111  0.8317
 8280TIP3   OH224803   0.598   5.763   0.872  0.4367  0.4445 -0.2283
 8280TIP3    H124804   0.575   5.856   0.869  1.3654  0.6884 -0.2797
 8280TIP3    H224805   0.694   5.763   0.869  0.4372 -0.5224 -0.3540
 8281TIP3   OH224806   0.113   2.014   2.387  0.4344  0.0192  0.3056
 8281TIP3    H124807   0.136   1.928   2.422  0.3543  0.1074  0.5737
 8281TIP3    H224808   0.152   2.076   2.448  0.0241  0.1734  0.4111
 8282TIP3   OH224809   4.533   4.212   4.604  0.3653  0.4518 -0.2328
 8282TIP3    H124810   4.454   4.253   4.569  0.2798  0.2880 -0.2330
 8282TIP3    H224811   4.502   4.153   4.672  0.2383 -1.4023 -1.8098
 8283TIP3   OH224812   0.686   4.531   5.749  0.1413  0.0138 -0.0280
 8283TIP3    H124813   0.665   4.494   5.663  0.3582 -2.4857  0.9117
 8283TIP3    H224814   0.780   4.551   5.744  0.1688 -0.1874 -0.3501
 8284TIP3   OH224815   6.962   2.167   0.354  0.5069 -0.5275  0.1276
 8284TIP3    H124816   6.879   2.196   0.316  0.3843  1.0400  1.4572
 8284TIP3    H224817   6.937   2.115   0.431  0.7623 -0.8590 -0.0103
 8285TIP3   OH224818   4.122   3.213   0.568  0.3426  0.0211  0.0242
 8285TIP3    H124819   4.061   3.151   0.528  1.1397 -1.6487  1.2419
 8285TIP3    H224820   4.139   3.278   0.500 -1.4171 -0.4584 -0.9185
 8286TIP3   OH224821   6.127   1.165   2.354 -0.2509 -0.0161 -0.1535
 8286TIP3    H124822   6.166   1.248   2.326  0.3583 -0.8853 -2.0725
 8286TIP3    H224823   6.184   1.134   2.424  2.3761 -0.9476 -2.4671
 8287TIP3   OH224824   3.102   2.009   0.774  0.0988  0.1225 -0.4217
 8287TIP3    H124825   3.042   1.946   0.814  1.2675 -1.8500 -1.6187
 8287TIP3    H224826   3.050   2.088   0.763 -1.0863 -0.1845  2.2366
 8288TIP3   OH224827   7.212   6.536   4.815  0.0302 -0.3628 -0.4468
 8288TIP3    H124828   7.162   6.603   4.769 -1.1831 -0.7985  0.1943
 8288TIP3    H224829   7.190   6.454   4.771 -1.0601 -0.7703  0.7896
 8289TIP3   OH224830   3.651   1.025   3.926 -0.2992 -0.5495  0.0860
 8289TIP3    H124831   3.738   1.067   3.923 -0.0871 -0.8548  1.4879
 8289TIP3    H224832   3.669   0.932   3.912 -0.3509 -0.6587  0.7162
 8290TIP3   OH224833   0.450   0.187   3.713 -0.3408 -0.9655 -0.5077
 8290TIP3    H124834   0.363   0.202   3.750 -0.0801  0.9262 -0.5772
 8290TIP3    H224835   0.510   0.231   3.773  0.7373 -3.1221  0.1142
 8291TIP3   OH224836   1.689   4.556   2.686  0.2960  0.3293  0.1490
 8291TIP3    H124837   1.775   4.598   2.695 -0.3320  1.3116  2.1288
 8291TIP3    H224838   1.627   4.622   2.716 -1.0746 -0.6977 -0.3574
 8292TIP3   OH224839   5.581   1.392   3.926 -0.4468 -0.0177 -0.1995
 8292TIP3    H124840   5.490   1.416   3.945 -0.8752 -2.6147  1.4884
 8292TIP3    H224841   5.574   1.315   3.870  0.8126  0.7718 -1.5453
 8293TIP3   OH224842   6.757   2.102   4.491 -0.2470 -0.1338 -0.3715
 8293TIP3    H124843   6.725   2.020   4.452 -3.0999  1.6300 -2.0758
 8293TIP3    H224844   6.795   2.151   4.418 -0.1807  0.7939  0.2645
 8294TIP3   OH224845   0.563   0.589   1.886 -0.2777 -0.0489  0.2069
 8294TIP3    H124846   0.631   0.522   1.897 -0.1398  0.0007 -0.3469
 8294TIP3    H224847   0.611   0.667   1.857 -0.6654 -0.2491 -1.0074
 8295TIP3   OH224848   1.455   5.335   4.727  0.7824 -0.1645  0.2011
 8295TIP3    H124849   1.533   5.280   4.722 -0.0684 -1.2974 -2.2263
 8295TIP3    H224850   1.469   5.403   4.660 -0.0161  0.0163  0.2085
 8296TIP3   OH224851   1.430   6.141   0.355  0.4943 -0.4798  0.1392
 8296TIP3    H124852   1.339   6.158   0.379  0.3576  0.1085 -0.7460
 8296TIP3    H224853   1.448   6.204   0.285  1.5956 -0.5612  0.3395
 8297TIP3   OH224854   7.091   1.785   3.406  0.3326 -0.3312  0.4287
 8297TIP3    H124855   7.012   1.754   3.360  0.4804  0.2066 -0.1963
 8297TIP3    H224856   7.157   1.794   3.337  0.2821  1.4354  0.5678
 8298TIP3   OH224857   3.580   5.783   1.934  0.2552 -0.1212  0.4762
 8298TIP3    H124858   3.596   5.867   1.977 -0.0990 -0.1787  0.7230
 8298TIP3    H224859   3.663   5.736   1.941  0.4118  0.1522  0.4619
 8299TIP3   OH224860   4.712   0.453   5.699  0.0670  0.6146  0.0524
 8299TIP3    H124861   4.714   0.481   5.608 -2.2578  0.2199 -0.1977
 8299TIP3    H224862   4.724   0.358   5.696 -2.6200  0.2017 -0.1827
 8300TIP3   OH224863   1.453   1.444   5.498  0.2175 -0.2591 -0.0217
 8300TIP3    H124864   1.432   1.440   5.405  1.5560 -0.1562 -0.3621
 8300TIP3    H224865   1.548   1.460   5.499  0.1587  0.0518  1.3583
 8301TIP3   OH224866   6.353   5.903   5.579  0.2084 -0.3273 -0.2573
 8301TIP3    H124867   6.444   5.909   5.608  0.0112  0.4640  0.2252
 8301TIP3    H224868   6.304   5.875   5.656 -0.1425  0.5688 -0.1386
 8302TIP3   OH224869   5.014   5.982   3.171  0.1092  0.4257  0.1882
 8302TIP3    H124870   5.045   5.900   3.132 -0.9477 -0.3128  0.8770
 8302TIP3    H224871   5.062   5.989   3.253  0.4773  0.7109 -0.0425
 8303TIP3   OH224872   1.004   1.099   4.806  0.6158 -0.1859 -0.5249
 8303TIP3    H124873   1.032   1.008   4.802 -1.1716 -0.7440 -2.2657
 8303TIP3    H224874   1.063   1.144   4.744  0.0778 -0.6342 -1.3907
 8304TIP3   OH224875   1.374   0.502   1.547  0.6669  0.0052 -0.5778
 8304TIP3    H124876   1.437   0.541   1.487  1.0542 -2.5045 -1.9655
 8304TIP3    H224877   1.421   0.426   1.583 -0.2593  0.3315  1.4076
 8305TIP3   OH224878   2.657   4.274   1.547 -0.6067 -0.1775 -0.6237
 8305TIP3    H124879   2.616   4.334   1.609 -1.5286 -1.3585 -0.0462
 8305TIP3    H224880   2.599   4.276   1.470  0.0671  0.6245 -1.1382
 8306TIP3   OH224881   1.918   4.076   2.948 -0.3022  0.2090 -0.1928
 8306TIP3    H124882   1.889   4.167   2.942  1.4715  0.7272 -2.3650
 8306TIP3    H224883   1.976   4.074   3.024 -2.0395  0.3329  1.1712
 8307TIP3   OH224884   1.989   5.237   3.036 -0.3636 -0.0094 -0.0286
 8307TIP3    H124885   2.067   5.254   2.983 -1.7707  0.5984 -2.0322
 8307TIP3    H224886   1.988   5.141   3.045  0.7241 -0.0108  0.2217
 8308TIP3   OH224887   1.554   4.202   2.451 -0.4756  0.0609 -0.0615
 8308TIP3    H124888   1.464   4.213   2.482 -1.0822 -2.0944 -0.8341
 8308TIP3    H224889   1.597   4.152   2.520 -0.0535  0.5109  0.0063
 8309TIP3   OH224890   5.095   2.473   4.395 -0.1397  0.1215  0.3038
 8309TIP3    H124891   5.050   2.533   4.455 -4.9198 -1.3032 -1.3737
 8309TIP3    H224892   5.066   2.499   4.308  2.9058 -0.7096 -1.1165
 8310TIP3   OH224893   3.464   2.955   1.081  0.1989  0.1748  0.2382
 8310TIP3    H124894   3.542   2.900   1.069  0.3405  0.2809  0.6269
 8310TIP3    H224895   3.474   2.989   1.170  1.6882  3.2700 -0.9871
 8311TIP3   OH224896   2.549   3.479   5.444  0.0315 -0.0501 -0.8596
 8311TIP3    H124897   2.592   3.544   5.499  0.8031 -0.8544 -0.5001
 8311TIP3    H224898   2.455   3.497   5.454  0.1383 -0.2994  0.8741
 8312TIP3   OH224899   2.144   3.302   5.334  0.1446 -0.4825  0.0317
 8312TIP3    H124900   2.168   3.372   5.394 -1.7203 -1.0707  1.5635
 8312TIP3    H224901   2.226   3.256   5.315  0.8214 -0.1021  1.9195
 8313TIP3   OH224902   1.872   3.666   0.322  0.1801 -0.6088  0.0938
 8313TIP3    H124903   1.904   3.674   0.412 -1.0417 -0.9729  0.5727
 8313TIP3    H224904   1.931   3.722   0.271  0.5053  0.0927  1.2058
 8314TIP3   OH224905   3.617   0.415   5.774 -0.3225 -0.0150  0.2013
 8314TIP3    H124906   3.554   0.469   5.726 -0.6348 -1.2439 -0.8259
 8314TIP3    H224907   3.657   0.475   5.836 -0.1955  1.5619 -1.3287
 8315TIP3   OH224908   3.779   6.110   1.715 -0.1793  0.1963  0.3587
 8315TIP3    H124909   3.820   6.186   1.672 -0.1156  1.4145  2.4619
 8315TIP3    H224910   3.743   6.145   1.796 -0.3466 -2.0215  1.2965
 8316TIP3   OH224911   1.973   4.817   3.006 -0.1096  0.4711  0.3640
 8316TIP3    H124912   1.916   4.740   3.009 -0.0672  0.2531 -1.9884
 8316TIP3    H224913   1.922   4.881   2.956  1.3656  0.5131 -1.1786
 8317TIP3   OH224914   5.460   2.255   3.235 -0.1367  0.5353  0.4552
 8317TIP3    H124915   5.522   2.306   3.288 -0.1892  0.5240  0.5270
 8317TIP3    H224916   5.454   2.303   3.152  0.7400  0.0105  0.0661
 8318TIP3   OH224917   3.888   1.058   1.940 -0.0052 -0.1765 -0.3748
 8318TIP3    H124918   3.812   1.113   1.923 -0.9882 -1.7686 -1.3253
 8318TIP3    H224919   3.877   1.029   2.031  0.2624  0.7772 -0.0321
 8319TIP3   OH224920   2.216   0.426   4.033 -0.3004 -0.3445  0.3315
 8319TIP3    H124921   2.287   0.475   4.074 -1.1873  1.3564 -0.0764
 8319TIP3    H224922   2.149   0.418   4.101 -0.5313 -0.1881  0.1236
 8320TIP3   OH224923   1.279   6.414   1.024  0.3414  0.9030 -0.5834
 8320TIP3    H124924   1.351   6.350   1.023  1.0716  1.3553  3.7041
 8320TIP3    H224925   1.209   6.371   1.073 -1.3481  1.5167 -2.3133
 8321TIP3   OH224926   3.248   5.043   4.643 -0.5897  0.5386  0.1588
 8321TIP3    H124927   3.310   5.039   4.716 -0.6582  2.4335  0.3773
 8321TIP3    H224928   3.299   5.011   4.568 -0.5432 -1.5008  0.9854
 8322TIP3   OH224929   1.068   4.869   2.009  0.5615  0.6086 -0.3119
 8322TIP3    H124930   1.128   4.937   2.037  1.3610  0.4451 -1.5731
 8322TIP3    H224931   0.981   4.904   2.031  0.8619  2.5629 -1.9593
 8323TIP3   OH224932   5.398   3.912   4.455 -0.1087  0.0379  0.3819
 8323TIP3    H124933   5.493   3.901   4.454 -0.2639 -1.7635  1.2066
 8323TIP3    H224934   5.366   3.835   4.503 -2.1244 -0.5570 -1.7480
 8324TIP3   OH224935   4.011   2.562   0.385  0.3292 -0.3141 -0.3828
 8324TIP3    H124936   3.931   2.597   0.346  0.7047 -0.7964 -1.6397
 8324TIP3    H224937   3.992   2.470   0.401  0.3146 -0.2087  0.2016
 8325TIP3   OH224938   5.555   1.089   5.411  0.2964  0.1516 -0.8029
 8325TIP3    H124939   5.474   1.057   5.372 -0.8678  1.4509  0.4329
 8325TIP3    H224940   5.550   1.062   5.503  1.4856 -0.1280 -0.7989
 8326TIP3   OH224941   0.159   6.490   4.110  0.1566  0.7382 -0.2553
 8326TIP3    H124942   0.085   6.551   4.110 -0.0194  0.5381  0.8709
 8326TIP3    H224943   0.227   6.534   4.160 -0.6478 -0.7265  2.2926
 8327TIP3   OH224944   6.646   3.144   5.796 -0.1650  0.0178  0.4153
 8327TIP3    H124945   6.616   3.059   5.763 -2.5003  0.5942  0.8374
 8327TIP3    H224946   6.723   3.123   5.849  0.2153 -1.6305 -0.7020
 8328TIP3   OH224947   5.702   0.706   1.027  0.5508 -0.0759  0.0613
 8328TIP3    H124948   5.701   0.726   0.933  1.0987 -0.3233 -0.0028
 8328TIP3    H224949   5.761   0.772   1.064  0.0778  0.2251  0.2823
 8329TIP3   OH224950   3.482   5.026   2.150 -0.2464  0.0550  0.2737
 8329TIP3    H124951   3.558   5.027   2.092  0.1305  0.5865  0.7688
 8329TIP3    H224952   3.408   5.043   2.093  0.1673  1.0318  0.0113
 8330TIP3   OH224953   1.674   1.810   0.630  0.2640 -0.1564  0.0799
 8330TIP3    H124954   1.621   1.731   0.632 -1.0504  0.6999  0.4359
 8330TIP3    H224955   1.704   1.821   0.720  2.2484 -1.3750 -0.3708
 8331TIP3   OH224956   5.331   2.229   0.423  0.2032  0.4695  0.2744
 8331TIP3    H124957   5.401   2.174   0.387  0.0187  0.5651 -0.2351
 8331TIP3    H224958   5.261   2.225   0.359  1.0444  3.1256 -0.9745
 8332TIP3   OH224959   0.042   3.858   3.482 -0.0279 -0.0745  0.1925
 8332TIP3    H124960   0.040   3.801   3.559 -0.9660 -0.6295 -0.2190
 8332TIP3    H224961   0.024   3.799   3.409 -0.1859  0.6213 -0.3381
 8333TIP3   OH224962   5.391   3.463   0.865  0.9093 -0.2312 -0.3388
 8333TIP3    H124963   5.463   3.406   0.893  0.9403 -0.7743 -1.4588
 8333TIP3    H224964   5.315   3.404   0.858  0.1688  0.4457  1.4472
 8334TIP3   OH224965   5.719   4.482   0.880  0.2438  0.2167  0.4426
 8334TIP3    H124966   5.770   4.486   0.799 -1.0627  0.5189 -0.4070
 8334TIP3    H224967   5.680   4.569   0.888 -0.6919 -0.2100  0.6746
 8335TIP3   OH224968   0.235   3.348   1.117  0.1428 -0.1624  0.3299
 8335TIP3    H124969   0.304   3.378   1.057 -0.0126 -0.8578 -0.2042
 8335TIP3    H224970   0.266   3.373   1.204  1.9944 -2.1770  0.3038
 8336TIP3   OH224971   5.786   5.312   5.708  0.1302  0.4997  0.4292
 8336TIP3    H124972   5.799   5.327   5.802  0.5976 -0.1099  0.4623
 8336TIP3    H224973   5.837   5.381   5.666  1.6210 -0.4781  0.5944
 8337TIP3   OH224974   0.580   6.488   4.867 -0.1440  0.6283  0.1285
 8337TIP3    H124975   0.627   6.407   4.849 -0.1424  0.5554  0.4589
 8337TIP3    H224976   0.642   6.542   4.916  0.0116  1.0088 -0.4755
 8338TIP3   OH224977   1.477   3.199   4.708  0.1879  0.1905  0.1891
 8338TIP3    H124978   1.468   3.264   4.638  0.2361 -0.9424 -0.9103
 8338TIP3    H224979   1.393   3.154   4.710  0.1526  0.2830  0.9423
 8339TIP3   OH224980   3.200   1.324   5.038  0.4870 -0.0429  0.5910
 8339TIP3    H124981   3.122   1.353   5.087 -0.0504 -0.6197  0.0953
 8339TIP3    H224982   3.169   1.317   4.947  1.2039  0.0274  0.3395
 8340TIP3   OH224983   5.382   3.935   3.334 -0.3291  0.1192  0.0349
 8340TIP3    H124984   5.459   3.985   3.308  0.4610 -0.0436  1.9093
 8340TIP3    H224985   5.344   3.986   3.406 -1.2721 -0.4275 -0.0576
 8341TIP3   OH224986   3.953  -0.011   3.497  0.1073 -0.1666 -0.3894
 8341TIP3    H124987   3.948   0.077   3.533  3.3805  0.1478 -0.4563
 8341TIP3    H224988   3.896  -0.063   3.554  0.1307  1.5109  1.2608
 8342TIP3   OH224989   0.666   3.934   3.513  0.0203 -0.2617  0.0711
 8342TIP3    H124990   0.603   4.003   3.535  1.2124  0.7558  0.4410
 8342TIP3    H224991   0.693   3.898   3.598  0.2379 -0.4044 -0.0575
 8343TIP3   OH224992   3.033   3.193   5.082  0.6402 -0.2499 -0.7893
 8343TIP3    H124993   2.959   3.248   5.055  0.7620  0.4006  0.1455
 8343TIP3    H224994   3.038   3.205   5.177  2.0864 -0.1203 -0.8627
 8344TIP3   OH224995   6.102   5.723   0.256  0.1821 -0.5803  0.0658
 8344TIP3    H124996   6.129   5.757   0.342  1.4458 -2.1736  0.3488
 8344TIP3    H224997   6.184   5.711   0.208 -0.1416 -3.3733  0.0864
 8345TIP3   OH224998   6.659   6.341   5.258 -0.7536  0.3106 -0.4662
 8345TIP3    H124999   6.582   6.397   5.266 -1.4656 -0.5719 -0.9380
 8345TIP3    H225000   6.728   6.400   5.226 -1.2236  1.1157 -0.0343
 8346TIP3   OH225001   1.890   5.579   2.513  0.0916  0.1651 -0.6881
 8346TIP3    H125002   1.828   5.578   2.586 -0.2141  1.3341 -0.9119
 8346TIP3    H225003   1.922   5.489   2.508  0.6413  0.1996  1.3302
 8347TIP3   OH225004   1.629   6.285   1.754 -0.5082  0.4225  0.3945
 8347TIP3    H125005   1.580   6.242   1.824  0.0342 -0.0256  0.5096
 8347TIP3    H225006   1.698   6.222   1.731 -0.0461  0.9974  0.1734
 8348TIP3   OH225007   0.532   0.390   2.679 -0.4209  0.2315  0.1438
 8348TIP3    H125008   0.564   0.306   2.648 -0.4623  0.5545 -0.7856
 8348TIP3    H225009   0.461   0.368   2.740 -2.1492 -0.3733 -1.9890
 8349TIP3   OH225010   4.331   5.956   4.348 -0.0549 -0.1080 -0.6701
 8349TIP3    H125011   4.253   5.927   4.395 -0.6182  1.0600 -0.8486
 8349TIP3    H225012   4.316   6.049   4.332  0.8399 -0.1274 -1.7610
 8350TIP3   OH225013   4.205   2.032   0.017  0.3562 -0.1635  0.0479
 8350TIP3    H125014   4.123   2.062   0.056  0.5531 -0.1493  0.4500
 8350TIP3    H225015   4.237   2.107  -0.033  0.3589 -0.0240  0.2616
 8351TIP3   OH225016   1.011   5.923   2.829  0.1832  0.0253 -0.2427
 8351TIP3    H125017   0.955   5.869   2.773  1.7473 -1.5633 -0.3809
 8351TIP3    H225018   1.002   5.886   2.916  1.0796 -0.3263 -0.2876
 8352TIP3   OH225019   3.802   4.528   2.558  0.2238 -0.6456  0.3352
 8352TIP3    H125020   3.797   4.607   2.612  0.9997 -0.2136 -0.2088
 8352TIP3    H225021   3.813   4.457   2.622  3.0577  0.0409  0.7360
 8353TIP3   OH225022   6.138   3.028   4.486  0.3491  0.3968  0.3182
 8353TIP3    H125023   6.154   3.076   4.567  0.4702  1.8602 -0.5382
 8353TIP3    H225024   6.211   3.053   4.429 -0.6601  0.8019 -0.8408
 8354TIP3   OH225025   6.889   0.811   3.274 -1.0279  0.0045 -0.2357
 8354TIP3    H125026   6.897   0.724   3.235  1.9747 -0.4621  1.1346
 8354TIP3    H225027   6.831   0.798   3.350 -0.1613 -0.9844  0.2912
 8355TIP3   OH225028   0.559   4.521   4.672 -0.0793  0.2670 -0.0408
 8355TIP3    H125029   0.515   4.438   4.652 -1.7710  0.9644  0.6003
 8355TIP3    H225030   0.523   4.583   4.609  1.6925  0.4131 -0.9776
 8356TIP3   OH225031   4.704   6.185   1.409 -0.1778  0.1404 -0.1153
 8356TIP3    H125032   4.713   6.147   1.497 -0.6151 -1.8104 -0.8523
 8356TIP3    H225033   4.781   6.153   1.362 -0.4215  0.3992 -0.6932
 8357TIP3   OH225034   4.153   2.671   1.244 -0.1819 -0.3925  0.1835
 8357TIP3    H125035   4.228   2.730   1.253 -0.4530 -0.1564  1.0059
 8357TIP3    H225036   4.192   2.583   1.246  0.2337 -0.2527 -1.1814
 8358TIP3   OH225037   0.198   4.311   0.909  0.0745 -0.1101  0.2146
 8358TIP3    H125038   0.208   4.345   0.820 -2.2628 -0.8119 -0.3752
 8358TIP3    H225039   0.236   4.379   0.965  1.9243  0.1832 -1.2858
 8359TIP3   OH225040   7.009   4.184   0.794  0.0508 -0.3060 -0.2986
 8359TIP3    H125041   6.918   4.213   0.785 -0.0764 -0.5092  0.2640
 8359TIP3    H225042   7.043   4.233   0.869  1.2733  1.8316 -2.1457
 8360TIP3   OH225043   5.659   1.697   2.297  0.2988 -0.0535 -0.0488
 8360TIP3    H125044   5.710   1.685   2.217 -1.5615 -0.0829 -1.2845
 8360TIP3    H225045   5.724   1.696   2.367  1.9435 -0.4147 -1.5136
 8361TIP3   OH225046   3.301   3.202   3.494  0.1571 -0.2318 -0.4821
 8361TIP3    H125047   3.237   3.203   3.423  1.5263  1.8314 -1.7996
 8361TIP3    H225048   3.367   3.266   3.468  1.2769 -0.1650  2.1838
 8362TIP3   OH225049   5.897   0.387   0.816 -0.5413  0.2754 -0.1452
 8362TIP3    H125050   5.933   0.467   0.777  0.4350  0.4973  1.1285
 8362TIP3    H225051   5.806   0.385   0.787 -0.2523  1.1986 -1.1915
 8363TIP3   OH225052   0.474   2.407   5.160  0.0986 -0.2320 -0.1311
 8363TIP3    H125053   0.485   2.357   5.241 -2.2070 -0.9172 -0.1760
 8363TIP3    H225054   0.404   2.362   5.113  0.5775  0.8403 -1.9924
 8364TIP3   OH225055   1.093   0.547   2.544 -0.0562  0.6483 -0.1487
 8364TIP3    H125056   1.035   0.551   2.620  0.2400 -0.6332  0.1570
 8364TIP3    H225057   1.035   0.524   2.471 -0.1335  0.6227 -0.0787
 8365TIP3   OH225058   5.338   4.033   1.067  0.4109 -0.8680  0.0679
 8365TIP3    H125059   5.295   4.117   1.050  0.8391 -0.0251  2.7403
 8365TIP3    H225060   5.427   4.057   1.093  0.6736 -2.1846  0.4749
 8366TIP3   OH225061   4.918   4.431   5.824 -0.0143  0.4811  0.0288
 8366TIP3    H125062   4.914   4.518   5.784 -2.7350  0.1605 -0.5673
 8366TIP3    H225063   4.955   4.375   5.756  1.1461  1.0051  0.1916
 8367TIP3   OH225064   5.964   4.787   1.557  0.1160 -0.0678 -0.1076
 8367TIP3    H125065   6.030   4.718   1.554  2.0097  1.6894 -2.7759
 8367TIP3    H225066   5.916   4.770   1.639  2.4375 -2.6973  0.8750
 8368TIP3   OH225067   4.583   5.221   5.270 -0.7984  0.1431 -0.1165
 8368TIP3    H125068   4.582   5.251   5.179  1.2328 -1.3809 -0.7163
 8368TIP3    H225069   4.646   5.278   5.313 -1.2546  0.4248  0.1910
 8369TIP3   OH225070   4.990   2.400   2.136  0.3591  0.3097 -0.4377
 8369TIP3    H125071   4.967   2.493   2.146  0.2639  0.4835 -2.0258
 8369TIP3    H225072   5.084   2.400   2.119  0.4097  0.0855 -0.1632
 8370TIP3   OH225073   1.839   0.441   4.817 -0.5734  0.1747  0.1455
 8370TIP3    H125074   1.881   0.386   4.751  0.4577 -1.1856  1.8453
 8370TIP3    H225075   1.909   0.461   4.880 -1.6020  1.1049  1.0402
 8371TIP3   OH225076   6.375   4.998   0.027 -0.7382  0.6400  0.3849
 8371TIP3    H125077   6.316   5.055   0.076  1.5517  2.2712  1.4005
 8371TIP3    H225078   6.427   5.057  -0.026  1.0340 -0.5762  0.6811
 8372TIP3   OH225079   0.934   6.458   0.613  0.1089  0.3998 -0.3286
 8372TIP3    H125080   0.972   6.458   0.700 -1.1595  1.2168  0.2565
 8372TIP3    H225081   0.979   6.529   0.567  0.5891  0.1458 -0.2549
 8373TIP3   OH225082   1.190   4.193   0.845 -0.6974 -0.1401 -0.4634
 8373TIP3    H125083   1.240   4.249   0.785 -0.4642  1.2044  0.9178
 8373TIP3    H225084   1.132   4.143   0.788 -0.2830  0.8626 -1.8273
 8374TIP3   OH225085   2.148   5.467   0.063 -0.2799 -0.4245  0.3172
 8374TIP3    H125086   2.126   5.495  -0.026  0.7196  0.2820  0.2807
 8374TIP3    H225087   2.183   5.379   0.053  0.1761 -0.2059 -0.0402
 8375TIP3   OH225088   5.125   1.344   5.719 -0.3670  1.0871 -0.2897
 8375TIP3    H125089   5.181   1.266   5.715 -0.9868  0.0955  4.4456
 8375TIP3    H225090   5.185   1.416   5.733 -0.0106  0.7948 -0.2944
 8376TIP3   OH225091   2.935   3.904   0.740  0.3905  0.4844  0.1409
 8376TIP3    H125092   2.881   3.977   0.770  1.8444  2.2657 -1.3802
 8376TIP3    H225093   2.875   3.849   0.689 -0.3439  1.5703 -0.1801
 8377TIP3   OH225094   5.857   1.958   5.154  0.1915 -0.3285  0.4819
 8377TIP3    H125095   5.806   2.037   5.136  1.2010  0.0106 -1.0043
 8377TIP3    H225096   5.851   1.947   5.249  1.0603  2.2428  0.9091
 8378TIP3   OH225097   4.850   3.906   2.962 -0.2105 -0.3213 -0.9315
 8378TIP3    H125098   4.921   3.908   2.899 -1.3981  0.7827 -2.2989
 8378TIP3    H225099   4.885   3.856   3.036  2.4306  1.2812 -0.9724
 8379TIP3   OH225100   6.684   5.354   0.277 -0.1708  0.8097  0.3698
 8379TIP3    H125101   6.668   5.267   0.241 -0.2814  0.9606  0.0508
 8379TIP3    H225102   6.747   5.394   0.217 -1.0103  1.3803 -0.1634
 8380TIP3   OH225103   0.337   6.388   1.111 -0.0002  0.3991  0.2179
 8380TIP3    H125104   0.432   6.391   1.119  0.0362  0.5822 -0.2450
 8380TIP3    H225105   0.320   6.315   1.050 -0.1817  0.0450  0.6884
 8381TIP3   OH225106   6.246   1.100   4.619 -0.7947  0.3751  0.0503
 8381TIP3    H125107   6.339   1.118   4.629 -0.7908  0.5027 -0.1924
 8381TIP3    H225108   6.207   1.185   4.599 -1.1492  0.5336  1.3419
 8382TIP3   OH225109   5.161   3.313   0.950  0.0582  0.6891  0.2292
 8382TIP3    H125110   5.090   3.251   0.937  0.0889  0.8716 -0.8646
 8382TIP3    H225111   5.137   3.359   1.031 -1.4035  1.1890 -0.4477
 8383TIP3   OH225112   6.418   4.961   3.900 -0.7905  0.0283 -0.0876
 8383TIP3    H125113   6.460   5.014   3.832 -1.5405  0.1833 -0.4444
 8383TIP3    H225114   6.341   4.924   3.857 -1.3046  0.1732  0.6873
 8384TIP3   OH225115   5.682   3.904   4.422  0.4916  0.0230 -0.3686
 8384TIP3    H125116   5.710   3.881   4.333  1.8906 -0.5570  0.1819
 8384TIP3    H225117   5.738   3.977   4.447 -1.4065  1.7008 -0.7246
 8385TIP3   OH225118   4.310   0.730   3.126 -0.1003  0.0560 -0.2835
 8385TIP3    H125119   4.398   0.747   3.159 -0.5859  0.1298  1.0054
 8385TIP3    H225120   4.299   0.635   3.134 -0.5524  0.1775  0.6623
 8386TIP3   OH225121   5.255   0.455   2.910  0.2808  0.2219 -0.9414
 8386TIP3    H125122   5.189   0.491   2.968 -0.6724 -1.2978 -1.0222
 8386TIP3    H225123   5.336   0.501   2.933 -0.2259  0.2113  1.0379
 8387TIP3   OH225124   1.345   1.136   1.373 -0.1788  0.4408 -0.4324
 8387TIP3    H125125   1.280   1.066   1.365 -0.9278  0.5322  3.2851
 8387TIP3    H225126   1.298   1.215   1.348 -0.4318  0.1063 -1.0478
 8388TIP3   OH225127   3.355   4.144   1.512  0.3613  0.7670 -0.4973
 8388TIP3    H125128   3.302   4.207   1.561 -1.3530  0.9375 -2.4061
 8388TIP3    H225129   3.443   4.179   1.513 -0.0068  1.7075  0.8584
 8389TIP3   OH225130   3.971   0.956   1.689  0.2966  0.1897  0.2883
 8389TIP3    H125131   3.907   0.935   1.756 -0.2313 -0.3569 -0.3757
 8389TIP3    H225132   3.950   1.045   1.662  1.4299  0.9843  1.8595
 8390TIP3   OH225133   2.786   6.553   4.871 -0.0950 -0.7392  0.4983
 8390TIP3    H125134   2.767   6.476   4.924  3.5335 -0.8947  1.8880
 8390TIP3    H225135   2.830   6.517   4.793 -0.1178 -0.1806  0.2257
 8391TIP3   OH225136   4.384   0.202   2.233 -0.5582  0.1129 -0.2821
 8391TIP3    H125137   4.387   0.107   2.238  1.6396  0.0311 -1.6479
 8391TIP3    H225138   4.306   0.222   2.182 -1.7260 -0.8601  1.0726
 8392TIP3   OH225139   2.432   2.064   4.842 -0.0096  0.0123  0.5490
 8392TIP3    H125140   2.378   1.991   4.875  0.6453 -0.5879  0.3076
 8392TIP3    H225141   2.499   2.076   4.909 -0.5151  0.8689  0.9259
 8393TIP3   OH225142   3.644   4.621   3.152 -0.2281 -0.3643  0.4401
 8393TIP3    H125143   3.581   4.584   3.090 -1.9792  1.1967  1.1707
 8393TIP3    H225144   3.604   4.604   3.238  1.3343 -1.0254  1.0720
 8394TIP3   OH225145   1.482   1.859   2.971 -0.1598  0.0869  0.5672
 8394TIP3    H125146   1.477   1.908   2.889  0.1258 -0.4935  0.1984
 8394TIP3    H225147   1.428   1.781   2.956 -1.6366  0.8628  1.5716
 8395TIP3   OH225148   1.360   0.683   4.772 -0.2160 -0.5370  0.2484
 8395TIP3    H125149   1.410   0.752   4.729 -1.2174 -1.4466 -2.6189
 8395TIP3    H225150   1.427   0.626   4.811  0.7283  0.6854  0.4580
 8396TIP3   OH225151   5.962   2.048   3.921  0.3633 -0.2035  0.3463
 8396TIP3    H125152   6.031   2.017   3.979  1.6910  2.6207  0.4603
 8396TIP3    H225153   5.881   2.022   3.964  1.2763 -3.1961  0.4507
 8397TIP3   OH225154   0.549   0.632   4.367 -0.3806  0.1061 -0.0493
 8397TIP3    H125155   0.457   0.623   4.393 -0.7177  2.0899 -0.3688
 8397TIP3    H225156   0.547   0.624   4.271 -0.0810 -0.7778  0.0172
 8398TIP3   OH225157   4.529   6.183   3.619  0.8352  0.8941 -0.0174
 8398TIP3    H125158   4.620   6.186   3.649 -0.0181  0.8677  2.7527
 8398TIP3    H225159   4.482   6.135   3.687 -1.3120  1.0734 -1.2923
 8399TIP3   OH225160   0.831   0.652   3.347 -0.1975  0.5896 -0.8995
 8399TIP3    H125161   0.856   0.562   3.329  1.2521  0.7124  0.3106
 8399TIP3    H225162   0.741   0.645   3.381  0.0835 -0.4590 -0.3358
 8400TIP3   OH225163   4.864   5.704   1.121  0.2737  1.0790  0.2186
 8400TIP3    H125164   4.859   5.626   1.177  0.4298  0.6809 -0.3137
 8400TIP3    H225165   4.954   5.703   1.088 -0.1745  0.6104 -1.0321
 8401TIP3   OH225166   3.236   0.138   0.222 -0.0164  0.4087  0.5423
 8401TIP3    H125167   3.152   0.145   0.267 -1.4842 -3.8087 -1.1060
 8401TIP3    H225168   3.299   0.118   0.291 -0.0514  4.0064  1.8548
 8402TIP3   OH225169   1.160   0.941   3.350 -0.6885 -0.2041 -0.1289
 8402TIP3    H125170   1.246   0.977   3.372 -0.7004 -1.0732  1.4830
 8402TIP3    H225171   1.099   1.011   3.372 -0.6164 -0.6994  1.8543
 8403TIP3   OH225172   6.282   0.107   2.497  0.4227  0.0361 -0.0178
 8403TIP3    H125173   6.216   0.076   2.559  1.5148 -1.7989  0.2925
 8403TIP3    H225174   6.284   0.040   2.428  2.0222 -0.0258  0.0443
 8404TIP3   OH225175   0.656   4.297   0.816 -0.5074  0.0520  0.2176
 8404TIP3    H125176   0.727   4.324   0.873  1.0622 -0.2930 -1.4644
 8404TIP3    H225177   0.605   4.235   0.868  1.4840 -1.1060  0.9138
 8405TIP3   OH225178   3.004   5.326   3.921  0.3020 -0.1835 -0.1715
 8405TIP3    H125179   2.910   5.310   3.923 -0.1827  1.7501 -2.8478
 8405TIP3    H225180   3.038   5.259   3.861  0.7112 -1.0389  0.9856
 8406TIP3   OH225181   6.712   1.278   3.864 -0.2857 -0.2357 -0.7805
 8406TIP3    H125182   6.624   1.298   3.894  0.6199  0.6786  1.4532
 8406TIP3    H225183   6.759   1.249   3.942  1.6256  0.1374 -1.7272
 8407TIP3   OH225184   5.477   5.326   4.404 -0.1673  0.0301 -0.0977
 8407TIP3    H125185   5.466   5.378   4.324  0.8674 -1.9094 -1.5778
 8407TIP3    H225186   5.564   5.349   4.435 -0.2731  0.2272  0.0552
 8408TIP3   OH225187   6.397   3.269   1.823  0.3121  0.0854 -0.0840
 8408TIP3    H125188   6.441   3.250   1.906  0.1971  0.2996  0.0251
 8408TIP3    H225189   6.403   3.364   1.814  0.6846  0.0210 -0.5210
 8409TIP3   OH225190   4.364   3.460   3.233 -0.6495  0.3135  0.2841
 8409TIP3    H125191   4.424   3.421   3.169 -0.0984 -0.2795  1.1379
 8409TIP3    H225192   4.369   3.554   3.215 -2.9514  0.0109 -2.6270
 8410TIP3   OH225193   3.376   0.729   0.440 -0.0646  0.2349  0.3703
 8410TIP3    H125194   3.449   0.719   0.379  0.7057  0.6110  1.2183
 8410TIP3    H225195   3.321   0.797   0.401  0.2345  0.2232 -0.0813
 8411TIP3   OH225196   6.330   1.448   0.964  0.0886 -0.3067 -0.0641
 8411TIP3    H125197   6.293   1.364   0.936 -1.0418 -0.0306  0.5165
 8411TIP3    H225198   6.264   1.513   0.938  0.4933  0.2846  0.3543
 8412TIP3   OH225199   7.157   5.888   0.470 -0.3209 -0.2696 -0.8138
 8412TIP3    H125200   7.219   5.950   0.431  0.3507 -1.0012 -0.9234
 8412TIP3    H225201   7.078   5.940   0.485  0.4716  0.8119 -0.2110
 8413TIP3   OH225202   6.515   3.519   2.914  0.1796 -0.3083  0.0651
 8413TIP3    H125203   6.606   3.489   2.908  0.1289 -0.4326 -0.1109
 8413TIP3    H225204   6.496   3.554   2.827  0.4705  0.9383  0.4765
 8414TIP3   OH225205   2.419   5.223   1.902  0.4583 -0.6107 -0.0285
 8414TIP3    H125206   2.389   5.310   1.876  0.4469 -0.8741 -0.9368
 8414TIP3    H225207   2.386   5.211   1.991  2.0867  1.0673  0.8649
 8415TIP3   OH225208   4.704   2.299   0.832 -0.4762 -0.8329 -0.3290
 8415TIP3    H125209   4.656   2.226   0.872 -0.1377 -0.4322  0.8420
 8415TIP3    H225210   4.796   2.272   0.834 -0.3382 -0.3367  0.2054
 8416TIP3   OH225211   3.946   3.221   1.723 -0.4532 -0.2166 -0.0359
 8416TIP3    H125212   3.899   3.304   1.722  0.3587  0.2728  0.5189
 8416TIP3    H225213   3.882   3.157   1.754 -1.2277  0.1003 -0.9527
 8417TIP3   OH225214   3.697   0.424   0.269 -0.1472  0.2526 -0.2694
 8417TIP3    H125215   3.607   0.406   0.293 -0.1860  1.4285  0.5681
 8417TIP3    H225216   3.748   0.352   0.305 -0.8038 -0.8001 -1.3730
 8418TIP3   OH225217   2.668   0.354   3.237  0.5864 -0.2701 -0.2291
 8418TIP3    H125218   2.634   0.413   3.303  1.0805  1.0980 -1.1554
 8418TIP3    H225219   2.687   0.273   3.284 -0.0149  0.3371  1.0842
 8419TIP3   OH225220   7.155   2.588   5.665 -0.3615  0.1688  0.2983
 8419TIP3    H125221   7.245   2.581   5.634  0.4241  0.5291  2.3101
 8419TIP3    H225222   7.112   2.646   5.603  0.7894 -0.0085 -0.6953
 8420TIP3   OH225223   6.943   4.046   2.423  0.0875 -0.0340 -1.3632
 8420TIP3    H125224   7.010   3.978   2.415 -0.8003 -1.3109  1.0320
 8420TIP3    H225225   6.888   4.036   2.345  1.6690 -0.0422 -2.5271
 8421TIP3   OH225226   3.033   0.004   2.871  0.2491  0.1953  0.3193
 8421TIP3    H125227   3.072   0.083   2.834 -0.5403  0.4279 -0.0624
 8421TIP3    H225228   2.942   0.006   2.839 -0.0447 -0.3673  1.0865
 8422TIP3   OH225229   3.214   5.863   1.634 -0.3549 -0.5851 -0.1828
 8422TIP3    H125230   3.170   5.809   1.568  0.6603 -1.0252 -0.5191
 8422TIP3    H225231   3.293   5.895   1.591 -1.4380  2.1162 -0.3509
 8423TIP3   OH225232   0.057   5.583   4.541  0.2354 -0.5979  0.4304
 8423TIP3    H125233  -0.015   5.532   4.579 -1.5119  1.4675  0.0972
 8423TIP3    H225234   0.078   5.649   4.607 -0.5611  0.9375 -0.7670
 8424TIP3   OH225235   1.701   5.989   0.237  0.1266 -0.2934 -0.8561
 8424TIP3    H125236   1.705   6.043   0.316 -2.6505 -0.2839 -0.6241
 8424TIP3    H225237   1.629   5.928   0.253 -0.6079 -0.2147 -3.3836
 8425TIP3   OH225238   4.839   4.324   1.086  0.0713 -0.2925 -0.3260
 8425TIP3    H125239   4.869   4.234   1.069 -0.8349 -0.3750 -1.6058
 8425TIP3    H225240   4.920   4.373   1.101  0.5709 -1.3587  0.6942
 8426TIP3   OH225241   0.670   6.357   5.763  0.5159 -0.2244 -0.1764
 8426TIP3    H125242   0.584   6.388   5.734  1.5523  1.2116 -1.9003
 8426TIP3    H225243   0.688   6.282   5.707  0.3108 -0.6879  0.3621
 8427TIP3   OH225244   2.755   2.572   4.801 -0.6238  0.8101  0.3503
 8427TIP3    H125245   2.815   2.645   4.783  1.0505 -0.5308  0.2460
 8427TIP3    H225246   2.678   2.590   4.747  0.9859  0.9714 -2.0007
 8428TIP3   OH225247   5.872   6.050   2.386 -0.1331  0.3339 -0.0372
 8428TIP3    H125248   5.777   6.046   2.375  0.2320 -0.9117 -4.1466
 8428TIP3    H225249   5.898   5.959   2.401  0.5618  0.3039 -1.3206
 8429TIP3   OH225250   5.542   1.166   1.632  0.3635  0.0158 -0.2496
 8429TIP3    H125251   5.568   1.080   1.664 -1.5936 -0.2548  0.7887
 8429TIP3    H225252   5.464   1.150   1.580 -0.8961  1.2701  1.1696
 8430TIP3   OH225253   5.460   5.000   0.508  0.0549  0.1671  0.2346
 8430TIP3    H125254   5.477   5.086   0.470 -1.9696  0.8725  0.7666
 8430TIP3    H225255   5.484   5.010   0.601  0.7248 -0.1566  0.1019
 8431TIP3   OH225256   2.724   1.883   3.009 -0.3833  0.1956  1.0720
 8431TIP3    H125257   2.732   1.967   2.964  1.7140 -0.9521 -0.9404
 8431TIP3    H225258   2.653   1.838   2.964  1.4487 -0.7915 -1.0553
 8432TIP3   OH225259   2.204   3.225   0.802  1.4395  0.0081  0.0024
 8432TIP3    H125260   2.253   3.258   0.878  3.5589  2.1986 -2.1409
 8432TIP3    H225261   2.144   3.296   0.780 -1.1844 -1.7064  1.1295
 8433TIP3   OH225262   2.156   3.443   1.372 -0.0749  0.2344 -0.3194
 8433TIP3    H125263   2.222   3.374   1.362  0.6373  0.6718  1.1317
 8433TIP3    H225264   2.206   3.521   1.396 -1.0385  0.8113 -0.1537
 8434TIP3   OH225265   3.515   2.918   4.766 -0.1751 -0.0928  0.6323
 8434TIP3    H125266   3.557   2.959   4.690  2.0703 -0.9040  1.3697
 8434TIP3    H225267   3.456   2.986   4.799 -0.1443  0.7882 -0.9716
 8435TIP3   OH225268   1.871   1.658   0.486  0.6283 -0.7105  0.1267
 8435TIP3    H125269   1.810   1.637   0.415 -0.3431 -1.6873  1.2296
 8435TIP3    H225270   1.816   1.694   0.555  1.2700 -1.7473  1.2033
 8436TIP3   OH225271   6.556   1.280   0.976  0.0956 -0.1789  0.3021
 8436TIP3    H125272   6.569   1.251   0.886  0.2175  0.2609  0.1754
 8436TIP3    H225273   6.495   1.353   0.969 -2.5030 -2.1312  0.8660
 8437TIP3   OH225274   6.938   3.611   2.311 -0.0530  0.0608 -0.3583
 8437TIP3    H125275   6.884   3.572   2.242 -0.3428 -0.6136  0.2247
 8437TIP3    H225276   6.935   3.547   2.382  2.6892 -0.6857 -0.7995
 8438TIP3   OH225277   5.643   6.567   2.268 -0.0928 -0.3211  0.0835
 8438TIP3    H125278   5.648   6.588   2.175 -1.1112  0.1121  0.1219
 8438TIP3    H225279   5.566   6.511   2.276 -0.6235  0.4949  0.8149
 8439TIP3   OH225280   5.676   3.953   2.523 -0.4279  0.2250 -0.0813
 8439TIP3    H125281   5.698   4.045   2.536  2.8762 -0.4738 -0.0060
 8439TIP3    H225282   5.651   3.947   2.430 -1.7273  1.3082  0.1626
 8440TIP3   OH225283   0.944   6.594   0.961 -0.7612  0.3170 -0.1571
 8440TIP3    H125284   0.996   6.593   1.041 -0.8363 -0.3849 -0.1094
 8440TIP3    H225285   0.934   6.687   0.940 -0.6618  0.5051  0.5951
 8441TIP3   OH225286   6.841   4.371   3.589  0.0354  0.0391 -0.1471
 8441TIP3    H125287   6.858   4.299   3.649  0.7119  0.3433  0.0406
 8441TIP3    H225288   6.790   4.433   3.640  0.9937  0.5042  0.2826
 8442TIP3   OH225289   0.766   2.860   0.802 -0.3043  0.0392  0.5608
 8442TIP3    H125290   0.738   2.945   0.768 -1.2570 -0.2359  0.6348
 8442TIP3    H225291   0.810   2.881   0.885 -1.2666  0.4010  0.9899
 8443TIP3   OH225292   0.084   4.370   1.458 -0.0740  0.3191 -0.0897
 8443TIP3    H125293   0.120   4.390   1.372 -2.0619  0.1551 -1.0076
 8443TIP3    H225294   0.022   4.440   1.475 -0.2826 -0.0900  0.8652
 8444TIP3   OH225295   0.987   2.162   1.305 -0.0858 -0.7194 -0.0793
 8444TIP3    H125296   0.985   2.257   1.320  0.3867 -0.6742 -0.3011
 8444TIP3    H225297   0.953   2.151   1.216 -0.2641 -0.7716 -0.0060
 8445TIP3   OH225298   0.176   0.264   3.208  0.1509 -0.5007 -0.3097
 8445TIP3    H125299   0.146   0.178   3.179  1.2159 -1.7166  1.9435
 8445TIP3    H225300   0.116   0.288   3.279 -0.1577  0.6610 -0.9392
 8446TIP3   OH225301   4.303   1.294   5.850  0.5284  0.0329 -0.5093
 8446TIP3    H125302   4.338   1.316   5.937  0.8310  0.7239 -0.8068
 8446TIP3    H225303   4.289   1.199   5.855  2.8958 -0.3936 -0.5144
 8447TIP3   OH225304   0.236   0.765   2.811  0.3424 -0.1061 -0.0092
 8447TIP3    H125305   0.182   0.694   2.846 -0.4146  1.6154  2.5996
 8447TIP3    H225306   0.241   0.747   2.717 -1.1703 -2.6724  0.2972
 8448TIP3   OH225307   6.615   5.079   4.452 -0.4108 -0.5850  0.2404
 8448TIP3    H125308   6.693   5.048   4.406 -0.0530 -0.2002  0.5815
 8448TIP3    H225309   6.542   5.042   4.402 -0.1278  1.5507 -1.9184
 8449TIP3   OH225310   5.221   1.930   0.748  0.3388  0.7063 -0.9319
 8449TIP3    H125311   5.300   1.973   0.716 -0.1637  0.5148 -2.5114
 8449TIP3    H225312   5.236   1.837   0.731  0.2219  0.5557 -0.2191
 8450TIP3   OH225313   5.644   6.680   1.123 -0.6527  0.3512  0.2965
 8450TIP3    H125314   5.712   6.669   1.189 -2.0054  1.6455  1.9718
 8450TIP3    H225315   5.635   6.593   1.083  0.1547 -0.4824  1.8566
 8451TIP3   OH225316   1.060   5.538   3.066  0.0754 -0.3381  0.1986
 8451TIP3    H125317   0.970   5.546   3.099 -0.3513 -0.0274 -0.9790
 8451TIP3    H225318   1.114   5.568   3.139 -0.8589  0.8107  0.4719
 8452TIP3   OH225319   2.351   3.530   1.600  0.3582 -0.5147 -0.1946
 8452TIP3    H125320   2.309   3.559   1.681 -0.7720 -1.4599 -0.4087
 8452TIP3    H225321   2.376   3.611   1.556 -1.0581  0.1032  0.0713
 8453TIP3   OH225322   5.368   4.935   1.922 -0.8062  0.0561 -0.6384
 8453TIP3    H125323   5.367   4.842   1.898 -0.3516  0.0434 -0.6329
 8453TIP3    H225324   5.429   4.939   1.996  0.4445  0.5877 -1.6633
 8454TIP3   OH225325   0.712   5.096   0.648  0.0618 -0.1912  0.0078
 8454TIP3    H125326   0.641   5.044   0.685 -0.1617  0.0245 -0.1084
 8454TIP3    H225327   0.711   5.074   0.554 -2.1193  2.3321 -0.6870
 8455TIP3   OH225328   5.626   4.734   1.311 -0.1977  0.2347  0.0636
 8455TIP3    H125329   5.585   4.813   1.277  0.7598  0.6836 -0.0471
 8455TIP3    H225330   5.572   4.663   1.276 -0.5248  0.7897 -0.5856
 8456TIP3   OH225331   6.234   5.701   4.884 -0.0195  0.4958 -0.1554
 8456TIP3    H125332   6.300   5.674   4.949  0.3864  0.7406 -0.4567
 8456TIP3    H225333   6.213   5.792   4.907  1.8497  1.4066 -1.7115
 8457TIP3   OH225334   1.800   0.549   5.715  0.4843  0.1380 -0.1389
 8457TIP3    H125335   1.891   0.520   5.710  0.4994  0.1457  0.0777
 8457TIP3    H225336   1.749   0.472   5.693  0.4978 -0.2814  1.2181
 8458TIP3   OH225337   2.715   1.519   0.606  0.0715  0.0664  0.3407
 8458TIP3    H125338   2.772   1.560   0.670  0.5186  0.7314 -0.4604
 8458TIP3    H225339   2.628   1.556   0.624  0.0989 -0.1323  0.8779
 8459TIP3   OH225340   1.896   3.254   1.956  0.0404 -0.0828 -0.2902
 8459TIP3    H125341   1.851   3.339   1.959  0.5747  0.2491 -1.1928
 8459TIP3    H225342   1.898   3.232   1.863 -0.7060 -1.4352 -0.0149
 8460TIP3   OH225343   2.868   1.731   2.800  0.4930 -0.1100 -0.0086
 8460TIP3    H125344   2.789   1.772   2.835 -0.9625 -1.9809 -0.9120
 8460TIP3    H225345   2.903   1.795   2.738  0.2475  1.1186  1.0747
 8461TIP3   OH225346   1.716   0.318   4.464 -0.4943  0.2514 -0.1493
 8461TIP3    H125347   1.718   0.301   4.558 -0.6679  0.6953 -0.0641
 8461TIP3    H225348   1.698   0.412   4.457  1.0105  0.5408 -0.5881
 8462TIP3   OH225349   3.380   6.386   5.281  0.2794 -0.4832  0.0086
 8462TIP3    H125350   3.355   6.416   5.368  0.9063 -0.2556  0.1155
 8462TIP3    H225351   3.322   6.433   5.221  1.6206  1.4262  0.1287
 8463TIP3   OH225352   3.762   1.550   2.866  0.0183 -0.5676 -0.6876
 8463TIP3    H125353   3.765   1.541   2.771 -0.7069 -0.1756 -0.7617
 8463TIP3    H225354   3.762   1.645   2.881  0.7757 -0.6288 -0.2639
 8464TIP3   OH225355   2.758   6.691   1.679  0.1164  0.3370  0.2089
 8464TIP3    H125356   2.853   6.696   1.690  0.3121  1.2608 -1.5588
 8464TIP3    H225357   2.733   6.610   1.724  2.3021 -2.1074 -2.5697
 8465TIP3   OH225358   3.407   1.617   5.145  0.4789 -0.3885 -0.0737
 8465TIP3    H125359   3.476   1.675   5.177 -3.1468  4.1877  0.5039
 8465TIP3    H225360   3.422   1.612   5.051  2.0607 -0.3709  0.1354
 8466TIP3   OH225361   4.266   5.278   1.246  0.0490  0.4140 -0.0749
 8466TIP3    H125362   4.290   5.186   1.253  0.1516  0.5280  1.6391
 8466TIP3    H225363   4.313   5.310   1.169 -0.4878 -1.0949 -1.0495
 8467TIP3   OH225364   0.378   3.940   0.921 -0.1194 -0.3247 -0.3555
 8467TIP3    H125365   0.362   3.949   1.015 -0.2373 -0.6706 -0.3411
 8467TIP3    H225366   0.292   3.955   0.880  0.4116  2.5956 -0.6114
 8468TIP3   OH225367   0.925   5.825   3.363 -0.5341 -0.1284 -0.0500
 8468TIP3    H125368   1.004   5.857   3.406 -1.2054  0.5919  0.6742
 8468TIP3    H225369   0.901   5.747   3.413  0.5588 -1.2645 -1.2212
 8469TIP3   OH225370   4.148   2.421   2.083 -0.4154  0.1454 -0.1989
 8469TIP3    H125371   4.090   2.482   2.128 -1.4269 -0.0556 -1.2106
 8469TIP3    H225372   4.181   2.470   2.008 -1.2316 -0.5461 -1.0160
 8470TIP3   OH225373   2.884   2.347   1.751  0.0621 -0.1642  0.1316
 8470TIP3    H125374   2.830   2.315   1.679 -0.2881  2.7210 -1.0305
 8470TIP3    H225375   2.821   2.371   1.819 -0.1367  2.0786 -0.7593
 8471TIP3   OH225376   1.174   0.782   3.112  0.4209  0.2147 -0.5489
 8471TIP3    H125377   1.160   0.693   3.143 -0.4810  0.0507 -1.4055
 8471TIP3    H225378   1.182   0.834   3.193  2.5581 -0.8257  0.0086
 8472TIP3   OH225379   2.763   0.495   2.987 -0.4422 -0.0898  0.0841
 8472TIP3    H125380   2.858   0.486   2.982 -0.4738 -0.5277  0.2146
 8472TIP3    H225381   2.739   0.449   3.068 -0.5576  1.6924  1.1279
 8473TIP3   OH225382   3.112   2.494   1.727 -0.1451  0.6591 -0.6086
 8473TIP3    H125383   3.041   2.434   1.752 -0.3933  1.5912  1.0424
 8473TIP3    H225384   3.187   2.437   1.711 -0.5029 -0.1438  0.4514
 8474TIP3   OH225385   5.924   5.859   0.090  0.0834 -0.0017  0.3004
 8474TIP3    H125386   5.993   5.817   0.142  0.8734  2.0178  0.9838
 8474TIP3    H225387   5.850   5.866   0.151  0.2235  0.2851  0.4415
 8475TIP3   OH225388   7.137   1.987   5.131  0.0493  0.1835  0.1465
 8475TIP3    H125389   7.143   1.982   5.226  2.0189  1.4277  0.1655
 8475TIP3    H225390   7.123   2.081   5.113  1.3752  0.2294 -0.7977
 8476TIP3   OH225391   5.066   1.277   2.084  0.0805  0.2874 -0.0373
 8476TIP3    H125392   5.068   1.204   2.146  0.1976  0.4634  0.1658
 8476TIP3    H225393   5.059   1.355   2.138 -3.2265  0.3133 -0.2968
 8477TIP3   OH225394   7.166   0.272   3.948  0.0112  0.5092  0.0145
 8477TIP3    H125395   7.153   0.180   3.971  2.3272  0.2442  0.5748
 8477TIP3    H225396   7.156   0.319   4.031  1.3056  0.4183  0.2479
 8478TIP3   OH225397   2.257   4.031   4.929  0.5387  0.2120  0.5248
 8478TIP3    H125398   2.196   4.005   4.860  1.7626 -1.9103  0.1529
 8478TIP3    H225399   2.203   4.039   5.007 -0.4805  0.1766 -0.1466
 8479TIP3   OH225400   4.478   4.434   2.098  0.0097  0.0537  0.3068
 8479TIP3    H125401   4.505   4.464   2.012 -0.7042  1.5580  0.5732
 8479TIP3    H225402   4.412   4.498   2.126  1.6007  0.7297  2.7848
 8480TIP3   OH225403   0.752   2.717   1.540 -0.1715 -0.4380 -0.2140
 8480TIP3    H125404   0.750   2.628   1.574  1.1621  0.2728  1.9049
 8480TIP3    H225405   0.752   2.773   1.618 -1.1601  1.4399 -1.4801
 8481TIP3   OH225406   0.440   3.191   4.374 -0.1261 -0.8204 -0.2818
 8481TIP3    H125407   0.350   3.181   4.405  0.3284 -1.2782  0.9312
 8481TIP3    H225408   0.439   3.273   4.324 -1.5087 -1.5167 -1.4449
 8482TIP3   OH225409   4.582   2.611   5.610  0.0409  0.6941 -0.2796
 8482TIP3    H125410   4.633   2.690   5.593  1.7765 -0.0056  1.3324
 8482TIP3    H225411   4.500   2.642   5.648  0.7311  1.7349  0.4124
 8483TIP3   OH225412   4.556   3.470   4.542 -0.1998 -0.2773  0.4083
 8483TIP3    H125413   4.579   3.463   4.634  3.2666  1.7528 -0.1412
 8483TIP3    H225414   4.463   3.494   4.542 -0.6510 -1.6496  3.2393
 8484TIP3   OH225415   4.159   5.485   4.669 -0.4650 -0.0970 -0.2945
 8484TIP3    H125416   4.070   5.462   4.697 -1.2074  1.4679 -1.2132
 8484TIP3    H225417   4.151   5.576   4.639  1.1880 -0.3188 -1.5187
 8485TIP3   OH225418   4.814   4.843   2.419  0.4091 -0.4906 -0.2372
 8485TIP3    H125419   4.895   4.892   2.430  0.5301 -0.5327 -0.8645
 8485TIP3    H225420   4.824   4.799   2.334 -0.8585  0.6640 -1.0258
 8486TIP3   OH225421   0.124   2.393   0.254 -0.6381  0.2165 -0.6429
 8486TIP3    H125422   0.079   2.364   0.333  1.1582  1.6967  0.9870
 8486TIP3    H225423   0.065   2.460   0.217 -0.2414  1.5788  1.0420
 8487TIP3   OH225424   6.545   4.395   1.079  0.1197 -0.5967  0.3926
 8487TIP3    H125425   6.470   4.422   1.132 -0.7523 -0.9486 -0.6097
 8487TIP3    H225426   6.572   4.311   1.116  0.6853  0.0177  1.3994
 8488TIP3   OH225427   7.206   4.028   1.207 -0.6101 -0.0779 -0.2214
 8488TIP3    H125428   7.182   3.935   1.210  1.2797 -0.6512 -1.3727
 8488TIP3    H225429   7.211   4.054   1.299  0.9267 -1.7203  0.2171
 8489TIP3   OH225430   6.367   3.168   4.309  0.0720  0.3371 -0.3714
 8489TIP3    H125431   6.389   3.076   4.324 -1.0821  0.1776  0.4647
 8489TIP3    H225432   6.423   3.216   4.370  1.1319  0.2483 -1.2539
 8490TIP3   OH225433   0.085   6.129   3.227 -0.6439 -0.2070 -0.0711
 8490TIP3    H125434   0.053   6.091   3.309 -1.9586  0.1041 -0.4212
 8490TIP3    H225435   0.167   6.173   3.251 -0.4244 -1.0801  0.8412
 8491TIP3   OH225436   4.745   2.547   0.231  0.1375  0.3834  1.1324
 8491TIP3    H125437   4.692   2.530   0.153 -1.3445  1.2760  1.8900
 8491TIP3    H225438   4.794   2.626   0.210  1.3642 -0.5559  0.3524
 8492TIP3   OH225439   3.563   6.692   4.452  0.7331 -0.1293 -0.1531
 8492TIP3    H125440   3.534   6.643   4.529 -0.5714 -0.6078 -0.9077
 8492TIP3    H225441   3.532   6.782   4.467 -0.5507 -0.4739 -0.6116
 8493TIP3   OH225442   3.607   6.568   2.306 -0.4513  0.2460 -0.1004
 8493TIP3    H125443   3.577   6.543   2.393 -0.3012 -1.3056 -0.4605
 8493TIP3    H225444   3.534   6.546   2.248 -0.4861  1.1060 -0.3932
 8494TIP3   OH225445   4.666   2.674   3.443  0.5239  0.7000 -0.1861
 8494TIP3    H125446   4.593   2.629   3.486  1.5085  0.2572  1.0939
 8494TIP3    H225447   4.666   2.640   3.354 -0.1875 -0.0922  0.0951
 8495TIP3   OH225448   6.643   1.100   1.712 -0.9697  0.4778  0.0651
 8495TIP3    H125449   6.582   1.101   1.638 -0.0430  1.0065 -0.7148
 8495TIP3    H225450   6.602   1.041   1.775 -0.8903 -1.5240 -1.6423
 8496TIP3   OH225451   4.181   3.432   5.314  0.2536  0.0025 -0.3823
 8496TIP3    H125452   4.160   3.426   5.221  0.1640  0.2821 -0.3812
 8496TIP3    H225453   4.114   3.380   5.357 -0.2598  0.6319 -0.4033
 8497TIP3   OH225454   0.576   1.963   0.455 -0.4042 -0.2256 -0.1562
 8497TIP3    H125455   0.628   1.883   0.463  1.1312  0.7716  0.2893
 8497TIP3    H225456   0.582   2.004   0.541 -2.1074 -0.1480 -0.0429
 8498TIP3   OH225457   5.229   6.810   1.619  0.4323 -0.2019  0.1082
 8498TIP3    H125458   5.151   6.758   1.642  0.6883 -0.3153  0.7648
 8498TIP3    H225459   5.260   6.844   1.703  2.2643 -1.8282  0.1758
 8499TIP3   OH225460   1.607   6.375   5.399  0.1440  0.0520 -0.2171
 8499TIP3    H125461   1.610   6.442   5.467  1.1969 -0.5973  0.4099
 8499TIP3    H225462   1.530   6.322   5.420  0.0151  0.3321  0.0076
 8500TIP3   OH225463   4.622   2.097   1.057  0.6684  0.4188  0.6214
 8500TIP3    H125464   4.614   2.009   1.094 -0.7950  0.9302  1.6582
 8500TIP3    H225465   4.605   2.155   1.131 -0.8392  1.5146 -0.5087
 8501TIP3   OH225466   4.278   4.698   3.763 -0.2150 -0.2782 -0.4031
 8501TIP3    H125467   4.326   4.673   3.684  2.1262  0.5421  0.6865
 8501TIP3    H225468   4.311   4.640   3.831 -0.6684  0.4125  0.4242
 8502TIP3   OH225469   6.041   3.797   0.318 -0.3522 -0.6450 -0.3241
 8502TIP3    H125470   6.024   3.741   0.393 -0.0671 -0.8512 -0.4114
 8502TIP3    H225471   6.083   3.739   0.254  1.5648  0.0460  0.2272
 8503TIP3   OH225472   5.209   4.016   4.299  0.0401 -0.1162 -0.0266
 8503TIP3    H125473   5.133   3.973   4.338 -0.9985  2.9393  1.6567
 8503TIP3    H225474   5.281   3.995   4.358 -0.0995 -0.7407 -0.0685
 8504TIP3   OH225475   4.528   5.024   1.085  0.1929 -0.0744 -0.4166
 8504TIP3    H125476   4.518   5.115   1.056  0.0296 -0.3999 -1.4240
 8504TIP3    H225477   4.492   4.972   1.013  2.3546 -1.0157 -0.9035
 8505TIP3   OH225478   3.018   2.117   3.602 -0.0235  0.0025 -0.1247
 8505TIP3    H125479   3.078   2.154   3.537 -0.4985  0.3516 -0.3662
 8505TIP3    H225480   2.965   2.191   3.631 -2.0170 -0.7247 -1.7064
 8506TIP3   OH225481   5.459   4.409   5.296 -0.4692 -0.4367  0.0074
 8506TIP3    H125482   5.390   4.464   5.335 -0.7943  1.4205 -2.8367
 8506TIP3    H225483   5.413   4.358   5.230  0.6225 -0.3185 -0.8635
 8507TIP3   OH225484   1.448   1.010   3.389 -0.2036 -0.0215 -0.3792
 8507TIP3    H125485   1.482   0.960   3.463 -2.5745  0.1980  0.9619
 8507TIP3    H225486   1.518   1.071   3.367  0.8927 -0.6724  1.1283
 8508TIP3   OH225487   4.831   4.967   4.393 -0.3438  0.0009  0.0191
 8508TIP3    H125488   4.756   5.011   4.352  0.4415  1.0317 -0.3486
 8508TIP3    H225489   4.855   4.898   4.332  1.5179  2.2028 -1.9448
 8509TIP3   OH225490   5.443   2.781   2.304 -0.2476 -0.5048  0.4743
 8509TIP3    H125491   5.493   2.745   2.378 -1.7975  0.0251  1.8405
 8509TIP3    H225492   5.505   2.780   2.231  1.9214  0.5953  2.1761
 8510TIP3   OH225493   3.464   2.068   4.292  0.2409 -0.2096 -0.1629
 8510TIP3    H125494   3.522   2.000   4.258  0.8465  0.8913 -1.4357
 8510TIP3    H225495   3.418   2.101   4.215  0.3178  1.1424  0.3420
 8511TIP3   OH225496   0.118   6.626   2.545 -0.2700 -0.4917  0.3210
 8511TIP3    H125497   0.149   6.566   2.613 -2.4941 -1.5002  0.5309
 8511TIP3    H225498   0.088   6.703   2.593  0.5115 -0.1442  0.2527
 8512TIP3   OH225499   0.182   4.179   5.445 -0.1691  0.6505 -0.0875
 8512TIP3    H125500   0.256   4.237   5.427  0.4020 -0.2301 -0.6644
 8512TIP3    H225501   0.212   4.093   5.415 -1.7383  0.4341 -1.1522
 8513TIP3   OH225502   2.173   3.863   0.559  0.0565  0.6883 -0.6264
 8513TIP3    H125503   2.133   3.922   0.494 -0.7142  0.7974 -0.0747
 8513TIP3    H225504   2.160   3.908   0.643  0.2020  0.1226 -0.2952
 8514TIP3   OH225505   0.791   2.286   2.182 -0.2958 -0.1529  0.2804
 8514TIP3    H125506   0.823   2.201   2.153 -0.1527 -0.6109  1.7042
 8514TIP3    H225507   0.857   2.349   2.152  1.9105 -1.0326  2.9085
 8515TIP3   OH225508   3.276   0.970   3.705  0.5879  0.2709 -0.2659
 8515TIP3    H125509   3.280   0.970   3.801  0.1336  2.6579 -0.1832
 8515TIP3    H225510   3.202   0.913   3.684  0.3634  0.1422  0.8259
 8516TIP3   OH225511   4.148   0.682   0.344 -0.3472  0.2416 -0.0151
 8516TIP3    H125512   4.102   0.612   0.390 -0.1072  0.7870  1.0801
 8516TIP3    H225513   4.210   0.636   0.287 -1.0550 -0.4560 -0.2390
 8517TIP3   OH225514   1.837   6.345   5.011 -0.0286 -0.1349  0.1542
 8517TIP3    H125515   1.817   6.332   4.918  1.1555 -2.0599  0.1051
 8517TIP3    H225516   1.766   6.400   5.044 -0.8989 -0.0737 -1.7124
 8518TIP3   OH225517   5.968   0.149   2.873  0.6146  0.5690 -0.6332
 8518TIP3    H125518   6.038   0.206   2.904  0.9236 -0.4362  0.5837
 8518TIP3    H225519   6.011   0.092   2.809  1.1263 -0.5680  0.6839
 8519TIP3   OH225520   5.177   0.701   5.441  0.0371  0.2349 -0.9522
 8519TIP3    H125521   5.126   0.758   5.384 -1.4157  0.2851  0.3481
 8519TIP3    H225522   5.253   0.676   5.388 -1.1206  0.4800 -2.8075
 8520TIP3   OH225523   0.875   4.990   4.932  0.7691  0.6268 -0.0916
 8520TIP3    H125524   0.927   5.046   4.989 -0.1060  1.5066 -0.1272
 8520TIP3    H225525   0.859   4.911   4.983  2.4920  0.1535 -0.2456
 8521TIP3   OH225526   1.297   6.329   4.576  0.0395  0.0702 -0.2017
 8521TIP3    H125527   1.265   6.406   4.623  3.1309  0.9006  0.7999
 8521TIP3    H225528   1.286   6.351   4.484 -2.2972  0.1859  0.0560
 8522TIP3   OH225529   0.141   1.278   3.633 -0.5296  0.2910  0.2968
 8522TIP3    H125530   0.085   1.282   3.710  1.0995 -3.9924  1.9887
 8522TIP3    H225531   0.226   1.311   3.662 -0.6389  1.3816 -0.5625
 8523TIP3   OH225532   3.603   4.813   2.519  0.5617  0.1311 -0.6254
 8523TIP3    H125533   3.640   4.889   2.475  1.3095  0.9355  1.2678
 8523TIP3    H225534   3.665   4.794   2.589  0.1598 -1.9663 -0.7780
 8524TIP3   OH225535   2.018   4.783   5.708 -0.4085 -0.8380  0.2393
 8524TIP3    H125536   2.091   4.813   5.762  0.6373 -0.3879 -1.3630
 8524TIP3    H225537   2.059   4.752   5.627 -1.8515 -2.2905  0.0069
 8525TIP3   OH225538   2.073   6.736   4.046  0.3676 -0.4190 -0.2519
 8525TIP3    H125539   2.085   6.798   3.974  1.1937 -0.1353  0.1183
 8525TIP3    H225540   2.110   6.654   4.014  0.0649 -0.4922 -0.4193
 8526TIP3   OH225541   3.437   0.514   0.075 -0.2080 -0.1031 -0.4697
 8526TIP3    H125542   3.510   0.560   0.115  0.4373 -1.7946  0.4157
 8526TIP3    H225543   3.366   0.578   0.073  0.6675  0.9448  0.6150
 8527TIP3   OH225544   3.867   4.642   3.407  0.4164  0.4059  0.1332
 8527TIP3    H125545   3.837   4.625   3.496  2.4786  0.9999  1.0008
 8527TIP3    H225546   3.834   4.569   3.356  0.3948 -0.7067  1.6866
 8528TIP3   OH225547   0.481   0.123   4.618 -0.1906  0.0511  0.3543
 8528TIP3    H125548   0.470   0.206   4.665 -0.5150  0.8476 -1.0306
 8528TIP3    H225549   0.571   0.097   4.636  0.6962  1.9223 -0.9378
 8529TIP3   OH225550   6.187   2.200   0.129 -0.1208 -0.1326 -0.3781
 8529TIP3    H125551   6.182   2.160   0.216 -0.9437 -0.1477 -0.4263
 8529TIP3    H225552   6.096   2.214   0.103  0.1274  0.5602 -0.9244
 8530TIP3   OH225553   6.557   2.819   5.118  0.1142  0.4118  0.4885
 8530TIP3    H125554   6.571   2.726   5.137 -0.6421  0.1357 -0.2214
 8530TIP3    H225555   6.477   2.821   5.066 -0.5340  1.5862  1.4734
 8531TIP3   OH225556   5.573   1.125   5.103 -0.0680 -0.3744  0.3030
 8531TIP3    H125557   5.533   1.057   5.048  1.6656 -0.6479 -0.6940
 8531TIP3    H225558   5.544   1.103   5.192  2.4253 -4.0928  0.4380
 8532TIP3   OH225559   6.507   1.063   1.453 -0.0794  0.7123 -0.2713
 8532TIP3    H125560   6.501   1.128   1.384 -1.3050 -0.5134 -1.3922
 8532TIP3    H225561   6.489   0.980   1.409 -1.3585 -0.0573  1.5760
 8533TIP3   OH225562   5.876   4.490   4.094 -0.2324  0.1175  0.1649
 8533TIP3    H125563   5.831   4.413   4.059  0.8155 -1.4775  2.0958
 8533TIP3    H225564   5.920   4.458   4.173 -0.2229  2.8524  1.3828
 8534TIP3   OH225565   6.173   6.350   3.258  0.2628  0.1727  0.9240
 8534TIP3    H125566   6.163   6.261   3.291 -0.8857  0.1150  0.4727
 8534TIP3    H225567   6.154   6.406   3.334 -2.9583  0.0506  0.3522
 8535TIP3   OH225568   2.565   3.323   4.851 -0.0396  0.3413  0.0376
 8535TIP3    H125569   2.482   3.327   4.804  0.5098  1.1985 -0.8839
 8535TIP3    H225570   2.582   3.229   4.862 -1.5445  0.1517  1.0188
 8536TIP3   OH225571   6.301   0.548   4.116  0.4411 -0.3947  0.0055
 8536TIP3    H125572   6.228   0.594   4.158  0.5246 -0.4392  0.2001
 8536TIP3    H225573   6.260   0.500   4.045  0.0474 -1.5761  0.9889
 8537TIP3   OH225574   0.393   6.759   2.485 -0.2018 -0.6424  0.0606
 8537TIP3    H125575   0.401   6.820   2.559 -2.4019  3.3673 -2.6391
 8537TIP3    H225576   0.301   6.732   2.487 -0.2706 -0.5480 -1.0633
 8538TIP3   OH225577   1.541   3.874   1.122  0.0428 -0.3271 -0.2104
 8538TIP3    H125578   1.467   3.902   1.069 -0.9187  1.0312  1.7507
 8538TIP3    H225579   1.514   3.790   1.159 -0.1691 -0.2348 -0.1580
 8539TIP3   OH225580   4.105   0.725   4.728 -0.4603 -0.1749 -0.4047
 8539TIP3    H125581   4.052   0.754   4.654  0.2699 -0.2497 -0.9642
 8539TIP3    H225582   4.195   0.727   4.696 -0.2227 -1.1997  0.1479
 8540TIP3   OH225583   6.253   4.564   5.000  0.5694  0.6161 -0.0478
 8540TIP3    H125584   6.277   4.648   4.961  0.8262  0.2570 -0.6989
 8540TIP3    H225585   6.316   4.502   4.962  0.1430  0.0669  0.1261
 8541TIP3   OH225586   2.904   2.961   1.836  0.0077 -0.1221 -0.0505
 8541TIP3    H125587   2.896   2.879   1.787  1.3979 -1.0269  1.1532
 8541TIP3    H225588   2.962   3.015   1.783  1.9334 -1.2962  0.7465
 8542TIP3   OH225589   5.177   5.467   1.733  0.3406 -0.4496  0.1955
 8542TIP3    H125590   5.094   5.502   1.701  0.0144 -0.6559  0.7979
 8542TIP3    H225591   5.167   5.372   1.727  0.4564 -0.4786  0.4608
 8543TIP3   OH225592   7.103   0.113   2.668  0.1883 -0.3871 -0.3594
 8543TIP3    H125593   7.121   0.022   2.691  1.4071 -0.5819 -1.9074
 8543TIP3    H225594   7.189   0.149   2.645 -0.3759  0.9618 -0.4115
 8544TIP3   OH225595   4.180   6.218   4.637  0.4110 -0.3710 -0.1188
 8544TIP3    H125596   4.188   6.206   4.732  0.5743 -2.2021 -0.3374
 8544TIP3    H225597   4.091   6.193   4.617  0.5309 -0.4726 -0.5208
 8545TIP3   OH225598   3.245   3.733   3.055 -0.4954  0.2403 -0.6718
 8545TIP3    H125599   3.230   3.640   3.070  0.8230  0.1407  0.1904
 8545TIP3    H225600   3.316   3.756   3.114  1.4481  1.0682 -3.1405
 8546TIP3   OH225601   1.331   5.580   0.904 -0.0429 -0.4824  0.2227
 8546TIP3    H125602   1.384   5.653   0.937  0.0818 -0.4014 -0.1440
 8546TIP3    H225603   1.241   5.610   0.912 -0.0091 -0.4195  0.3797
 8547TIP3   OH225604   2.865   4.003   2.210 -0.4716 -0.1679  0.1500
 8547TIP3    H125605   2.803   3.984   2.281 -0.7869 -2.7729 -0.7209
 8547TIP3    H225606   2.820   3.976   2.131  0.7498  0.5170 -0.8106
 8548TIP3   OH225607   3.959   0.181   1.682 -0.6168  0.0072  0.3186
 8548TIP3    H125608   3.928   0.165   1.593  0.1536  0.0293  0.0355
 8548TIP3    H225609   3.884   0.218   1.728 -1.6262 -1.8092  0.2161
 8549TIP3   OH225610   5.288   5.677   3.125 -0.5483  0.7936  0.2387
 8549TIP3    H125611   5.290   5.738   3.051  0.7782  0.0701 -0.3471
 8549TIP3    H225612   5.324   5.596   3.090  0.4697  0.5560  1.7670
 8550TIP3   OH225613   4.656   4.782   5.107 -0.5588  0.0031 -0.1889
 8550TIP3    H125614   4.581   4.728   5.131 -0.2767 -0.2748  0.0756
 8550TIP3    H225615   4.641   4.806   5.016  0.3048 -2.1808 -0.9682
 8551TIP3   OH225616   1.650   3.520   1.553 -0.0592  0.1307  0.0986
 8551TIP3    H125617   1.740   3.549   1.566 -0.2389  1.0089 -0.4908
 8551TIP3    H225618   1.642   3.440   1.605  1.2816 -0.3885 -0.4703
 8552TIP3   OH225619   2.139   6.304   2.208 -0.5111 -1.0258  0.6212
 8552TIP3    H125620   2.068   6.245   2.183 -0.6957 -0.1621 -1.0426
 8552TIP3    H225621   2.095   6.387   2.228 -0.0051 -0.5511 -0.1990
 8553TIP3   OH225622   2.111   4.059   3.139  0.3383  0.3136  0.5322
 8553TIP3    H125623   2.124   4.026   3.228  0.6935  1.0676  0.7672
 8553TIP3    H225624   2.182   4.122   3.126  0.9088 -0.5276 -0.6598
 8554TIP3   OH225625   5.856   2.448   2.984 -0.0326  0.0938  0.1604
 8554TIP3    H125626   5.820   2.535   2.999  1.2871  0.4701  1.3354
 8554TIP3    H225627   5.815   2.394   3.053  0.9397  0.3313  0.9446
 8555TIP3   OH225628   1.401   6.224   1.594 -0.0383 -0.2988 -0.4622
 8555TIP3    H125629   1.387   6.163   1.667 -0.8510 -0.1237 -0.4612
 8555TIP3    H225630   1.487   6.263   1.612  0.0707 -0.7552  0.0392
 8556TIP3   OH225631   6.052   3.180   0.425 -0.0700  0.0352  0.0026
 8556TIP3    H125632   6.052   3.273   0.446 -0.9567 -0.0031  0.2109
 8556TIP3    H225633   6.089   3.137   0.502 -0.9789  0.1055  0.4898
 8557TIP3   OH225634   1.701   6.051   3.331 -0.1752 -0.3347 -0.3722
 8557TIP3    H125635   1.614   6.052   3.293 -1.5044  0.3933  2.4000
 8557TIP3    H225636   1.734   5.962   3.314 -2.2748 -1.2834  0.1309
 8558TIP3   OH225637   2.903   5.060   2.347 -0.1950 -0.1185 -0.0874
 8558TIP3    H125638   2.963   5.134   2.348  1.8708 -1.7113 -0.2059
 8558TIP3    H225639   2.873   5.055   2.256 -0.6414  0.7722  0.0027
 8559TIP3   OH225640   3.575   4.014   1.140  0.0571  0.4403 -0.2900
 8559TIP3    H125641   3.608   4.096   1.103  0.8131  0.2270 -0.1016
 8559TIP3    H225642   3.616   4.008   1.226 -0.6436  0.2681  0.0358
 8560TIP3   OH225643   6.401   3.603   3.907  0.1012 -0.6388 -0.4997
 8560TIP3    H125644   6.442   3.659   3.972 -1.3257 -1.3480  1.0801
 8560TIP3    H225645   6.446   3.624   3.825  2.2221 -0.0129  0.7634
 8561TIP3   OH225646   1.197   6.107   3.757  0.1142 -0.2384 -0.1380
 8561TIP3    H125647   1.257   6.063   3.817  0.8923  1.5135  0.4526
 8561TIP3    H225648   1.208   6.061   3.674 -1.1248 -2.8328  1.0269
 8562TIP3   OH225649   2.799   0.493   1.267  0.3271 -0.5780 -0.5194
 8562TIP3    H125650   2.725   0.493   1.328  0.7465  0.3119  0.0144
 8562TIP3    H225651   2.869   0.448   1.315  0.6867  0.2059 -0.2954
 8563TIP3   OH225652   1.592   2.501   5.084  0.2216  0.0756  1.0476
 8563TIP3    H125653   1.533   2.566   5.120  0.2256 -0.0611  1.2991
 8563TIP3    H225654   1.680   2.535   5.101  0.2222  0.0663  1.0626
 8564TIP3   OH225655   2.647   2.377   0.384 -0.4957  0.2646  0.3684
 8564TIP3    H125656   2.551   2.375   0.389 -0.4816  0.6563  0.8853
 8564TIP3    H225657   2.674   2.416   0.467  0.1645 -0.8858  0.7141
 8565TIP3   OH225658   4.515   2.706   3.873 -0.8264 -0.0554  0.5930
 8565TIP3    H125659   4.435   2.667   3.838 -0.5721  0.3202 -0.4508
 8565TIP3    H225660   4.582   2.684   3.808 -0.4497  1.1469  0.5641
 8566TIP3   OH225661   5.328   4.925   3.585  0.4230  0.4835 -0.5298
 8566TIP3    H125662   5.283   4.855   3.633  0.5550 -0.1457 -1.2985
 8566TIP3    H225663   5.358   4.985   3.653  1.0508 -0.6461  0.2440
 8567TIP3   OH225664   2.984   4.952   2.913  0.3309  0.2577  0.4080
 8567TIP3    H125665   2.975   5.025   2.974  0.4675 -0.2705  1.0711
 8567TIP3    H225666   3.025   4.882   2.964  0.1589 -0.3042 -0.2005
 8568TIP3   OH225667   0.679   4.821   4.127  0.1217  0.5162 -0.8053
 8568TIP3    H125668   0.642   4.743   4.169 -2.7905  1.8373 -0.6897
 8568TIP3    H225669   0.676   4.889   4.195 -0.2678  1.4945 -1.7725
 8569TIP3   OH225670   4.093   1.574   4.838  0.3050  0.0986  0.2179
 8569TIP3    H125671   4.120   1.495   4.790  2.4822  1.8435 -1.6442
 8569TIP3    H225672   4.095   1.549   4.930 -0.9414 -2.5104 -0.3738
 8570TIP3   OH225673   5.771   1.960   2.090  0.2611 -0.6121 -0.4106
 8570TIP3    H125674   5.805   1.987   2.176 -1.2873 -0.9788  0.3640
 8570TIP3    H225675   5.847   1.926   2.044  1.0943 -0.6523  0.9326
 8571TIP3   OH225676   4.733   5.958   1.068  0.1870  0.2005  0.1109
 8571TIP3    H125677   4.793   5.884   1.065 -0.2195 -0.1131 -1.0491
 8571TIP3    H225678   4.651   5.921   1.100  0.0043  0.1431 -0.4009
 8572TIP3   OH225679   0.082   1.764   0.532 -0.5226 -0.1014  0.6816
 8572TIP3    H125680   0.154   1.720   0.487 -0.1953 -0.4298  1.4998
 8572TIP3    H225681   0.084   1.729   0.621 -1.0905  0.5991  0.9863
 8573TIP3   OH225682   6.076   3.956   0.090  0.0584 -0.7449 -0.0177
 8573TIP3    H125683   6.063   3.918   0.177 -1.1933 -0.4242 -0.0467
 8573TIP3    H225684   6.131   4.033   0.106 -0.4916 -0.4506  0.5715
 8574TIP3   OH225685   2.984   2.912   2.093  0.1993  0.0918 -0.3962
 8574TIP3    H125686   3.034   2.834   2.114 -0.0212 -0.1851 -0.8946
 8574TIP3    H225687   2.990   2.920   1.998 -1.6067 -0.5822 -0.6058
 8575TIP3   OH225688   4.853   1.861   1.016 -0.0035  0.5704  0.0445
 8575TIP3    H125689   4.848   1.896   1.105 -1.3092 -0.9777  0.6307
 8575TIP3    H225690   4.830   1.935   0.960  0.0665  1.3644  1.0379
 8576TIP3   OH225691   0.493   4.938   3.968  0.2525 -0.0731 -0.1568
 8576TIP3    H125692   0.555   4.882   4.014  0.1775  0.6972  0.8998
 8576TIP3    H225693   0.526   5.027   3.982 -0.3529  0.2479 -0.7184
 8577TIP3   OH225694   5.335   5.690   3.634 -0.3331 -0.5759  0.1263
 8577TIP3    H125695   5.327   5.595   3.642 -1.2397 -0.6391 -1.2266
 8577TIP3    H225696   5.291   5.711   3.552  1.9643  0.7250 -0.8854
 8578TIP3   OH225697   4.730   0.689   1.140  0.3148  0.0778 -0.5584
 8578TIP3    H125698   4.684   0.607   1.155  0.9147 -0.2456 -0.4537
 8578TIP3    H225699   4.680   0.733   1.071 -0.8535  0.2970  0.3932
 8579TIP3   OH225700   3.705   4.004   2.739  0.0960  0.1989 -0.4052
 8579TIP3    H125701   3.751   4.018   2.656 -0.1359  0.8279 -0.4349
 8579TIP3    H225702   3.644   3.933   2.720 -0.3178  0.6825 -0.9342
 8580TIP3   OH225703   6.549   2.863   2.386 -0.7360 -0.5278 -0.1099
 8580TIP3    H125704   6.616   2.798   2.364  0.8303  0.4031  1.6309
 8580TIP3    H225705   6.559   2.931   2.319  2.6394  1.3324  1.9866
 8581TIP3   OH225706   3.428   6.746   5.820 -0.6583  0.0200  0.3342
 8581TIP3    H125707   3.351   6.698   5.850 -0.2373 -1.2313 -0.5122
 8581TIP3    H225708   3.421   6.744   5.724 -0.1301  0.8397  0.2717
 8582TIP3   OH225709   3.421   0.464   3.705 -0.6746 -0.3607  0.2390
 8582TIP3    H125710   3.407   0.410   3.627 -0.2038  0.2969 -0.3141
 8582TIP3    H225711   3.439   0.552   3.671  2.9094 -0.6746  0.8518
 8583TIP3   OH225712   6.245   0.021   4.857  0.0268  0.4000  0.5890
 8583TIP3    H125713   6.225   0.113   4.839 -0.7634 -0.0730 -1.1931
 8583TIP3    H225714   6.301  -0.005   4.783 -1.4250 -1.0584 -0.0602
 8584TIP3   OH225715   4.836   5.159   4.644 -0.4764 -1.2167 -0.0538
 8584TIP3    H125716   4.853   5.105   4.566  0.2720  0.7099 -1.3128
 8584TIP3    H225717   4.795   5.238   4.609  1.9129  0.6827  1.1993
 8585TIP3   OH225718   1.706   3.869   2.084  0.4234  0.2024  0.2513
 8585TIP3    H125719   1.765   3.802   2.050 -0.5687 -0.0616 -0.9965
 8585TIP3    H225720   1.723   3.870   2.179  0.2224 -2.0562  0.3579
 8586TIP3   OH225721   3.091   0.499   4.799 -0.0103  0.1072 -0.1289
 8586TIP3    H125722   3.080   0.419   4.748 -1.2408 -0.2816  0.7107
 8586TIP3    H225723   3.059   0.476   4.886  2.5586  0.5734  1.0318
 8587TIP3   OH225724   7.046   4.359   2.951  0.4243 -0.4048 -0.0406
 8587TIP3    H125725   7.109   4.345   2.880  0.4195 -0.4233 -0.0413
 8587TIP3    H225726   7.064   4.448   2.982  0.9824 -0.6931  0.4918
 8588TIP3   OH225727   6.098   2.065   0.832 -0.0960  0.0699 -0.7462
 8588TIP3    H125728   6.141   2.142   0.796 -0.6058  1.6755  1.7917
 8588TIP3    H225729   6.166   2.021   0.883 -0.3526  0.0750 -0.3968
 8589TIP3   OH225730   5.059   1.267   0.672 -0.1051  0.1856 -0.1530
 8589TIP3    H125731   4.985   1.211   0.697 -1.2523  1.4830 -0.5164
 8589TIP3    H225732   5.030   1.310   0.592  1.5691 -0.2119 -1.0079
 8590TIP3   OH225733   0.333   3.914   0.401  0.2617  0.4760  0.3298
 8590TIP3    H125734   0.377   3.910   0.486  1.0267 -0.2159 -0.0814
 8590TIP3    H225735   0.263   3.979   0.413  0.1422  0.1495  1.5815
 8591TIP3   OH225736   4.161   4.042   0.698  0.5003  0.2473 -0.4364
 8591TIP3    H125737   4.143   3.995   0.779 -0.6763  1.4263  0.0231
 8591TIP3    H225738   4.247   4.081   0.711  0.0033  1.0514  0.5751
 8592TIP3   OH225739   4.019   6.811   3.659  0.9360  0.1693  0.2011
 8592TIP3    H125740   3.986   6.752   3.591  0.6803  0.1134  0.3708
 8592TIP3    H225741   4.004   6.763   3.741  0.2181  0.6985  0.3896
 8593TIP3   OH225742   2.735   0.911   1.465 -0.0849  0.1496  0.8823
 8593TIP3    H125743   2.824   0.899   1.499  0.1780 -0.8418 -0.0968
 8593TIP3    H225744   2.747   0.948   1.378 -0.6665  0.6731  1.0202
 8594TIP3   OH225745   7.166   0.017   5.376 -0.0556 -0.6001 -0.4391
 8594TIP3    H125746   7.159   0.090   5.437 -1.9951 -0.6906 -0.5048
 8594TIP3    H225747   7.256   0.021   5.344  0.3133  0.8260  0.6973
 8595TIP3   OH225748   0.120   0.744   1.820 -0.3602 -0.9669 -0.1018
 8595TIP3    H125749   0.042   0.793   1.846  0.1834  0.0614 -0.3953
 8595TIP3    H225750   0.191   0.784   1.869 -0.0735 -2.2422  0.5647
 8596TIP3   OH225751   5.366   3.004   3.051  0.2958  0.0790  0.2365
 8596TIP3    H125752   5.366   3.064   3.126 -0.2756  0.4353 -0.0369
 8596TIP3    H225753   5.286   3.027   3.003  0.2309 -0.6989 -0.0370
 8597TIP3   OH225754   2.803   0.466   0.318  0.3870  0.3615 -0.0593
 8597TIP3    H125755   2.740   0.400   0.349  0.1520  0.9141  0.6722
 8597TIP3    H225756   2.831   0.434   0.232 -0.8341  0.0575 -0.3705
 8598TIP3   OH225757   6.104   0.727   3.897  0.2816  0.4323  0.3380
 8598TIP3    H125758   6.132   0.640   3.869 -0.3745 -0.0860  1.2568
 8598TIP3    H225759   6.010   0.729   3.881  0.6108  1.7885 -1.7501
 8599TIP3   OH225760   4.922   2.763   3.413  0.0628 -0.1149  0.3123
 8599TIP3    H125761   4.838   2.734   3.449  0.6001  0.7329  2.4118
 8599TIP3    H225762   4.915   2.858   3.411 -0.6466 -0.0710 -3.8566
 8600TIP3   OH225763   1.824   4.987   0.621  0.1871 -0.2130  0.4732
 8600TIP3    H125764   1.858   4.961   0.707  1.0409  2.2607  0.9817
 8600TIP3    H225765   1.734   4.954   0.620  0.8464 -2.2013  1.3674
 8601TIP3   OH225766   0.163   3.830   1.616  0.9675 -0.5924  0.3752
 8601TIP3    H125767   0.146   3.924   1.629  0.5204 -0.5315 -0.5346
 8601TIP3    H225768   0.253   3.826   1.584 -0.3281  0.0393 -4.0965
 8602TIP3   OH225769   5.077   4.400   1.597 -0.4951 -0.2292 -0.0610
 8602TIP3    H125770   5.125   4.480   1.575  0.3083 -0.2810  1.3481
 8602TIP3    H225771   5.143   4.330   1.590 -0.5691 -0.4268  0.9772
 8603TIP3   OH225772   0.967   5.306   4.920  0.4105 -0.2564  0.2725
 8603TIP3    H125773   0.935   5.347   4.840  0.2897  0.3015  0.6001
 8603TIP3    H225774   0.903   5.330   4.987 -0.0208 -1.5168  0.3547
 8604TIP3   OH225775   3.344   3.477   5.010 -0.3327  0.2460 -0.4439
 8604TIP3    H125776   3.348   3.407   4.944 -1.4412 -0.8960  0.6325
 8604TIP3    H225777   3.365   3.432   5.092 -1.4212  1.1063  0.3200
 8605TIP3   OH225778   5.232   4.335   1.050 -0.1505 -0.1859  0.2004
 8605TIP3    H125779   5.197   4.339   1.139  1.0692  1.1993  0.6593
 8605TIP3    H225780   5.321   4.369   1.058  0.7618 -2.0466 -1.2015
 8606TIP3   OH225781   0.645   2.396   1.105 -0.2762  0.5189 -0.1154
 8606TIP3    H125782   0.672   2.468   1.048  1.1152 -1.5700 -2.2791
 8606TIP3    H225783   0.563   2.364   1.067 -0.4732  0.4623  0.3510
 8607TIP3   OH225784   5.683   0.960   2.048 -0.4947  0.0380  0.4536
 8607TIP3    H125785   5.763   0.976   2.098  0.2261  0.3264 -0.7495
 8607TIP3    H225786   5.651   0.876   2.079  1.8083 -1.4575 -0.9414
 8608TIP3   OH225787   5.902   3.465   3.863 -0.5303 -0.6950 -0.2345
 8608TIP3    H125788   5.848   3.515   3.801 -0.5378  1.0222  1.0803
 8608TIP3    H225789   5.986   3.511   3.863 -0.2569 -1.1922  0.3987
 8609TIP3   OH225790   5.113   2.877   3.806 -0.1168 -0.3021 -0.0251
 8609TIP3    H125791   5.026   2.872   3.844 -0.4735  0.7511 -0.6632
 8609TIP3    H225792   5.157   2.947   3.855 -0.8045  1.5359 -1.8782
 8610TIP3   OH225793   0.657   4.740   2.680  0.6954  0.3397  0.0276
 8610TIP3    H125794   0.752   4.739   2.673  0.7675  1.7356  0.5375
 8610TIP3    H225795   0.627   4.747   2.589  1.1208  1.0476 -0.0664
 8611TIP3   OH225796   3.821   6.383   1.933  0.0443 -0.1873 -0.4410
 8611TIP3    H125797   3.859   6.346   2.012  0.5608  2.5242  0.6879
 8611TIP3    H225798   3.894   6.386   1.871  0.4082  0.4042  0.0074
 8612TIP3   OH225799   6.605   5.335   2.295  0.6157  0.1418  0.2862
 8612TIP3    H125800   6.666   5.350   2.223  0.0810  0.7171 -0.0664
 8612TIP3    H225801   6.553   5.416   2.299 -1.5990 -1.1156 -0.8888
 8613TIP3   OH225802   2.112   0.550   2.536 -0.3861  0.1085 -0.2813
 8613TIP3    H125803   2.121   0.568   2.630  1.3784  1.4865 -0.6749
 8613TIP3    H225804   2.028   0.589   2.512 -0.8313 -0.2054  0.6986
 8614TIP3   OH225805   5.858   0.797   3.170  0.1458 -0.2487 -0.1551
 8614TIP3    H125806   5.888   0.825   3.256 -0.0522  1.4275 -0.6067
 8614TIP3    H225807   5.784   0.740   3.188 -0.4791  0.8288  0.7686
 8615TIP3   OH225808   2.921   4.000   3.249  0.5164 -0.1526  0.3218
 8615TIP3    H125809   2.986   4.068   3.231  1.2533 -0.8394  0.3388
 8615TIP3    H225810   2.842   4.030   3.204  0.5061  1.2411  1.1939
 8616TIP3   OH225811   4.530   4.262   0.544 -0.0725  0.1106  0.6444
 8616TIP3    H125812   4.462   4.245   0.479  0.8091 -0.8886 -0.0679
 8616TIP3    H225813   4.610   4.270   0.492  0.7991 -1.6087  1.6386
 8617TIP3   OH225814   5.200   3.107   4.290 -0.0842 -0.1401 -0.3860
 8617TIP3    H125815   5.216   3.145   4.376 -0.5054  0.7664 -0.7011
 8617TIP3    H225816   5.278   3.131   4.239 -0.3895  0.3989 -0.6101
 8618TIP3   OH225817   6.075   1.247   5.129  0.1512  0.3764 -0.0941
 8618TIP3    H125818   6.063   1.275   5.038  2.2270 -0.6527 -0.7321
 8618TIP3    H225819   6.169   1.233   5.137 -0.2360 -1.5918  1.6190
 8619TIP3   OH225820   6.582   3.997   0.354  0.1082  0.2949 -0.3393
 8619TIP3    H125821   6.674   3.999   0.329  0.5131 -1.3530  0.8692
 8619TIP3    H225822   6.573   4.071   0.416  0.7182  0.2136 -0.1475
 8620TIP3   OH225823   3.927   5.876   1.789  0.1524 -0.5893 -0.3199
 8620TIP3    H125824   4.018   5.866   1.761  0.3296 -0.1022  0.0634
 8620TIP3    H225825   3.908   5.969   1.779 -0.5058 -0.7872 -0.9830
 8621TIP3   OH225826   4.721   2.824   5.531 -0.7784  0.2459 -0.8145
 8621TIP3    H125827   4.698   2.841   5.440  0.0895  0.2694 -1.0356
 8621TIP3    H225828   4.723   2.910   5.572 -0.7387  0.2767 -0.8800
 8622TIP3   OH225829   5.252   3.580   3.448  0.4381 -0.0566 -0.2012
 8622TIP3    H125830   5.255   3.631   3.529 -0.0511  0.2493 -0.3640
 8622TIP3    H225831   5.263   3.489   3.476  0.9577  0.1033  0.1339
 8623TIP3   OH225832   0.520   0.476   2.138  0.4006 -0.0705 -0.4660
 8623TIP3    H125833   0.594   0.483   2.078  1.2307 -3.1020  0.0587
 8623TIP3    H225834   0.526   0.555   2.192  3.2553 -0.1775 -0.4762
 8624TIP3   OH225835   0.505   4.957   0.718 -0.7364 -0.0085 -0.2616
 8624TIP3    H125836   0.447   4.973   0.793 -1.1995 -2.4485 -0.0136
 8624TIP3    H225837   0.447   4.925   0.649 -0.2034  1.4815 -1.4451
 8625TIP3   OH225838   4.655   0.736   4.818 -0.9631  0.1159 -0.3216
 8625TIP3    H125839   4.690   0.717   4.731 -1.1581 -0.7976 -0.2097
 8625TIP3    H225840   4.570   0.777   4.801 -0.4385  1.1356 -0.5710
 8626TIP3   OH225841   0.712   2.813   4.399  1.0775  0.3113  0.1102
 8626TIP3    H125842   0.677   2.746   4.340  1.0861  3.4184 -3.9080
 8626TIP3    H225843   0.806   2.799   4.399  1.0422  0.0679 -0.3834
 8627TIP3   OH225844   1.617   2.400   0.400 -0.5148  0.2025 -0.2059
 8627TIP3    H125845   1.605   2.362   0.487  1.2260  1.9002  0.8451
 8627TIP3    H225846   1.636   2.325   0.343 -2.4276 -1.0267  0.6527
 8628TIP3   OH225847   2.727   0.765   2.613 -0.3244  0.0554 -1.3321
 8628TIP3    H125848   2.664   0.726   2.552 -0.5436 -1.6555 -0.0857
 8628TIP3    H225849   2.719   0.712   2.693 -0.5990  2.6459  0.4965
 8629TIP3   OH225850   1.238   2.803   1.371 -0.1883  0.1565  0.2412
 8629TIP3    H125851   1.158   2.834   1.328 -0.4183  0.2964  0.7567
 8629TIP3    H225852   1.210   2.778   1.459 -0.0411 -1.7560 -0.2204
 8630TIP3   OH225853   6.084   2.749   2.741 -0.3649 -0.4935 -0.0778
 8630TIP3    H125854   6.079   2.729   2.834  0.1814 -0.3078 -0.0073
 8630TIP3    H225855   6.106   2.842   2.737  1.5039 -0.9118 -0.3723
 8631TIP3   OH225856   1.569   5.557   0.386  0.2721 -0.4907  0.1765
 8631TIP3    H125857   1.618   5.561   0.468 -2.0235 -0.5228  1.6491
 8631TIP3    H225858   1.525   5.642   0.381  0.0684 -0.6521 -0.8181
 8632TIP3   OH225859   4.298   3.557   4.659 -0.6272  0.0473 -0.3788
 8632TIP3    H125860   4.274   3.601   4.578 -1.9345 -0.8866 -0.5361
 8632TIP3    H225861   4.255   3.471   4.653  1.2663 -1.0026  0.2051
 8633TIP3   OH225862   6.424   2.068   3.911  0.3174 -0.0051 -0.4268
 8633TIP3    H125863   6.383   2.104   3.989 -0.2643  0.8477 -1.0981
 8633TIP3    H225864   6.515   2.099   3.915  0.3672 -0.2149  0.0567
 8634TIP3   OH225865   5.125   6.037   2.064  0.0829 -0.1604 -0.0721
 8634TIP3    H125866   5.033   6.039   2.038  0.2558 -0.9434 -0.7754
 8634TIP3    H225867   5.165   6.108   2.013  0.1636 -0.8433 -0.9947
 8635TIP3   OH225868   3.231   0.456   3.909 -0.1506 -0.0829  0.6245
 8635TIP3    H125869   3.298   0.450   3.841 -2.5287 -2.4715 -1.7675
 8635TIP3    H225870   3.249   0.381   3.966 -1.3891 -1.5934 -0.8233
 8636TIP3   OH225871   1.238   2.307   5.788  0.3600  0.3075  0.0260
 8636TIP3    H125872   1.189   2.383   5.820  0.6883  0.1500  0.9331
 8636TIP3    H225873   1.173   2.238   5.777  0.2227  0.3984  0.2630
 8637TIP3   OH225874   5.115   6.030   5.314 -0.0329 -0.1911 -0.3604
 8637TIP3    H125875   5.095   5.967   5.245 -0.0910 -0.3054 -0.2393
 8637TIP3    H225876   5.166   6.098   5.270  0.1548 -0.3947 -0.4616
 8638TIP3   OH225877   4.568   5.627   2.248 -0.8129  0.1324  0.0935
 8638TIP3    H125878   4.476   5.640   2.222 -0.7424  1.6686  0.5017
 8638TIP3    H225879   4.593   5.544   2.207 -2.6831 -0.8440  0.8145
 8639TIP3   OH225880   6.681   3.994   5.529 -0.1678 -0.2844  0.0505
 8639TIP3    H125881   6.647   3.922   5.582  1.4508 -0.5905  0.7366
 8639TIP3    H225882   6.627   3.993   5.450 -1.3749 -1.0558  0.8321
 8640TIP3   OH225883   2.934   5.402   2.631  0.2086  0.3425 -0.5968
 8640TIP3    H125884   2.990   5.475   2.660 -0.0192  0.0627  0.6046
 8640TIP3    H225885   2.887   5.436   2.555  1.0121  1.0332 -0.8001
 8641TIP3   OH225886   1.177   4.752   4.595  0.2808 -0.5288  0.0780
 8641TIP3    H125887   1.235   4.687   4.635  2.1023  1.3430  0.7009
 8641TIP3    H225888   1.094   4.743   4.643  0.6070 -2.0991  0.3981
 8642TIP3   OH225889   2.808   4.924   3.811 -0.4502  0.0706  0.0915
 8642TIP3    H125890   2.759   4.860   3.758 -2.0300  2.0068 -0.9517
 8642TIP3    H225891   2.749   4.944   3.883  0.1183  0.2209  0.5157
 8643TIP3   OH225892   2.637   3.949   0.751  0.5502 -0.3237 -0.4110
 8643TIP3    H125893   2.674   4.037   0.760 -1.0173  0.5228 -1.6427
 8643TIP3    H225894   2.616   3.942   0.658 -0.4965 -1.5177 -0.1048
 8644TIP3   OH225895   1.745   5.533   2.754  0.2126 -0.0737  0.1145
 8644TIP3    H125896   1.706   5.605   2.804 -1.0403 -1.8502  1.8225
 8644TIP3    H225897   1.828   5.515   2.799  1.1896  1.0882 -1.1179
 8645TIP3   OH225898   0.969   4.572   5.704 -0.5779 -0.3716 -0.1161
 8645TIP3    H125899   1.003   4.547   5.790 -0.7918  0.0480  0.0949
 8645TIP3    H225900   0.997   4.502   5.646 -0.6166 -0.7725  0.3375
 8646TIP3   OH225901   4.675   2.986   0.888 -0.0463 -0.0966  0.9177
 8646TIP3    H125902   4.649   2.967   0.798  2.1062 -1.1999  0.4657
 8646TIP3    H225903   4.706   3.077   0.885  0.3447 -0.2395  0.4413
 8647TIP3   OH225904   2.053   1.915   0.778  0.3868 -0.4884  0.2940
 8647TIP3    H125905   2.143   1.908   0.747  0.2975 -0.7935  0.1003
 8647TIP3    H225906   2.046   2.004   0.812  0.9086 -0.6223  0.7803
 8648TIP3   OH225907   2.934   0.192   0.365  0.1972 -0.1704 -0.2383
 8648TIP3    H125908   2.912   0.215   0.455  0.9984 -1.3090  0.2757
 8648TIP3    H225909   2.862   0.136   0.336 -0.0931  0.2492 -0.3437
 8649TIP3   OH225910   4.582   0.408   2.754  0.3742  0.1836  0.1780
 8649TIP3    H125911   4.552   0.444   2.670 -1.6697  1.7514  1.4859
 8649TIP3    H225912   4.672   0.438   2.762  0.2745  0.8801 -0.9891
 8650TIP3   OH225913   2.450   4.731   2.345  0.4098  0.3161 -0.0061
 8650TIP3    H125914   2.449   4.805   2.286 -0.0424  0.7798  0.5677
 8650TIP3    H225915   2.501   4.761   2.421 -2.7477  1.4041  1.8726
 8651TIP3   OH225916   1.939   4.686   3.821 -0.4232  0.3843  0.3564
 8651TIP3    H125917   1.986   4.736   3.888  1.4116 -0.5371 -0.1787
 8651TIP3    H225918   1.851   4.676   3.857  0.4227  0.1387  2.5490
 8652TIP3   OH225919   5.165   1.913   0.349  0.3453 -0.0408 -0.3079
 8652TIP3    H125920   5.136   1.917   0.440 -1.0845 -0.8373 -0.6921
 8652TIP3    H225921   5.146   2.000   0.314 -0.1877 -0.0844 -0.1401
 8653TIP3   OH225922   6.794   1.586   3.593 -0.5840  0.3889  0.2441
 8653TIP3    H125923   6.804   1.493   3.612 -0.0895  0.6183  1.1954
 8653TIP3    H225924   6.867   1.628   3.638 -1.3469  1.3313  0.6626
 8654TIP3   OH225925   0.576   6.508   0.082  0.1485 -0.4225  0.3695
 8654TIP3    H125926   0.598   6.583   0.137 -0.9963  0.8918 -0.8777
 8654TIP3    H225927   0.534   6.546   0.005  0.4414 -2.2846 -0.7810
 8655TIP3   OH225928   7.043   0.452   1.186 -0.2972 -0.9259  0.3810
 8655TIP3    H125929   6.949   0.467   1.179  0.0008  1.3341  0.4900
 8655TIP3    H225930   7.061   0.458   1.280 -0.3577 -4.0069  0.6951
 8656TIP3   OH225931   5.293   1.073   5.351 -0.3468  0.1474  0.3224
 8656TIP3    H125932   5.212   1.024   5.336 -0.7809  1.6562 -3.2761
 8656TIP3    H225933   5.280   1.156   5.306  3.6977 -0.0695 -1.7142
 8657TIP3   OH225934   6.104   0.946   5.745  0.4616  0.0703 -0.6531
 8657TIP3    H125935   6.141   0.877   5.798  0.6525  0.2097 -0.6055
 8657TIP3    H225936   6.157   1.023   5.764 -0.4736  0.5348  0.2002
 8658TIP3   OH225937   4.391   0.966   5.292 -0.0853 -0.7413  0.2225
 8658TIP3    H125938   4.389   0.990   5.200 -0.0120  0.8612  0.6108
 8658TIP3    H225939   4.397   0.870   5.292  1.1626 -0.7071 -1.4296
 8659TIP3   OH225940   2.682   0.772   3.858 -0.3153 -0.1348 -0.0759
 8659TIP3    H125941   2.747   0.836   3.829  0.2483 -0.9936 -0.8089
 8659TIP3    H225942   2.715   0.688   3.824  0.8244 -1.4317  3.6739
 8660TIP3   OH225943   2.300   4.291   4.911 -0.2411 -0.1147  0.3105
 8660TIP3    H125944   2.211   4.321   4.928 -0.5733  0.3726 -1.9334
 8660TIP3    H225945   2.290   4.199   4.888 -0.4741  0.3876 -1.7856
 8661TIP3   OH225946   1.348   2.535   0.571 -0.3360  0.5022 -0.3959
 8661TIP3    H125947   1.331   2.627   0.589  0.0930  0.6066 -0.5236
 8661TIP3    H225948   1.415   2.509   0.635 -0.5458  0.2446 -0.2757
 8662TIP3   OH225949   2.217   0.931   4.234 -0.1617 -0.5776  0.3773
 8662TIP3    H125950   2.194   0.958   4.145 -0.0800  0.3116  0.6181
 8662TIP3    H225951   2.282   0.995   4.262 -2.1624  0.8677  2.0737
 8663TIP3   OH225952   2.768   5.854   0.411  0.0809  0.3546 -0.1436
 8663TIP3    H125953   2.715   5.775   0.415  0.7022 -0.0699 -0.0871
 8663TIP3    H225954   2.858   5.823   0.423  0.4907  0.8869 -1.5752
 8664TIP3   OH225955   1.918   1.413   3.540 -0.2039  0.4615 -0.5130
 8664TIP3    H125956   1.932   1.507   3.552  0.5372  0.6120 -2.2659
 8664TIP3    H225957   2.005   1.374   3.550 -0.3803  0.0474 -0.5727
 8665TIP3   OH225958   3.211   0.754   4.860  0.2909  0.4595  0.6558
 8665TIP3    H125959   3.174   0.667   4.846  0.8293  0.3644 -0.1926
 8665TIP3    H225960   3.285   0.759   4.801  0.2434  1.5187  0.6684
 8666TIP3   OH225961   6.584   5.289   0.776  0.1686  0.0318 -0.1634
 8666TIP3    H125962   6.552   5.308   0.688 -0.3298  0.1469  0.0407
 8666TIP3    H225963   6.645   5.216   0.764 -1.8782 -1.7550 -0.2783
 8667TIP3   OH225964   1.224   1.679   0.537  0.9595  0.0107  0.3006
 8667TIP3    H125965   1.180   1.750   0.491  1.0087  0.1821  0.5196
 8667TIP3    H225966   1.165   1.604   0.526 -0.6775  0.8004  2.6500
 8668TIP3   OH225967   5.447   1.846   5.572 -0.2686  0.0455 -0.1824
 8668TIP3    H125968   5.429   1.796   5.652  0.3882  0.3338  0.1521
 8668TIP3    H225969   5.394   1.925   5.581 -0.0341  0.1758  0.0693
 8669TIP3   OH225970   0.893   3.186   2.403  0.2518 -0.4272 -0.1598
 8669TIP3    H125971   0.859   3.258   2.351  0.8626 -0.3036 -0.3836
 8669TIP3    H225972   0.986   3.203   2.412  0.3800 -1.1131 -0.0976
 8670TIP3   OH225973   2.532   2.110   2.948 -0.0914 -0.6541  0.3050
 8670TIP3    H125974   2.612   2.155   2.923 -0.3057 -0.5849 -0.2651
 8670TIP3    H225975   2.505   2.063   2.869 -1.4825  0.5926 -0.0032
 8671TIP3   OH225976   5.495   6.098   3.242 -0.3546  0.4558 -0.5358
 8671TIP3    H125977   5.491   6.119   3.336 -3.1416  0.5461 -0.5988
 8671TIP3    H225978   5.514   6.182   3.200 -0.7915  0.7607 -0.1336
 8672TIP3   OH225979   0.522   6.235   3.347  0.7236 -0.1470  0.3413
 8672TIP3    H125980   0.501   6.178   3.421  0.5717 -0.0672  0.3602
 8672TIP3    H225981   0.438   6.250   3.304  1.0525 -1.7555 -0.9907
 8673TIP3   OH225982   6.791   3.643   3.804 -0.2000  0.0592  0.1022
 8673TIP3    H125983   6.871   3.696   3.797  0.8727 -1.5994 -0.7895
 8673TIP3    H225984   6.822   3.555   3.827 -1.9216 -0.2715  1.4208
 8674TIP3   OH225985   3.579   1.536   3.073  0.4764  0.5112  0.5106
 8674TIP3    H125986   3.642   1.501   3.011  1.3396 -1.3156  2.3173
 8674TIP3    H225987   3.541   1.459   3.116 -0.9022  1.6532  1.4678
 8675TIP3   OH225988   6.925   5.121   3.732  0.2316 -0.0351 -0.5365
 8675TIP3    H125989   6.902   5.063   3.659 -0.7259 -1.8662  1.1125
 8675TIP3    H225990   7.015   5.099   3.753  0.2795 -0.0072 -0.7087
 8676TIP3   OH225991   6.591   4.033   4.690  0.0519 -0.4588  1.0269
 8676TIP3    H125992   6.586   3.994   4.778 -1.7192  2.2581  2.2566
 8676TIP3    H225993   6.502   4.028   4.657  0.5952 -0.9224 -0.4356
 8677TIP3   OH225994   0.847   3.371   2.163 -0.0304 -0.9260 -0.4625
 8677TIP3    H125995   0.911   3.333   2.102  0.3137 -0.7110 -0.2345
 8677TIP3    H225996   0.879   3.459   2.180 -0.4383 -0.7845 -0.4163
 8678TIP3   OH225997   6.177   4.610   1.522  0.2235  0.0851 -0.0993
 8678TIP3    H125998   6.270   4.615   1.540  0.2951  0.2811 -0.5111
 8678TIP3    H225999   6.153   4.519   1.539  0.2228  0.3143  1.2557
 8679TIP3   OH226000   3.215   1.903   0.522 -0.0745  0.1127  0.4487
 8679TIP3    H126001   3.278   1.833   0.537 -1.5158 -1.0745  1.2112
 8679TIP3    H226002   3.189   1.931   0.609 -1.0528  0.1462  0.1583
 8680TIP3   OH226003   4.804   6.298   5.048 -0.1853  0.2727  0.9109
 8680TIP3    H126004   4.764   6.273   5.131 -1.4607  0.6248  0.4154
 8680TIP3    H226005   4.732   6.303   4.986  0.7249  0.2056 -0.1885
 8681TIP3   OH226006   3.975   4.689   1.229 -0.1426  0.3148 -0.1487
 8681TIP3    H126007   4.040   4.620   1.241  0.2417  0.6578 -0.2369
 8681TIP3    H226008   3.970   4.732   1.315  0.7832  1.1837 -0.5140
 8682TIP3   OH226009   4.663   6.403   2.448  0.5240  0.2597 -0.2533
 8682TIP3    H126010   4.650   6.432   2.539  1.0920  2.1377 -0.7310
 8682TIP3    H226011   4.696   6.313   2.457 -2.0712 -0.6342  1.2712
 8683TIP3   OH226012   7.219   1.699   1.813 -0.0031  0.4822  0.0357
 8683TIP3    H126013   7.163   1.735   1.883 -2.7177  0.3194 -1.8846
 8683TIP3    H226014   7.162   1.636   1.768  1.4093  1.0528 -2.7110
 8684TIP3   OH226015   3.221   4.574   4.299  0.6211  0.3585 -0.0165
 8684TIP3    H126016   3.246   4.491   4.340  0.5439  0.3740  0.0611
 8684TIP3    H226017   3.304   4.619   4.284  0.7731 -0.3022 -1.2717
 8685TIP3   OH226018   3.914   3.541   1.826  0.4855 -0.4978  0.0727
 8685TIP3    H126019   3.967   3.507   1.899  0.6941 -0.3186  0.0052
 8685TIP3    H226020   3.977   3.581   1.767  0.1525  1.0231  0.6917
 8686TIP3   OH226021   3.054   5.476   5.029  0.0715  0.2894 -0.8113
 8686TIP3    H126022   3.007   5.431   5.099 -0.1856  0.2608 -0.9989
 8686TIP3    H226023   2.988   5.487   4.960 -0.1829  1.9268 -0.3516
 8687TIP3   OH226024   3.738   4.633   3.677 -0.0563  0.2678  0.9696
 8687TIP3    H126025   3.824   4.666   3.704 -0.8784  1.0144  2.7982
 8687TIP3    H226026   3.684   4.711   3.665 -1.2299 -0.2476  2.5703
 8688TIP3   OH226027   5.693  -0.028   1.420  0.5177 -0.0927 -0.0809
 8688TIP3    H126028   5.622   0.007   1.474  0.8637  0.3245  0.1095
 8688TIP3    H226029   5.770   0.022   1.447  0.8087 -0.2866 -0.5513
 8689TIP3   OH226030   5.536   6.669   0.032 -0.6773 -0.1766 -0.1227
 8689TIP3    H126031   5.448   6.704   0.019 -0.9657 -1.0805 -0.6757
 8689TIP3    H226032   5.523   6.577   0.054 -0.0354  0.4097  3.2304
 8690TIP3   OH226033   5.709   6.753   0.577  0.0608 -0.8229  0.6298
 8690TIP3    H126034   5.633   6.809   0.566  2.9194  3.3116 -0.5948
 8690TIP3    H226035   5.727   6.719   0.489  0.6730 -0.1719  0.4926
 8691TIP3   OH226036   4.055   5.767   4.432  0.0449 -0.1722 -0.7221
 8691TIP3    H126037   3.987   5.699   4.431 -0.1922  0.0573 -0.2853
 8691TIP3    H226038   4.054   5.800   4.522  1.1537 -0.5911 -0.5361
 8692TIP3   OH226039   5.090   6.320   3.021  0.5482 -0.0071 -0.2986
 8692TIP3    H126040   5.078   6.235   2.979 -0.9328  0.3343 -0.6230
 8692TIP3    H226041   5.164   6.360   2.975  0.8434 -0.8586 -0.5656
 8693TIP3   OH226042   1.023   1.398   4.330 -0.2975 -0.0205  0.2767
 8693TIP3    H126043   1.033   1.474   4.387 -0.5112  1.8578 -2.0370
 8693TIP3    H226044   0.937   1.410   4.289  0.3778 -0.5688 -1.3919
 8694TIP3   OH226045   0.496   4.509   0.833 -0.2753 -0.3349 -0.1395
 8694TIP3    H126046   0.559   4.438   0.823  0.5998  0.6890 -3.0435
 8694TIP3    H226047   0.549   4.589   0.831 -1.3772  0.4811  1.3467
 8695TIP3   OH226048   6.836   0.053   5.557  0.1759  0.2916  0.1870
 8695TIP3    H126049   6.875   0.036   5.472  2.0029 -0.2008  1.0717
 8695TIP3    H226050   6.848   0.147   5.571 -0.1261  0.3723 -0.0783
 8696TIP3   OH226051   2.387   3.994   4.593 -0.1900 -0.1669 -0.1383
 8696TIP3    H126052   2.312   3.936   4.581 -0.0859 -0.0612 -1.4724
 8696TIP3    H226053   2.375   4.063   4.528  2.1291 -1.3331 -1.9982
 8697TIP3   OH226054   6.215   1.772   5.596  0.2223 -0.6162 -0.9199
 8697TIP3    H126055   6.129   1.743   5.564 -0.7813  0.3598  0.7727
 8697TIP3    H226056   6.254   1.693   5.635 -0.0314 -0.9873 -1.4047
 8698TIP3   OH226057   5.483   3.008   0.898 -0.1243  0.0395  0.3842
 8698TIP3    H126058   5.512   2.918   0.878 -1.8324 -0.2934 -0.7539
 8698TIP3    H226059   5.478   3.010   0.994  1.1512 -0.6547  0.4954
 8699TIP3   OH226060   3.980   6.375   5.158 -0.1845  0.1198  0.6965
 8699TIP3    H126061   3.952   6.284   5.169 -0.5921  0.0672 -0.6652
 8699TIP3    H226062   3.905   6.427   5.187 -0.4035  0.0060  0.3394
 8700TIP3   OH226063   5.024   1.687   0.632  0.2202 -0.3966  0.0344
 8700TIP3    H126064   4.946   1.729   0.595  1.2104  0.7112 -0.8827
 8700TIP3    H226065   5.012   1.693   0.727 -0.6505  0.0858 -0.0994
 8701TIP3   OH226066   4.234   1.157   4.811 -0.2252 -0.4653  0.0651
 8701TIP3    H126067   4.182   1.094   4.860 -0.2038 -0.9886 -0.5742
 8701TIP3    H226068   4.170   1.203   4.756  0.0097 -1.2892 -0.9150
 8702TIP3   OH226069   4.761   0.105   3.541 -0.1679  0.0121 -0.1290
 8702TIP3    H126070   4.749   0.178   3.601 -1.6673 -0.1347 -0.2230
 8702TIP3    H226071   4.712   0.130   3.463 -0.8164 -1.1346 -0.1138
 8703TIP3   OH226072   6.082   4.947   4.620  0.4602 -0.2017 -0.0962
 8703TIP3    H126073   6.038   4.869   4.654 -0.0539  0.4751  0.8474
 8703TIP3    H226074   6.072   5.012   4.690 -0.2843  1.1302 -1.3720
 8704TIP3   OH226075   6.337   0.150   0.828 -0.1279 -0.4493 -0.1856
 8704TIP3    H126076   6.390   0.148   0.907  0.9271  0.0690 -0.8562
 8704TIP3    H226077   6.249   0.169   0.858  0.2608 -0.2653  0.8627
 8705TIP3   OH226078   1.691   0.577   0.272 -0.4443 -0.9178  0.3149
 8705TIP3    H126079   1.674   0.541   0.185  1.1251  2.8935 -1.8279
 8705TIP3    H226080   1.783   0.559   0.288 -0.1225  0.3444  0.0439
 8706TIP3   OH226081   2.270   0.017   5.704 -0.6365  0.2678  0.2877
 8706TIP3    H126082   2.301   0.107   5.705 -0.4761  0.2175  0.0168
 8706TIP3    H226083   2.273  -0.011   5.795 -0.5014  0.4732  0.3472
 8707TIP3   OH226084   1.046   1.537   1.802  0.2946 -0.0276  0.2152
 8707TIP3    H126085   0.966   1.578   1.836 -0.0918 -0.1019 -0.5897
 8707TIP3    H226086   1.116   1.596   1.831 -0.0714  0.1929  0.6857
 8708TIP3   OH226087   1.592   2.984   2.267  0.3832  0.0468 -0.1577
 8708TIP3    H126088   1.662   2.984   2.202  1.2977  0.5576  0.7834
 8708TIP3    H226089   1.578   2.891   2.286  0.9774 -0.0612 -0.2033
 8709TIP3   OH226090   2.369   2.623   1.478  0.1859  0.2206  0.1488
 8709TIP3    H126091   2.329   2.599   1.561  1.0969  0.5090  0.6809
 8709TIP3    H226092   2.366   2.718   1.476  1.6976  0.3106  0.6586
 8710TIP3   OH226093   5.488   6.165   4.043 -0.1388 -0.5389 -0.0344
 8710TIP3    H126094   5.579   6.141   4.060 -0.4431 -1.3396  0.5093
 8710TIP3    H226095   5.494   6.247   3.993  0.8242  0.7868  2.1338
 8711TIP3   OH226096   1.881   1.612   2.488 -0.4855  0.0002 -0.6824
 8711TIP3    H126097   1.840   1.548   2.430 -1.9871  0.0021  0.3322
 8711TIP3    H226098   1.891   1.567   2.571 -3.0440  1.4779  0.5380
 8712TIP3   OH226099   1.707   2.894   3.804 -0.2294 -0.4525  0.1941
 8712TIP3    H126100   1.770   2.950   3.758 -0.3314  1.8068  2.5700
 8712TIP3    H226101   1.757   2.856   3.876 -1.3002  0.6960  1.6093
 8713TIP3   OH226102   4.598   4.705   1.638  0.0559  0.7345  0.2858
 8713TIP3    H126103   4.580   4.799   1.635 -2.6436  0.3678  1.9961
 8713TIP3    H226104   4.615   4.681   1.547  0.1925  2.7357 -0.2751
 8714TIP3   OH226105   3.957   4.080   2.872 -0.5862  0.4467 -0.4401
 8714TIP3    H126106   3.871   4.059   2.835 -0.9431  1.1193 -0.0066
 8714TIP3    H226107   3.942   4.087   2.966  0.0227  0.1869 -0.3216
 8715TIP3   OH226108   0.787   5.698   4.701  0.3030  0.2853  0.0256
 8715TIP3    H126109   0.797   5.604   4.690 -0.2556  0.1337  0.7663
 8715TIP3    H226110   0.695   5.710   4.722  0.3770  0.9984 -0.0313
 8716TIP3   OH226111   6.677   1.183   2.121  0.0766 -0.0564 -0.0181
 8716TIP3    H126112   6.622   1.152   2.193  0.4082 -0.2312  0.1657
 8716TIP3    H226113   6.726   1.105   2.094  1.5401  0.4590  1.0043
 8717TIP3   OH226114   5.255   1.270   1.025 -0.7282  0.1641 -0.3333
 8717TIP3    H126115   5.225   1.199   0.969 -1.1050 -0.2620  0.4030
 8717TIP3    H226116   5.253   1.234   1.114 -1.9165  1.3837  0.1790
 8718TIP3   OH226117   2.504   0.873   4.060 -0.5076 -0.4266 -0.7147
 8718TIP3    H126118   2.553   0.838   3.986 -0.1253 -0.9317 -0.2250
 8718TIP3    H226119   2.413   0.878   4.028 -0.1546  0.5748 -1.6381
 8719TIP3   OH226120   5.015   4.142   3.412  0.2051 -0.2479  0.0098
 8719TIP3    H126121   5.020   4.231   3.377 -2.2070 -0.2314 -0.4641
 8719TIP3    H226122   5.006   4.086   3.335  1.3509 -0.9059  0.3247
 8720TIP3   OH226123   0.981   5.713   2.419 -0.2567  0.4887  0.1848
 8720TIP3    H126124   0.978   5.630   2.373 -0.4113  1.0380 -0.8140
 8720TIP3    H226125   1.066   5.713   2.463 -0.5484 -0.4922  0.7768
 8721TIP3   OH226126   5.871   3.807   3.833  0.3561  0.3287  0.2842
 8721TIP3    H126127   5.812   3.736   3.806  1.8821 -1.1320  0.6067
 8721TIP3    H226128   5.953   3.763   3.852  1.1453  2.1265  1.2359
 8722TIP3   OH226129   2.311   6.220   2.003 -0.0683 -0.6838  0.1344
 8722TIP3    H126130   2.237   6.238   2.061 -0.5635 -3.7804  0.6651
 8722TIP3    H226131   2.382   6.273   2.037 -1.7613  1.7425  0.1305
 8723TIP3   OH226132   5.182   4.975   4.640 -0.0617 -0.4710 -0.6961
 8723TIP3    H126133   5.234   4.895   4.642 -1.2405 -1.2532 -0.6880
 8723TIP3    H226134   5.166   4.991   4.547 -0.4694 -0.6714 -0.6610
 8724TIP3   OH226135   3.754   1.490   4.849 -0.1263 -0.7433 -0.2694
 8724TIP3    H126136   3.843   1.454   4.859 -0.0290 -0.7714 -1.1779
 8724TIP3    H226137   3.700   1.437   4.908  0.5472 -0.3599  0.7301
 8725TIP3   OH226138   0.033   5.192   2.258 -0.3250 -0.2682 -1.0440
 8725TIP3    H126139  -0.044   5.239   2.228 -0.0438 -1.4145 -3.9632
 8725TIP3    H226140   0.099   5.209   2.191  0.9486 -1.7428 -0.2388
 8726TIP3   OH226141   4.438   5.481   5.458 -0.7661 -0.3343  0.1716
 8726TIP3    H126142   4.478   5.568   5.462 -1.7304  0.0738  2.0818
 8726TIP3    H226143   4.377   5.487   5.384 -1.6095  1.0183  0.9207
 8727TIP3   OH226144   4.118   2.132   1.943  0.8908 -0.0625 -0.4063
 8727TIP3    H126145   4.188   2.163   2.001  0.8488 -1.4496  0.4200
 8727TIP3    H226146   4.043   2.119   2.000  1.0969 -2.2935 -0.5655
 8728TIP3   OH226147   5.509   1.322   0.139  0.1916  0.2714  0.5048
 8728TIP3    H126148   5.459   1.402   0.156  0.4098  0.7018 -0.7560
 8728TIP3    H226149   5.481   1.295   0.052  0.8915 -0.4483  0.4946
 8729TIP3   OH226150   3.651   3.465   1.947 -0.4546 -0.6498 -0.4323
 8729TIP3    H126151   3.683   3.430   2.031 -0.2940 -0.4092 -0.3927
 8729TIP3    H226152   3.729   3.502   1.906 -0.2216 -2.1390 -1.3820
 8730TIP3   OH226153   0.535   5.586   4.460 -0.2076 -0.2326  0.1420
 8730TIP3    H126154   0.624   5.576   4.428 -0.3749 -0.8864 -0.1280
 8730TIP3    H226155   0.481   5.541   4.396 -0.6324 -0.7419  0.8430
 8731TIP3   OH226156   2.588   1.771   2.011 -0.0050 -0.4156  0.1251
 8731TIP3    H126157   2.564   1.709   1.942  0.8744 -0.2143 -0.3823
 8731TIP3    H226158   2.570   1.857   1.972  0.4188 -0.3023  0.1788
 8732TIP3   OH226159   4.706   1.501   0.762  0.4771 -0.5734 -0.7987
 8732TIP3    H126160   4.768   1.456   0.819  0.3985 -1.4852 -1.3966
 8732TIP3    H226161   4.678   1.433   0.700  0.1401  0.2414 -1.5614
 8733TIP3   OH226162   0.282   4.108   1.406 -0.1030  0.6200 -0.3414
 8733TIP3    H126163   0.307   4.131   1.496  1.8045  1.2234 -0.9667
 8733TIP3    H226164   0.266   4.193   1.364 -0.3542  0.3732 -0.7417
 8734TIP3   OH226165   0.109   4.527   3.476 -0.2884 -0.2752  0.3065
 8734TIP3    H126166   0.101   4.594   3.408 -1.1386 -0.4105  0.2677
 8734TIP3    H226167   0.030   4.474   3.467  0.3915 -1.3116  0.3140
 8735TIP3   OH226168   6.497   4.085   0.081  0.2516  0.1652 -0.1678
 8735TIP3    H126169   6.568   4.117   0.024 -0.3096  1.7234 -0.0580
 8735TIP3    H226170   6.538   4.075   0.167  0.2606  1.5405  0.0122
 8736TIP3   OH226171   6.056   2.252   2.539 -0.3441 -0.6109 -0.2896
 8736TIP3    H126172   6.139   2.293   2.514 -0.1280 -1.0482 -0.2952
 8736TIP3    H226173   6.007   2.322   2.580  0.4546 -0.5983  0.6920
 8737TIP3   OH226174   1.716   4.750   0.291 -0.7110  0.1846  0.5097
 8737TIP3    H126175   1.711   4.843   0.311 -0.6099  0.1754  0.5753
 8737TIP3    H226176   1.809   4.728   0.297 -0.4188  0.5626 -1.6716
 8738TIP3   OH226177   6.629   2.474   2.627 -0.1610  0.0138 -0.5726
 8738TIP3    H126178   6.617   2.482   2.532  1.4936  0.4191 -0.7928
 8738TIP3    H226179   6.695   2.405   2.637 -0.0309  0.2412  0.2512
 8739TIP3   OH226180   1.570   6.378   4.418  0.3262 -0.1613  1.3430
 8739TIP3    H126181   1.516   6.438   4.366  1.7433  0.1193  0.1172
 8739TIP3    H226182   1.510   6.308   4.443 -1.6683  2.1759  3.6916
 8740TIP3   OH226183   0.684   5.905   4.495 -0.1550 -0.2948 -0.5107
 8740TIP3    H126184   0.660   5.962   4.568  1.2255 -0.4626  0.0868
 8740TIP3    H226185   0.748   5.844   4.531 -1.2118 -1.9378 -1.2610
 8741TIP3   OH226186   2.422   0.635   0.877  0.1759  0.4694 -0.3698
 8741TIP3    H126187   2.435   0.730   0.875 -2.0674  0.8228 -0.4867
 8741TIP3    H226188   2.379   0.618   0.960 -0.6934 -0.2464 -0.9456
 8742TIP3   OH226189   6.662   3.979   4.413 -0.4497 -0.1008 -0.1402
 8742TIP3    H126190   6.646   3.999   4.505 -1.3486  1.8952 -0.6616
 8742TIP3    H226191   6.745   3.932   4.412 -0.5473 -0.3781  1.6890
 8743TIP3   OH226192   0.341   1.745   5.649 -0.4763  0.0303  0.0605
 8743TIP3    H126193   0.268   1.747   5.587 -0.8685  0.1860  0.5260
 8743TIP3    H226194   0.419   1.755   5.594 -0.6346 -2.2062 -0.6924
 8744TIP3   OH226195   1.594   6.635   0.110 -0.3313  0.0335 -0.0323
 8744TIP3    H126196   1.663   6.597   0.164  0.0682  1.1006  0.2166
 8744TIP3    H226197   1.552   6.700   0.166 -0.5535  0.4619 -0.6808
 8745TIP3   OH226198   3.961   1.210   4.424  0.2391 -0.0350  0.1721
 8745TIP3    H126199   3.900   1.268   4.379 -1.3788 -1.9979 -0.3042
 8745TIP3    H226200   4.022   1.181   4.356  0.2102  0.0488  0.1107
 8746TIP3   OH226201   0.675   6.254   0.949  0.7264  0.1975  0.1826
 8746TIP3    H126202   0.682   6.230   1.041  1.4421  2.1575  0.6887
 8746TIP3    H226203   0.753   6.306   0.931  1.4820 -1.5279 -2.0209
 8747TIP3   OH226204   4.881   0.912   4.535  0.8885 -0.0234 -0.2243
 8747TIP3    H126205   4.828   0.991   4.528 -0.0336 -0.7330 -1.6585
 8747TIP3    H226206   4.878   0.873   4.448  1.8834 -1.2846  0.2775
 8748TIP3   OH226207   0.433   4.258   3.737  0.3550  0.0711 -0.6509
 8748TIP3    H126208   0.373   4.316   3.784 -0.1533 -0.8310 -0.1639
 8748TIP3    H226209   0.514   4.308   3.730  0.2803  0.4261  0.7400
 8749TIP3   OH226210   5.892   5.780   2.408 -0.1406 -0.3253 -0.0948
 8749TIP3    H126211   5.891   5.740   2.321 -0.3509  2.6843 -1.5696
 8749TIP3    H226212   5.800   5.787   2.432 -0.0741 -1.5828  0.6722
 8750TIP3   OH226213   5.130   2.983   4.601  0.2442 -0.2047 -0.4560
 8750TIP3    H126214   5.185   2.907   4.624  0.9894  0.3532 -0.3500
 8750TIP3    H226215   5.192   3.048   4.568 -0.5292 -0.1010 -1.7651
 8751TIP3   OH226216   3.620   1.815   5.178 -0.1704 -0.5590 -0.0342
 8751TIP3    H126217   3.624   1.796   5.272 -1.0589  0.5587  0.2505
 8751TIP3    H226218   3.643   1.908   5.172  1.4770 -0.9905 -1.1109
 8752TIP3   OH226219   6.873   5.316   2.515  0.3794 -0.5014  0.1560
 8752TIP3    H126220   6.942   5.380   2.496  0.8093 -1.2204 -0.7789
 8752TIP3    H226221   6.792   5.363   2.497  0.5961  0.3171  1.1452
 8753TIP3   OH226222   4.101   4.955   5.327 -0.2475 -0.4947 -0.4964
 8753TIP3    H126223   4.174   4.914   5.374  0.8716  0.8236 -1.0242
 8753TIP3    H226224   4.142   4.997   5.251 -1.2114  2.1681  0.3444
 8754TIP3   OH226225   3.443   1.252   5.759  0.3237 -0.4816  0.0297
 8754TIP3    H126226   3.477   1.256   5.670 -2.0589  1.2584 -0.9263
 8754TIP3    H226227   3.454   1.341   5.792  1.0463 -1.0761  1.4698
 8755TIP3   OH226228   1.202   3.565   2.352  0.2045  0.7290  0.0830
 8755TIP3    H126229   1.227   3.606   2.435  0.5778  1.4194 -0.3655
 8755TIP3    H226230   1.250   3.614   2.285  1.5727 -1.1234 -0.3879
 8756TIP3   OH226231   1.240   3.001   4.980 -0.7133  0.0451  0.2708
 8756TIP3    H126232   1.310   2.944   4.949  0.7434  0.5570  2.4000
 8756TIP3    H226233   1.182   3.012   4.904 -0.5161 -3.3687 -0.5080
 8757TIP3   OH226234   4.882   5.870   0.765  0.2892  0.2555  0.2821
 8757TIP3    H126235   4.896   5.926   0.688 -1.3804  1.0148  0.4794
 8757TIP3    H226236   4.965   5.825   0.777  0.1285 -1.2108 -3.0050
 8758TIP3   OH226237   5.190   4.259   4.721 -0.2332  0.4857  0.6677
 8758TIP3    H126238   5.194   4.186   4.782  1.2740 -0.0229  0.0158
 8758TIP3    H226239   5.132   4.323   4.763 -0.5373 -0.5262  1.8454
 8759TIP3   OH226240   0.531   6.471   0.838 -0.0755 -0.0881  0.0791
 8759TIP3    H126241   0.591   6.521   0.783  0.8732 -0.3995  0.8017
 8759TIP3    H226242   0.585   6.402   0.876 -0.4812  0.6170  2.0552
 8760TIP3   OH226243   1.717   1.110   4.608 -0.6006  0.4199  0.0470
 8760TIP3    H126244   1.673   1.146   4.686 -1.0002 -1.3581  0.6888
 8760TIP3    H226245   1.794   1.065   4.643  1.4331  2.8861 -1.0026
 8761TIP3   OH226246   3.856   3.870   0.349 -0.1841 -0.6360 -0.1324
 8761TIP3    H126247   3.837   3.961   0.368  1.1664 -0.1127 -1.1086
 8761TIP3    H226248   3.774   3.823   0.368 -0.4160  0.5105  1.9148
 8762TIP3   OH226249   5.164   3.944   5.888  0.1473  0.6113 -0.5388
 8762TIP3    H126250   5.215   3.977   5.814  0.8497  0.2590 -0.2247
 8762TIP3    H226251   5.216   3.871   5.922 -1.0205 -0.3484 -0.7653
 8763TIP3   OH226252   4.192   2.677   0.534 -0.0774 -0.7015  0.3546
 8763TIP3    H126253   4.132   2.635   0.473 -0.7089  0.4432  0.1554
 8763TIP3    H226254   4.241   2.605   0.574 -0.0030 -1.5098 -1.1303
 8764TIP3   OH226255   3.924   4.409   3.667 -0.4232 -0.3633  0.3065
 8764TIP3    H126256   3.891   4.493   3.698  1.0042 -1.0536  4.1933
 8764TIP3    H226257   3.849   4.349   3.673 -1.2047  0.3420 -1.6350
 8765TIP3   OH226258   2.708   5.440   0.841  0.1017 -0.3047 -0.2950
 8765TIP3    H126259   2.716   5.478   0.928  0.6815  0.0318 -0.4842
 8765TIP3    H226260   2.734   5.349   0.852 -1.1483 -0.6272  0.1328
 8766TIP3   OH226261   3.029   5.896   5.234  0.2953  0.0412  0.1635
 8766TIP3    H126262   3.097   5.860   5.291 -1.1960 -1.3019  1.1734
 8766TIP3    H226263   2.978   5.953   5.291 -1.1495 -1.2323  0.2137
 8767TIP3   OH226264   2.190   4.880   2.342 -0.3873 -0.2597  0.0822
 8767TIP3    H126265   2.283   4.896   2.329 -0.3172 -0.3948  0.3951
 8767TIP3    H226266   2.186   4.793   2.383 -0.6778 -0.4495 -0.3391
 8768TIP3   OH226267   1.402   4.828   1.527 -0.2239 -0.4083  0.5384
 8768TIP3    H126268   1.475   4.875   1.568  0.4564 -0.5201 -0.4855
 8768TIP3    H226269   1.324   4.865   1.567  0.3280  0.9221  0.4463
 8769TIP3   OH226270   1.719   4.805   3.201 -0.0714  0.4179  0.2766
 8769TIP3    H126271   1.788   4.794   3.267  1.0469 -2.1889 -1.1983
 8769TIP3    H226272   1.738   4.890   3.161  1.6499  0.2287  0.6155
 8770TIP3   OH226273   3.259   1.964   5.717  0.5281  0.3543 -0.2915
 8770TIP3    H126274   3.253   1.903   5.790 -1.7449 -0.3675 -1.0016
 8770TIP3    H226275   3.238   2.049   5.755 -0.8841 -0.0540 -0.1195
 8771TIP3   OH226276   2.048   5.673   0.633 -0.1061 -0.4419  0.0374
 8771TIP3    H126277   2.073   5.671   0.726 -0.1459  1.6445  0.1521
 8771TIP3    H226278   1.961   5.635   0.631 -0.9072  1.1746  1.2086
 8772TIP3   OH226279   4.860   6.000   3.870 -0.0442 -0.2086  0.1172
 8772TIP3    H126280   4.822   5.954   3.945  0.3595  1.1275  1.1765
 8772TIP3    H226281   4.821   6.087   3.874 -0.2649 -0.2128 -1.4411
 8773TIP3   OH226282   3.019   5.470   0.874  0.0137 -0.2776  0.4004
 8773TIP3    H126283   3.052   5.510   0.954 -0.0179  0.8054 -0.1142
 8773TIP3    H226284   3.007   5.377   0.897 -1.1227  0.2152  2.0101
 8774TIP3   OH226285   4.866   4.707   1.591 -0.0519 -0.2225 -0.0933
 8774TIP3    H126286   4.827   4.729   1.675 -0.1093 -0.3046 -0.0979
 8774TIP3    H226287   4.796   4.723   1.527  0.1475  0.3122 -0.1775
 8775TIP3   OH226288   1.472   3.796   4.899  0.2185  0.3788 -0.1465
 8775TIP3    H126289   1.379   3.784   4.879  0.5151 -2.2211 -0.2941
 8775TIP3    H226290   1.504   3.855   4.831 -1.1007  0.4519 -0.7389
 8776TIP3   OH226291   1.464   4.039   3.608 -0.1811 -0.0262  0.3374
 8776TIP3    H126292   1.497   4.107   3.548  0.9287 -1.3324 -0.5998
 8776TIP3    H226293   1.451   4.085   3.691 -2.1330  1.9494 -0.9274
 8777TIP3   OH226294   3.618   3.256   2.733 -0.0287 -0.1291 -0.5045
 8777TIP3    H126295   3.677   3.287   2.802 -0.8277  1.8561 -0.6649
 8777TIP3    H226296   3.537   3.233   2.780 -0.5375  1.1271 -0.7340
 8778TIP3   OH226297   1.792   3.232   4.448 -0.7143  0.6090  0.3182
 8778TIP3    H126298   1.819   3.224   4.357 -0.1684  0.0989  0.5140
 8778TIP3    H226299   1.697   3.221   4.447 -0.7827  1.2550 -0.2586
 8779TIP3   OH226300   2.189   5.688   0.889  0.3096 -0.1319  0.5093
 8779TIP3    H126301   2.256   5.628   0.856 -1.8814 -1.9784 -0.8885
 8779TIP3    H226302   2.175   5.660   0.979  1.5233  0.4060  0.8810
 8780TIP3   OH226303   2.051   3.797   0.132 -0.0754  0.4165  0.2242
 8780TIP3    H126304   2.136   3.820   0.169 -0.5074  1.4190  0.6117
 8780TIP3    H226305   1.993   3.868   0.157 -0.9848 -0.1358 -0.2375
 8781TIP3   OH226306   6.384   2.214   4.880 -0.2269 -0.3274 -0.0991
 8781TIP3    H126307   6.398   2.246   4.791 -0.5183 -1.8663 -0.7220
 8781TIP3    H226308   6.298   2.248   4.904  0.2637  0.9027 -0.0130
 8782TIP3   OH226309   0.214   6.024   2.588  0.0242 -0.8889  0.2628
 8782TIP3    H126310   0.190   6.100   2.641 -1.1208 -1.5427  0.7057
 8782TIP3    H226311   0.298   5.995   2.624 -0.8863 -1.5222  1.9626
 8783TIP3   OH226312   3.567   6.760   1.310 -0.3367  0.2266 -0.8692
 8783TIP3    H126313   3.500   6.695   1.332  0.2746  0.9616  4.6538
 8783TIP3    H226314   3.524   6.844   1.325  0.5416  0.9174 -2.0784
 8784TIP3   OH226315   3.192   0.278   2.849  0.0372 -0.6936 -0.6770
 8784TIP3    H126316   3.188   0.287   2.753 -0.6455 -0.6053 -0.6474
 8784TIP3    H226317   3.242   0.353   2.878 -0.3596 -0.3280 -0.9193
 8785TIP3   OH226318   5.440   5.001   2.683 -0.0755  0.1869 -0.1258
 8785TIP3    H126319   5.361   4.984   2.734 -1.2823  1.0698 -1.6484
 8785TIP3    H226320   5.419   5.077   2.629  1.2391 -0.5424 -1.7567
 8786TIP3   OH226321   6.183   2.196   5.887  0.3802 -0.0037  0.1065
 8786TIP3    H126322   6.200   2.150   5.805  0.1584  1.6494 -0.9041
 8786TIP3    H226323   6.157   2.284   5.860 -0.6152  0.2973  1.9255
 8787TIP3   OH226324   6.130   3.611   4.367 -0.5872 -0.1778 -0.3039
 8787TIP3    H126325   6.045   3.627   4.407 -0.1178  0.5754  0.4066
 8787TIP3    H226326   6.134   3.516   4.354 -1.7705 -0.1597 -0.8974
 8788TIP3   OH226327   5.337   5.978   2.653 -0.0962  0.3813 -0.4036
 8788TIP3    H126328   5.306   6.061   2.689 -0.8313  0.0088 -0.1668
 8788TIP3    H226329   5.392   6.003   2.578  1.7179  1.1902  1.1092
 8789TIP3   OH226330   4.417   1.301   0.373  0.1903 -1.1290  0.6393
 8789TIP3    H126331   4.378   1.377   0.329  0.2826 -0.8509  1.0368
 8789TIP3    H226332   4.382   1.226   0.325  0.2866 -0.8302  0.0916
 8790TIP3   OH226333   1.680   3.484   4.806 -0.7233 -0.4464  0.1572
 8790TIP3    H126334   1.590   3.487   4.839 -0.6855  0.0907  0.2099
 8790TIP3    H226335   1.670   3.487   4.710 -0.7767 -0.8335  0.1464
 8791TIP3   OH226336   3.206   4.571   5.690  0.2571  0.0855  0.0265
 8791TIP3    H126337   3.216   4.490   5.641 -0.2063 -0.6836  1.1485
 8791TIP3    H226338   3.252   4.637   5.638  0.5569 -0.8719 -0.9558
 8792TIP3   OH226339   5.335   3.224   3.224 -0.1329 -0.3089  0.1728
 8792TIP3    H126340   5.248   3.184   3.232 -0.1174 -0.5431 -0.7441
 8792TIP3    H226341   5.317   3.314   3.199 -0.1110 -0.4156 -0.2339
 8793TIP3   OH226342   4.727   3.187   0.507  0.0315  0.1578 -0.0018
 8793TIP3    H126343   4.791   3.223   0.568 -0.3020  0.5837  0.1013
 8793TIP3    H226344   4.665   3.258   0.492 -1.7836 -0.9476  1.7457
 8794TIP3   OH226345   3.902   4.573   4.556  0.3830 -0.1813 -0.4493
 8794TIP3    H126346   3.886   4.594   4.464 -2.7648 -2.2639 -0.5521
 8794TIP3    H226347   3.850   4.637   4.605  1.4443  0.4450 -0.1046
 8795TIP3   OH226348   5.701   1.778   4.992  0.0198  0.1530 -0.4233
 8795TIP3    H126349   5.716   1.685   5.011 -0.7797 -0.4233 -2.3768
 8795TIP3    H226350   5.776   1.823   5.031  0.4213 -1.2865  0.5656
 8796TIP3   OH226351   6.717   4.244   4.362  0.0387  0.6228  0.2070
 8796TIP3    H126352   6.691   4.281   4.446  0.7114 -1.4885  1.4280
 8796TIP3    H226353   6.665   4.164   4.355  1.9353 -0.6459 -0.0459
 8797TIP3   OH226354   5.626   5.683   5.570 -0.1876  0.4749  0.8824
 8797TIP3    H126355   5.603   5.596   5.538 -0.0294  0.5647  0.5233
 8797TIP3    H226356   5.716   5.674   5.603 -0.2387  0.4587  1.0213
 8798TIP3   OH226357   6.584   1.703   0.189  0.0123 -0.5084  0.3741
 8798TIP3    H126358   6.650   1.751   0.239 -0.7277 -0.8415  1.7445
 8798TIP3    H226359   6.625   1.619   0.169  0.1202 -0.6035  0.9643
 8799TIP3   OH226360   4.910   6.106   1.877 -0.1337 -0.3323  0.0348
 8799TIP3    H126361   4.946   6.141   1.795  0.6458  0.1396  0.5626
 8799TIP3    H226362   4.904   6.182   1.935  1.6563 -1.0323  1.2271
 8800TIP3   OH226363   6.666   5.578   1.845  0.3379 -0.7995 -0.0252
 8800TIP3    H126364   6.732   5.625   1.897 -0.3112 -1.5864  1.5643
 8800TIP3    H226365   6.583   5.618   1.870  0.1586  0.1504 -1.9789
 8801TIP3   OH226366   1.906   5.913   3.887  0.6411 -0.1324  0.0915
 8801TIP3    H126367   1.887   5.875   3.973  0.5912 -0.5650 -0.1092
 8801TIP3    H226368   1.834   5.974   3.871  1.4258  1.0976  1.0233
 8802TIP3   OH226369   1.495   3.627   4.362 -0.3165 -0.4714 -0.0475
 8802TIP3    H126370   1.469   3.713   4.329  0.6618  0.6268  1.8446
 8802TIP3    H226371   1.488   3.569   4.287 -2.2542  0.9714 -1.0887
 8803TIP3   OH226372   6.841   3.708   5.865  0.0624 -0.1049 -0.4015
 8803TIP3    H126373   6.910   3.739   5.924  1.0849 -4.2108  0.8890
 8803TIP3    H226374   6.881   3.635   5.818 -2.8177 -1.4029 -1.0499
 8804TIP3   OH226375   0.405   5.863   4.035  0.7806 -0.0787  0.3160
 8804TIP3    H126376   0.475   5.828   4.091 -0.3129 -3.2051 -0.0734
 8804TIP3    H226377   0.348   5.788   4.018 -2.9548  2.3611  0.9207
 8805TIP3   OH226378   0.369   4.293   0.478  0.2759  0.4170 -0.6582
 8805TIP3    H126379   0.299   4.230   0.466  0.7284 -0.6666  1.7834
 8805TIP3    H226380   0.337   4.354   0.545  1.6931 -0.3079  0.7712
 8806TIP3   OH226381   3.897   5.929   1.471  0.1903 -0.3746  0.6821
 8806TIP3    H126382   3.891   6.016   1.511 -3.5754  1.1326 -2.5490
 8806TIP3    H226383   3.844   5.872   1.528 -0.6575  0.4550  0.7458
 8807TIP3   OH226384   3.380   1.987   0.841 -0.3444 -0.2493 -0.3123
 8807TIP3    H126385   3.315   2.026   0.783 -1.7866 -1.3853  0.4872
 8807TIP3    H226386   3.339   1.987   0.927  2.3177  2.8429  1.1809
 8808TIP3   OH226387   3.788   4.431   1.295 -0.1425  0.5844  0.4021
 8808TIP3    H126388   3.851   4.435   1.222 -0.4861  0.7310  0.1057
 8808TIP3    H226389   3.710   4.474   1.260 -0.7516 -0.4939  0.4199
 8809TIP3   OH226390   1.092   3.859   5.094  0.0402  0.4052  0.1984
 8809TIP3    H126391   1.164   3.900   5.143 -0.4028  1.5062 -0.0536
 8809TIP3    H226392   1.071   3.922   5.025 -1.3943  0.2650  0.4741
 8810TIP3   OH226393   2.472   2.247   2.353 -0.1244 -0.1585  0.2292
 8810TIP3    H126394   2.465   2.319   2.289  0.1971 -1.4840 -1.3619
 8810TIP3    H226395   2.409   2.270   2.421 -0.7281  1.1547 -0.7144
 8811TIP3   OH226396   2.347   4.539   2.999 -0.0741 -0.4534 -0.3372
 8811TIP3    H126397   2.429   4.575   2.966  0.0583  0.3702  0.8519
 8811TIP3    H226398   2.371   4.493   3.080 -0.4502 -2.1414 -1.1299
 8812TIP3   OH226399   2.874   2.121   0.039 -0.4004  0.1886 -0.1397
 8812TIP3    H126400   2.897   2.167   0.120  0.1581 -0.0331 -0.1669
 8812TIP3    H226401   2.782   2.097   0.050  0.2184 -1.7359  1.3819
 8813TIP3   OH226402   1.890   0.666   1.304  0.6065  0.3032  0.1250
 8813TIP3    H126403   1.892   0.588   1.249 -0.1822  0.3195  0.0644
 8813TIP3    H226404   1.972   0.662   1.354 -0.0611 -1.3334  1.1658
 8814TIP3   OH226405   2.120   2.793   5.542 -0.1595  0.6481 -0.7237
 8814TIP3    H126406   2.026   2.808   5.537 -0.2288  0.4221 -0.1498
 8814TIP3    H226407   2.133   2.747   5.625  0.0760 -2.1629 -2.1947
 8815TIP3   OH226408   3.511   4.488   0.435 -0.0909 -0.5832 -0.5753
 8815TIP3    H126409   3.501   4.400   0.472  1.0397 -0.2731  0.5766
 8815TIP3    H226410   3.459   4.487   0.355 -2.1211 -1.5173  0.6654
 8816TIP3   OH226411   0.650   5.270   1.712  0.3438  0.2414 -0.6539
 8816TIP3    H126412   0.636   5.258   1.617 -0.4435  0.2981 -0.5573
 8816TIP3    H226413   0.702   5.350   1.719  1.4028 -0.3939 -1.0889
 8817TIP3   OH226414   5.329   4.699   0.205 -0.2150  0.6259 -0.1131
 8817TIP3    H126415   5.321   4.604   0.216  0.6388  0.4021 -1.2061
 8817TIP3    H226416   5.420   4.718   0.226 -0.4780  1.2751  0.4880
 8818TIP3   OH226417   0.768   0.409   2.031  0.3621  0.4064  0.7438
 8818TIP3    H126418   0.840   0.400   1.968  1.3459 -0.8721  1.9828
 8818TIP3    H226419   0.811   0.422   2.115 -0.9095  1.0710  1.3129
 8819TIP3   OH226420   6.997   0.621   4.649  0.1303  0.1498 -0.5587
 8819TIP3    H126421   6.933   0.686   4.621  0.6678  1.3145  0.7815
 8819TIP3    H226422   6.953   0.537   4.637 -0.6375  0.7378 -2.1949
 8820TIP3   OH226423   2.028   6.148   1.163  0.2152 -0.2272  0.0993
 8820TIP3    H126424   2.055   6.234   1.194  0.8772 -1.0795  2.0195
 8820TIP3    H226425   1.935   6.142   1.185  0.7953 -1.0481  2.7002
 8821TIP3   OH226426   1.395   5.984   3.504  0.5452 -0.4778  0.1996
 8821TIP3    H126427   1.402   6.053   3.570 -0.0557 -0.2303  0.0047
 8821TIP3    H226428   1.411   6.028   3.421  0.7764 -0.6916  0.1297
 8822TIP3   OH226429   0.479   0.214   1.205 -0.3640  0.2646  0.1358
 8822TIP3    H126430   0.464   0.247   1.293  1.0798  0.0308  0.4924
 8822TIP3    H226431   0.471   0.119   1.212 -0.6299  0.2685 -0.0730
 8823TIP3   OH226432   5.464   3.241   4.801 -0.1262  0.1161  0.3861
 8823TIP3    H126433   5.522   3.315   4.818 -0.4978 -0.2476  4.0564
 8823TIP3    H226434   5.405   3.240   4.876 -1.8139 -2.4081 -0.8384
 8824TIP3   OH226435   4.468   3.285   3.659  0.0980  0.3148  0.7147
 8824TIP3    H126436   4.555   3.309   3.629 -0.3316  1.5290  0.4014
 8824TIP3    H226437   4.462   3.191   3.643  0.4703  0.6245 -1.5265
 8825TIP3   OH226438   4.873   1.776   1.832  0.1769  0.1554 -0.0250
 8825TIP3    H126439   4.839   1.736   1.913 -0.6547  1.0295  0.0842
 8825TIP3    H226440   4.881   1.703   1.771 -0.9849 -0.2513  0.2701
 8826TIP3   OH226441   5.282   4.056   0.241 -0.0257  0.1148 -0.1414
 8826TIP3    H126442   5.226   4.112   0.293 -0.4571 -0.6546  0.2365
 8826TIP3    H226443   5.366   4.056   0.287 -0.0508  0.3776 -0.0972
 8827TIP3   OH226444   4.685   3.096   5.150 -0.0013  0.0471  0.3328
 8827TIP3    H126445   4.621   3.139   5.093 -1.3005 -0.9264  1.0034
 8827TIP3    H226446   4.759   3.076   5.093  0.5100  2.7444 -0.1095
 8828TIP3   OH226447   0.517   5.749   4.683 -0.3132 -0.1393 -0.1255
 8828TIP3    H126448   0.449   5.804   4.646  0.3683 -0.3913 -1.8460
 8828TIP3    H226449   0.555   5.703   4.608  1.8874  0.1583  0.7248
 8829TIP3   OH226450   7.092   5.283   4.589  0.2543 -0.4225  0.0513
 8829TIP3    H126451   7.060   5.283   4.499  0.6618 -0.1366 -0.0987
 8829TIP3    H226452   7.052   5.360   4.628  0.6827 -0.1130 -0.1116
 8830TIP3   OH226453   6.704   3.669   0.924  0.1979  0.0013 -0.1862
 8830TIP3    H126454   6.614   3.638   0.914 -0.2698  1.1817  0.1968
 8830TIP3    H226455   6.757   3.590   0.922 -0.9222 -0.7844  0.4299
 8831TIP3   OH226456   3.842   5.791   5.406 -0.5589 -0.3725 -0.1428
 8831TIP3    H126457   3.763   5.818   5.359  0.0500  1.6169 -0.1216
 8831TIP3    H226458   3.838   5.838   5.489  1.0207  0.4525 -0.4802
 8832TIP3   OH226459   6.655   3.274   0.503  0.1167  0.2322 -0.1871
 8832TIP3    H126460   6.718   3.222   0.453  0.7622  1.5313 -0.7623
 8832TIP3    H226461   6.685   3.364   0.493  0.0472  0.5822  2.2499
 8833TIP3   OH226462   1.544   0.324   1.671  0.1657  0.3156 -0.2536
 8833TIP3    H126463   1.593   0.329   1.754 -3.7060  0.2150  2.3039
 8833TIP3    H226464   1.520   0.232   1.663 -1.3458  0.6839 -0.2362
 8834TIP3   OH226465   5.803   5.766   5.084  0.2701 -0.0179 -0.4828
 8834TIP3    H126466   5.842   5.787   4.998 -0.5822  0.4886 -0.7571
 8834TIP3    H226467   5.856   5.816   5.146 -0.6702  1.6880 -0.9734
 8835TIP3   OH226468   1.394   2.801   0.595 -0.2118  0.3116 -0.3496
 8835TIP3    H126469   1.459   2.870   0.582 -1.6682  2.0888  1.2699
 8835TIP3    H226470   1.338   2.807   0.518 -0.8057  1.5220  0.1582
 8836TIP3   OH226471   3.198   6.785   4.777  0.2338  0.9318 -0.2249
 8836TIP3    H126472   3.219   6.723   4.707 -0.5319  0.2291  0.1517
 8836TIP3    H226473   3.132   6.843   4.739 -0.6504  0.1586  0.0934
 8837TIP3   OH226474   4.621   1.700   0.932 -0.3294 -0.4865 -0.0279
 8837TIP3    H126475   4.712   1.731   0.940 -0.2929 -0.5985 -0.0004
 8837TIP3    H226476   4.625   1.633   0.864 -0.3081 -0.8031  0.2768
 8838TIP3   OH226477   3.937   6.354   1.322  0.0704 -0.3183 -1.2135
 8838TIP3    H126478   3.934   6.409   1.400  1.5414 -1.0924 -0.5898
 8838TIP3    H226479   3.909   6.413   1.251 -0.2408  0.6891 -0.2846
 8839TIP3   OH226480   4.370   1.048   2.131  0.5949 -0.7637 -0.1064
 8839TIP3    H126481   4.347   1.028   2.221  1.8559 -2.0875 -0.0265
 8839TIP3    H226482   4.327   1.131   2.112 -1.3085 -1.4203  1.0630
 8840TIP3   OH226483   3.912   5.805   0.839  0.0036 -0.2809 -0.2147
 8840TIP3    H126484   3.876   5.785   0.753  1.0380  1.5134 -1.1233
 8840TIP3    H226485   3.849   5.866   0.878  0.5744  0.5998 -0.6254
 8841TIP3   OH226486   1.809   5.149   1.924  0.5373  0.2312 -0.4381
 8841TIP3    H126487   1.802   5.220   1.860 -0.6111  0.0413 -0.5436
 8841TIP3    H226488   1.772   5.073   1.880  2.3227 -0.6103 -0.5415
 8842TIP3   OH226489   2.072   4.173   4.136  0.0859 -0.1502  0.2196
 8842TIP3    H126490   2.108   4.187   4.049  1.2362  0.5707  0.7881
 8842TIP3    H226491   2.127   4.226   4.194 -0.4789 -0.8315  1.4228
 8843TIP3   OH226492   1.044   4.710   5.297  0.0310  0.3030  0.0276
 8843TIP3    H126493   1.011   4.633   5.251 -0.5567  1.3651 -1.4134
 8843TIP3    H226494   1.138   4.712   5.278  0.2748 -0.6691  1.0365
 8844TIP3   OH226495   5.832   2.241   0.291  0.5470 -0.2782  0.2360
 8844TIP3    H126496   5.888   2.237   0.369 -0.6971 -1.6058  1.1078
 8844TIP3    H226497   5.769   2.170   0.302 -1.8635  1.6110 -0.2869
 8845TIP3   OH226498   0.621   5.445   2.057  0.4112 -0.0538 -0.0056
 8845TIP3    H126499   0.698   5.474   2.008 -0.1202  1.0728 -0.2069
 8845TIP3    H226500   0.547   5.470   2.001 -0.0876 -1.7015 -0.1166
 8846TIP3   OH226501   1.514   4.238   3.426 -0.3529 -0.6549 -0.1098
 8846TIP3    H126502   1.547   4.258   3.338  0.6110 -0.8524  0.1979
 8846TIP3    H226503   1.423   4.268   3.424 -0.0431  0.2907 -0.8484
 8847TIP3   OH226504   5.316   3.172   0.322  0.0760 -0.0682  0.0491
 8847TIP3    H126505   5.289   3.135   0.406  1.7332  1.7979  1.5030
 8847TIP3    H226506   5.257   3.246   0.308  0.5656  0.3566  0.2009
 8848TIP3   OH226507   1.226   5.131   1.334 -0.5157 -0.5688 -0.0670
 8848TIP3    H126508   1.293   5.063   1.335  1.3878  1.2414  0.7787
 8848TIP3    H226509   1.202   5.142   1.426 -0.0077  0.6511 -0.0737
 8849TIP3   OH226510   2.635   4.858   2.517  0.1477  0.4787  0.0638
 8849TIP3    H126511   2.700   4.820   2.458  0.3444  0.4241  0.3147
 8849TIP3    H226512   2.687   4.905   2.582 -0.1033  2.0297 -0.8080
 8850TIP3   OH226513   5.188   1.515   1.198  0.1721  0.7531 -0.0562
 8850TIP3    H126514   5.220   1.424   1.199 -1.0032  0.3135 -0.4184
 8850TIP3    H226515   5.104   1.510   1.152  0.0830  2.0303 -0.0597
 8851TIP3   OH226516   2.359   3.479   4.983 -0.1156  0.1937  0.2218
 8851TIP3    H126517   2.307   3.545   4.937  0.6800  0.8735  0.2917
 8851TIP3    H226518   2.434   3.527   5.019  0.6280 -0.7848  0.0271
 8852TIP3   OH226519   5.799   4.232   0.683 -0.1555  0.2784 -0.6436
 8852TIP3    H126520   5.869   4.198   0.738 -1.0016 -1.0050 -0.3071
 8852TIP3    H226521   5.824   4.207   0.594  0.8459  1.7015 -0.7888
 8853TIP3   OH226522   7.133   2.460   0.793 -0.2196 -0.4840  0.0766
 8853TIP3    H126523   7.112   2.378   0.749  1.0217 -0.4864 -0.5558
 8853TIP3    H226524   7.110   2.528   0.730  0.1463 -0.4208  0.0063
 8854TIP3   OH226525   6.196   4.975   4.932 -0.5864 -0.4034 -0.2137
 8854TIP3    H126526   6.242   5.031   4.869  0.1406 -2.1446 -1.3165
 8854TIP3    H226527   6.105   5.003   4.925 -0.1020  1.4680  0.2179
 8855TIP3   OH226528   4.014   6.752   5.074  0.2897  0.2355 -0.1393
 8855TIP3    H126529   4.029   6.665   5.035  2.1636  0.3247  0.3010
 8855TIP3    H226530   3.946   6.791   5.019 -0.3890 -1.3914 -0.5169
 8856TIP3   OH226531   2.615   0.560   4.925  0.1575  0.1744  0.5452
 8856TIP3    H126532   2.539   0.516   4.887  1.3096 -0.4422 -1.1733
 8856TIP3    H226533   2.591   0.575   5.016 -2.0258  0.0428  0.0443
 8857TIP3   OH226534   5.585   2.833   3.227  0.4865  0.6547  0.2496
 8857TIP3    H126535   5.538   2.865   3.150  2.3307  1.0233 -0.7916
 8857TIP3    H226536   5.629   2.910   3.262  0.4681  0.2940  1.0751
 8858TIP3   OH226537   0.374   6.787   4.016  0.2070  0.0478 -0.4189
 8858TIP3    H126538   0.391   6.801   3.923  0.3161 -0.3210 -0.4592
 8858TIP3    H226539   0.460   6.775   4.055  0.1149 -0.7695 -0.4416
 8859TIP3   OH226540   5.130   0.539   1.463  1.0520  0.2809  0.5812
 8859TIP3    H126541   5.164   0.457   1.428  0.9945  0.2214  0.6635
 8859TIP3    H226542   5.201   0.602   1.450  0.9673  0.2993  0.2042
 8860TIP3   OH226543   1.416   5.733   3.206 -0.1129 -0.3751 -0.0315
 8860TIP3    H126544   1.447   5.792   3.275 -1.0690 -0.8517  0.8302
 8860TIP3    H226545   1.459   5.650   3.224 -0.5957 -0.5825  0.1764
 8861TIP3   OH226546   3.170   4.216   4.645 -0.0593  0.6234  0.4723
 8861TIP3    H126547   3.231   4.174   4.705 -0.7057 -0.0221  0.6847
 8861TIP3    H226548   3.088   4.168   4.656 -0.4046  1.0065 -0.3476
 8862TIP3   OH226549   0.345   4.809   2.222 -0.2125  0.0421  0.0245
 8862TIP3    H126550   0.259   4.849   2.217 -0.3627 -0.1656  0.8163
 8862TIP3    H226551   0.356   4.787   2.315 -0.6932 -2.9539 -0.5180
 8863TIP3   OH226552   4.962   2.047   4.616 -0.0590 -0.5844 -0.3094
 8863TIP3    H126553   5.025   2.101   4.567 -0.0986 -0.5745 -0.3493
 8863TIP3    H226554   5.013   1.973   4.648  0.2879  0.1075  0.8103
 8864TIP3   OH226555   0.861   1.306   4.903 -0.1619  0.0456 -0.2179
 8864TIP3    H126556   0.918   1.383   4.911 -0.6078  0.5844 -1.7475
 8864TIP3    H226557   0.920   1.231   4.910  0.5860  0.5774 -0.6747
 8865TIP3   OH226558   0.511   6.419   3.987 -0.9391 -0.2530  0.3328
 8865TIP3    H126559   0.564   6.490   3.951 -0.1819 -0.3994  1.1565
 8865TIP3    H226560   0.558   6.389   4.064 -0.9254 -2.0612 -0.3147
 8866TIP3   OH226561   1.287   0.353   5.152  0.4017 -0.0491 -0.3099
 8866TIP3    H126562   1.331   0.433   5.123  0.3447  0.3015  0.5532
 8866TIP3    H226563   1.352   0.284   5.140  0.9805  0.3636  0.3411
 8867TIP3   OH226564   1.433   4.545   4.150  0.3130  0.5336  0.0491
 8867TIP3    H126565   1.337   4.539   4.156  0.1005  1.8656 -1.2979
 8867TIP3    H226566   1.463   4.454   4.150 -0.8220  0.0966  1.7659
 8868TIP3   OH226567   7.081   1.578   0.597  0.3587 -0.3501 -0.3026
 8868TIP3    H126568   7.054   1.528   0.674 -0.5679 -2.1063 -1.6579
 8868TIP3    H226569   7.174   1.594   0.609  0.5640 -1.9554  0.4888
 8869TIP3   OH226570   3.700   3.678   1.640 -0.4535 -0.2340 -0.4023
 8869TIP3    H126571   3.760   3.618   1.683  0.9437  1.3036 -0.0966
 8869TIP3    H226572   3.752   3.717   1.569  0.0121  3.2838  1.6182
 8870TIP3   OH226573   6.163   1.345   5.387  0.1773 -0.3546 -0.6432
 8870TIP3    H126574   6.112   1.319   5.311  0.3790  0.2696 -0.9969
 8870TIP3    H226575   6.110   1.411   5.431  0.2353 -0.4264 -0.4644
 8871TIP3   OH226576   0.818   1.731   2.774 -0.1876 -0.5014  0.2906
 8871TIP3    H126577   0.783   1.651   2.735 -0.5152 -0.6797  0.9373
 8871TIP3    H226578   0.873   1.769   2.706  0.6230 -1.6930  0.2577
 8872TIP3   OH226579   6.376   4.323   4.904  0.1670  0.0014 -0.5122
 8872TIP3    H126580   6.385   4.294   4.813 -0.6180 -1.0553 -0.2866
 8872TIP3    H226581   6.297   4.278   4.935 -0.5574  1.6778  0.1929
 8873TIP3   OH226582   3.495   5.847   0.100  0.0627 -0.3699  0.3091
 8873TIP3    H126583   3.403   5.830   0.119 -0.2411 -1.2861 -1.7119
 8873TIP3    H226584   3.520   5.918   0.160 -1.6265 -0.8531  1.6444
 8874TIP3   OH226585   2.664   2.880   1.242 -0.6861 -0.0598 -0.3112
 8874TIP3    H126586   2.745   2.926   1.223 -0.1525  0.2558  2.2901
 8874TIP3    H226587   2.598   2.924   1.188  0.5426  0.9801 -1.0153
 8875TIP3   OH226588   7.082   4.294   1.066  0.3463  0.1397 -1.1164
 8875TIP3    H126589   7.143   4.222   1.082 -0.5678 -0.3132  0.5834
 8875TIP3    H226590   6.995   4.253   1.068 -0.3863  1.4921  2.1437
 8876TIP3   OH226591   0.001   1.961   2.725 -0.1703 -0.7038 -0.5973
 8876TIP3    H126592   0.073   1.912   2.765  0.2494  0.3541 -0.0177
 8876TIP3    H226593   0.044   2.031   2.676 -0.6629 -1.9618 -2.9828
 8877TIP3   OH226594   0.791   5.507   5.032  0.5529  0.0902 -0.3320
 8877TIP3    H126595   0.848   5.566   4.983  1.7442  0.2629  1.1793
 8877TIP3    H226596   0.747   5.564   5.096  1.4991 -0.5769  0.9519
 8878TIP3   OH226597   3.585   2.911   2.325  0.1797 -0.1163 -0.0442
 8878TIP3    H126598   3.665   2.869   2.291  1.2920  2.2568 -0.5768
 8878TIP3    H226599   3.526   2.838   2.343  2.3693 -1.9697  0.1483
 8879TIP3   OH226600   4.998   4.791   4.687 -0.5176 -0.3815  0.1683
 8879TIP3    H126601   4.952   4.785   4.770  1.0149  0.3371  1.1037
 8879TIP3    H226602   5.048   4.872   4.693 -0.7114 -0.0795 -1.6456
 8880TIP3   OH226603   4.992   2.323   3.549 -0.1639 -0.0717  0.4023
 8880TIP3    H126604   4.992   2.228   3.543  2.0620 -0.0903  0.0707
 8880TIP3    H226605   4.907   2.349   3.512 -0.1740 -1.8395 -0.9545
 8881TIP3   OH226606   6.521   5.255   1.816  0.6918 -0.8085  0.1907
 8881TIP3    H126607   6.593   5.301   1.772 -1.1660 -0.5260 -2.8446
 8881TIP3    H226608   6.462   5.325   1.844  0.1692 -1.1534 -0.0428
 8882TIP3   OH226609   3.416   0.058   4.622  0.1673  0.0596  0.0096
 8882TIP3    H126610   3.358   0.123   4.662 -0.7155  1.7285 -3.5919
 8882TIP3    H226611   3.356  -0.000   4.575  1.2480 -0.2984 -0.9574
 8883TIP3   OH226612   6.918   1.996   4.703 -0.1005  0.4220 -0.2142
 8883TIP3    H126613   6.913   2.088   4.730  0.9138  0.5504 -0.4192
 8883TIP3    H226614   6.875   1.993   4.618 -0.5354  0.6209 -0.0023
 8884TIP3   OH226615   3.359   4.365   1.266 -0.1350 -0.1094 -0.3892
 8884TIP3    H126616   3.344   4.288   1.212  0.7437 -0.1716 -0.5564
 8884TIP3    H226617   3.351   4.334   1.356 -0.7184 -0.1908 -0.4647
 8885TIP3   OH226618   0.212   3.638   0.728  0.1912  0.3093 -0.8794
 8885TIP3    H126619   0.127   3.593   0.726  0.3835 -0.0333 -1.4729
 8885TIP3    H226620   0.189   3.731   0.727 -0.1664  0.2201 -2.0243
 8886TIP3   OH226621   4.203   0.469   0.697  0.8807  0.2680  0.1662
 8886TIP3    H126622   4.142   0.539   0.675 -1.5891 -2.2194 -1.6856
 8886TIP3    H226623   4.281   0.487   0.645 -0.0398  1.1884 -0.9490
 8887TIP3   OH226624   4.125   1.872   0.989  0.0638  0.5225  0.6238
 8887TIP3    H126625   4.165   1.915   0.913 -0.9192  2.5249  1.1671
 8887TIP3    H226626   4.180   1.795   1.004 -0.1565 -0.4130 -2.5682
 8888TIP3   OH226627   1.443   6.220   2.584  0.4707 -0.5883 -0.0093
 8888TIP3    H126628   1.489   6.188   2.661  0.4931  0.3220  0.3657
 8888TIP3    H226629   1.509   6.270   2.536 -0.4473  2.0791  1.3361
 8889TIP3   OH226630   2.916   6.613   2.315 -0.0552 -0.3051  0.2535
 8889TIP3    H126631   2.991   6.643   2.366  0.2023 -0.9935  0.2852
 8889TIP3    H226632   2.841   6.623   2.374  0.1389 -0.4246  0.5208
 8890TIP3   OH226633   7.116   6.516   3.166  0.0260 -0.1185 -0.5164
 8890TIP3    H126634   7.038   6.493   3.115  0.0554  0.0421 -0.6349
 8890TIP3    H226635   7.110   6.611   3.178 -0.0315 -0.1677 -0.1356
 8891TIP3   OH226636   3.355   3.743   5.016 -0.3958 -0.1931 -0.6106
 8891TIP3    H126637   3.379   3.653   4.993 -0.0262 -0.3010  0.1756
 8891TIP3    H226638   3.322   3.737   5.106 -0.9553  0.3608 -0.7727
 8892TIP3   OH226639   3.120   0.671   5.289 -0.0799 -0.0615 -0.1656
 8892TIP3    H126640   3.103   0.589   5.336  1.7918  0.0146  0.7556
 8892TIP3    H226641   3.034   0.704   5.265 -0.8981 -2.1025 -0.2267
 8893TIP3   OH226642   1.468   5.798   0.589  0.2744  0.2579  0.3831
 8893TIP3    H126643   1.401   5.816   0.655  0.9437 -0.5559  1.3134
 8893TIP3    H226644   1.509   5.717   0.618  1.7074  0.7761 -0.1151
 8894TIP3   OH226645   4.008   1.177   3.017 -0.6245 -0.6928  0.4664
 8894TIP3    H126646   4.099   1.150   3.016 -0.6539 -0.7937  0.4834
 8894TIP3    H226647   3.961   1.101   3.053 -0.4979  0.0255  2.2396
 8895TIP3   OH226648   1.382   1.974  -0.012 -0.5615  0.1510 -0.7141
 8895TIP3    H126649   1.395   1.998   0.080 -0.8676  3.2318 -1.3450
 8895TIP3    H226650   1.433   1.894  -0.024  1.3999  0.9348  1.5848
 8896TIP3   OH226651   5.086   2.891   5.222 -0.1314  0.2814  0.2835
 8896TIP3    H126652   5.066   2.815   5.276 -1.2384  0.1809 -0.2351
 8896TIP3    H226653   5.181   2.900   5.227  0.1917 -1.8842 -0.6255
 8897TIP3   OH226654   2.616   2.520   3.528 -0.0021 -0.2018 -0.2539
 8897TIP3    H126655   2.669   2.600   3.523 -0.2836  0.0943  1.1420
 8897TIP3    H226656   2.529   2.551   3.550 -0.0319 -0.9168  0.6731
 8898TIP3   OH226657   5.525   3.777   1.212  0.1219 -0.0874 -0.5663
 8898TIP3    H126658   5.558   3.702   1.262  1.6411  0.9906  0.1281
 8898TIP3    H226659   5.450   3.742   1.165 -0.5671 -1.5129  1.4078
 8899TIP3   OH226660   2.910   6.039   3.710 -0.0872 -0.0978 -0.1956
 8899TIP3    H126661   2.818   6.026   3.685  0.0428  1.8868 -1.9822
 8899TIP3    H226662   2.946   5.951   3.716 -1.6531 -0.8592 -1.3255
 8900TIP3   OH226663   5.965   2.256   4.133 -0.6817 -0.3146 -0.0747
 8900TIP3    H126664   5.872   2.233   4.137 -0.4810 -1.6839 -1.9072
 8900TIP3    H226665   5.972   2.319   4.061 -0.0894 -0.8220 -0.4709
 8901TIP3   OH226666   6.685   2.013   3.798 -0.0936  0.3085 -0.0282
 8901TIP3    H126667   6.751   1.978   3.737 -2.2495 -1.1114 -1.6767
 8901TIP3    H226668   6.707   1.972   3.881  0.4619 -1.0423 -0.7928
 8902TIP3   OH226669   3.653   2.346   4.074 -0.0776  0.1547  0.4796
 8902TIP3    H126670   3.618   2.352   3.985  0.0932  1.3692  0.4817
 8902TIP3    H226671   3.687   2.257   4.080 -0.6258 -0.1330 -0.4705
 8903TIP3   OH226672   2.953   6.010   4.699 -0.0161  0.5160 -0.5589
 8903TIP3    H126673   3.045   5.987   4.687 -0.0686  0.9499 -1.9209
 8903TIP3    H226674   2.948   6.040   4.789  0.9595 -0.4797 -0.1391
 8904TIP3   OH226675   3.173   4.139   1.141  0.4266  0.3710  0.0130
 8904TIP3    H126676   3.107   4.093   1.090  2.5330 -2.8501 -0.0983
 8904TIP3    H226677   3.128   4.166   1.221 -1.8889  1.7755 -1.6491
 8905TIP3   OH226678   3.840   3.869   4.143  0.2419 -0.0607 -0.6800
 8905TIP3    H126679   3.907   3.819   4.189  0.0270  0.9902  0.8778
 8905TIP3    H226680   3.775   3.804   4.118  0.7490 -0.7899 -0.1597
 8906TIP3   OH226681   3.708   4.671   0.211 -0.6839  0.0911  0.1433
 8906TIP3    H126682   3.754   4.633   0.136 -0.0792  0.3074  0.3956
 8906TIP3    H226683   3.757   4.640   0.288 -0.8145  0.5224  0.4048
 8907TIP3   OH226684   5.946   5.418   2.863 -0.0591 -0.2043 -0.1986
 8907TIP3    H126685   5.984   5.381   2.784  1.6590 -0.1017  0.5506
 8907TIP3    H226686   5.918   5.506   2.837 -0.0945 -0.3977 -0.8391
 8908TIP3   OH226687   4.758   2.417   5.443  0.3107  0.1784 -0.2392
 8908TIP3    H126688   4.763   2.480   5.371  1.5657  1.8576  1.2211
 8908TIP3    H226689   4.695   2.456   5.504 -1.2896 -1.5675 -0.6657
 8909TIP3   OH226690   7.150   4.697   2.178 -0.1826  0.8771 -0.4804
 8909TIP3    H126691   7.235   4.731   2.208  0.4124 -0.6692 -0.3153
 8909TIP3    H226692   7.101   4.774   2.151  1.0948  1.8505 -0.0884
 8910TIP3   OH226693   1.753   4.441   2.426  0.0028 -0.4215 -0.1891
 8910TIP3    H126694   1.829   4.400   2.469 -0.2248 -0.2462  0.3938
 8910TIP3    H226695   1.686   4.444   2.494 -0.2943  0.0691 -0.4973
 8911TIP3   OH226696   0.284   1.836   1.359 -0.0650 -0.5641  0.4845
 8911TIP3    H126697   0.324   1.751   1.343  0.6635 -0.5921  2.1697
 8911TIP3    H226698   0.347   1.881   1.415 -2.2029 -0.4880  3.0232
 8912TIP3   OH226699   1.994   4.268   4.896 -0.3291 -0.3516  0.0592
 8912TIP3    H126700   1.918   4.292   4.949 -0.2786  1.0472 -0.4427
 8912TIP3    H226701   1.980   4.177   4.873 -1.6733 -0.2210  0.2841
 8913TIP3   OH226702   2.016   0.089   3.284  0.6424  0.4327  0.4627
 8913TIP3    H126703   1.968   0.065   3.205 -0.0151 -0.1780  1.0296
 8913TIP3    H226704   1.953   0.138   3.337  0.8240  0.1602  0.9432
 8914TIP3   OH226705   2.383   3.117   0.162  1.0355  0.6317 -0.5146
 8914TIP3    H126706   2.473   3.148   0.162  0.5602  2.2688 -2.8780
 8914TIP3    H226707   2.389   3.022   0.155  2.5680  0.7399 -0.8638
 8915TIP3   OH226708   5.358   0.143   3.970  0.3361 -0.7350 -0.2252
 8915TIP3    H126709   5.368   0.082   4.044 -0.4264 -0.8297 -0.1907
 8915TIP3    H226710   5.447   0.155   3.937  0.5732 -1.3971  0.1483
 8916TIP3   OH226711   4.044   1.475   3.750  0.0442  0.1571  0.2684
 8916TIP3    H126712   4.135   1.503   3.738  0.1939  0.0341  1.0279
 8916TIP3    H226713   4.020   1.433   3.668  0.2280  1.3956 -0.4405
 8917TIP3   OH226714   1.599   6.256   4.132  0.2118  0.0157  0.5651
 8917TIP3    H126715   1.595   6.331   4.192  1.3438  1.2993 -0.9005
 8917TIP3    H226716   1.691   6.229   4.133  0.4244  0.5919 -1.1928
 8918TIP3   OH226717   4.632   1.628   5.590 -0.3717 -0.5777  0.3339
 8918TIP3    H126718   4.549   1.604   5.631 -0.6204 -2.5272 -1.1669
 8918TIP3    H226719   4.684   1.548   5.594  0.4392 -0.1559 -1.0814
 8919TIP3   OH226720   0.805   0.552   3.883  0.0912 -0.5160 -0.2506
 8919TIP3    H126721   0.716   0.581   3.863  0.5715  0.7851 -0.6390
 8919TIP3    H226722   0.854   0.566   3.802  0.9819  0.2674  0.4002
 8920TIP3   OH226723   1.942   4.542   0.094 -0.7505 -0.6913 -0.3887
 8920TIP3    H126724   1.848   4.523   0.092 -0.6629 -1.2000 -2.7362
 8920TIP3    H226725   1.982   4.460   0.121 -1.0119  0.2476  3.3967
 8921TIP3   OH226726   0.199   3.315   0.236 -0.0657  0.2722 -0.2389
 8921TIP3    H126727   0.291   3.298   0.257 -0.4948 -0.4676  1.1649
 8921TIP3    H226728   0.164   3.356   0.315 -1.8514 -2.9160  0.7952
 8922TIP3   OH226729   3.757   6.219   0.561 -0.2746 -0.8559  0.0646
 8922TIP3    H126730   3.833   6.275   0.542  2.4908 -4.1094  0.4484
 8922TIP3    H226731   3.730   6.244   0.649  0.5224  0.2487  0.0145
 8923TIP3   OH226732   4.884   2.256   1.881 -0.0254 -0.2843  0.1350
 8923TIP3    H126733   4.905   2.304   1.961  1.1929 -1.4477  0.5503
 8923TIP3    H226734   4.944   2.290   1.815  0.4418 -0.8116  0.2807
 8924TIP3   OH226735   3.387   5.777   4.541 -0.4344 -0.6088  0.2573
 8924TIP3    H126736   3.345   5.823   4.613  0.2862  1.6820 -0.7170
 8924TIP3    H226737   3.328   5.703   4.523 -2.0290  0.3195  1.3979
 8925TIP3   OH226738   5.624   0.716   2.144 -0.5569  0.0902  0.2188
 8925TIP3    H126739   5.556   0.656   2.174  0.0049 -0.8495 -0.3610
 8925TIP3    H226740   5.696   0.704   2.207 -0.4041  0.0952  0.0443
 8926TIP3   OH226741   4.087   3.608   1.630 -0.1154  0.1443 -0.2032
 8926TIP3    H126742   4.175   3.572   1.637  0.0865  0.8212  0.9418
 8926TIP3    H226743   4.092   3.671   1.558  0.2619 -0.0331 -0.3330
 8927TIP3   OH226744   1.560   3.583   2.255  0.3806  0.0873  0.2862
 8927TIP3    H126745   1.654   3.569   2.246  0.4077  0.6534 -0.4051
 8927TIP3    H226746   1.526   3.580   2.165  0.1291  2.4764  0.2445
 8928TIP3   OH226747   2.992   0.746   4.585 -0.0109 -0.4335 -0.5354
 8928TIP3    H126748   3.059   0.683   4.613  0.0498 -0.6616 -1.1741
 8928TIP3    H226749   2.911   0.713   4.624  0.5634  1.1887  2.3516
 8929TIP3   OH226750   0.973   5.062   2.270  0.5651  0.7529  0.1337
 8929TIP3    H126751   1.043   5.106   2.318  1.8483 -0.6756 -0.3441
 8929TIP3    H226752   0.986   4.969   2.288 -3.4892  0.4483  3.1303
 8930TIP3   OH226753   2.804   1.240   2.004  0.3435 -0.0443  0.1403
 8930TIP3    H126754   2.824   1.311   2.066 -1.2815 -1.4344  2.4074
 8930TIP3    H226755   2.854   1.165   2.036 -0.0372 -0.6338 -0.6222
 8931TIP3   OH226756   4.320   5.491   4.922  0.0134 -0.0286  0.6906
 8931TIP3    H126757   4.257   5.470   4.852 -0.0951 -1.4958  1.1781
 8931TIP3    H226758   4.400   5.515   4.876  1.1167 -4.4451 -0.1539
 8932TIP3   OH226759   6.538   2.975   5.592  0.4872  0.0125  0.1176
 8932TIP3    H126760   6.489   3.054   5.569  1.0583  0.6984  1.1574
 8932TIP3    H226761   6.492   2.904   5.548  0.3688  1.0068 -1.4143
 8933TIP3   OH226762   7.201   5.412   4.925  0.7847 -0.2793 -0.6591
 8933TIP3    H126763   7.142   5.412   5.001  0.3526 -0.5379 -0.9892
 8933TIP3    H226764   7.175   5.335   4.875  2.3595 -1.2255 -0.0802
 8934TIP3   OH226765   6.645   3.036   0.657  0.1089 -0.6683 -0.2496
 8934TIP3    H126766   6.644   3.117   0.607  2.3353  1.4121  2.7252
 8934TIP3    H226767   6.683   2.971   0.597  0.4453  1.0471 -1.9886
 8935TIP3   OH226768   5.990   1.852   3.313 -0.0207  0.1292 -0.2115
 8935TIP3    H126769   5.943   1.789   3.367 -1.8884  1.9982  0.4487
 8935TIP3    H226770   6.082   1.838   3.335 -0.6027 -0.2301  2.2846
 8936TIP3   OH226771   1.345   1.508   1.697  0.5622 -0.1901  0.1294
 8936TIP3    H126772   1.322   1.559   1.774  0.8512  0.1597 -0.0134
 8936TIP3    H226773   1.377   1.572   1.633 -1.2515 -0.2504 -0.9049
 8937TIP3   OH226774   1.177   4.157   5.243  0.5537 -0.7928 -0.3804
 8937TIP3    H126775   1.214   4.229   5.294  0.4813 -1.7656  1.1167
 8937TIP3    H226776   1.252   4.116   5.201  0.8514 -1.1059  0.4503
 8938TIP3   OH226777   6.204   6.714   0.151 -0.0031 -0.4161 -0.0644
 8938TIP3    H126778   6.257   6.762   0.088 -0.4163 -1.2105 -1.0431
 8938TIP3    H226779   6.248   6.630   0.161 -0.3437 -0.5714  0.1454
 8939TIP3   OH226780   6.897   3.482   2.580  0.5102  0.0501 -0.1856
 8939TIP3    H126781   6.926   3.412   2.639  0.0671  0.5969  0.6947
 8939TIP3    H226782   6.902   3.562   2.632 -0.9897  0.3882 -0.5095
 8940TIP3   OH226783   1.718   5.802   2.551  0.5338  0.1105  0.5626
 8940TIP3    H126784   1.637   5.752   2.561 -1.7301  3.4411  0.4889
 8940TIP3    H226785   1.741   5.792   2.459 -0.9776  0.7288  0.0962
 8941TIP3   OH226786   3.577   5.412   3.938  0.0613 -0.2656 -0.5492
 8941TIP3    H126787   3.635   5.462   3.995  1.7945 -1.9653 -0.7217
 8941TIP3    H226788   3.636   5.362   3.881 -1.5935 -0.8171 -1.8713
 8942TIP3   OH226789   3.702   1.612   1.415  0.3077  0.0738  0.1927
 8942TIP3    H126790   3.789   1.640   1.444  0.2520 -0.4665  0.9155
 8942TIP3    H226791   3.649   1.692   1.418  0.5559  0.2260  0.6199
 8943TIP3   OH226792   2.043   3.043   3.904  0.1134 -0.2201 -0.2203
 8943TIP3    H126793   2.058   3.132   3.872  2.3182 -0.1169  0.8794
 8943TIP3    H226794   2.128   3.000   3.895 -0.7677 -2.0533 -0.1926
 8944TIP3   OH226795   2.034   2.470   4.893 -0.0028 -0.4052  0.5209
 8944TIP3    H126796   2.095   2.522   4.946  0.6970 -0.3478 -0.3276
 8944TIP3    H226797   2.075   2.464   4.807 -0.1902 -2.1708  0.5194
 8945TIP3   OH226798   3.036   3.300   2.619 -0.0655 -0.3846  0.0100
 8945TIP3    H126799   3.089   3.352   2.558  1.3439 -1.4867  0.2537
 8945TIP3    H226800   3.097   3.271   2.687 -0.9509 -1.7858  0.2639
 8946TIP3   OH226801   4.303   6.126   5.136  0.1070  0.0147  0.3035
 8946TIP3    H126802   4.237   6.096   5.199 -1.3949  2.3909 -0.0289
 8946TIP3    H226803   4.356   6.188   5.185 -0.2721  0.9134 -0.4003
 8947TIP3   OH226804   2.214   3.118   5.713 -0.3541  0.3263  0.2596
 8947TIP3    H126805   2.179   3.029   5.711 -1.0906  0.6074  0.5928
 8947TIP3    H226806   2.161   3.164   5.777 -0.9414  1.4074 -0.9632
 8948TIP3   OH226807   6.931   5.407   3.789 -0.8645 -0.4527  0.3422
 8948TIP3    H126808   7.011   5.446   3.757 -1.1258 -1.5105 -1.7774
 8948TIP3    H226809   6.944   5.313   3.777 -2.9201 -0.5871 -1.5018
 8949TIP3   OH226810   5.881   4.327   2.812 -0.2641 -0.3550  0.6996
 8949TIP3    H126811   5.820   4.346   2.883  0.0493 -2.0563  1.4861
 8949TIP3    H226812   5.967   4.350   2.847 -0.3138  0.9355  0.0202
 8950TIP3   OH226813   6.800   2.388   1.843 -0.4882 -0.2317  0.1996
 8950TIP3    H126814   6.872   2.432   1.889 -1.3910  0.7073  0.7571
 8950TIP3    H226815   6.842   2.343   1.770  0.7150 -0.0218  0.7397
 8951TIP3   OH226816   0.756   4.948   1.767  0.1097  0.3228  0.3705
 8951TIP3    H126817   0.816   5.023   1.764  0.4516  0.0316 -0.8261
 8951TIP3    H226818   0.682   4.975   1.712 -0.4803  0.3508  1.1579
 8952TIP3   OH226819   5.581   1.392   1.787  0.2827 -0.2484 -0.1974
 8952TIP3    H126820   5.549   1.339   1.715  0.1880  0.6129 -0.8079
 8952TIP3    H226821   5.583   1.333   1.862  0.3884 -1.1564 -0.9051
 8953TIP3   OH226822   0.663   6.222   4.912 -0.0324 -0.0578 -0.0527
 8953TIP3    H126823   0.587   6.178   4.950  0.6859 -0.3297  1.1254
 8953TIP3    H226824   0.719   6.242   4.987  0.8312  0.5857 -0.8471
 8954TIP3   OH226825   5.593   1.151   4.203 -0.9003  0.7166  0.0301
 8954TIP3    H126826   5.582   1.207   4.279  1.8307  0.8403  0.4627
 8954TIP3    H226827   5.675   1.181   4.163 -0.1538 -1.9025 -0.6214
 8955TIP3   OH226828   5.239   2.129   2.241  0.0212  0.1816 -0.0606
 8955TIP3    H126829   5.202   2.194   2.301  0.8600  1.7077 -1.1298
 8955TIP3    H226830   5.333   2.144   2.244  0.0300  0.9870 -2.4474
 8956TIP3   OH226831   4.332   4.298   3.135  0.1418 -0.2411  0.3505
 8956TIP3    H126832   4.352   4.225   3.077  0.0787 -0.6344  0.8206
 8956TIP3    H226833   4.408   4.304   3.193 -0.1597 -0.3822  0.7646
 8957TIP3   OH226834   5.727   1.948   1.323  0.4360  0.2304  0.4032
 8957TIP3    H126835   5.789   1.918   1.389  1.0361  2.4897  0.9785
 8957TIP3    H226836   5.770   1.928   1.239  0.9382 -0.1841  0.7513
 8958TIP3   OH226837   0.256   0.098   0.133  0.7480 -0.0737 -0.1869
 8958TIP3    H126838   0.283   0.190   0.136 -0.0048  0.1612 -0.3999
 8958TIP3    H226839   0.224   0.086   0.043  1.5988 -0.7676 -0.4136
 8959TIP3   OH226840   4.735   6.486   3.039  0.4411  0.5545  0.0800
 8959TIP3    H126841   4.642   6.477   3.058  0.3019  1.2586 -0.2291
 8959TIP3    H226842   4.769   6.542   3.110  0.2458  1.8257 -0.7898
 8960TIP3   OH226843   6.461   3.587   0.084 -0.1888 -0.0955 -0.6736
 8960TIP3    H126844   6.514   3.638   0.145 -1.8048  1.8618 -0.8200
 8960TIP3    H226845   6.525   3.545   0.026  1.3045 -0.5986  1.2494
 8961TIP3   OH226846   6.399   6.104   3.175  0.2524 -0.1584  0.0391
 8961TIP3    H126847   6.360   6.057   3.101 -1.5839 -1.0682  1.4664
 8961TIP3    H226848   6.451   6.038   3.220  0.3204  0.0380  0.2493
 8962TIP3   OH226849   0.214   5.513   1.035  0.3361  0.1325  0.2484
 8962TIP3    H126850   0.304   5.491   1.010  0.7358 -0.2454  1.8610
 8962TIP3    H226851   0.223   5.592   1.089 -0.0050 -1.0283  2.1245
 8963TIP3   OH226852   0.560   6.023   1.323  0.3040 -0.0887 -0.0595
 8963TIP3    H126853   0.607   5.957   1.375 -0.0031 -0.0298  0.3013
 8963TIP3    H226854   0.601   6.106   1.348 -0.3007  0.0162  0.6193
 8964TIP3   OH226855   7.165   6.429   2.138 -0.1430  0.4139  0.6668
 8964TIP3    H126856   7.188   6.479   2.060 -1.0296  1.9967  1.3693
 8964TIP3    H226857   7.148   6.340   2.106  2.4274  0.2551 -0.4795
 8965TIP3   OH226858   3.162   1.741   4.933  0.1066 -0.4636 -0.0854
 8965TIP3    H126859   3.257   1.752   4.926 -0.1082  1.3500 -0.7084
 8965TIP3    H226860   3.140   1.776   5.019 -0.0413 -0.6329 -0.0529
 8966TIP3   OH226861   5.757   3.878   5.175 -0.3952 -0.0563  0.3224
 8966TIP3    H126862   5.842   3.914   5.201 -1.0606  0.0027  2.6936
 8966TIP3    H226863   5.703   3.885   5.254 -2.8159  0.4425 -1.2577
 8967TIP3   OH226864   0.281   2.146   3.303  0.7435 -0.5941 -0.0031
 8967TIP3    H126865   0.221   2.192   3.362  1.3642  0.7240 -0.3762
 8967TIP3    H226866   0.324   2.215   3.254  1.3915 -1.6073 -0.8955
 8968TIP3   OH226867   4.760   2.856   2.752  0.1769 -0.1627  0.2239
 8968TIP3    H126868   4.751   2.943   2.791  0.8002 -0.3196  0.7260
 8968TIP3    H226869   4.842   2.822   2.787 -0.5890 -1.3946  0.8626
 8969TIP3   OH226870   0.383   3.554   0.963  0.2684  0.3571  0.0384
 8969TIP3    H126871   0.337   3.557   0.879 -2.3248  0.5273  1.3618
 8969TIP3    H226872   0.334   3.614   1.019  2.3733  0.8126  1.5091
 8970TIP3   OH226873   6.803   3.789   0.510 -0.2796  0.2964  0.0937
 8970TIP3    H126874   6.831   3.875   0.479  1.4166 -0.2085  0.1260
 8970TIP3    H226875   6.708   3.795   0.514 -0.2121  2.1230 -0.0366
 8971TIP3   OH226876   5.068   1.152   2.473  0.3903 -0.1340 -0.8596
 8971TIP3    H126877   5.062   1.101   2.392 -1.7140 -0.0959 -0.7676
 8971TIP3    H226878   5.117   1.231   2.447  2.2458 -1.3742 -1.3774
 8972TIP3   OH226879   3.765   5.607   2.600  0.1920 -0.4345 -0.8072
 8972TIP3    H126880   3.763   5.595   2.695 -2.5963 -0.6678 -0.8021
 8972TIP3    H226881   3.803   5.694   2.588  1.6362 -0.8571  0.4316
 8973TIP3   OH226882   1.538   3.545   5.528  0.1085  0.0836 -0.0630
 8973TIP3    H126883   1.578   3.591   5.454  0.6907  0.1604  0.2944
 8973TIP3    H226884   1.608   3.491   5.564 -0.1026  0.2291  0.5837
 8974TIP3   OH226885   4.768   2.387   3.395  0.5735 -0.0470  0.6494
 8974TIP3    H126886   4.831   2.380   3.323  0.1092 -1.4886  0.3475
 8974TIP3    H226887   4.686   2.355   3.358  0.4046 -1.1504  1.9051
 8975TIP3   OH226888   6.191   0.849   2.458  0.1249  0.1828 -0.4549
 8975TIP3    H126889   6.164   0.827   2.548 -1.4453 -1.4941 -1.2710
 8975TIP3    H226890   6.285   0.831   2.456  0.5555  1.8899  1.2803
 8976TIP3   OH226891   2.596   2.151   3.222  0.1411 -0.2692 -0.5107
 8976TIP3    H126892   2.569   2.142   3.130  3.3338  0.1317 -1.6158
 8976TIP3    H226893   2.615   2.244   3.232 -0.4865 -0.2570  0.6864
 8977TIP3   OH226894   0.052   5.073   1.021  0.0755 -0.1762 -0.0246
 8977TIP3    H126895   0.040   5.000   0.961  0.7493  1.0178 -1.6748
 8977TIP3    H226896  -0.033   5.084   1.064 -0.7545 -0.3683 -1.5637
 8978TIP3   OH226897   1.692   5.126   4.366  0.5702 -0.0115  0.1910
 8978TIP3    H126898   1.711   5.209   4.323  0.4152  0.5996  1.2749
 8978TIP3    H226899   1.598   5.113   4.352  0.7815 -0.5381 -0.8623
 8979TIP3   OH226900   5.030   0.998   3.251 -0.0733  0.2702 -0.2838
 8979TIP3    H126901   5.122   1.001   3.278 -0.2257 -0.4328  0.3471
 8979TIP3    H226902   5.003   1.090   3.248  0.1727  0.4210  1.2625
 8980TIP3   OH226903   3.181   2.902   3.008 -0.3537 -0.2169  0.6875
 8980TIP3    H126904   3.111   2.965   3.023 -1.0175 -0.5415 -0.9296
 8980TIP3    H226905   3.138   2.825   2.972  0.5538 -1.3303  1.8422
 8981TIP3   OH226906   0.299   2.016   1.750  0.2531  0.1229  0.2109
 8981TIP3    H126907   0.230   1.962   1.712 -0.3909  0.1618  1.2822
 8981TIP3    H226908   0.356   1.955   1.796  0.6167  0.1600 -0.1749
 8982TIP3   OH226909   7.120   2.695   4.050 -0.3774  0.1292 -0.1166
 8982TIP3    H126910   7.059   2.626   4.025  0.2884 -0.4555 -0.1571
 8982TIP3    H226911   7.069   2.775   4.045 -0.9198 -0.2571 -0.9396
 8983TIP3   OH226912   2.444   6.161   5.528  0.2976  0.7706 -0.7214
 8983TIP3    H126913   2.402   6.173   5.443 -2.5182  1.3147  0.6449
 8983TIP3    H226914   2.494   6.080   5.518  0.2233  0.9239 -2.9328
 8984TIP3   OH226915   4.129   3.274   2.747  0.7230 -0.4583 -0.6271
 8984TIP3    H126916   4.216   3.265   2.785  0.5274  0.0034 -0.0524
 8984TIP3    H226917   4.075   3.212   2.796  0.6355 -0.4432 -0.7037
 8985TIP3   OH226918   6.175   6.674   3.485  0.4029 -0.3690  0.0796
 8985TIP3    H126919   6.216   6.590   3.504  1.2107  0.1313  0.6129
 8985TIP3    H226920   6.247   6.737   3.486 -0.1390  0.2894 -0.6423
 8986TIP3   OH226921   6.532   6.524   2.802 -0.3416 -0.1499 -0.5234
 8986TIP3    H126922   6.497   6.538   2.714 -0.5951 -1.0386 -0.5724
 8986TIP3    H226923   6.557   6.612   2.832 -0.8848  0.2537 -1.2122
 8987TIP3   OH226924   4.345   6.335   0.901  0.2673  0.1168  0.5224
 8987TIP3    H126925   4.325   6.303   0.989 -1.4941 -3.3756 -0.9516
 8987TIP3    H226926   4.267   6.386   0.877  0.5400  0.6604  0.7614
 8988TIP3   OH226927   4.632   0.621   0.036 -0.3832 -0.2344  0.4359
 8988TIP3    H126928   4.650   0.709   0.067  1.1784 -0.5528  0.5323
 8988TIP3    H226929   4.706   0.601  -0.023 -1.1237 -1.1742 -0.2057
 8989TIP3   OH226930   3.573   0.738   1.342  0.2627  0.1323 -0.1227
 8989TIP3    H126931   3.639   0.774   1.281  0.4422  0.0788  0.0403
 8989TIP3    H226932   3.506   0.700   1.285  0.1722  0.5452 -0.2962
 8990TIP3   OH226933   4.686   5.932   5.334  0.0952  0.3458  0.3380
 8990TIP3    H126934   4.703   5.984   5.255 -0.8807  0.1438 -0.0150
 8990TIP3    H226935   4.657   5.997   5.398  0.8069  0.4994  0.5111
 8991TIP3   OH226936   6.848   6.118   1.778 -0.0400  0.1461  0.9519
 8991TIP3    H126937   6.940   6.095   1.790  0.0786  0.2759  0.3261
 8991TIP3    H226938   6.813   6.052   1.718 -0.1052  0.6516  0.4262
 8992TIP3   OH226939   1.838   3.274   2.985  0.1066 -0.1580  1.0756
 8992TIP3    H126940   1.878   3.238   2.905  2.3104  0.6218  1.7428
 8992TIP3    H226941   1.898   3.247   3.055 -1.0647  0.3164  2.2945
 8993TIP3   OH226942   6.429   6.506   5.209  0.2312  0.3218  0.0780
 8993TIP3    H126943   6.443   6.433   5.148 -0.2863  0.0581  0.2658
 8993TIP3    H226944   6.413   6.581   5.153 -0.1148  0.1063 -0.1158
 8994TIP3   OH226945   5.780   6.548   0.747  0.2038  0.4461  0.2314
 8994TIP3    H126946   5.858   6.590   0.782  1.7489 -0.4949 -1.8603
 8994TIP3    H226947   5.748   6.609   0.681  1.6234 -0.8761 -1.7933
 8995TIP3   OH226948   2.712   1.001   4.818  0.2925 -0.2664  0.6008
 8995TIP3    H126949   2.774   0.930   4.834 -0.2616 -1.1571 -0.9980
 8995TIP3    H226950   2.701   1.043   4.904  0.8322 -1.9423  1.5329
 8996TIP3   OH226951   1.852   2.180   0.043 -0.5101 -0.2883  0.5117
 8996TIP3    H126952   1.771   2.164  -0.006 -2.0418 -0.0224  2.7708
 8996TIP3    H226953   1.908   2.228  -0.018 -1.2504 -2.1389 -1.7705
 8997TIP3   OH226954   6.681   0.305   2.797 -0.1678  0.4570 -0.2229
 8997TIP3    H126955   6.588   0.283   2.793  0.5411 -2.8722 -0.8850
 8997TIP3    H226956   6.696   0.359   2.719 -1.2473 -0.2919 -0.9819
 8998TIP3   OH226957   4.832   5.415   0.054 -0.1327  0.1482  0.3524
 8998TIP3    H126958   4.762   5.441   0.113  0.4412 -1.6291  1.9076
 8998TIP3    H226959   4.859   5.328   0.085  1.6395  0.0721 -1.2162
 8999TIP3   OH226960   0.378   5.374   3.048  0.1058 -0.2043  0.6659
 8999TIP3    H126961   0.389   5.468   3.058  0.1993 -0.0933 -0.3735
 8999TIP3    H226962   0.298   5.354   3.097  0.1881  0.3776  1.0455
 9000TIP3   OH226963   4.397   3.253   5.059 -0.3224 -0.5016  0.3222
 9000TIP3    H126964   4.366   3.162   5.056  1.9627 -1.3035 -1.1697
 9000TIP3    H226965   4.397   3.281   4.968 -2.8581  1.7845  0.8720
 9001TIP3   OH226966   3.716   4.818   1.546  0.5161 -0.0004 -0.2550
 9001TIP3    H126967   3.662   4.828   1.623 -0.2777  0.3799 -0.8475
 9001TIP3    H226968   3.745   4.727   1.549  0.0513 -0.1369  0.2052
 9002TIP3   OH226969   4.169   1.581   2.777  0.2196  0.0176  0.1015
 9002TIP3    H126970   4.137   1.659   2.823 -1.1598 -0.9190  0.8091
 9002TIP3    H226971   4.196   1.521   2.846 -0.5118 -0.8493 -0.3364
 9003TIP3   OH226972   2.390   3.287   1.325 -0.5454 -0.0285 -0.1180
 9003TIP3    H126973   2.483   3.306   1.335 -0.3008 -1.4599  0.6485
 9003TIP3    H226974   2.379   3.271   1.231  0.1951 -0.8410 -0.0755
 9004TIP3   OH226975   0.561   1.188   3.966  0.5346 -0.5165 -0.2870
 9004TIP3    H126976   0.535   1.230   4.048  1.5208 -1.3624  0.4878
 9004TIP3    H226977   0.500   1.115   3.957  0.0217 -0.0492 -0.6480
 9005TIP3   OH226978   1.716   1.633   0.270 -0.2346  0.2472  0.3842
 9005TIP3    H126979   1.722   1.605   0.178 -0.8358 -0.3689  0.5259
 9005TIP3    H226980   1.670   1.716   0.266 -1.5672 -0.4685  0.2243
 9006TIP3   OH226981   2.464   0.061   2.684  0.1911 -0.0717  0.2635
 9006TIP3    H126982   2.387   0.066   2.741 -0.3524 -1.3345 -0.3237
 9006TIP3    H226983   2.442   0.115   2.608 -0.2663 -0.7057 -0.0610
 9007TIP3   OH226984   0.708   2.189   1.643  0.0701 -0.0463 -0.4797
 9007TIP3    H126985   0.694   2.233   1.727 -0.3063  0.0446 -0.5871
 9007TIP3    H226986   0.708   2.096   1.664  1.2194  0.0108 -0.1986
 9008TIP3   OH226987   1.263   6.236   4.284  0.0585  0.6068 -0.1988
 9008TIP3    H126988   1.233   6.236   4.193  1.0445 -1.2677 -0.5710
 9008TIP3    H226989   1.217   6.163   4.324 -0.4879  1.5183  0.8833
 9009TIP3   OH226990   6.012   4.830   0.415  0.2056  0.1354  0.0086
 9009TIP3    H126991   6.080   4.843   0.350 -1.7896  1.0460 -2.0283
 9009TIP3    H226992   6.004   4.914   0.460 -2.3664  1.5087 -2.7208
 9010TIP3   OH226993   0.078   2.821   1.541 -0.8904 -0.0797  0.3762
 9010TIP3    H126994   0.160   2.785   1.574  0.1285  2.9291  1.4781
 9010TIP3    H226995   0.021   2.826   1.618 -0.2855  2.3484  0.7502
 9011TIP3   OH226996   1.583   4.579   3.121  0.4051  0.2025 -0.4184
 9011TIP3    H126997   1.635   4.653   3.153  0.2541 -0.4436  1.3887
 9011TIP3    H226998   1.508   4.620   3.078  0.5985  1.1131  0.0739
 9012TIP3   OH226999   0.195   4.303   5.706  0.4776  0.8861  0.3336
 9012TIP3    H127000   0.167   4.302   5.614 -1.8374  0.4903  1.0018
 9012TIP3    H227001   0.242   4.220   5.716  0.0556  0.5642 -0.2778
 9013TIP3   OH227002   1.803   3.891   1.552 -0.4369  0.2419  0.3005
 9013TIP3    H127003   1.797   3.953   1.625 -2.0075  0.2105  0.2332
 9013TIP3    H227004   1.883   3.842   1.569 -0.5857  0.4738  1.8362
 9014TIP3   OH227005   1.639   1.817   2.545  0.1803 -0.3169 -0.3156
 9014TIP3    H127006   1.596   1.855   2.622 -1.4439 -1.0293 -0.8248
 9014TIP3    H227007   1.648   1.724   2.565  2.4549 -0.0491  0.1734
 9015TIP3   OH227008   3.762   3.469   3.460 -0.1862 -0.3478 -0.3740
 9015TIP3    H127009   3.853   3.489   3.482  0.1869 -1.5653 -0.7346
 9015TIP3    H227010   3.716   3.552   3.473  0.9501  0.2692 -0.0982
 9016TIP3   OH227011   2.115   1.050   2.574 -0.2036  0.0134  0.3064
 9016TIP3    H127012   2.124   1.120   2.509  0.6910 -0.8177 -0.5050
 9016TIP3    H227013   2.191   1.060   2.631  0.2384 -0.6074 -0.1504
 9017TIP3   OH227014   0.766   5.963   0.273  0.4185  0.5647 -0.4328
 9017TIP3    H127015   0.722   5.878   0.261  0.8798  0.2064  0.3015
 9017TIP3    H227016   0.788   5.991   0.185 -1.9161  1.1137 -0.9028
 9018TIP3   OH227017   5.898   3.123   4.135 -0.4225  0.0365 -0.0416
 9018TIP3    H127018   5.912   3.087   4.222 -0.8796  0.8000  0.3570
 9018TIP3    H227019   5.935   3.057   4.075 -1.0398 -0.9759  0.6653
 9019TIP3   OH227020   5.186   5.641   3.986  0.3764  0.1731  0.3505
 9019TIP3    H127021   5.108   5.606   4.029  1.0840 -1.9550  0.0240
 9019TIP3    H227022   5.162   5.730   3.962 -2.2076 -0.6360 -0.3776
 9020TIP3   OH227023   4.470   2.860   2.694  0.0890  0.3078 -0.3302
 9020TIP3    H127024   4.446   2.874   2.785 -0.0213 -0.4686 -0.2362
 9020TIP3    H227025   4.559   2.895   2.687  1.3102 -2.2963  0.8295
 9021TIP3   OH227026   2.555   2.735   4.476 -0.1706  0.1683  0.8994
 9021TIP3    H127027   2.554   2.640   4.488  2.4118  0.1585  1.6671
 9021TIP3    H227028   2.573   2.748   4.383 -0.4345 -0.1052  0.8114
 9022TIP3   OH227029   2.766   3.997   0.323 -0.0977 -0.4056 -0.2958
 9022TIP3    H127030   2.678   3.977   0.355 -1.3339  2.1827 -1.7265
 9022TIP3    H227031   2.790   4.078   0.368  0.4724  0.2419 -1.6804
 9023TIP3   OH227032   4.098   5.753   4.714  0.9905 -0.2792 -0.4264
 9023TIP3    H127033   4.042   5.706   4.777  1.1574 -0.0145 -0.0763
 9023TIP3    H227034   4.170   5.787   4.768  1.2324 -0.2075 -0.7950
 9024TIP3   OH227035   1.348   1.296   3.428  0.2070 -0.1999  0.2377
 9024TIP3    H127036   1.371   1.344   3.507 -0.6042 -0.9077  0.9346
 9024TIP3    H227037   1.421   1.236   3.415  1.5568  1.6280 -1.0357
 9025TIP3   OH227038   3.553   3.619   2.490  0.1514  0.5215 -0.1716
 9025TIP3    H127039   3.520   3.537   2.455 -1.4101  1.0697 -0.0898
 9025TIP3    H227040   3.533   3.616   2.584 -0.5535  1.2658 -0.2853
 9026TIP3   OH227041   3.680   2.806   0.964 -0.0778 -0.9951  0.0764
 9026TIP3    H127042   3.713   2.716   0.963 -0.0744 -1.0130 -1.8291
 9026TIP3    H227043   3.706   2.842   0.879 -1.2300  0.3810  0.2702
 9027TIP3   OH227044   7.226   4.393   2.741  0.1076  0.0375 -0.2637
 9027TIP3    H127045   7.163   4.353   2.680  2.2178 -1.3291 -1.7093
 9027TIP3    H227046   7.235   4.483   2.710  1.7167 -0.8261 -2.6250
 9028TIP3   OH227047   1.549   5.837   3.693 -0.5124 -0.0730 -0.6446
 9028TIP3    H127048   1.594   5.909   3.736 -0.8071 -0.1541 -0.1978
 9028TIP3    H227049   1.497   5.879   3.624 -0.2076  0.0746 -0.7880
 9029TIP3   OH227050   2.238   0.035   2.845 -0.0736  0.3803  0.4027
 9029TIP3    H127051   2.266  -0.015   2.922  0.5446 -0.3592 -0.2829
 9029TIP3    H227052   2.200   0.115   2.881  3.4741  1.7907  1.4263
 9030TIP3   OH227053   5.137   0.201   5.018  0.7839  0.4217 -0.0907
 9030TIP3    H127054   5.101   0.192   5.106 -1.1246  2.5166 -0.5591
 9030TIP3    H227055   5.099   0.128   4.969 -0.2077  0.6917  0.2516
 9031TIP3   OH227056   0.688   0.139   0.543  0.4332  0.3058 -0.4048
 9031TIP3    H127057   0.605   0.153   0.588 -0.1154  0.1139 -1.3333
 9031TIP3    H227058   0.700   0.217   0.488  1.2272  0.6638  0.2493
 9032TIP3   OH227059   1.964   3.464   1.584  0.0424  0.2841  0.2777
 9032TIP3    H127060   2.035   3.465   1.521  0.7663  1.5091  1.0565
 9032TIP3    H227061   1.949   3.372   1.603  1.2081 -0.0028 -0.1295
 9033TIP3   OH227062   5.639   5.353   2.207 -0.6785 -0.1556  0.2745
 9033TIP3    H127063   5.562   5.300   2.189 -1.0693  0.5499 -0.1427
 9033TIP3    H227064   5.613   5.410   2.280 -0.2499 -0.5403  0.7437
 9034TIP3   OH227065   4.005   4.058   5.366  0.4311 -0.2723  0.1445
 9034TIP3    H127066   4.015   4.123   5.435 -0.1984  0.7032 -0.6643
 9034TIP3    H227067   4.057   4.092   5.293  1.3684 -1.4580  0.2185
 9035TIP3   OH227068   5.805   0.356   4.722 -0.3091  0.0636  0.0640
 9035TIP3    H127069   5.797   0.395   4.810  1.4969 -0.0311  0.2950
 9035TIP3    H227070   5.871   0.410   4.678 -1.2104  0.1232 -1.2778
 9036TIP3   OH227071   4.671   1.418   0.322 -0.0774  0.1771  0.0642
 9036TIP3    H127072   4.691   1.408   0.229 -1.4382 -0.9630 -0.1352
 9036TIP3    H227073   4.618   1.342   0.343  0.0352  0.5347  1.7370
 9037TIP3   OH227074   6.465   1.826   1.774  0.2477 -0.8823 -0.0192
 9037TIP3    H127075   6.538   1.829   1.712 -0.2289  0.5514 -0.5743
 9037TIP3    H227076   6.496   1.771   1.846  1.4085 -1.2907 -0.8031
 9038TIP3   OH227077   2.416   2.961   5.053 -0.1253  0.7417 -0.0692
 9038TIP3    H127078   2.422   3.052   5.081 -1.2473  0.8068 -0.0099
 9038TIP3    H227079   2.504   2.940   5.022  0.3328  1.6184  0.5944
 9039TIP3   OH227080   1.491   3.680   1.718 -0.0964 -0.1447 -0.5768
 9039TIP3    H127081   1.560   3.647   1.660  0.0029 -1.8471  0.4334
 9039TIP3    H227082   1.421   3.615   1.711 -0.3009 -0.0989  0.7696
 9040TIP3   OH227083   3.358   1.969   2.200  0.0905 -0.2750  0.4112
 9040TIP3    H127084   3.354   1.875   2.221  0.4507 -0.2567  0.5650
 9040TIP3    H227085   3.274   1.987   2.159  0.6989 -1.0835 -1.2972
 9041TIP3   OH227086   0.569   3.609   4.491 -0.2069  0.1459  0.3357
 9041TIP3    H127087   0.532   3.692   4.521 -0.6247  0.1378 -0.1457
 9041TIP3    H227088   0.635   3.587   4.557 -0.9614  0.2326  1.1466
 9042TIP3   OH227089   2.253   3.527   5.460 -0.5646  0.1641  0.1799
 9042TIP3    H127090   2.218   3.580   5.389 -2.6747  0.3345  1.2522
 9042TIP3    H227091   2.215   3.566   5.539 -0.3757 -1.5829  1.1758
 9043TIP3   OH227092   5.057   6.432   5.001 -0.0151  0.0790  0.5834
 9043TIP3    H127093   5.096   6.399   4.920  0.2187 -1.3107  1.2245
 9043TIP3    H227094   4.977   6.381   5.012 -0.8468  1.3172  0.4699
 9044TIP3   OH227095   2.841   2.452   2.242  0.3466  0.4298 -0.2959
 9044TIP3    H127096   2.922   2.458   2.190  0.2425  0.9030 -0.4093
 9044TIP3    H227097   2.805   2.541   2.240  1.1591  0.8852  1.9265
 9045TIP3   OH227098   6.247   2.776   3.861  0.3999  0.0115 -0.4329
 9045TIP3    H127099   6.160   2.761   3.825  0.6251  0.0302 -0.9856
 9045TIP3    H227100   6.268   2.866   3.837  1.3491 -0.5826 -1.9642
 9046TIP3   OH227101   6.685   3.820   2.647 -0.2019  0.0014 -0.0024
 9046TIP3    H127102   6.747   3.852   2.712  0.2965  1.1348 -0.9873
 9046TIP3    H227103   6.629   3.896   2.628 -0.3395 -0.3013 -0.8743
 9047TIP3   OH227104   1.193   5.613   3.287 -0.0660  0.4504  0.1418
 9047TIP3    H127105   1.277   5.630   3.244  0.4362  0.1832  0.9762
 9047TIP3    H227106   1.192   5.672   3.362  0.6840 -1.4721  1.7682
 9048TIP3   OH227107   0.524   5.033   2.860 -0.0969 -0.1487 -0.7097
 9048TIP3    H127108   0.584   4.972   2.904 -0.3996  1.1078  1.6265
 9048TIP3    H227109   0.443   4.983   2.850 -0.1843 -0.3504  0.7138
 9049TIP3   OH227110   3.925   3.674   0.884  0.2766  0.2033 -0.1630
 9049TIP3    H127111   3.899   3.686   0.793  0.4590  1.4937 -0.0637
 9049TIP3    H227112   3.913   3.581   0.900  1.3911 -0.2721 -1.8583
 9050TIP3   OH227113   6.851   2.251   5.747 -0.0015 -0.0894  0.0268
 9050TIP3    H127114   6.766   2.227   5.709  0.3821 -0.4751 -0.6162
 9050TIP3    H227115   6.914   2.233   5.677  0.4434  1.7404 -0.0763
 9051TIP3   OH227116   6.302   4.635   4.034 -0.2485  0.4884 -0.2730
 9051TIP3    H127117   6.250   4.556   4.050 -0.2592  0.5889  0.2106
 9051TIP3    H227118   6.334   4.625   3.945  0.0964 -0.2671 -0.0720
 9052TIP3   OH227119   0.218   2.746   0.866 -0.1454 -0.0808  0.1823
 9052TIP3    H127120   0.293   2.756   0.807 -0.3396  1.7069  0.2007
 9052TIP3    H227121   0.144   2.730   0.809 -0.2285  1.0443 -0.0436
 9053TIP3   OH227122   6.931   2.487   5.032 -0.0603  0.3550  0.0526
 9053TIP3    H127123   7.016   2.517   5.063 -0.4602  1.4812  0.1001
 9053TIP3    H227124   6.934   2.500   4.937  0.1409 -0.4777 -0.0704
 9054TIP3   OH227125   0.962   0.962   3.037  0.5296 -0.0591 -0.7194
 9054TIP3    H127126   0.899   0.941   3.105  1.7996  2.0507  1.2812
 9054TIP3    H227127   1.036   0.903   3.053  0.4630 -0.1886 -0.8799
 9055TIP3   OH227128   2.816   0.698   5.147 -0.6106  0.0221 -0.2710
 9055TIP3    H127129   2.853   0.713   5.060  0.1831  0.8387  0.1901
 9055TIP3    H227130   2.761   0.775   5.162 -1.7567 -0.7194 -0.5519
 9056TIP3   OH227131   4.688   4.014   2.423 -0.2560  0.5966  0.1094
 9056TIP3    H127132   4.762   3.953   2.423 -0.3687  0.4550  0.9709
 9056TIP3    H227133   4.638   3.993   2.502  0.3670  2.5997  1.1225
 9057TIP3   OH227134   6.482   4.443   3.149  0.0691  0.4715  0.2713
 9057TIP3    H127135   6.567   4.482   3.168  0.3283 -0.0205  0.1543
 9057TIP3    H227136   6.470   4.376   3.216 -1.4178  2.2384  1.9000
 9058TIP3   OH227137   4.461   5.416   2.126  0.5132  0.0677  0.5178
 9058TIP3    H127138   4.457   5.356   2.201  1.8066  0.1480  0.6884
 9058TIP3    H227139   4.463   5.358   2.050 -2.2937  0.0041  0.3876
 9059TIP3   OH227140   4.117   0.144   4.839 -0.6117 -0.6506 -0.0240
 9059TIP3    H127141   4.174   0.190   4.901 -0.8973 -1.7683  1.0980
 9059TIP3    H227142   4.061   0.089   4.894 -1.1742 -1.3464 -1.2530
 9060TIP3   OH227143   5.824   2.880   5.699  0.0540  0.2990  0.5226
 9060TIP3    H127144   5.786   2.887   5.611 -1.6097 -0.8347  1.1047
 9060TIP3    H227145   5.820   2.969   5.734  0.9716  0.8222 -0.6078
 9061TIP3   OH227146   6.183   2.330   0.762 -0.3975 -0.1385 -0.2535
 9061TIP3    H127147   6.262   2.297   0.721 -0.2778  0.8382 -0.8518
 9061TIP3    H227148   6.198   2.424   0.771 -1.4856  0.0678 -0.3926
 9062TIP3   OH227149   6.612   5.899   3.232 -0.0433 -0.1041 -0.1156
 9062TIP3    H127150   6.661   5.958   3.288 -0.5948  1.1723 -0.9276
 9062TIP3    H227151   6.677   5.862   3.173  0.0764  1.0373 -0.7259
 9063TIP3   OH227152   6.589   5.129   3.223  0.0286 -0.3082 -0.0046
 9063TIP3    H127153   6.653   5.065   3.252 -0.3298 -0.0030  1.5447
 9063TIP3    H227154   6.631   5.214   3.239 -0.7169 -0.1094  0.9530
 9064TIP3   OH227155   1.471   0.199   1.029  0.0825 -1.0208  0.3931
 9064TIP3    H127156   1.434   0.159   0.950  0.8015  0.5309 -0.7809
 9064TIP3    H227157   1.562   0.168   1.031  0.6315  0.4777 -0.5014
 9065TIP3   OH227158   7.056   5.295   5.836  0.0705  0.1370 -0.2112
 9065TIP3    H127159   7.135   5.294   5.781  0.7869 -3.2940  0.6274
 9065TIP3    H227160   6.990   5.336   5.781  1.5260 -0.3193 -2.4721
 9066TIP3   OH227161   5.224   6.301   4.286  0.1993 -0.4117  0.2284
 9066TIP3    H127162   5.159   6.348   4.338  0.1735  0.9143 -0.9196
 9066TIP3    H227163   5.246   6.362   4.215 -0.4929 -2.4621 -1.8703
 9067TIP3   OH227164   7.079   6.666   4.602  0.2784  0.2390  0.2375
 9067TIP3    H127165   7.161   6.708   4.575  0.9421 -0.7673  0.6355
 9067TIP3    H227166   7.015   6.696   4.538  1.0045  0.8727 -0.2126
 9068TIP3   OH227167   3.463   3.824   4.639  0.5143 -0.6833  0.1194
 9068TIP3    H127168   3.425   3.874   4.567  1.2901  1.2253  0.9590
 9068TIP3    H227169   3.402   3.751   4.653 -0.0629 -0.6447 -1.9012
 9069TIP3   OH227170   0.051   3.268   1.867  0.0044  0.3940 -0.4055
 9069TIP3    H127171   0.099   3.334   1.918  0.0490 -0.6090  0.9276
 9069TIP3    H227172  -0.001   3.221   1.932  0.1661 -1.0398 -1.2647
 9070TIP3   OH227173   4.484   0.071   2.917 -0.4095  0.5947 -0.4734
 9070TIP3    H127174   4.490   0.026   3.001 -2.9416  1.1705  0.0774
 9070TIP3    H227175   4.461   0.003   2.854  1.3116  0.1962 -0.7234
 9071TIP3   OH227176   6.170   6.409   5.635 -0.1874  0.5012 -0.0679
 9071TIP3    H127177   6.107   6.342   5.609 -1.0112  0.2589  2.2559
 9071TIP3    H227178   6.178   6.466   5.559  0.6304 -2.2466 -2.1675
 9072TIP3   OH227179   4.334   3.724   2.318 -0.4542  0.3849  0.3357
 9072TIP3    H127180   4.239   3.732   2.309 -0.5329 -0.6185  0.1820
 9072TIP3    H227181   4.368   3.808   2.287 -1.2362  0.4348 -0.4164
 9073TIP3   OH227182   7.031   1.979   1.142 -0.3629  0.2575 -0.4939
 9073TIP3    H127183   7.086   1.902   1.125 -0.5025  0.0919 -0.2240
 9073TIP3    H227184   6.972   1.950   1.213 -1.8728 -0.1052 -1.8336
 9074TIP3   OH227185   5.913   4.998   3.762 -0.1097  0.1394  0.2991
 9074TIP3    H127186   5.942   4.957   3.680  0.5310  0.7684  0.2006
 9074TIP3    H227187   5.862   4.930   3.806 -1.1938  0.0541 -1.0130
 9075TIP3   OH227188   2.445   0.345   4.841  0.3325 -0.0311 -0.3886
 9075TIP3    H127189   2.415   0.292   4.767 -0.6283 -0.9767  0.6301
 9075TIP3    H227190   2.396   0.310   4.916  2.3138 -0.0738  0.9567
 9076TIP3   OH227191   0.405   0.089   3.999 -0.6276  0.7020  0.1237
 9076TIP3    H127192   0.369   0.142   3.928  0.0753  0.2704 -0.5798
 9076TIP3    H227193   0.486   0.053   3.963 -2.6784 -3.6859 -0.7704
 9077TIP3   OH227194   2.624   1.027   0.573 -0.3447 -1.2118 -0.0847
 9077TIP3    H127195   2.544   1.079   0.566  0.1903 -0.4370 -0.6634
 9077TIP3    H227196   2.651   1.012   0.483  0.2264 -1.3516  0.1014
 9078TIP3   OH227197   3.352   2.172   5.235 -0.4063 -0.4266 -0.0116
 9078TIP3    H127198   3.332   2.264   5.220  0.9991 -0.3554 -1.7716
 9078TIP3    H227199   3.304   2.149   5.315 -1.2190  1.6634  0.1453
 9079TIP3   OH227200   0.514   2.692   0.016 -0.3382  0.3118  0.4329
 9079TIP3    H127201   0.608   2.678   0.032 -0.0677 -1.9376 -2.3335
 9079TIP3    H227202   0.472   2.615   0.054 -0.9272  0.6365  0.4491
 9080TIP3   OH227203   3.721   5.724   1.531  0.5297  0.0183  0.2176
 9080TIP3    H127204   3.760   5.663   1.469 -2.5102 -2.2373  0.2785
 9080TIP3    H227205   3.720   5.677   1.614 -0.6316  0.6562  0.5935
 9081TIP3   OH227206   0.685   0.951   5.077  0.4116 -0.5742  0.2698
 9081TIP3    H127207   0.669   0.987   5.164  1.5469  4.0872 -1.2027
 9081TIP3    H227208   0.606   0.972   5.027  1.7968  1.7518 -1.0978
 9082TIP3   OH227209   4.010   2.653   3.769  0.5249 -0.0309  0.1253
 9082TIP3    H127210   3.963   2.725   3.728 -0.3790 -1.3910 -1.3430
 9082TIP3    H227211   3.947   2.581   3.771  2.1357 -1.5523 -0.7870
 9083TIP3   OH227212   3.496   3.510   2.731  0.1719  0.0789  0.2170
 9083TIP3    H127213   3.404   3.481   2.729 -0.2454  1.3743 -1.2322
 9083TIP3    H227214   3.547   3.429   2.722 -0.8887 -0.4538 -1.3365
 9084TIP3   OH227215   5.145   1.492   4.139  0.4598  0.3281  0.0397
 9084TIP3    H127216   5.082   1.427   4.170 -0.0959  1.9035  2.5486
 9084TIP3    H227217   5.203   1.444   4.081 -1.9862 -1.5861 -1.0104
 9085TIP3   OH227218   7.250   3.338   0.484 -0.0735  0.2240  0.5852
 9085TIP3    H127219   7.195   3.378   0.416 -2.0194 -1.1891  1.2357
 9085TIP3    H227220   7.195   3.338   0.562  1.8651  1.1641  2.0358
 9086TIP3   OH227221   6.193   0.844   1.496 -0.0417 -0.0858 -0.2977
 9086TIP3    H127222   6.246   0.861   1.418 -0.3463 -0.2667 -0.5405
 9086TIP3    H227223   6.244   0.884   1.567  0.9630 -1.1855 -0.3613
 9087TIP3   OH227224   4.022   3.721   0.487  0.8027  0.2941  0.3660
 9087TIP3    H127225   3.960   3.707   0.559 -0.2062 -1.2455 -0.7439
 9087TIP3    H227226   3.977   3.782   0.429  0.9343  0.2865  0.2570
 9088TIP3   OH227227   2.587   6.357   4.131  0.4062  0.1576 -0.2259
 9088TIP3    H127228   2.633   6.354   4.214  0.3707 -0.1064 -0.2132
 9088TIP3    H227229   2.550   6.269   4.121  1.4091 -0.1950 -1.0806
 9089TIP3   OH227230   1.437   6.446   3.703 -0.0470 -0.2260 -0.2665
 9089TIP3    H127231   1.422   6.399   3.621 -1.1695 -1.3094  0.5336
 9089TIP3    H227232   1.438   6.378   3.770  2.6563  0.4211  0.4861
 9090TIP3   OH227233   3.061   4.702   1.133  0.8539 -0.3768  0.0049
 9090TIP3    H127234   3.080   4.699   1.039 -0.5413 -0.4804 -0.2959
 9090TIP3    H227235   3.025   4.615   1.153 -2.6785  0.8676 -0.2891
 9091TIP3   OH227236   2.897   4.958   1.711 -0.1214 -0.4988 -0.0957
 9091TIP3    H127237   2.984   4.948   1.674 -0.5071  1.6664 -1.8190
 9091TIP3    H227238   2.908   5.019   1.784  0.0597 -1.8032  1.0086
 9092TIP3   OH227239   4.035   4.246   4.082 -0.6273  0.2702 -0.1777
 9092TIP3    H127240   4.020   4.154   4.102 -0.6037  0.3814  0.3429
 9092TIP3    H227241   3.984   4.294   4.147 -0.5770  0.6259 -0.3988
 9093TIP3   OH227242   3.857   1.364   3.334 -0.0565  0.1989 -0.7757
 9093TIP3    H127243   3.929   1.426   3.319 -0.9895  1.6459  0.3954
 9093TIP3    H227244   3.874   1.327   3.420  0.1292 -0.7079 -1.1875
 9094TIP3   OH227245   2.403   6.093   5.266  0.0771  0.3276  0.3079
 9094TIP3    H127246   2.320   6.133   5.242  1.1489  1.7974 -1.2272
 9094TIP3    H227247   2.384   5.999   5.274 -1.6394  0.5937 -0.3244
 9095TIP3   OH227248   4.860   3.503   0.300  0.0753 -0.3235  0.0256
 9095TIP3    H127249   4.887   3.450   0.224 -0.8716 -0.9932  0.1426
 9095TIP3    H227250   4.827   3.584   0.262 -1.8955 -1.2779 -0.4285
 9096TIP3   OH227251   0.342   1.321   2.968  0.6594  0.2470  0.6550
 9096TIP3    H127252   0.417   1.273   3.003  1.7409 -0.5164 -2.3783
 9096TIP3    H227253   0.298   1.357   3.045  2.1442 -2.1769  2.8030
 9097TIP3   OH227254   3.119   4.554   5.039 -0.4590  0.2726  0.2074
 9097TIP3    H127255   3.098   4.463   5.060 -0.4955  0.1527 -0.3209
 9097TIP3    H227256   3.034   4.597   5.031 -0.4986  0.0428 -0.8323
 9098TIP3   OH227257   2.818   2.807   2.907  0.2536 -0.3961  0.1137
 9098TIP3    H127258   2.905   2.774   2.888  0.6377  1.5052 -1.9216
 9098TIP3    H227259   2.831   2.901   2.923 -1.4942  0.1832 -1.4614
 9099TIP3   OH227260   5.132   3.691   2.988 -0.0586  0.6452  0.2131
 9099TIP3    H127261   5.226   3.674   2.987 -0.3148 -0.9953  0.1350
 9099TIP3    H227262   5.111   3.711   3.079  0.0718 -1.1421  0.6856
 9100TIP3   OH227263   7.092   3.250   4.706  0.1521  0.6795  0.1258
 9100TIP3    H127264   7.077   3.178   4.644 -1.0524  1.2914 -0.3185
 9100TIP3    H227265   7.187   3.265   4.702 -0.1054  2.4759 -3.6750
 9101TIP3   OH227266   3.531   6.179   3.971  0.0002  0.6737 -0.0878
 9101TIP3    H127267   3.492   6.098   4.004  0.1655 -0.4062 -2.3339
 9101TIP3    H227268   3.456   6.231   3.940 -0.0671  1.1873  0.9086
 9102TIP3   OH227269   0.179   4.665   3.101  0.0897  0.0543 -0.1494
 9102TIP3    H127270   0.211   4.727   3.036  1.8741 -1.5375 -0.9028
 9102TIP3    H227271   0.250   4.658   3.165 -1.9172  2.1459  2.5350
 9103TIP3   OH227272   2.307   6.620   0.273 -0.3112  0.1322  0.3947
 9103TIP3    H127273   2.240   6.563   0.235  0.7209 -2.0235  1.5740
 9103TIP3    H227274   2.276   6.709   0.256 -1.7079 -0.7392 -2.0915
 9104TIP3   OH227275   6.492   0.619   2.727  0.6255 -0.0311  0.5099
 9104TIP3    H127276   6.539   0.675   2.665 -0.7152 -0.6413 -1.1174
 9104TIP3    H227277   6.452   0.551   2.674 -0.8890 -0.3879  1.9941
 9105TIP3   OH227278   6.511   3.304   2.398  0.2312  0.3487 -0.2134
 9105TIP3    H127279   6.473   3.303   2.486  0.9712 -1.1403  0.1166
 9105TIP3    H227280   6.517   3.396   2.376 -2.0495  0.7198  0.3742
 9106TIP3   OH227281   5.351   0.202   2.033 -0.1463 -0.0387 -0.3157
 9106TIP3    H127282   5.436   0.245   2.027 -0.0492  0.1839  1.8132
 9106TIP3    H227283   5.370   0.113   2.060 -0.5599 -0.1357 -0.3306
 9107TIP3   OH227284   3.807   3.432   0.944 -0.2827 -0.3598  0.1106
 9107TIP3    H127285   3.851   3.365   0.891 -0.5374 -0.7044  0.3243
 9107TIP3    H227286   3.803   3.394   1.032  1.7284  0.9268  0.8276
 9108TIP3   OH227287   3.197   1.938   4.297  0.1200  0.3043 -0.2846
 9108TIP3    H127288   3.288   1.958   4.274  1.0974 -2.8552  0.3621
 9108TIP3    H227289   3.186   1.977   4.384  0.0363  2.6631 -1.2865
 9109TIP3   OH227290   6.177   6.604   3.903 -0.7181 -0.8825  0.5230
 9109TIP3    H127291   6.090   6.629   3.870 -0.2532  0.2429  0.1231
 9109TIP3    H227292   6.158   6.551   3.980 -1.7625  0.7149  1.4143
 9110TIP3   OH227293   6.252   4.177   1.660 -0.0761  0.6061 -0.9145
 9110TIP3    H127294   6.173   4.176   1.606  0.2687  1.0618 -1.4330
 9110TIP3    H227295   6.231   4.234   1.733  0.1007  1.5185 -1.5638
 9111TIP3   OH227296   2.370   2.376   3.380  0.4511 -0.1471  0.3373
 9111TIP3    H127297   2.405   2.415   3.300  0.3716  0.7917  0.7521
 9111TIP3    H227298   2.293   2.328   3.351  1.0255 -0.6989 -0.3046
 9112TIP3   OH227299   5.574   6.557   1.992  0.4079  0.4747  0.2107
 9112TIP3    H127300   5.497   6.599   1.953  1.4648  0.9096 -1.5130
 9112TIP3    H227301   5.580   6.472   1.948 -0.5587 -0.7341  2.2444
 9113TIP3   OH227302   6.928   0.500   3.422 -0.1422 -0.1955 -0.2997
 9113TIP3    H127303   6.848   0.510   3.370 -0.3265 -2.5447 -0.5714
 9113TIP3    H227304   6.992   0.462   3.361  0.3959 -0.7032  0.5531
 9114TIP3   OH227305   2.800   0.251   3.870  0.4713 -0.4505 -0.3642
 9114TIP3    H127306   2.862   0.233   3.941  2.0336  0.1390 -1.5259
 9114TIP3    H227307   2.809   0.177   3.811  1.8149  0.7046 -1.6841
 9115TIP3   OH227308   0.422   1.214   4.216  0.1377  0.6203 -0.5679
 9115TIP3    H127309   0.416   1.118   4.221 -1.9064  0.7190 -0.2192
 9115TIP3    H227310   0.359   1.245   4.281  0.8408  2.2199 -0.6131
 9116TIP3   OH227311   4.783   4.220   2.981  0.1654  0.0342  0.2357
 9116TIP3    H127312   4.746   4.138   3.013 -0.5084  0.9255  1.8776
 9116TIP3    H227313   4.777   4.214   2.886 -0.4587 -1.5406  0.3467
 9117TIP3   OH227314   4.123   6.710   3.232  0.1667 -0.9506  0.2553
 9117TIP3    H127315   4.177   6.685   3.306  0.5587 -2.2127 -0.4317
 9117TIP3    H227316   4.035   6.679   3.254  0.0325 -0.3000  0.6766
 9118TIP3   OH227317   6.012   4.065   4.627 -0.4156 -0.3000  0.0360
 9118TIP3    H127318   5.936   4.026   4.669 -0.7125  1.6265  1.4026
 9118TIP3    H227319   6.083   4.054   4.691  0.1823 -1.0204 -0.7300
 9119TIP3   OH227320   4.213   4.806   2.078  0.0964  0.3009  0.2843
 9119TIP3    H127321   4.184   4.892   2.107 -2.2464 -0.0062 -0.9771
 9119TIP3    H227322   4.233   4.817   1.985 -2.3102 -0.9035 -0.4544
 9120TIP3   OH227323   0.953   0.442   0.623 -0.6732 -0.3412  0.5990
 9120TIP3    H127324   0.871   0.439   0.574  1.1900 -3.0977 -2.8802
 9120TIP3    H227325   0.946   0.370   0.686 -0.3689 -1.8772 -1.0200
 9121TIP3   OH227326   1.806   1.443   4.952  0.1449  0.3394  0.0585
 9121TIP3    H127327   1.866   1.391   4.898  2.1775  1.8157  0.7657
 9121TIP3    H227328   1.795   1.525   4.903 -0.4021  0.5191  0.4787
 9122TIP3   OH227329   1.525   1.910   3.362 -0.5574  0.1775 -0.7285
 9122TIP3    H127330   1.484   1.952   3.286 -2.1753 -0.5753 -0.3249
 9122TIP3    H227331   1.470   1.833   3.379  0.7664 -0.6038  0.1705
 9123TIP3   OH227332   6.623   5.112   2.063 -0.4187 -0.0403 -0.2746
 9123TIP3    H127333   6.562   5.040   2.075 -0.2208 -0.1923 -0.1611
 9123TIP3    H227334   6.570   5.191   2.075 -0.4792 -0.1749  0.4049
 9124TIP3   OH227335   4.019   4.911   3.255 -0.1644  0.4478  0.3624
 9124TIP3    H127336   3.934   4.868   3.245 -0.0169  0.1160  0.5161
 9124TIP3    H227337   4.008   4.997   3.214 -0.0674 -0.2448 -1.1715
 9125TIP3   OH227338   3.142   2.410   5.290 -0.0217  0.1236  0.7106
 9125TIP3    H127339   3.234   2.435   5.287  0.0573  0.1046  2.2056
 9125TIP3    H227340   3.098   2.486   5.329 -0.8459  0.6037 -1.0451
 9126TIP3   OH227341   6.650   1.991   5.268 -0.6459  0.4437 -0.2165
 9126TIP3    H127342   6.572   2.012   5.217  0.2317  2.0981 -0.9597
 9126TIP3    H227343   6.716   2.054   5.238  1.5342 -1.9904 -0.9011
 9127TIP3   OH227344   6.806   2.515   3.379  0.1368 -0.0564  0.2661
 9127TIP3    H127345   6.900   2.526   3.370  0.6032 -2.4907  1.6004
 9127TIP3    H227346   6.787   2.534   3.471 -1.0230  2.1914 -0.3530
 9128TIP3   OH227347   6.355   3.227   2.919 -0.5147 -0.4307 -0.2219
 9128TIP3    H127348   6.448   3.241   2.903 -0.8314 -0.8685 -3.0877
 9128TIP3    H227349   6.351   3.177   3.000  1.4167  3.2966  2.4275
 9129TIP3   OH227350   5.315   1.944   4.282 -0.5035  0.3931  0.1383
 9129TIP3    H127351   5.231   1.911   4.249 -0.2698 -0.9756  0.8366
 9129TIP3    H227352   5.363   1.865   4.307  1.6654  1.0399 -1.7266
 9130TIP3   OH227353   2.697   2.054   5.794 -0.0570 -0.5382 -0.1642
 9130TIP3    H127354   2.753   2.129   5.813 -0.9902 -0.1640  1.2564
 9130TIP3    H227355   2.747   1.978   5.825 -0.5991 -0.1371  1.8038
 9131TIP3   OH227356   4.381   5.833   5.841 -0.0930  0.2029  0.2861
 9131TIP3    H127357   4.407   5.874   5.923  0.2228  1.8942 -0.6190
 9131TIP3    H227358   4.288   5.853   5.831  0.2585  1.5725 -0.5908
 9132TIP3   OH227359   1.946   4.343   3.250  0.8933 -0.3043 -0.1367
 9132TIP3    H127360   1.902   4.426   3.267  1.8152  0.1357  0.1634
 9132TIP3    H227361   1.883   4.292   3.199  0.6052  0.8716 -0.9782
 9133TIP3   OH227362   4.577   0.050   0.175 -0.1651  0.2696  0.1225
 9133TIP3    H127363   4.481   0.056   0.172 -0.1072  1.5626  0.0537
 9133TIP3    H227364   4.600   0.001   0.096 -0.7358  0.5666 -0.2353
 9134TIP3   OH227365   0.656   3.538   0.828 -0.5946  0.1266  0.5122
 9134TIP3    H127366   0.689   3.448   0.817 -0.2596  0.3131 -0.0374
 9134TIP3    H227367   0.576   3.528   0.880 -1.4627 -0.6600 -0.9065
 9135TIP3   OH227368   3.449   3.554   1.565 -0.3346 -0.5583 -0.2429
 9135TIP3    H127369   3.471   3.521   1.478  1.5557  0.9235 -0.4041
 9135TIP3    H227370   3.525   3.608   1.590 -1.2651 -0.1302  1.8986
 9136TIP3   OH227371   6.029   0.283   5.487  0.8187  0.4100  0.0674
 9136TIP3    H127372   6.102   0.227   5.462  0.9825  1.2805 -1.5378
 9136TIP3    H227373   6.025   0.276   5.582  0.7675 -2.3897 -0.0434
 9137TIP3   OH227374   5.502   5.409   3.178  0.2708  0.0241  0.2510
 9137TIP3    H127375   5.461   5.336   3.132 -0.1993  0.4242  0.0318
 9137TIP3    H227376   5.445   5.426   3.253 -0.8681  1.6164 -0.9207
 9138TIP3   OH227377   4.096   0.536   1.782 -0.1968 -0.0834 -0.3994
 9138TIP3    H127378   4.090   0.631   1.793  0.4562  0.3770 -3.3364
 9138TIP3    H227379   4.006   0.506   1.791 -0.2823  0.5828  1.6990
 9139TIP3   OH227380   1.938   3.510   4.887 -0.0757  0.1383 -0.0272
 9139TIP3    H127381   1.855   3.483   4.849 -0.7063  1.1795  0.5397
 9139TIP3    H227382   1.925   3.501   4.982 -0.1536  1.8567  0.1633
 9140TIP3   OH227383   0.375   6.650   1.907 -0.3522 -0.0476 -0.3437
 9140TIP3    H127384   0.372   6.683   1.818  0.3678  0.0285 -0.3492
 9140TIP3    H227385   0.469   6.641   1.926 -0.4959 -1.8890 -0.2702
 9141TIP3   OH227386   2.667   4.495   5.400 -0.1929  0.2929 -0.0953
 9141TIP3    H127387   2.756   4.520   5.375 -0.2203  2.7135  1.8439
 9141TIP3    H227388   2.678   4.418   5.457  0.5643  0.0859 -0.5119
 9142TIP3   OH227389   3.036   3.551   1.248  0.8663 -0.7957 -0.6842
 9142TIP3    H127390   3.103   3.580   1.187  0.7827 -0.0949 -0.4425
 9142TIP3    H227391   3.080   3.548   1.333  0.3815  0.5065 -0.3685
 9143TIP3   OH227392   6.076   5.496   3.543 -0.1645 -0.0514  0.2544
 9143TIP3    H127393   6.069   5.407   3.509 -1.5034 -0.0535  0.5097
 9143TIP3    H227394   6.169   5.506   3.563 -0.2390 -2.0365  1.9256
 9144TIP3   OH227395   3.083   6.687   0.500  0.0081 -0.3209  0.1972
 9144TIP3    H127396   3.029   6.678   0.578 -0.1210  1.4304  0.3547
 9144TIP3    H227397   3.021   6.697   0.428  0.1234 -0.6482  0.0510
 9145TIP3   OH227398   2.860   2.204   1.477  0.1823  0.0816  0.3895
 9145TIP3    H127399   2.919   2.227   1.405 -0.5912  0.5057 -0.1151
 9145TIP3    H227400   2.793   2.272   1.477  0.1851  0.1099  1.5471
 9146TIP3   OH227401   6.844   1.994   3.590 -0.9597 -0.2070  0.0064
 9146TIP3    H127402   6.862   2.080   3.552  0.2787 -0.5617 -0.2452
 9146TIP3    H227403   6.928   1.949   3.588 -1.2567 -0.8824  1.5286
 9147TIP3   OH227404   4.334   2.660   5.768 -0.6557  0.6717  0.3484
 9147TIP3    H127405   4.251   2.625   5.735 -0.5317  0.4705  0.2468
 9147TIP3    H227406   4.308   2.724   5.834 -0.8877  0.2450  0.6824
 9148TIP3   OH227407   2.924   1.160   0.318  0.2284 -0.4686  0.1981
 9148TIP3    H127408   2.909   1.214   0.240  2.8546 -0.0015 -0.0935
 9148TIP3    H227409   2.873   1.202   0.387 -1.4608 -0.3903 -1.0308
 9149TIP3   OH227410   6.233   0.243   1.940 -0.5324  0.0343 -0.0780
 9149TIP3    H127411   6.327   0.249   1.924 -0.8197 -0.0593 -2.0016
 9149TIP3    H227412   6.212   0.320   1.992  0.9172 -0.9923  2.1859
 9150TIP3   OH227413   7.003   2.030   4.059 -0.3711  0.1926  0.4192
 9150TIP3    H127414   7.027   2.045   4.150 -0.1192  1.9253  0.0991
 9150TIP3    H227415   6.926   1.974   4.063  0.7795 -1.4121  1.6111
 9151TIP3   OH227416   1.027   2.203   3.611 -0.1040 -0.5303  0.2246
 9151TIP3    H127417   1.052   2.129   3.555 -2.4382 -1.4633  0.2909
 9151TIP3    H227418   0.964   2.166   3.673 -2.2857  1.6628 -0.4753
 9152TIP3   OH227419   2.529   2.721   4.843  0.2653  0.1089 -0.0799
 9152TIP3    H127420   2.584   2.661   4.893 -0.0876  0.9979  1.4572
 9152TIP3    H227421   2.448   2.673   4.828  0.6494 -0.4319 -0.4727
 9153TIP3   OH227422   1.792   6.637   3.081 -0.0367 -0.4417  0.0662
 9153TIP3    H127423   1.793   6.638   2.986 -0.3790  0.6654  0.0560
 9153TIP3    H227424   1.796   6.730   3.106  3.8522 -0.7217  1.1934
 9154TIP3   OH227425   1.818   4.686   2.356  0.4167 -0.4600 -0.4988
 9154TIP3    H127426   1.848   4.725   2.439 -0.7741  0.2538 -0.3833
 9154TIP3    H227427   1.792   4.597   2.380 -0.7027  0.0062  0.0829
 9155TIP3   OH227428   5.580   6.470   1.384  0.2697 -0.1161 -0.5294
 9155TIP3    H127429   5.528   6.540   1.424  2.5199  1.3868 -0.0604
 9155TIP3    H227430   5.589   6.405   1.454  1.8933  1.2435  0.5923
 9156TIP3   OH227431   3.794   3.419   5.519  0.3909  0.1202  0.5439
 9156TIP3    H127432   3.733   3.351   5.549  0.9211 -0.2448  0.8074
 9156TIP3    H227433   3.782   3.421   5.424  1.2409 -1.2070  0.3803
 9157TIP3   OH227434   1.760   6.358   2.015  0.2130 -0.1038  0.1729
 9157TIP3    H127435   1.833   6.305   2.047  0.7584 -0.2254 -1.2110
 9157TIP3    H227436   1.802   6.431   1.969 -0.5053 -0.2984 -0.8343
 9158TIP3   OH227437   4.452   0.145   3.253  0.2268  0.2209 -0.3286
 9158TIP3    H127438   4.486   0.055   3.248  0.0786  0.0176  1.7181
 9158TIP3    H227439   4.515   0.196   3.202  1.4728 -0.7361  0.1795
 9159TIP3   OH227440   0.701   4.685   1.776 -0.4586 -0.2166  0.3665
 9159TIP3    H127441   0.707   4.662   1.869  1.4895  0.0963  0.3529
 9159TIP3    H227442   0.702   4.781   1.775 -0.2743 -0.2212  0.0145
 9160TIP3   OH227443   1.895   4.496   1.427 -0.4960 -1.0846 -0.0984
 9160TIP3    H127444   1.843   4.415   1.428  2.3901 -3.0803  0.2052
 9160TIP3    H227445   1.904   4.519   1.520  1.7368 -2.6295  0.1372
 9161TIP3   OH227446   0.339   2.590   1.073  0.4563  0.7808 -0.1600
 9161TIP3    H127447   0.267   2.527   1.071  0.8345  0.3412 -0.1987
 9161TIP3    H227448   0.297   2.675   1.056 -0.4200  0.9165  2.2626
 9162TIP3   OH227449   4.062   2.359   1.780  0.2962 -0.2613 -0.1586
 9162TIP3    H127450   4.039   2.300   1.852 -1.6177  1.0214  0.3740
 9162TIP3    H227451   4.147   2.327   1.748  0.5139 -1.7345  1.7235
 9163TIP3   OH227452   3.916   2.817   4.027  0.2946 -0.1345 -0.0399
 9163TIP3    H127453   3.906   2.889   3.965  2.4854 -0.3503 -0.7561
 9163TIP3    H227454   4.007   2.789   4.016  0.7023 -0.3979  3.0598
 9164TIP3   OH227455   3.520   0.456   5.005 -0.1274 -0.4677 -0.3517
 9164TIP3    H127456   3.532   0.465   4.910 -1.2820 -0.4253 -0.5124
 9164TIP3    H227457   3.496   0.543   5.034  0.5190 -0.4143  0.0398
 9165TIP3   OH227458   0.512   0.853   5.844  0.1885 -0.4693 -0.4200
 9165TIP3    H127459   0.474   0.767   5.827  0.8852 -0.4665 -2.3070
 9165TIP3    H227460   0.448   0.915   5.808  0.1414 -0.2460  0.0409
 9166TIP3   OH227461   6.876   0.673   2.300  0.5969 -0.4297  0.4357
 9166TIP3    H127462   6.909   0.618   2.370  0.7465  0.0821  0.7692
 9166TIP3    H227463   6.873   0.615   2.224  2.0816 -0.5527  0.4314
 9167TIP3   OH227464   1.028   2.644   3.974  0.4260 -0.0987  0.1637
 9167TIP3    H127465   1.021   2.579   4.044 -1.2711  0.1684  0.2769
 9167TIP3    H227466   1.004   2.597   3.895 -1.9676  0.5881  0.3996
 9168TIP3   OH227467   1.305   2.559   2.273  0.1012 -0.1765 -0.4276
 9168TIP3    H127468   1.248   2.496   2.316  0.6388  0.1171  0.7382
 9168TIP3    H227469   1.344   2.610   2.344  0.6485  0.6317 -1.2799
 9169TIP3   OH227470   6.332   0.807   4.513  0.0312  0.0485 -0.4751
 9169TIP3    H127471   6.333   0.879   4.450  1.1281  0.4622 -0.0171
 9169TIP3    H227472   6.422   0.774   4.512 -0.2077 -0.6340  0.0841
 9170TIP3   OH227473   0.436   2.910   1.578 -0.5449 -0.0668  0.0231
 9170TIP3    H127474   0.418   2.998   1.543 -0.5774 -0.7901 -1.8355
 9170TIP3    H227475   0.510   2.879   1.528  0.5836 -0.4763  1.8545
 9171TIP3   OH227476   4.690   1.217   0.990  0.4501  0.2226  0.1915
 9171TIP3    H127477   4.779   1.235   1.020  1.2139 -0.1321 -1.7173
 9171TIP3    H227478   4.639   1.293   1.017  1.4350  0.6517  0.8783
 9172TIP3   OH227479   6.018   6.290   5.868  0.9521  0.8800  0.5557
 9172TIP3    H127480   5.933   6.261   5.901  1.8320  0.4844  2.6116
 9172TIP3    H227481   6.016   6.270   5.774 -0.9773  0.3263  0.6888
 9173TIP3   OH227482   0.666   2.618   0.952 -0.1266 -0.0306  0.6801
 9173TIP3    H127483   0.715   2.698   0.971  0.1759  0.6110 -2.3339
 9173TIP3    H227484   0.585   2.648   0.910 -0.4095 -1.2788  0.2870
 9174TIP3   OH227485   5.018   5.908   3.652 -0.1904  0.4436 -0.2304
 9174TIP3    H127486   4.985   5.917   3.741  1.3335  2.5910  0.2039
 9174TIP3    H227487   5.111   5.930   3.659  0.7850 -2.6144 -1.8399
 9175TIP3   OH227488   5.576   6.324   1.860  0.1051  0.1936 -0.0144
 9175TIP3    H127489   5.531   6.284   1.786  1.1006 -0.7116 -0.1596
 9175TIP3    H227490   5.665   6.341   1.828  0.2555  0.7215  0.6615
 9176TIP3   OH227491   6.995   1.273   0.082  0.0024  0.3238  0.0290
 9176TIP3    H127492   7.032   1.239   0.001 -2.1868  0.0320 -0.9377
 9176TIP3    H227493   7.002   1.368   0.073 -0.5517  0.3081 -0.7130
 9177TIP3   OH227494   6.651   1.047   3.109  0.7079  0.2195 -0.3946
 9177TIP3    H127495   6.744   1.048   3.088  0.7968 -1.3681 -0.2448
 9177TIP3    H227496   6.607   1.057   3.025  1.0407 -0.7129 -0.6971
 9178TIP3   OH227497   5.862   1.123   5.446 -0.1654  0.2821 -0.0475
 9178TIP3    H127498   5.860   1.108   5.540  1.1169 -1.3115 -0.2209
 9178TIP3    H227499   5.781   1.084   5.414 -0.8775  1.3362  0.4415
 9179TIP3   OH227500   6.373   5.322   3.527  0.3548  0.3426 -0.1961
 9179TIP3    H127501   6.386   5.356   3.439 -1.0971 -0.0104 -0.5682
 9179TIP3    H227502   6.427   5.243   3.531 -0.5693 -0.3739 -1.2372
 9180TIP3   OH227503   1.356   1.977   5.635  0.2452 -0.3291 -0.2500
 9180TIP3    H127504   1.282   2.008   5.688 -0.3119  0.0115 -1.1990
 9180TIP3    H227505   1.406   2.056   5.616 -0.8085 -0.0630 -2.1119
 9181TIP3   OH227506   6.492   2.541   3.069  0.1660  0.0539  0.3844
 9181TIP3    H127507   6.428   2.469   3.071  1.7229 -1.4844 -1.1046
 9181TIP3    H227508   6.481   2.579   2.981  0.1011  0.9577  0.7754
 9182TIP3   OH227509   3.302   0.903   1.197 -0.0886 -0.5571  0.0383
 9182TIP3    H127510   3.237   0.920   1.129  0.2212 -0.4269 -0.2290
 9182TIP3    H227511   3.321   0.810   1.190 -1.7693 -1.0627  1.4868
 9183TIP3   OH227512   4.799   3.827   5.576  0.0460  0.8962  0.1109
 9183TIP3    H127513   4.767   3.898   5.520  0.7323  0.9071 -0.2772
 9183TIP3    H227514   4.855   3.775   5.519 -1.5222 -0.7959 -0.0071
 9184TIP3   OH227515   1.180   3.260   3.214  0.2707  0.5803  0.1887
 9184TIP3    H127516   1.139   3.182   3.252  1.3888 -0.5229 -0.7882
 9184TIP3    H227517   1.107   3.314   3.184 -0.5234 -1.2692 -1.4110
 9185TIP3   OH227518   1.068   0.804   5.238 -0.3143 -0.2725  0.1426
 9185TIP3    H127519   1.079   0.740   5.168 -0.3466  0.7373 -0.8029
 9185TIP3    H227520   0.978   0.792   5.267 -0.7941  0.3414 -1.0460
 9186TIP3   OH227521   6.058   1.713   2.499 -0.5455  0.0653  0.3980
 9186TIP3    H127522   6.114   1.718   2.576  0.5053  2.4970 -0.4308
 9186TIP3    H227523   5.984   1.659   2.527  2.0708 -3.2399  1.5518
 9187TIP3   OH227524   6.639   1.607   1.919  0.1192 -0.4680  0.8531
 9187TIP3    H127525   6.733   1.625   1.912  0.0752 -0.8033 -1.7539
 9187TIP3    H227526   6.631   1.514   1.899 -0.7679 -0.4628  1.1514
 9188TIP3   OH227527   3.579   4.331   4.084  0.0933 -1.0476  0.6006
 9188TIP3    H127528   3.647   4.396   4.068 -0.1990 -1.0086 -0.5495
 9188TIP3    H227529   3.544   4.354   4.171  2.0494 -1.5469  1.5874
 9189TIP3   OH227530   6.259   2.139   4.123 -0.3821 -0.4273 -0.2786
 9189TIP3    H127531   6.221   2.138   4.211 -1.5516  0.0808 -0.7533
 9189TIP3    H227532   6.251   2.231   4.095  3.0343  0.1641  0.3440
 9190TIP3   OH227533   0.663   2.258   3.925 -0.4455 -0.1298 -0.0528
 9190TIP3    H127534   0.701   2.331   3.973  1.4249 -1.2661  0.2911
 9190TIP3    H227535   0.635   2.295   3.842  2.0176  0.7294 -0.5904
 9191TIP3   OH227536   0.251   5.614   3.967  0.2749 -0.4480  0.2722
 9191TIP3    H127537   0.183   5.560   4.006 -0.4001 -1.5393 -2.1687
 9191TIP3    H227538   0.271   5.570   3.884  1.1914  1.9622 -0.8788
 9192TIP3   OH227539   4.746   3.726   3.542 -0.7224  0.4861 -0.8339
 9192TIP3    H127540   4.792   3.665   3.484  1.0524  0.1465  0.8364
 9192TIP3    H227541   4.772   3.812   3.511  0.7394  0.3009 -0.1989
 9193TIP3   OH227542   3.543   5.527   3.134 -0.1979 -0.0615  0.3247
 9193TIP3    H127543   3.633   5.498   3.115 -0.7905 -0.7830 -1.5855
 9193TIP3    H227544   3.513   5.467   3.202  1.5070  1.6765  2.8021
 9194TIP3   OH227545   0.462   1.303   0.194  0.3203  0.0283  0.0713
 9194TIP3    H127546   0.410   1.238   0.148  0.4450 -0.1534  0.1867
 9194TIP3    H227547   0.426   1.387   0.165  0.9861 -0.0576 -1.0618
 9195TIP3   OH227548   4.578   1.588   4.712  0.2576  0.3676  0.0441
 9195TIP3    H127549   4.645   1.573   4.779 -0.2994  0.7305  0.6994
 9195TIP3    H227550   4.572   1.683   4.705  0.2022  0.3331 -0.4172
 9196TIP3   OH227551   7.145   2.436   2.635 -0.1855 -0.1805 -0.5667
 9196TIP3    H127552   7.104   2.407   2.717  0.6740 -1.2084 -0.4810
 9196TIP3    H227553   7.236   2.454   2.659 -0.7098  2.9415 -0.5632
 9197TIP3   OH227554   4.669   3.381   2.241 -0.0083  0.6521  0.2427
 9197TIP3    H127555   4.746   3.328   2.219 -0.5695 -0.4328  0.8449
 9197TIP3    H227556   4.626   3.333   2.311 -2.5287  0.0391 -1.6189
 9198TIP3   OH227557   2.201  -0.002   3.607  0.3062  0.1378  0.0185
 9198TIP3    H127558   2.168   0.083   3.578  1.2811  0.4193 -0.3151
 9198TIP3    H227559   2.129  -0.063   3.591  0.7287  0.2593 -3.0712
 9199TIP3   OH227560   5.710   3.068   3.310  0.1815  0.2001 -0.5460
 9199TIP3    H127561   5.798   3.056   3.275 -0.3218  1.2732 -2.3059
 9199TIP3    H227562   5.676   3.145   3.264 -1.2299  0.5683  0.9988
 9200TIP3   OH227563   3.575   3.199   0.658  0.0497 -0.0285 -0.3947
 9200TIP3    H127564   3.558   3.263   0.589 -2.0695 -0.7081 -0.5615
 9200TIP3    H227565   3.564   3.249   0.739  0.2178  0.2285 -0.5276
 9201TIP3   OH227566   5.641   4.303   1.415 -0.0657 -0.6036 -0.2044
 9201TIP3    H127567   5.555   4.317   1.455 -0.6166 -1.9739 -0.8249
 9201TIP3    H227568   5.632   4.220   1.367  1.3235 -0.3043 -1.0556
 9202TIP3   OH227569   2.058   4.050   0.402 -0.3849 -0.4614 -0.0298
 9202TIP3    H127570   2.021   4.137   0.419  0.1834  0.3309 -2.5027
 9202TIP3    H227571   2.015   4.021   0.322 -0.7404 -2.6064  0.8953
 9203TIP3   OH227572   6.701   1.000   4.616  0.1293  0.5481  0.6608
 9203TIP3    H127573   6.752   0.964   4.543  0.1366 -0.2088  1.0328
 9203TIP3    H227574   6.705   0.933   4.684 -2.7076 -0.2713  0.1359
 9204TIP3   OH227575   1.514   5.424   0.172 -0.0119 -0.0478  0.2234
 9204TIP3    H127576   1.471   5.496   0.125 -0.5159 -1.7609 -2.1409
 9204TIP3    H227577   1.556   5.466   0.246 -1.1735  2.5240 -0.4430
 9205TIP3   OH227578   1.072   1.582   2.383 -0.1220 -0.0218 -0.2520
 9205TIP3    H127579   1.009   1.533   2.435 -1.2931  2.2683  0.6563
 9205TIP3    H227580   1.141   1.607   2.445  1.4252 -1.9419 -1.0932
 9206TIP3   OH227581   4.460   1.080   1.870  0.2310  0.1230  0.5706
 9206TIP3    H127582   4.419   1.082   1.956 -0.6148  1.1279  0.1720
 9206TIP3    H227583   4.393   1.042   1.812  0.9049 -0.8372  0.3985
 9207TIP3   OH227584   1.303   4.961   5.343  0.3174  0.0678 -0.0215
 9207TIP3    H127585   1.320   5.032   5.281  0.7182 -0.9615 -1.1555
 9207TIP3    H227586   1.362   4.977   5.416 -0.6284  1.6785  0.4462
 9208TIP3   OH227587   6.009   3.752   2.862 -1.1310 -1.0534 -0.4256
 9208TIP3    H127588   5.967   3.696   2.927  0.0156 -2.8630 -1.1727
 9208TIP3    H227589   5.966   3.730   2.780 -0.9700 -0.5107 -0.6601
 9209TIP3   OH227590   3.739   4.542   4.038  0.1323  0.5081  0.1169
 9209TIP3    H127591   3.684   4.599   4.092  0.7557  1.6686 -0.4319
 9209TIP3    H227592   3.743   4.586   3.953  1.3842  0.1185 -0.0479
 9210TIP3   OH227593   3.093   2.572   2.199 -0.4945 -0.3250  0.1405
 9210TIP3    H127594   3.172   2.520   2.184 -0.2513  0.1620 -0.2844
 9210TIP3    H227595   3.073   2.611   2.114 -1.1882 -0.4286  0.2491
 9211TIP3   OH227596   2.291   1.401   0.052  0.5300  0.2314  1.0600
 9211TIP3    H127597   2.211   1.349   0.047  0.0794  0.9623  0.3037
 9211TIP3    H227598   2.316   1.397   0.144  0.9906 -1.9737  0.8954
 9212TIP3   OH227599   2.435   1.805   1.383  0.0550 -0.3982  0.3155
 9212TIP3    H127600   2.379   1.841   1.452 -1.6399  0.6472 -1.5084
 9212TIP3    H227601   2.503   1.871   1.370 -0.2073 -0.1254  0.3132
 9213TIP3   OH227602   1.089   0.816   5.768 -0.4781 -0.1859  0.4523
 9213TIP3    H127603   1.148   0.801   5.842  0.1011 -0.0620  0.0240
 9213TIP3    H227604   1.055   0.904   5.782 -1.8349 -0.8666  1.5655
 9214TIP3   OH227605   5.061   4.365   0.044  0.2292  0.2730 -0.0777
 9214TIP3    H127606   5.078   4.321   0.127  0.1285 -0.0525 -0.2286
 9214TIP3    H227607   5.102   4.451   0.053 -0.0885  0.3752  0.4443
 9215TIP3   OH227608   0.522   5.418   1.190  0.3205  0.0431 -0.2383
 9215TIP3    H127609   0.508   5.512   1.201 -1.1325 -0.1229 -0.4532
 9215TIP3    H227610   0.581   5.412   1.114  1.9237  0.8085  0.8950
 9216TIP3   OH227611   6.705   2.700   3.166  0.0046 -0.1063 -0.7519
 9216TIP3    H127612   6.751   2.639   3.224 -0.4604  1.1723  1.0257
 9216TIP3    H227613   6.653   2.644   3.109  0.1398 -1.4063  0.3552
 9217TIP3   OH227614   4.586   3.639   2.175  0.8959 -0.3416 -0.1518
 9217TIP3    H127615   4.525   3.668   2.243 -0.5640  0.1431 -1.5906
 9217TIP3    H227616   4.622   3.557   2.208 -1.1922 -1.0817  0.4059
 9218TIP3   OH227617   1.008   3.934   0.879  0.0452  0.1918 -0.4473
 9218TIP3    H127618   1.073   3.897   0.819 -0.0570  0.4164 -0.6996
 9218TIP3    H227619   0.925   3.894   0.853 -0.1894  1.1397 -1.2028
 9219TIP3   OH227620   3.316   1.510   0.814  0.0336 -0.0284  0.0679
 9219TIP3    H127621   3.292   1.596   0.779 -0.4583 -0.7931 -1.5709
 9219TIP3    H227622   3.242   1.486   0.871 -0.0782  0.4041  0.1074
 9220TIP3   OH227623   3.385   3.646   1.897 -0.2613  0.5709 -0.7979
 9220TIP3    H127624   3.472   3.687   1.890  0.6251 -0.9858  0.5289
 9220TIP3    H227625   3.398   3.558   1.863 -1.6221  0.6647 -1.6083
 9221TIP3   OH227626   0.664   5.514   2.346  0.0879 -0.2514  0.5024
 9221TIP3    H127627   0.737   5.453   2.359  0.8368  0.2770 -1.0386
 9221TIP3    H227628   0.658   5.525   2.252  0.4195  2.5818  0.7120
 9222TIP3   OH227629   0.888   0.696   1.270 -0.0866 -0.0038  0.2123
 9222TIP3    H127630   0.944   0.669   1.198  0.0331  0.3087  0.1871
 9222TIP3    H227631   0.826   0.623   1.281  0.0514 -0.1603 -0.0384
 9223TIP3   OH227632   0.979   0.345   1.839 -0.2881  0.0622 -0.2247
 9223TIP3    H127633   0.994   0.419   1.780 -0.8247 -0.3744 -0.9275
 9223TIP3    H227634   1.066   0.323   1.873  0.6206 -1.6491 -3.2654
 9224TIP3   OH227635   2.132   5.470   2.311  0.4584  0.2019  0.2774
 9224TIP3    H127636   2.140   5.390   2.364 -0.7540 -0.4349 -0.4515
 9224TIP3    H227637   2.158   5.541   2.370  0.6644 -0.6430  1.2274
 9225TIP3   OH227638   3.904   2.105   4.859 -0.5670  0.5348 -0.2261
 9225TIP3    H127639   3.948   2.024   4.884 -1.7568 -0.1109 -0.1338
 9225TIP3    H227640   3.934   2.169   4.923 -0.8323 -0.2342  0.7143
 9226TIP3   OH227641   1.494   3.515   3.793  0.0162  0.1278 -0.2711
 9226TIP3    H127642   1.579   3.471   3.802 -0.7184 -1.8040 -1.8491
 9226TIP3    H227643   1.511   3.589   3.736  0.7431  0.0342 -0.1827
 9227TIP3   OH227644   7.057   1.823   0.411 -0.4061 -0.1190 -0.6162
 9227TIP3    H127645   7.136   1.772   0.430 -0.3663 -0.3484 -1.3577
 9227TIP3    H227646   7.082   1.913   0.430 -0.8998 -0.4532  2.0519
 9228TIP3   OH227647   0.128   4.350   0.334  0.5171 -0.2902 -0.2060
 9228TIP3    H127648   0.171   4.359   0.249  0.2469 -0.6769 -0.3898
 9228TIP3    H227649   0.148   4.431   0.380  1.5003 -0.5005 -0.2569
 9229TIP3   OH227650   7.159   3.206   3.519  0.2342  0.1213 -0.2747
 9229TIP3    H127651   7.179   3.296   3.495 -0.2986  0.2401 -0.2833
 9229TIP3    H227652   7.072   3.210   3.558  0.2725 -0.3666 -0.1280
 9230TIP3   OH227653   2.092   0.709   5.717 -0.2271 -0.0699  0.1208
 9230TIP3    H127654   2.052   0.787   5.678 -1.2336 -1.0197 -0.8171
 9230TIP3    H227655   2.081   0.721   5.811  0.0317  1.1159  0.0173
 9231TIP3   OH227656   4.852   2.232   5.844  0.1414 -0.3162  0.0740
 9231TIP3    H127657   4.938   2.254   5.810 -0.1399 -1.8279 -1.7809
 9231TIP3    H227658   4.799   2.311   5.831  1.4352  1.0005  2.2207
 9232TIP3   OH227659   3.393   3.456   4.158 -0.1524  0.2120 -0.0875
 9232TIP3    H127660   3.318   3.397   4.167 -0.6979  1.1705  2.4533
 9232TIP3    H227661   3.468   3.398   4.153 -0.7783 -0.7619  1.1017
 9233TIP3   OH227662   7.120   4.164   5.429 -0.1437  0.1018 -0.2019
 9233TIP3    H127663   7.215   4.176   5.428 -0.2143  0.7236  0.1326
 9233TIP3    H227664   7.090   4.204   5.347 -0.1028 -0.2426 -0.3867
 9234TIP3   OH227665   6.818   2.363   0.576 -0.2586 -0.1453  0.0943
 9234TIP3    H127666   6.814   2.365   0.672 -0.1498  0.0275  0.0958
 9234TIP3    H227667   6.818   2.269   0.554  0.5166 -0.1954  0.2997
 9235TIP3   OH227668   6.098   4.037   3.863 -0.3731 -0.4832  0.4432
 9235TIP3    H127669   6.141   3.964   3.818 -0.6092 -0.5836  0.3756
 9235TIP3    H227670   6.004   4.024   3.844 -0.3679  0.1598 -0.0525
 9236TIP3   OH227671   5.840   6.588   0.079  0.5536  0.4605 -0.4968
 9236TIP3    H127672   5.770   6.604   0.016  0.4523 -2.0154 -1.1032
 9236TIP3    H227673   5.918   6.625   0.038 -0.0605  1.7192 -0.5792
 9237TIP3   OH227674   0.954   6.692   1.505  0.2401 -0.0478 -0.5000
 9237TIP3    H127675   0.863   6.716   1.492  0.1820 -0.4362 -0.8278
 9237TIP3    H227676   1.003   6.743   1.441  0.4472  1.4050  0.7518
 9238TIP3   OH227677   1.715   2.825   4.221 -0.1112 -0.2915  0.5860
 9238TIP3    H127678   1.792   2.824   4.165 -1.5193 -0.0989 -1.4259
 9238TIP3    H227679   1.745   2.868   4.302  1.9272 -0.4685 -0.0195
 9239TIP3   OH227680   4.326   2.065   3.223 -0.2080 -0.2060 -0.0164
 9239TIP3    H127681   4.265   2.019   3.165 -0.0898 -0.5667  0.1436
 9239TIP3    H227682   4.269   2.113   3.284 -0.3328  0.4207 -0.6175
 9240TIP3   OH227683   4.209   4.018   1.643 -0.3446  0.5442 -0.1213
 9240TIP3    H127684   4.133   3.996   1.696 -0.9530 -0.1096 -1.2333
 9240TIP3    H227685   4.178   4.087   1.584  0.2633  1.0996  0.1833
 9241TIP3   OH227686   5.022   4.535   3.047 -0.3309  0.0369  0.3331
 9241TIP3    H127687   5.106   4.579   3.057 -0.8968  1.2796 -0.1677
 9241TIP3    H227688   4.994   4.555   2.957 -0.2202 -2.0981 -0.2351
 9242TIP3   OH227689   3.030   3.561   0.440  0.0543  0.0161  0.4796
 9242TIP3    H127690   3.118   3.529   0.463  0.7525  1.4856  0.0322
 9242TIP3    H227691   2.982   3.483   0.414  1.2357 -0.8267  0.7245
 9243TIP3   OH227692   3.958   2.218   3.596 -0.1130  0.3485  0.0670
 9243TIP3    H127693   4.026   2.270   3.641 -0.4270  0.5628  0.2953
 9243TIP3    H227694   3.904   2.184   3.667  0.4491 -0.8103 -0.0373
 9244TIP3   OH227695   1.038   1.950   5.079  0.3960 -0.1545 -0.0707
 9244TIP3    H127696   1.082   1.993   5.007 -0.5421 -1.4850 -1.5133
 9244TIP3    H227697   1.027   2.018   5.146  1.4343  1.0599 -1.0946
 9245TIP3   OH227698   1.323   3.039   3.062  0.7328 -0.6318  0.1713
 9245TIP3    H127699   1.319   3.096   3.138 -0.1432 -0.3425 -0.0780
 9245TIP3    H227700   1.274   3.086   2.994  0.5419 -1.3933 -0.2301
 9246TIP3   OH227701   6.777   0.092   3.808 -0.4481 -0.1411  0.0710
 9246TIP3    H127702   6.758   0.106   3.715  1.3036 -0.1717 -0.3279
 9246TIP3    H227703   6.803   0.178   3.840  2.1329 -0.7214 -0.3093
 9247TIP3   OH227704   0.650   3.359   4.015  0.2670 -0.0225  0.3567
 9247TIP3    H127705   0.686   3.320   3.935 -0.8355 -0.2491 -0.0449
 9247TIP3    H227706   0.686   3.306   4.086  1.1389  0.0903  0.0107
 9248TIP3   OH227707   5.454   2.044   3.675 -0.1287  0.1440  0.0148
 9248TIP3    H127708   5.491   2.089   3.751  0.2568 -1.9227  1.1231
 9248TIP3    H227709   5.365   2.022   3.701  0.2529 -1.2723  0.2431
 9249TIP3   OH227710   3.690   0.343   5.470  0.1419  0.2866  0.1705
 9249TIP3    H127711   3.675   0.253   5.440  0.2734  0.3699 -0.1542
 9249TIP3    H227712   3.614   0.363   5.525  0.2354 -0.1091  0.4491
 9250TIP3   OH227713   6.686   3.022   3.982 -0.5126 -0.0114 -0.1202
 9250TIP3    H127714   6.694   3.038   3.888  1.4194  1.1358  0.1936
 9250TIP3    H227715   6.625   3.089   4.013  0.2121  0.7580 -0.3117
 9251TIP3   OH227716   2.253   6.255   2.592 -0.6248 -0.0815  0.3971
 9251TIP3    H127717   2.211   6.185   2.541 -3.6367  1.0113  1.1733
 9251TIP3    H227718   2.244   6.227   2.683 -2.9388  1.7217  0.8065
 9252TIP3   OH227719   1.877   6.601   1.962  0.0868 -0.2619  0.0009
 9252TIP3    H127720   1.956   6.593   1.910 -0.6376  2.7621 -1.8288
 9252TIP3    H227721   1.881   6.690   2.000 -1.4199 -0.8219  1.6595
 9253TIP3   OH227722   6.569   5.975   2.702  0.0407  0.1965 -0.2200
 9253TIP3    H127723   6.595   6.035   2.773 -0.0635  0.7136 -0.6146
 9253TIP3    H227724   6.514   5.910   2.745  0.1337  0.4000  0.2129
 9254TIP3   OH227725   3.009   2.840   1.395 -0.0293  0.8579  0.9354
 9254TIP3    H127726   2.956   2.838   1.315 -1.7104  0.0322  2.0024
 9254TIP3    H227727   3.096   2.814   1.366 -0.7736 -0.2220 -0.5192
 9255TIP3   OH227728   0.872   6.742   3.008  0.2601  0.5555  0.8911
 9255TIP3    H127729   0.812   6.761   2.936  2.2924 -0.9132 -1.3467
 9255TIP3    H227730   0.818   6.696   3.073 -0.9590 -1.3410 -1.3307
 9256TIP3   OH227731   0.293   3.570   4.490 -0.3190  0.2457 -0.2827
 9256TIP3    H127732   0.388   3.576   4.481 -0.2145 -0.0003  0.5974
 9256TIP3    H227733   0.276   3.586   4.583 -1.0382 -0.7992 -0.2170
 9257TIP3   OH227734   4.464   4.744   2.627 -0.2256  0.0446  0.1958
 9257TIP3    H127735   4.403   4.790   2.683 -0.2316 -0.2037  0.3970
 9257TIP3    H227736   4.545   4.795   2.631 -0.0007 -0.3461  0.9978
 9258TIP3   OH227737   3.911   0.612   5.790 -0.5456 -0.3328  0.0903
 9258TIP3    H127738   3.960   0.663   5.855 -1.6735  0.6930  0.1644
 9258TIP3    H227739   3.913   0.523   5.824 -2.3136  0.3922  2.3382
 9259TIP3   OH227740   0.672   2.246   5.766  0.0657  0.3841  0.2125
 9259TIP3    H127741   0.665   2.335   5.731 -0.1264  0.4672  0.4535
 9259TIP3    H227742   0.644   2.190   5.694 -1.2853  0.6076  0.5321
 9260TIP3   OH227743   6.203   4.417   4.363  0.1567  0.3868 -0.0254
 9260TIP3    H127744   6.174   4.374   4.444  1.4269 -2.0602 -0.7709
 9260TIP3    H227745   6.295   4.439   4.380  0.2468  0.4359 -0.5746
 9261TIP3   OH227746   0.972   4.432   4.791 -0.8256  0.2794 -0.9984
 9261TIP3    H127747   1.009   4.410   4.877  1.6921  1.2231 -1.7423
 9261TIP3    H227748   0.894   4.377   4.784  0.5022 -2.0264  0.6793
 9262TIP3   OH227749   0.796   5.687   3.012 -0.1810  0.1472  0.3549
 9262TIP3    H127750   0.739   5.647   3.078  0.8544 -2.7409 -0.3760
 9262TIP3    H227751   0.777   5.638   2.932  1.2291  1.1266 -0.6084
 9263TIP3   OH227752   2.773   0.787   2.119 -0.3294 -1.1168  0.0405
 9263TIP3    H127753   2.851   0.774   2.064  0.5028  0.6497  0.7086
 9263TIP3    H227754   2.791   0.869   2.166 -2.0375 -1.3613  1.1951
 9264TIP3   OH227755   5.515   3.176   2.486  0.4804 -0.3750 -0.2844
 9264TIP3    H127756   5.536   3.087   2.514 -0.3486 -1.1954 -2.0820
 9264TIP3    H227757   5.589   3.202   2.430  0.1598 -0.4154 -0.7335
 9265TIP3   OH227758   3.416   3.894   3.612 -0.4092  0.6088 -0.2158
 9265TIP3    H127759   3.364   3.974   3.615 -0.5506  0.5117  2.4808
 9265TIP3    H227760   3.460   3.891   3.697 -0.7854 -2.3916 -0.0161
 9266TIP3   OH227761   2.358   2.053   2.209 -0.6690 -0.5041 -0.2593
 9266TIP3    H127762   2.387   2.125   2.264 -0.4133 -0.8769  0.1039
 9266TIP3    H227763   2.422   1.983   2.225 -1.4847 -1.1676  0.1942
 9267TIP3   OH227764   1.850   4.733   5.335 -0.0188  0.1492  0.2817
 9267TIP3    H127765   1.815   4.822   5.330  0.3560  0.2459 -0.9931
 9267TIP3    H227766   1.913   4.737   5.406  0.9974  1.2933 -0.6211
 9268TIP3   OH227767   2.975   5.151   5.748 -0.1178 -0.4579 -0.1357
 9268TIP3    H127768   2.932   5.234   5.729 -0.1936 -0.4958 -0.1282
 9268TIP3    H227769   2.995   5.155   5.842  0.2389 -0.2809 -0.2180
 9269TIP3   OH227770   0.705   1.691   0.837 -0.0363  0.4594  0.0959
 9269TIP3    H127771   0.775   1.714   0.899  0.5656 -3.6291  1.1952
 9269TIP3    H227772   0.629   1.673   0.891 -0.8461  1.0985 -0.7888
 9270TIP3   OH227773   6.682   2.857   1.427 -0.0842  0.1433 -0.1923
 9270TIP3    H127774   6.649   2.788   1.484 -2.1591  0.2303 -1.2080
 9270TIP3    H227775   6.777   2.847   1.431 -0.2816 -1.9700  0.6361
 9271TIP3   OH227776   3.007   4.740   3.477 -0.3664 -0.2933 -0.3223
 9271TIP3    H127777   3.067   4.675   3.438 -0.4029  1.0928 -2.8993
 9271TIP3    H227778   3.062   4.788   3.540  1.0305  0.3276 -1.9447
 9272TIP3   OH227779   0.254   1.319   5.053 -0.3398 -0.7274 -0.1052
 9272TIP3    H127780   0.215   1.405   5.065  0.3745 -0.1448 -1.7427
 9272TIP3    H227781   0.181   1.258   5.066 -1.7065  0.2875 -2.3941
 9273TIP3   OH227782   7.105   0.378   4.411  0.3196 -0.5025  0.0724
 9273TIP3    H127783   7.043   0.313   4.446 -0.3846  1.0322  1.8001
 9273TIP3    H227784   7.050   0.437   4.359  0.3973  0.5356  1.1423
 9274TIP3   OH227785   4.658   4.943   2.733  0.4840 -0.9910  0.2535
 9274TIP3    H127786   4.708   4.872   2.773  0.3431 -0.0548  2.2442
 9274TIP3    H227787   4.703   5.023   2.761  0.0694 -0.2450 -1.1133
 9275TIP3   OH227788   0.670   4.106   2.543 -0.3079  0.1643  0.4393
 9275TIP3    H127789   0.578   4.128   2.529 -1.0516 -2.3824  0.7644
 9275TIP3    H227790   0.706   4.180   2.593 -2.9650 -0.0451  2.8984
 9276TIP3   OH227791   2.086   3.331   3.936 -0.5960  0.8661 -0.2278
 9276TIP3    H127792   2.121   3.418   3.916  2.0676  0.0453  0.5350
 9276TIP3    H227793   2.142   3.298   4.007 -1.2333 -1.6705 -0.8117
 9277TIP3   OH227794   1.215   1.220   2.601  0.2921  0.4382  0.2048
 9277TIP3    H127795   1.151   1.162   2.561 -1.3279  0.9748  1.9117
 9277TIP3    H227796   1.288   1.163   2.626 -0.3357 -0.4866 -0.0448
 9278TIP3   OH227797   4.218   1.139   1.410  0.0319 -0.5085  0.0312
 9278TIP3    H127798   4.168   1.213   1.444 -0.1516 -0.4065 -0.4646
 9278TIP3    H227799   4.153   1.078   1.377  0.2501  0.0558 -1.5175
 9279TIP3   OH227800   5.929   5.672   3.276  0.6520  0.2289  0.0630
 9279TIP3    H127801   5.851   5.630   3.241  0.6732  0.2363  0.0080
 9279TIP3    H227802   5.998   5.653   3.213  0.9242 -0.6145  0.5946
 9280TIP3   OH227803   4.815   2.284   0.281 -0.6284 -0.4409  0.3677
 9280TIP3    H127804   4.805   2.377   0.262 -1.7586 -0.2403  1.8097
 9280TIP3    H227805   4.784   2.240   0.201  1.7918  0.3754 -1.1191
 9281TIP3   OH227806   4.009   3.945   0.115  0.7261  0.3548  0.3358
 9281TIP3    H127807   3.949   3.966   0.044  0.6110  0.3034  0.4190
 9281TIP3    H227808   3.953   3.925   0.190  0.8439  1.2194  0.6736
 9282TIP3   OH227809   3.226   4.720   1.347 -0.1869 -0.1807 -0.4909
 9282TIP3    H127810   3.167   4.718   1.272  0.4847  1.3328 -1.1073
 9282TIP3    H227811   3.314   4.717   1.308  0.1698 -0.9913  0.3369
 9283TIP3   OH227812   6.750   3.148   0.267  0.3535  0.2713 -0.2395
 9283TIP3    H127813   6.773   3.056   0.270  1.1369  0.4791  2.0783
 9283TIP3    H227814   6.705   3.159   0.184 -0.7692 -2.4163 -0.0719
 9284TIP3   OH227815   3.634   3.885   3.024  0.0718  0.3080  0.2300
 9284TIP3    H127816   3.583   3.833   2.962  2.2994 -1.2950 -0.3836
 9284TIP3    H227817   3.684   3.946   2.969 -1.7966  2.5916  0.8845
 9285TIP3   OH227818   7.055   0.127   3.064 -0.4752  0.5051 -0.0124
 9285TIP3    H127819   7.046   0.167   2.977 -1.3630 -1.3244 -0.8015
 9285TIP3    H227820   6.966   0.126   3.099 -0.2656  0.3511  0.5237
 9286TIP3   OH227821   2.417   6.387   0.758 -0.5704 -0.1059  0.4999
 9286TIP3    H127822   2.353   6.361   0.823 -0.6201 -0.4732  0.3077
 9286TIP3    H227823   2.501   6.359   0.794 -0.4745  0.6344  0.8861
 9287TIP3   OH227824   5.086   0.249   2.809 -0.5134  0.6685 -0.1380
 9287TIP3    H127825   5.154   0.309   2.843 -0.1608 -0.3793  1.1004
 9287TIP3    H227826   5.063   0.285   2.723  1.9889  0.7663 -0.8376
 9288TIP3   OH227827   5.967   2.026   2.684 -0.0056  0.6038  0.3198
 9288TIP3    H127828   5.999   2.087   2.618 -0.2422 -0.6356 -0.9899
 9288TIP3    H227829   6.045   2.004   2.736  0.8247 -0.5306 -1.3163
 9289TIP3   OH227830   3.658   1.775   3.258  0.0374  0.6284 -0.4088
 9289TIP3    H127831   3.672   1.705   3.194  0.3459 -0.1657  0.5129
 9289TIP3    H227832   3.568   1.765   3.287 -0.4611  1.6667 -1.4849
 9290TIP3   OH227833   1.000   2.142   5.274  0.0353  0.0743 -0.3685
 9290TIP3    H127834   0.981   2.216   5.217 -0.6451 -0.8549 -1.4106
 9290TIP3    H227835   1.094   2.149   5.292 -0.2150  1.7323  0.3987
 9291TIP3   OH227836   3.647   2.245   5.345 -0.2076  0.3839  0.0508
 9291TIP3    H127837   3.633   2.339   5.348  0.4827  0.5769 -1.5767
 9291TIP3    H227838   3.587   2.209   5.410 -0.5659  1.9251  0.6099
 9292TIP3   OH227839   5.743  -0.008   2.260 -0.1919 -0.3591  0.9127
 9292TIP3    H127840   5.828   0.028   2.285  0.0876 -0.6143  0.3559
 9292TIP3    H227841   5.684   0.068   2.257  0.6797  0.3145 -1.5190
 9293TIP3   OH227842   5.643   2.884   2.122 -0.0924 -0.2784  0.8003
 9293TIP3    H127843   5.652   2.832   2.042 -1.3032 -0.0950  0.5251
 9293TIP3    H227844   5.733   2.912   2.142  0.4359 -1.5680  0.3622
 9294TIP3   OH227845   7.123   3.099   2.024 -0.4426  0.1207  0.3470
 9294TIP3    H127846   7.049   3.123   1.968 -0.3637  0.7035  0.4819
 9294TIP3    H227847   7.095   3.018   2.066 -0.6879 -0.0776 -0.1886
 9295TIP3   OH227848   3.782   0.427   0.908  0.1906 -0.1550 -0.3101
 9295TIP3    H127849   3.845   0.402   0.840  1.4826  1.2910  0.2996
 9295TIP3    H227850   3.834   0.432   0.988 -1.1068 -0.8015  0.6097
 9296TIP3   OH227851   1.879   4.234   0.505  0.4822 -0.5258 -0.3832
 9296TIP3    H127852   1.816   4.177   0.549  0.8304 -1.0099 -0.5030
 9296TIP3    H227853   1.827   4.284   0.442  0.1555 -0.6185 -0.1852
 9297TIP3   OH227854   2.591   2.351   3.856  0.7458  0.1068 -0.4317
 9297TIP3    H127855   2.523   2.356   3.788  1.9553 -0.4899 -1.7244
 9297TIP3    H227856   2.541   2.348   3.938 -0.8020 -0.3006 -1.3313
 9298TIP3   OH227857   6.051   6.147   5.605 -0.4858 -0.4454 -0.0962
 9298TIP3    H127858   6.104   6.150   5.526 -1.4781  0.1076 -0.7640
 9298TIP3    H227859   5.961   6.149   5.574 -0.9180  1.6309  1.0646
 9299TIP3   OH227860   1.897   1.923   5.417  0.1529 -0.0292 -0.2354
 9299TIP3    H127861   1.811   1.962   5.399  0.2713 -0.1928 -1.2122
 9299TIP3    H227862   1.959   1.995   5.400  0.2528 -0.1272 -0.2847
 9300TIP3   OH227863   0.089   3.575   3.665  0.1603  0.0543 -0.0233
 9300TIP3    H127864   0.142   3.500   3.692 -1.6797 -0.9843  0.9551
 9300TIP3    H227865   0.094   3.636   3.738 -0.9549 -0.6196  0.6533
 9301TIP3   OH227866   6.528   0.555   2.068  0.0991 -0.4000 -0.0816
 9301TIP3    H127867   6.512   0.647   2.090  0.9057 -0.1222 -0.5950
 9301TIP3    H227868   6.623   0.550   2.056  0.1387 -1.4459  0.5544
 9302TIP3   OH227869   5.852   4.166   3.771 -0.1597 -0.5730  0.1055
 9302TIP3    H127870   5.848   4.102   3.700  2.4711 -0.1609 -0.5542
 9302TIP3    H227871   5.767   4.161   3.814 -0.6520 -3.2424 -0.9838
 9303TIP3   OH227872   2.202   4.287   4.409 -0.1756  0.1162 -0.0663
 9303TIP3    H127873   2.147   4.232   4.465  2.7198 -1.3710  1.5752
 9303TIP3    H227874   2.264   4.327   4.470  1.8125  0.0858 -1.9682
 9304TIP3   OH227875   4.637   1.670   3.061  0.1453 -0.4741  0.4531
 9304TIP3    H127876   4.704   1.629   3.006  0.3165  0.1843  0.1656
 9304TIP3    H227877   4.649   1.764   3.048 -1.0638 -0.3561  0.1301
 9305TIP3   OH227878   2.927   6.602   0.713 -0.8135  0.4590  0.0529
 9305TIP3    H127879   2.962   6.513   0.714 -0.1284  0.6823 -1.4703
 9305TIP3    H227880   2.950   6.637   0.799  0.6051 -0.2099 -0.0145
 9306TIP3   OH227881   7.077   3.174   5.250 -0.2979 -0.0484 -0.4984
 9306TIP3    H127882   7.015   3.166   5.178  0.7928 -1.4111 -1.3333
 9306TIP3    H227883   7.032   3.139   5.326 -0.5427 -1.0723 -1.1066
 9307TIP3   OH227884   4.565   5.715   2.526 -0.0601 -0.1825 -0.8115
 9307TIP3    H127885   4.577   5.804   2.492  0.6269  0.6690  1.4755
 9307TIP3    H227886   4.638   5.665   2.489  0.7978  0.7562 -0.4431
 9308TIP3   OH227887   4.373   3.053   3.527  0.1392 -0.1756  0.4627
 9308TIP3    H127888   4.325   3.117   3.476 -0.0552 -1.0290 -0.4526
 9308TIP3    H227889   4.454   3.039   3.479 -0.7018 -2.1139 -0.4867
 9309TIP3   OH227890   1.723   0.953   2.739 -0.0790  0.2731 -0.0921
 9309TIP3    H127891   1.723   0.872   2.790  0.1478  0.8187  0.7843
 9309TIP3    H227892   1.770   1.016   2.793  2.4546  0.2341 -1.9996
 9310TIP3   OH227893   7.160   1.477   3.245  0.5852  0.4561  0.2554
 9310TIP3    H127894   7.151   1.423   3.166  1.2636  0.8092 -0.0717
 9310TIP3    H227895   7.070   1.502   3.268  0.5002  1.9292 -1.5148
 9311TIP3   OH227896   4.105   6.490   0.860 -0.1134  0.1055 -0.2786
 9311TIP3    H127897   4.149   6.571   0.885 -0.8141 -0.0757  1.7245
 9311TIP3    H227898   4.086   6.501   0.766  0.2231  2.0453 -0.1658
 9312TIP3   OH227899   1.838   3.675   5.518  0.0102 -0.2298  0.1594
 9312TIP3    H127900   1.815   3.660   5.427 -0.7622 -0.3418  0.3618
 9312TIP3    H227901   1.803   3.599   5.564  0.4570 -0.2096  0.5377
 9313TIP3   OH227902   2.424   2.639   5.169  0.5850 -0.0254 -0.0246
 9313TIP3    H127903   2.509   2.647   5.124  0.5526 -0.8397 -0.2457
 9313TIP3    H227904   2.388   2.728   5.167 -0.2625 -0.3284 -3.2835
 9314TIP3   OH227905   7.147   1.855   4.710 -0.1631 -0.4927  0.5698
 9314TIP3    H127906   7.064   1.898   4.689 -0.9291 -2.0971  0.2426
 9314TIP3    H227907   7.207   1.883   4.640 -0.3290  0.8334  0.9210
 9315TIP3   OH227908   3.450   5.825   0.632 -0.1825 -0.1020 -0.2601
 9315TIP3    H127909   3.405   5.888   0.576 -0.2434 -0.0478 -0.1491
 9315TIP3    H227910   3.424   5.848   0.721  0.9254  0.6216 -0.1001
 9316TIP3   OH227911   6.611   3.713   4.045  0.2134 -0.3974 -0.1802
 9316TIP3    H127912   6.666   3.707   3.967  0.7947  0.6325  0.1175
 9316TIP3    H227913   6.674   3.722   4.117 -0.2832 -2.3179  0.5435
 9317TIP3   OH227914   3.818   1.723   4.703  0.2196 -0.2188  0.5586
 9317TIP3    H127915   3.812   1.633   4.736 -2.8884  0.0526  1.0369
 9317TIP3    H227916   3.761   1.774   4.761 -1.1254  1.3128 -1.9232
 9318TIP3   OH227917   3.799   3.364   3.214  0.3409  0.0269  0.1957
 9318TIP3    H127918   3.890   3.392   3.211  0.0993  0.7654 -0.9062
 9318TIP3    H227919   3.775   3.367   3.307  1.2769  0.3311  0.4297
 9319TIP3   OH227920   0.807   0.785   2.137  0.1605  0.3142 -0.3640
 9319TIP3    H127921   0.889   0.766   2.182 -0.0864  0.0740 -0.0160
 9319TIP3    H227922   0.831   0.853   2.073  0.3516  1.2726  0.6902
 9320TIP3   OH227923   4.584   5.989   3.060 -0.3797 -0.5103 -0.1095
 9320TIP3    H127924   4.630   6.068   3.088 -0.5651 -0.7638  0.9701
 9320TIP3    H227925   4.565   5.943   3.142 -2.9312 -0.2272 -0.4818
 9321TIP3   OH227926   6.522   3.497   1.285  0.1707 -0.9131  0.8694
 9321TIP3    H127927   6.432   3.523   1.266  0.5339 -0.3848 -0.1812
 9321TIP3    H227928   6.545   3.437   1.214  0.0805 -2.4434  2.0704
 9322TIP3   OH227929   0.168   6.735   3.417 -0.9775  0.1027 -0.1041
 9322TIP3    H127930   0.180   6.816   3.367  0.7499 -0.4223 -0.6236
 9322TIP3    H227931   0.147   6.765   3.506  0.1848  1.1693 -0.1467
 9323TIP3   OH227932   4.434   4.421   5.803  0.4843 -0.2095  0.0806
 9323TIP3    H127933   4.458   4.329   5.791  0.1588 -0.2867  0.0100
 9323TIP3    H227934   4.518   4.467   5.809  0.6690 -0.7075  1.7206
 9324TIP3   OH227935   7.077   1.282   0.495 -0.4103  0.4817  0.4598
 9324TIP3    H127936   7.016   1.272   0.567  1.8328  1.0823  2.5871
 9324TIP3    H227937   7.067   1.372   0.466  0.7631  1.2079  2.1599
 9325TIP3   OH227938   3.918   2.599   1.927 -0.1250  0.7894 -0.6708
 9325TIP3    H127939   4.008   2.602   1.896  0.5146  2.2345  1.1528
 9325TIP3    H227940   3.924   2.617   2.021 -2.2073 -0.4726 -0.2439
 9326TIP3   OH227941   2.596   5.636   0.400  0.4351 -0.1920 -0.2401
 9326TIP3    H127942   2.591   5.548   0.436 -0.5871 -0.4021 -0.8762
 9326TIP3    H227943   2.530   5.686   0.448  0.0468 -0.1214 -0.8460
 9327TIP3   OH227944   2.550   1.636   5.364  0.3888 -0.3421  0.2397
 9327TIP3    H127945   2.574   1.590   5.445  0.1090  0.8678  1.0225
 9327TIP3    H227946   2.536   1.565   5.301  0.4560 -1.3215  1.2771
 9328TIP3   OH227947   2.383   3.768   0.432 -0.1200  0.2433 -0.0856
 9328TIP3    H127948   2.360   3.754   0.340 -0.0937  2.9037 -0.5938
 9328TIP3    H227949   2.299   3.771   0.478 -0.1524 -0.7324 -0.0695
 9329TIP3   OH227950   2.721   4.918   5.740 -0.5319  0.3078 -0.1570
 9329TIP3    H127951   2.796   4.877   5.696  0.2964  0.5859  0.9567
 9329TIP3    H227952   2.647   4.862   5.718  0.0405 -0.0962 -1.1083
 9330TIP3   OH227953   3.220   3.848   3.894 -0.6462  0.2766  0.6983
 9330TIP3    H127954   3.282   3.920   3.884 -0.2144 -0.2435 -0.4864
 9330TIP3    H227955   3.275   3.772   3.913 -0.9727 -0.0496  0.3552
 9331TIP3   OH227956   1.667   1.482   3.700  0.1367 -0.6725  0.5741
 9331TIP3    H127957   1.635   1.517   3.617 -0.3388 -1.7255  0.2988
 9331TIP3    H227958   1.753   1.446   3.679  1.1804  1.3612  1.1221
 9332TIP3   OH227959   2.464   0.190   5.381 -0.2148 -0.3685  0.3581
 9332TIP3    H127960   2.559   0.180   5.367  0.3570  1.2951  2.4186
 9332TIP3    H227961   2.457   0.270   5.433 -2.7271 -0.7666  0.7218
 9333TIP3   OH227962   1.028   0.570   1.076  0.0448  0.2461 -0.2685
 9333TIP3    H127963   1.030   0.601   0.986 -0.1079 -1.0731 -0.7475
 9333TIP3    H227964   0.974   0.492   1.073  0.6705 -0.2495  0.8237
 9334TIP3   OH227965   2.767   2.401   1.031 -0.2461 -0.0002  0.1424
 9334TIP3    H127966   2.680   2.435   1.050 -0.1989 -0.7594  1.9283
 9334TIP3    H227967   2.772   2.319   1.080  1.8680  0.5726  0.9957
 9335TIP3   OH227968   6.038   5.645   1.283 -0.3082 -0.0250 -0.3863
 9335TIP3    H127969   6.128   5.660   1.252  1.1939 -1.5869  2.7917
 9335TIP3    H227970   6.025   5.712   1.351 -1.1648 -0.4372 -0.1363
 9336TIP3   OH227971   4.388   1.585   4.990  0.0787  0.2089  0.3179
 9336TIP3    H127972   4.316   1.567   5.050  1.3667 -0.4824  1.7269
 9336TIP3    H227973   4.352   1.649   4.929 -1.6640  0.0273  1.0799
 9337TIP3   OH227974   0.896   6.583   1.772  0.1384  0.1313  0.0055
 9337TIP3    H127975   0.886   6.489   1.757  0.4937 -0.1527  1.4041
 9337TIP3    H227976   0.923   6.618   1.687  0.3547 -1.0886 -0.4476
 9338TIP3   OH227977   2.945   4.738   3.199 -0.3971  0.2612  0.2285
 9338TIP3    H127978   2.858   4.699   3.200 -0.4098  0.2257 -0.8236
 9338TIP3    H227979   2.956   4.775   3.287 -1.5944  0.5268  0.2905
 9339TIP3   OH227980   6.463   0.785   2.414  0.2372  0.6064  0.3075
 9339TIP3    H127981   6.529   0.788   2.483 -1.1413 -0.2298  1.7513
 9339TIP3    H227982   6.462   0.694   2.385 -0.4483  0.5331  0.5222
 9340TIP3   OH227983   3.485   3.873   3.993  0.2602 -0.3371 -0.5486
 9340TIP3    H127984   3.477   3.802   4.056 -2.0278 -0.3453 -0.7630
 9340TIP3    H227985   3.536   3.836   3.921  1.7742 -0.7393  0.6820
 9341TIP3   OH227986   6.653   1.091   3.374  0.2114 -0.6724  0.1593
 9341TIP3    H127987   6.729   1.145   3.396 -0.6395  0.7624 -0.3429
 9341TIP3    H227988   6.647   1.094   3.279 -0.7348 -0.4085  0.2197
 9342TIP3   OH227989   4.756   5.820   1.566 -0.0021  0.0207  0.0464
 9342TIP3    H127990   4.807   5.858   1.495  1.2196  0.2826  1.0147
 9342TIP3    H227991   4.813   5.828   1.643 -1.8051  0.9983  1.3420
 9343TIP3   OH227992   2.550   0.845   3.316 -0.2510  0.8090 -0.5209
 9343TIP3    H127993   2.508   0.879   3.236  0.7106 -1.0889 -1.9047
 9343TIP3    H227994   2.479   0.803   3.364 -0.8148  1.8447 -0.4115
 9344TIP3   OH227995   3.423   4.985   0.383  0.5619 -0.4716 -0.4345
 9344TIP3    H127996   3.505   4.953   0.344  0.5987 -1.7247  0.5598
 9344TIP3    H227997   3.427   5.080   0.373  2.0002 -0.5280 -0.6989
 9345TIP3   OH227998   2.462   2.756   0.458  0.0657  0.1116 -0.6301
 9345TIP3    H127999   2.554   2.782   0.447  0.3428  0.3435  1.7327
 9345TIP3    H228000   2.465   2.683   0.519 -1.2745 -0.6669 -1.4548
 9346TIP3   OH228001   0.593   2.960   4.009 -0.3047 -0.0331  0.1364
 9346TIP3    H128002   0.641   2.973   4.090  0.2272 -2.0109  0.1925
 9346TIP3    H228003   0.508   3.002   4.024 -0.2289 -0.3967  1.7487
 9347TIP3   OH228004   4.977   5.428   5.540 -0.0590  0.0736  0.5612
 9347TIP3    H128005   5.014   5.484   5.472  0.6271 -2.7857 -1.5839
 9347TIP3    H228006   4.955   5.488   5.611  1.4092  2.9022 -1.2140
 9348TIP3   OH228007   2.731   1.297   3.397 -0.5385  0.2225  0.1099
 9348TIP3    H128008   2.737   1.393   3.394  0.1377  0.2382  1.2834
 9348TIP3    H228009   2.725   1.277   3.490  0.1946 -0.9275 -0.0788
 9349TIP3   OH228010   3.138   1.886   4.624 -0.4280 -0.2353 -0.8254
 9349TIP3    H128011   3.071   1.946   4.590  0.4007 -0.6634 -3.4202
 9349TIP3    H228012   3.099   1.799   4.613 -1.5364 -0.3750  2.7194
 9350TIP3   OH228013   5.586   3.821   4.932  0.2205  0.7314 -0.2239
 9350TIP3    H128014   5.513   3.846   4.988  1.7152  0.8274  1.7736
 9350TIP3    H228015   5.661   3.867   4.969  1.5269 -0.3005 -1.4891
 9351TIP3   OH228016   4.950   2.614  -0.015 -0.4550 -0.5824  0.0749
 9351TIP3    H128017   4.996   2.644   0.063 -1.0673  0.9329 -0.1274
 9351TIP3    H228018   4.870   2.666  -0.018  0.1678  0.3574 -2.2760
 9352TIP3   OH228019   2.534   4.032   4.943  0.4251  0.1458  0.1226
 9352TIP3    H128020   2.576   4.116   4.924  1.0485  0.0098  0.8413
 9352TIP3    H228021   2.440   4.052   4.942  0.5794  1.0339  1.0423
 9353TIP3   OH228022   1.511   0.758   1.126  0.0287 -0.0948 -0.3464
 9353TIP3    H128023   1.534   0.835   1.179 -1.9108 -0.5065  1.2242
 9353TIP3    H228024   1.592   0.733   1.083  1.1517  1.6782  0.6125
 9354TIP3   OH228025   2.732   5.238   3.749  0.5728  0.1762 -0.0002
 9354TIP3    H128026   2.667   5.260   3.816  0.6298 -0.8929  0.4273
 9354TIP3    H228027   2.754   5.146   3.766  1.5510  0.2700 -0.6862
 9355TIP3   OH228028   6.458   5.784   2.849 -0.2313 -0.3838  0.2645
 9355TIP3    H128029   6.404   5.720   2.803  0.5646 -1.2855  0.5507
 9355TIP3    H228030   6.510   5.732   2.910 -1.7968  0.8274  2.7809
 9356TIP3   OH228031   6.265   0.605   5.080  0.2262  0.6161 -0.3488
 9356TIP3    H128032   6.176   0.615   5.047 -0.1446  2.0733  0.9961
 9356TIP3    H228033   6.256   0.596   5.174  1.5149  0.9812 -0.1623
 9357TIP3   OH228034   4.737   2.705   4.034  0.6626  0.4134 -0.2338
 9357TIP3    H128035   4.646   2.693   4.008  1.2043 -1.2392 -1.6121
 9357TIP3    H228036   4.754   2.798   4.022 -1.0136  0.8812  0.7198
 9358TIP3   OH228037   2.155   5.836   2.842  0.0549  0.0822  0.5913
 9358TIP3    H128038   2.243   5.868   2.861  0.1154  0.7810 -0.8022
 9358TIP3    H228039   2.160   5.742   2.863  1.2312  0.0385  0.2421
 9359TIP3   OH228040   2.262   1.264   0.318 -0.0603 -0.3300  0.1070
 9359TIP3    H128041   2.213   1.190   0.354  0.9582 -1.5107 -0.8440
 9359TIP3    H228042   2.335   1.224   0.271  1.8228  1.3389  1.4134
 9360TIP3   OH228043   1.570   2.364   4.506  0.0219  0.0850  0.1982
 9360TIP3    H128044   1.550   2.270   4.511 -0.0105  0.0048 -1.0376
 9360TIP3    H228045   1.665   2.368   4.502  0.0020  0.0551 -0.4009
 9361TIP3   OH228046   6.684   4.913   1.646  0.0833 -0.1066 -0.0537
 9361TIP3    H128047   6.698   4.906   1.740 -1.2047  0.4517  0.2118
 9361TIP3    H228048   6.598   4.955   1.638 -0.7625 -1.9845 -1.4882
 9362TIP3   OH228049   3.298   6.466   4.692  0.1405 -0.3159  0.5163
 9362TIP3    H128050   3.230   6.513   4.642  0.2772 -1.6434 -1.0044
 9362TIP3    H228051   3.380   6.493   4.651  0.3221 -0.7812  0.5778
 9363TIP3   OH228052   1.404   3.145   5.274 -0.7979 -0.3598 -0.5069
 9363TIP3    H128053   1.487   3.111   5.240 -0.9687 -0.9020 -0.4018
 9363TIP3    H228054   1.368   3.196   5.201  0.4765  1.4566  0.0557
 9364TIP3   OH228055   1.699   1.431   0.640 -0.4943  0.0554  0.1404
 9364TIP3    H128056   1.619   1.456   0.594  0.1543  1.8148 -0.0928
 9364TIP3    H228057   1.705   1.493   0.712  0.5655 -0.1966  0.2849
 9365TIP3   OH228058   0.844   6.326   5.094 -0.1116 -0.3084  0.0429
 9365TIP3    H128059   0.930   6.330   5.137 -0.2953 -0.7155  0.4612
 9365TIP3    H228060   0.801   6.408   5.118  0.7416  0.6409 -1.4644
 9366TIP3   OH228061   2.581   5.796   0.065  0.3761 -0.1740 -0.2267
 9366TIP3    H128062   2.502   5.835   0.104 -0.5301 -1.6540 -0.5339
 9366TIP3    H228063   2.550   5.753  -0.014  1.6004 -0.3437 -0.6273
 9367TIP3   OH228064   5.576   4.840   4.699 -0.4191 -0.0488 -0.0091
 9367TIP3    H128065   5.508   4.823   4.633  0.2362  2.1054 -1.3122
 9367TIP3    H228066   5.598   4.932   4.688  1.3531 -0.2048  1.7287
 9368TIP3   OH228067   2.983   1.882   3.490  0.1991  0.2287  0.2564
 9368TIP3    H128068   2.966   1.971   3.522 -1.3957 -0.1021  0.4165
 9368TIP3    H228069   2.950   1.882   3.400  2.4545  0.4606 -0.6491
 9369TIP3   OH228070   6.205   0.252   1.433  0.1056  0.0686 -0.3486
 9369TIP3    H128071   6.283   0.307   1.431 -0.4947  0.9186 -1.2927
 9369TIP3    H228072   6.141   0.299   1.380 -1.0723 -0.5862  0.4423
 9370TIP3   OH228073   3.113   6.529   1.427 -0.0100  0.6079  0.0339
 9370TIP3    H128074   3.062   6.563   1.501 -0.6664  1.6920 -0.8862
 9370TIP3    H228075   3.184   6.592   1.416  1.4444 -0.7538  1.1369
 9371TIP3   OH228076   7.181   3.964   0.063  0.3298  0.2232 -0.1222
 9371TIP3    H128077   7.172   3.944  -0.030 -0.9981 -0.9676  0.2278
 9371TIP3    H228078   7.264   3.924   0.089  1.0348  1.1286 -0.9088
 9372TIP3   OH228079   4.210   3.564   4.411 -0.5578 -0.0464 -0.2519
 9372TIP3    H128080   4.272   3.587   4.341  0.4242  0.6538  0.8093
 9372TIP3    H228081   4.199   3.470   4.402 -0.1796 -0.0271 -1.1376
 9373TIP3   OH228082   2.464   0.653   2.761 -0.0527 -0.1942  0.3582
 9373TIP3    H128083   2.490   0.660   2.853  0.1359  0.4206  0.2629
 9373TIP3    H228084   2.431   0.740   2.739 -0.5748 -0.4832 -0.0152
 9374TIP3   OH228085   0.272   3.310   3.608  0.2900  0.4170  0.1600
 9374TIP3    H128086   0.214   3.312   3.532 -0.2906 -0.1882  0.5706
 9374TIP3    H228087   0.270   3.219   3.637 -0.1867  0.7882  1.4064
 9375TIP3   OH228088   5.235   3.475   4.722 -0.1805  0.1056  0.1953
 9375TIP3    H128089   5.200   3.538   4.786 -0.6524  2.0460 -1.8274
 9375TIP3    H228090   5.162   3.415   4.705 -0.5612  0.5087  0.3795
 9376TIP3   OH228091   6.239   3.592   3.612  0.2113 -0.0730 -0.7421
 9376TIP3    H128092   6.267   3.507   3.579  0.5861  0.4324 -1.7781
 9376TIP3    H228093   6.158   3.611   3.564 -0.3254 -0.2137  0.0968
 9377TIP3   OH228094   2.313   4.052   1.245  0.3968  0.3505 -0.4886
 9377TIP3    H128095   2.320   4.075   1.338 -0.3153  0.9367 -0.5730
 9377TIP3    H228096   2.235   4.098   1.215  0.8474  0.4835 -1.4775
 9378TIP3   OH228097   3.973   5.983   3.184 -0.2267 -0.1675 -0.3012
 9378TIP3    H128098   4.029   6.051   3.221 -0.2907  1.0156 -2.2188
 9378TIP3    H228099   3.884   6.010   3.209 -0.2152  0.2148 -0.6520
 9379TIP3   OH228100   0.770   2.458   4.056  0.8966 -0.2650 -0.3684
 9379TIP3    H128101   0.863   2.441   4.072  0.7471  0.3004  1.3737
 9379TIP3    H228102   0.741   2.506   4.134 -1.0709 -1.2778 -0.4006
 9380TIP3   OH228103   0.795   3.785   4.895 -0.1497 -0.4482 -0.5002
 9380TIP3    H128104   0.787   3.717   4.961 -0.5281 -0.0005 -0.0754
 9380TIP3    H228105   0.770   3.866   4.940 -0.4333 -0.1380 -1.1911
 9381TIP3   OH228106   5.134   2.217   1.677 -0.2051  0.2722 -0.1436
 9381TIP3    H128107   5.167   2.138   1.634 -2.0090 -1.1843  1.0084
 9381TIP3    H228108   5.174   2.215   1.764  1.4324  1.8597 -0.7762
 9382TIP3   OH228109   3.991   0.260   5.435  0.3495 -0.3967  0.5280
 9382TIP3    H128110   3.896   0.250   5.432  0.0624  1.7934  0.8921
 9382TIP3    H228111   4.014   0.296   5.350  0.3284  2.4567  1.6393
 9383TIP3   OH228112   7.136   2.794   1.753  0.2324 -0.3237 -0.1185
 9383TIP3    H128113   7.145   2.856   1.825  0.8271 -0.7382  0.1736
 9383TIP3    H228114   7.190   2.719   1.779 -0.0908 -0.7624 -0.6834
 9384TIP3   OH228115   5.268   4.590   5.391 -0.1980 -0.3294  0.4164
 9384TIP3    H128116   5.179   4.600   5.357  0.4466  0.9063 -1.0716
 9384TIP3    H228117   5.319   4.656   5.343  1.6150 -1.3507  0.8435
 9385TIP3   OH228118   4.826   0.848   5.538 -0.1873 -0.0142  0.4400
 9385TIP3    H128119   4.912   0.890   5.534 -0.4520  0.6165  1.2389
 9385TIP3    H228120   4.766   0.912   5.501 -0.8317  1.0069  3.0462
 9386TIP3   OH228121   2.364   3.674   0.777 -0.1325 -0.5533 -0.3663
 9386TIP3    H128122   2.429   3.714   0.834 -0.0737 -0.9031 -0.1908
 9386TIP3    H228123   2.291   3.736   0.776 -0.5215 -0.9726  0.8258
 9387TIP3   OH228124   0.571   3.574   4.836 -0.4436  0.2013 -0.2161
 9387TIP3    H128125   0.629   3.647   4.814  1.6241 -0.8784  1.3043
 9387TIP3    H228126   0.493   3.616   4.873  0.3747  1.6825 -0.0945
 9388TIP3   OH228127   0.785   6.474   0.271  0.1199  0.1788  0.3700
 9388TIP3    H128128   0.758   6.401   0.215 -0.8489  0.7347  0.0911
 9388TIP3    H228129   0.757   6.449   0.358 -0.8819  0.5392  0.1565
 9389TIP3   OH228130   4.179   4.565   4.556  0.2205 -0.2332 -0.4340
 9389TIP3    H128131   4.226   4.482   4.566 -0.0479 -0.9610 -3.9744
 9389TIP3    H228132   4.092   4.547   4.591 -0.3243 -2.0507 -2.4964
 9390TIP3   OH228133   2.583   3.384   1.582 -0.1077 -0.1077  0.4620
 9390TIP3    H128134   2.618   3.453   1.525 -2.1523  0.5738 -0.0824
 9390TIP3    H228135   2.508   3.425   1.626 -0.8982 -1.7404  0.7310
 9391TIP3   OH228136   4.609   3.322   0.933  0.0541 -0.1624  0.0228
 9391TIP3    H128137   4.664   3.380   0.986  0.8360 -2.4411  1.8408
 9391TIP3    H228138   4.530   3.310   0.984 -0.4386 -0.1011 -0.7079
 9392TIP3   OH228139   4.446   1.934   2.147 -0.6078  0.0465 -0.1322
 9392TIP3    H128140   4.419   2.025   2.134  0.9986  0.7249  0.9086
 9392TIP3    H228141   4.515   1.920   2.082 -0.9522 -0.4782 -0.3863
 9393TIP3   OH228142   4.258   2.499   2.983  0.0003 -0.5265 -0.8036
 9393TIP3    H128143   4.176   2.530   3.023 -0.5807 -0.6910 -1.8239
 9393TIP3    H228144   4.324   2.510   3.052 -0.9605 -0.8196  0.2006
 9394TIP3   OH228145   4.809   4.964   3.623 -0.2989  0.1777  0.4089
 9394TIP3    H128146   4.863   4.887   3.640 -1.3776 -0.4229  1.2265
 9394TIP3    H228147   4.842   5.031   3.683 -0.5108 -0.2119  0.9617
 9395TIP3   OH228148   2.070   2.987   0.737  0.1681  0.1438 -0.1189
 9395TIP3    H128149   2.038   2.995   0.826 -2.5862  0.1665 -1.0141
 9395TIP3    H228150   2.134   3.057   0.727 -0.0569  0.6166  1.5934
 9396TIP3   OH228151   7.129   3.025   3.307  0.0863 -0.3449 -0.3218
 9396TIP3    H128152   7.136   3.075   3.389  1.0266 -0.4365 -0.3346
 9396TIP3    H228153   7.219   3.011   3.280 -0.1496  2.1078 -2.8703
 9397TIP3   OH228154   2.432   1.155   4.262 -0.3137  0.0312 -0.5155
 9397TIP3    H128155   2.510   1.168   4.208  0.9719 -0.3889  1.1722
 9397TIP3    H228156   2.386   1.239   4.258  0.7531  0.6244 -0.7421
 9398TIP3   OH228157   1.171   6.745   4.409  0.1883  0.4041  0.0719
 9398TIP3    H128158   1.123   6.663   4.399  0.5017  0.3510 -1.0574
 9398TIP3    H228159   1.145   6.776   4.496 -0.0168 -0.8240  0.4754
 9399TIP3   OH228160   4.982   0.896   2.995 -0.1317 -0.0709  0.3836
 9399TIP3    H128161   5.000   0.921   3.086 -0.8719 -0.4443  0.6465
 9399TIP3    H228162   5.063   0.914   2.948  0.8159 -1.3965  1.4295
 9400TIP3   OH228163   7.025   0.889   2.602  0.1235 -0.3496 -0.4734
 9400TIP3    H128164   7.098   0.927   2.651  0.1916 -0.0886 -0.7765
 9400TIP3    H228165   7.046   0.905   2.511 -0.2908 -0.3201 -0.5652
 9401TIP3   OH228166   1.829   2.207   3.925  0.0311  0.2861 -0.2592
 9401TIP3    H128167   1.796   2.281   3.975  1.2490  0.8107 -0.1962
 9401TIP3    H228168   1.750   2.162   3.893 -0.7258  1.3216  0.1084
 9402TIP3   OH228169   3.758   5.789   3.383  0.0848  0.5212 -0.0225
 9402TIP3    H128170   3.713   5.855   3.332  0.0257  0.2781 -0.2882
 9402TIP3    H228171   3.828   5.836   3.428 -0.7563  1.0043  0.8194
 9403TIP3   OH228172   0.080   4.144   2.186 -0.0883  0.0486 -0.3822
 9403TIP3    H128173   0.011   4.185   2.134  1.0916  0.1820 -1.9061
 9403TIP3    H228174   0.151   4.128   2.124  1.3865  0.2027  1.1741
 9404TIP3   OH228175   4.474   6.204   4.622  0.5163 -0.3103  0.0695
 9404TIP3    H128176   4.488   6.221   4.716 -0.6537 -0.6685  0.3261
 9404TIP3    H228177   4.381   6.183   4.616  0.6673 -0.6577 -1.1299
 9405TIP3   OH228178   1.898   6.664   5.180 -0.6410 -0.0809  0.2804
 9405TIP3    H128179   1.966   6.628   5.123 -1.3785 -0.2622 -0.5028
 9405TIP3    H228180   1.830   6.598   5.181 -1.6817  0.9366 -0.5593
 9406TIP3   OH228181   1.783   4.067   3.774  0.1497  0.9037  0.1065
 9406TIP3    H128182   1.732   4.022   3.706 -0.9104  1.9834  0.1488
 9406TIP3    H228183   1.826   4.139   3.729  0.8023  0.6227  0.2750
 9407TIP3   OH228184   0.892   5.117   0.834  0.0531  0.1167  0.0269
 9407TIP3    H128185   0.947   5.041   0.822  1.3139  1.1748 -1.1761
 9407TIP3    H228186   0.832   5.116   0.760  0.6858  0.7723 -0.5084
 9408TIP3   OH228187   3.302   4.496   3.058 -0.0929  0.5161  0.1440
 9408TIP3    H128188   3.233   4.437   3.088  1.1326 -0.8125  0.4799
 9408TIP3    H228189   3.259   4.581   3.047 -1.3113  0.2449  2.3920
 9409TIP3   OH228190   5.398   0.585   4.466  0.3638  0.0479 -0.1313
 9409TIP3    H128191   5.398   0.489   4.467  0.5843  0.0422 -0.4282
 9409TIP3    H228192   5.486   0.609   4.495  0.2231  0.1667  0.2005
 9410TIP3   OH228193   0.515   3.326   1.628 -0.0324  0.5202  0.0315
 9410TIP3    H128194   0.606   3.337   1.601  0.1255  2.6240  1.2187
 9410TIP3    H228195   0.520   3.314   1.723 -1.0238  1.8347  0.2785
 9411TIP3   OH228196   1.190   6.799   3.887 -0.8189 -0.3787 -0.1481
 9411TIP3    H128197   1.193   6.745   3.967 -1.4318 -2.0201 -1.1825
 9411TIP3    H228198   1.259   6.764   3.832  0.2188  1.3563 -0.0261
 9412TIP3   OH228199   6.448   5.794   1.473  0.6470  0.3453  0.4526
 9412TIP3    H128200   6.383   5.853   1.435  0.4481  0.8794  1.5911
 9412TIP3    H228201   6.419   5.780   1.563 -0.0960 -2.6192 -0.1224
 9413TIP3   OH228202   1.952   3.353   5.125 -0.0508 -0.0534 -0.1385
 9413TIP3    H128203   2.027   3.334   5.069  0.4382 -0.1892  0.5525
 9413TIP3    H228204   1.984   3.341   5.214 -0.4629  1.3786  0.2439
 9414TIP3   OH228205   4.306   3.138   1.883 -0.1851  0.1058  0.1694
 9414TIP3    H128206   4.252   3.212   1.855  0.5255  0.3100 -0.6911
 9414TIP3    H228207   4.393   3.175   1.895 -0.3081 -0.1089  2.0578
 9415TIP3   OH228208   1.186   1.988   1.259 -0.3930  0.2526 -0.0565
 9415TIP3    H128209   1.254   2.011   1.322  0.3676  1.0069 -1.1206
 9415TIP3    H228210   1.111   2.040   1.285 -0.6482 -0.7054  1.2256
 9416TIP3   OH228211   2.854   2.091   3.308 -0.4942  0.4982  0.0514
 9416TIP3    H128212   2.769   2.112   3.271 -0.3861  1.5730  0.3906
 9416TIP3    H228213   2.891   2.026   3.248 -1.1905  0.6674 -0.5707
 9417TIP3   OH228214   4.354   3.067   2.513 -0.3699  0.5902 -0.6130
 9417TIP3    H128215   4.363   2.998   2.578  2.8241  0.3169 -1.1557
 9417TIP3    H228216   4.349   3.021   2.429 -1.5785  0.9835 -0.7656
 9418TIP3   OH228217   4.050   0.065   1.914 -0.2944 -0.1467 -0.2702
 9418TIP3    H128218   4.039   0.108   1.830  0.6027  0.3291 -0.1547
 9418TIP3    H228219   3.998  -0.015   1.908  0.3041 -0.4623 -1.5259
 9419TIP3   OH228220   3.075   2.733   2.798 -0.5824  0.2000 -0.4838
 9419TIP3    H128221   3.060   2.643   2.769 -0.0272 -0.3465  0.8744
 9419TIP3    H228222   3.141   2.767   2.737 -2.7297  0.6217 -2.6948
 9420TIP3   OH228223   0.699   0.736   0.275 -0.7505  0.0669 -0.6146
 9420TIP3    H128224   0.684   0.804   0.341  0.2357  0.3816 -0.6939
 9420TIP3    H228225   0.647   0.764   0.200 -0.2019  0.8657 -0.7185
 9421TIP3   OH228226   3.105   1.069   3.987 -0.0900 -0.4171  0.5654
 9421TIP3    H128227   3.095   1.150   4.036  1.5115 -0.4784  1.0708
 9421TIP3    H228228   3.184   1.029   4.023 -0.4684 -1.8641 -0.1460
 9422TIP3   OH228229   2.932   6.074   2.427  0.0315 -0.6130  0.2379
 9422TIP3    H128230   2.953   6.153   2.376 -1.0154 -0.2474  0.3419
 9422TIP3    H228231   2.924   6.106   2.517  0.4912 -1.0091  0.4223
 9423TIP3   OH228232   3.163   4.627   2.318  0.2805  0.1222 -0.2265
 9423TIP3    H128233   3.105   4.684   2.368  0.1029 -0.8770  0.7380
 9423TIP3    H228234   3.212   4.687   2.262  1.9027  1.5658  2.5080
 9424TIP3   OH228235   5.831   3.973   0.450 -0.0625  0.0431 -0.1074
 9424TIP3    H128236   5.876   3.900   0.407  1.1625  1.0377 -0.5639
 9424TIP3    H228237   5.739   3.947   0.451  0.2494 -1.1693 -0.9498
 9425TIP3   OH228238   4.421   0.237   0.811  0.5439 -0.1320  0.1820
 9425TIP3    H128239   4.462   0.315   0.849  2.0594 -0.1255 -1.3799
 9425TIP3    H228240   4.440   0.168   0.873  0.3571  0.4524  0.9118
 9426TIP3   OH228241   0.800   3.069   3.855  0.2515 -0.2680 -0.2922
 9426TIP3    H128242   0.737   3.009   3.894 -0.9218 -0.5002 -2.3909
 9426TIP3    H228243   0.853   3.099   3.929  0.7615 -3.6571  0.9192
 9427TIP3   OH228244   0.718   5.256   1.447 -0.3231  0.4660  0.4869
 9427TIP3    H128245   0.630   5.256   1.411 -0.3480 -0.8924  0.4939
 9427TIP3    H228246   0.760   5.179   1.409  0.0670 -0.2957  2.3239
 9428TIP3   OH228247   3.282   6.615   2.910 -0.6606  0.2482  0.1395
 9428TIP3    H128248   3.291   6.627   3.005  0.2733  0.1128  0.0824
 9428TIP3    H228249   3.211   6.674   2.885 -0.9418  0.2593  0.9295
 9429TIP3   OH228250   1.650   5.332   3.911  0.5720 -0.7139 -0.0432
 9429TIP3    H128251   1.633   5.256   3.966  0.8076  0.5044  1.7778
 9429TIP3    H228252   1.737   5.363   3.937  0.4629  0.2106 -0.7089
 9430TIP3   OH228253   1.531   0.261   3.826  0.4277 -0.3346 -0.0906
 9430TIP3    H128254   1.620   0.242   3.855  0.7938  0.5595 -0.5567
 9430TIP3    H228255   1.477   0.252   3.904  0.9144 -0.9676  0.1771
 9431TIP3   OH228256   1.381   1.823   5.396 -0.1253  0.0985 -0.0486
 9431TIP3    H128257   1.302   1.770   5.387 -1.0116  1.3638  0.0255
 9431TIP3    H228258   1.372   1.866   5.481  1.0323 -0.3432  0.3166
 9432TIP3   OH228259   4.671   1.211   4.756 -0.3985  0.3646  0.1422
 9432TIP3    H128260   4.591   1.259   4.777  0.1695  0.6495  1.8038
 9432TIP3    H228261   4.682   1.149   4.828  1.7060  1.4361  0.8374
 9433TIP3   OH228262   3.296   1.507   3.707  0.1283  0.0896  0.1901
 9433TIP3    H128263   3.318   1.426   3.753  0.9225 -0.8359 -1.7054
 9433TIP3    H228264   3.371   1.565   3.722 -0.4815  0.5633  1.6242
 9434TIP3   OH228265   2.860   1.175   1.260 -0.4948  0.6199 -0.1474
 9434TIP3    H128266   2.765   1.185   1.270 -0.3925  2.4471 -0.6267
 9434TIP3    H228267   2.870   1.122   1.182 -1.1319  0.8510 -0.3977
 9435TIP3   OH228268   4.041   1.829   0.253 -0.8726  0.2711  0.3965
 9435TIP3    H128269   3.953   1.851   0.283 -0.8982 -0.2695  0.7386
 9435TIP3    H228270   4.099   1.880   0.308 -0.9487 -0.0179  0.7493
 9436TIP3   OH228271   0.999   1.662   4.439 -0.4455  0.3945  0.5802
 9436TIP3    H128272   0.918   1.633   4.481 -0.5449 -0.3788 -0.1265
 9436TIP3    H228273   1.006   1.755   4.462 -1.1993  0.3192  1.1643
 9437TIP3   OH228274   5.922   0.708   5.351  0.1139  0.1240 -0.0646
 9437TIP3    H128275   5.937   0.768   5.278 -1.6702  0.8438  0.1077
 9437TIP3    H228276   6.009   0.689   5.386  0.8018  1.6958 -0.8551
 9438TIP3   OH228277   1.634   5.723   0.952 -0.0118 -0.4079  0.2571
 9438TIP3    H128278   1.728   5.737   0.942 -0.2003  1.2995  0.6347
 9438TIP3    H228279   1.627   5.635   0.989  1.2894 -1.5478 -2.0203
 9439TIP3   OH228280   5.490   1.514   0.643 -0.2091  0.6587  0.0868
 9439TIP3    H128281   5.450   1.590   0.600 -1.0778  0.8424  1.1822
 9439TIP3    H228282   5.420   1.476   0.696  0.1066 -1.1530 -0.7203
 9440TIP3   OH228283   3.257   0.950   1.989 -0.4594 -0.2037  0.0447
 9440TIP3    H128284   3.270   0.973   1.897 -0.8228  0.8615  0.2406
 9440TIP3    H228285   3.329   0.994   2.035  0.4978 -1.8050  0.1506
 9441TIP3   OH228286   5.374   3.617   4.547  0.0014 -0.0255 -0.2114
 9441TIP3    H128287   5.313   3.591   4.616  1.0868 -1.3881  0.2746
 9441TIP3    H228288   5.442   3.549   4.548  0.3520  0.2291 -2.2248
 9442TIP3   OH228289   3.698   5.096   5.334  0.2647 -0.3751 -0.0011
 9442TIP3    H128290   3.673   5.012   5.374  1.6456 -1.3092 -1.0036
 9442TIP3    H228291   3.782   5.118   5.375  0.6785 -0.2977 -0.8618
 9443TIP3   OH228292   2.396   1.128   2.582  0.7015  0.3206  0.4801
 9443TIP3    H128293   2.476   1.094   2.622  0.3686  0.1278  0.9755
 9443TIP3    H228294   2.390   1.082   2.498  0.9047  0.0497  0.6132
 9444TIP3   OH228295   2.559   2.017   3.672 -0.3205  0.3607 -0.0169
 9444TIP3    H128296   2.609   2.098   3.659 -0.5134  0.3477 -0.9024
 9444TIP3    H228297   2.473   2.036   3.636 -0.4178 -0.1821 -0.0760
 9445TIP3   OH228298   1.556   0.246   5.405  0.3129  0.1865  0.6824
 9445TIP3    H128299   1.475   0.199   5.383  0.3524  0.9571 -1.3468
 9445TIP3    H228300   1.526   0.335   5.427  0.5640  0.4048  0.1657
 9446TIP3   OH228301   1.981   1.822   1.830  0.3979  0.0508  0.1453
 9446TIP3    H128302   2.070   1.855   1.840  0.7758 -0.4061 -1.5156
 9446TIP3    H228303   1.926   1.899   1.847  1.2164  1.1193 -1.7618
 9447TIP3   OH228304   0.493   1.533   1.778  0.1831 -0.3474  0.2701
 9447TIP3    H128305   0.476   1.482   1.857 -1.3535  1.1293  0.9356
 9447TIP3    H228306   0.423   1.507   1.718 -0.1695  0.4270  0.3438
 9448TIP3   OH228307   1.689   0.504   2.856  0.1151  0.7979 -0.3572
 9448TIP3    H128308   1.599   0.519   2.826  0.2092  2.6833  0.2120
 9448TIP3    H228309   1.679   0.468   2.944 -0.0911  1.3886 -0.1344
 9449TIP3   OH228310   2.689   5.531   3.578  0.0016  0.5081 -0.2321
 9449TIP3    H128311   2.608   5.504   3.621  1.2553 -2.8311  0.3489
 9449TIP3    H228312   2.736   5.582   3.644 -1.3043  1.9908 -0.3915
 9450TIP3   OH228313   1.265   6.697   0.970 -0.5109  0.3880  0.1639
 9450TIP3    H128314   1.289   6.605   0.980  0.6962  0.9038  2.6382
 9450TIP3    H228315   1.300   6.722   0.884 -1.0271 -1.4758 -0.6220
 9451TIP3   OH228316   4.884   0.695   0.410  0.4943 -0.3517 -0.0303
 9451TIP3    H128317   4.906   0.634   0.339 -0.7336 -1.7306  0.7129
 9451TIP3    H228318   4.968   0.724   0.444  1.1048 -0.7365 -1.1723
 9452TIP3   OH228319   2.359   4.814   0.615 -0.4439 -0.2851 -0.1081
 9452TIP3    H128320   2.444   4.855   0.601 -1.5711  1.7467 -1.4802
 9452TIP3    H228321   2.300   4.861   0.557 -2.6939 -1.0333  1.4428
 9453TIP3   OH228322   2.382   3.041   2.911 -0.1132 -0.1247  0.7440
 9453TIP3    H128323   2.417   2.953   2.906  0.2452  0.0689 -0.3387
 9453TIP3    H228324   2.458   3.097   2.924 -0.3707  0.0090  1.7709
 9454TIP3   OH228325   1.315   3.680   2.571  0.0011  0.0708  0.5162
 9454TIP3    H128326   1.335   3.668   2.664  2.5551 -1.3177 -0.1071
 9454TIP3    H228327   1.397   3.709   2.532 -0.1251 -2.1633 -1.7097
 9455TIP3   OH228328   4.143   2.135   2.754  0.0518  0.0877  0.0254
 9455TIP3    H128329   4.201   2.153   2.828 -0.5160  0.7398  0.3163
 9455TIP3    H228330   4.107   2.220   2.729  1.2149  0.1016 -1.8363
 9456TIP3   OH228331   5.219   4.959   0.202  0.4860 -0.0955  0.3084
 9456TIP3    H128332   5.151   4.926   0.262  0.3964 -1.6691 -0.6017
 9456TIP3    H228333   5.270   4.881   0.179  1.9888  0.8935  0.1708
 9457TIP3   OH228334   4.278   5.036   3.203 -0.0432  0.3250  0.5084
 9457TIP3    H128335   4.235   4.958   3.167  0.9318  0.5114 -1.1567
 9457TIP3    H228336   4.212   5.105   3.197 -0.8873 -0.3111  1.9181
 9458TIP3   OH228337   5.132   2.547   5.690  0.4323  0.0071 -0.0246
 9458TIP3    H128338   5.224   2.534   5.716  1.1123  0.2236 -2.1239
 9458TIP3    H228339   5.122   2.643   5.688  1.3786  0.1831 -3.3309
 9459TIP3   OH228340   3.815   1.061   3.646  0.4063  0.5866 -0.0130
 9459TIP3    H128341   3.785   1.021   3.565 -0.2079  0.5996  0.2032
 9459TIP3    H228342   3.740   1.112   3.677  0.8835  1.1915  0.1726
 9460TIP3   OH228343   1.532   0.932   1.645  0.4845 -0.0036 -0.2098
 9460TIP3    H128344   1.447   0.970   1.667  0.8791  1.0270 -0.4287
 9460TIP3    H228345   1.515   0.838   1.638 -0.3848  0.0559  0.9300
 9461TIP3   OH228346   5.320   5.988   3.030  0.2794  0.2396 -0.2582
 9461TIP3    H128347   5.357   6.009   3.116  0.7190 -0.9197 -0.1448
 9461TIP3    H228348   5.386   6.019   2.967  1.0322 -0.9639 -0.0885
 9462TIP3   OH228349   6.589   1.126   2.859  0.3775 -0.0750 -0.4894
 9462TIP3    H128350   6.519   1.186   2.832  0.0323 -1.0252 -1.8405
 9462TIP3    H228351   6.668   1.160   2.817  0.5267  0.3834  0.1483
 9463TIP3   OH228352   5.643   2.648   0.264 -0.4632 -0.1166  0.3129
 9463TIP3    H128353   5.605   2.621   0.348  0.5258  2.4698  1.6842
 9463TIP3    H228354   5.722   2.595   0.256 -0.9664 -0.9396  0.5884
 9464TIP3   OH228355   4.205   2.172   0.603  0.3175 -0.3365  0.2879
 9464TIP3    H128356   4.202   2.263   0.573 -0.7486 -0.0600  1.1813
 9464TIP3    H228357   4.203   2.121   0.522 -1.0647  0.4189 -0.1984
 9465TIP3   OH228358   4.257   3.290   4.289 -0.3217  0.1527  0.3410
 9465TIP3    H128359   4.291   3.327   4.207  0.7908 -1.2659  0.1383
 9465TIP3    H228360   4.329   3.237   4.324 -2.3689 -3.3522 -0.3152
 9466TIP3   OH228361   3.836   5.074   5.100 -0.1590 -0.1809 -0.2436
 9466TIP3    H128362   3.923   5.115   5.098  0.1313 -0.7751 -0.1983
 9466TIP3    H228363   3.815   5.067   5.193 -0.0689 -0.4119 -0.2392
 9467TIP3   OH228364   3.895   0.277   0.504 -0.2535 -0.8464 -0.4552
 9467TIP3    H128365   3.891   0.370   0.480 -1.7273 -0.2324  1.8785
 9467TIP3    H228366   3.909   0.277   0.599  1.2813 -3.0596 -0.6015
 9468TIP3   OH228367   4.223   2.946   5.668 -0.2518 -0.1659 -0.2831
 9468TIP3    H128368   4.173   3.018   5.631 -1.0634  0.3849  1.7638
 9468TIP3    H228369   4.159   2.875   5.679 -0.2832  0.0407  0.9917
 9469TIP3   OH228370   3.164   4.853   0.186 -0.2185  0.0732 -0.2117
 9469TIP3    H128371   3.184   4.776   0.133 -0.3061 -1.5435  1.9632
 9469TIP3    H228372   3.225   4.847   0.260 -0.7165  1.7174  0.3733
 9470TIP3   OH228373   4.946   4.170   3.988  0.5115 -0.1045  0.7738
 9470TIP3    H128374   4.873   4.207   3.939  0.6969  2.0913  2.0367
 9470TIP3    H228375   4.924   4.077   3.996 -0.8159 -0.0058 -1.1277
 9471TIP3   OH228376   3.153   6.137   2.207  0.0980  0.0584  0.1890
 9471TIP3    H128377   3.105   6.054   2.210 -1.7380  1.0369  3.7410
 9471TIP3    H228378   3.085   6.204   2.196  0.8511  1.3203  2.5103
 9472TIP3   OH228379   4.277   2.837   0.319 -0.0918  0.3855  0.1711
 9472TIP3    H128380   4.365   2.801   0.331  0.3864  0.9093 -1.5323
 9472TIP3    H228381   4.230   2.811   0.398  0.9203 -1.8810  0.1009
 9473TIP3   OH228382   2.160   6.717   3.153  0.8650 -0.0303  0.1974
 9473TIP3    H128383   2.187   6.625   3.165  0.9360  0.1573  1.6981
 9473TIP3    H228384   2.241   6.767   3.168  0.5947  0.3248  0.4841
 9474TIP3   OH228385   0.953   6.118   5.741  0.2172  0.1237  0.0048
 9474TIP3    H128386   0.871   6.082   5.776  0.2993 -2.2905 -1.9773
 9474TIP3    H228387   0.927   6.164   5.662  0.7789 -1.1919 -0.9782
 9475TIP3   OH228388   1.794   2.624   4.577  0.4863 -0.4487  0.4501
 9475TIP3    H128389   1.846   2.639   4.499 -0.3192  0.3750  0.0547
 9475TIP3    H228390   1.714   2.675   4.564  0.1168 -0.6868  1.5910
 9476TIP3   OH228391   2.448   2.625   3.225  0.5253 -0.1409 -0.3855
 9476TIP3    H128392   2.450   2.720   3.237  0.9647  0.1112 -2.1255
 9476TIP3    H228393   2.355   2.602   3.231  0.4911  0.2595  0.8387
 9477TIP3   OH228394   3.472   5.870   3.840  0.1677 -0.1353  0.4303
 9477TIP3    H128395   3.559   5.837   3.818 -0.2936 -0.5436 -0.9162
 9477TIP3    H228396   3.465   5.860   3.935  1.8837  0.6830  0.6760
 9478TIP3   OH228397   5.898   6.118   0.437  0.1239  0.5091 -0.5122
 9478TIP3    H128398   5.926   6.081   0.354 -0.4127  1.6256 -1.2099
 9478TIP3    H228399   5.980   6.138   0.483  0.4355  0.5729 -1.0847
 9479TIP3   OH228400   3.285   1.383   0.579  0.1755  0.2171  0.2028
 9479TIP3    H128401   3.290   1.432   0.661  3.0298  0.2110  0.1319
 9479TIP3    H228402   3.196   1.398   0.548 -0.2940  2.0645  2.1687
 9480TIP3   OH228403   0.799   0.846   1.527 -0.1367 -0.1936  0.7533
 9480TIP3    H128404   0.812   0.856   1.432  2.1861 -0.2422  1.0143
 9480TIP3    H228405   0.762   0.929   1.555  0.7675  0.4682  0.0329
 9481TIP3   OH228406   4.007   2.024   4.402  0.3785 -0.2381 -0.0222
 9481TIP3    H128407   3.951   1.947   4.407 -0.2974  0.2235 -0.3698
 9481TIP3    H228408   4.094   1.991   4.423 -0.1015 -0.8641  1.0722
 9482TIP3   OH228409   2.031   5.707   3.594  0.2670  0.0470 -0.2324
 9482TIP3    H128410   2.044   5.639   3.661 -0.1575 -0.5172 -0.7164
 9482TIP3    H228411   1.936   5.712   3.583  0.2787  0.9430  0.0153
 9483TIP3   OH228412   4.383   2.648   2.092 -0.1078 -0.6282 -0.3771
 9483TIP3    H128413   4.403   2.741   2.083  1.5615 -0.6023  2.3793
 9483TIP3    H228414   4.335   2.626   2.012 -1.7362  2.8556 -0.5586
 9484TIP3   OH228415   0.632   0.093   2.341  0.3444  0.3272  0.2797
 9484TIP3    H128416   0.623   0.183   2.374 -0.3121  0.0124  1.0067
 9484TIP3    H228417   0.696   0.052   2.399  0.6600  0.3309 -0.0649
 9485TIP3   OH228418   1.160   1.701   5.085  0.1172  0.0629 -0.7272
 9485TIP3    H128419   1.182   1.720   4.994 -0.5299 -0.2708 -0.9577
 9485TIP3    H228420   1.124   1.783   5.119 -2.9114 -0.6849 -1.7906
 9486TIP3   OH228421   3.528   6.321   0.139 -0.2078 -0.7069  0.2831
 9486TIP3    H128422   3.604   6.378   0.125 -0.1031 -0.9351 -0.0824
 9486TIP3    H228423   3.564   6.243   0.180 -0.6065  0.2481  2.6074
 9487TIP3   OH228424   2.112   2.722   0.568 -0.6742  0.2482 -0.9247
 9487TIP3    H128425   2.053   2.655   0.534 -1.1725  0.6143 -0.7934
 9487TIP3    H228426   2.100   2.797   0.509 -0.1686  0.2500 -1.0341
 9488TIP3   OH228427   6.245   2.202   1.660 -0.2626 -0.0987 -0.1327
 9488TIP3    H128428   6.232   2.115   1.696  2.2095  0.0339  1.3174
 9488TIP3    H228429   6.258   2.188   1.566  1.2468 -1.4767  0.2441
 9489TIP3   OH228430   4.423   4.108   1.397 -0.2499 -0.1386 -0.1244
 9489TIP3    H128431   4.430   4.027   1.348  1.3042  0.4115 -0.8749
 9489TIP3    H228432   4.490   4.100   1.466  0.5837  0.8490 -0.7785
 9490TIP3   OH228433   5.419   1.133   3.034  0.0735 -0.3650  0.3758
 9490TIP3    H128434   5.446   1.042   3.023 -1.0806 -1.0278  2.4330
 9490TIP3    H228435   5.375   1.155   2.952  2.3288 -0.8714 -1.0474
 9491TIP3   OH228436   2.101   0.275   3.592  0.6945 -0.8967  0.1326
 9491TIP3    H128437   2.094   0.323   3.674  1.8195  0.7391 -0.6661
 9491TIP3    H228438   2.030   0.310   3.537  0.1314 -1.7703  0.2769
 9492TIP3   OH228439   0.631   6.770   4.110  0.1791 -0.1175 -0.5631
 9492TIP3    H128440   0.670   6.709   4.047  1.2642  1.7870 -1.8465
 9492TIP3    H228441   0.706   6.817   4.148 -0.6119  0.5057  0.2787
 9493TIP3   OH228442   5.941   1.360   4.286  0.7178 -0.4028 -0.0968
 9493TIP3    H128443   5.906   1.442   4.322  2.1778 -0.1651  0.8687
 9493TIP3    H228444   5.929   1.368   4.192  1.3592  1.2108 -0.0745
 9494TIP3   OH228445   4.545   1.290   0.625  0.5726 -0.0129 -0.1090
 9494TIP3    H128446   4.494   1.293   0.544  1.4240 -0.7158 -0.6935
 9494TIP3    H228447   4.482   1.264   0.692  0.0676 -0.4804 -0.7487
 9495TIP3   OH228448   1.284   6.112   5.771 -0.7224  0.6729 -0.3384
 9495TIP3    H128449   1.215   6.165   5.810  0.1825  0.1787  2.1230
 9495TIP3    H228450   1.269   6.024   5.805  1.1798  0.5934  0.4101
 9496TIP3   OH228451   2.895   0.256   2.371 -0.2015  0.2645 -0.2614
 9496TIP3    H128452   2.842   0.227   2.446  1.3866 -1.8074  0.1373
 9496TIP3    H228453   2.931   0.340   2.398 -0.3700 -0.0417  0.9657
 9497TIP3   OH228454   5.556   5.488   2.442  0.8284  0.1056  0.1930
 9497TIP3    H128455   5.576   5.573   2.481 -0.7305 -0.3641  2.2068
 9497TIP3    H228456   5.612   5.427   2.489  1.1405 -0.1251 -0.4704
 9498TIP3   OH228457   1.909   1.554   1.362 -0.6992 -0.4375  0.5823
 9498TIP3    H128458   1.868   1.613   1.426 -1.3331  0.2971 -0.4701
 9498TIP3    H228459   1.836   1.502   1.328 -0.6359  0.2371 -0.6350
 9499TIP3   OH228460   1.467   5.453   3.289  0.0984  0.2480  0.1746
 9499TIP3    H128461   1.514   5.392   3.233  0.4808 -0.2960  1.0686
 9499TIP3    H228462   1.393   5.403   3.324  0.1978  0.4007  0.6169
 9500TIP3   OH228463   0.205   6.412   3.640 -0.1364  0.4015  0.0920
 9500TIP3    H128464   0.286   6.364   3.659  1.5809  3.0786 -0.0045
 9500TIP3    H228465   0.193   6.470   3.715 -2.7188 -0.7757  0.6974
 9501TIP3   OH228466   1.141   6.298   2.769 -0.0727  1.0001  0.3174
 9501TIP3    H128467   1.194   6.361   2.720  0.2401  0.7847  0.3797
 9501TIP3    H228468   1.108   6.347   2.844  0.6457  0.9300  0.6815
 9502TIP3   OH228469   3.976   6.299   1.660 -0.5817  0.6043 -0.2212
 9502TIP3    H128470   3.982   6.388   1.625 -1.7354  1.0640  0.7088
 9502TIP3    H228471   4.024   6.246   1.597 -0.8100  1.7179 -1.3726
 9503TIP3   OH228472   4.564   0.714   2.277  0.1948  0.2158  0.4425
 9503TIP3    H128473   4.576   0.798   2.234  0.5167 -0.2047 -0.3154
 9503TIP3    H228474   4.486   0.677   2.236 -0.0202  0.2007  0.8624
 9504TIP3   OH228475   4.947   2.682   0.747  0.2256  0.5231 -0.0053
 9504TIP3    H128476   5.009   2.655   0.814  0.5335  2.1696  0.4157
 9504TIP3    H228477   4.949   2.778   0.749 -1.0075  0.6120 -1.2116
 9505TIP3   OH228478   1.326   4.064   2.081  0.2358  0.2011  0.2360
 9505TIP3    H128479   1.326   3.979   2.126  0.3909  0.3837  0.5825
 9505TIP3    H228480   1.329   4.041   1.988 -0.6008 -0.1918  0.2888
 9506TIP3   OH228481   3.986   6.375   0.280 -0.0264 -0.6572 -0.7835
 9506TIP3    H128482   4.014   6.327   0.358  1.2484 -0.4733 -1.0996
 9506TIP3    H228483   3.947   6.309   0.223 -2.6842 -0.5095  0.7248
 9507TIP3   OH228484   0.962   6.368   4.806 -0.2645 -0.2260 -0.3172
 9507TIP3    H128485   0.963   6.274   4.788  0.6091 -0.5429  1.1932
 9507TIP3    H228486   0.940   6.374   4.899  0.7888  0.9939 -0.1293
 9508TIP3   OH228487   3.343   6.014   1.985 -0.3605  0.0687  0.1493
 9508TIP3    H128488   3.322   5.935   2.035 -0.5614 -0.2826 -0.4916
 9508TIP3    H228489   3.296   6.084   2.032 -2.0013 -0.5240 -0.5442
 9509TIP3   OH228490   1.509   5.799   5.633 -0.1363 -0.1928  0.0316
 9509TIP3    H128491   1.513   5.883   5.588 -0.1375 -1.1121 -1.7470
 9509TIP3    H228492   1.439   5.750   5.588 -0.7147 -0.8633  1.5653
 9510TIP3   OH228493   4.240   3.940   2.563  0.1476  0.0791 -0.4098
 9510TIP3    H128494   4.312   3.991   2.525  0.0984  1.0113  0.6991
 9510TIP3    H228495   4.170   3.945   2.497  0.5252  0.5505 -0.7857
 9511TIP3   OH228496   4.505   3.748   1.390 -0.3445  0.4196  0.8967
 9511TIP3    H128497   4.422   3.770   1.434  0.0358  0.1215  1.7857
 9511TIP3    H228498   4.481   3.739   1.298 -0.8950  2.5647  0.7715
 9512TIP3   OH228499   4.877   1.523   5.692  0.0555 -0.2584  0.2778
 9512TIP3    H128500   4.907   1.571   5.615 -0.2980 -0.9029 -0.2722
 9512TIP3    H228501   4.933   1.445   5.694  1.1574  0.5291  1.6103
 9513TIP3   OH228502   2.712   6.218   1.607  0.6060  0.3800 -0.3572
 9513TIP3    H128503   2.792   6.232   1.557  1.6594  0.1929  1.2126
 9513TIP3    H228504   2.643   6.215   1.541  2.1736 -2.2466 -2.0672
 9514TIP3   OH228505   2.516   4.762   5.038  0.6480  0.2740 -0.3021
 9514TIP3    H128506   2.575   4.727   5.104  2.1849 -0.7142 -2.0963
 9514TIP3    H228507   2.441   4.703   5.039  2.0291 -1.6165 -1.4488
 9515TIP3   OH228508   5.422   1.228   2.509  0.1076 -0.1532 -0.3161
 9515TIP3    H128509   5.495   1.231   2.447  0.3613  0.9990  0.0171
 9515TIP3    H228510   5.426   1.140   2.547  0.0022 -0.8605 -1.8520
 9516TIP3   OH228511   0.408   0.815   4.789 -0.0083 -0.1977  0.2409
 9516TIP3    H128512   0.416   0.734   4.739 -0.6651  0.7912 -1.5544
 9516TIP3    H228513   0.415   0.884   4.723  1.1489  1.2398  1.8074
 9517TIP3   OH228514   5.498   1.785   2.865 -0.7045  0.6955  0.1876
 9517TIP3    H128515   5.524   1.870   2.899 -1.4212  0.4161  1.5281
 9517TIP3    H228516   5.473   1.802   2.774 -0.2154  1.7796  0.2415
 9518TIP3   OH228517   1.833   3.139   2.726  0.3931  0.4338  0.2971
 9518TIP3    H128518   1.758   3.106   2.676 -1.8469  1.8549  2.5093
 9518TIP3    H228519   1.886   3.186   2.661 -1.1457  0.2320 -1.1764
 9519TIP3   OH228520   4.203   2.098   5.523 -0.1763 -0.1949 -0.4123
 9519TIP3    H128521   4.131   2.036   5.511 -0.5079 -0.1198  0.9700
 9519TIP3    H228522   4.281   2.044   5.536 -0.4345 -0.3411  0.6156
 9520TIP3   OH228523   4.317   5.492   5.184 -0.3383  0.4257 -0.0106
 9520TIP3    H128524   4.274   5.406   5.176 -0.9221  0.7525 -0.5243
 9520TIP3    H228525   4.306   5.532   5.097  0.9648  0.5536 -0.1295
 9521TIP3   OH228526   4.687   2.090   2.376 -0.0387 -0.1194 -0.1436
 9521TIP3    H128527   4.782   2.091   2.389 -0.2040  1.1448  1.2427
 9521TIP3    H228528   4.675   2.110   2.283  1.0355  1.6561  0.0480
 9522TIP3   OH228529   1.928   6.155   2.061 -0.6798  0.1928 -0.2725
 9522TIP3    H128530   1.956   6.148   1.970  2.7562  0.8169  0.5848
 9522TIP3    H228531   1.941   6.067   2.097 -2.1127 -0.0741 -0.3534
 9523TIP3   OH228532   2.718   1.643   4.518  0.5946  0.6105 -0.0125
 9523TIP3    H128533   2.670   1.651   4.435  2.7817  1.4466 -1.2767
 9523TIP3    H228534   2.686   1.717   4.571 -0.1125  0.6435 -0.4685
 9524TIP3   OH228535   1.405   1.171   4.453  0.1402  0.1866  0.3715
 9524TIP3    H128536   1.360   1.089   4.474  0.0093 -0.1251 -1.0760
 9524TIP3    H228537   1.440   1.200   4.538 -0.3039 -1.0529  1.0161
 9525TIP3   OH228538   2.533   2.780   0.947  0.0269 -0.0387 -0.1669
 9525TIP3    H128539   2.466   2.847   0.939 -0.0560  0.2997  2.6321
 9525TIP3    H228540   2.616   2.828   0.951  0.5212 -0.4327 -3.1315
 9526TIP3   OH228541   3.947   3.278   3.882 -0.4091  0.1248  0.2082
 9526TIP3    H128542   3.902   3.196   3.860 -0.6478  0.2064  0.3887
 9526TIP3    H228543   4.032   3.271   3.839 -0.2087 -0.4664  0.6824
 9527TIP3   OH228544   3.656   6.279   1.376 -0.1604 -0.1117 -0.2759
 9527TIP3    H128545   3.735   6.308   1.331  0.5157 -1.4440  0.0181
 9527TIP3    H228546   3.642   6.190   1.344 -0.8546 -0.3232  0.5948
 9528TIP3   OH228547   4.096   2.245   4.617 -0.0467  0.4304  0.1347
 9528TIP3    H128548   4.054   2.331   4.627 -0.1120  0.3076  0.9478
 9528TIP3    H228549   4.052   2.206   4.542 -1.2671  0.3852  0.8495
 9529TIP3   OH228550   6.830   1.942   2.804 -0.4680  0.1442  0.2083
 9529TIP3    H128551   6.907   1.941   2.861  0.0791  3.5294 -0.2721
 9529TIP3    H228552   6.863   1.912   2.719 -0.1547 -0.2698  0.4740
 9530TIP3   OH228553   2.863   0.865   5.673  0.3349  0.0240  0.8848
 9530TIP3    H128554   2.911   0.786   5.648  1.1786  0.4933  0.9473
 9530TIP3    H228555   2.885   0.877   5.766  0.9488  0.8205  0.6459
 9531TIP3   OH228556   1.233   6.241   0.750 -0.1420  0.2551 -0.0649
 9531TIP3    H128557   1.185   6.244   0.833  0.5208 -0.6709  0.3745
 9531TIP3    H228558   1.184   6.179   0.696 -1.1524  1.6092 -0.7811
 9532TIP3   OH228559   3.233   2.059   3.785  0.3011  0.2049  0.1311
 9532TIP3    H128560   3.198   2.132   3.835 -0.4238 -0.3586  0.4579
 9532TIP3    H228561   3.193   2.067   3.699  0.9891  0.7536 -0.1508
 9533TIP3   OH228562   3.203   0.898   3.410 -0.1065  0.4689  0.2236
 9533TIP3    H128563   3.144   0.832   3.446  0.6297 -1.1215 -1.3403
 9533TIP3    H228564   3.156   0.981   3.424 -1.5229 -0.4581  1.3318
 9534TIP3   OH228565   5.505   5.131   5.369 -0.0728  0.1730  0.0248
 9534TIP3    H128566   5.580   5.166   5.321 -1.8981  1.4129 -2.1445
 9534TIP3    H228567   5.434   5.193   5.350 -1.7757 -1.2028  1.5782
 9535TIP3   OH228568   4.313   1.119   1.145 -0.4348  0.7781  0.2498
 9535TIP3    H128569   4.297   1.131   1.239  0.2021 -1.3185  0.6739
 9535TIP3    H228570   4.236   1.072   1.113 -0.9674  2.0664 -0.4738
 9536TIP3   OH228571   6.355   6.413   0.507 -0.2155 -0.0031  0.3341
 9536TIP3    H128572   6.438   6.395   0.551 -0.5753 -0.6904  0.7410
 9536TIP3    H228573   6.291   6.361   0.554 -0.5058 -1.2947 -1.3967
 9537TIP3   OH228574   3.863   4.332   2.730  0.3765  0.5801  0.0374
 9537TIP3    H128575   3.824   4.361   2.813  0.7667  1.4225 -0.0627
 9537TIP3    H228576   3.908   4.251   2.751  0.5701  0.8488  0.6812
 9538TIP3   OH228577   1.322   6.512   2.700  0.0585  0.5041 -0.2719
 9538TIP3    H128578   1.404   6.462   2.705 -1.2359 -1.8258 -0.9918
 9538TIP3    H228579   1.334   6.570   2.624  0.6844 -0.4862 -0.9477
 9539TIP3   OH228580   3.294   0.264   2.062  0.6637 -0.1347 -0.4510
 9539TIP3    H128581   3.277   0.331   1.996  1.9318 -0.1208 -0.7759
 9539TIP3    H228582   3.388   0.270   2.079  0.2699  0.3620  1.8870
 9540TIP3   OH228583   4.789   0.643   4.593  0.1584 -0.3713  0.1000
 9540TIP3    H128584   4.847   0.719   4.592 -0.9949  0.5881  1.5016
 9540TIP3    H228585   4.747   0.644   4.507  0.2009  0.5602  0.0754
 9541TIP3   OH228586   7.027   2.940   5.077  0.0872 -0.1917  0.2884
 9541TIP3    H128587   7.020   3.003   5.005 -0.4272 -1.8395 -1.1550
 9541TIP3    H228588   7.121   2.927   5.088  0.3774  2.4883  2.2067
 9542TIP3   OH228589   1.695   1.605   0.869 -0.5767 -0.1686  0.3764
 9542TIP3    H128590   1.747   1.684   0.885 -0.1120 -0.3033 -0.4201
 9542TIP3    H228591   1.707   1.551   0.947  0.7173 -0.3205  0.0866
 9543TIP3   OH228592   2.059   1.089   0.464 -0.2701 -0.2594  0.4340
 9543TIP3    H128593   2.086   1.151   0.532 -1.2266 -1.2552  1.7851
 9543TIP3    H228594   1.979   1.050   0.499 -0.7826 -0.8209 -1.2848
 9544TIP3   OH228595   0.924   4.608   0.697 -0.4080  0.0423 -0.4916
 9544TIP3    H128596   0.856   4.657   0.744 -0.0698  0.4553 -0.4262
 9544TIP3    H228597   0.880   4.529   0.666 -0.6515 -0.2091  0.4702
 9545TIP3   OH228598   2.304   0.776   3.409 -1.0765  0.6340  0.2761
 9545TIP3    H128599   2.231   0.725   3.376 -0.2182 -0.0575 -0.6190
 9545TIP3    H228600   2.269   0.821   3.486 -2.4950  0.5169 -0.2708
 9546TIP3   OH228601   2.760   4.443   1.885 -0.0149 -0.2740  0.4234
 9546TIP3    H128602   2.735   4.360   1.925 -0.9884  0.0350  0.4889
 9546TIP3    H228603   2.815   4.419   1.811 -1.0095 -1.0360 -0.0929
 9547TIP3   OH228604   3.536   5.110   3.387  0.1845  0.5177 -0.1750
 9547TIP3    H128605   3.535   5.132   3.294  2.1340 -0.2022 -0.4286
 9547TIP3    H228606   3.452   5.067   3.403 -1.8730  4.0276 -0.6363
 9548TIP3   OH228607   0.744   5.369   3.325 -0.4934  0.7333 -0.0594
 9548TIP3    H128608   0.649   5.379   3.317 -0.4225  0.0270 -3.0469
 9548TIP3    H228609   0.776   5.370   3.234  2.2455 -0.1485  0.7917
 9549TIP3   OH228610   2.075   1.128   5.424  0.2115  0.3569  0.3949
 9549TIP3    H128611   2.071   1.149   5.517 -0.1789  2.6251 -0.0660
 9549TIP3    H228612   1.987   1.096   5.402  0.4857 -0.7618  0.9193
 9550TIP3   OH228613   0.939   1.834   1.865  0.1140  0.3045  0.0843
 9550TIP3    H128614   1.024   1.806   1.897 -0.2144  1.6806  2.3362
 9550TIP3    H228615   0.876   1.783   1.915 -0.4263 -0.2601 -1.1264
 9551TIP3   OH228616   1.482   3.574   1.999 -0.9465 -0.1967 -0.2698
 9551TIP3    H128617   1.457   3.645   1.939  0.9772 -1.4876 -2.7968
 9551TIP3    H228618   1.409   3.512   1.994 -0.6882 -0.4334 -1.6315
 9552TIP3   OH228619   7.104   3.879   1.847  0.3011 -0.3365 -0.0730
 9552TIP3    H128620   7.082   3.971   1.863 -1.1447 -0.8258  0.9257
 9552TIP3    H228621   7.040   3.830   1.896  1.4881 -1.9097 -0.0116
 9553TIP3   OH228622   1.734   4.660   4.604  0.1664 -0.5394 -0.1370
 9553TIP3    H128623   1.680   4.727   4.561 -1.3743 -1.7007 -0.0993
 9553TIP3    H228624   1.746   4.593   4.537 -0.1170 -1.2011  0.4643
 9554TIP3   OH228625   2.348   4.311   2.819 -0.3131  0.1282 -0.0811
 9554TIP3    H128626   2.346   4.395   2.865 -0.1644  0.2614 -0.3160
 9554TIP3    H228627   2.315   4.331   2.731  1.6178  0.3582 -0.8037
 9555TIP3   OH228628   1.878   6.331   1.522 -0.1050  0.1162  0.0157
 9555TIP3    H128629   1.836   6.328   1.436 -2.0770  3.2235  0.7294
 9555TIP3    H228630   1.825   6.272   1.576 -0.9453  0.7298 -0.1212
 9556TIP3   OH228631   6.443   4.595   4.783 -0.6278  0.4029  0.0167
 9556TIP3    H128632   6.379   4.601   4.712 -0.9561 -0.4352  0.2236
 9556TIP3    H228633   6.438   4.680   4.827 -0.5763  0.8560 -0.8248
 9557TIP3   OH228634   1.901   3.175   5.463 -0.7791 -0.3047  0.0704
 9557TIP3    H128635   1.917   3.090   5.422  0.3455  0.1722 -0.5368
 9557TIP3    H228636   1.972   3.231   5.430 -0.3718  0.3612  1.9393
 9558TIP3   OH228637   2.020   5.839   1.787  0.0948  0.2633  0.1471
 9558TIP3    H128638   2.045   5.800   1.703  0.1338 -1.9105  1.1059
 9558TIP3    H228639   2.088   5.905   1.804  0.5357  0.1654 -1.1283
 9559TIP3   OH228640   1.123   5.893   4.131 -0.0382 -0.0756  0.2098
 9559TIP3    H128641   1.100   5.826   4.196 -0.4027 -1.4654 -1.2810
 9559TIP3    H228642   1.070   5.969   4.154  0.0687 -0.4220  1.6970
 9560TIP3   OH228643   5.069   3.368   1.219 -0.0743 -0.2828 -0.0545
 9560TIP3    H128644   5.150   3.362   1.270  0.3012 -0.9469 -0.6888
 9560TIP3    H228645   5.001   3.389   1.282  0.5224 -0.2033  0.5695
 9561TIP3   OH228646   6.924   3.814   0.099 -0.0205 -0.3539 -0.5217
 9561TIP3    H128647   7.007   3.848   0.064 -0.7862  0.9079 -1.1933
 9561TIP3    H228648   6.863   3.822   0.026 -1.0836  0.1155  0.3904
 9562TIP3   OH228649   6.571   2.562   3.932 -0.3068 -0.0183  0.1777
 9562TIP3    H128650   6.524   2.617   3.994 -0.7610  0.8181 -0.8663
 9562TIP3    H228651   6.545   2.596   3.846  1.7541  0.1199 -0.4470
 9563TIP3   OH228652   0.118   6.167   4.865  0.3815 -0.7316  0.3894
 9563TIP3    H128653   0.130   6.202   4.953 -0.5989  2.4857 -0.5934
 9563TIP3    H228654   0.049   6.222   4.827  0.4252 -2.3247 -2.2371
 9564TIP3   OH228655   6.911   5.791   3.451  0.1108  0.1390  0.1768
 9564TIP3    H128656   6.878   5.874   3.418 -2.8133 -0.9735  0.0293
 9564TIP3    H228657   6.942   5.811   3.540  0.4056  1.5405 -0.2213
 9565TIP3   OH228658   2.320   6.493   2.709 -0.0920  0.0703 -0.1280
 9565TIP3    H128659   2.244   6.550   2.695 -1.1369 -1.4033 -0.7178
 9565TIP3    H228660   2.306   6.420   2.649  1.9674 -0.1033 -0.4635
 9566TIP3   OH228661   4.396   1.992   2.714  0.0024  0.0521 -1.0230
 9566TIP3    H128662   4.391   2.020   2.806 -0.5997 -2.0665 -0.3680
 9566TIP3    H228663   4.483   1.955   2.706 -0.6362 -1.5869 -0.7160
 9567TIP3   OH228664   1.272   3.633   5.534  0.1418  0.6370 -0.1471
 9567TIP3    H128665   1.297   3.725   5.536  0.3313  0.5984  1.5884
 9567TIP3    H228666   1.354   3.586   5.551 -0.0301  0.1822 -0.5730
 9568TIP3   OH228667   5.357   4.300   3.594 -0.4018  0.2879 -1.1003
 9568TIP3    H128668   5.426   4.341   3.542  0.6003  0.1229  0.0600
 9568TIP3    H228669   5.349   4.355   3.672  0.9644 -1.6074  0.4874
 9569TIP3   OH228670   3.180   4.609   0.047  0.2332 -0.2822  0.5575
 9569TIP3    H128671   3.149   4.665  -0.024 -0.8007 -1.7994 -0.2365
 9569TIP3    H228672   3.192   4.523   0.007  3.9764 -0.2379  1.1994
 9570TIP3   OH228673   7.143   1.015   5.712  0.0975  0.0224 -0.2042
 9570TIP3    H128674   7.157   1.077   5.641  0.9195  0.9238  0.6966
 9570TIP3    H228675   7.050   1.022   5.733 -0.0468  0.0978 -0.8687
 9571TIP3   OH228676   4.717   3.973   4.933 -0.1153  0.0366  0.2969
 9571TIP3    H128677   4.790   3.912   4.948 -0.2423 -0.4699 -1.0157
 9571TIP3    H228678   4.754   4.040   4.875 -0.0010  1.2029  1.6635
 9572TIP3   OH228679   4.249   1.224   3.545 -0.4251  0.2685  0.8595
 9572TIP3    H128680   4.302   1.150   3.574  2.5615  1.3008 -1.3490
 9572TIP3    H228681   4.287   1.299   3.590 -2.4088  0.7081  1.9024
 9573TIP3   OH228682   1.714   1.679   4.325 -0.0099  0.3749 -0.0174
 9573TIP3    H128683   1.778   1.673   4.254 -1.3018  0.3136 -1.2359
 9573TIP3    H228684   1.737   1.608   4.384 -0.4102 -1.2875 -1.7303
 9574TIP3   OH228685   4.588   3.386   5.234  0.8026  0.1329  0.2727
 9574TIP3    H128686   4.622   3.307   5.277  3.8523  0.2835 -1.5337
 9574TIP3    H228687   4.517   3.354   5.178 -2.6487 -0.1893  4.3315
 9575TIP3   OH228688   5.812   5.263   4.627  0.1001  0.6733  0.4742
 9575TIP3    H128689   5.771   5.309   4.554  0.6397 -0.4114 -0.5570
 9575TIP3    H228690   5.904   5.257   4.602 -0.0967 -1.7454  0.0959
 9576TIP3   OH228691   1.190   4.548   1.605 -0.0935  0.0210 -0.7774
 9576TIP3    H128692   1.143   4.601   1.669  0.9608  0.7919 -0.6188
 9576TIP3    H228693   1.241   4.487   1.657  1.1534  0.9764 -0.8268
 9577TIP3   OH228694   3.527   4.820   1.348  0.3733 -0.4200  0.4874
 9577TIP3    H128695   3.584   4.782   1.282  0.2755  0.8128 -0.3401
 9577TIP3    H228696   3.582   4.827   1.426  1.6181  1.3064 -0.4560
 9578TIP3   OH228697   3.926   4.344   0.793 -0.0707 -0.1138  0.4060
 9578TIP3    H128698   3.887   4.258   0.775  0.9350 -0.7306  1.0905
 9578TIP3    H228699   4.000   4.350   0.734 -0.0032  0.1906  0.5211
 9579TIP3   OH228700   4.323   4.699   3.488  0.2248 -0.2624 -0.3056
 9579TIP3    H128701   4.326   4.780   3.539  0.0020  0.1740 -0.9705
 9579TIP3    H228702   4.406   4.696   3.442  0.2184 -0.3925 -0.3086
 9580TIP3   OH228703   3.131   1.953   0.035 -0.3218 -0.2900  0.3217
 9580TIP3    H128704   3.035   1.959   0.031 -0.3926 -1.6535 -0.5943
 9580TIP3    H228705   3.154   1.891  -0.034  1.3274  0.8133 -0.1709
 9581TIP3   OH228706   4.571   1.991   3.323  0.6834 -0.5060  0.1032
 9581TIP3    H128707   4.602   1.920   3.267  0.5725 -0.1810 -0.3739
 9581TIP3    H228708   4.477   1.998   3.304  0.5809 -0.6085  0.5663
 9582TIP3   OH228709   6.175   6.204   5.310 -0.0332 -0.2760  0.2799
 9582TIP3    H128710   6.179   6.108   5.306 -1.3896 -0.3772  0.6247
 9582TIP3    H228711   6.242   6.229   5.374 -0.3219 -1.0815  0.9139
 9583TIP3   OH228712   6.737   1.730   2.963 -0.1086  0.5146  0.0064
 9583TIP3    H128713   6.669   1.671   2.933 -0.5367  0.9017  0.2030
 9583TIP3    H228714   6.718   1.813   2.920  2.5503 -0.2984 -3.2202
 9584TIP3   OH228715   5.660   2.965   4.214 -0.2299  0.6347  0.6773
 9584TIP3    H128716   5.632   2.874   4.204  0.2766  0.3465  1.6882
 9584TIP3    H228717   5.722   2.962   4.288  0.2805  1.6959  0.3034
 9585TIP3   OH228718   6.083   0.251   3.659 -0.5051  0.8167 -0.3952
 9585TIP3    H128719   6.069   0.168   3.704  1.8445  1.2396  1.3180
 9585TIP3    H228720   6.010   0.307   3.686 -1.3478 -0.2300 -0.4616
 9586TIP3   OH228721   0.952   6.594   4.105  0.1947 -0.0752  0.2439
 9586TIP3    H128722   1.028   6.566   4.155  0.2671 -0.2510  0.0378
 9586TIP3    H228723   0.956   6.543   4.024  1.1349  1.5313 -0.7862
 9587TIP3   OH228724   2.716   3.238   4.626  0.6391  0.2014 -0.0982
 9587TIP3    H128725   2.665   3.158   4.613  1.8291 -0.5790 -0.0850
 9587TIP3    H228726   2.650   3.305   4.646 -0.3774 -0.7719 -0.0720
 9588TIP3   OH228727   0.680   0.519   1.331 -0.5572  0.0327 -0.6288
 9588TIP3    H128728   0.632   0.570   1.265 -1.2471 -0.3587 -0.4395
 9588TIP3    H228729   0.625   0.443   1.347  0.3060 -0.6182 -0.6625
 9589TIP3   OH228730   3.885   1.731   0.931  0.1273 -0.3295 -0.1029
 9589TIP3    H128731   3.865   1.644   0.966 -2.6832  0.2640 -0.0791
 9589TIP3    H228732   3.960   1.761   0.983  0.6325 -2.3636  0.4437
 9590TIP3   OH228733   1.232   5.242   4.587  0.0948 -0.2217 -0.0619
 9590TIP3    H128734   1.218   5.176   4.656  1.7169 -0.6118 -0.0699
 9590TIP3    H228735   1.302   5.297   4.621 -0.1741  0.5577 -0.7477
 9591TIP3   OH228736   6.388   3.837   1.739  0.2268  0.0083 -0.1248
 9591TIP3    H128737   6.453   3.856   1.671  0.8753  0.6355  0.6515
 9591TIP3    H228738   6.402   3.904   1.805 -1.8095  0.6730 -0.3221
 9592TIP3   OH228739   3.058   3.495   4.439  0.1707 -0.2351  0.1215
 9592TIP3    H128740   2.983   3.539   4.398  0.5393  0.6976  0.4273
 9592TIP3    H228741   3.128   3.559   4.436  1.3467 -1.5022 -1.2380
 9593TIP3   OH228742   3.100   4.687   0.853 -0.7355 -0.9673  0.3098
 9593TIP3    H128743   3.042   4.616   0.828 -0.4531 -0.3187 -2.5493
 9593TIP3    H228744   3.180   4.671   0.804 -0.9290  1.6498 -1.0489
 9594TIP3   OH228745   1.888   3.297   2.219 -0.5521  0.6341 -0.2984
 9594TIP3    H128746   1.916   3.266   2.133 -0.5016 -1.8191  0.5478
 9594TIP3    H228747   1.966   3.338   2.256  0.1590 -0.5370 -0.4555
 9595TIP3   OH228748   1.216   1.091   0.396 -0.1815 -0.4919  0.1302
 9595TIP3    H128749   1.222   1.028   0.467 -0.7981 -2.0995 -1.1686
 9595TIP3    H228750   1.182   1.040   0.322  3.1106  0.3514 -2.1646
 9596TIP3   OH228751   6.221   2.067   5.653  0.4217  0.1991  0.3580
 9596TIP3    H128752   6.301   2.049   5.604 -0.3189 -0.6021 -0.5905
 9596TIP3    H228753   6.161   1.997   5.628 -0.5185  0.6781  1.1984
 9597TIP3   OH228754   2.915   2.636   0.745 -0.2730  0.4650  0.1611
 9597TIP3    H128755   2.981   2.669   0.684 -0.7574  1.7422  0.2932
 9597TIP3    H228756   2.891   2.712   0.797 -2.6706  0.3031 -0.6127
 9598TIP3   OH228757   0.486   4.688   2.411  0.3620  0.4186 -0.3181
 9598TIP3    H128758   0.565   4.729   2.376  1.6795  0.6020  2.5825
 9598TIP3    H228759   0.480   4.604   2.365  0.8561  1.3847 -2.2558
 9599TIP3   OH228760   2.354   5.886   3.734  0.5191 -0.7018 -0.2891
 9599TIP3    H128761   2.324   5.800   3.766  0.8777 -0.0281  2.0852
 9599TIP3    H228762   2.275   5.928   3.700 -0.3648 -0.7382  1.5982
 9600TIP3   OH228763   7.166   1.530   4.744 -0.3186  0.3168 -0.3671
 9600TIP3    H128764   7.183   1.544   4.650  0.7358 -0.3507 -0.2824
 9600TIP3    H228765   7.106   1.456   4.746 -1.8351  1.4931 -0.5800
 9601TIP3   OH228766   5.957   0.567   4.616  0.0956  0.2471  0.2138
 9601TIP3    H128767   6.012   0.558   4.539  0.5899 -0.8176  0.6713
 9601TIP3    H228768   6.008   0.622   4.676 -0.3348  1.1646 -0.2415
 9602TIP3   OH228769   3.613   5.071   4.671 -0.4997  0.7049 -0.1907
 9602TIP3    H128770   3.672   5.087   4.745  0.7653  0.6676 -1.1511
 9602TIP3    H228771   3.532   5.040   4.711 -0.7568  3.0668  1.3381
 9603TIP3   OH228772   0.264   3.888   4.999 -0.4519 -1.0852 -0.2418
 9603TIP3    H128773   0.333   3.949   5.026 -0.2400 -1.1716 -0.5801
 9603TIP3    H228774   0.260   3.825   5.070 -0.1900 -1.0711 -0.2104
 9604TIP3   OH228775   3.598   5.764   2.342  0.4774  0.3810 -0.3265
 9604TIP3    H128776   3.681   5.722   2.318 -0.2342 -0.7564 -0.8594
 9604TIP3    H228777   3.585   5.741   2.433  0.1580 -0.4563 -0.5790
 9605TIP3   OH228778   4.574   3.157   5.393  0.2771 -0.4242 -0.4838
 9605TIP3    H128779   4.617   3.118   5.317  2.0681  1.0375 -0.3037
 9605TIP3    H228780   4.524   3.086   5.432  3.1245 -2.5310 -0.3144
 9606TIP3   OH228781   1.813   0.777   5.847  0.2003 -0.5281  0.4585
 9606TIP3    H128782   1.828   0.734   5.932  2.7134 -0.8341 -0.0586
 9606TIP3    H228783   1.801   0.704   5.786  1.9412 -0.4531 -0.0047
 9607TIP3   OH228784   6.524   1.619   3.664  0.0919  0.4700 -0.1575
 9607TIP3    H128785   6.616   1.622   3.638 -0.1497 -0.9884 -1.3115
 9607TIP3    H228786   6.476   1.607   3.583 -1.1771  1.6243  0.3860
 9608TIP3   OH228787   4.327   2.039   3.720 -0.4394  0.3627 -0.3799
 9608TIP3    H128788   4.272   2.036   3.799 -0.5693  1.3126 -0.4274
 9608TIP3    H228789   4.298   1.964   3.668 -1.1201  0.3771 -0.0330
 9609TIP3   OH228790   4.583   2.214   4.049  0.1048 -0.5430  0.0916
 9609TIP3    H128791   4.610   2.124   4.027 -0.5713 -0.5808 -0.6007
 9609TIP3    H228792   4.608   2.266   3.972 -0.7039 -0.3721 -0.0561
 9610TIP3   OH228793   3.794   0.001   0.754  0.0513  0.5083 -0.5829
 9610TIP3    H128794   3.820  -0.044   0.674  1.1230  1.1532 -0.6118
 9610TIP3    H228795   3.763   0.086   0.725 -2.3737 -0.2846 -0.5686
 9611TIP3   OH228796   5.441   3.288   0.088  1.0644  0.2384  0.1750
 9611TIP3    H128797   5.458   3.206   0.134  0.6136  0.2753  0.4085
 9611TIP3    H228798   5.457   3.356   0.153 -2.2936  0.2199  1.2019
 9612TIP3   OH228799   1.060   0.714   2.189 -0.0725 -0.4814  0.1617
 9612TIP3    H128800   1.125   0.714   2.259 -1.1004  0.6471  1.1642
 9612TIP3    H228801   1.110   0.739   2.111  0.4357  2.2903  1.2510
 9613TIP3   OH228802   2.908   4.290   3.623  0.2342  0.2701 -0.7297
 9613TIP3    H128803   2.833   4.334   3.662 -1.9174 -4.1697  0.9173
 9613TIP3    H228804   2.958   4.258   3.698 -0.1077 -2.5734 -1.5937
 9614TIP3   OH228805   2.844   3.751   0.517 -0.1836  0.2145  0.0343
 9614TIP3    H128806   2.821   3.795   0.435 -2.3718 -1.7465 -0.5319
 9614TIP3    H228807   2.903   3.680   0.491  0.5150  0.6458  0.4244
 9615TIP3   OH228808   2.977   1.969   2.711  0.2579  0.2701 -0.1184
 9615TIP3    H128809   2.943   1.998   2.627 -0.6685 -0.6801 -0.0972
 9615TIP3    H228810   3.071   1.958   2.697 -0.0461 -0.9803 -1.3760
 9616TIP3   OH228811   5.426   4.598   1.861  0.0745 -0.3782  0.1741
 9616TIP3    H128812   5.454   4.625   1.774  0.6781  0.7837  0.7220
 9616TIP3    H228813   5.408   4.504   1.852  0.6394 -0.3805 -1.0649
 9617TIP3   OH228814   2.316   3.831   1.096 -0.4610 -0.0874 -0.3884
 9617TIP3    H128815   2.409   3.829   1.070 -0.3901 -0.6551 -0.1097
 9617TIP3    H228816   2.308   3.908   1.152  0.2432 -0.9933  1.0133
 9618TIP3   OH228817   3.571   6.317   2.004  0.0803  0.3460 -0.1182
 9618TIP3    H128818   3.495   6.376   2.006  0.8304  1.3556 -0.3947
 9618TIP3    H228819   3.645   6.375   1.983  0.7983 -0.7448 -0.6728
 9619TIP3   OH228820   3.312   5.532   4.342 -0.1536  0.0163  0.4376
 9619TIP3    H128821   3.402   5.559   4.360 -0.1622  0.6396 -0.4161
 9619TIP3    H228822   3.316   5.485   4.259 -0.6846  0.4743  0.1419
 9620TIP3   OH228823   4.864   5.905   5.791 -0.1230 -0.3395 -0.1969
 9620TIP3    H128824   4.930   5.843   5.820 -1.3636 -2.1925 -1.1377
 9620TIP3    H228825   4.881   5.984   5.843  1.1684 -1.6290  1.4599
 9621TIP3   OH228826   0.907   0.998   1.981  0.8003  0.6654  0.7814
 9621TIP3    H128827   0.901   1.080   1.932 -0.8476 -0.8245 -1.6969
 9621TIP3    H228828   0.997   0.968   1.967  0.8570  1.1386  0.0849
 9622TIP3   OH228829   6.907   5.470   0.131  1.2516 -0.1049 -0.3799
 9622TIP3    H128830   6.941   5.543   0.079  3.2486 -0.3642  0.4363
 9622TIP3    H228831   6.944   5.484   0.218 -0.0754 -0.9628  0.3560
 9623TIP3   OH228832   5.868   0.126   4.591 -0.4105 -0.0040  0.3169
 9623TIP3    H128833   5.869   0.213   4.631  2.0934 -0.7734  2.1678
 9623TIP3    H228834   5.875   0.065   4.664 -1.1209 -1.7545 -0.9949
 9624TIP3   OH228835   5.623   6.086   4.747 -0.3317 -0.2166 -0.2042
 9624TIP3    H128836   5.610   6.000   4.787 -1.9640  0.2863  0.4647
 9624TIP3    H228837   5.578   6.146   4.807  0.7247  1.0968 -0.6895
 9625TIP3   OH228838   0.601   0.684   3.734 -0.0296 -0.5983 -0.1081
 9625TIP3    H128839   0.510   0.703   3.755  0.3772 -0.6553  1.9891
 9625TIP3    H228840   0.645   0.769   3.741  0.3292 -0.8281  0.5491
 9626TIP3   OH228841   5.861   5.352   4.946 -0.0728  0.2532  0.7066
 9626TIP3    H128842   5.823   5.380   4.863  0.2625  0.5001  0.6304
 9626TIP3    H228843   5.950   5.389   4.944 -0.1786  0.5471  1.3207
 9627TIP3   OH228844   6.004   4.439   0.407 -0.4159  0.0488 -0.2462
 9627TIP3    H128845   6.096   4.453   0.428 -0.5293  0.4962 -0.0367
 9627TIP3    H228846   6.003   4.356   0.359  0.0246 -0.2389  0.2305
 9628TIP3   OH228847   3.009   3.575   2.735 -0.4017 -0.1566 -0.4686
 9628TIP3    H128848   2.959   3.591   2.655  0.6559 -1.2537 -1.3944
 9628TIP3    H228849   3.064   3.499   2.714  0.6600  0.1762  0.9494
 9629TIP3   OH228850   2.916   5.453   0.590  0.4327 -0.3111 -0.0209
 9629TIP3    H128851   2.891   5.520   0.653 -1.1426 -0.2024 -0.7175
 9629TIP3    H228852   2.912   5.370   0.639  2.2802  0.0397  0.8110
 9630TIP3   OH228853   3.992   0.985   2.603  0.4075  0.3680 -0.8936
 9630TIP3    H128854   4.061   0.981   2.670  0.5957 -0.9527 -1.1337
 9630TIP3    H228855   4.022   1.052   2.542  1.6527 -0.3895 -1.1467
 9631TIP3   OH228856   6.176   6.094   3.604 -0.0331 -0.8054  0.4352
 9631TIP3    H128857   6.102   6.060   3.654 -0.5022  0.0861  0.3735
 9631TIP3    H228858   6.181   6.039   3.526  0.0065 -1.4999  0.9178
 9632TIP3   OH228859   0.660   1.262   5.454  0.3664 -0.1386  0.1642
 9632TIP3    H128860   0.626   1.329   5.395  0.4723 -0.4700 -0.2782
 9632TIP3    H228861   0.745   1.238   5.417 -0.3059 -1.5648 -0.5226
 9633TIP3   OH228862   7.195   0.218   1.166  0.1638 -0.3604  0.3136
 9633TIP3    H128863   7.155   0.159   1.229  0.8760 -0.0725  1.0437
 9633TIP3    H228864   7.139   0.296   1.167  1.0018  0.2564  1.7225
 9634TIP3   OH228865   3.779   0.156   2.844 -0.6369 -0.2583 -0.0656
 9634TIP3    H128866   3.698   0.109   2.865 -2.0206  1.4870 -1.2415
 9634TIP3    H228867   3.785   0.225   2.910  0.6967 -1.2115  0.8691
 9635TIP3   OH228868   5.190   3.626   4.335 -0.5255  0.3434  0.4696
 9635TIP3    H128869   5.173   3.721   4.329  0.8824  0.5502 -1.1923
 9635TIP3    H228870   5.253   3.617   4.406 -0.5540  0.6848  0.5409
 9636TIP3   OH228871   0.659   0.725   0.699 -0.2594 -0.1218  0.0124
 9636TIP3    H128872   0.623   0.639   0.720 -1.6750  1.1145  3.3841
 9636TIP3    H228873   0.671   0.723   0.604  0.5300 -4.2467 -0.0098
 9637TIP3   OH228874   1.747   5.672   3.565  0.6114  0.0675 -0.2907
 9637TIP3    H128875   1.704   5.587   3.571  0.7651  0.0534  0.7971
 9637TIP3    H228876   1.689   5.732   3.611  1.0903  0.3057  0.0175
 9638TIP3   OH228877   2.221   0.636   3.662 -0.2939  0.1952  0.3253
 9638TIP3    H128878   2.300   0.674   3.701 -0.3829 -0.0394  0.7436
 9638TIP3    H228879   2.176   0.594   3.736  0.0278 -1.1142 -0.1968
 9639TIP3   OH228880   7.106   3.993   0.630  0.0269 -0.3392 -0.0043
 9639TIP3    H128881   7.057   4.041   0.696  0.8887 -0.9287  1.0961
 9639TIP3    H228882   7.067   4.019   0.547 -1.2326  0.2421  0.7488
 9640TIP3   OH228883   3.218   3.421   0.768  0.1139  0.4033  0.1336
 9640TIP3    H128884   3.263   3.437   0.686  0.9704 -1.1703  0.2668
 9640TIP3    H228885   3.127   3.446   0.751  0.7847  2.8339 -0.3818
 9641TIP3   OH228886   2.401   1.421   4.610  0.0482 -0.6492 -0.3168
 9641TIP3    H128887   2.434   1.510   4.620 -0.7554 -0.1259 -1.9339
 9641TIP3    H228888   2.477   1.365   4.625  0.9080  0.3725 -0.7410
 9642TIP3   OH228889   0.399   5.665   5.876  0.3905 -0.0762  0.1948
 9642TIP3    H128890   0.469   5.686   5.814  1.3924  0.2585  1.4100
 9642TIP3    H228891   0.322   5.710   5.841  1.6761  2.8237  0.8743
 9643TIP3   OH228892   6.768   5.882   5.251  0.2199  0.1901 -0.5364
 9643TIP3    H128893   6.770   5.976   5.270  0.2114 -0.1433  1.2742
 9643TIP3    H228894   6.843   5.846   5.298 -0.0221 -0.7703 -0.8662
 9644TIP3   OH228895   6.343   2.465   5.825 -0.4436  0.0653 -0.5996
 9644TIP3    H128896   6.344   2.404   5.751 -1.9744  0.0977 -0.6702
 9644TIP3    H228897   6.262   2.515   5.814 -0.5449  0.2742  0.9371
 9645TIP3   OH228898   3.612   2.509   3.562  0.4693 -0.4646 -0.1646
 9645TIP3    H128899   3.675   2.486   3.629  0.4399  0.8397  0.3226
 9645TIP3    H228900   3.536   2.452   3.579  0.5150 -0.2343  0.8180
 9646TIP3   OH228901   0.373   2.925   0.527  0.3953 -0.5367  0.4490
 9646TIP3    H128902   0.387   2.928   0.432 -0.6978 -0.6555  0.2788
 9646TIP3    H228903   0.324   3.005   0.546  0.1528 -0.7767  0.8362
 9647TIP3   OH228904   0.324   2.078   5.860  0.3302 -0.3244  0.3213
 9647TIP3    H128905   0.240   2.038   5.884  1.8541 -2.8247  1.9335
 9647TIP3    H228906   0.389   2.009   5.877  2.6467  1.1712 -1.7907
 9648TIP3   OH228907   5.758   4.126   5.499 -0.2240  0.4134 -0.2833
 9648TIP3    H128908   5.749   4.221   5.503  2.1956  0.6835  0.2441
 9648TIP3    H228909   5.773   4.107   5.406 -0.6356  0.5332 -0.3781
 9649TIP3   OH228910   2.197   2.232   4.721 -0.1534  0.1882  0.3598
 9649TIP3    H128911   2.142   2.306   4.694  0.1896  0.8755  1.4415
 9649TIP3    H228912   2.177   2.163   4.658 -1.6565  0.6823  0.2313
 9650TIP3   OH228913   0.904   3.134   0.559 -0.4654 -0.0935  0.1364
 9650TIP3    H128914   0.923   3.047   0.526 -1.8898 -0.2224 -0.4016
 9650TIP3    H228915   0.816   3.128   0.596 -0.5271  1.0652  0.2404
 9651TIP3   OH228916   1.511   4.350   0.960 -0.6996 -0.1725  0.1792
 9651TIP3    H128917   1.419   4.371   0.943 -1.0398 -1.3150  0.5219
 9651TIP3    H228918   1.550   4.344   0.873 -1.2980 -1.1297 -0.0380
 9652TIP3   OH228919   0.910   3.077   4.391  0.3984  0.2149  0.5262
 9652TIP3    H128920   0.829   3.061   4.342  0.8734  1.2954 -0.6819
 9652TIP3    H228921   0.933   2.992   4.429  0.8164 -1.1357 -2.4540
 9653TIP3   OH228922   6.589   1.960   1.032 -0.2730  0.3186  0.4221
 9653TIP3    H128923   6.503   1.952   1.073 -0.0035 -0.4338  0.8587
 9653TIP3    H228924   6.638   1.885   1.065  0.5927  0.8103  0.2710
 9654TIP3   OH228925   6.832   1.832   5.394  0.1985 -0.0061  0.2724
 9654TIP3    H128926   6.794   1.853   5.480 -0.1024 -1.2584  0.4694
 9654TIP3    H228927   6.788   1.892   5.333 -0.6897 -0.1159  0.7828
 9655TIP3   OH228928   5.204   1.887   5.318  0.0550 -0.2316  0.4737
 9655TIP3    H128929   5.217   1.930   5.403 -0.1678 -1.1160  0.9704
 9655TIP3    H228930   5.181   1.959   5.258 -1.5999  0.2039  1.5601
 9656TIP3   OH228931   3.612   3.592   0.629 -0.0505  0.1028 -0.0095
 9656TIP3    H128932   3.586   3.649   0.557 -0.3370 -0.1173 -0.0797
 9656TIP3    H228933   3.702   3.568   0.609  1.1460  2.8346  1.4594
 9657TIP3   OH228934   3.000   1.144   5.880  0.2120  0.4668  0.3827
 9657TIP3    H128935   3.079   1.092   5.865  0.3237  0.6923  0.1811
 9657TIP3    H228936   2.935   1.106   5.822  0.6679  1.3959 -0.7859
 9658TIP3   OH228937   2.058   1.363   3.909 -0.4913  0.2995  0.0552
 9658TIP3    H128938   1.988   1.315   3.865  0.1162 -0.1655 -0.4366
 9658TIP3    H228939   2.069   1.443   3.857  0.5117 -0.4452 -0.9346
 9659TIP3   OH228940   0.199   1.195   1.260  0.5741  0.1963 -0.4330
 9659TIP3    H128941   0.110   1.160   1.272  0.3710  0.9153  0.2621
 9659TIP3    H228942   0.188   1.266   1.197  0.6396  0.3601 -0.2590
 9660TIP3   OH228943   5.364   4.598   2.344 -0.2519 -0.0008 -0.1137
 9660TIP3    H128944   5.383   4.510   2.376 -2.7189 -0.1103  1.3361
 9660TIP3    H228945   5.296   4.585   2.278 -1.1284  0.8173  0.5910
 9661TIP3   OH228946   6.920   6.440   4.185  0.4216 -0.2606 -0.3699
 9661TIP3    H128947   6.919   6.431   4.090 -3.5215 -0.2588 -0.5011
 9661TIP3    H228948   6.850   6.382   4.216 -0.9984  2.4460  2.0794
 9662TIP3   OH228949   1.186   2.233   2.052  0.8671  0.4196 -0.6555
 9662TIP3    H128950   1.238   2.313   2.063  1.2920  0.0772 -0.1055
 9662TIP3    H228951   1.227   2.170   2.112  1.2834 -0.5640 -1.9170
 9663TIP3   OH228952   3.043   3.976   0.274 -0.1417 -0.1110  0.0535
 9663TIP3    H128953   2.947   3.978   0.273 -0.1460 -0.2245  0.2837
 9663TIP3    H228954   3.067   4.000   0.363 -0.0196 -2.2101  0.6373
 9664TIP3   OH228955   6.522   1.202   4.647 -0.3768 -0.6760 -0.2766
 9664TIP3    H128956   6.525   1.217   4.742  1.0518  1.0809 -0.5642
 9664TIP3    H228957   6.582   1.129   4.632 -0.0762 -0.4997  0.0730
 9665TIP3   OH228958   1.296   4.769   0.079  0.1328  0.6000 -0.2001
 9665TIP3    H128959   1.225   4.828   0.104 -0.0148  0.5215 -0.4271
 9665TIP3    H228960   1.272   4.740  -0.010  0.1858  0.1742 -0.0752
 9666TIP3   OH228961   5.787   3.872   4.163  0.2263  0.3042  0.0920
 9666TIP3    H128962   5.791   3.965   4.139 -2.2811  1.4507  3.3842
 9666TIP3    H228963   5.874   3.839   4.142  1.3424  3.4492 -0.9373
 9667TIP3   OH228964   1.042   5.393   3.596  0.2853  0.3250 -0.1382
 9667TIP3    H128965   1.013   5.360   3.682  0.4652 -1.4770 -0.7134
 9667TIP3    H228966   0.986   5.468   3.579 -3.4614 -2.3224 -0.6979
 9668TIP3   OH228967   4.696   1.869   5.738  0.1050  0.0153 -0.4716
 9668TIP3    H128968   4.670   1.782   5.711  0.4898 -0.3702  0.3680
 9668TIP3    H228969   4.656   1.881   5.824 -0.7620  1.0547 -0.9938
 9669TIP3   OH228970   0.661   5.024   3.448  0.3758  0.1769  0.0404
 9669TIP3    H128971   0.710   5.026   3.366  0.4058 -2.0043 -0.0541
 9669TIP3    H228972   0.636   4.932   3.459 -2.2221  0.8836  0.9503
 9670TIP3   OH228973   4.824   3.537   4.044  0.1365  0.3915  0.5829
 9670TIP3    H128974   4.807   3.586   4.124 -2.3437  0.4340  0.0878
 9670TIP3    H228975   4.903   3.578   4.007  1.8916 -0.2147  3.3774
 9671TIP3   OH228976   6.171   3.389   1.695  0.1996  0.3650  0.0339
 9671TIP3    H128977   6.137   3.368   1.782 -2.7350 -0.4288 -1.1769
 9671TIP3    H228978   6.239   3.324   1.680  0.0089 -0.1722  1.3082
 9672TIP3   OH228979   0.847   6.293   1.819 -0.3931 -0.0386  0.1679
 9672TIP3    H128980   0.844   6.198   1.822  2.1783 -0.1902 -0.3107
 9672TIP3    H228981   0.858   6.320   1.910 -0.1288 -0.2500  0.1976
 9673TIP3   OH228982   3.540   6.490   2.572  0.5927  0.2497  0.2499
 9673TIP3    H128983   3.570   6.401   2.589  2.5319  0.7910 -0.0655
 9673TIP3    H228984   3.580   6.542   2.641  1.1645  1.1453 -0.7265
 9674TIP3   OH228985   2.878   3.579   2.476  0.9874 -0.1185  0.6163
 9674TIP3    H128986   2.913   3.660   2.438  0.0260  0.2054  0.3724
 9674TIP3    H228987   2.916   3.509   2.423  0.9380  0.2473  0.0880
 9675TIP3   OH228988   2.258   1.260   1.784  0.4820 -0.5921 -0.3173
 9675TIP3    H128989   2.193   1.289   1.848  0.7174  0.2757 -0.4646
 9675TIP3    H228990   2.310   1.195   1.831  0.0359 -0.6859  0.0590
 9676TIP3   OH228991   5.375   1.930   2.639  0.0327 -0.1413  0.4252
 9676TIP3    H128992   5.458   1.952   2.596  0.2475  1.6230  1.6369
 9676TIP3    H228993   5.308   1.950   2.573  0.4093  1.6711  0.5209
 9677TIP3   OH228994   5.175   5.845   1.877 -0.2595  0.0827  0.4973
 9677TIP3    H128995   5.270   5.843   1.876 -0.2381 -0.0112  1.5553
 9677TIP3    H228996   5.153   5.915   1.938 -0.9135  2.8996 -2.6290
 9678TIP3   OH228997   1.160   6.556   3.652 -0.0614  0.2330 -0.3306
 9678TIP3    H128998   1.254   6.548   3.673 -0.5372 -1.0224  1.5787
 9678TIP3    H228999   1.147   6.499   3.576  0.6726  0.2324 -0.4634
 9679TIP3   OH229000   5.670   5.083   4.942 -0.0920  0.0437  0.2040
 9679TIP3    H129001   5.617   5.139   4.999  1.2013  1.7658 -0.2184
 9679TIP3    H229002   5.654   5.116   4.854  0.7796 -0.1723 -0.0456
 9680TIP3   OH229003   5.797   6.213   5.494 -0.2034  0.5135  1.2061
 9680TIP3    H129004   5.785   6.299   5.453  0.7317  0.3956  0.6465
 9680TIP3    H229005   5.710   6.174   5.493 -0.5875  1.3428  1.2081
 9681TIP3   OH229006   7.189   2.085   3.456  0.3750 -0.0462  0.1791
 9681TIP3    H129007   7.135   2.143   3.510  1.2949  0.8859  0.1051
 9681TIP3    H229008   7.177   2.117   3.367 -0.5095 -1.0911 -0.0990
 9682TIP3   OH229009   4.866   4.731   5.727  0.3698 -0.1414 -0.0792
 9682TIP3    H129010   4.944   4.748   5.779  0.3039 -1.4092  0.4609
 9682TIP3    H229011   4.794   4.765   5.780  0.5431  1.2793 -0.6984
 9683TIP3   OH229012   4.519   3.577   3.573 -0.4554  0.1660  0.2756
 9683TIP3    H129013   4.541   3.487   3.546 -0.1237  0.1696  0.5265
 9683TIP3    H229014   4.604   3.622   3.574 -0.1670 -0.2970  3.1281
 9684TIP3   OH229015   3.007   5.539   3.440 -0.2207  0.0033 -0.5045
 9684TIP3    H129016   3.030   5.617   3.490  0.6427  0.7967 -2.0873
 9684TIP3    H229017   3.055   5.547   3.358 -0.6169 -1.8820 -0.9785
 9685TIP3   OH229018   5.571   4.180   2.085  0.0829  0.3069 -0.5769
 9685TIP3    H129019   5.569   4.275   2.075  0.7636  0.6005  1.5681
 9685TIP3    H229020   5.553   4.147   1.997 -2.8135  2.3625 -0.9016
 9686TIP3   OH229021   6.351   5.016   3.224 -0.3436 -0.1482 -0.0806
 9686TIP3    H129022   6.331   5.015   3.318 -0.8002  0.0998 -0.1739
 9686TIP3    H229023   6.442   5.044   3.220 -0.1367 -0.7399  0.3199
 9687TIP3   OH229024   6.406   0.764   0.533  0.1728  0.4948 -0.2355
 9687TIP3    H129025   6.348   0.822   0.484  0.3437  0.9322  0.0766
 9687TIP3    H229026   6.493   0.804   0.525  0.6708 -0.7397 -1.6587
 9688TIP3   OH229027   5.583   4.516   4.079  0.2881 -0.3019  0.4745
 9688TIP3    H129028   5.584   4.539   4.172  0.3935 -0.3009  0.4735
 9688TIP3    H229029   5.620   4.593   4.035  0.2975 -0.3272  0.4378
 9689TIP3   OH229030   4.475   5.110   2.617 -0.6797 -0.3501  0.7156
 9689TIP3    H129031   4.436   5.193   2.644 -0.8217 -0.1709 -0.0036
 9689TIP3    H229032   4.524   5.081   2.693 -0.2676  0.6106  0.8344
 9690TIP3   OH229033   3.673   5.506   5.666 -0.2761  0.1656 -0.8572
 9690TIP3    H129034   3.703   5.462   5.587 -0.8960  0.0924 -1.0527
 9690TIP3    H229035   3.721   5.463   5.737  1.1064  0.9620 -1.2779
 9691TIP3   OH229036   2.309   1.720   4.218  0.4896 -0.7358 -0.2088
 9691TIP3    H129037   2.258   1.639   4.218  2.3552 -1.9781  0.2828
 9691TIP3    H229038   2.322   1.740   4.125 -2.2524  0.6015 -0.4170
 9692TIP3   OH229039   1.450   3.981   0.702  0.2985 -0.5351  0.3155
 9692TIP3    H129040   1.361   3.992   0.668  0.3457  0.8037  0.5592
 9692TIP3    H229041   1.471   3.889   0.686 -0.5099 -0.4766 -1.2550
 9693TIP3   OH229042   4.357   3.131   0.671 -0.3759  0.4345 -0.0817
 9693TIP3    H129043   4.282   3.172   0.628 -0.8469  0.9170  1.1515
 9693TIP3    H229044   4.319   3.089   0.749  0.0917 -2.2263 -1.1685
 9694TIP3   OH229045   4.068   3.801   3.195 -0.2277  0.6288  0.0844
 9694TIP3    H129046   4.054   3.896   3.194 -0.0259  0.6635 -0.7724
 9694TIP3    H229047   4.039   3.772   3.109 -0.5372 -0.1314  0.4387
 9695TIP3   OH229048   4.040   0.830   5.643 -0.1144 -0.3704 -0.2477
 9695TIP3    H129049   3.975   0.762   5.655  1.0757 -1.8345 -1.6318
 9695TIP3    H229050   4.020   0.868   5.557 -0.8294  1.1535  0.5450
 9696TIP3   OH229051   3.629   3.878   0.902  0.1819  0.1100  0.3322
 9696TIP3    H129052   3.619   3.903   0.994 -2.5678  0.4409  0.0371
 9696TIP3    H229053   3.628   3.783   0.902 -2.8000  0.0338  0.5379
 9697TIP3   OH229054   0.037   2.482   5.102  0.5207  0.0613 -0.1138
 9697TIP3    H129055   0.107   2.458   5.041  0.2507  2.2266 -1.3809
 9697TIP3    H229056   0.079   2.538   5.167  0.1530  0.6089 -0.3432
 9698TIP3   OH229057   2.596   5.336   3.209 -0.9542 -0.0078 -0.0525
 9698TIP3    H129058   2.635   5.315   3.294 -0.4281 -0.3793 -0.3843
 9698TIP3    H229059   2.533   5.265   3.194  0.0799 -0.7999 -0.6945
 9699TIP3   OH229060   3.257   3.870   1.989  0.8788  0.2273 -0.4840
 9699TIP3    H129061   3.308   3.797   1.954 -0.3727 -0.4276 -0.9850
 9699TIP3    H229062   3.279   3.944   1.932  0.0464 -0.4509 -1.7376
 9700TIP3   OH229063   0.363   4.436   5.411  0.2665  0.1428  0.5361
 9700TIP3    H129064   0.421   4.381   5.358  0.5881 -0.4584  1.4742
 9700TIP3    H229065   0.310   4.484   5.348 -1.5817 -2.8404 -0.3787
 9701TIP3   OH229066   0.399   3.902   3.401 -0.3955 -0.2737  0.6289
 9701TIP3    H129067   0.465   3.834   3.416 -0.2499 -0.4423 -0.6609
 9701TIP3    H229068   0.443   3.967   3.347 -1.0727 -0.0293  0.3590
 9702TIP3   OH229069   7.157   3.670   0.938  0.5544  0.0435 -0.3041
 9702TIP3    H129070   7.239   3.657   0.985  0.5410  0.0464 -0.2801
 9702TIP3    H229071   7.097   3.606   0.976 -0.6057  2.4762  2.3265
 9703TIP3   OH229072   5.990   0.885   4.664 -0.0145 -0.5483 -0.6551
 9703TIP3    H129073   5.957   0.966   4.705 -0.3054 -0.6935 -0.6006
 9703TIP3    H229074   5.964   0.892   4.572 -1.2536 -1.2038 -0.3763
 9704TIP3   OH229075   4.204   2.394   1.256  0.4427  0.5572 -0.9135
 9704TIP3    H129076   4.238   2.310   1.286  0.7988  1.0606  0.1430
 9704TIP3    H229077   4.199   2.386   1.161  0.0503 -0.8092 -0.7999
 9705TIP3   OH229078   6.827   1.466   5.281  0.2860  0.3730 -0.1687
 9705TIP3    H129079   6.810   1.540   5.223  1.7540  0.8990  0.0225
 9705TIP3    H229080   6.914   1.484   5.317 -0.5856  0.1027  2.2621
 9706TIP3   OH229081   3.598   0.828   3.059 -0.6287 -0.1930 -0.0549
 9706TIP3    H129082   3.660   0.868   3.119  0.8461  0.8560 -2.1747
 9706TIP3    H229083   3.518   0.816   3.112  0.5856  0.5919  2.0851
 9707TIP3   OH229084   0.805   0.525   2.453  0.4276  0.1956  0.6488
 9707TIP3    H129085   0.712   0.550   2.455 -0.2796 -2.1978  1.8240
 9707TIP3    H229086   0.810   0.449   2.510  2.7398 -1.0685 -1.0765
 9708TIP3   OH229087   1.152   0.913   4.147 -0.0271  0.4299  0.2096
 9708TIP3    H129088   1.239   0.942   4.120 -0.1444  1.0966  0.5242
 9708TIP3    H229089   1.123   0.979   4.211 -0.8015  0.2715  0.0366
 9709TIP3   OH229090   6.394   4.328   2.911  0.3408  0.0294  0.1366
 9709TIP3    H129091   6.439   4.357   2.990 -0.4369  1.5934  0.0323
 9709TIP3    H229092   6.458   4.338   2.841  0.3006  0.8812  0.2152
 9710TIP3   OH229093   1.916   5.956   2.691  0.0576  0.1920  0.3077
 9710TIP3    H129094   1.870   5.876   2.665 -1.2664  0.7411  0.9054
 9710TIP3    H229095   1.990   5.924   2.743 -0.6424 -0.6433  0.8198
 9711TIP3   OH229096   0.188   2.377   3.488 -0.4454  0.0148  0.6169
 9711TIP3    H129097   0.144   2.365   3.573 -0.2755  0.6230  0.7976
 9711TIP3    H229098   0.232   2.462   3.496  0.9849 -0.7050  0.5298
 9712TIP3   OH229099   7.061   4.695   4.916 -0.2431 -0.2777  0.6189
 9712TIP3    H129100   7.108   4.764   4.869  1.3098 -1.2858  0.6279
 9712TIP3    H229101   6.991   4.742   4.962 -0.3117  1.0475 -0.7381
 9713TIP3   OH229102   0.540   5.799   5.442  0.3615  0.2677  0.4490
 9713TIP3    H129103   0.560   5.792   5.535 -1.6389  1.0642  1.0106
 9713TIP3    H229104   0.480   5.726   5.426 -0.0400  0.6881  0.0240
 9714TIP3   OH229105   3.109   1.426   2.814 -0.3724  0.0478 -0.4786
 9714TIP3    H129106   3.038   1.409   2.877 -1.0127  1.4678 -0.7829
 9714TIP3    H229107   3.087   1.370   2.739 -0.7372 -0.1201 -0.2525
 9715TIP3   OH229108   6.686   5.479   1.608  0.5739 -0.8847 -0.7049
 9715TIP3    H129109   6.668   5.514   1.695 -1.2565  0.5006 -1.5681
 9715TIP3    H229110   6.746   5.406   1.623  1.7263  0.3975  1.5413
 9716TIP3   OH229111   0.695   4.006   0.422  0.1959  0.0274 -0.6088
 9716TIP3    H129112   0.634   4.058   0.474  0.0442 -0.6412 -0.1073
 9716TIP3    H229113   0.653   4.000   0.336  0.1232  0.5663 -0.6110
 9717TIP3   OH229114   4.006   1.170   2.407  0.1130  0.2545  0.8222
 9717TIP3    H129115   3.931   1.152   2.351  1.3183 -0.2700 -0.7040
 9717TIP3    H229116   4.051   1.243   2.364  1.2622 -0.3980  0.8922
 9718TIP3   OH229117   6.574   3.389   1.030 -0.2273  0.3410  0.2957
 9718TIP3    H129118   6.668   3.407   1.037 -0.1535  0.3256 -0.5436
 9718TIP3    H229119   6.570   3.301   0.992 -0.5768  0.7274 -0.5727
 9719TIP3   OH229120   1.210   5.348   3.348 -0.4785 -0.0509 -0.3931
 9719TIP3    H129121   1.159   5.314   3.422  1.2799 -1.6175  0.2122
 9719TIP3    H229122   1.187   5.440   3.343 -1.3788 -0.1122  1.5184
 9720TIP3   OH229123   4.864   4.014   0.675 -0.0196 -0.5394  0.5762
 9720TIP3    H129124   4.804   4.085   0.696 -1.4479 -0.5972 -2.7139
 9720TIP3    H229125   4.809   3.935   0.673  0.7695 -1.1043  0.4704
 9721TIP3   OH229126   5.912   6.069   1.324 -0.0027 -0.2981  0.3626
 9721TIP3    H129127   5.824   6.038   1.301 -0.1942 -0.5884  1.4447
 9721TIP3    H229128   5.932   6.026   1.406  0.8375  0.3864  0.5319
 9722TIP3   OH229129   0.898   3.381   3.223 -0.3540  0.6178 -0.1631
 9722TIP3    H129130   0.836   3.453   3.232  0.4350  1.0581  2.5403
 9722TIP3    H229131   0.905   3.367   3.128 -1.7343  3.0079 -0.6933
 9723TIP3   OH229132   3.460   0.074   1.341 -0.0146 -0.5473 -0.0627
 9723TIP3    H129133   3.510   0.095   1.419 -3.6136  1.5455  1.9637
 9723TIP3    H229134   3.478   0.147   1.281 -0.5547  0.1530  0.6160
 9724TIP3   OH229135   0.889   4.816   0.125 -0.1936 -0.0640 -0.3458
 9724TIP3    H129136   0.959   4.874   0.094  0.3541 -0.0611  0.8544
 9724TIP3    H229137   0.814   4.837   0.069  0.9746 -0.6270 -2.1903
 9725TIP3   OH229138   0.597   6.429   1.193 -0.1000 -0.4653  0.2112
 9725TIP3    H129139   0.643   6.384   1.264  3.1896  0.9522 -0.8024
 9725TIP3    H229140   0.584   6.518   1.225 -0.0562 -0.2472 -0.3671
 9726TIP3   OH229141   5.547   1.123   0.807  0.3886  0.4241 -0.4377
 9726TIP3    H129142   5.512   1.036   0.794  0.5935  0.3160 -0.2697
 9726TIP3    H229143   5.506   1.176   0.739 -1.4375  0.6949  0.7980
 9727TIP3   OH229144   6.787   1.731   0.842  0.1620  0.3448 -0.1001
 9727TIP3    H129145   6.706   1.768   0.807 -1.8876 -2.7342  0.9014
 9727TIP3    H229146   6.775   1.734   0.937  0.7843 -0.9665  0.0382
 9728TIP3   OH229147   4.843   6.316   0.741  0.6140 -0.1076 -0.4134
 9728TIP3    H129148   4.785   6.384   0.774 -0.3638 -2.1734  2.4963
 9728TIP3    H229149   4.796   6.280   0.666 -0.3956  0.2903  0.0082
 9729TIP3   OH229150   0.527   0.802   4.035  0.3999  0.9016  0.0012
 9729TIP3    H129151   0.498   0.851   4.112  0.3492 -0.0768  0.6172
 9729TIP3    H229152   0.508   0.711   4.056 -0.3970  0.6889 -1.5173
 9730TIP3   OH229153   0.141   6.041   0.393 -0.0863 -0.2677  0.0278
 9730TIP3    H129154   0.216   5.982   0.385  0.8477  0.8347  0.3897
 9730TIP3    H229155   0.169   6.121   0.348  0.0022  1.1239  2.4162
 9731TIP3   OH229156   3.346   5.358   2.208  0.2635 -0.1536 -0.5210
 9731TIP3    H129157   3.350   5.448   2.239 -1.3581 -0.8728  2.1170
 9731TIP3    H229158   3.429   5.319   2.236  0.0266 -0.0427  0.3447
 9732TIP3   OH229159   1.418   2.705   2.055 -0.2827  0.1487 -0.1957
 9732TIP3    H129160   1.401   2.664   2.140 -0.6984 -0.7170 -0.6893
 9732TIP3    H229161   1.331   2.722   2.019 -0.1846 -1.9489 -1.6045
 9733TIP3   OH229162   5.325   3.752   5.554 -0.2118  0.8027 -0.5912
 9733TIP3    H129163   5.409   3.710   5.572 -0.2384 -0.5971 -3.1422
 9733TIP3    H229164   5.336   3.842   5.583  0.5812 -0.3334  3.2076
 9734TIP3   OH229165   3.041   0.662   3.493 -0.0589 -0.0486  0.5423
 9734TIP3    H129166   2.953   0.669   3.454  0.5361 -2.0407 -1.3495
 9734TIP3    H229167   3.042   0.576   3.534  1.2855 -0.4359 -0.2655
 9735TIP3   OH229168   6.674   0.725   0.252 -0.2455  0.2257  0.3508
 9735TIP3    H129169   6.732   0.662   0.209 -1.5321 -0.2127 -0.8001
 9735TIP3    H229170   6.689   0.711   0.346  0.1763 -1.1362  0.1038
 9736TIP3   OH229171   1.599   0.658   3.149 -0.2414  0.5448 -1.0828
 9736TIP3    H129172   1.565   0.643   3.236  2.1720 -2.5522 -0.5103
 9736TIP3    H229173   1.543   0.607   3.091 -0.4141  0.6713 -1.0269
 9737TIP3   OH229174   3.937   5.533   0.684  0.5265  0.3649  0.3283
 9737TIP3    H129175   3.949   5.446   0.723  1.4743 -0.0343 -0.7903
 9737TIP3    H229176   3.951   5.594   0.757 -2.6800 -0.3796  1.7657
 9738TIP3   OH229177   4.707   5.052   1.860 -0.1205 -0.4376 -0.3777
 9738TIP3    H129178   4.676   5.023   1.946 -0.1816  0.3066 -0.1394
 9738TIP3    H229179   4.796   5.018   1.854 -0.6449 -1.8368 -0.6962
 9739TIP3   OH229180   1.552   5.397   1.267  0.0711  0.4792 -0.4009
 9739TIP3    H129181   1.573   5.356   1.351 -2.0394 -1.8362 -0.8887
 9739TIP3    H229182   1.457   5.408   1.269 -0.0663  0.0600 -2.6174
 9740TIP3   OH229183   6.891   1.261   5.041 -0.2211 -0.1788  0.3062
 9740TIP3    H129184   6.872   1.271   5.134 -0.1011  0.5022  0.2649
 9740TIP3    H229185   6.920   1.170   5.032  1.9436  0.3332  1.3500
 9741TIP3   OH229186   2.274   2.040   4.071  0.6049 -0.6666  0.2279
 9741TIP3    H129187   2.287   1.946   4.066  0.8068 -0.5713 -1.6118
 9741TIP3    H229188   2.213   2.060   4.000  3.4549  1.0384 -1.9462
 9742TIP3   OH229189   4.355   4.257   0.350  0.0649 -0.1784  0.1527
 9742TIP3    H129190   4.295   4.322   0.313 -0.1747 -0.1016  0.6764
 9742TIP3    H229191   4.336   4.177   0.300  1.2753  0.4508 -1.4137
 9743TIP3   OH229192   7.117   4.339   2.013  0.1584 -0.1192 -0.2073
 9743TIP3    H129193   7.053   4.411   2.003  0.6654  0.4347  0.4513
 9743TIP3    H229194   7.073   4.263   1.975 -0.6376  0.3996 -0.3558
 9744TIP3   OH229195   5.729   1.778   0.988 -0.0856 -0.2174 -0.4780
 9744TIP3    H129196   5.750   1.750   1.078 -1.0371  0.3013 -0.0744
 9744TIP3    H229197   5.679   1.705   0.952  0.1118 -0.3363 -0.5133
 9745TIP3   OH229198   1.980   0.037   0.719 -0.5676 -0.1934 -0.4119
 9745TIP3    H129199   2.068   0.007   0.741 -0.2880  0.1908 -0.9863
 9745TIP3    H229200   1.940  -0.037   0.673 -1.4636 -1.3341  2.0601
 9746TIP3   OH229201   6.290   1.590   2.384  0.0959 -0.3784 -0.6051
 9746TIP3    H129202   6.205   1.629   2.362  0.2255  0.1721 -0.1471
 9746TIP3    H229203   6.352   1.663   2.381  0.1347 -0.2527  1.4534
 9747TIP3   OH229204   2.109   5.048   3.252  0.1184  0.4146  0.2664
 9747TIP3    H129205   2.022   5.040   3.289  0.1492  0.1566  0.2845
 9747TIP3    H229206   2.144   4.959   3.253  0.0569  0.3694 -0.5348
 9748TIP3   OH229207   3.005   6.531   0.978 -0.2533 -0.0572 -0.3757
 9748TIP3    H129208   2.980   6.440   0.998 -0.6684  0.2238  0.4135
 9748TIP3    H229209   3.099   6.534   0.996 -0.6613  0.2543  1.8667
 9749TIP3   OH229210   0.751   3.182   4.811 -0.0074  0.0040  0.6685
 9749TIP3    H129211   0.828   3.190   4.755 -0.0819 -0.5562  0.4814
 9749TIP3    H229212   0.785   3.185   4.900  0.2758 -0.6179  0.5856
   7.21713   6.80440   5.89277   0.00000   0.00000  -2.40572   0.00000  -2.40572  -3.40219
