Title
44389
    1GLY      N    1   6.491   3.680   1.344 -0.0868 -1.2093 -0.1727
    1GLY    HT1    2   6.520   3.601   1.404  0.8772 -0.4209  0.4256
    1GLY    HT2    3   6.576   3.712   1.293 -0.3928  0.9726  0.5924
    1GLY    HT3    4   6.422   3.653   1.271 -0.9463  0.3647  0.0021
    1GLY     CA    5   6.442   3.804   1.423  0.4634  0.2208  0.2880
    1GLY    HA1    6   6.377   3.854   1.353 -1.6305 -1.2840  1.0307
    1GLY    HA2    7   6.528   3.858   1.459  0.1883  0.9922 -0.1797
    1GLY      C    8   6.348   3.760   1.531  0.1474  0.8206 -0.4989
    1GLY      O    9   6.305   3.646   1.536 -0.3267  0.1565  0.5564
    2PRO      N   10   6.306   3.848   1.627 -0.1700 -0.1257  0.8187
    2PRO     CD   11   6.368   3.984   1.630  0.2883  0.4915  0.3597
    2PRO    HD1   12   6.327   4.044   1.546 -0.1994  2.2324  1.7790
    2PRO    HD2   13   6.479   3.982   1.631  0.3525  0.6205 -1.7738
    2PRO     CA   14   6.192   3.833   1.725  0.2692 -0.1859 -0.3592
    2PRO     HA   15   6.226   3.756   1.793  2.5122  1.3639  0.3632
    2PRO     CB   16   6.179   3.976   1.785  1.2902  0.1130 -0.0564
    2PRO    HB1   17   6.139   3.980   1.889  0.2206 -0.3966 -0.4349
    2PRO    HB2   18   6.111   4.031   1.717  0.6586 -0.0947  0.4023
    2PRO     CG   19   6.312   4.041   1.758  0.5421  0.1063  0.0054
    2PRO    HG1   20   6.309   4.151   1.742  1.5155  0.5908  2.6616
    2PRO    HG2   21   6.377   4.015   1.844  0.3013  1.5628  0.6582
    2PRO      C   22   6.057   3.790   1.679 -0.0277 -0.1368 -1.0477
    2PRO      O   23   6.011   3.829   1.571  0.0493  0.5787 -0.4388
    3GLY      N   24   5.988   3.701   1.756  0.4253  0.6691  0.1999
    3GLY     HN   25   6.026   3.673   1.844 -0.0527  0.7432  0.4307
    3GLY     CA   26   5.863   3.628   1.729 -0.0638 -0.1843  0.2286
    3GLY    HA1   27   5.789   3.701   1.698  1.4301  1.3521  0.1400
    3GLY    HA2   28   5.842   3.590   1.828 -0.5532  2.7368  1.3472
    3GLY      C   29   5.861   3.513   1.630  0.7984  0.1348 -0.4168
    3GLY      O   30   5.958   3.483   1.563 -0.3205 -0.6928 -0.6325
    4ASP      N   31   5.746   3.445   1.614 -0.7844 -0.0673 -0.1990
    4ASP     HN   32   5.669   3.466   1.674 -0.2823 -0.0400  0.4447
    4ASP     CA   33   5.731   3.329   1.525  0.5188 -0.2857  0.6562
    4ASP     HA   34   5.824   3.275   1.526  0.5458 -0.4621 -2.7820
    4ASP     CB   35   5.596   3.256   1.554  0.3540  0.2699 -0.5475
    4ASP    HB1   36   5.584   3.172   1.483 -0.9597 -0.1651  0.1638
    4ASP    HB2   37   5.516   3.331   1.537  1.2306  1.6311  1.0108
    4ASP     CG   38   5.599   3.206   1.701 -0.1784 -0.6227 -0.2988
    4ASP    OD1   39   5.707   3.173   1.758 -0.0552  0.5955 -0.1146
    4ASP    OD2   40   5.486   3.184   1.751  0.2940  0.4748 -0.1909
    4ASP      C   41   5.719   3.370   1.379  0.2888  0.1584 -0.0337
    4ASP      O   42   5.666   3.478   1.352 -0.2017 -0.3821 -0.6798
    5PRO      N   43   5.769   3.287   1.282  0.0202 -0.1284  0.0159
    5PRO     CD   44   5.840   3.159   1.318  0.5384  0.5407 -0.2061
    5PRO    HD1   45   5.773   3.104   1.388  0.6875 -0.5953 -0.9412
    5PRO    HD2   46   5.935   3.172   1.373  0.9414 -2.6298  0.0149
    5PRO     CA   47   5.765   3.306   1.139 -0.8632 -0.0952 -0.2796
    5PRO     HA   48   5.820   3.393   1.109  1.4170 -1.8728 -1.5341
    5PRO     CB   49   5.842   3.185   1.081 -0.3618  0.2071  0.0855
    5PRO    HB1   50   5.941   3.209   1.036  0.6936  0.1516  2.2572
    5PRO    HB2   51   5.785   3.145   0.995  1.0048 -0.8480 -0.3567
    5PRO     CG   52   5.858   3.077   1.187 -0.1721  0.7141 -0.0627
    5PRO    HG1   53   5.786   2.993   1.183 -1.3070  1.5732  1.3687
    5PRO    HG2   54   5.961   3.041   1.165  1.1998  3.4919  1.2344
    5PRO      C   55   5.624   3.316   1.084 -0.1175 -0.5960 -0.0358
    5PRO      O   56   5.539   3.225   1.097  0.6059  0.1869  0.4002
    6GLY      N   57   5.613   3.417   1.003  0.4346 -0.2671 -0.3021
    6GLY     HN   58   5.689   3.479   0.991  0.2109 -0.4842 -3.4970
    6GLY     CA   59   5.486   3.442   0.940  0.3416  1.1898 -0.6428
    6GLY    HA1   60   5.459   3.344   0.905  2.8304  0.4097 -0.5441
    6GLY    HA2   61   5.508   3.503   0.853  2.7544 -0.2486 -1.1157
    6GLY      C   62   5.382   3.498   1.033 -0.2985 -0.5309  0.0545
    6GLY      O   63   5.405   3.532   1.143 -0.0172  0.3738 -0.1968
    7SER      N   64   5.260   3.524   0.979 -0.3053 -0.2445  0.0908
    7SER     HN   65   5.250   3.512   0.881 -2.2766 -0.1900  0.2416
    7SER     CA   66   5.145   3.561   1.060 -0.0092 -0.5391  0.7654
    7SER     HA   67   5.172   3.647   1.119 -1.9883 -0.3251  1.4346
    7SER     CB   68   5.021   3.609   0.964 -0.8782 -0.7587  0.0228
    7SER    HB1   69   4.929   3.620   1.026 -0.2211  2.1934  0.6494
    7SER    HB2   70   5.007   3.536   0.882 -1.2386 -1.8881  1.0612
    7SER     OG   71   5.040   3.731   0.895  0.3077  0.1469  0.3039
    7SER    HG1   72   5.134   3.742   0.878  0.1793 -0.5524 -0.9901
    7SER      C   73   5.105   3.447   1.146 -0.0800  0.3375  0.0765
    7SER      O   74   5.082   3.336   1.102  0.7710 -0.4832  0.4769
    8GLY      N   75   5.081   3.475   1.274  0.3575  0.3333 -0.2682
    8GLY     HN   76   5.088   3.567   1.311 -2.2588 -0.3394  2.2519
    8GLY     CA   77   5.019   3.394   1.375  0.0205  0.3219  0.1012
    8GLY    HA1   78   4.990   3.460   1.455  0.2204  2.3802 -1.4433
    8GLY    HA2   79   5.099   3.331   1.411 -0.8733 -1.0856 -0.2899
    8GLY      C   80   4.903   3.312   1.329  0.5815 -0.4831  0.2414
    8GLY      O   81   4.820   3.364   1.256  0.0150 -0.3479 -0.4329
    9ASN      N   82   4.900   3.183   1.360  0.5851 -0.2500  0.0250
    9ASN     HN   83   4.973   3.142   1.413  0.6185 -0.3578 -0.1034
    9ASN     CA   84   4.797   3.091   1.318 -0.9008 -0.2192 -0.0918
    9ASN     HA   85   4.781   3.110   1.213 -1.3730 -4.1873 -0.9024
    9ASN     CB   86   4.855   2.948   1.331 -0.0150  0.0939  0.2980
    9ASN    HB1   87   4.883   2.920   1.435  2.8993 -1.5966 -0.8209
    9ASN    HB2   88   4.955   2.941   1.283 -0.3339 -0.3154 -0.3047
    9ASN     CG   89   4.775   2.839   1.261 -0.0181 -0.6263  0.7045
    9ASN    OD1   90   4.747   2.834   1.140 -0.1420 -0.7009  0.6130
    9ASN    ND2   91   4.733   2.731   1.337 -0.0864 -0.4586  0.4477
    9ASN   HD21   92   4.674   2.666   1.289 -1.0635  0.6761  0.0611
    9ASN   HD22   93   4.708   2.748   1.432 -1.0820 -0.2849  0.1654
    9ASN      C   94   4.667   3.105   1.403 -0.0828 -0.2848  0.8261
    9ASN      O   95   4.675   3.141   1.521  0.4416 -0.0066  0.0976
   10PRO      N   96   4.547   3.082   1.349  0.1666  0.6242  0.0644
   10PRO     CD   97   4.517   3.104   1.205 -0.1217  0.0462  0.8331
   10PRO    HD1   98   4.564   3.030   1.138  4.4203  2.7242  0.6209
   10PRO    HD2   99   4.563   3.202   1.181 -0.3964 -0.2018 -0.8139
   10PRO     CA  100   4.426   3.074   1.424 -0.5408  0.7635  0.0633
   10PRO     HA  101   4.418   3.173   1.465 -0.2714  0.0737  1.8531
   10PRO     CB  102   4.307   3.061   1.327 -0.5526  0.2152 -0.2275
   10PRO    HB1  103   4.219   3.119   1.362  0.6284  2.1159 -0.2566
   10PRO    HB2  104   4.279   2.954   1.312  0.4296  0.2198 -2.3583
   10PRO     CG  105   4.359   3.114   1.191  0.0020 -0.1472  0.1457
   10PRO    HG1  106   4.317   3.067   1.099 -0.2129  0.5223 -0.1053
   10PRO    HG2  107   4.320   3.218   1.198 -1.0634 -0.5029 -0.1850
   10PRO      C  108   4.422   2.983   1.549 -0.9567  0.3325 -0.4345
   10PRO      O  109   4.469   2.872   1.535  0.2573  0.5223 -0.2682
   11GLY      N  110   4.355   3.032   1.656  0.1599 -0.1083 -0.1449
   11GLY     HN  111   4.322   3.126   1.655  1.1062  0.2543 -1.8621
   11GLY     CA  112   4.318   2.951   1.769  0.9773  0.3203  0.0576
   11GLY    HA1  113   4.292   3.014   1.853 -1.0878 -2.6920  1.8939
   11GLY    HA2  114   4.400   2.882   1.782 -0.1642 -0.9912  0.6078
   11GLY      C  115   4.199   2.852   1.737  0.0193 -0.7930 -0.2416
   11GLY      O  116   4.155   2.850   1.622 -0.1740  0.2862  0.2787
   12SER      N  117   4.154   2.775   1.836  0.2802 -0.3081  0.2422
   12SER     HN  118   4.191   2.785   1.928 -1.7757  0.3217  1.0433
   12SER     CA  119   4.043   2.674   1.835  0.3044 -0.6720  0.0845
   12SER     HA  120   4.047   2.614   1.746 -0.9819  1.2216 -1.3394
   12SER     CB  121   4.036   2.594   1.966  0.1743 -0.0789 -0.3025
   12SER    HB1  122   4.131   2.539   1.982 -0.3793 -1.0423 -0.2067
   12SER    HB2  123   3.961   2.512   1.965 -0.3830  0.4302 -1.2512
   12SER     OG  124   4.020   2.675   2.088  0.1361  0.3072  0.2753
   12SER    HG1  125   4.100   2.723   2.109  0.0213  0.7328 -0.2520
   12SER      C  126   3.914   2.747   1.814  0.3420 -0.3770  0.7999
   12SER      O  127   3.823   2.706   1.738 -0.4711 -0.9759 -0.0210
   13GLY      N  128   3.892   2.865   1.876 -0.0121  0.2780 -0.2691
   13GLY     HN  129   3.965   2.903   1.931 -0.7665  0.1641  0.8571
   13GLY     CA  130   3.766   2.940   1.883 -0.4319 -0.2197  0.0421
   13GLY    HA1  131   3.732   2.935   1.781  0.6242  0.5446 -0.3708
   13GLY    HA2  132   3.786   3.041   1.915 -2.7548  0.0109  0.9429
   13GLY      C  133   3.665   2.886   1.978 -0.4641  0.1472 -1.2104
   13GLY      O  134   3.683   2.779   2.029  0.1851  0.5336 -0.2231
   14ASP      N  135   3.573   2.974   2.019  0.0639  0.1099 -0.0418
   14ASP     HN  136   3.563   3.047   1.953  1.0443 -1.5842 -2.1781
   14ASP     CA  137   3.461   2.928   2.107 -0.3854 -0.1847  0.7686
   14ASP     HA  138   3.494   2.849   2.173  0.0559  1.8265  3.1022
   14ASP     CB  139   3.412   3.037   2.200 -0.4752  0.0501 -0.2865
   14ASP    HB1  140   3.337   2.989   2.267  1.3052 -3.4541 -0.5649
   14ASP    HB2  141   3.360   3.118   2.145  0.2705  0.2022 -0.7788
   14ASP     CG  142   3.513   3.104   2.292 -0.2887 -0.5347 -0.6030
   14ASP    OD1  143   3.488   3.219   2.330 -0.3140  0.4658 -0.4246
   14ASP    OD2  144   3.618   3.040   2.323 -0.3964  0.3431 -0.0552
   14ASP      C  145   3.339   2.877   2.017  0.4458 -0.5623 -0.7493
   14ASP      O  146   3.325   2.920   1.906 -0.1718 -0.0204  0.2701
   15PRO      N  147   3.254   2.784   2.060  0.3155 -0.4204  0.1987
   15PRO     CD  148   3.271   2.705   2.177 -0.0878  0.4676 -0.2276
   15PRO    HD1  149   3.265   2.765   2.270 -3.1446 -0.4722  0.2927
   15PRO    HD2  150   3.373   2.661   2.185 -0.6003 -0.5081  1.1266
   15PRO     CA  151   3.157   2.729   1.970  0.3850  0.5361 -0.6484
   15PRO     HA  152   3.208   2.713   1.876 -2.1141  0.5220 -2.1155
   15PRO     CB  153   3.126   2.595   2.030  0.3729 -0.8763 -1.2118
   15PRO    HB1  154   3.191   2.526   1.971  1.5623  0.9630 -2.1465
   15PRO    HB2  155   3.018   2.571   2.019  0.3323 -1.2003 -0.2106
   15PRO     CG  156   3.168   2.591   2.171 -0.1075  0.7591 -0.7552
   15PRO    HG1  157   3.080   2.615   2.234 -0.9112 -0.3122 -1.4287
   15PRO    HG2  158   3.200   2.489   2.200  0.6087  0.8310 -1.2531
   15PRO      C  159   3.036   2.820   1.951  0.2311  0.0997 -0.2353
   15PRO    OT1  160   3.004   2.894   2.044  0.0924  0.1569 -0.0845
   15PRO    OT2  161   2.969   2.807   1.844 -0.1779 -0.1979 -0.2491
   16SOD    SOD  162   4.076   5.477   0.888 -0.0444  0.1166  0.0561
   17SOD    SOD  163   1.232   3.410   2.064 -0.2424 -0.1778 -0.3528
   18SOD    SOD  164   3.446   7.771   4.098 -0.4680  0.2926  0.4596
   19SOD    SOD  165   7.961   5.621   3.761 -0.0031 -0.0391  0.5880
   20SOD    SOD  166   3.237   1.989   3.507  0.1251  0.0575 -0.0570
   21SOD    SOD  167   6.297   1.277   4.750 -0.1597  0.1096 -0.0827
   22SOD    SOD  168   4.688   4.806   4.365 -0.0724 -0.3748  0.0488
   23SOD    SOD  169   2.701   7.233   4.586  0.0309 -0.0850 -0.1591
   24SOD    SOD  170   6.689   2.579   6.295 -0.0886  0.3105 -0.2697
   25SOD    SOD  171   5.427   6.598   6.150  0.5977 -0.1568  0.1184
   26SOD    SOD  172   1.429   3.719   5.667  0.2897  0.0329 -0.7121
   27SOD    SOD  173   0.394   4.835   1.566  0.4500  0.1793 -0.1566
   28SOD    SOD  174   7.483   1.417   4.416 -0.1751  0.0391  0.4310
   29SOD    SOD  175   1.607   7.666   2.725 -0.0963 -0.0483  0.0756
   30SOD    SOD  176   4.443   3.020   0.003  0.0579 -0.2171  0.1112
   31SOD    SOD  177   3.788   2.651   2.189  0.0415 -0.3063 -0.0874
   32SOD    SOD  178   6.198   1.669   5.014  0.9076 -0.4432  0.0567
   33SOD    SOD  179   0.241   5.403   1.851 -0.0098 -0.3673 -0.2933
   34SOD    SOD  180   7.399   5.397   5.604  0.1242 -0.4345 -0.6715
   35SOD    SOD  181   7.584   5.491   1.140  0.1090  0.1171 -0.2596
   36SOD    SOD  182   6.579   1.811   6.349 -0.7728 -0.2875  0.1363
   37SOD    SOD  183   1.514   3.873   4.381  0.3600  0.1269 -0.1691
   38SOD    SOD  184   8.079   3.679   5.548  0.2670 -0.1560  0.0978
   39SOD    SOD  185   4.641   4.040   4.212 -0.1200 -0.1517 -0.0865
   40SOD    SOD  186   0.128   0.438   0.426  0.1160 -0.1625 -0.7508
   41SOD    SOD  187   3.014   7.006   1.637  0.2607 -0.1108  0.2197
   42SOD    SOD  188   7.516   6.183   3.610  0.2223 -0.3722  0.0433
   43SOD    SOD  189   6.239   3.408   3.052  0.2833  0.3828  0.7812
   44SOD    SOD  190   0.322   1.756   6.109  0.1392 -0.6751 -0.2598
   45SOD    SOD  191   3.128   3.038   0.933  0.2532  0.3007 -0.0827
   46SOD    SOD  192   3.779   7.719   0.810 -0.1839 -0.0883  0.0035
   47SOD    SOD  193   4.010   4.165   2.801  0.2358  0.1092  0.2141
   48SOD    SOD  194   2.238   0.372   3.606  0.0214  0.1951  0.7305
   49SOD    SOD  195   7.009   0.658   0.407  0.0756 -0.4792 -0.0069
   50SOD    SOD  196   6.083   5.264   2.597 -0.2153 -0.1227 -0.6404
   51SOD    SOD  197   5.517   3.863   1.423 -0.1616  0.6140 -0.2700
   52SOD    SOD  198   5.046   6.912   0.923  0.4521 -0.6751  0.0945
   53SOD    SOD  199   4.733   1.828   1.510 -0.3117 -0.7658  0.3559
   54SOD    SOD  200   0.356   6.282   1.548  0.5524  0.4750 -0.7735
   55SOD    SOD  201   0.461   6.305   3.559 -0.1153 -0.7541 -0.0860
   56SOD    SOD  202   2.186   2.150   6.189 -0.3667 -0.0387  0.4971
   57SOD    SOD  203   7.274   1.016   5.466  0.0823 -0.0545 -0.1784
   58SOD    SOD  204   4.295   3.728   6.021  0.1302  0.4242 -0.2635
   59SOD    SOD  205   3.778   4.096   3.742 -0.0431  0.0613  0.0534
   60CLA    CLA  206   2.888   1.168   3.428 -0.1824  0.1162 -0.1215
   61CLA    CLA  207   2.444   7.497   3.830 -0.2903 -0.2107  0.5328
   62CLA    CLA  208   0.160   1.829   6.552 -0.0028 -0.0146  0.0084
   63CLA    CLA  209   3.964   2.945   2.589 -0.3596  0.2393  0.2562
   64CLA    CLA  210   7.616   1.859   6.324 -0.1205 -0.0773 -0.1903
   65CLA    CLA  211   0.826   4.516   5.515  0.3082 -0.3330 -0.1447
   66CLA    CLA  212   8.178   6.230   0.371  0.2856 -0.0250 -0.0837
   67CLA    CLA  213   3.342   7.657   3.634  0.1166  0.3161 -0.3030
   68CLA    CLA  214   4.933   4.321   4.544 -0.3636  0.0732  0.2392
   69CLA    CLA  215   1.921   4.325   1.568  0.0216  0.0419 -0.0107
   70CLA    CLA  216   1.639   2.675   5.995  0.1725 -0.1806 -0.1916
   71CLA    CLA  217   3.105   7.117   5.188 -0.4908  0.0673  0.0298
   72CLA    CLA  218   5.993   1.700   6.044 -0.1092  0.2965  0.2502
   73CLA    CLA  219   0.132   5.800   1.732  0.2148 -0.4093  0.2222
   74CLA    CLA  220   7.161   4.414   5.546 -0.0297  0.2738  0.0505
   75CLA    CLA  221   7.705   4.145   1.027  0.3662 -0.3281 -0.0161
   76CLA    CLA  222   3.452   1.039   5.242 -0.2447 -0.1628 -0.0827
   77CLA    CLA  223   7.951   1.013   0.903 -0.0608 -0.5655  0.3358
   78CLA    CLA  224   2.748   2.165   5.681  0.2015  0.3439 -0.0089
   79CLA    CLA  225   5.023   2.408   0.260  0.0208 -0.2458 -0.1895
   80CLA    CLA  226   2.601   1.078   1.061 -0.3418 -0.4653 -0.2173
   81CLA    CLA  227   4.503   0.806   3.140  0.3409  0.0760 -0.1527
   82CLA    CLA  228   8.091   4.264   4.125  0.0794  0.1835 -0.3545
   83CLA    CLA  229   7.192   5.418   6.427  0.0668  0.1396  0.0402
   84CLA    CLA  230   7.875   5.330   4.213 -0.1570 -0.0711  0.0180
   85CLA    CLA  231   6.136   4.408   2.093  0.3387 -0.0150  0.1510
   86CLA    CLA  232   1.089   0.202   4.624  0.1296  0.1349  0.1691
   87CLA    CLA  233   2.560   6.226   1.482 -0.1668  0.1453 -0.1487
   88CLA    CLA  234   7.595   5.259   2.688 -0.1197  0.0750 -0.0125
   89CLA    CLA  235   0.855   7.256   3.204 -0.0436  0.4911 -0.2132
   90CLA    CLA  236   0.241   5.228   3.298  0.1323 -0.7453 -0.0525
   91CLA    CLA  237   6.823   5.876   1.712  0.4725 -0.0534 -0.0576
   92CLA    CLA  238   2.282   1.938   2.180  0.0718 -0.1455 -0.3069
   93CLA    CLA  239   7.605   3.752   1.982  0.5525 -0.0947  0.1150
   94CLA    CLA  240   3.918   2.192   3.330 -0.4536 -0.1006  0.3620
   95CLA    CLA  241   4.106   5.399   4.053  0.5104  0.0822 -0.3970
   96CLA    CLA  242   6.079   1.583   5.570 -0.2169 -0.1680  0.5512
   97CLA    CLA  243   7.581   1.351   0.354  0.1713 -0.1286  0.0401
   98CLA    CLA  244   7.548   2.908   2.496  0.0688  0.1965  0.5442
   99CLA    CLA  245   2.741   7.362   5.385  0.4460  0.6636 -0.6263
  100CLA    CLA  246   2.709   5.351   4.440  0.1233 -0.0535  0.3520
  101CLA    CLA  247   4.824   3.050   4.494 -0.0164  0.0298 -0.2853
  102TIP3   OH2  248   0.675   3.875   5.693 -0.1865 -0.1946  0.0858
  102TIP3    H1  249   0.708   3.960   5.721  0.1412 -0.1040 -0.5657
  102TIP3    H2  250   0.719   3.813   5.752  1.8734 -0.1522 -1.2898
  103TIP3   OH2  251   7.185   4.294   4.733 -0.2565  0.0366 -0.1656
  103TIP3    H1  252   7.227   4.377   4.710  0.0774 -0.3544 -1.0090
  103TIP3    H2  253   7.095   4.318   4.756 -1.2177  0.3136 -3.7107
  104TIP3   OH2  254   7.258   0.448   4.681  0.3689 -0.1971  0.0272
  104TIP3    H1  255   7.272   0.425   4.773 -2.9952 -1.4486  0.3314
  104TIP3    H2  256   7.290   0.372   4.632 -1.3183 -1.2302  0.4524
  105TIP3   OH2  257   2.318   4.620   4.660  0.4671 -0.0710 -0.1544
  105TIP3    H1  258   2.413   4.610   4.662  0.7292  1.7890 -1.1190
  105TIP3    H2  259   2.304   4.715   4.657 -1.4095 -0.3243 -0.5482
  106TIP3   OH2  260   4.531   3.486   0.216 -0.2945  0.0252 -0.4850
  106TIP3    H1  261   4.576   3.504   0.299 -0.1167  0.2998 -0.6392
  106TIP3    H2  262   4.507   3.572   0.183  0.2513 -0.0420 -1.0635
  107TIP3   OH2  263   3.671   7.005   2.503 -0.3804 -0.3465  0.0124
  107TIP3    H1  264   3.618   7.043   2.574  1.1600 -1.4236  1.8319
  107TIP3    H2  265   3.760   7.003   2.537  0.7934  0.7424 -2.6975
  108TIP3   OH2  266   1.086   3.077   5.874 -0.3130  0.5627 -0.4728
  108TIP3    H1  267   1.098   3.080   5.779  1.1222 -1.5906 -0.4398
  108TIP3    H2  268   1.173   3.092   5.909 -0.5510 -0.1362  0.4373
  109TIP3   OH2  269   2.928   4.735   0.429 -0.2411  0.4168 -0.1712
  109TIP3    H1  270   2.974   4.818   0.416 -0.2175  0.5787  0.8392
  109TIP3    H2  271   2.836   4.755   0.414 -0.0271  0.1099 -2.1251
  110TIP3   OH2  272   2.411   1.505   3.360  0.2739  0.0108  0.1868
  110TIP3    H1  273   2.490   1.498   3.306 -0.6869  1.3396 -1.5031
  110TIP3    H2  274   2.411   1.596   3.390 -1.3978  0.5254 -1.2027
  111TIP3   OH2  275   7.776   0.670   6.636 -0.4535  0.2995 -0.2040
  111TIP3    H1  276   7.774   0.585   6.680 -0.6277 -0.8525 -2.2918
  111TIP3    H2  277   7.715   0.724   6.686  1.6735  0.1426  2.8055
  112TIP3   OH2  278   6.139   0.723   3.887 -0.3743 -0.9826  0.4584
  112TIP3    H1  279   6.163   0.760   3.802  0.5692  0.0994  1.1739
  112TIP3    H2  280   6.074   0.784   3.922 -0.5067 -1.2442  0.6727
  113TIP3   OH2  281   6.427   1.841   4.074 -0.2566 -0.3696  0.3563
  113TIP3    H1  282   6.501   1.849   4.134 -0.2208 -1.3909  0.4683
  113TIP3    H2  283   6.438   1.912   4.011  0.9925 -0.6923  0.1919
  114TIP3   OH2  284   7.101   3.347   5.719  0.6414 -0.1315 -0.2229
  114TIP3    H1  285   7.091   3.353   5.624  1.3516 -0.2013 -0.3036
  114TIP3    H2  286   7.031   3.402   5.754 -1.5493 -2.3985 -0.7148
  115TIP3   OH2  287   1.564   3.183   0.935 -0.7235 -0.2989 -0.4410
  115TIP3    H1  288   1.616   3.159   1.012  1.2409 -3.7345 -2.5702
  115TIP3    H2  289   1.500   3.112   0.927  0.1093 -0.8854 -2.7126
  116TIP3   OH2  290   6.861   3.265   5.093  0.1579  0.1447  0.2819
  116TIP3    H1  291   6.922   3.259   5.019 -1.2619 -1.1781 -0.8564
  116TIP3    H2  292   6.775   3.264   5.053 -0.7919 -3.5542  1.9741
  117TIP3   OH2  293   4.133   2.028   3.548 -0.3225 -0.8404  0.1047
  117TIP3    H1  294   4.211   2.060   3.502 -1.6395 -1.6362 -2.9281
  117TIP3    H2  295   4.063   2.086   3.518 -1.0182 -0.2788  2.6029
  118TIP3   OH2  296   5.198   0.261   3.511  0.4860  0.2865 -0.2438
  118TIP3    H1  297   5.142   0.236   3.585  0.7753 -0.5397 -0.2941
  118TIP3    H2  298   5.285   0.271   3.550  0.6711 -0.3125 -0.5005
  119TIP3   OH2  299   6.195   7.510   2.168  0.0425  0.2003  0.6271
  119TIP3    H1  300   6.224   7.599   2.187  0.0904  0.3396 -0.0716
  119TIP3    H2  301   6.173   7.511   2.075  1.0926 -0.7904  0.3366
  120TIP3   OH2  302   4.886   4.216   0.927  0.2701 -0.2386  0.3374
  120TIP3    H1  303   4.824   4.153   0.889 -1.4052  1.7083 -0.3732
  120TIP3    H2  304   4.838   4.256   0.999  0.7981  1.0643 -0.0022
  121TIP3   OH2  305   3.351   4.983   0.019 -0.0146  0.0297 -0.7507
  121TIP3    H1  306   3.290   5.055   0.008 -1.2371 -0.9894 -0.8860
  121TIP3    H2  307   3.297   4.904   0.009  0.8402 -0.9421  1.5555
  122TIP3   OH2  308   6.479   5.533   1.241 -0.6414  0.3814  0.1996
  122TIP3    H1  309   6.471   5.604   1.178  2.0145  1.7342  1.2312
  122TIP3    H2  310   6.562   5.491   1.218 -1.2888 -1.2757  0.7449
  123TIP3   OH2  311   7.254   1.921   3.435  0.1835 -0.4482 -0.3400
  123TIP3    H1  312   7.338   1.931   3.480  0.5547  0.9744 -1.2856
  123TIP3    H2  313   7.230   1.829   3.450  1.4504 -0.6393  0.7121
  124TIP3   OH2  314   7.312   0.401   6.567 -0.3813 -0.1224  0.1856
  124TIP3    H1  315   7.345   0.316   6.538 -0.9653 -0.3088  0.0430
  124TIP3    H2  316   7.236   0.418   6.510 -1.3078 -0.3133  1.3294
  125TIP3   OH2  317   3.709   6.297   3.978  0.0015  0.3082  0.2782
  125TIP3    H1  318   3.767   6.315   3.904 -1.7253 -0.3413 -1.3051
  125TIP3    H2  319   3.659   6.378   3.989 -0.1829  0.1870  0.3286
  126TIP3   OH2  320   5.756   7.046   6.535 -0.3258 -0.2518  0.0636
  126TIP3    H1  321   5.776   7.017   6.624 -0.6645 -1.1039 -0.1236
  126TIP3    H2  322   5.727   6.966   6.491 -0.5643  0.2496 -0.6929
  127TIP3   OH2  323   7.174   4.799   0.575 -0.0597 -0.5585 -0.1831
  127TIP3    H1  324   7.240   4.736   0.548 -1.2186 -1.3275 -1.3413
  127TIP3    H2  325   7.139   4.763   0.657 -0.3257 -1.1359 -0.5439
  128TIP3   OH2  326   1.789   6.372   2.695 -0.2438  0.5913 -0.2630
  128TIP3    H1  327   1.719   6.349   2.635  0.6769  0.5484 -1.3498
  128TIP3    H2  328   1.836   6.290   2.711 -0.3846  0.6296  0.4056
  129TIP3   OH2  329   0.923   6.949   5.939  0.1915  0.0818  0.0444
  129TIP3    H1  330   0.911   6.860   5.907 -0.5441  0.5728 -1.1309
  129TIP3    H2  331   0.863   6.956   6.013  0.7935 -0.6183  0.6016
  130TIP3   OH2  332   0.608   0.566   0.676  0.4114 -0.4273  0.8368
  130TIP3    H1  333   0.545   0.616   0.728 -0.2316 -0.0660 -0.2600
  130TIP3    H2  334   0.673   0.631   0.650 -0.4573 -0.0969 -0.6415
  131TIP3   OH2  335   5.496   4.310   5.518  0.5675  0.0663 -0.0663
  131TIP3    H1  336   5.530   4.225   5.493 -0.5440 -0.7495  1.0773
  131TIP3    H2  337   5.411   4.316   5.476  0.4885  0.4629  0.1397
  132TIP3   OH2  338   7.971   1.637   4.134 -0.0444  0.8139  0.3401
  132TIP3    H1  339   8.050   1.640   4.080 -1.4422  1.0345 -1.8008
  132TIP3    H2  340   7.969   1.548   4.169  2.5143  1.5223  2.7602
  133TIP3   OH2  341   0.934   6.284   0.262  0.1214 -0.1601 -0.2568
  133TIP3    H1  342   0.915   6.376   0.281 -1.7956 -0.5299 -0.0894
  133TIP3    H2  343   1.025   6.272   0.288  0.2169  1.5162  0.3395
  134TIP3   OH2  344   4.418   0.183   4.081  0.1257 -0.1332  0.2683
  134TIP3    H1  345   4.407   0.269   4.040 -2.4471 -1.1813 -1.4552
  134TIP3    H2  346   4.371   0.190   4.164  1.5393  0.6313  1.0473
  135TIP3   OH2  347   4.458   0.854   1.008 -0.1132 -0.1305  0.0228
  135TIP3    H1  348   4.476   0.822   1.096 -0.3486 -0.0066  0.1182
  135TIP3    H2  349   4.369   0.890   1.014 -0.0118  0.1568 -0.1849
  136TIP3   OH2  350   8.058   6.657   1.339 -0.1280 -0.2447 -0.7200
  136TIP3    H1  351   7.973   6.686   1.305  0.5761  2.7852 -0.1869
  136TIP3    H2  352   8.043   6.640   1.432 -0.2827 -0.4057 -0.7740
  137TIP3   OH2  353   6.386   4.210   4.477 -0.4088 -0.0301  0.4707
  137TIP3    H1  354   6.417   4.189   4.565  0.9268  0.7024  0.1993
  137TIP3    H2  355   6.456   4.263   4.439 -0.8005 -0.6401 -1.1735
  138TIP3   OH2  356   6.846   6.492   5.199  0.0722  0.1951  0.1643
  138TIP3    H1  357   6.790   6.519   5.272 -1.0883 -0.9604 -0.2731
  138TIP3    H2  358   6.786   6.481   5.126  0.8165 -1.3820 -0.2369
  139TIP3   OH2  359   6.975   4.180   1.868 -0.1190 -0.0306  0.2645
  139TIP3    H1  360   6.889   4.139   1.877 -0.9344  1.1727 -1.3829
  139TIP3    H2  361   7.011   4.180   1.957 -0.7252 -2.7842  0.5907
  140TIP3   OH2  362   7.036   4.764   2.338 -0.2282  0.0633  0.0441
  140TIP3    H1  363   7.057   4.768   2.431  2.8071 -1.2808 -0.4459
  140TIP3    H2  364   6.992   4.679   2.327  1.2610 -0.7538  0.0423
  141TIP3   OH2  365   7.108   0.968   0.365 -0.7569  0.2051 -0.3667
  141TIP3    H1  366   7.151   0.889   0.331 -1.4230 -1.1489  1.7514
  141TIP3    H2  367   7.176   1.035   0.363  0.5407 -1.0537 -0.0357
  142TIP3   OH2  368   1.868   4.190   2.555  0.1778  0.0014 -0.7159
  142TIP3    H1  369   1.842   4.127   2.487 -0.5413 -0.4223 -0.0675
  142TIP3    H2  370   1.795   4.253   2.557 -0.0786 -0.3136  0.0501
  143TIP3   OH2  371   7.959   2.496   4.758 -0.9373  0.6892  0.3812
  143TIP3    H1  372   7.928   2.507   4.668 -0.1469 -0.5053 -0.0623
  143TIP3    H2  373   7.903   2.426   4.793  0.6338 -0.9192 -0.1665
  144TIP3   OH2  374   7.538   7.746   3.504 -0.0969 -0.2561  0.2731
  144TIP3    H1  375   7.551   7.755   3.409  0.2513 -0.2561  0.3206
  144TIP3    H2  376   7.583   7.665   3.527 -0.7123 -0.5810  0.3369
  145TIP3   OH2  377   6.265   2.290   0.602  0.9517 -0.2720 -0.6389
  145TIP3    H1  378   6.169   2.296   0.609  0.9830 -0.8393  0.6134
  145TIP3    H2  379   6.288   2.352   0.534 -0.1748  1.0849  0.1626
  146TIP3   OH2  380   5.258   5.892   3.419 -0.4486 -0.4705 -0.1501
  146TIP3    H1  381   5.330   5.939   3.377 -0.4385  0.0554  0.4483
  146TIP3    H2  382   5.286   5.882   3.510 -0.4828 -1.5721 -0.2376
  147TIP3   OH2  383   2.550   4.310   0.427  0.3348 -0.2752  0.1034
  147TIP3    H1  384   2.457   4.299   0.449  0.1304 -0.6013 -0.8418
  147TIP3    H2  385   2.594   4.319   0.511 -0.5148 -0.4769  0.5826
  148TIP3   OH2  386   0.102   3.373   3.394  0.8107  0.0361  0.2826
  148TIP3    H1  387   0.196   3.358   3.408  0.5694 -0.9071  0.9635
  148TIP3    H2  388   0.067   3.287   3.370  0.4365  0.7479 -1.9737
  149TIP3   OH2  389   7.151   2.759   6.243 -0.4722 -0.3279 -0.0038
  149TIP3    H1  390   7.094   2.682   6.248 -2.3172  0.9774  0.0125
  149TIP3    H2  391   7.106   2.819   6.184  1.0680  0.6682 -0.2371
  150TIP3   OH2  392   0.550   2.246   3.609  0.5865 -0.2768  0.2012
  150TIP3    H1  393   0.605   2.185   3.558  1.3204 -0.2030  0.8825
  150TIP3    H2  394   0.591   2.332   3.594 -0.3573  0.0459 -0.6373
  151TIP3   OH2  395   7.428   0.812   2.155 -0.3222  0.4089 -0.0502
  151TIP3    H1  396   7.361   0.863   2.199 -0.9305  0.2003 -0.7177
  151TIP3    H2  397   7.394   0.799   2.066  0.5142  0.1492 -0.3453
  152TIP3   OH2  398   3.796   2.952   5.372  0.1272  0.4047 -0.3332
  152TIP3    H1  399   3.809   2.881   5.309  0.0964 -0.4087  0.5685
  152TIP3    H2  400   3.841   2.924   5.451  0.3816  1.5340 -0.0500
  153TIP3   OH2  401   1.841   5.204   4.832  0.0384  0.5381 -0.2224
  153TIP3    H1  402   1.755   5.185   4.870 -0.4664  1.0045 -1.0981
  153TIP3    H2  403   1.825   5.275   4.770  1.2790  1.5286  0.5249
  154TIP3   OH2  404   4.701   5.730   4.870 -0.0793 -0.2366  0.4327
  154TIP3    H1  405   4.665   5.742   4.782  1.2048 -0.0107 -0.0859
  154TIP3    H2  406   4.643   5.780   4.927 -0.2445  0.6167 -0.4544
  155TIP3   OH2  407   2.883   6.923   6.240 -0.2089  0.6672  0.1802
  155TIP3    H1  408   2.907   7.016   6.242 -0.4667  0.7554 -0.4083
  155TIP3    H2  409   2.932   6.884   6.312  0.2002  1.1928  0.1990
  156TIP3   OH2  410   7.103   6.352   5.787  0.0187 -0.2719 -0.2708
  156TIP3    H1  411   7.054   6.412   5.843 -1.0508  0.0158 -1.4525
  156TIP3    H2  412   7.109   6.271   5.837 -1.1307 -0.1058  0.1581
  157TIP3   OH2  413   0.140   4.802   4.186  0.5045 -0.3182 -0.0146
  157TIP3    H1  414   0.188   4.833   4.109  1.0226 -0.3770  0.2799
  157TIP3    H2  415   0.130   4.880   4.240 -0.5001 -0.1238 -0.4690
  158TIP3   OH2  416   7.270   6.593   5.372  0.0279 -0.1385 -0.1576
  158TIP3    H1  417   7.203   6.549   5.424  0.1565 -0.2820 -0.1141
  158TIP3    H2  418   7.226   6.614   5.289 -0.7113  1.6339  0.6365
  159TIP3   OH2  419   4.977   0.345   1.689 -0.8514  0.1008  0.0032
  159TIP3    H1  420   4.915   0.409   1.655  0.1050  1.0091 -0.0695
  159TIP3    H2  421   4.939   0.315   1.771 -1.0134  1.2165  0.3456
  160TIP3   OH2  422   0.736   2.636   6.662  0.4847  0.1716  0.4009
  160TIP3    H1  423   0.770   2.614   6.749  0.2706  0.4537  0.5569
  160TIP3    H2  424   0.657   2.582   6.653  0.4896  0.1656  0.3934
  161TIP3   OH2  425   7.101   4.323   6.507  0.0520  0.0436 -0.4629
  161TIP3    H1  426   7.044   4.378   6.559 -0.1719 -0.9948  0.4339
  161TIP3    H2  427   7.088   4.352   6.417 -1.0127  0.5880 -0.1466
  162TIP3   OH2  428   4.762   6.607   5.207  0.4521  0.3831  0.6657
  162TIP3    H1  429   4.769   6.572   5.295  1.8994  1.8304  1.1697
  162TIP3    H2  430   4.743   6.700   5.219 -0.9030  0.3080 -0.5946
  163TIP3   OH2  431   6.515   5.238   1.811  0.0908  0.1440  0.0315
  163TIP3    H1  432   6.572   5.300   1.857 -1.7982  1.3288  0.9392
  163TIP3    H2  433   6.510   5.272   1.722  1.0710 -0.1956 -0.1670
  164TIP3   OH2  434   7.718   6.016   5.037  0.1839 -0.2485  0.3747
  164TIP3    H1  435   7.754   5.929   5.017  2.9699  1.0925 -1.0318
  164TIP3    H2  436   7.722   6.022   5.133  0.8542 -1.3252  0.4326
  165TIP3   OH2  437   5.679   2.666   4.483  0.6459  0.2282 -0.0220
  165TIP3    H1  438   5.598   2.717   4.491  0.9674  0.7907 -0.2382
  165TIP3    H2  439   5.674   2.628   4.395  0.2860 -0.3236  0.2372
  166TIP3   OH2  440   7.847   5.204   4.740  0.8120 -0.3930 -0.1438
  166TIP3    H1  441   7.775   5.163   4.788  0.7774  0.1996  0.3146
  166TIP3    H2  442   7.834   5.175   4.650  2.5360 -3.9498  0.5634
  167TIP3   OH2  443   1.665   3.689   5.646 -0.3991 -0.0160 -0.1363
  167TIP3    H1  444   1.738   3.750   5.655  0.5723 -0.8969 -1.5306
  167TIP3    H2  445   1.706   3.607   5.620 -1.7411 -1.0664  0.9046
  168TIP3   OH2  446   0.904   2.062   3.238 -0.3374  0.5162  0.3132
  168TIP3    H1  447   0.922   2.153   3.262  0.0717  0.4913  0.1018
  168TIP3    H2  448   0.887   2.066   3.143  2.7229 -0.0414 -0.3648
  169TIP3   OH2  449   6.161   0.192   3.330 -0.1582 -0.3105  0.1419
  169TIP3    H1  450   6.213   0.150   3.399 -2.3775 -2.2330  0.8062
  169TIP3    H2  451   6.206   0.170   3.249  1.5874  0.5417  0.8474
  170TIP3   OH2  452   4.067   3.234   2.503  0.2443 -0.0111  0.2862
  170TIP3    H1  453   4.035   3.151   2.539  1.7064 -1.3408 -1.3457
  170TIP3    H2  454   4.005   3.255   2.434 -0.3946  0.5340  1.0091
  171TIP3   OH2  455   5.742   1.350   6.396 -0.7184  0.1397  0.2267
  171TIP3    H1  456   5.800   1.317   6.327  0.2617 -1.5485  1.7483
  171TIP3    H2  457   5.657   1.310   6.377 -0.4607 -0.3012 -0.0213
  172TIP3   OH2  458   5.841   3.214   3.559  0.0598 -0.4775  0.3151
  172TIP3    H1  459   5.801   3.192   3.643  0.7671 -0.3614  0.6843
  172TIP3    H2  460   5.876   3.302   3.572  0.0220 -0.3899 -0.1612
  173TIP3   OH2  461   7.758   5.982   1.163  0.6996  0.1750  0.1288
  173TIP3    H1  462   7.765   6.003   1.257 -0.2135  0.4276  0.1478
  173TIP3    H2  463   7.664   5.971   1.148  0.7235  1.3258 -1.0149
  174TIP3   OH2  464   4.225   6.558   0.075 -0.5331 -0.0761 -0.3699
  174TIP3    H1  465   4.202   6.633   0.021  0.5960  1.9673  1.8467
  174TIP3    H2  466   4.320   6.565   0.088 -0.5927 -1.1441  0.9054
  175TIP3   OH2  467   7.806   7.335   5.092  0.2671 -0.5406 -0.1639
  175TIP3    H1  468   7.718   7.331   5.129 -0.1681  0.0574 -1.0885
  175TIP3    H2  469   7.809   7.418   5.045  2.2354  0.7302  2.0410
  176TIP3   OH2  470   7.775   0.658   2.291  0.3105  0.6790 -0.9722
  176TIP3    H1  471   7.781   0.609   2.209 -0.6278 -1.6657  0.2979
  176TIP3    H2  472   7.687   0.640   2.324  1.1257  0.4659  1.2172
  177TIP3   OH2  473   3.128   2.234   6.522  0.0819 -0.0773  0.0100
  177TIP3    H1  474   3.069   2.269   6.589  1.1364 -0.6547  1.2705
  177TIP3    H2  475   3.202   2.198   6.571  0.7270 -0.8161 -1.4514
  178TIP3   OH2  476   4.433   2.776   4.715  0.4997  0.2529 -0.1939
  178TIP3    H1  477   4.524   2.757   4.690  0.6038  2.0294 -1.3150
  178TIP3    H2  478   4.433   2.869   4.737 -1.3236  0.6706 -1.7256
  179TIP3   OH2  479   4.146   7.611   0.680  0.1946 -0.1521 -0.3431
  179TIP3    H1  480   4.095   7.605   0.761  1.7579  3.8718  1.1930
  179TIP3    H2  481   4.092   7.567   0.614 -3.3120  0.3140  1.9786
  180TIP3   OH2  482   0.576   6.374   6.080  0.2504  0.2336 -1.0555
  180TIP3    H1  483   0.492   6.367   6.036  0.4057  1.1252 -1.5233
  180TIP3    H2  484   0.630   6.306   6.039  0.4532  1.1770 -2.4260
  181TIP3   OH2  485   5.881   4.661   3.641 -0.3720  0.1768  0.4153
  181TIP3    H1  486   5.870   4.709   3.558  1.5735  1.7503  1.0098
  181TIP3    H2  487   5.794   4.663   3.681 -0.8162  1.4186 -0.5521
  182TIP3   OH2  488   5.126   2.407   1.015 -0.6065  0.3910  0.1915
  182TIP3    H1  489   5.035   2.383   0.998 -0.3992 -1.0460  0.9468
  182TIP3    H2  490   5.177   2.335   0.978  0.2019  0.9511  0.1947
  183TIP3   OH2  491   0.130   7.719   0.545  0.1754  0.2525 -0.1305
  183TIP3    H1  492   0.224   7.723   0.565  0.0923  2.4884  0.0861
  183TIP3    H2  493   0.109   7.626   0.549  2.2239 -0.2483  0.5505
  184TIP3   OH2  494   1.398   4.864   5.080  0.3235  0.4058 -0.0832
  184TIP3    H1  495   1.439   4.948   5.100  2.6934 -0.9170  0.9191
  184TIP3    H2  496   1.304   4.884   5.074  0.6998  2.9042  1.2166
  185TIP3   OH2  497   4.480   4.025   0.723 -0.0703  0.0935  0.2499
  185TIP3    H1  498   4.518   3.947   0.682 -1.0047 -0.0982 -0.2681
  185TIP3    H2  499   4.436   3.991   0.802  1.6239  0.4438  1.4084
  186TIP3   OH2  500   3.301   6.170   3.511  0.1355  0.0778  0.1305
  186TIP3    H1  501   3.291   6.107   3.440 -1.6150 -1.1596  1.4092
  186TIP3    H2  502   3.376   6.137   3.562 -0.0403 -0.3059  0.1398
  187TIP3   OH2  503   1.261   7.398   3.489  0.7263  0.3348 -0.0024
  187TIP3    H1  504   1.181   7.442   3.518  0.8354 -0.1769  1.1351
  187TIP3    H2  505   1.285   7.342   3.563  2.2152  0.5898 -0.2642
  188TIP3   OH2  506   5.028   4.345   2.708 -0.3509  0.2077  0.4434
  188TIP3    H1  507   4.952   4.340   2.650 -1.0833 -0.0667  1.4022
  188TIP3    H2  508   5.072   4.426   2.682  0.3684 -0.8101 -1.7042
  189TIP3   OH2  509   3.913   6.236   5.462  0.7061  0.5677 -0.4794
  189TIP3    H1  510   3.881   6.280   5.542  0.6518 -0.2032 -0.0647
  189TIP3    H2  511   3.927   6.146   5.489  0.3257  0.2076 -1.4478
  190TIP3   OH2  512   4.582   2.508   1.129  0.8696  0.4231  0.0633
  190TIP3    H1  513   4.661   2.548   1.093  0.9445 -0.0869 -0.3591
  190TIP3    H2  514   4.613   2.461   1.207  0.8249  0.9619  0.4121
  191TIP3   OH2  515   1.748   5.924   0.255  0.3976  0.3305  0.4574
  191TIP3    H1  516   1.822   5.916   0.195  0.3048  0.2832  0.3488
  191TIP3    H2  517   1.716   6.013   0.242 -0.8295 -0.2716 -0.9850
  192TIP3   OH2  518   3.038   1.582   2.330  0.0863 -0.2868  0.3896
  192TIP3    H1  519   3.095   1.551   2.400 -1.0949 -0.1735  1.4365
  192TIP3    H2  520   2.956   1.535   2.342  0.3596 -1.5655 -1.9924
  193TIP3   OH2  521   5.649   7.647   5.799  0.7245 -0.2134  0.6980
  193TIP3    H1  522   5.576   7.688   5.753  0.1470 -0.7240  1.1350
  193TIP3    H2  523   5.707   7.719   5.821 -0.2116  0.3795  1.3453
  194TIP3   OH2  524   7.482   2.603   2.661 -0.0099  0.7317 -0.1685
  194TIP3    H1  525   7.490   2.697   2.645 -0.4099  0.6616 -0.8390
  194TIP3    H2  526   7.388   2.588   2.673 -0.0216  0.3330 -0.7011
  195TIP3   OH2  527   3.649   2.953   1.022  0.3534  0.1688 -0.1942
  195TIP3    H1  528   3.645   2.916   0.934  0.7811  0.3423 -0.2910
  195TIP3    H2  529   3.743   2.958   1.041  0.2397 -1.4753  0.9584
  196TIP3   OH2  530   0.687   0.016   0.175 -0.3998 -0.0211 -0.4411
  196TIP3    H1  531   0.622   0.063   0.228  1.4474  1.2331  0.8509
  196TIP3    H2  532   0.732  -0.041   0.237  1.5364  1.1706 -0.6708
  197TIP3   OH2  533   0.974   7.178   3.952  0.0725 -0.2628 -0.5991
  197TIP3    H1  534   0.993   7.090   3.922  0.0247 -0.3140 -0.4793
  197TIP3    H2  535   0.884   7.173   3.986  0.7044 -0.6044  1.0891
  198TIP3   OH2  536   3.174   7.681   3.204  0.2203  0.3379  0.4409
  198TIP3    H1  537   3.116   7.620   3.158 -0.0011  0.7974  0.0909
  198TIP3    H2  538   3.242   7.627   3.241  1.2211  0.0533 -1.6379
  199TIP3   OH2  539   5.916   5.957   1.067 -0.8334  0.2193 -0.0148
  199TIP3    H1  540   5.852   5.924   1.130  0.8810  0.8055  2.1380
  199TIP3    H2  541   5.909   6.052   1.073 -0.9637  0.2961 -1.1090
  200TIP3   OH2  542   6.909   4.516   2.752  0.5117  0.3793 -0.0173
  200TIP3    H1  543   6.934   4.430   2.719 -0.2385 -0.2425  1.0039
  200TIP3    H2  544   6.961   4.527   2.832 -0.1721  0.4129  0.4283
  201TIP3   OH2  545   4.613   5.238   0.375 -0.1840  0.6229  0.3767
  201TIP3    H1  546   4.684   5.299   0.391  1.5971 -1.0296 -0.7807
  201TIP3    H2  547   4.567   5.273   0.299  0.7688  0.6131 -0.2232
  202TIP3   OH2  548   6.676   1.634   6.469 -0.8343  0.5609 -0.0615
  202TIP3    H1  549   6.710   1.562   6.415 -0.5432  2.6244 -2.8479
  202TIP3    H2  550   6.742   1.644   6.538  0.6775  0.0170 -1.3423
  203TIP3   OH2  551   7.188   6.025   3.057  0.0997 -0.5323  0.0114
  203TIP3    H1  552   7.280   5.999   3.065  0.2696  0.3494  1.2476
  203TIP3    H2  553   7.154   5.972   2.985  1.9399  0.1075 -1.4073
  204TIP3   OH2  554   5.882   2.554   0.451 -0.7379  0.1659 -0.7813
  204TIP3    H1  555   5.893   2.619   0.381 -2.0423 -0.3903 -1.5460
  204TIP3    H2  556   5.788   2.556   0.470 -0.4384  0.0898  0.7597
  205TIP3   OH2  557   2.090   5.952   4.683  0.2608  0.3493 -0.2404
  205TIP3    H1  558   2.020   5.995   4.633 -0.2378  1.6002  1.4413
  205TIP3    H2  559   2.096   5.864   4.645 -0.5571  0.9929 -2.0056
  206TIP3   OH2  560   6.803   6.429   6.726 -0.1570 -0.1715  0.1993
  206TIP3    H1  561   6.708   6.418   6.728 -0.0730 -0.9538  0.0885
  206TIP3    H2  562   6.817   6.510   6.677 -0.9039  1.7452  2.9215
  207TIP3   OH2  563   5.852   2.672   5.465  0.6374  0.3823 -0.6377
  207TIP3    H1  564   5.781   2.650   5.404  0.8395 -0.1997 -0.6716
  207TIP3    H2  565   5.830   2.759   5.497  0.6290  0.7879 -1.6911
  208TIP3   OH2  566   5.283   4.192   6.077 -0.0956 -0.5770  0.5638
  208TIP3    H1  567   5.375   4.195   6.052 -0.1462 -0.1274  0.4096
  208TIP3    H2  568   5.265   4.100   6.095  0.1042 -0.8311 -0.4760
  209TIP3   OH2  569   1.106   6.203   4.794 -0.3462  0.7061  0.3735
  209TIP3    H1  570   1.086   6.179   4.704  0.4771 -0.7865  0.5570
  209TIP3    H2  571   1.059   6.139   4.848 -0.1807  1.0813  0.9784
  210TIP3   OH2  572   7.070   6.973   2.273 -0.0259 -0.2219  0.1625
  210TIP3    H1  573   7.039   7.040   2.334 -0.4556 -0.6306  0.3999
  210TIP3    H2  574   7.081   6.895   2.328  2.3505  0.1410  0.2962
  211TIP3   OH2  575   4.726   4.332   1.120 -0.1047  0.6834 -0.1425
  211TIP3    H1  576   4.678   4.313   1.200  1.8268 -0.4836  0.8056
  211TIP3    H2  577   4.755   4.423   1.130  0.3614  0.4510  0.5972
  212TIP3   OH2  578   4.184   7.440   4.748 -0.0878  0.1141  0.3294
  212TIP3    H1  579   4.245   7.368   4.763  0.0166  0.6308  2.6758
  212TIP3    H2  580   4.113   7.401   4.698  0.4707 -1.3719  0.6566
  213TIP3   OH2  581   1.616   4.655   5.475 -0.4815  0.4025 -0.2501
  213TIP3    H1  582   1.539   4.703   5.444 -2.3789 -0.8158  2.2576
  213TIP3    H2  583   1.597   4.636   5.566  3.2477  0.8176  0.7765
  214TIP3   OH2  584   4.746   5.995   0.749  1.1943  0.5293 -0.9007
  214TIP3    H1  585   4.741   5.938   0.826  1.1707 -1.1626 -2.0775
  214TIP3    H2  586   4.705   6.076   0.776 -0.3552 -0.6076  0.3698
  215TIP3   OH2  587   1.132   2.435   3.185  0.6535 -0.4829  0.1992
  215TIP3    H1  588   1.212   2.486   3.177  0.6451  0.0743  2.7397
  215TIP3    H2  589   1.069   2.479   3.127  1.6977  0.1113 -0.5009
  216TIP3   OH2  590   7.618   2.843   4.459 -0.0591  0.2257  0.1560
  216TIP3    H1  591   7.548   2.838   4.523 -0.2040 -0.4911 -0.0531
  216TIP3    H2  592   7.670   2.919   4.486  0.0247 -0.2131  1.2599
  217TIP3   OH2  593   7.777   2.103   6.210 -0.2373 -0.1081  0.3300
  217TIP3    H1  594   7.730   2.034   6.256 -1.4603  0.1683 -0.4414
  217TIP3    H2  595   7.742   2.100   6.121  1.2197  0.1279 -0.2744
  218TIP3   OH2  596   0.081   3.047   1.879  0.0159 -0.8539  0.1598
  218TIP3    H1  597   0.084   3.142   1.875 -0.5530 -0.8620 -0.8279
  218TIP3    H2  598   0.124   3.025   1.961 -1.6203  0.3535  1.4130
  219TIP3   OH2  599   5.325   4.586   0.536  0.3491 -0.5819  0.3870
  219TIP3    H1  600   5.270   4.605   0.460 -0.6196 -0.8214  1.0043
  219TIP3    H2  601   5.391   4.656   0.536  0.0262 -0.2650 -0.3518
  220TIP3   OH2  602   7.103   0.847   6.077 -0.3671  0.5260  0.5119
  220TIP3    H1  603   7.159   0.769   6.073 -0.4288  0.5277 -0.7922
  220TIP3    H2  604   7.160   0.919   6.055 -0.9433  0.4763 -1.2798
  221TIP3   OH2  605   2.450   3.622   1.835 -0.7682  0.1507 -0.1926
  221TIP3    H1  606   2.389   3.681   1.792 -0.2898  0.7465 -0.0685
  221TIP3    H2  607   2.457   3.547   1.775 -0.0061  1.0265 -1.2414
  222TIP3   OH2  608   2.195   1.652   0.948 -0.2497  0.1320  0.6172
  222TIP3    H1  609   2.275   1.660   0.999  1.1412  0.8927 -1.5206
  222TIP3    H2  610   2.145   1.582   0.990  1.3049 -0.0332  2.2828
  223TIP3   OH2  611   2.021   0.222   5.726  0.1963  0.2202  1.0023
  223TIP3    H1  612   2.072   0.230   5.645 -0.4091 -0.5791  0.5256
  223TIP3    H2  613   1.938   0.183   5.698  0.2233 -0.6703  2.1014
  224TIP3   OH2  614   4.933   5.134   1.403  0.3316 -0.0107  0.0924
  224TIP3    H1  615   4.840   5.109   1.406  0.3351 -0.0092  3.3688
  224TIP3    H2  616   4.932   5.225   1.375 -0.7417  0.2277  0.8414
  225TIP3   OH2  617   4.308   6.636   6.188  0.9334  0.1954  1.1745
  225TIP3    H1  618   4.234   6.682   6.147 -1.4152 -3.0991  1.3765
  225TIP3    H2  619   4.376   6.637   6.121 -0.3589  0.7701 -0.2062
  226TIP3   OH2  620   6.668   5.242   0.715 -0.5430  0.2306 -0.3558
  226TIP3    H1  621   6.609   5.180   0.758 -0.9986  0.5366 -0.5386
  226TIP3    H2  622   6.649   5.232   0.622 -0.0596  0.0840 -0.4442
  227TIP3   OH2  623   1.868   1.316   3.028  0.1974 -0.3012  0.0181
  227TIP3    H1  624   1.927   1.304   2.953  1.1446 -0.1502  0.7152
  227TIP3    H2  625   1.856   1.411   3.034 -0.3412 -0.3489 -0.2873
  228TIP3   OH2  626   6.609   2.489   6.654  0.1593  0.0679 -0.1711
  228TIP3    H1  627   6.514   2.485   6.666  0.0776  0.9774 -0.4654
  228TIP3    H2  628   6.628   2.420   6.590 -0.0776 -1.2213  1.0784
  229TIP3   OH2  629   1.559   0.155   1.768  0.0249  0.6578  0.2731
  229TIP3    H1  630   1.471   0.121   1.749 -0.1964  2.1877 -1.8766
  229TIP3    H2  631   1.579   0.210   1.692  1.2366  3.5240  2.4994
  230TIP3   OH2  632   0.094   5.933   1.999  0.5329 -0.2654 -0.0695
  230TIP3    H1  633   0.113   5.886   1.918  2.2494 -1.6237  1.0470
  230TIP3    H2  634   0.117   6.024   1.980 -0.0191 -0.3752 -1.3817
  231TIP3   OH2  635   3.504   5.300   4.304  0.2730 -0.1427 -0.0512
  231TIP3    H1  636   3.570   5.365   4.331  0.6979 -0.4963 -0.2168
  231TIP3    H2  637   3.518   5.227   4.364 -0.6173  0.1516  0.5392
  232TIP3   OH2  638   4.486   7.651   4.390  0.2742 -0.0738  0.4478
  232TIP3    H1  639   4.577   7.622   4.396  0.4175 -0.0857 -1.2441
  232TIP3    H2  640   4.468   7.654   4.296 -0.4485  3.0240  0.5702
  233TIP3   OH2  641   1.625   4.448   1.748  0.1205 -0.1072 -0.4084
  233TIP3    H1  642   1.692   4.480   1.688  0.8968  0.2510  0.6190
  233TIP3    H2  643   1.657   4.471   1.835 -1.4328  0.2797  0.1108
  234TIP3   OH2  644   2.385   6.070   6.437 -0.1520  0.3531  0.0550
  234TIP3    H1  645   2.427   6.154   6.417 -1.3110  0.8936 -0.2317
  234TIP3    H2  646   2.304   6.095   6.483  0.5463 -0.7042  1.9616
  235TIP3   OH2  647   1.738   4.838   2.929  0.5067  0.0848 -0.4388
  235TIP3    H1  648   1.813   4.824   2.871  1.7912  1.6660  0.7308
  235TIP3    H2  649   1.749   4.928   2.960 -0.9054 -0.2484  1.1580
  236TIP3   OH2  650   7.951   2.087   2.114 -0.0186 -0.0198 -0.0152
  236TIP3    H1  651   8.041   2.054   2.117  0.1057  0.3502  0.3926
  236TIP3    H2  652   7.899   2.021   2.158 -0.2453 -1.1491 -1.8548
  237TIP3   OH2  653   4.443   5.232   3.745  0.3914  0.0710  0.0817
  237TIP3    H1  654   4.454   5.148   3.701  0.7418 -0.3162  0.8860
  237TIP3    H2  655   4.350   5.236   3.767  0.6247 -0.7888  1.3396
  238TIP3   OH2  656   8.134   6.431   4.049  0.7199  0.2278  0.1406
  238TIP3    H1  657   8.188   6.357   4.077  0.6543 -0.3022 -1.0716
  238TIP3    H2  658   8.186   6.508   4.072  1.3062 -0.2262  0.3821
  239TIP3   OH2  659   0.418   4.070   3.472 -0.2137  0.0559  0.1621
  239TIP3    H1  660   0.343   4.129   3.470 -0.5164 -0.3435 -0.5723
  239TIP3    H2  661   0.438   4.059   3.566 -0.9288  0.3366  0.3476
  240TIP3   OH2  662   1.265   1.046   0.568  0.0929 -0.2684 -0.0542
  240TIP3    H1  663   1.360   1.035   0.573  0.2032  0.7880  0.3580
  240TIP3    H2  664   1.248   1.061   0.475  0.2901 -0.7173 -0.1678
  241TIP3   OH2  665   2.612   0.495   0.534 -0.4251  0.4931  0.3848
  241TIP3    H1  666   2.572   0.509   0.448 -0.0730  1.8177  0.4150
  241TIP3    H2  667   2.706   0.506   0.519 -0.4019  1.3267  1.0313
  242TIP3   OH2  668   3.827   7.593   4.624 -0.7004  0.6216 -0.1423
  242TIP3    H1  669   3.737   7.563   4.627 -0.0143 -1.5462  1.2417
  242TIP3    H2  670   3.879   7.512   4.623  1.2395  1.8027 -0.7814
  243TIP3   OH2  671   0.655   2.711   4.264 -0.5263 -0.5630  0.1143
  243TIP3    H1  672   0.588   2.769   4.228 -1.3601 -0.6377  1.4570
  243TIP3    H2  673   0.737   2.756   4.246 -1.1481  1.0739  1.1252
  244TIP3   OH2  674   1.417   1.041   6.616  0.7808 -0.5386 -0.0591
  244TIP3    H1  675   1.496   1.004   6.658  0.4779 -0.7828  0.3015
  244TIP3    H2  676   1.349   0.976   6.632 -0.4355  1.2326  2.8539
  245TIP3   OH2  677   7.288   4.023   0.780  0.3519 -0.1622  0.2744
  245TIP3    H1  678   7.379   4.052   0.786  0.2562 -0.0938  1.6234
  245TIP3    H2  679   7.262   4.006   0.870 -1.1319  0.2925 -0.0374
  246TIP3   OH2  680   5.576   4.177   6.031 -0.3210 -0.2026 -0.0438
  246TIP3    H1  681   5.574   4.187   6.126  0.4905 -1.4562  0.1253
  246TIP3    H2  682   5.655   4.224   6.003 -1.9380  2.4762 -0.4556
  247TIP3   OH2  683   6.014   0.907   4.939  0.9296 -0.3231  0.0132
  247TIP3    H1  684   5.966   0.906   5.022 -0.1200  1.8394 -0.4694
  247TIP3    H2  685   6.036   0.816   4.922 -1.4308 -1.2058  1.2109
  248TIP3   OH2  686   3.482   3.507   6.135 -0.4619  0.5016 -0.0646
  248TIP3    H1  687   3.530   3.457   6.069  0.8716  0.6783  0.7429
  248TIP3    H2  688   3.492   3.598   6.108 -2.0159  0.4337 -0.9618
  249TIP3   OH2  689   3.778   1.636   3.861  0.2110  0.1136  0.6191
  249TIP3    H1  690   3.729   1.700   3.809  0.1204 -0.5878 -0.1622
  249TIP3    H2  691   3.715   1.566   3.878  0.7961 -0.5648  0.0284
  250TIP3   OH2  692   4.484   7.177   6.187  0.3400  0.2096  0.5425
  250TIP3    H1  693   4.569   7.184   6.145 -0.4394 -0.5542 -1.2741
  250TIP3    H2  694   4.449   7.266   6.185  0.6324  0.3221  0.2519
  251TIP3   OH2  695   4.497   5.139   5.286  0.2257  0.9533  0.0220
  251TIP3    H1  696   4.517   5.135   5.193  0.7964  0.4486  0.1562
  251TIP3    H2  697   4.479   5.231   5.303  1.8155  1.3514 -0.2628
  252TIP3   OH2  698   0.949   0.807   1.628  0.2423 -0.0579  0.4137
  252TIP3    H1  699   0.949   0.898   1.597  1.7745  0.0428  0.6007
  252TIP3    H2  700   0.928   0.755   1.550  1.2094  0.3611 -0.1472
  253TIP3   OH2  701   6.114   6.436   5.139 -0.0977 -0.0592 -0.3102
  253TIP3    H1  702   6.139   6.369   5.076  1.8029  0.8804 -0.6044
  253TIP3    H2  703   6.187   6.497   5.141 -1.9809  2.3599 -0.4980
  254TIP3   OH2  704   5.901   3.762   4.054 -0.6428 -0.4107  0.0346
  254TIP3    H1  705   5.950   3.829   4.101 -0.3269 -0.3299 -0.3975
  254TIP3    H2  706   5.814   3.799   4.043 -0.4024  0.0336 -0.4105
  255TIP3   OH2  707   1.029   0.090   3.134  0.0736 -0.1481  0.1986
  255TIP3    H1  708   1.103   0.048   3.090 -0.2667 -0.0313 -0.5008
  255TIP3    H2  709   1.055   0.182   3.142 -0.4079  0.1194 -1.0099
  256TIP3   OH2  710   0.783   7.555   0.827  0.2467 -0.3479 -0.4943
  256TIP3    H1  711   0.844   7.484   0.810 -0.2957 -0.4163 -2.4329
  256TIP3    H2  712   0.833   7.635   0.807  0.6882 -0.1698  1.1591
  257TIP3   OH2  713   5.273   7.417   0.535  0.0105  0.1951 -0.5174
  257TIP3    H1  714   5.201   7.365   0.500  0.1129 -0.6086  0.4423
  257TIP3    H2  715   5.341   7.411   0.468 -1.1135  1.8122 -1.9400
  258TIP3   OH2  716   4.303   5.098   1.636 -0.0348  0.4528  0.2667
  258TIP3    H1  717   4.311   5.156   1.561 -0.8645  2.0282  1.3586
  258TIP3    H2  718   4.301   5.156   1.712  1.0821 -1.1071  1.5555
  259TIP3   OH2  719   4.682   2.792   2.935 -0.0036 -0.0265  0.0461
  259TIP3    H1  720   4.684   2.702   2.903 -1.3289 -0.8526  2.0991
  259TIP3    H2  721   4.600   2.799   2.983 -0.0073  2.3509 -0.1497
  260TIP3   OH2  722   2.675   1.831   3.698 -0.2231  0.0846 -0.0575
  260TIP3    H1  723   2.729   1.753   3.685 -0.6164  0.0010 -1.3931
  260TIP3    H2  724   2.601   1.800   3.751 -1.7167 -1.1616 -2.6377
  261TIP3   OH2  725   3.243   4.636   4.320  0.3968 -0.1177  0.5234
  261TIP3    H1  726   3.149   4.642   4.333  0.2302  1.6668 -1.0975
  261TIP3    H2  727   3.273   4.726   4.310  2.2921 -0.6391  1.0050
  262TIP3   OH2  728   4.402   5.987   2.627  0.4614 -0.4092 -0.0921
  262TIP3    H1  729   4.393   5.911   2.685 -1.1190  0.1129  0.3999
  262TIP3    H2  730   4.477   5.966   2.572 -2.1093 -4.2417 -2.7056
  263TIP3   OH2  731   0.733   3.002   4.709  0.1611 -0.1151  0.1204
  263TIP3    H1  732   0.805   3.032   4.653  1.7120 -0.5688  1.7875
  263TIP3    H2  733   0.762   2.918   4.743 -0.4035  0.4775  2.1690
  264TIP3   OH2  734   4.232   7.182   1.283  0.6441 -0.1375  0.2836
  264TIP3    H1  735   4.165   7.119   1.257  1.8750 -0.8940 -1.2556
  264TIP3    H2  736   4.239   7.242   1.209  1.5858 -0.0455  0.4275
  265TIP3   OH2  737   1.781   7.072   5.833  0.0289  1.0978  0.1555
  265TIP3    H1  738   1.714   7.066   5.900  1.5346  1.1675  1.7472
  265TIP3    H2  739   1.735   7.101   5.755 -1.9164  0.2637  0.9363
  266TIP3   OH2  740   7.914   1.643   6.680 -0.1467  0.3538  0.2600
  266TIP3    H1  741   7.995   1.693   6.666 -0.7424  0.9797 -1.1606
  266TIP3    H2  742   7.845   1.708   6.666 -0.9209  0.1973  2.8933
  267TIP3   OH2  743   6.771   1.101   3.577  0.8170  0.0879 -0.1079
  267TIP3    H1  744   6.797   1.133   3.664  1.6222 -0.7232 -0.0295
  267TIP3    H2  745   6.776   1.006   3.585 -0.5209 -0.0342 -0.6289
  268TIP3   OH2  746   7.444   3.230   4.073 -0.2412 -0.3293  0.4200
  268TIP3    H1  747   7.366   3.204   4.023  0.6129  0.7281 -1.5653
  268TIP3    H2  748   7.495   3.149   4.082  0.0850 -0.3526 -1.3828
  269TIP3   OH2  749   3.891   5.095   0.617 -0.7113 -0.3816 -0.2638
  269TIP3    H1  750   3.838   5.037   0.562  0.5190 -0.7962 -1.0360
  269TIP3    H2  751   3.937   5.036   0.677  0.6952 -0.2398 -1.1817
  270TIP3   OH2  752   0.135   7.288   3.083  0.3084  0.5605 -0.4974
  270TIP3    H1  753   0.222   7.305   3.118 -0.3061  1.5633  0.6431
  270TIP3    H2  754   0.145   7.294   2.988  2.3637 -3.6970 -0.8042
  271TIP3   OH2  755   3.748   4.243   4.429  0.0323 -0.0424 -0.0835
  271TIP3    H1  756   3.821   4.286   4.472 -1.1161  0.1913  1.7402
  271TIP3    H2  757   3.702   4.314   4.383 -0.4567  0.2861  0.8795
  272TIP3   OH2  758   5.728   4.930   5.978 -0.3132 -0.3063 -0.4168
  272TIP3    H1  759   5.749   4.910   5.887 -2.7049  0.0066 -1.1020
  272TIP3    H2  760   5.722   5.026   5.981  0.6946 -0.2519  0.3175
  273TIP3   OH2  761   0.247   2.068   2.275 -0.3737  0.5633 -0.0579
  273TIP3    H1  762   0.217   2.052   2.186 -1.3119  0.0522  0.3319
  273TIP3    H2  763   0.326   2.016   2.285  0.7953  2.0394 -1.1558
  274TIP3   OH2  764   0.958   6.138   6.283  0.6464  0.1116  0.4595
  274TIP3    H1  765   0.958   6.054   6.237 -1.5982  0.8972 -1.1353
  274TIP3    H2  766   1.015   6.195   6.231  1.3674 -0.1022  0.9885
  275TIP3   OH2  767   8.041   3.005   6.448  0.6676 -0.2111 -0.0310
  275TIP3    H1  768   7.949   2.994   6.474  0.9312 -0.0610  0.9738
  275TIP3    H2  769   8.053   2.940   6.379 -1.2806  2.3622 -3.1030
  276TIP3   OH2  770   2.366   6.474   1.540 -0.2320  0.4089  0.6898
  276TIP3    H1  771   2.445   6.523   1.563 -0.2792  1.0834 -0.4989
  276TIP3    H2  772   2.399   6.387   1.515 -0.0854  0.0184  2.1378
  277TIP3   OH2  773   7.442   6.266   4.688  0.1745 -0.1530 -0.1412
  277TIP3    H1  774   7.531   6.300   4.696  0.5316 -1.3453  1.3897
  277TIP3    H2  775   7.451   6.172   4.703 -1.6862  0.0557  3.1039
  278TIP3   OH2  776   6.843   6.022   1.182 -0.4352  0.1701  0.0951
  278TIP3    H1  777   6.795   5.999   1.262 -0.1761 -0.7687 -0.0071
  278TIP3    H2  778   6.914   5.959   1.178  0.1131  0.8102 -0.3882
  279TIP3   OH2  779   3.589   6.607   6.125 -0.5698 -0.2884 -0.7187
  279TIP3    H1  780   3.591   6.555   6.044  0.1634 -0.1928 -0.7738
  279TIP3    H2  781   3.671   6.585   6.169 -1.4498 -1.1700  0.5437
  280TIP3   OH2  782   6.454   5.070   0.778  0.4582  0.1268 -0.2378
  280TIP3    H1  783   6.445   4.983   0.817  0.8107 -0.3223 -1.1362
  280TIP3    H2  784   6.431   5.058   0.686  1.1523  0.8401 -0.5215
  281TIP3   OH2  785   3.934   4.696   6.727  0.0787 -0.0462  0.8743
  281TIP3    H1  786   3.902   4.728   6.643 -0.2252  0.0122  1.0114
  281TIP3    H2  787   3.957   4.604   6.710 -1.7612 -0.6019  1.1775
  282TIP3   OH2  788   7.378   6.551   6.132  0.7137 -0.1815 -0.0286
  282TIP3    H1  789   7.351   6.628   6.082  0.1465 -1.0685 -1.1478
  282TIP3    H2  790   7.359   6.574   6.223 -0.7003  0.5085 -0.4660
  283TIP3   OH2  791   6.449   4.708   2.052 -0.1057 -0.1321 -0.2500
  283TIP3    H1  792   6.451   4.705   1.956  3.9815 -1.9698 -0.3350
  283TIP3    H2  793   6.518   4.770   2.075  0.8085 -1.6483  1.3917
  284TIP3   OH2  794   7.602   3.619   4.342 -0.4546 -0.0203  0.0098
  284TIP3    H1  795   7.599   3.661   4.257  0.2349  0.4082  0.1900
  284TIP3    H2  796   7.584   3.526   4.324  0.6544 -0.1055 -0.7296
  285TIP3   OH2  797   2.273   6.538   2.836  0.2395 -0.0593 -0.1294
  285TIP3    H1  798   2.214   6.479   2.883 -1.0238  0.4146 -1.0702
  285TIP3    H2  799   2.225   6.620   2.830  0.6868  0.1204 -1.5622
  286TIP3   OH2  800   3.390   4.396   3.084 -0.3593 -0.0554 -0.0213
  286TIP3    H1  801   3.349   4.329   3.140  0.4883  0.5797  1.4220
  286TIP3    H2  802   3.467   4.353   3.048 -0.7189 -0.3610 -0.4345
  287TIP3   OH2  803   6.534   6.602   6.219  0.2996  0.1341  0.0791
  287TIP3    H1  804   6.528   6.518   6.265 -1.5453 -1.0158 -2.0492
  287TIP3    H2  805   6.468   6.657   6.261  0.9908  0.2941  0.9861
  288TIP3   OH2  806   7.968   6.835   5.517 -0.1618  0.2939  0.6618
  288TIP3    H1  807   7.955   6.746   5.549 -1.0530 -0.2083 -0.9966
  288TIP3    H2  808   8.034   6.827   5.448  0.4496  1.0770  1.1394
  289TIP3   OH2  809   2.182   3.111   2.889 -0.3847  0.1785 -0.3703
  289TIP3    H1  810   2.233   3.190   2.868  0.4603 -0.7622 -2.0427
  289TIP3    H2  811   2.098   3.124   2.846 -0.5970  0.5419  0.1335
  290TIP3   OH2  812   7.683   4.765   1.918  0.3440 -0.7418  0.6536
  290TIP3    H1  813   7.587   4.757   1.922  0.3585 -0.3820  2.3251
  290TIP3    H2  814   7.715   4.698   1.978  1.0389  0.6026  1.8232
  291TIP3   OH2  815   4.109   3.603   0.879 -0.0689  0.3949  0.6109
  291TIP3    H1  816   4.114   3.574   0.788 -4.0229 -0.2992  0.4377
  291TIP3    H2  817   4.132   3.525   0.930 -0.4807 -0.0176  0.1807
  292TIP3   OH2  818   3.204   1.652   4.978  0.0926  0.3287  0.1373
  292TIP3    H1  819   3.151   1.731   4.990 -1.2791 -0.1589 -2.1194
  292TIP3    H2  820   3.240   1.660   4.890  1.6190 -0.6663  0.6126
  293TIP3   OH2  821   0.821   6.462  -0.017  0.4366  0.6391  0.5855
  293TIP3    H1  822   0.753   6.529  -0.007 -0.5804 -0.4883  1.3996
  293TIP3    H2  823   0.787   6.385   0.029  1.1583 -0.7633 -1.1109
  294TIP3   OH2  824   8.193   3.177   4.660 -0.5558 -0.9241  0.2180
  294TIP3    H1  825   8.192   3.111   4.591 -0.0943  0.3175 -1.0164
  294TIP3    H2  826   8.151   3.253   4.621 -2.3395 -0.8863  2.0806
  295TIP3   OH2  827   2.786   4.499   4.509  0.3272  0.5581 -0.1581
  295TIP3    H1  828   2.791   4.404   4.525  3.1828  0.8185  1.1037
  295TIP3    H2  829   2.837   4.512   4.429 -0.6853  0.9695 -0.7440
  296TIP3   OH2  830   5.440   3.557   3.009  0.3303  0.0926  0.2192
  296TIP3    H1  831   5.391   3.538   3.089 -0.0215  0.6300  0.1440
  296TIP3    H2  832   5.525   3.588   3.039 -0.2512  1.5632  0.4523
  297TIP3   OH2  833   1.029   0.819   4.354  0.1903 -0.2844 -0.2164
  297TIP3    H1  834   1.078   0.782   4.281 -1.0839 -1.0435 -0.7127
  297TIP3    H2  835   0.971   0.749   4.383 -3.0118  1.4713 -1.7939
  298TIP3   OH2  836   3.489   5.684   4.446 -1.1506  0.4147 -0.7260
  298TIP3    H1  837   3.476   5.633   4.526 -1.4343  2.8460  0.8588
  298TIP3    H2  838   3.572   5.650   4.410  0.7751  1.3907  2.3941
  299TIP3   OH2  839   1.560   3.610   2.618 -0.1516 -0.0885 -0.6960
  299TIP3    H1  840   1.476   3.640   2.651  0.6114  1.2812  0.0915
  299TIP3    H2  841   1.562   3.516   2.638 -0.6426  0.2589  1.1683
  300TIP3   OH2  842   6.110   2.630   1.192  0.0691 -0.2240 -0.0976
  300TIP3    H1  843   6.088   2.547   1.236  0.3836  0.2853  1.0742
  300TIP3    H2  844   6.132   2.689   1.264  0.3202  0.7409 -0.9517
  301TIP3   OH2  845   0.474   2.247   4.149  0.2381 -0.0759  0.0310
  301TIP3    H1  846   0.455   2.238   4.242  2.0131  2.9287  0.8023
  301TIP3    H2  847   0.410   2.312   4.118  0.2994 -0.3275 -0.6510
  302TIP3   OH2  848   8.210   3.964   3.212  0.6868  0.2874 -0.4840
  302TIP3    H1  849   8.248   3.904   3.277  1.2708  2.0816  0.9091
  302TIP3    H2  850   8.135   3.915   3.177 -0.1618 -0.4887  2.1483
  303TIP3   OH2  851   5.205   3.203   1.725  0.2672 -0.7961 -0.1848
  303TIP3    H1  852   5.298   3.185   1.717 -0.1155 -2.2512 -1.9103
  303TIP3    H2  853   5.196   3.295   1.703  1.2089 -0.8209 -0.7172
  304TIP3   OH2  854   5.803   5.579   1.041  0.2699 -0.0221  0.5550
  304TIP3    H1  855   5.826   5.583   1.133  1.7910 -0.4329  0.2235
  304TIP3    H2  856   5.792   5.485   1.023  0.4489  0.0229  0.2051
  305TIP3   OH2  857   5.187   6.925   5.781 -0.5960 -0.2696  0.4672
  305TIP3    H1  858   5.200   6.942   5.874 -0.0410  3.2906 -0.1237
  305TIP3    H2  859   5.094   6.944   5.767 -0.7196 -0.9735  0.3057
  306TIP3   OH2  860   0.152   7.739   3.734 -0.2539  0.2548 -0.0827
  306TIP3    H1  861   0.110   7.805   3.680 -2.0572 -0.8284 -0.1008
  306TIP3    H2  862   0.098   7.661   3.722  0.9934 -0.8221  1.0235
  307TIP3   OH2  863   5.664   2.151   5.142  0.3881  0.2647  0.1607
  307TIP3    H1  864   5.591   2.109   5.097  1.1604 -0.3861 -0.5061
  307TIP3    H2  865   5.686   2.225   5.085  0.6241  0.1189  0.0643
  308TIP3   OH2  866   3.278   7.266   3.748  0.2575 -0.2214  0.4814
  308TIP3    H1  867   3.274   7.239   3.657 -0.0621 -0.3324  0.5262
  308TIP3    H2  868   3.366   7.301   3.759  0.0573  0.4666 -0.0528
  309TIP3   OH2  869   0.113   2.048   4.062  0.6351 -0.4494  0.2565
  309TIP3    H1  870   0.162   2.127   4.038  3.0087 -1.5996  1.0005
  309TIP3    H2  871   0.178   1.978   4.061 -1.1948 -2.2597  0.5601
  310TIP3   OH2  872   0.862   6.719   5.390  0.5455 -0.0214 -0.5363
  310TIP3    H1  873   0.832   6.787   5.330 -0.2962  1.6717  1.6500
  310TIP3    H2  874   0.936   6.759   5.436 -0.2226 -0.3563  1.0723
  311TIP3   OH2  875   6.755   6.869   0.777 -0.2921  0.3306  0.5225
  311TIP3    H1  876   6.838   6.822   0.781 -0.5643 -0.3165 -0.7014
  311TIP3    H2  877   6.695   6.807   0.735 -1.3914  0.7899  1.3686
  312TIP3   OH2  878   2.582   0.078   3.444  0.1198  0.3709 -0.2645
  312TIP3    H1  879   2.523   0.088   3.369 -0.3565 -1.2352 -0.1527
  312TIP3    H2  880   2.527   0.041   3.513  1.0250 -0.2083  0.1719
  313TIP3   OH2  881   0.377   5.810   4.803  0.1303  0.5432  0.6515
  313TIP3    H1  882   0.303   5.870   4.813 -1.3284 -0.9821 -0.4309
  313TIP3    H2  883   0.373   5.754   4.880 -0.7328 -0.4308 -0.0815
  314TIP3   OH2  884   1.643   7.395   4.521  0.2108  0.0550  0.2962
  314TIP3    H1  885   1.699   7.414   4.445 -1.1369  0.7002 -0.5687
  314TIP3    H2  886   1.592   7.475   4.534 -0.6963 -0.6067  0.8951
  315TIP3   OH2  887   3.243   3.489   5.286 -0.2116  0.2643 -0.2420
  315TIP3    H1  888   3.187   3.433   5.339 -0.5759 -1.8790 -2.6616
  315TIP3    H2  889   3.182   3.543   5.236  0.0010  0.2576 -0.5137
  316TIP3   OH2  890   0.964   7.223   5.535 -0.5739 -0.2261  0.5902
  316TIP3    H1  891   1.023   7.173   5.479 -1.1850 -1.8985  1.3590
  316TIP3    H2  892   0.914   7.278   5.474  0.4987 -0.1233 -0.2314
  317TIP3   OH2  893   3.162   4.677   3.447  0.3126 -0.5874  0.3185
  317TIP3    H1  894   3.244   4.627   3.446 -0.2336 -1.4751 -0.3321
  317TIP3    H2  895   3.188   4.764   3.415  1.0253 -0.8134  0.2474
  318TIP3   OH2  896   4.690   1.307   0.160  0.1140  0.0733  0.6286
  318TIP3    H1  897   4.647   1.293   0.244  0.7999  0.0557  0.9858
  318TIP3    H2  898   4.679   1.400   0.142 -0.6777 -0.0628  0.3701
  319TIP3   OH2  899   2.641   2.378   2.435  0.2551  0.0980 -0.0103
  319TIP3    H1  900   2.622   2.284   2.431  1.6276 -0.1534 -1.7279
  319TIP3    H2  901   2.565   2.416   2.480 -0.3740 -1.7956  0.6252
  320TIP3   OH2  902   5.944   7.695   2.498 -0.4689  0.1320  0.5460
  320TIP3    H1  903   5.878   7.626   2.504  0.5598 -0.9093  0.2907
  320TIP3    H2  904   5.924   7.754   2.570 -1.2692 -0.5287  0.8812
  321TIP3   OH2  905   7.322   5.750   0.751 -0.1947 -1.2574 -0.4135
  321TIP3    H1  906   7.273   5.830   0.735  1.6839  0.0449  0.0377
  321TIP3    H2  907   7.414   5.777   0.753  0.4114 -3.1471  1.3208
  322TIP3   OH2  908   2.242   2.081   5.769 -0.4044 -0.1864  0.1573
  322TIP3    H1  909   2.244   2.050   5.859  1.5209 -1.8593 -0.3966
  322TIP3    H2  910   2.322   2.132   5.759  0.1633 -1.2652 -0.9885
  323TIP3   OH2  911   4.618   0.205   4.971 -0.2178 -0.0889 -0.0274
  323TIP3    H1  912   4.568   0.195   5.052  0.8686  0.8248  0.7895
  323TIP3    H2  913   4.658   0.120   4.956 -0.1515 -0.1693  0.6003
  324TIP3   OH2  914   4.387   2.609   6.057 -0.8991  0.1922  0.1784
  324TIP3    H1  915   4.377   2.695   6.017  0.9511  0.2805 -0.2241
  324TIP3    H2  916   4.326   2.609   6.131 -1.5603  1.5125 -0.3446
  325TIP3   OH2  917   4.467   7.519   1.524 -0.1819  0.2047  0.3112
  325TIP3    H1  918   4.421   7.594   1.486 -1.6845 -1.1009 -0.6025
  325TIP3    H2  919   4.457   7.530   1.619  1.0912  1.9953  0.2841
  326TIP3   OH2  920   5.600   2.705   3.585  0.2708  0.2503 -0.2298
  326TIP3    H1  921   5.541   2.757   3.531  1.7627  1.3735 -0.8739
  326TIP3    H2  922   5.614   2.624   3.535  0.0714  0.4213 -0.5672
  327TIP3   OH2  923   7.222   2.402   4.767  0.0572  0.1080 -0.0246
  327TIP3    H1  924   7.244   2.316   4.804  0.9630 -0.6828 -2.2768
  327TIP3    H2  925   7.127   2.404   4.766  0.0203 -1.2111 -0.6442
  328TIP3   OH2  926   0.987   5.720   3.438  0.1535 -0.2546 -0.7068
  328TIP3    H1  927   1.042   5.794   3.463 -1.7933  2.2520 -3.2497
  328TIP3    H2  928   1.049   5.657   3.400  1.7857  0.2848  0.9460
  329TIP3   OH2  929   2.857   3.767   2.941 -0.1398  0.4004  0.3006
  329TIP3    H1  930   2.881   3.689   2.892  0.4974  0.6985  0.1233
  329TIP3    H2  931   2.765   3.782   2.919 -0.7097 -1.1067  1.4473
  330TIP3   OH2  932   2.131   2.609   5.269  0.3450  0.5306 -0.4326
  330TIP3    H1  933   2.139   2.591   5.175  0.9350  0.4039 -0.3614
  330TIP3    H2  934   2.190   2.546   5.310 -0.5667 -0.0031  0.0866
  331TIP3   OH2  935   3.145   2.037   2.873 -0.1361  0.2377 -0.5162
  331TIP3    H1  936   3.210   2.061   2.808 -0.4922  0.7613 -0.6918
  331TIP3    H2  937   3.195   1.997   2.944  0.3534  0.4622 -0.7295
  332TIP3   OH2  938   0.582   1.939   5.858 -0.5480  0.0881  0.3313
  332TIP3    H1  939   0.574   1.932   5.953 -0.2740 -1.3259  0.2795
  332TIP3    H2  940   0.677   1.933   5.842 -0.6706 -0.9595 -0.0903
  333TIP3   OH2  941   3.959   7.093   1.500  0.3969 -0.3199  0.0856
  333TIP3    H1  942   3.917   7.109   1.585  2.7172 -0.9131  1.4560
  333TIP3    H2  943   3.962   7.179   1.458  0.7180  0.3433  1.3985
  334TIP3   OH2  944   4.046   3.075   3.057 -0.2323  0.0260 -0.5170
  334TIP3    H1  945   4.001   2.994   3.035  1.2972 -0.6079 -1.5534
  334TIP3    H2  946   4.038   3.129   2.978  1.2590 -0.3479 -0.9640
  335TIP3   OH2  947   6.189   5.805   5.082  0.0503  0.0652 -0.1028
  335TIP3    H1  948   6.258   5.802   5.015  0.4844 -1.8972  0.3713
  335TIP3    H2  949   6.119   5.751   5.045 -1.5538  2.5143 -0.8418
  336TIP3   OH2  950   5.611   7.145   2.062  0.6165  0.1271  0.8212
  336TIP3    H1  951   5.689   7.200   2.070  2.6597 -2.5283  0.6516
  336TIP3    H2  952   5.564   7.159   2.144  2.2155  0.5233  1.7226
  337TIP3   OH2  953   1.274   6.370   2.814 -0.3721  0.1771 -0.3970
  337TIP3    H1  954   1.224   6.294   2.784 -0.4229 -0.2860  0.7924
  337TIP3    H2  955   1.246   6.382   2.905  1.3135  0.1941  0.1558
  338TIP3   OH2  956   6.716   0.784   3.048  0.0990  0.0488 -0.0582
  338TIP3    H1  957   6.756   0.823   2.970 -1.4221  0.2671 -0.7565
  338TIP3    H2  958   6.678   0.857   3.095  0.4021 -0.1709  0.5419
  339TIP3   OH2  959   7.517   4.947   3.088  1.0058  0.0219  0.3827
  339TIP3    H1  960   7.559   4.925   3.005  0.2005 -0.2919  0.0448
  339TIP3    H2  961   7.584   4.993   3.138  1.6284 -0.1575 -0.2784
  340TIP3   OH2  962   6.030   6.201   1.324 -0.3143  0.4550  0.0068
  340TIP3    H1  963   6.003   6.268   1.387  0.4628  0.3349  0.4803
  340TIP3    H2  964   6.076   6.136   1.377 -0.9635 -0.4032 -0.4682
  341TIP3   OH2  965   1.143   3.118   1.655  0.2734 -0.4974 -0.0197
  341TIP3    H1  966   1.155   3.196   1.601 -1.7280 -0.2111 -0.1385
  341TIP3    H2  967   1.187   3.048   1.607  1.8545  0.4676 -0.0451
  342TIP3   OH2  968   0.598   6.999   3.422  0.2275 -0.0401  0.1386
  342TIP3    H1  969   0.570   7.085   3.392  0.3390 -0.3028 -0.7485
  342TIP3    H2  970   0.651   7.016   3.500  1.1468  0.7713 -0.6501
  343TIP3   OH2  971   3.432   3.330   4.502  0.2749 -0.2237 -0.3543
  343TIP3    H1  972   3.434   3.385   4.580 -0.9359 -1.6411  0.7373
  343TIP3    H2  973   3.455   3.242   4.533 -0.8456 -0.9444 -1.4401
  344TIP3   OH2  974   5.044   3.191   5.775 -0.1508 -0.0990  0.2339
  344TIP3    H1  975   5.019   3.199   5.867  0.9357  0.3980  0.4943
  344TIP3    H2  976   5.022   3.275   5.736  3.3284  1.3536  1.0443
  345TIP3   OH2  977   5.315   4.204   2.192  0.7486  0.2946  0.5336
  345TIP3    H1  978   5.398   4.240   2.221  1.3040  0.7034 -1.4146
  345TIP3    H2  979   5.263   4.280   2.168  1.7409 -0.0139 -3.1292
  346TIP3   OH2  980   5.765   1.309   5.042 -0.2551 -0.2164  0.3058
  346TIP3    H1  981   5.782   1.402   5.027 -1.4992  0.0526  0.4435
  346TIP3    H2  982   5.696   1.307   5.109  0.0804 -1.2477  0.6392
  347TIP3   OH2  983   4.632   1.936   5.489 -0.4203 -0.4416 -0.2283
  347TIP3    H1  984   4.589   1.922   5.405 -0.2892 -0.3648 -0.3085
  347TIP3    H2  985   4.609   1.858   5.540 -1.6316  0.1479  0.1534
  348TIP3   OH2  986   0.303   1.090   1.378  0.4884 -0.1018  0.3780
  348TIP3    H1  987   0.311   1.095   1.283  1.8465 -0.1056  0.4686
  348TIP3    H2  988   0.216   1.054   1.393  0.4264 -0.5348 -0.8789
  349TIP3   OH2  989   0.386   6.269   2.192  0.2327  0.0654  0.0674
  349TIP3    H1  990   0.438   6.227   2.261  2.6489 -0.2279 -1.7929
  349TIP3    H2  991   0.347   6.197   2.143  1.3494  0.0835 -0.8932
  350TIP3   OH2  992   0.322   6.512   1.504 -0.2488 -0.1325  0.0223
  350TIP3    H1  993   0.250   6.545   1.451 -0.1978  1.1135  0.6898
  350TIP3    H2  994   0.323   6.569   1.581  0.5577 -1.0229  0.6976
  351TIP3   OH2  995   2.975   3.936   6.613  0.3320  0.1544  0.0329
  351TIP3    H1  996   2.899   3.928   6.670 -0.6655 -1.5621 -1.4502
  351TIP3    H2  997   2.941   3.974   6.532  1.1191 -0.2681 -0.5102
  352TIP3   OH2  998   5.238   5.983   5.154  0.3832 -0.5464 -0.3022
  352TIP3    H1  999   5.173   6.053   5.152  0.5008 -0.1790  3.0593
  352TIP3    H2 1000   5.292   5.999   5.076  0.3167  3.0362  0.2120
  353TIP3   OH2 1001   2.791   1.554   6.620  0.2552  1.1024 -0.0276
  353TIP3    H1 1002   2.806   1.548   6.526 -1.6406 -1.9488 -0.2668
  353TIP3    H2 1003   2.707   1.509   6.634  1.6330 -0.7940  3.3626
  354TIP3   OH2 1004   5.203   3.235   6.658 -0.0326 -0.1888  0.0899
  354TIP3    H1 1005   5.205   3.149   6.700 -2.5468  0.4772  1.7871
  354TIP3    H2 1006   5.128   3.231   6.599  0.0073  0.7602 -0.0378
  355TIP3   OH2 1007   3.590   7.332   6.057 -0.4068  0.3728 -0.2931
  355TIP3    H1 1008   3.671   7.318   6.105 -0.8392 -0.5810  0.1863
  355TIP3    H2 1009   3.526   7.353   6.124 -0.2935  2.4893 -0.7879
  356TIP3   OH2 1010   6.751   3.163   3.036  0.2088 -0.2429 -0.4367
  356TIP3    H1 1011   6.795   3.240   2.999  1.9046 -0.3536  1.2395
  356TIP3    H2 1012   6.688   3.199   3.098 -0.0332 -0.1694 -0.7228
  357TIP3   OH2 1013   3.610   2.179   5.295  0.0074  0.4145 -0.4690
  357TIP3    H1 1014   3.521   2.155   5.323  0.9209 -1.6308  0.8836
  357TIP3    H2 1015   3.639   2.244   5.359 -0.6323  1.4084 -1.1609
  358TIP3   OH2 1016   5.995   3.953   5.835 -0.1664 -0.0737  0.4875
  358TIP3    H1 1017   6.075   3.905   5.854  0.4194  1.0027  0.8104
  358TIP3    H2 1018   6.000   3.973   5.742 -0.8942 -1.4678  0.1184
  359TIP3   OH2 1019   3.411   2.680   5.378  0.1252  0.1365  0.3811
  359TIP3    H1 1020   3.482   2.671   5.441 -0.3894  0.2373  0.9800
  359TIP3    H2 1021   3.440   2.628   5.303  1.0724  0.6185  0.3949
  360TIP3   OH2 1022   3.228   6.668   5.086 -0.3252  0.1837 -0.3048
  360TIP3    H1 1023   3.223   6.755   5.045 -0.5860  0.1041 -0.4461
  360TIP3    H2 1024   3.143   6.628   5.067  0.1260 -0.4636 -1.0504
  361TIP3   OH2 1025   1.755   6.952   1.920 -0.4769 -0.0551 -0.0082
  361TIP3    H1 1026   1.721   7.009   1.850  0.3659  0.5762  0.0916
  361TIP3    H2 1027   1.720   6.865   1.898  1.1897 -0.2392 -2.2322
  362TIP3   OH2 1028   8.239   1.174   1.567  0.2771  0.3030 -0.0232
  362TIP3    H1 1029   8.278   1.100   1.521  0.1795  2.4453 -4.0817
  362TIP3    H2 1030   8.148   1.176   1.537  0.2517  1.9465  0.0491
  363TIP3   OH2 1031   7.272   1.045   1.465  0.1672 -0.0571 -0.6328
  363TIP3    H1 1032   7.286   1.014   1.554  1.1441 -0.9579 -1.0747
  363TIP3    H2 1033   7.185   1.013   1.442  0.1585 -0.3496 -0.2083
  364TIP3   OH2 1034   7.703   6.218   3.732  0.4915 -0.2742  0.4119
  364TIP3    H1 1035   7.776   6.156   3.737 -1.4244 -3.0127 -1.9870
  364TIP3    H2 1036   7.704   6.263   3.817  3.0615 -2.4014  1.6746
  365TIP3   OH2 1037   4.384   1.951   3.907 -0.0154  0.3024 -0.2222
  365TIP3    H1 1038   4.350   1.984   3.990 -0.3083  0.0542 -0.2406
  365TIP3    H2 1039   4.409   2.029   3.858  0.5771  0.4325  0.2713
  366TIP3   OH2 1040   2.751   4.778   2.219  0.2093  0.0624 -0.4723
  366TIP3    H1 1041   2.683   4.715   2.241  0.9845 -1.2040 -1.5294
  366TIP3    H2 1042   2.803   4.786   2.299 -0.3913 -0.0051 -0.0732
  367TIP3   OH2 1043   7.895   6.796   1.676  0.3671 -0.0730  0.1412
  367TIP3    H1 1044   7.815   6.774   1.629  1.0413  1.2998 -1.7806
  367TIP3    H2 1045   7.881   6.886   1.707 -0.1574 -1.0103  2.9262
  368TIP3   OH2 1046   0.947   7.717   3.249  0.2899 -0.4069  0.3493
  368TIP3    H1 1047   0.981   7.787   3.194  0.1923 -1.1977 -0.7349
  368TIP3    H2 1048   0.862   7.750   3.280 -0.1410 -0.3731 -0.8268
  369TIP3   OH2 1049   5.096   4.032   3.030  0.0506  0.3950 -0.5362
  369TIP3    H1 1050   5.131   4.017   2.943  0.0684  2.3323 -0.8990
  369TIP3    H2 1051   5.045   3.953   3.049 -0.9826  0.4543 -2.8017
  370TIP3   OH2 1052   7.647   5.783   2.967 -0.4874 -0.3720  0.3639
  370TIP3    H1 1053   7.689   5.700   2.990  0.9632  0.7262  1.9226
  370TIP3    H2 1054   7.563   5.781   3.012  0.5405 -0.0600  2.4332
  371TIP3   OH2 1055   2.227   5.550   0.381  0.1589 -0.8044 -0.1544
  371TIP3    H1 1056   2.190   5.486   0.442  0.9107 -0.9503  0.1624
  371TIP3    H2 1057   2.194   5.523   0.295 -1.3472 -0.2825  0.2265
  372TIP3   OH2 1058   2.926   2.877   3.650  0.2819  0.2497  0.4203
  372TIP3    H1 1059   2.959   2.787   3.659 -1.7413 -0.6540 -0.4095
  372TIP3    H2 1060   2.882   2.894   3.733 -1.2933 -0.4549 -0.2244
  373TIP3   OH2 1061   2.880   0.836   0.592  0.6996 -0.4210  0.0570
  373TIP3    H1 1062   2.949   0.770   0.588  1.0520 -0.0940  0.6283
  373TIP3    H2 1063   2.828   0.813   0.669 -0.3125 -1.1253 -0.8196
  374TIP3   OH2 1064   6.349   5.527   4.008 -0.7371 -0.0748 -0.3090
  374TIP3    H1 1065   6.378   5.508   3.919  0.6118  1.4486 -0.2244
  374TIP3    H2 1066   6.253   5.531   4.002 -0.6861 -0.5172 -1.5692
  375TIP3   OH2 1067   7.108   5.746   4.306 -0.4263 -0.2365  0.9470
  375TIP3    H1 1068   7.013   5.751   4.315 -0.5217 -0.4283  0.1183
  375TIP3    H2 1069   7.125   5.656   4.279  0.1144 -0.5838  2.3379
  376TIP3   OH2 1070   3.573   1.778   6.467  0.1715  0.0724 -0.3850
  376TIP3    H1 1071   3.619   1.748   6.389  2.2676  0.1316  0.7550
  376TIP3    H2 1072   3.503   1.835   6.434  0.8503 -0.0817 -2.1931
  377TIP3   OH2 1073   6.598   6.637   3.791  0.2932  0.0167 -0.0460
  377TIP3    H1 1074   6.648   6.561   3.821  1.7069  0.2369 -1.7104
  377TIP3    H2 1075   6.622   6.707   3.851  1.6981  0.0039 -0.5646
  378TIP3   OH2 1076   4.681   6.949   0.165  0.5535 -0.1304 -0.1313
  378TIP3    H1 1077   4.599   6.978   0.205  1.6665  3.0326  0.1675
  378TIP3    H2 1078   4.668   6.961   0.071  0.2966 -0.7350 -0.1735
  379TIP3   OH2 1079   0.428   0.195   2.312  0.5048 -0.6509 -0.5831
  379TIP3    H1 1080   0.354   0.164   2.366  0.4964 -0.6875 -0.6158
  379TIP3    H2 1081   0.424   0.142   2.233  2.1410 -2.5401  0.5044
  380TIP3   OH2 1082   1.656   7.238   2.028 -0.0057 -0.0881 -0.2447
  380TIP3    H1 1083   1.707   7.160   2.051  1.8511  1.5538  1.6722
  380TIP3    H2 1084   1.669   7.249   1.934 -0.2523 -2.0109 -0.5423
  381TIP3   OH2 1085   4.745   3.490   1.906  0.2752 -0.1343  0.1609
  381TIP3    H1 1086   4.650   3.485   1.897  0.3767 -0.4135 -0.9163
  381TIP3    H2 1087   4.775   3.400   1.896  0.6660 -0.0263  0.3392
  382TIP3   OH2 1088   1.634   5.233   6.284 -0.6248 -0.0209  0.1570
  382TIP3    H1 1089   1.633   5.299   6.214 -0.1308 -0.3389 -0.1579
  382TIP3    H2 1090   1.726   5.209   6.293 -0.4657  1.1136  1.9829
  383TIP3   OH2 1091   2.855   0.854   3.497  0.1197  0.0127 -0.4519
  383TIP3    H1 1092   2.844   0.942   3.462  0.7702  0.5474  0.6283
  383TIP3    H2 1093   2.876   0.800   3.421  0.5265  0.9516 -1.0194
  384TIP3   OH2 1094   8.162   1.391   2.471  0.2999  0.3242  0.0820
  384TIP3    H1 1095   8.197   1.462   2.418 -1.0453  0.5796 -0.4955
  384TIP3    H2 1096   8.128   1.328   2.407  2.5804 -1.5032  0.5095
  385TIP3   OH2 1097   1.904   7.652   0.249 -0.7876  0.2256  0.0863
  385TIP3    H1 1098   1.993   7.683   0.235 -1.3109  1.8068  0.0949
  385TIP3    H2 1099   1.871   7.704   0.322 -1.0663 -1.7376  1.4329
  386TIP3   OH2 1100   8.150   0.669   2.617 -0.2354 -0.1712  0.0075
  386TIP3    H1 1101   8.241   0.671   2.587  0.0710  0.5005  0.9459
  386TIP3    H2 1102   8.101   0.638   2.541  0.6807  0.1556 -0.7383
  387TIP3   OH2 1103   7.837   7.501   6.491 -0.2017  0.3426  0.5165
  387TIP3    H1 1104   7.924   7.533   6.469  0.2913 -0.4232  1.3293
  387TIP3    H2 1105   7.779   7.573   6.465  0.6130  0.6907 -0.4249
  388TIP3   OH2 1106   2.489   6.862   4.924  0.0005 -0.3970 -0.3828
  388TIP3    H1 1107   2.486   6.914   5.005 -1.3846 -0.6570 -0.2371
  388TIP3    H2 1108   2.581   6.835   4.916  0.0348 -1.0277  1.5442
  389TIP3   OH2 1109   1.309   0.458   2.482  0.1458  0.7382  0.3008
  389TIP3    H1 1110   1.257   0.538   2.495 -3.0327 -1.1226  0.1596
  389TIP3    H2 1111   1.298   0.438   2.389  1.3366  0.3850  0.2246
  390TIP3   OH2 1112   0.927   4.044   4.273  0.2791 -0.0220  0.0929
  390TIP3    H1 1113   0.974   4.036   4.191 -1.4675  2.4339 -1.2581
  390TIP3    H2 1114   0.964   4.121   4.316 -2.4526  2.1403 -1.1305
  391TIP3   OH2 1115   2.084   0.907   6.631  0.0899 -0.6199 -0.2682
  391TIP3    H1 1116   1.996   0.869   6.624 -0.3856  0.4622 -0.3074
  391TIP3    H2 1117   2.078   0.969   6.703  0.3818  0.5985 -1.2536
  392TIP3   OH2 1118   0.017   1.420   6.686 -0.2765  0.1505  0.0808
  392TIP3    H1 1119   0.004   1.469   6.605  0.1798 -0.2622 -0.2427
  392TIP3    H2 1120   0.067   1.480   6.742 -1.3793  0.7859  0.4061
  393TIP3   OH2 1121   5.925   6.795   5.581  0.1291  0.0857  0.5168
  393TIP3    H1 1122   5.913   6.705   5.612 -0.2000  0.0596  0.3237
  393TIP3    H2 1123   5.984   6.786   5.506 -1.2784 -0.2045 -0.6301
  394TIP3   OH2 1124   6.530   5.684   0.154 -0.0541  0.6238 -0.0637
  394TIP3    H1 1125   6.482   5.603   0.169  0.0741  0.7203  0.9806
  394TIP3    H2 1126   6.521   5.733   0.236 -2.4989  2.9394 -1.5659
  395TIP3   OH2 1127   4.799   4.379   5.910  0.1646  0.1436 -0.3593
  395TIP3    H1 1128   4.894   4.364   5.914  0.1103  0.0588  0.7311
  395TIP3    H2 1129   4.790   4.453   5.851  0.9203  0.2331 -0.3771
  396TIP3   OH2 1130   2.188   6.847   1.460 -0.3919  0.4965 -0.4239
  396TIP3    H1 1131   2.163   6.901   1.385  0.8991 -0.4175 -1.5792
  396TIP3    H2 1132   2.215   6.764   1.421 -2.5176 -1.1134  1.3069
  397TIP3   OH2 1133   0.075   6.118   1.340  0.3120 -0.1917 -0.0816
  397TIP3    H1 1134   0.018   6.110   1.416 -0.8181 -0.1266 -0.9062
  397TIP3    H2 1135   0.092   6.027   1.313 -0.4858 -0.1778 -0.6300
  398TIP3   OH2 1136   2.758   6.268   5.860 -0.1420 -0.1344  0.6381
  398TIP3    H1 1137   2.829   6.330   5.871 -1.7518  1.8239  0.5835
  398TIP3    H2 1138   2.757   6.249   5.766 -1.0470  1.6311  0.2433
  399TIP3   OH2 1139   1.833   2.478   1.835  0.0976 -0.9084 -0.3823
  399TIP3    H1 1140   1.804   2.461   1.925  2.9047 -2.2245  0.3757
  399TIP3    H2 1141   1.820   2.572   1.823 -0.5959 -0.7614  1.2947
  400TIP3   OH2 1142   5.626   3.955   1.246  0.4776  0.1070 -0.0844
  400TIP3    H1 1143   5.677   4.036   1.238 -0.4091  0.6507 -0.3207
  400TIP3    H2 1144   5.663   3.897   1.179  0.4298  0.6895 -0.6197
  401TIP3   OH2 1145   7.857   6.244   4.351 -0.0938 -0.1783 -0.1193
  401TIP3    H1 1146   7.913   6.213   4.280 -0.9664 -0.2230 -0.7993
  401TIP3    H2 1147   7.824   6.328   4.321 -0.7376 -0.3546  0.0859
  402TIP3   OH2 1148   6.489   5.201   3.880 -0.3780 -0.1988  0.4263
  402TIP3    H1 1149   6.575   5.238   3.856 -0.4531 -1.1655 -1.5627
  402TIP3    H2 1150   6.509   5.135   3.946  0.3037  0.2011  0.6285
  403TIP3   OH2 1151   0.925   6.315   1.333 -0.3168  0.4249  0.8743
  403TIP3    H1 1152   0.981   6.292   1.406  0.3992 -1.7107 -0.2711
  403TIP3    H2 1153   0.984   6.318   1.257 -1.4690 -0.3265 -0.0931
  404TIP3   OH2 1154   2.701   6.262   1.740  0.5083  0.0286  0.1356
  404TIP3    H1 1155   2.750   6.341   1.720  1.3349 -0.2400  1.0205
  404TIP3    H2 1156   2.639   6.252   1.667  0.5118  1.3759 -0.0657
  405TIP3   OH2 1157   5.794   4.221   4.862  0.5770 -0.3425 -0.0643
  405TIP3    H1 1158   5.825   4.274   4.789 -4.2114  1.8603 -0.8266
  405TIP3    H2 1159   5.757   4.143   4.821 -2.1253  0.8980 -0.1293
  406TIP3   OH2 1160   4.331   2.040   0.846  0.1253 -0.0292  0.0485
  406TIP3    H1 1161   4.309   2.106   0.911 -0.8315 -0.5794  0.3146
  406TIP3    H2 1162   4.253   1.984   0.842  1.0714 -1.4189  0.1827
  407TIP3   OH2 1163   4.485   1.798   5.328  0.1638 -0.6910 -0.1631
  407TIP3    H1 1164   4.437   1.783   5.409 -2.4824  1.8668 -1.0750
  407TIP3    H2 1165   4.422   1.776   5.258  2.0386 -1.9027 -1.5868
  408TIP3   OH2 1166   7.449   5.935   2.279  0.1350 -0.1876  0.1959
  408TIP3    H1 1167   7.392   5.876   2.229  0.5893 -0.8076  0.3885
  408TIP3    H2 1168   7.391   6.001   2.314 -0.6278 -1.3309  1.1653
  409TIP3   OH2 1169   0.261   6.393   5.374 -0.2154  0.0138  0.0393
  409TIP3    H1 1170   0.208   6.314   5.382 -0.2137 -0.0782 -0.7524
  409TIP3    H2 1171   0.198   6.462   5.351 -0.0190 -0.0801 -0.8257
  410TIP3   OH2 1172   3.376   2.288   0.692 -0.1157 -0.1694 -0.4762
  410TIP3    H1 1173   3.412   2.292   0.603 -1.3843 -0.7431 -1.0390
  410TIP3    H2 1174   3.435   2.228   0.739  0.5740  0.1502 -0.9145
  411TIP3   OH2 1175   3.849   7.102   4.733 -0.3107 -0.4285  0.5406
  411TIP3    H1 1176   3.814   7.032   4.677 -0.6758  0.2257 -0.0616
  411TIP3    H2 1177   3.772   7.143   4.772 -0.0308 -1.3721  2.1757
  412TIP3   OH2 1178   2.675   5.293   0.801  0.0163  0.2469 -0.0030
  412TIP3    H1 1179   2.618   5.272   0.727 -1.2119 -0.5343  1.1111
  412TIP3    H2 1180   2.664   5.387   0.814 -0.1605  0.2968 -0.4873
  413TIP3   OH2 1181   0.689   0.212   2.293  0.7317  0.1707 -0.3152
  413TIP3    H1 1182   0.597   0.200   2.314  0.4664  1.2523 -0.7830
  413TIP3    H2 1183   0.721   0.273   2.360  1.3417 -0.8861  0.3778
  414TIP3   OH2 1184   8.126   2.107   5.325  0.5170  0.0852 -0.5670
  414TIP3    H1 1185   8.187   2.150   5.384  0.3387 -0.2209 -0.1487
  414TIP3    H2 1186   8.147   2.014   5.332  1.9911  0.1820 -2.6885
  415TIP3   OH2 1187   5.332   7.688   3.654  0.4372  0.0303  0.4325
  415TIP3    H1 1188   5.405   7.658   3.600  0.8907  0.4391  0.8143
  415TIP3    H2 1189   5.268   7.721   3.592  0.5955 -0.2804  0.0997
  416TIP3   OH2 1190   1.858   2.877   4.608  0.2351 -0.1434 -0.2268
  416TIP3    H1 1191   1.827   2.787   4.618 -1.0077  0.4283  1.4765
  416TIP3    H2 1192   1.919   2.873   4.534  1.3508 -2.6697  0.7211
  417TIP3   OH2 1193   7.853   1.969   4.621 -0.2104 -0.1559 -0.1353
  417TIP3    H1 1194   7.833   1.994   4.531 -0.5387  0.1845  0.0284
  417TIP3    H2 1195   7.941   1.933   4.617  0.0070  0.3988 -0.5000
  418TIP3   OH2 1196   4.320   6.830   0.283  0.4275  0.6532 -0.8500
  418TIP3    H1 1197   4.354   6.911   0.245  0.7500  0.3986 -1.1094
  418TIP3    H2 1198   4.393   6.768   0.278  1.7159  1.5403  3.2358
  419TIP3   OH2 1199   7.754   4.619   4.604  0.4255  0.3196 -0.1711
  419TIP3    H1 1200   7.752   4.576   4.518 -0.6505  0.5097 -0.2505
  419TIP3    H2 1201   7.841   4.659   4.608  0.7091 -0.1801 -0.9225
  420TIP3   OH2 1202   1.482   5.329   1.678 -0.0041 -0.7485  0.2605
  420TIP3    H1 1203   1.541   5.398   1.646 -0.0644 -0.9887 -0.3813
  420TIP3    H2 1204   1.398   5.348   1.637 -1.1743  1.1573  3.1924
  421TIP3   OH2 1205   4.017   1.404   1.088  0.0511  0.4702  0.2724
  421TIP3    H1 1206   3.999   1.498   1.095 -1.0282  0.2882  0.1732
  421TIP3    H2 1207   3.973   1.378   1.007  4.1298  0.7023 -2.3116
  422TIP3   OH2 1208   7.346   2.433   2.102 -0.1308  0.0911 -0.0765
  422TIP3    H1 1209   7.396   2.506   2.068  0.9662 -0.5460  0.1199
  422TIP3    H2 1210   7.340   2.449   2.197  0.2556 -0.1448 -0.0083
  423TIP3   OH2 1211   7.139   3.332   2.183  0.1290 -0.0815  0.9829
  423TIP3    H1 1212   7.088   3.348   2.103 -0.9882  0.9403  1.8650
  423TIP3    H2 1213   7.228   3.360   2.160 -0.5886  2.2087  0.6799
  424TIP3   OH2 1214   4.257   0.639   0.977 -0.6130 -0.6464  0.1194
  424TIP3    H1 1215   4.251   0.706   0.908 -0.8340  0.6912  1.4031
  424TIP3    H2 1216   4.248   0.556   0.929  0.7481  0.1392 -1.6581
  425TIP3   OH2 1217   4.515   4.168   0.994 -0.1902 -0.4006 -0.4019
  425TIP3    H1 1218   4.420   4.166   1.000 -0.1533  0.5473  0.9496
  425TIP3    H2 1219   4.534   4.235   0.928 -0.4548 -1.9584 -2.1260
  426TIP3   OH2 1220   0.651   6.125   5.902 -0.4386  0.5583 -0.4465
  426TIP3    H1 1221   0.682   6.103   5.989  0.4400  0.1311 -0.8604
  426TIP3    H2 1222   0.675   6.050   5.848  0.1112  1.3326 -1.3016
  427TIP3   OH2 1223   3.826   7.108   0.742  0.3933 -0.5737 -0.1515
  427TIP3    H1 1224   3.757   7.080   0.681 -0.2177 -0.0430  0.2800
  427TIP3    H2 1225   3.780   7.118   0.826  0.6859  1.2037 -0.1727
  428TIP3   OH2 1226   3.851   1.682   2.272 -0.2363 -0.7761  0.5329
  428TIP3    H1 1227   3.875   1.689   2.364  0.6505 -2.5765  0.4852
  428TIP3    H2 1228   3.934   1.693   2.225 -0.8726  1.5420 -0.1865
  429TIP3   OH2 1229   7.613   0.943   2.561 -0.0330  0.7166 -0.0669
  429TIP3    H1 1230   7.632   0.896   2.642  2.8261  0.6985 -0.6310
  429TIP3    H2 1231   7.648   1.031   2.575 -1.6244  1.4600 -0.5013
  430TIP3   OH2 1232   3.732   4.284   3.232  0.8546  0.6675 -0.3473
  430TIP3    H1 1233   3.815   4.308   3.274  0.6059  0.1011  0.4945
  430TIP3    H2 1234   3.665   4.302   3.299  0.3456  0.7136 -0.8628
  431TIP3   OH2 1235   4.086   6.705   0.378 -0.2481 -0.3460 -0.2338
  431TIP3    H1 1236   4.007   6.760   0.374 -0.3792 -0.5283 -0.1648
  431TIP3    H2 1237   4.150   6.751   0.323 -0.6399 -0.5810 -0.9005
  432TIP3   OH2 1238   7.225   4.969   3.519 -0.3109  0.2654  0.2264
  432TIP3    H1 1239   7.204   4.885   3.477  3.0872  0.3716 -2.0362
  432TIP3    H2 1240   7.268   4.945   3.601 -0.6978 -0.1253  0.3218
  433TIP3   OH2 1241   1.811   4.610   3.123 -0.6103  1.0303  0.1673
  433TIP3    H1 1242   1.759   4.685   3.095 -0.7595  0.0658 -2.3556
  433TIP3    H2 1243   1.901   4.642   3.124 -0.5168  0.9538 -2.2160
  434TIP3   OH2 1244   6.612   7.073   3.649 -0.0977  0.7058  0.2411
  434TIP3    H1 1245   6.523   7.054   3.678  0.5235 -3.6092 -0.0683
  434TIP3    H2 1246   6.668   7.031   3.713  1.4766 -1.4494 -2.3439
  435TIP3   OH2 1247   7.101   6.433   3.903  0.5346  0.1029  0.2830
  435TIP3    H1 1248   7.106   6.349   3.948  0.8090  0.2236  0.4784
  435TIP3    H2 1249   7.063   6.413   3.818  0.7000 -0.2353  0.2901
  436TIP3   OH2 1250   1.778   0.064   4.455 -0.2556  0.3379  0.7154
  436TIP3    H1 1251   1.714   0.080   4.525  0.5509 -1.4291  1.9129
  436TIP3    H2 1252   1.725   0.029   4.383 -0.7711 -0.2777  1.3745
  437TIP3   OH2 1253   3.458   6.047   4.947  0.3745  0.2455 -0.5976
  437TIP3    H1 1254   3.429   5.984   5.012  1.4376  0.4960  0.1544
  437TIP3    H2 1255   3.386   6.109   4.939 -0.3221 -0.5668 -0.7034
  438TIP3   OH2 1256   0.028   4.677   5.439  0.6453  0.3357  0.3628
  438TIP3    H1 1257   0.074   4.695   5.356  0.0594 -0.5939 -0.1807
  438TIP3    H2 1258  -0.062   4.706   5.423  0.1033 -1.4274  0.0556
  439TIP3   OH2 1259   0.445   7.332   6.143  1.2056  0.1098 -0.0389
  439TIP3    H1 1260   0.519   7.354   6.086  0.2756  0.6688 -1.0797
  439TIP3    H2 1261   0.369   7.337   6.085  0.3815 -0.7181  0.9473
  440TIP3   OH2 1262   4.737   2.371   1.362 -0.0813  0.5129 -0.6873
  440TIP3    H1 1263   4.649   2.380   1.399  0.5466  3.6361  0.2997
  440TIP3    H2 1264   4.772   2.292   1.402 -1.4307  0.7801  1.1300
  441TIP3   OH2 1265   6.664   1.268   1.447  0.2201 -0.5727  0.4049
  441TIP3    H1 1266   6.665   1.318   1.528 -0.1058 -0.2153  0.1951
  441TIP3    H2 1267   6.621   1.186   1.470  0.7870 -0.7693  0.7592
  442TIP3   OH2 1268   2.047   5.268   1.078 -0.2159  0.0775 -0.1206
  442TIP3    H1 1269   2.139   5.251   1.099 -0.3966 -0.4206  0.2994
  442TIP3    H2 1270   2.006   5.285   1.163 -0.4122  0.8435 -0.3553
  443TIP3   OH2 1271   4.919   7.637   2.093  0.1487  0.3110  0.1407
  443TIP3    H1 1272   4.853   7.684   2.042 -0.9471 -1.0095  0.2630
  443TIP3    H2 1273   4.957   7.575   2.031  0.4665  0.2940  0.3513
  444TIP3   OH2 1274   0.336   1.644   5.677  0.0713  0.3158 -0.3060
  444TIP3    H1 1275   0.256   1.603   5.645 -0.0194  0.9274 -0.8762
  444TIP3    H2 1276   0.334   1.733   5.641  1.8173 -0.1708 -1.6961
  445TIP3   OH2 1277   0.216   4.219   1.347 -0.1082  0.1215  0.3302
  445TIP3    H1 1278   0.310   4.207   1.332 -0.4677 -0.0924 -2.1888
  445TIP3    H2 1279   0.190   4.143   1.399  0.4610 -2.1258 -2.3974
  446TIP3   OH2 1280   3.214   3.521   3.283  0.3461 -0.0137  0.1154
  446TIP3    H1 1281   3.233   3.470   3.204  2.4320  0.6460  0.1357
  446TIP3    H2 1282   3.258   3.473   3.353 -1.7559 -0.7778  1.0136
  447TIP3   OH2 1283   0.136   4.973   5.384  0.3284  0.4680 -0.1151
  447TIP3    H1 1284   0.170   4.919   5.456 -0.5680  0.7154  0.5047
  447TIP3    H2 1285   0.194   4.952   5.310 -0.4057 -1.9229 -0.1150
  448TIP3   OH2 1286   1.786   2.396   4.289  0.4829 -0.1678  0.3448
  448TIP3    H1 1287   1.815   2.453   4.360  3.2844 -2.0280  0.8715
  448TIP3    H2 1288   1.865   2.381   4.236 -1.7348  2.2138 -4.1265
  449TIP3   OH2 1289   0.250   4.479   6.049 -0.1331 -0.3322  0.2027
  449TIP3    H1 1290   0.266   4.513   5.961  1.8737  1.5412  1.1939
  449TIP3    H2 1291   0.199   4.548   6.092 -2.4272 -1.8936  0.1248
  450TIP3   OH2 1292   0.795   5.715   4.482  0.0294 -0.9830  0.1416
  450TIP3    H1 1293   0.718   5.754   4.524 -0.2923 -0.8947 -0.5043
  450TIP3    H2 1294   0.870   5.750   4.530 -0.3125 -0.5307  0.3468
  451TIP3   OH2 1295   7.487   4.850   0.840 -0.0834 -0.0603  0.4478
  451TIP3    H1 1296   7.449   4.938   0.835 -0.4896 -0.3044 -1.4974
  451TIP3    H2 1297   7.525   4.835   0.753  1.7508 -1.0461  1.3652
  452TIP3   OH2 1298   3.892   3.775   1.796  1.2444 -0.7479 -0.7996
  452TIP3    H1 1299   3.946   3.854   1.800  1.2985 -0.7932 -0.5826
  452TIP3    H2 1300   3.830   3.791   1.725 -0.8462  0.8360  1.2248
  453TIP3   OH2 1301   2.743   3.206   0.756  0.5150  0.2221 -0.2840
  453TIP3    H1 1302   2.669   3.262   0.777  0.2336  0.1752 -1.1081
  453TIP3    H2 1303   2.706   3.119   0.746  1.0867 -0.3429  1.9329
  454TIP3   OH2 1304   6.104   5.892   6.215  0.4798 -0.1628 -0.1303
  454TIP3    H1 1305   6.010   5.901   6.236  0.2757 -0.5845 -0.8477
  454TIP3    H2 1306   6.143   5.971   6.250 -0.0505 -0.2631  0.7307
  455TIP3   OH2 1307   0.112   1.107   2.205  0.0046  0.5084 -0.7824
  455TIP3    H1 1308   0.184   1.047   2.188 -0.4275  0.2194 -1.6536
  455TIP3    H2 1309   0.120   1.129   2.298 -0.3333 -1.5554 -0.2148
  456TIP3   OH2 1310   5.455   3.351   4.988  0.6534 -0.4285 -0.3863
  456TIP3    H1 1311   5.523   3.336   5.054  1.8182  0.7642 -1.2639
  456TIP3    H2 1312   5.486   3.426   4.939 -1.7944  0.7945 -0.2125
  457TIP3   OH2 1313   5.785   5.606   4.766  0.0038  0.2990 -0.3303
  457TIP3    H1 1314   5.806   5.621   4.674  0.7854  0.5583 -0.1253
  457TIP3    H2 1315   5.724   5.676   4.788  1.0285  1.2026 -0.2596
  458TIP3   OH2 1316   5.593   0.478   5.049 -0.7561 -0.5855  0.4751
  458TIP3    H1 1317   5.610   0.547   4.985 -3.0469 -1.0655 -0.7296
  458TIP3    H2 1318   5.537   0.519   5.115  0.6698 -0.4149  1.6612
  459TIP3   OH2 1319   2.077   2.464   2.918  0.0260 -0.5158 -0.1476
  459TIP3    H1 1320   2.103   2.547   2.958 -0.2340 -1.5440  2.3400
  459TIP3    H2 1321   2.011   2.428   2.977 -0.7585 -1.9421 -1.8109
  460TIP3   OH2 1322   0.821   5.621   5.223 -0.1817 -0.3605  0.2817
  460TIP3    H1 1323   0.902   5.604   5.270 -0.9090 -0.4229  1.5482
  460TIP3    H2 1324   0.837   5.587   5.134  0.1520 -3.1719  1.3100
  461TIP3   OH2 1325   7.066   3.764   1.516  0.8988 -0.7642  0.1971
  461TIP3    H1 1326   7.101   3.754   1.604  1.2061 -0.2694  0.1330
  461TIP3    H2 1327   7.032   3.677   1.494 -1.5204 -0.3200  1.7901
  462TIP3   OH2 1328   1.850   5.737   1.991 -0.4857  0.7304 -0.0484
  462TIP3    H1 1329   1.868   5.769   2.079  0.0000  0.6275 -0.1054
  462TIP3    H2 1330   1.878   5.645   1.993  1.1899  1.1723 -0.7817
  463TIP3   OH2 1331   5.290   0.152   6.158 -0.2160 -0.1316 -0.4349
  463TIP3    H1 1332   5.345   0.169   6.081 -0.7137  2.2059 -0.3527
  463TIP3    H2 1333   5.280   0.238   6.199 -0.0913 -1.2797  2.1956
  464TIP3   OH2 1334   4.853   5.338   6.749 -0.1274 -0.2864 -0.3164
  464TIP3    H1 1335   4.896   5.372   6.828 -1.9404  1.8011 -0.1292
  464TIP3    H2 1336   4.917   5.353   6.679  0.9520 -0.8722  0.5128
  465TIP3   OH2 1337   2.176   3.383   0.303 -0.1426 -0.1744 -0.0924
  465TIP3    H1 1338   2.090   3.343   0.313 -0.4288  0.5034  0.2515
  465TIP3    H2 1339   2.237   3.310   0.300 -0.6540 -0.6282  0.4797
  466TIP3   OH2 1340   5.581   2.966   4.649 -0.3375  0.0434  0.0477
  466TIP3    H1 1341   5.508   3.021   4.677  0.8496  2.0158 -0.5424
  466TIP3    H2 1342   5.546   2.917   4.574 -1.8324 -1.1037  1.4275
  467TIP3   OH2 1343   1.365   5.398   4.894  0.2614  0.2110 -0.1884
  467TIP3    H1 1344   1.352   5.360   4.807  1.9915  0.5283 -0.6177
  467TIP3    H2 1345   1.460   5.397   4.907 -0.0125 -1.4057  2.4302
  468TIP3   OH2 1346   3.910   6.011   4.915 -0.2369 -0.9372 -0.2283
  468TIP3    H1 1347   3.845   5.982   4.850  1.4914  0.0119 -2.5137
  468TIP3    H2 1348   3.923   6.104   4.895 -0.5603 -0.2661  2.3799
  469TIP3   OH2 1349   1.556   6.434   6.129  0.2673 -0.0194 -0.1109
  469TIP3    H1 1350   1.469   6.463   6.104  1.3206  3.1244 -0.5517
  469TIP3    H2 1351   1.603   6.425   6.046  0.2888 -2.2765  0.0737
  470TIP3   OH2 1352   2.979   2.611   4.932 -0.0309 -0.3582  0.7737
  470TIP3    H1 1353   3.010   2.527   4.968 -1.4527 -1.8732 -1.2710
  470TIP3    H2 1354   2.894   2.625   4.974 -0.6583 -0.9636 -0.2529
  471TIP3   OH2 1355   6.582   2.605   5.937  0.1024  0.0278 -0.2947
  471TIP3    H1 1356   6.642   2.590   6.010 -1.7280  0.5498  1.4035
  471TIP3    H2 1357   6.532   2.523   5.930  1.4863 -0.7183 -2.2458
  472TIP3   OH2 1358   4.563   4.987   1.606 -0.4965  0.1741  0.3932
  472TIP3    H1 1359   4.469   4.991   1.623 -0.2152  1.3005  1.9525
  472TIP3    H2 1360   4.588   4.897   1.625 -1.0969  0.1247  0.9724
  473TIP3   OH2 1361   1.341   1.092   5.811  0.3383 -0.4980  0.3037
  473TIP3    H1 1362   1.395   1.134   5.878 -1.1118  0.8152  0.7306
  473TIP3    H2 1363   1.397   1.086   5.734  1.0484  0.9600  0.6740
  474TIP3   OH2 1364   2.898   4.315   0.360 -0.2352  0.3006  0.6484
  474TIP3    H1 1365   2.900   4.405   0.394 -0.3985  0.1324  1.1041
  474TIP3    H2 1366   2.907   4.260   0.437  1.3725 -0.0709  0.2201
  475TIP3   OH2 1367   7.764   0.247   2.792 -0.2694  0.0850  0.8686
  475TIP3    H1 1368   7.782   0.326   2.844  2.1610  0.2715 -0.1122
  475TIP3    H2 1369   7.804   0.265   2.708  0.5742 -2.3029  0.7013
  476TIP3   OH2 1370   2.924   2.561   1.736 -0.6832  0.2243 -0.1487
  476TIP3    H1 1371   2.839   2.578   1.695 -1.0507  1.0323  0.8874
  476TIP3    H2 1372   2.950   2.646   1.772 -0.1540 -0.3403  0.8411
  477TIP3   OH2 1373   4.461   5.893   4.440  0.6446 -0.2537  0.1519
  477TIP3    H1 1374   4.410   5.814   4.419  0.8687 -0.2176 -0.5398
  477TIP3    H2 1375   4.507   5.914   4.359 -1.1177  1.8793 -0.3884
  478TIP3   OH2 1376   1.059   0.901   2.042 -0.4367 -0.0958 -0.1956
  478TIP3    H1 1377   1.116   0.951   1.984 -0.9767  1.5901  0.6430
  478TIP3    H2 1378   0.971   0.936   2.026 -1.2250 -2.3410 -1.1467
  479TIP3   OH2 1379   4.881   3.578   6.082  0.2920 -0.0345  0.4286
  479TIP3    H1 1380   4.908   3.634   6.010 -0.8985 -0.5446 -0.4440
  479TIP3    H2 1381   4.883   3.635   6.159  2.1235  0.3715  0.1268
  480TIP3   OH2 1382   2.028   7.402   2.693  0.0567 -0.0752 -0.1540
  480TIP3    H1 1383   2.040   7.310   2.668 -1.0491 -0.1874 -0.3304
  480TIP3    H2 1384   2.112   7.443   2.674  1.4631 -1.5517  2.3008
  481TIP3   OH2 1385   6.111   5.822   4.629 -0.1429 -0.0394  0.4320
  481TIP3    H1 1386   6.030   5.778   4.604 -0.0735  0.7499 -1.3485
  481TIP3    H2 1387   6.177   5.753   4.630 -0.1957 -0.1753 -1.5373
  482TIP3   OH2 1388   4.779   3.707   0.136 -0.0919 -0.0323  0.1968
  482TIP3    H1 1389   4.848   3.641   0.140  0.8205  0.9013  0.1458
  482TIP3    H2 1390   4.750   3.706   0.045  0.9820  0.6735 -0.1801
  483TIP3   OH2 1391   3.127   7.378   0.278  0.0701  0.6174  0.0977
  483TIP3    H1 1392   3.069   7.431   0.332  0.7301  1.1934  0.2480
  483TIP3    H2 1393   3.090   7.384   0.190  0.6718  2.1304 -0.0807
  484TIP3   OH2 1394   0.393   4.935   0.403 -0.1169  0.5777 -0.1749
  484TIP3    H1 1395   0.431   5.022   0.414 -0.7893  0.8850 -0.1892
  484TIP3    H2 1396   0.361   4.934   0.313  0.0475  0.2513 -0.2290
  485TIP3   OH2 1397   6.899   2.546   5.467 -0.3845 -0.6159  0.1454
  485TIP3    H1 1398   6.976   2.598   5.492 -0.0990 -1.7551  1.8353
  485TIP3    H2 1399   6.831   2.610   5.450  0.0529  0.3615  1.8254
  486TIP3   OH2 1400   6.807   1.076   5.338  0.4206 -0.0141  0.1699
  486TIP3    H1 1401   6.734   1.132   5.365 -1.9305 -2.1948 -1.2346
  486TIP3    H2 1402   6.845   1.044   5.420 -0.4556  0.8357  0.9334
  487TIP3   OH2 1403   2.741   5.775   3.946  0.0112  0.1410 -0.4774
  487TIP3    H1 1404   2.750   5.818   3.861 -0.6589  0.6745 -0.2930
  487TIP3    H2 1405   2.739   5.848   4.009  1.0053 -0.2675  0.0455
  488TIP3   OH2 1406   3.814   5.653   6.177  0.4442 -1.0171  0.0411
  488TIP3    H1 1407   3.898   5.657   6.132  0.4858  1.4307  0.1826
  488TIP3    H2 1408   3.825   5.585   6.243  1.7840 -1.7856 -0.9183
  489TIP3   OH2 1409   5.024   0.674   3.269  0.7924  0.0575 -0.2060
  489TIP3    H1 1410   5.087   0.649   3.336  1.5670 -0.5122 -1.1099
  489TIP3    H2 1411   5.073   0.731   3.210  1.0565 -1.8443 -1.9377
  490TIP3   OH2 1412   3.835   4.859   5.642 -0.0790  0.1596 -0.2146
  490TIP3    H1 1413   3.881   4.903   5.570 -0.1332  0.3687 -0.1241
  490TIP3    H2 1414   3.893   4.869   5.717  0.0459 -0.1915 -0.2662
  491TIP3   OH2 1415   8.018   4.533   2.605  0.3524  0.1368 -0.2901
  491TIP3    H1 1416   8.051   4.504   2.520  0.0377 -1.0206 -0.0285
  491TIP3    H2 1417   8.053   4.470   2.668 -0.3733  0.3047  0.2962
  492TIP3   OH2 1418   6.900   6.171   0.733  0.3491 -0.5613  0.1350
  492TIP3    H1 1419   6.883   6.085   0.773  1.8800  0.0952  2.3905
  492TIP3    H2 1420   6.848   6.232   0.785  1.3644  0.1735  0.3150
  493TIP3   OH2 1421   1.592   6.428   0.600  0.0744 -0.2090 -0.6668
  493TIP3    H1 1422   1.664   6.467   0.550  0.1183 -0.9789 -1.2288
  493TIP3    H2 1423   1.636   6.376   0.667  0.0256  2.2036  1.3643
  494TIP3   OH2 1424   6.311   6.214   4.669  0.2055  0.3824 -0.0676
  494TIP3    H1 1425   6.310   6.210   4.574  0.3587 -0.6489 -0.0350
  494TIP3    H2 1426   6.223   6.187   4.696  0.7048 -1.1653  0.1174
  495TIP3   OH2 1427   7.643   2.602   5.874  0.0769 -0.4267  0.3867
  495TIP3    H1 1428   7.721   2.614   5.928 -0.3187 -1.2590  1.1580
  495TIP3    H2 1429   7.581   2.668   5.906 -0.1281 -0.8649  0.9071
  496TIP3   OH2 1430   2.654   2.197   2.861 -0.1456  0.5780 -0.2435
  496TIP3    H1 1431   2.701   2.238   2.934 -0.4162  0.3947  0.0367
  496TIP3    H2 1432   2.711   2.210   2.785  1.3529 -1.4479  0.4500
  497TIP3   OH2 1433   6.483   1.215   5.946  0.6623 -0.5920  0.2976
  497TIP3    H1 1434   6.568   1.182   5.976  0.5982 -1.0903 -0.0569
  497TIP3    H2 1435   6.421   1.146   5.970  0.0845  0.4467  2.0089
  498TIP3   OH2 1436   3.788   2.155   2.811 -0.2887  0.3067 -0.2257
  498TIP3    H1 1437   3.803   2.204   2.892  1.2549 -0.3228 -0.1035
  498TIP3    H2 1438   3.802   2.218   2.741 -0.1183  0.4837 -0.0332
  499TIP3   OH2 1439   0.851   2.894   1.187  0.1124 -0.0877  0.4498
  499TIP3    H1 1440   0.936   2.866   1.152  0.0322  1.1585 -0.8125
  499TIP3    H2 1441   0.806   2.933   1.112 -0.5928  1.4947  1.6432
  500TIP3   OH2 1442   7.792   6.666   1.236  0.1276  0.3206  0.4252
  500TIP3    H1 1443   7.706   6.700   1.260  0.0588  0.2559  0.2699
  500TIP3    H2 1444   7.804   6.694   1.145 -0.0592 -0.3332  0.1992
  501TIP3   OH2 1445   2.629   7.558  -0.009  0.1260  0.0137 -0.1900
  501TIP3    H1 1446   2.550   7.612  -0.001  0.5692  0.4497  1.5448
  501TIP3    H2 1447   2.645   7.524   0.079  2.2933  0.5193 -0.3297
  502TIP3   OH2 1448   6.388   7.701   0.328  0.0124 -0.0621 -0.3103
  502TIP3    H1 1449   6.426   7.641   0.392  1.7206 -0.0422 -1.2591
  502TIP3    H2 1450   6.412   7.788   0.360  0.7776 -0.0490 -0.8985
  503TIP3   OH2 1451   2.486   4.715   1.052 -0.3844  0.5098 -0.0090
  503TIP3    H1 1452   2.448   4.649   1.110  1.6585 -1.3995 -0.6853
  503TIP3    H2 1453   2.562   4.748   1.100 -0.2288  0.8897 -0.5094
  504TIP3   OH2 1454   2.919   4.014   6.364 -0.1425  0.2431  0.2119
  504TIP3    H1 1455   2.988   3.970   6.314 -0.9991  0.0314 -0.8354
  504TIP3    H2 1456   2.878   4.074   6.301  0.9692  2.5892  1.5792
  505TIP3   OH2 1457   2.377   4.104   0.057  0.1925  0.4171 -0.0763
  505TIP3    H1 1458   2.373   4.195   0.027 -0.9400  0.1967 -0.6769
  505TIP3    H2 1459   2.470   4.081   0.054  0.4739  1.4997 -0.0627
  506TIP3   OH2 1460   7.825   4.484   2.957 -0.1427  0.6732 -0.5253
  506TIP3    H1 1461   7.907   4.491   3.006 -1.0893 -2.7108  1.9403
  506TIP3    H2 1462   7.757   4.509   3.021 -1.2036 -0.0750 -1.3181
  507TIP3   OH2 1463   2.841   7.385   2.283 -0.5238  0.4241  0.5392
  507TIP3    H1 1464   2.863   7.294   2.303  0.6554 -0.0336 -2.2969
  507TIP3    H2 1465   2.863   7.434   2.362  1.6008 -1.3902  1.1607
  508TIP3   OH2 1466   0.670   1.699   5.462  0.3236  0.0953  0.1243
  508TIP3    H1 1467   0.712   1.615   5.479  0.7746  0.2507 -0.1922
  508TIP3    H2 1468   0.736   1.764   5.486 -0.2716  0.3803  1.0250
  509TIP3   OH2 1469   4.400   3.220   5.549  0.0066 -0.0110 -0.1720
  509TIP3    H1 1470   4.321   3.217   5.495 -0.2423 -1.2366  0.2328
  509TIP3    H2 1471   4.438   3.133   5.541  0.5542  0.1281  0.7675
  510TIP3   OH2 1472   1.391   1.939   5.838  0.4210  0.0383 -0.5305
  510TIP3    H1 1473   1.475   1.977   5.814  0.0361  0.2940 -1.5266
  510TIP3    H2 1474   1.326   2.001   5.803 -0.1955 -0.7014 -0.7248
  511TIP3   OH2 1475   6.350   7.007   3.735 -0.2305  0.6680  0.3444
  511TIP3    H1 1476   6.334   6.985   3.827 -4.3164  1.7945  0.0729
  511TIP3    H2 1477   6.290   7.078   3.716  0.0774  0.1444 -3.3679
  512TIP3   OH2 1478   5.784   6.423   6.553 -0.7955  0.0026 -0.2493
  512TIP3    H1 1479   5.708   6.383   6.597 -0.3945 -2.0417 -1.2741
  512TIP3    H2 1480   5.788   6.378   6.468  0.7219  1.1045 -0.7963
  513TIP3   OH2 1481   0.014   5.684   6.574 -0.3544 -0.1838  0.6464
  513TIP3    H1 1482   0.024   5.762   6.630  0.1602 -0.1651  0.5366
  513TIP3    H2 1483  -0.030   5.717   6.496  0.2584  0.0972  0.4083
  514TIP3   OH2 1484   0.562   1.892   5.313 -0.3730 -0.2767 -0.2947
  514TIP3    H1 1485   0.593   1.825   5.374 -0.2607  0.3528  0.3475
  514TIP3    H2 1486   0.604   1.870   5.230  1.3557  0.2292  0.4183
  515TIP3   OH2 1487   6.740   1.787   2.379  0.3069 -0.2000  0.5343
  515TIP3    H1 1488   6.729   1.733   2.457 -1.7509 -0.7960 -0.0894
  515TIP3    H2 1489   6.662   1.843   2.379  0.5885  0.2043 -0.7528
  516TIP3   OH2 1490   7.259   1.318   3.515  0.1709  0.3666  0.0246
  516TIP3    H1 1491   7.217   1.250   3.568 -1.6776  0.4697 -1.1756
  516TIP3    H2 1492   7.353   1.304   3.526 -0.1669 -0.4793  2.1537
  517TIP3   OH2 1493   5.053   4.327   0.564  0.0180  0.2156 -0.5460
  517TIP3    H1 1494   5.090   4.290   0.484  1.9486 -1.1254  0.8850
  517TIP3    H2 1495   5.099   4.283   0.635  0.0533  2.9897  1.3266
  518TIP3   OH2 1496   3.544   1.943   3.859 -0.2461  0.2337 -0.1057
  518TIP3    H1 1497   3.567   1.861   3.903  1.0034  0.7324  0.2041
  518TIP3    H2 1498   3.561   1.927   3.767 -0.6739 -0.0716 -0.1354
  519TIP3   OH2 1499   4.919   2.231   1.568 -0.1192 -0.1501  0.3919
  519TIP3    H1 1500   5.005   2.272   1.584  0.4092 -1.5112  1.2560
  519TIP3    H2 1501   4.860   2.275   1.630 -0.0888  0.8542 -0.2638
  520TIP3   OH2 1502   2.409   3.419   1.120  0.6440 -0.3217  0.4501
  520TIP3    H1 1503   2.329   3.451   1.078  0.9911  0.5007  0.3827
  520TIP3    H2 1504   2.379   3.354   1.184  0.0705 -1.2784 -0.7565
  521TIP3   OH2 1505   0.703   6.060   6.189  0.2549 -0.0825  0.6409
  521TIP3    H1 1506   0.769   6.120   6.223 -0.7367 -0.2071  2.9454
  521TIP3    H2 1507   0.730   5.974   6.221 -0.5629 -0.2468  0.9124
  522TIP3   OH2 1508   7.378   5.714   4.197 -0.4823 -0.3993 -0.0894
  522TIP3    H1 1509   7.288   5.744   4.197 -0.1169  0.7299  0.7566
  522TIP3    H2 1510   7.384   5.654   4.271 -0.5902 -0.6466 -0.2800
  523TIP3   OH2 1511   2.535   7.027   1.423  0.4973  0.3577  0.0840
  523TIP3    H1 1512   2.510   6.969   1.352 -1.5232  0.5124  0.6066
  523TIP3    H2 1513   2.509   7.114   1.393  1.3809  0.6891  0.2496
  524TIP3   OH2 1514   6.626   7.699   5.780 -0.3489 -0.8983 -0.2526
  524TIP3    H1 1515   6.657   7.718   5.692 -1.5817  1.8743 -0.1831
  524TIP3    H2 1516   6.648   7.607   5.794  4.5624 -0.1556 -1.4543
  525TIP3   OH2 1517   1.250   7.454   4.628 -0.7503  0.1604 -0.4890
  525TIP3    H1 1518   1.297   7.373   4.646 -0.0860  0.5868 -0.2837
  525TIP3    H2 1519   1.167   7.445   4.676 -0.9670 -0.6643 -0.9983
  526TIP3   OH2 1520   3.679   6.552   5.147 -0.3124  0.2102  0.0826
  526TIP3    H1 1521   3.687   6.647   5.151 -1.4126  0.3045  0.4476
  526TIP3    H2 1522   3.657   6.534   5.055  0.2131  0.2739 -0.0586
  527TIP3   OH2 1523   4.534   4.016   2.375 -0.0013  0.3123 -0.1308
  527TIP3    H1 1524   4.552   4.091   2.318 -1.1583  0.2434 -0.6150
  527TIP3    H2 1525   4.612   4.008   2.429  1.6203 -0.2540 -2.4133
  528TIP3   OH2 1526   5.051   3.249   2.720 -0.1186 -0.3148  0.2031
  528TIP3    H1 1527   5.082   3.212   2.638  0.8613 -0.9731  0.8454
  528TIP3    H2 1528   5.119   3.228   2.783  0.1044  1.8885  0.7929
  529TIP3   OH2 1529   1.924   5.820   4.234  0.1168  0.2220  0.5698
  529TIP3    H1 1530   1.884   5.775   4.309  0.3219 -0.6172  0.1815
  529TIP3    H2 1531   1.892   5.773   4.157 -0.5729  1.4473  0.0725
  530TIP3   OH2 1532   3.223   1.676   3.869 -0.1602 -0.6843 -0.8096
  530TIP3    H1 1533   3.210   1.685   3.775  1.2519 -0.9233 -1.0556
  530TIP3    H2 1534   3.203   1.584   3.888 -2.1927 -0.2229 -0.5348
  531TIP3   OH2 1535   4.369   2.495   0.640 -0.3579 -0.1856 -0.2593
  531TIP3    H1 1536   4.392   2.483   0.732 -1.0436  0.4904  0.0127
  531TIP3    H2 1537   4.348   2.407   0.609 -2.0078 -0.2024  0.7646
  532TIP3   OH2 1538   3.293   0.914   6.371  0.1089 -0.1049 -0.0019
  532TIP3    H1 1539   3.327   0.913   6.460 -0.1510 -0.6141  0.0951
  532TIP3    H2 1540   3.372   0.914   6.316  0.2687  0.1033  0.2217
  533TIP3   OH2 1541   6.918   7.141   3.284 -0.2308  0.7878 -0.2094
  533TIP3    H1 1542   6.844   7.194   3.254 -0.7027 -0.5981 -1.6756
  533TIP3    H2 1543   6.994   7.176   3.236 -0.5139  0.2799 -1.0571
  534TIP3   OH2 1544   6.989   2.784   5.178 -0.4146 -0.1793  0.2511
  534TIP3    H1 1545   6.896   2.767   5.193 -0.6029 -0.9688 -1.5756
  534TIP3    H2 1546   7.000   2.772   5.084  0.9573  2.7714 -0.0580
  535TIP3   OH2 1547   6.798   0.125   1.632  0.2386 -0.0947  0.2123
  535TIP3    H1 1548   6.845   0.172   1.701  0.8984  0.0883 -0.3509
  535TIP3    H2 1549   6.759   0.194   1.578  1.0698 -0.1800 -0.5203
  536TIP3   OH2 1550   2.673   0.665   5.222  0.3169  1.0972 -0.4885
  536TIP3    H1 1551   2.743   0.725   5.249  0.4736  0.4823  0.5516
  536TIP3    H2 1552   2.663   0.606   5.297  0.6385 -0.5987 -1.7296
  537TIP3   OH2 1553   3.443   4.919   1.252  0.0992  0.4257 -0.1910
  537TIP3    H1 1554   3.436   4.826   1.273  0.7883  0.5882  0.8953
  537TIP3    H2 1555   3.429   4.925   1.158 -0.2343 -0.7402 -0.2236
  538TIP3   OH2 1556   0.616   7.567   4.784 -0.4672 -0.3075  0.5192
  538TIP3    H1 1557   0.553   7.566   4.712  0.2256 -3.4043 -0.2111
  538TIP3    H2 1558   0.571   7.523   4.856  0.2036 -0.8668  0.6087
  539TIP3   OH2 1559   1.767   7.515   2.595  1.0178 -0.1368  0.4609
  539TIP3    H1 1560   1.762   7.535   2.502 -1.8623 -3.0797 -0.2219
  539TIP3    H2 1561   1.848   7.465   2.605  0.7257 -0.8943 -0.7627
  540TIP3   OH2 1562   3.073   3.608   5.108 -0.5853 -0.1472  0.3932
  540TIP3    H1 1563   3.071   3.684   5.049  0.3665 -0.5006 -0.1060
  540TIP3    H2 1564   3.025   3.638   5.186 -1.4113  0.4988 -0.3329
  541TIP3   OH2 1565   5.795   0.179   0.924  0.5380  0.3392 -0.3319
  541TIP3    H1 1566   5.868   0.118   0.919  0.1746 -0.2346  1.0242
  541TIP3    H2 1567   5.836   0.265   0.918  1.0550  0.0181 -2.2380
  542TIP3   OH2 1568   5.675   4.528   5.607 -0.4167  0.2154  0.3071
  542TIP3    H1 1569   5.594   4.576   5.630 -1.0039 -0.4353 -0.3562
  542TIP3    H2 1570   5.647   4.437   5.602  0.9903 -0.4782  3.0632
  543TIP3   OH2 1571   5.189   3.691   2.505  0.2522 -0.0785 -0.0663
  543TIP3    H1 1572   5.151   3.661   2.423  1.2573  0.8800 -0.9174
  543TIP3    H2 1573   5.129   3.759   2.536  1.4150  1.7804 -1.6572
  544TIP3   OH2 1574   6.367   3.874   6.382  0.1206  0.3921  0.0110
  544TIP3    H1 1575   6.330   3.919   6.459  1.7506 -0.6493  1.4888
  544TIP3    H2 1576   6.436   3.818   6.418  1.0140 -0.0758 -2.2474
  545TIP3   OH2 1577   3.731   4.026   1.469 -0.2246  0.3779 -0.6145
  545TIP3    H1 1578   3.768   4.065   1.390 -0.6556 -0.4970 -1.2610
  545TIP3    H2 1579   3.647   3.989   1.441 -0.3786  0.0489  0.2493
  546TIP3   OH2 1580   2.533   1.392   2.472  0.2759  0.1065 -0.3833
  546TIP3    H1 1581   2.512   1.408   2.380 -1.8719  0.6907  0.1400
  546TIP3    H2 1582   2.555   1.479   2.507 -0.0598  0.0885 -0.1126
  547TIP3   OH2 1583   6.948   7.137   1.409 -0.1261  0.1900  0.5943
  547TIP3    H1 1584   6.899   7.206   1.454 -1.2774 -0.3509  0.2125
  547TIP3    H2 1585   6.919   7.143   1.318  0.2731 -0.3558  0.4266
  548TIP3   OH2 1586   7.018   1.507   0.688 -0.0976 -0.3839  0.8205
  548TIP3    H1 1587   7.078   1.541   0.755  0.4509 -2.6553  1.5647
  548TIP3    H2 1588   7.074   1.485   0.614 -0.6540  1.7144 -0.3275
  549TIP3   OH2 1589   0.547   4.827   4.044 -0.0997 -0.4798  0.1880
  549TIP3    H1 1590   0.469   4.786   4.007 -1.2898  0.0079  2.0564
  549TIP3    H2 1591   0.567   4.899   3.984 -2.6882  1.0534  1.0351
  550TIP3   OH2 1592   0.999   1.519   6.338 -0.1767  0.3014  0.5967
  550TIP3    H1 1593   0.985   1.564   6.255 -0.7692  0.1157  0.5919
  550TIP3    H2 1594   1.045   1.438   6.315 -1.7853 -0.5476  0.2389
  551TIP3   OH2 1595   0.194   4.446   3.097 -0.2009  0.1501  0.2114
  551TIP3    H1 1596   0.109   4.406   3.078 -0.0895 -0.5639  1.1401
  551TIP3    H2 1597   0.184   4.538   3.072 -0.8085 -0.2223 -0.9535
  552TIP3   OH2 1598   3.006   6.495   5.279  0.1583 -0.4463  0.2342
  552TIP3    H1 1599   2.976   6.586   5.276  0.9838 -0.1809 -0.3654
  552TIP3    H2 1600   3.007   6.473   5.372  3.0924  1.2538  0.7280
  553TIP3   OH2 1601   5.234   5.874   1.744 -0.1683 -0.0854  0.3012
  553TIP3    H1 1602   5.181   5.945   1.709 -1.7747 -1.1480  0.4560
  553TIP3    H2 1603   5.317   5.881   1.699 -0.9978  0.6829 -1.1698
  554TIP3   OH2 1604   5.857   7.211   5.240  0.0009 -1.1093  0.3531
  554TIP3    H1 1605   5.929   7.150   5.253 -0.3889 -1.2899  1.8182
  554TIP3    H2 1606   5.884   7.290   5.288 -0.2906 -0.7787 -0.0189
  555TIP3   OH2 1607   5.060   7.423   3.193  0.4861 -0.1960  0.3054
  555TIP3    H1 1608   4.989   7.370   3.157  1.5854 -0.2681 -1.9502
  555TIP3    H2 1609   5.084   7.482   3.122  2.4314  0.0619  1.1218
  556TIP3   OH2 1610   4.994   2.986   0.314 -0.4015  0.1851  0.6514
  556TIP3    H1 1611   4.915   3.016   0.269  0.0026 -0.6672 -0.6833
  556TIP3    H2 1612   5.010   2.898   0.280  0.8446  0.1445  1.2628
  557TIP3   OH2 1613   2.405   1.714   0.470 -0.1045 -0.5950  0.5314
  557TIP3    H1 1614   2.418   1.653   0.543 -2.5576 -2.3913 -0.3915
  557TIP3    H2 1615   2.340   1.776   0.503  2.5671  1.8659  1.5557
  558TIP3   OH2 1616   4.714   1.362   3.115 -0.5306  0.5839  0.0972
  558TIP3    H1 1617   4.691   1.404   3.199 -0.5225 -0.8614  0.8458
  558TIP3    H2 1618   4.786   1.415   3.081 -2.1080  2.6608 -0.2278
  559TIP3   OH2 1619   6.406   1.851   4.924  0.3180 -0.5918  0.4340
  559TIP3    H1 1620   6.433   1.938   4.953 -0.2629 -0.5935  1.0094
  559TIP3    H2 1621   6.433   1.846   4.832 -0.8752  0.7207 -0.0049
  560TIP3   OH2 1622   1.983   7.429   4.112  0.2934 -0.0709 -1.0324
  560TIP3    H1 1623   2.053   7.442   4.048  1.3556  0.5308  0.2035
  560TIP3    H2 1624   1.904   7.461   4.068  0.7869 -0.7124 -2.4391
  561TIP3   OH2 1625   1.824   1.710   2.738  0.4298  0.5114  0.0215
  561TIP3    H1 1626   1.748   1.723   2.794 -0.3786  0.1457 -0.9552
  561TIP3    H2 1627   1.823   1.786   2.679 -0.8597 -0.8831 -1.8421
  562TIP3   OH2 1628   4.889   6.830   2.350  0.2744  0.1435  0.5423
  562TIP3    H1 1629   4.852   6.779   2.423  2.1167 -0.2454  1.2833
  562TIP3    H2 1630   4.951   6.769   2.308 -0.8870  0.2975 -1.5151
  563TIP3   OH2 1631   5.982   2.395   5.048 -0.0830 -0.0532 -0.2376
  563TIP3    H1 1632   5.956   2.486   5.032 -2.6344 -0.5200  0.7635
  563TIP3    H2 1633   6.023   2.397   5.134 -0.1465  0.1491 -0.2103
  564TIP3   OH2 1634   6.631   4.562   4.648 -0.3804 -0.0733 -0.6826
  564TIP3    H1 1635   6.717   4.523   4.666  0.3311  0.8075 -2.0965
  564TIP3    H2 1636   6.615   4.619   4.723 -0.4216 -1.3347  0.3102
  565TIP3   OH2 1637   6.033   5.536   2.017 -0.0019  0.1337  0.2138
  565TIP3    H1 1638   6.066   5.446   2.016 -0.6628 -0.1319 -1.1786
  565TIP3    H2 1639   5.938   5.526   2.018 -0.0815  0.8463  1.3732
  566TIP3   OH2 1640   2.908   1.221   6.045  0.3245  0.2278 -0.2883
  566TIP3    H1 1641   2.980   1.164   6.070  0.8470  0.7179 -0.6408
  566TIP3    H2 1642   2.941   1.310   6.062 -0.9075  0.4111  1.4288
  567TIP3   OH2 1643   7.925   2.280   5.898  0.4064 -0.2175 -0.0172
  567TIP3    H1 1644   7.906   2.194   5.937  0.7593  0.2635  1.2949
  567TIP3    H2 1645   7.918   2.267   5.804 -1.2369 -1.2904  0.2162
  568TIP3   OH2 1646   2.847   6.021   0.965  0.3780  0.0331  0.1006
  568TIP3    H1 1647   2.773   6.076   0.940  0.8909  0.3550 -0.7691
  568TIP3    H2 1648   2.871   6.051   1.052  0.6719  1.2267 -0.3678
  569TIP3   OH2 1649   4.263   0.232   3.686  0.0835  0.0735  0.4340
  569TIP3    H1 1650   4.190   0.218   3.746  0.1083 -0.0854  0.4260
  569TIP3    H2 1651   4.301   0.316   3.714 -0.7877  0.7231 -0.2525
  570TIP3   OH2 1652   5.410   5.632   4.176  0.2575  0.2104  0.1539
  570TIP3    H1 1653   5.413   5.726   4.156  0.9169 -0.0177 -0.8535
  570TIP3    H2 1654   5.499   5.601   4.158  0.0864 -0.5870  0.6389
  571TIP3   OH2 1655   0.515   3.395   0.954 -0.1456 -0.0847 -0.7751
  571TIP3    H1 1656   0.567   3.473   0.934 -0.3445 -0.3021 -2.3310
  571TIP3    H2 1657   0.577   3.323   0.953 -0.5842 -0.5955 -4.3919
  572TIP3   OH2 1658   6.796   2.334   3.004 -0.2592  0.1458  0.2606
  572TIP3    H1 1659   6.716   2.303   3.046 -0.9970  1.5735 -0.0372
  572TIP3    H2 1660   6.866   2.307   3.063 -1.1018  0.2389  1.3314
  573TIP3   OH2 1661   4.259   0.546   5.564  0.2648  0.1888  0.1713
  573TIP3    H1 1662   4.342   0.588   5.545  0.5783  0.7967  2.5732
  573TIP3    H2 1663   4.217   0.603   5.629 -0.6211 -1.6557  1.3174
  574TIP3   OH2 1664   0.004   4.041   5.002 -0.4570 -0.3155 -0.2518
  574TIP3    H1 1665  -0.012   3.966   5.060  0.6780 -1.3035 -1.1436
  574TIP3    H2 1666   0.012   4.002   4.915  0.9941  0.7322 -0.6305
  575TIP3   OH2 1667   5.103   1.131   5.933 -0.4922 -0.1367  1.0564
  575TIP3    H1 1668   5.087   1.114   6.025  0.0736 -0.2298  1.1434
  575TIP3    H2 1669   5.018   1.159   5.898 -0.9779 -1.2149  1.3460
  576TIP3   OH2 1670   6.938   0.563   1.484 -0.6961 -0.3224  0.0733
  576TIP3    H1 1671   7.018   0.511   1.496 -1.2688 -1.1480  0.4160
  576TIP3    H2 1672   6.894   0.559   1.569 -0.4500  1.2807  0.3092
  577TIP3   OH2 1673   2.594   0.045   2.249 -0.2463 -0.3416 -0.2936
  577TIP3    H1 1674   2.538   0.119   2.223 -0.3675 -0.0921  0.6378
  577TIP3    H2 1675   2.532  -0.024   2.273 -0.1351 -0.9376 -1.6317
  578TIP3   OH2 1676   6.778   4.310   3.547 -0.2209 -0.2989  1.0669
  578TIP3    H1 1677   6.842   4.241   3.565  1.0424  0.6900  0.5176
  578TIP3    H2 1678   6.741   4.287   3.462 -0.3242 -0.6946  1.2209
  579TIP3   OH2 1679   0.480   7.249   2.015  0.3570  0.6619  0.0183
  579TIP3    H1 1680   0.537   7.237   1.939  0.8523  0.0204  0.4856
  579TIP3    H2 1681   0.454   7.341   2.011  2.1527  1.2162  0.2943
  580TIP3   OH2 1682   5.181   3.989   0.332 -0.2532  0.2669  0.1219
  580TIP3    H1 1683   5.246   3.998   0.402  0.2729 -0.2024 -0.2897
  580TIP3    H2 1684   5.097   3.982   0.377 -0.1414  1.8301  0.6321
  581TIP3   OH2 1685   3.034   2.309   5.081 -0.1101 -0.4137 -0.0903
  581TIP3    H1 1686   3.008   2.387   5.131 -2.7335 -1.6435  0.6405
  581TIP3    H2 1687   3.054   2.244   5.148  0.6677 -0.8050 -0.6950
  582TIP3   OH2 1688   0.635   3.323   3.880  0.4448  0.1645 -0.2773
  582TIP3    H1 1689   0.682   3.402   3.854  0.2838  0.4201  0.1951
  582TIP3    H2 1690   0.548   3.333   3.842  0.9398 -0.6298 -1.7472
  583TIP3   OH2 1691   5.250   2.780   4.762 -0.5747 -0.1400 -0.4565
  583TIP3    H1 1692   5.254   2.827   4.846 -2.2532 -1.0596  0.1884
  583TIP3    H2 1693   5.204   2.840   4.703  0.3653  0.3977 -0.6583
  584TIP3   OH2 1694   3.015   3.644   3.885  0.0389  0.1804 -0.1222
  584TIP3    H1 1695   3.011   3.736   3.860 -2.4718  0.4182  0.8785
  584TIP3    H2 1696   2.972   3.598   3.812 -0.6061  0.0641  0.3201
  585TIP3   OH2 1697   1.337   4.573   1.885 -0.0238 -0.1392  0.1431
  585TIP3    H1 1698   1.415   4.614   1.846  0.5927 -1.4956 -0.1432
  585TIP3    H2 1699   1.270   4.581   1.817  0.2234 -0.0287 -0.0922
  586TIP3   OH2 1700   5.621   3.158   0.763  0.4739  0.4146 -0.3258
  586TIP3    H1 1701   5.571   3.157   0.844  0.4586  1.3074 -0.3165
  586TIP3    H2 1702   5.684   3.086   0.773  1.0661  1.0658  0.8661
  587TIP3   OH2 1703   1.865   1.327   4.838 -0.1220 -0.2174  0.0606
  587TIP3    H1 1704   1.949   1.328   4.883 -0.2483 -0.9749  0.3337
  587TIP3    H2 1705   1.885   1.353   4.748  0.9729 -3.4460 -0.7736
  588TIP3   OH2 1706   8.192   3.559   6.056  0.1648 -0.0506 -0.4349
  588TIP3    H1 1707   8.223   3.647   6.079  0.6654 -0.4483  0.4522
  588TIP3    H2 1708   8.264   3.522   6.004  0.4292 -0.3268  0.1193
  589TIP3   OH2 1709   1.030   0.611   3.392 -0.1791 -0.5184  0.0154
  589TIP3    H1 1710   0.977   0.689   3.382  0.4663  0.0845  1.1245
  589TIP3    H2 1711   1.068   0.596   3.305 -0.1595  0.5095 -0.1633
  590TIP3   OH2 1712   5.372   1.107   6.158  0.2405  0.1136 -0.9043
  590TIP3    H1 1713   5.386   1.028   6.209  2.7693 -0.0904 -1.7898
  590TIP3    H2 1714   5.281   1.100   6.128 -0.1662 -1.4997  0.5725
  591TIP3   OH2 1715   2.115   4.500   2.969 -0.5014  0.1613  0.3328
  591TIP3    H1 1716   2.205   4.518   2.940 -0.5287 -0.0087  0.1479
  591TIP3    H2 1717   2.061   4.557   2.915 -0.4486  0.8338  0.9682
  592TIP3   OH2 1718   6.667   2.670   3.678 -0.2095  0.1189 -0.3056
  592TIP3    H1 1719   6.665   2.728   3.601 -0.5140  0.4522 -0.0487
  592TIP3    H2 1720   6.586   2.620   3.672 -2.0425  2.6024  1.6601
  593TIP3   OH2 1721   2.723   6.415   3.515 -0.1209 -0.1282  0.2480
  593TIP3    H1 1722   2.815   6.434   3.497 -0.2742 -0.5192 -1.0246
  593TIP3    H2 1723   2.677   6.495   3.491 -0.0617  0.2988  1.5053
  594TIP3   OH2 1724   2.328   3.346   6.357 -0.3232 -0.3733 -0.3879
  594TIP3    H1 1725   2.283   3.428   6.377 -1.8204 -1.3198  0.3249
  594TIP3    H2 1726   2.257   3.285   6.333  0.8481 -1.1335 -2.1337
  595TIP3   OH2 1727   7.979   0.651   0.570 -0.0164  0.0420 -0.4070
  595TIP3    H1 1728   8.044   0.716   0.597 -0.3624  0.3746 -0.3597
  595TIP3    H2 1729   7.984   0.652   0.474 -0.2666  0.4001 -0.4203
  596TIP3   OH2 1730   6.016   1.096   6.320 -0.1569 -0.0496  0.3102
  596TIP3    H1 1731   6.100   1.065   6.352  0.3457  0.4689 -0.4834
  596TIP3    H2 1732   6.034   1.128   6.232 -1.0900  0.4978  0.3068
  597TIP3   OH2 1733   7.671   0.206   3.097  0.1562  0.3044 -0.1823
  597TIP3    H1 1734   7.596   0.265   3.087  1.4851  2.0507 -0.4125
  597TIP3    H2 1735   7.675   0.158   3.014 -1.7620 -1.1625  0.5258
  598TIP3   OH2 1736   7.301   7.147   5.927 -0.7792 -0.4255  0.0955
  598TIP3    H1 1737   7.309   7.133   5.832  1.9931 -2.0739  0.4737
  598TIP3    H2 1738   7.258   7.232   5.934  2.1064  1.5160 -2.7475
  599TIP3   OH2 1739   4.968   1.108   6.728  0.3552 -0.2769  0.4251
  599TIP3    H1 1740   4.944   1.048   6.799  0.2968  0.0041  0.6449
  599TIP3    H2 1741   5.031   1.059   6.675 -0.0320 -0.6977  0.3470
  600TIP3   OH2 1742   4.852   5.394   0.916 -0.1737 -0.2086  0.4276
  600TIP3    H1 1743   4.907   5.392   0.837  0.9832  0.9480  1.1661
  600TIP3    H2 1744   4.886   5.324   0.971  0.6870  0.6045  0.9485
  601TIP3   OH2 1745   3.243   2.597   2.575  0.0184  0.0585  0.4059
  601TIP3    H1 1746   3.314   2.564   2.521  0.7591  1.6297  0.3562
  601TIP3    H2 1747   3.257   2.692   2.577 -2.0813  0.4260  0.3774
  602TIP3   OH2 1748   4.794   2.086   6.421 -0.0407  0.1896  0.2688
  602TIP3    H1 1749   4.774   2.052   6.508 -0.4512  1.3071  0.6200
  602TIP3    H2 1750   4.714   2.070   6.371 -0.0051  0.0605  0.2523
  603TIP3   OH2 1751   8.024   7.345   5.341  0.1695  0.0705 -0.0297
  603TIP3    H1 1752   7.972   7.409   5.292  1.5360  1.4790  0.2536
  603TIP3    H2 1753   8.016   7.264   5.292 -2.0233  0.3014 -0.1471
  604TIP3   OH2 1754   6.416   5.985   3.109 -0.0505 -0.1458  0.0276
  604TIP3    H1 1755   6.448   6.057   3.164  0.3813 -0.0046 -0.3903
  604TIP3    H2 1756   6.340   6.022   3.064  0.2465  0.0993 -0.2826
  605TIP3   OH2 1757   1.627   6.681   1.992 -0.3247 -0.1450 -0.5743
  605TIP3    H1 1758   1.589   6.607   2.038  2.2143 -0.8655  0.5205
  605TIP3    H2 1759   1.629   6.654   1.900 -2.1140 -0.1622 -0.6517
  606TIP3   OH2 1760   2.421   4.240   4.149 -0.3049 -0.1207  0.4161
  606TIP3    H1 1761   2.448   4.299   4.220  2.0512  0.4472 -0.8340
  606TIP3    H2 1762   2.434   4.292   4.069  0.1528 -1.7632 -0.6187
  607TIP3   OH2 1763   2.080   0.536   3.624  0.0366 -0.1566 -0.3581
  607TIP3    H1 1764   2.054   0.553   3.714 -0.0822 -0.3136 -0.3624
  607TIP3    H2 1765   1.998   0.517   3.578  0.1835 -1.0267 -0.2916
  608TIP3   OH2 1766   1.801   0.851   5.469  0.4053  0.3504 -0.2298
  608TIP3    H1 1767   1.831   0.808   5.549 -0.5254  1.3120  0.6574
  608TIP3    H2 1768   1.866   0.919   5.452  1.0827 -0.4091 -0.8211
  609TIP3   OH2 1769   6.151   4.609   4.269 -0.3351 -0.0499  0.6319
  609TIP3    H1 1770   6.174   4.624   4.361  0.6193  0.4774  0.3147
  609TIP3    H2 1771   6.142   4.697   4.232 -0.3431 -0.2643  0.1255
  610TIP3   OH2 1772   5.508   1.035   5.172 -0.1039 -0.0624 -0.5321
  610TIP3    H1 1773   5.540   1.125   5.182 -0.1375 -0.2706  2.0176
  610TIP3    H2 1774   5.451   1.039   5.096  0.5219  1.8886 -0.9671
  611TIP3   OH2 1775   2.726   0.948   5.561 -0.2423 -0.5699  0.1090
  611TIP3    H1 1776   2.717   1.035   5.523  1.1358 -0.3761  0.1802
  611TIP3    H2 1777   2.687   0.889   5.496 -0.8836  0.0595 -0.0899
  612TIP3   OH2 1778   1.948   7.077   4.631  0.1674 -0.4393  0.4117
  612TIP3    H1 1779   1.964   7.110   4.719  0.7704 -2.1220  0.9868
  612TIP3    H2 1780   2.012   7.122   4.576 -1.3419  1.9258  0.4512
  613TIP3   OH2 1781   0.787   4.225   5.586  0.7452 -0.0512  0.1381
  613TIP3    H1 1782   0.814   4.317   5.594  0.7310 -0.1724  1.8166
  613TIP3    H2 1783   0.735   4.223   5.506 -0.2193  1.6549  0.6625
  614TIP3   OH2 1784   4.622   0.054   2.516  0.1660  0.0693  0.2906
  614TIP3    H1 1785   4.530   0.062   2.539 -0.0311 -0.9623 -0.0987
  614TIP3    H2 1786   4.667   0.047   2.600 -0.1374  0.3241  0.4751
  615TIP3   OH2 1787   1.322   0.205   6.378 -0.2984 -0.2330 -0.3067
  615TIP3    H1 1788   1.282   0.119   6.364 -0.8218 -0.1204  0.4699
  615TIP3    H2 1789   1.280   0.239   6.457  0.4706  0.4043 -0.1591
  616TIP3   OH2 1790   5.755   2.965   2.672 -0.2073  0.3910 -0.2782
  616TIP3    H1 1791   5.799   2.961   2.588 -0.2050 -1.6840 -0.2295
  616TIP3    H2 1792   5.685   2.900   2.666 -1.7370  1.8605  0.5174
  617TIP3   OH2 1793   0.436   0.079   4.306 -0.4813  0.2866 -0.5289
  617TIP3    H1 1794   0.470   0.140   4.372  0.6722  0.6595 -1.4270
  617TIP3    H2 1795   0.510   0.022   4.286 -1.5324 -1.4339  0.2652
  618TIP3   OH2 1796   6.563   5.414   5.701 -0.4965  0.5622  0.6715
  618TIP3    H1 1797   6.511   5.363   5.763  0.3041 -0.3264  0.6255
  618TIP3    H2 1798   6.614   5.349   5.653 -0.1036  1.3470  0.0066
  619TIP3   OH2 1799   3.572   5.413   5.717  0.2066 -0.2677  0.3766
  619TIP3    H1 1800   3.604   5.420   5.807  0.0674  0.1985  0.3960
  619TIP3    H2 1801   3.537   5.324   5.711  0.1537 -0.2807  0.8049
  620TIP3   OH2 1802   6.197   7.598   1.013 -0.7039  0.2755  0.3689
  620TIP3    H1 1803   6.213   7.545   1.091 -0.0540 -0.8785 -0.5085
  620TIP3    H2 1804   6.283   7.608   0.972 -0.5535  3.2127  1.1863
  621TIP3   OH2 1805   4.462   5.164   0.602  0.0774 -0.3307  0.0094
  621TIP3    H1 1806   4.499   5.181   0.516 -1.2418  1.4683 -0.2618
  621TIP3    H2 1807   4.368   5.151   0.586  0.3214 -4.2868  0.7088
  622TIP3   OH2 1808   1.863   4.410   3.652 -0.2510  0.2658  0.0874
  622TIP3    H1 1809   1.949   4.368   3.657  0.3038  1.3898  0.3058
  622TIP3    H2 1810   1.824   4.397   3.738 -0.3941 -0.4267 -0.0779
  623TIP3   OH2 1811   1.801   4.733   3.415  0.6471  0.3601  0.2343
  623TIP3    H1 1812   1.807   4.799   3.484  1.7593  2.8094 -2.0260
  623TIP3    H2 1813   1.722   4.683   3.436 -0.7316  2.9277  1.6459
  624TIP3   OH2 1814   0.453   6.335   0.274  0.5264  0.2011  0.2868
  624TIP3    H1 1815   0.527   6.281   0.246  1.1674  1.2490 -0.0865
  624TIP3    H2 1816   0.414   6.286   0.347  1.9630 -0.0788  0.9008
  625TIP3   OH2 1817   7.648   1.941   6.610 -0.1400 -0.1876  0.0748
  625TIP3    H1 1818   7.689   1.947   6.524  0.1054  3.2774  0.2983
  625TIP3    H2 1819   7.559   1.974   6.597 -0.2884 -0.1683  1.0548
  626TIP3   OH2 1820   7.014   2.764   1.532  0.0356  0.2415  0.1723
  626TIP3    H1 1821   7.093   2.783   1.582 -0.1810 -2.4022  1.6638
  626TIP3    H2 1822   6.942   2.797   1.587 -0.1572 -2.0336  1.3813
  627TIP3   OH2 1823   0.683   3.862   6.757  0.4487  0.5580 -0.5804
  627TIP3    H1 1824   0.601   3.861   6.708  0.2692  1.0639 -0.2902
  627TIP3    H2 1825   0.746   3.819   6.699 -0.5037 -1.8966  0.0443
  628TIP3   OH2 1826   6.020   0.444   0.296  0.0928  0.4477 -0.5097
  628TIP3    H1 1827   5.972   0.526   0.307 -1.6171 -0.1591 -2.6704
  628TIP3    H2 1828   6.073   0.457   0.217  2.1385  0.4483  0.8020
  629TIP3   OH2 1829   4.926   6.603   0.139 -0.3609 -0.2583 -0.1117
  629TIP3    H1 1830   4.841   6.564   0.154  1.1840 -3.2771  1.7094
  629TIP3    H2 1831   4.975   6.538   0.089  1.6188  0.3016  0.9665
  630TIP3   OH2 1832   6.087   0.690   6.351 -0.2792 -0.0123  0.0034
  630TIP3    H1 1833   6.082   0.657   6.440  2.3954  0.2267  0.3053
  630TIP3    H2 1834   6.130   0.774   6.358  0.3332 -0.1603 -1.5430
  631TIP3   OH2 1835   1.028   7.095   3.610 -0.2608 -0.1316  0.1121
  631TIP3    H1 1836   1.083   7.153   3.663 -0.3886  0.6284 -0.5710
  631TIP3    H2 1837   0.951   7.078   3.665 -0.6111  1.0240 -0.0002
  632TIP3   OH2 1838   7.347   4.635   2.892  0.1423 -0.0463  0.6441
  632TIP3    H1 1839   7.423   4.691   2.904 -1.5061  2.5767 -0.3652
  632TIP3    H2 1840   7.354   4.605   2.801  1.1847 -1.8777  1.2695
  633TIP3   OH2 1841   6.582   1.213   0.804  0.0722 -0.4626  0.2222
  633TIP3    H1 1842   6.662   1.256   0.835  1.3821 -3.1268  0.9049
  633TIP3    H2 1843   6.524   1.212   0.880  0.6700 -1.2335  0.6849
  634TIP3   OH2 1844   0.741   3.106   3.991  0.6395 -0.3238 -0.1221
  634TIP3    H1 1845   0.834   3.130   3.992  0.5724  0.1783  2.5946
  634TIP3    H2 1846   0.697   3.183   3.956  1.1714 -0.2028 -0.5396
  635TIP3   OH2 1847   3.275   0.647   2.376  0.3975  0.2304 -0.4544
  635TIP3    H1 1848   3.335   0.688   2.439  0.1098  1.2022 -0.7873
  635TIP3    H2 1849   3.299   0.555   2.377  0.1584  0.1386  1.3678
  636TIP3   OH2 1850   1.784   2.041   5.106 -0.0557 -0.2978 -0.2812
  636TIP3    H1 1851   1.738   2.018   5.026 -1.6358 -0.0555  0.5336
  636TIP3    H2 1852   1.758   1.975   5.170 -0.3318  0.5955  0.5640
  637TIP3   OH2 1853   5.291   0.021   1.796  0.2843 -0.4946  0.4209
  637TIP3    H1 1854   5.245   0.100   1.826  2.1058  0.0491  2.0451
  637TIP3    H2 1855   5.300  -0.033   1.875 -0.2113 -1.9850 -0.5009
  638TIP3   OH2 1856   0.524   5.589   6.093  0.8700  0.4376  0.4187
  638TIP3    H1 1857   0.494   5.650   6.025 -0.3400  1.6997  2.0093
  638TIP3    H2 1858   0.446   5.538   6.115  1.0522  0.5418  1.3372
  639TIP3   OH2 1859   2.554   3.577   5.506 -0.3783  0.5791  0.1537
  639TIP3    H1 1860   2.477   3.619   5.468 -0.8321 -0.3076  0.0629
  639TIP3    H2 1861   2.568   3.623   5.588  0.6004  2.5104 -1.0255
  640TIP3   OH2 1862   3.432   0.779   2.586 -0.6330  0.0127  0.6517
  640TIP3    H1 1863   3.443   0.874   2.593  0.2616 -0.0179 -0.1706
  640TIP3    H2 1864   3.514   0.748   2.548 -1.1311 -1.0229  0.3844
  641TIP3   OH2 1865   1.609   1.384   4.961  0.6829  0.2839 -0.2676
  641TIP3    H1 1866   1.677   1.323   4.932  0.3777  0.3500 -1.1693
  641TIP3    H2 1867   1.576   1.423   4.880 -0.7874 -0.1283  0.1167
  642TIP3   OH2 1868   0.951   5.855   4.670 -0.0555 -0.1382  0.1088
  642TIP3    H1 1869   0.929   5.947   4.677 -0.1609  0.0513 -2.0195
  642TIP3    H2 1870   1.008   5.849   4.592 -0.3234 -1.8883 -0.0026
  643TIP3   OH2 1871   8.135   4.930   6.585 -0.7132  0.0259 -0.2019
  643TIP3    H1 1872   8.168   4.990   6.518 -0.5987  1.3285  0.9626
  643TIP3    H2 1873   8.191   4.948   6.662 -1.3049 -0.8991  0.4602
  644TIP3   OH2 1874   0.437   6.776   3.667  0.1880 -0.7674  0.0036
  644TIP3    H1 1875   0.376   6.846   3.647 -1.2379 -1.6224  1.1250
  644TIP3    H2 1876   0.519   6.803   3.627 -1.4104 -0.5777 -3.4872
  645TIP3   OH2 1877   5.380   6.033   2.765 -0.6429  0.1125  0.3220
  645TIP3    H1 1878   5.420   5.991   2.689 -0.8604  0.2992  0.1051
  645TIP3    H2 1879   5.288   6.045   2.741 -1.2019 -1.6415  1.3535
  646TIP3   OH2 1880   2.124   0.007   5.872  0.1159 -0.2974 -0.4798
  646TIP3    H1 1881   2.181  -0.034   5.806 -1.0195 -1.0386 -1.0201
  646TIP3    H2 1882   2.081   0.078   5.825  1.6862  1.2732  0.3213
  647TIP3   OH2 1883   4.811   2.549   0.459  0.2921  0.6664 -0.6871
  647TIP3    H1 1884   4.745   2.578   0.396  0.5876  0.0220 -1.3115
  647TIP3    H2 1885   4.877   2.505   0.406 -0.4125 -1.6714  0.2312
  648TIP3   OH2 1886   3.253   2.919   0.736  0.3331  0.3463  0.0823
  648TIP3    H1 1887   3.191   2.893   0.668  1.5582 -0.9965 -0.5861
  648TIP3    H2 1888   3.318   2.973   0.689  1.0648 -0.4069  0.2060
  649TIP3   OH2 1889   7.698   3.775   1.270 -0.2344  0.1213  0.8333
  649TIP3    H1 1890   7.763   3.841   1.245  1.2055 -2.1739 -1.9582
  649TIP3    H2 1891   7.639   3.771   1.195  0.4502 -2.5723  0.3588
  650TIP3   OH2 1892   4.930   5.638   3.061 -0.3720  0.4318 -0.3957
  650TIP3    H1 1893   4.961   5.548   3.075  0.1829  0.7268  0.2852
  650TIP3    H2 1894   4.867   5.653   3.132  1.9519  1.6948  1.5361
  651TIP3   OH2 1895   1.178   1.717   2.871 -0.1895  0.0052 -0.9285
  651TIP3    H1 1896   1.230   1.725   2.791  1.4897 -0.3516  0.0780
  651TIP3    H2 1897   1.230   1.762   2.938 -1.6163  0.4137 -0.0437
  652TIP3   OH2 1898   6.316   0.887   4.386  0.0535 -0.0208 -0.7706
  652TIP3    H1 1899   6.271   0.903   4.303  0.7776  0.4623 -1.0755
  652TIP3    H2 1900   6.395   0.839   4.361 -1.2506 -2.7389 -0.0467
  653TIP3   OH2 1901   7.347   1.299   5.820  0.3388 -0.0422  0.2008
  653TIP3    H1 1902   7.273   1.340   5.864 -0.0165 -1.5858  1.1230
  653TIP3    H2 1903   7.403   1.372   5.793 -1.8175  1.2110 -1.1596
  654TIP3   OH2 1904   5.826   0.394   4.488 -0.4420  0.3518 -0.5600
  654TIP3    H1 1905   5.876   0.433   4.416 -0.9141  0.3232 -0.9074
  654TIP3    H2 1906   5.753   0.350   4.445 -0.3259 -0.2881 -0.1171
  655TIP3   OH2 1907   7.771   6.002   6.392  0.3927 -0.6040 -0.3869
  655TIP3    H1 1908   7.680   5.983   6.370  0.4726 -0.4855 -0.8333
  655TIP3    H2 1909   7.805   5.920   6.425  0.1783 -0.7012 -0.4045
  656TIP3   OH2 1910   5.919   0.675   2.803  0.3131  0.0205  0.3540
  656TIP3    H1 1911   5.836   0.634   2.828 -0.0505  0.5273 -0.0030
  656TIP3    H2 1912   5.981   0.603   2.798 -0.0856 -0.3519  0.7209
  657TIP3   OH2 1913   3.722   0.451   2.242  0.5627  0.2838  0.2739
  657TIP3    H1 1914   3.797   0.436   2.184  1.0873  1.9672  0.4636
  657TIP3    H2 1915   3.650   0.475   2.183  0.7132  0.5832  0.2070
  658TIP3   OH2 1916   4.270   6.703   5.341 -0.0969  0.2893 -0.2473
  658TIP3    H1 1917   4.342   6.645   5.366 -1.6689 -0.9826  1.6500
  658TIP3    H2 1918   4.287   6.784   5.389  0.0022 -0.0426  0.2813
  659TIP3   OH2 1919   0.374   5.109   3.592 -0.2948  0.3159  0.2270
  659TIP3    H1 1920   0.410   5.176   3.650  2.0755 -0.0221 -0.7469
  659TIP3    H2 1921   0.338   5.157   3.518  2.9950  0.6187 -1.3525
  660TIP3   OH2 1922   7.976   7.538   6.101  0.1921  0.2399 -0.0665
  660TIP3    H1 1923   7.972   7.445   6.125  0.8623  0.1062 -0.4806
  660TIP3    H2 1924   7.943   7.583   6.179 -0.2493 -0.3475  0.0974
  661TIP3   OH2 1925   2.341   1.737   1.914 -0.0510  0.1326 -0.4348
  661TIP3    H1 1926   2.369   1.796   1.844 -0.3628 -0.4670 -1.0768
  661TIP3    H2 1927   2.291   1.793   1.974  0.9856  0.8409 -0.1983
  662TIP3   OH2 1928   5.702   5.006   3.496  0.1587  0.3954 -0.5944
  662TIP3    H1 1929   5.745   5.016   3.581 -0.3527  0.1127 -0.2914
  662TIP3    H2 1930   5.699   5.095   3.460 -1.2191  0.8368  0.4956
  663TIP3   OH2 1931   4.000   4.427   6.072 -0.0592 -0.7374 -0.3535
  663TIP3    H1 1932   3.937   4.443   6.142 -0.5955 -2.3322 -0.4470
  663TIP3    H2 1933   4.082   4.462   6.107 -0.7912  0.6527  0.0852
  664TIP3   OH2 1934   3.741   2.363   4.387 -0.6806  0.1986  0.1788
  664TIP3    H1 1935   3.832   2.372   4.415 -0.9217 -0.0240  1.0381
  664TIP3    H2 1936   3.728   2.269   4.376 -0.6807  0.2599 -0.3960
  665TIP3   OH2 1937   4.495   6.107   4.696 -0.2158  0.8936 -0.0517
  665TIP3    H1 1938   4.533   6.115   4.783 -0.4894  1.1884  0.0415
  665TIP3    H2 1939   4.560   6.058   4.646 -1.3089 -1.9226  1.0858
  666TIP3   OH2 1940   7.093   5.105   5.353 -0.6335 -0.0209  0.3118
  666TIP3    H1 1941   7.137   5.139   5.276 -1.9678 -0.0592 -0.5043
  666TIP3    H2 1942   7.161   5.101   5.420  0.5000  0.2289 -0.7887
  667TIP3   OH2 1943   7.747   2.016   0.205  0.1884  0.2596 -0.4996
  667TIP3    H1 1944   7.704   1.931   0.201  0.0475  0.2352  0.9446
  667TIP3    H2 1945   7.820   2.003   0.266  0.1802  1.1481 -0.2795
  668TIP3   OH2 1946   3.699   0.781   4.276 -0.2301 -0.1147 -0.0822
  668TIP3    H1 1947   3.630   0.776   4.342  1.5312 -1.1077  1.8327
  668TIP3    H2 1948   3.719   0.875   4.269  0.2934 -0.0531  1.6997
  669TIP3   OH2 1949   5.159   2.121   5.108 -0.7457 -0.7181 -0.0661
  669TIP3    H1 1950   5.219   2.194   5.124  0.2349 -1.9398  2.3536
  669TIP3    H2 1951   5.111   2.146   5.029  0.8169  1.6901 -0.3509
  670TIP3   OH2 1952   6.095   3.188   0.196 -0.1080  0.3234 -0.7372
  670TIP3    H1 1953   6.166   3.222   0.141 -0.7992  0.3336 -1.6517
  670TIP3    H2 1954   6.133   3.110   0.238  0.9507  1.2409  0.0735
  671TIP3   OH2 1955   1.688   5.031   1.819 -0.4962 -0.3460  0.3871
  671TIP3    H1 1956   1.646   5.106   1.862  1.1939  0.4709  0.6864
  671TIP3    H2 1957   1.681   5.051   1.725  0.9226  0.7851  0.4908
  672TIP3   OH2 1958   2.267   0.055   1.714  0.0456 -0.6567  0.2026
  672TIP3    H1 1959   2.278   0.111   1.790 -0.6255 -0.4256  0.1397
  672TIP3    H2 1960   2.346   0.002   1.711  1.6646  1.6475 -0.8743
  673TIP3   OH2 1961   4.710   7.350   1.348 -0.8963 -0.3042 -0.2815
  673TIP3    H1 1962   4.650   7.373   1.419 -0.0940  0.9493  0.0269
  673TIP3    H2 1963   4.796   7.376   1.380 -0.1672 -2.1109 -0.7018
  674TIP3   OH2 1964   2.369   1.842   2.477  0.1583 -0.2936 -0.6503
  674TIP3    H1 1965   2.464   1.831   2.480  0.4187  1.6787  1.9000
  674TIP3    H2 1966   2.350   1.861   2.385  2.5389  1.4322 -0.8812
  675TIP3   OH2 1967   0.400   4.571   4.927  0.4513 -0.0971 -0.1838
  675TIP3    H1 1968   0.323   4.568   4.983  0.8098 -0.2308  0.3080
  675TIP3    H2 1969   0.468   4.611   4.981  0.1792  1.9552 -1.2938
  676TIP3   OH2 1970   3.142   5.201   0.628  0.1577  0.4315  0.5488
  676TIP3    H1 1971   3.178   5.115   0.650 -1.6363 -0.1835  1.2611
  676TIP3    H2 1972   3.049   5.194   0.649 -0.1641  2.3293 -0.0696
  677TIP3   OH2 1973   3.041   7.406   6.617  0.2351  0.7251  0.2446
  677TIP3    H1 1974   2.959   7.375   6.656 -0.3248 -0.0472 -1.4195
  677TIP3    H2 1975   3.031   7.501   6.612 -1.5280  0.5138 -1.8227
  678TIP3   OH2 1976   6.275   1.834   2.670  0.3323  0.0081  0.3719
  678TIP3    H1 1977   6.256   1.799   2.582  0.6561  0.2411  0.2087
  678TIP3    H2 1978   6.370   1.828   2.678  0.3667  0.6053  0.4445
  679TIP3   OH2 1979   4.798   1.394   5.393  0.2439 -1.0930 -0.0047
  679TIP3    H1 1980   4.853   1.445   5.451  1.0559 -0.1545 -1.5178
  679TIP3    H2 1981   4.743   1.459   5.349 -0.8033 -1.8404  0.1589
  680TIP3   OH2 1982   0.339   4.551   5.760  0.3334  0.1756  0.1826
  680TIP3    H1 1983   0.422   4.521   5.723  0.3243  0.9666 -0.5187
  680TIP3    H2 1984   0.272   4.498   5.716  0.3657  0.6849 -0.5088
  681TIP3   OH2 1985   4.297   7.802   2.216  0.0481 -0.1541 -0.0933
  681TIP3    H1 1986   4.294   7.707   2.223 -1.1640 -0.0999  0.4350
  681TIP3    H2 1987   4.281   7.833   2.306  1.0862  0.5476 -0.1338
  682TIP3   OH2 1988   3.036   5.955   4.907 -0.1721  0.0410  0.2087
  682TIP3    H1 1989   3.021   5.869   4.947  0.9500  0.3906  1.4673
  682TIP3    H2 1990   3.022   6.017   4.978 -0.3873  0.8635 -0.5387
  683TIP3   OH2 1991   5.232   2.189   0.905  0.9879 -0.1231  0.0075
  683TIP3    H1 1992   5.285   2.177   0.826 -0.3903  0.6520 -1.0926
  683TIP3    H2 1993   5.172   2.114   0.905 -1.3534  1.5923 -1.6996
  684TIP3   OH2 1994   7.808   7.075   0.256 -0.5799  0.4291 -0.4765
  684TIP3    H1 1995   7.898   7.108   0.255 -0.2186 -0.4890 -0.1223
  684TIP3    H2 1996   7.812   6.993   0.208 -0.5609 -1.1385  1.9972
  685TIP3   OH2 1997   1.355   5.683   2.530  0.7645  0.2222 -0.0813
  685TIP3    H1 1998   1.306   5.675   2.612 -1.2491  0.2272 -1.2110
  685TIP3    H2 1999   1.336   5.601   2.483 -1.6011  1.8834 -2.2667
  686TIP3   OH2 2000   5.366   1.241   0.568  0.3376 -0.7017 -0.1181
  686TIP3    H1 2001   5.382   1.291   0.648  0.9441  0.6147 -1.0222
  686TIP3    H2 2002   5.446   1.254   0.516 -0.3736 -0.8653 -1.2786
  687TIP3   OH2 2003   0.717   3.707   0.638  0.2906 -0.3461 -0.7773
  687TIP3    H1 2004   0.712   3.637   0.572  0.9888  1.1267 -2.4733
  687TIP3    H2 2005   0.735   3.786   0.588  2.0615  0.6705  1.3021
  688TIP3   OH2 2006   2.672   1.967   2.601 -0.0715  0.3725  0.3741
  688TIP3    H1 2007   2.757   1.955   2.558 -1.2056 -0.6069 -1.7584
  688TIP3    H2 2008   2.674   1.906   2.675  1.4390  1.1274  1.0075
  689TIP3   OH2 2009   2.538   7.456   6.644  0.1137 -0.2536 -0.0541
  689TIP3    H1 2010   2.446   7.463   6.669  0.0016  0.5969 -0.6370
  689TIP3    H2 2011   2.586   7.469   6.726 -0.2856 -1.2554  0.3469
  690TIP3   OH2 2012   2.083   1.628   6.361  0.1355 -0.8547 -0.4974
  690TIP3    H1 2013   2.139   1.700   6.329  0.8485 -1.3735 -0.4412
  690TIP3    H2 2014   2.022   1.612   6.289 -0.5613  0.3474 -0.1924
  691TIP3   OH2 2015   5.998   6.979   2.077 -0.4774 -0.1443 -0.3773
  691TIP3    H1 2016   5.917   6.947   2.117 -1.4370  0.5641 -1.6707
  691TIP3    H2 2017   6.006   7.069   2.109  0.1286 -0.3833  0.1846
  692TIP3   OH2 2018   7.409   4.685   1.944  0.3583  0.0917  0.0758
  692TIP3    H1 2019   7.378   4.710   2.031  0.4630  0.1384  0.1010
  692TIP3    H2 2020   7.448   4.599   1.956  2.0026  0.8481  0.4614
  693TIP3   OH2 2021   3.283   4.109   4.028  0.2560  0.1127  0.2037
  693TIP3    H1 2022   3.300   4.064   3.945 -2.0824 -0.3018 -0.1136
  693TIP3    H2 2023   3.263   4.039   4.090 -1.2822  0.5382  0.2414
  694TIP3   OH2 2024   7.431   6.741   5.821 -0.2141  0.1729  0.2511
  694TIP3    H1 2025   7.382   6.667   5.786  1.5850 -1.5320  1.0809
  694TIP3    H2 2026   7.503   6.754   5.759 -0.5505  1.3002  0.0765
  695TIP3   OH2 2027   1.261   3.379   0.290  0.1949  0.7333  0.2546
  695TIP3    H1 2028   1.336   3.338   0.247 -0.3842  0.4368 -0.4899
  695TIP3    H2 2029   1.279   3.473   0.288  0.7496  0.6329  0.4762
  696TIP3   OH2 2030   4.420   4.519   1.138  0.2388 -0.5315 -0.8072
  696TIP3    H1 2031   4.388   4.535   1.050 -1.2271  0.0436 -0.2083
  696TIP3    H2 2032   4.370   4.443   1.169  0.7585 -0.7457 -0.4767
  697TIP3   OH2 2033   7.930   5.692   3.539  0.4243  0.3861 -0.0895
  697TIP3    H1 2034   7.860   5.757   3.531  0.3249  0.1671 -1.1202
  697TIP3    H2 2035   7.946   5.663   3.449  0.5157 -0.9625  0.3437
  698TIP3   OH2 2036   1.328   4.992   5.743  0.1788  0.3188  0.1185
  698TIP3    H1 2037   1.377   4.913   5.768 -0.0645  0.5129  1.2634
  698TIP3    H2 2038   1.248   4.987   5.795  0.9229  2.1900  1.5934
  699TIP3   OH2 2039   5.351   1.084   3.856  0.0174  0.2064 -0.2907
  699TIP3    H1 2040   5.314   1.005   3.895 -1.0407  0.8794  0.1188
  699TIP3    H2 2041   5.367   1.061   3.764 -0.6714 -0.3625 -0.2745
  700TIP3   OH2 2042   5.308   0.245   4.567 -0.0187 -0.0280  0.5396
  700TIP3    H1 2043   5.229   0.195   4.592 -1.3509  1.3222 -0.7643
  700TIP3    H2 2044   5.332   0.292   4.647  0.1073 -1.2262  1.2377
  701TIP3   OH2 2045   8.063   5.366   6.419  0.6919 -0.0615  0.4597
  701TIP3    H1 2046   7.979   5.411   6.422  1.3570  1.2150  0.5517
  701TIP3    H2 2047   8.090   5.370   6.328  1.1811  0.5387  0.6289
  702TIP3   OH2 2048   4.982   1.386   1.287  0.0712  0.4240 -0.0155
  702TIP3    H1 2049   4.982   1.475   1.251  1.8974 -0.0352 -1.2714
  702TIP3    H2 2050   5.024   1.394   1.372  1.3352  0.5987 -0.6406
  703TIP3   OH2 2051   2.245   5.913   6.271 -0.0389 -0.1381  0.3825
  703TIP3    H1 2052   2.301   5.976   6.317  0.6588 -0.4840  0.0301
  703TIP3    H2 2053   2.204   5.862   6.341  1.0413 -0.6855  0.6406
  704TIP3   OH2 2054   4.878   0.443   5.257  0.0820 -0.4310 -0.0390
  704TIP3    H1 2055   4.900   0.419   5.347  0.4765 -0.5561 -0.1659
  704TIP3    H2 2056   4.954   0.416   5.205 -0.7667 -1.8216 -0.6439
  705TIP3   OH2 2057   1.592   4.727   4.925  0.1505 -0.1428 -0.1495
  705TIP3    H1 2058   1.583   4.781   4.846 -1.9577 -1.2109 -0.7318
  705TIP3    H2 2059   1.526   4.762   4.985 -1.3701 -2.0936 -0.6020
  706TIP3   OH2 2060   4.835   4.179   0.499  0.1472  0.4751 -0.6272
  706TIP3    H1 2061   4.782   4.252   0.468  0.6610  1.6158  1.0304
  706TIP3    H2 2062   4.910   4.220   0.541  0.4571 -1.0104  0.3517
  707TIP3   OH2 2063   6.729   5.874   1.420  0.1223 -0.2749 -0.7048
  707TIP3    H1 2064   6.774   5.796   1.388  0.0206 -0.0668 -1.3809
  707TIP3    H2 2065   6.741   5.873   1.514  0.7567 -0.7106 -0.7911
  708TIP3   OH2 2066   7.730   0.243   0.570 -0.2715  0.0713 -0.7334
  708TIP3    H1 2067   7.730   0.257   0.475 -0.3909  2.2258 -0.4719
  708TIP3    H2 2068   7.691   0.323   0.606  2.1781  0.4936  1.2750
  709TIP3   OH2 2069   1.324   6.616   6.545  0.0165  0.0435 -0.4318
  709TIP3    H1 2070   1.236   6.590   6.573 -0.2460  0.8159 -0.5150
  709TIP3    H2 2071   1.350   6.684   6.607 -0.1641  1.0648 -1.4590
  710TIP3   OH2 2072   0.049   4.709   1.676 -0.0206  0.5234 -0.3403
  710TIP3    H1 2073  -0.039   4.700   1.713 -0.1665  2.7196 -0.0051
  710TIP3    H2 2074   0.045   4.662   1.593 -1.8831  1.5821 -0.9047
  711TIP3   OH2 2075   1.014   7.361   0.110 -0.2184 -0.2622  0.3420
  711TIP3    H1 2076   1.018   7.321   0.197  1.5360 -1.4104 -0.2126
  711TIP3    H2 2077   1.102   7.350   0.075 -1.2146 -1.0225 -2.1038
  712TIP3   OH2 2078   7.364   5.269   3.449 -0.2261  0.1929 -0.0294
  712TIP3    H1 2079   7.420   5.195   3.473  0.9424  0.1999 -2.4314
  712TIP3    H2 2080   7.288   5.228   3.407 -0.9813  0.2848  1.1994
  713TIP3   OH2 2081   5.488   6.471   3.231 -0.8130 -0.4875  0.7115
  713TIP3    H1 2082   5.503   6.478   3.137  0.0017  1.5359  0.9458
  713TIP3    H2 2083   5.393   6.473   3.241 -0.9101 -0.9373 -0.0518
  714TIP3   OH2 2084   6.452   0.682   2.306  0.0388 -0.0251 -0.2664
  714TIP3    H1 2085   6.448   0.777   2.299  0.3999  0.1066  1.0338
  714TIP3    H2 2086   6.534   0.665   2.353  0.9965 -1.1029 -2.1999
  715TIP3   OH2 2087   3.057   0.677   5.645 -0.1065  0.2859 -0.3774
  715TIP3    H1 2088   3.062   0.739   5.572 -0.1127 -0.1484 -0.7524
  715TIP3    H2 2089   3.092   0.725   5.720  1.0169  0.3511 -0.9250
  716TIP3   OH2 2090   7.325   4.981   5.454  0.3549 -0.2252 -0.4381
  716TIP3    H1 2091   7.259   4.925   5.414 -1.2978  0.5688  1.0187
  716TIP3    H2 2092   7.395   4.987   5.389  0.0009 -2.8634 -1.1702
  717TIP3   OH2 2093   2.843   5.006   5.952 -0.2504  0.1365 -0.4703
  717TIP3    H1 2094   2.892   4.924   5.963 -0.2690  0.1966  0.0908
  717TIP3    H2 2095   2.752   4.982   5.969 -0.1637  0.4190  0.4796
  718TIP3   OH2 2096   7.902   6.871   4.829  0.0494  0.2336 -0.0050
  718TIP3    H1 2097   7.950   6.886   4.747 -0.6866 -0.5436 -0.6017
  718TIP3    H2 2098   7.895   6.957   4.869  0.8010  0.5560 -0.5558
  719TIP3   OH2 2099   3.058   2.336   1.824  0.4186 -0.0538  0.5950
  719TIP3    H1 2100   3.045   2.299   1.737  0.4754 -0.3871  0.7275
  719TIP3    H2 2101   3.003   2.414   1.825  0.6436  0.1121  0.1595
  720TIP3   OH2 2102   3.782   2.907   4.134 -1.2033  0.1002 -0.0092
  720TIP3    H1 2103   3.693   2.909   4.100 -0.7145  0.2501 -1.3670
  720TIP3    H2 2104   3.821   2.990   4.105 -0.5969 -0.0014  0.4903
  721TIP3   OH2 2105   8.074   7.430   2.670  0.4922 -0.2691  0.6512
  721TIP3    H1 2106   8.162   7.392   2.668  0.5463 -0.1013 -0.4528
  721TIP3    H2 2107   8.020   7.362   2.710  0.7233 -1.2364 -0.6384
  722TIP3   OH2 2108   7.021   3.318   1.532 -0.1736 -0.1484  0.2896
  722TIP3    H1 2109   7.027   3.260   1.457 -1.2710 -1.3929  1.1180
  722TIP3    H2 2110   7.043   3.264   1.607 -0.1892  0.7843  0.9892
  723TIP3   OH2 2111   0.349   3.184   4.046  0.5800 -0.4629 -0.4901
  723TIP3    H1 2112   0.278   3.209   3.986  0.1761 -0.7140 -0.1231
  723TIP3    H2 2113   0.380   3.100   4.012 -0.2376 -1.0430  0.1412
  724TIP3   OH2 2114   0.931   0.895   3.677 -0.5055 -0.3964 -0.5687
  724TIP3    H1 2115   0.996   0.830   3.704 -0.2543 -0.7492 -1.9769
  724TIP3    H2 2116   0.893   0.926   3.760  1.3964 -0.2233  0.2982
  725TIP3   OH2 2117   5.957   5.832   3.628 -0.4329  0.0849 -0.0299
  725TIP3    H1 2118   5.981   5.924   3.620 -0.1822  0.0010 -0.2591
  725TIP3    H2 2119   6.012   5.787   3.564  0.2811 -0.3684  0.8739
  726TIP3   OH2 2120   6.598   3.739   4.316  0.4462 -0.0333 -0.1847
  726TIP3    H1 2121   6.621   3.832   4.306  1.2546 -0.4107 -2.4052
  726TIP3    H2 2122   6.515   3.741   4.363  0.6029  1.8051  0.1123
  727TIP3   OH2 2123   2.957   3.194   0.945  0.1065  0.0975 -0.6758
  727TIP3    H1 2124   2.881   3.163   0.896 -0.6415  0.4411  0.2556
  727TIP3    H2 2125   2.945   3.288   0.952 -2.7148 -0.2922  4.7150
  728TIP3   OH2 2126   3.804   5.378   3.839 -0.2847 -0.2038  0.3443
  728TIP3    H1 2127   3.840   5.368   3.927  1.8617  0.1733 -0.4218
  728TIP3    H2 2128   3.804   5.473   3.824  0.3623 -0.3181 -0.4275
  729TIP3   OH2 2129   3.055   3.838   1.815 -0.2643 -0.2007  0.4644
  729TIP3    H1 2130   3.138   3.857   1.770 -0.5882 -0.4508 -0.2585
  729TIP3    H2 2131   3.045   3.744   1.808 -1.9994  0.0817 -2.0152
  730TIP3   OH2 2132   0.803   2.569   3.339  0.1617  0.0302  0.1557
  730TIP3    H1 2133   0.861   2.646   3.339  0.6631 -0.3047 -1.6126
  730TIP3    H2 2134   0.827   2.521   3.260  0.6919 -2.6307  1.8323
  731TIP3   OH2 2135   1.874   6.191   0.386 -0.4124  0.8096 -0.1432
  731TIP3    H1 2136   1.949   6.251   0.384 -0.6852  1.1660  0.2204
  731TIP3    H2 2137   1.850   6.185   0.478  0.8790 -1.4640  0.1219
  732TIP3   OH2 2138   7.523   7.393   5.887 -0.2195 -0.5578  0.3683
  732TIP3    H1 2139   7.600   7.448   5.871  0.8451 -1.8349  0.8827
  732TIP3    H2 2140   7.483   7.382   5.801  1.9752 -2.3877 -0.5327
  733TIP3   OH2 2141   4.428   0.521   3.059 -0.1602 -0.0538 -0.1057
  733TIP3    H1 2142   4.492   0.464   3.101 -2.1709 -1.1379  1.6867
  733TIP3    H2 2143   4.450   0.609   3.090 -0.5967 -0.6319  2.0208
  734TIP3   OH2 2144   0.574   7.013   4.599 -0.1135 -0.3889  0.0327
  734TIP3    H1 2145   0.580   7.069   4.522 -0.5774  1.2263  1.1164
  734TIP3    H2 2146   0.507   7.054   4.653  0.1703 -1.5054  1.2884
  735TIP3   OH2 2147   5.830   1.117   4.840  0.2878  0.4114  0.5028
  735TIP3    H1 2148   5.800   1.182   4.903 -0.7004 -1.9670  2.6374
  735TIP3    H2 2149   5.865   1.046   4.893  0.4482 -1.2338 -1.6709
  736TIP3   OH2 2150   1.412   6.411   5.228  0.1153 -0.2994  0.2797
  736TIP3    H1 2151   1.497   6.455   5.219  0.4011 -0.9621 -0.3874
  736TIP3    H2 2152   1.353   6.463   5.174  0.4069 -0.6106 -0.3496
  737TIP3   OH2 2153   0.261   0.248   0.420  0.2812  0.5245  0.2773
  737TIP3    H1 2154   0.331   0.208   0.369 -0.5744 -0.1786 -0.3634
  737TIP3    H2 2155   0.191   0.183   0.422 -0.4192  1.2601  0.7935
  738TIP3   OH2 2156   0.207   2.010   4.753 -0.1763 -0.6075  0.1743
  738TIP3    H1 2157   0.283   2.064   4.734 -2.1748  2.6984  0.6519
  738TIP3    H2 2158   0.228   1.967   4.836  1.1488  0.3124  0.3515
  739TIP3   OH2 2159   4.850   0.909   5.967 -0.2606  0.0170 -0.1147
  739TIP3    H1 2160   4.781   0.848   5.941 -0.3469 -0.0767  0.3208
  739TIP3    H2 2161   4.833   0.988   5.915  0.1808 -0.5132 -1.0946
  740TIP3   OH2 2162   0.688   5.847   0.513  0.0556 -0.0393  0.1007
  740TIP3    H1 2163   0.713   5.834   0.421 -2.0149 -3.6262 -0.1499
  740TIP3    H2 2164   0.608   5.900   0.508  0.9698  1.3647  0.0196
  741TIP3   OH2 2165   6.414   0.996   1.393  0.0750  0.7081  0.5195
  741TIP3    H1 2166   6.365   0.915   1.399 -0.5612  0.9679 -0.7818
  741TIP3    H2 2167   6.357   1.062   1.432  0.1472  0.7017  0.6356
  742TIP3   OH2 2168   2.812   6.251   3.859 -0.2671  0.1415  0.2044
  742TIP3    H1 2169   2.906   6.254   3.837  0.5441 -0.8147  3.0957
  742TIP3    H2 2170   2.809   6.276   3.951 -2.8194 -0.5238  0.3575
  743TIP3   OH2 2171   2.818   6.682   4.363 -0.0247 -0.6367  1.0186
  743TIP3    H1 2172   2.901   6.713   4.398  0.0171  0.4750  0.0058
  743TIP3    H2 2173   2.751   6.726   4.416  0.0097 -1.0140  1.3915
  744TIP3   OH2 2174   7.614   5.175   3.237  0.0075  0.1322 -0.2576
  744TIP3    H1 2175   7.524   5.200   3.215 -0.4314 -0.8579  0.3426
  744TIP3    H2 2176   7.624   5.200   3.329  1.3038  2.7778 -0.9848
  745TIP3   OH2 2177   7.823   6.802   6.478  0.1633  0.3843  0.3425
  745TIP3    H1 2178   7.828   6.710   6.453 -1.5619  0.2783  0.2167
  745TIP3    H2 2179   7.732   6.813   6.506  0.5368  1.8870  1.0393
  746TIP3   OH2 2180   5.210   3.733   4.071 -0.0918  0.1260 -1.0843
  746TIP3    H1 2181   5.257   3.690   3.999 -0.9476 -0.1992 -1.4604
  746TIP3    H2 2182   5.123   3.693   4.070 -0.2442  0.4178 -0.1278
  747TIP3   OH2 2183   1.409   2.109   1.846 -0.3622  0.0066 -0.3213
  747TIP3    H1 2184   1.314   2.104   1.833 -0.5287  0.9053  0.4120
  747TIP3    H2 2185   1.433   2.193   1.808 -0.1918  0.6961  1.2311
  748TIP3   OH2 2186   5.414   0.854   6.239 -0.0118  0.2129  0.6410
  748TIP3    H1 2187   5.370   0.794   6.301 -0.2349 -0.3881 -0.0802
  748TIP3    H2 2188   5.489   0.804   6.207  0.2915  0.6469  0.6651
  749TIP3   OH2 2189   4.769   5.013   0.059 -0.1902  0.2169  0.2160
  749TIP3    H1 2190   4.811   5.009   0.145  2.3023  2.8576 -0.7035
  749TIP3    H2 2191   4.764   5.107   0.039 -0.6220 -0.2996 -2.5341
  750TIP3   OH2 2192   3.848   5.970   2.312 -0.2840  0.8885  0.2346
  750TIP3    H1 2193   3.806   5.946   2.230 -0.0731  0.0899  0.3461
  750TIP3    H2 2194   3.865   6.064   2.304 -0.1352  0.7966 -0.6959
  751TIP3   OH2 2195   3.663   3.363   2.482  1.1442 -0.4698  0.0280
  751TIP3    H1 2196   3.660   3.299   2.553  1.1850 -0.2237  0.2526
  751TIP3    H2 2197   3.592   3.338   2.424 -0.9930  1.1963  1.7681
  752TIP3   OH2 2198   7.865   2.474   4.495 -0.3479 -0.4070  0.0079
  752TIP3    H1 2199   7.772   2.491   4.506 -0.2197  2.1687 -1.8938
  752TIP3    H2 2200   7.879   2.478   4.400  1.9825  1.4832  0.3188
  753TIP3   OH2 2201   7.103   5.639   0.960 -0.1648  0.1856 -0.4897
  753TIP3    H1 2202   7.178   5.693   0.935 -0.4735  1.6882  1.5338
  753TIP3    H2 2203   7.132   5.549   0.945  1.0244  0.8197 -2.2903
  754TIP3   OH2 2204   6.669   5.950   0.960 -0.8689  0.0226  0.1255
  754TIP3    H1 2205   6.697   5.997   1.039  0.0351 -0.8808  0.3520
  754TIP3    H2 2206   6.743   5.893   0.938 -1.8164 -1.0586 -0.3314
  755TIP3   OH2 2207   1.141   6.743   1.165  0.1970 -0.6512  0.1277
  755TIP3    H1 2208   1.234   6.726   1.150  0.2064 -0.3177 -0.2254
  755TIP3    H2 2209   1.114   6.793   1.087  0.0740  0.5426  0.9100
  756TIP3   OH2 2210   0.535   2.693   5.226 -0.1042 -0.0780 -0.0824
  756TIP3    H1 2211   0.604   2.632   5.252  0.1064  0.5556  0.9178
  756TIP3    H2 2212   0.535   2.691   5.131  2.0710  0.7415 -0.1588
  757TIP3   OH2 2213   5.790   3.163   2.868  0.1132  0.4145 -0.3467
  757TIP3    H1 2214   5.760   3.109   2.794  1.8424  0.2459 -0.9662
  757TIP3    H2 2215   5.798   3.101   2.940  0.3172  0.1946 -0.5550
  758TIP3   OH2 2216   4.305   6.382   5.258  0.3872  0.5260 -0.1176
  758TIP3    H1 2217   4.353   6.426   5.329  1.2915  0.2146 -0.5406
  758TIP3    H2 2218   4.217   6.419   5.264  0.6185  0.9638  0.7800
  759TIP3   OH2 2219   1.440   2.924   2.730 -0.2941  0.3870 -0.3461
  759TIP3    H1 2220   1.412   3.006   2.688  1.5424  1.8810  1.1782
  759TIP3    H2 2221   1.380   2.912   2.803  1.0283  1.9278  1.0716
  760TIP3   OH2 2222   6.975   3.808   1.983  0.2233  0.7494 -0.2778
  760TIP3    H1 2223   7.002   3.844   2.067  0.2550 -0.9605  0.4905
  760TIP3    H2 2224   6.975   3.713   1.996 -1.4809  0.4905 -1.6783
  761TIP3   OH2 2225   6.167   3.859   3.252  0.6895 -0.3538  0.0458
  761TIP3    H1 2226   6.219   3.928   3.293 -0.8577  0.9561 -0.0839
  761TIP3    H2 2227   6.089   3.852   3.307  0.2041 -1.0654 -0.7061
  762TIP3   OH2 2228   0.468   0.644   1.117 -0.0109  0.0395  0.2346
  762TIP3    H1 2229   0.529   0.704   1.073 -1.1148 -0.2030 -1.7430
  762TIP3    H2 2230   0.436   0.694   1.192  0.5643  1.1868 -0.2486
  763TIP3   OH2 2231   4.837   6.500   1.483 -0.0772  0.1619 -0.0078
  763TIP3    H1 2232   4.758   6.453   1.507  1.7745 -3.1185  0.2597
  763TIP3    H2 2233   4.869   6.456   1.404  1.5998  1.2275  0.0096
  764TIP3   OH2 2234   1.940   0.286   4.454  0.0741 -0.3702  1.0289
  764TIP3    H1 2235   1.883   0.210   4.439 -1.9909  1.1056  0.8777
  764TIP3    H2 2236   2.021   0.265   4.407 -0.0110 -2.8915  1.8726
  765TIP3   OH2 2237   5.755   0.414   2.729  0.4187 -0.1474 -0.0385
  765TIP3    H1 2238   5.671   0.370   2.719  0.9451 -0.8144 -2.1587
  765TIP3    H2 2239   5.812   0.349   2.768  0.4303 -0.3698 -0.4165
  766TIP3   OH2 2240   0.700   1.281   0.697 -0.0556  1.0830 -0.2962
  766TIP3    H1 2241   0.755   1.205   0.717  0.5801  1.6725  0.2445
  766TIP3    H2 2242   0.728   1.308   0.610 -0.7484  0.3090 -0.7747
  767TIP3   OH2 2243   0.182   6.552   4.821  0.2341  0.2350 -0.4350
  767TIP3    H1 2244   0.115   6.488   4.796  1.0035 -0.0179 -2.0017
  767TIP3    H2 2245   0.216   6.520   4.904 -0.2321 -0.7254 -0.5999
  768TIP3   OH2 2246   1.287   7.601   0.748  0.0860  0.4157  0.0519
  768TIP3    H1 2247   1.366   7.651   0.768 -0.1844  1.1331 -0.6113
  768TIP3    H2 2248   1.248   7.584   0.833  1.3433 -0.6257  0.4568
  769TIP3   OH2 2249   4.956   6.149   3.351 -0.3939  0.6147  0.8392
  769TIP3    H1 2250   4.892   6.094   3.395 -1.8075  0.7396 -0.9133
  769TIP3    H2 2251   4.903   6.217   3.308  0.2255 -1.6025 -4.1871
  770TIP3   OH2 2252   4.095   1.790   3.414  0.2018 -0.0481  0.1788
  770TIP3    H1 2253   4.185   1.769   3.390  0.2763  1.8846 -1.5252
  770TIP3    H2 2254   4.103   1.860   3.479 -0.0824 -0.8003  1.0432
  771TIP3   OH2 2255   1.610   5.821   2.165 -0.2386  0.1645 -0.4238
  771TIP3    H1 2256   1.652   5.750   2.214 -2.1346 -0.8211 -0.1156
  771TIP3    H2 2257   1.630   5.801   2.073 -0.7893 -0.8312 -0.3484
  772TIP3   OH2 2258   6.150   1.547   2.256 -0.6398  0.1988 -0.1510
  772TIP3    H1 2259   6.178   1.458   2.237 -0.6564  0.2146 -0.2478
  772TIP3    H2 2260   6.058   1.550   2.229 -0.8244  0.0640  0.4283
  773TIP3   OH2 2261   8.255   5.368   6.117 -0.1818 -0.1707  0.3741
  773TIP3    H1 2262   8.291   5.318   6.044  0.1171 -0.2788  0.5919
  773TIP3    H2 2263   8.264   5.459   6.091 -0.9346 -0.2370 -0.1221
  774TIP3   OH2 2264   2.832   2.764   1.292  0.0715  0.6239  0.0908
  774TIP3    H1 2265   2.877   2.685   1.261 -1.2057 -0.7619  1.6461
  774TIP3    H2 2266   2.767   2.733   1.354 -1.0760  2.8458  0.1040
  775TIP3   OH2 2267   1.077   1.263   5.225 -0.1027  0.3580 -0.0301
  775TIP3    H1 2268   1.045   1.352   5.241  0.1258  0.2639  0.9959
  775TIP3    H2 2269   1.002   1.217   5.188 -0.8259  0.4555  1.2663
  776TIP3   OH2 2270   4.932   5.614   4.790 -0.3346 -0.4968 -0.0692
  776TIP3    H1 2271   4.890   5.528   4.789 -2.5335  0.5009 -2.1800
  776TIP3    H2 2272   4.868   5.672   4.831 -0.2155  0.6932 -1.4826
  777TIP3   OH2 2273   5.407   0.672   4.791  0.2242  0.1800 -0.2400
  777TIP3    H1 2274   5.469   0.738   4.758  0.2196  0.3910  0.1667
  777TIP3    H2 2275   5.377   0.707   4.875  1.8453 -1.3402  1.0551
  778TIP3   OH2 2276   4.771   5.679   5.990  0.4436  0.4323  0.6800
  778TIP3    H1 2277   4.723   5.598   6.008 -1.0444  0.5279 -2.2367
  778TIP3    H2 2278   4.852   5.650   5.947  0.8787  0.4460  1.4733
  779TIP3   OH2 2279   3.547   3.085   3.160 -0.4008  0.3022 -0.0687
  779TIP3    H1 2280   3.515   2.996   3.142 -1.5944  0.2297  2.0872
  779TIP3    H2 2281   3.484   3.142   3.116 -0.3272  0.0955 -0.4466
  780TIP3   OH2 2282   0.146   2.330   3.331  0.2280  0.4032  0.0249
  780TIP3    H1 2283   0.216   2.336   3.266  0.7942  1.3678  0.7035
  780TIP3    H2 2284   0.077   2.386   3.296  0.1754  0.2241 -0.1646
  781TIP3   OH2 2285   3.933   0.964   2.372  0.0235  0.2072  0.3496
  781TIP3    H1 2286   3.846   0.965   2.332 -0.0499  1.2596  0.5136
  781TIP3    H2 2287   3.919   0.996   2.461  0.5840  0.4481  0.3572
  782TIP3   OH2 2288   0.974   4.009   3.376 -0.2309 -0.2669  0.3514
  782TIP3    H1 2289   0.922   4.069   3.430  0.6699 -1.0964  2.2215
  782TIP3    H2 2290   1.061   4.010   3.416  0.3801 -1.1724 -0.9025
  783TIP3   OH2 2291   1.286   5.116   1.031  0.2054 -0.1110  0.6180
  783TIP3    H1 2292   1.358   5.081   0.979 -0.5005  0.4301 -0.7828
  783TIP3    H2 2293   1.290   5.211   1.017 -1.7382 -0.1909 -0.8428
  784TIP3   OH2 2294   0.777   1.020   2.060 -0.4659 -1.1446 -0.5776
  784TIP3    H1 2295   0.776   1.015   2.155  0.0554 -3.3136 -0.6412
  784TIP3    H2 2296   0.687   0.999   2.034 -1.3043  1.8813 -0.5831
  785TIP3   OH2 2297   2.095   5.892   0.190  0.2096  0.2184  0.6527
  785TIP3    H1 2298   2.137   5.901   0.276  1.4348  2.0452 -0.0841
  785TIP3    H2 2299   2.167   5.892   0.128 -0.5064 -2.9172 -0.3699
  786TIP3   OH2 2300   2.897   0.257   2.424  0.4585  0.2186  0.0935
  786TIP3    H1 2301   2.929   0.346   2.439  0.3750  0.1678  0.5755
  786TIP3    H2 2302   2.900   0.247   2.329  2.4400 -0.0018  0.1298
  787TIP3   OH2 2303   8.285   4.475   4.575 -0.5555 -0.4529 -0.1033
  787TIP3    H1 2304   8.203   4.426   4.588 -0.7016 -0.4143 -0.8469
  787TIP3    H2 2305   8.337   4.420   4.516  0.2500 -0.7999  0.8990
  788TIP3   OH2 2306   2.472   6.730   5.471 -0.1325 -0.2703  0.0015
  788TIP3    H1 2307   2.430   6.772   5.396  0.7717 -2.0785 -1.6186
  788TIP3    H2 2308   2.506   6.802   5.523 -0.8895  1.0571 -1.2706
  789TIP3   OH2 2309   5.892   6.863   0.762  0.0998  0.1789  0.3536
  789TIP3    H1 2310   5.871   6.884   0.854 -0.0618 -0.6656  0.5138
  789TIP3    H2 2311   5.968   6.917   0.742  0.1939  0.2990  1.0181
  790TIP3   OH2 2312   7.337   7.573   3.873  0.2906 -0.4185 -0.3011
  790TIP3    H1 2313   7.274   7.577   3.800 -0.9087  0.2042  0.7346
  790TIP3    H2 2314   7.375   7.661   3.875  1.6656 -0.9485 -1.2777
  791TIP3   OH2 2315   5.908   4.492   5.408 -0.0385  0.3728 -0.6699
  791TIP3    H1 2316   5.973   4.427   5.436 -0.8830 -0.1662  0.0900
  791TIP3    H2 2317   5.837   4.484   5.472 -1.2726  0.2943 -2.0020
  792TIP3   OH2 2318   7.161   1.203   4.667  0.7008 -0.0220  0.8637
  792TIP3    H1 2319   7.170   1.115   4.631 -2.3665 -0.2227  0.3358
  792TIP3    H2 2320   7.101   1.193   4.741  2.0792  1.3336  2.2441
  793TIP3   OH2 2321   5.562   4.557   5.275  0.5039  0.6283 -0.0619
  793TIP3    H1 2322   5.566   4.511   5.358  1.3335  0.9231  0.0686
  793TIP3    H2 2323   5.653   4.565   5.247  0.2468  0.6335 -0.9425
  794TIP3   OH2 2324   0.495   3.386   4.150 -0.1838  0.2999 -0.0274
  794TIP3    H1 2325   0.570   3.396   4.092 -0.8897 -0.4109 -1.0959
  794TIP3    H2 2326   0.448   3.310   4.115 -0.3812 -0.4490  1.7602
  795TIP3   OH2 2327   0.813   4.549   1.115  0.3421  0.3079 -0.0566
  795TIP3    H1 2328   0.719   4.560   1.098  0.7079  0.3453 -2.3628
  795TIP3    H2 2329   0.854   4.619   1.064  1.6965 -0.5647 -0.1857
  796TIP3   OH2 2330   8.158   7.080   6.609  0.1619 -0.1418 -0.3819
  796TIP3    H1 2331   8.181   7.090   6.701 -0.6809 -0.4414 -0.1317
  796TIP3    H2 2332   8.186   7.162   6.568  0.2305  0.1280  0.1963
  797TIP3   OH2 2333   5.988   2.795   1.735 -0.2234  0.6029 -0.1877
  797TIP3    H1 2334   5.907   2.758   1.698  1.5766 -1.0563 -2.8002
  797TIP3    H2 2335   6.019   2.729   1.796  0.2755  0.2148 -0.8555
  798TIP3   OH2 2336   8.204   1.604   0.739 -0.2013  0.0493 -0.3387
  798TIP3    H1 2337   8.222   1.611   0.833 -2.6565  1.5432  0.0997
  798TIP3    H2 2338   8.182   1.693   0.712  1.7043 -0.1048 -2.6728
  799TIP3   OH2 2339   0.597   0.139   5.888 -0.1593  0.1823 -0.4734
  799TIP3    H1 2340   0.609   0.226   5.927  0.3614 -0.0787 -0.0561
  799TIP3    H2 2341   0.672   0.129   5.829  0.2309 -0.3281  0.1061
  800TIP3   OH2 2342   4.887   6.816   1.080 -0.2346 -0.3409 -0.3543
  800TIP3    H1 2343   4.863   6.870   1.156 -1.9549 -1.0404 -0.3558
  800TIP3    H2 2344   4.936   6.743   1.117  0.7800  0.4111 -0.1786
  801TIP3   OH2 2345   2.331   3.631   2.120 -0.3518  0.2812 -0.9049
  801TIP3    H1 2346   2.238   3.611   2.123  0.0807 -1.9830 -0.3025
  801TIP3    H2 2347   2.357   3.606   2.031 -0.2955  0.7763 -1.0273
  802TIP3   OH2 2348   4.683   2.557   2.809  0.8262 -0.0786  0.3632
  802TIP3    H1 2349   4.730   2.475   2.792 -0.9561 -0.4727 -4.4132
  802TIP3    H2 2350   4.591   2.530   2.812  0.1647  1.6851 -1.8093
  803TIP3   OH2 2351   5.520   0.592   2.029 -0.0966 -0.4681  0.3094
  803TIP3    H1 2352   5.429   0.567   2.047 -0.0828  0.5708  2.0699
  803TIP3    H2 2353   5.515   0.685   2.005  0.7324  0.6845  3.9576
  804TIP3   OH2 2354   2.570   2.468   5.974  0.5040  0.1287 -0.2908
  804TIP3    H1 2355   2.647   2.426   6.013  0.2181  0.4074  0.6044
  804TIP3    H2 2356   2.529   2.399   5.921  1.2731 -0.0645 -0.6530
  805TIP3   OH2 2357   5.636   0.081   2.637  0.0691 -0.5115 -0.1147
  805TIP3    H1 2358   5.641  -0.013   2.653 -1.2064 -0.8934 -1.7489
  805TIP3    H2 2359   5.693   0.095   2.562 -1.4169 -0.3764 -1.2601
  806TIP3   OH2 2360   5.474   2.693   0.718 -0.7656  0.3954 -0.5025
  806TIP3    H1 2361   5.413   2.626   0.749 -1.0198  0.0406 -1.7311
  806TIP3    H2 2362   5.418   2.763   0.685 -0.5064  0.5757 -0.5563
  807TIP3   OH2 2363   4.238   6.091   6.191  0.1717 -0.5966 -0.2956
  807TIP3    H1 2364   4.259   6.183   6.174 -0.5116 -0.7873 -2.5838
  807TIP3    H2 2365   4.321   6.045   6.183  0.3030 -0.3196 -0.5562
  808TIP3   OH2 2366   5.020   7.143   2.413  0.0188  0.4542 -0.0224
  808TIP3    H1 2367   5.014   7.048   2.428  1.7698  0.5059  1.2537
  808TIP3    H2 2368   5.061   7.151   2.327 -1.3672  0.0931 -0.7471
  809TIP3   OH2 2369   2.589   0.318   2.708 -0.0340  0.3761  0.2359
  809TIP3    H1 2370   2.531   0.286   2.778  1.6515  0.9550  1.9954
  809TIP3    H2 2371   2.616   0.239   2.662  0.5854 -0.3241  1.7128
  810TIP3   OH2 2372   6.131   4.926   3.636  0.3119  0.2661  0.3339
  810TIP3    H1 2373   6.180   4.907   3.716  0.4570  0.8694  0.3957
  810TIP3    H2 2374   6.043   4.949   3.665  0.4933  0.9528  0.3662
  811TIP3   OH2 2375   6.355   0.161   1.201  0.2365 -0.3650  0.3813
  811TIP3    H1 2376   6.371   0.070   1.225  1.2773 -0.1606  0.5070
  811TIP3    H2 2377   6.417   0.211   1.255  0.0480  0.3766 -0.0763
  812TIP3   OH2 2378   7.420   6.688   3.035  0.3112 -0.1606 -0.2138
  812TIP3    H1 2379   7.365   6.756   3.074 -1.6445 -1.7463 -0.0442
  812TIP3    H2 2380   7.423   6.618   3.100 -1.4767 -2.0904 -2.0551
  813TIP3   OH2 2381   4.469   3.271   2.604  0.1363  0.0991  0.1358
  813TIP3    H1 2382   4.469   3.323   2.524 -1.3633 -1.2002 -0.7469
  813TIP3    H2 2383   4.412   3.319   2.664 -0.0242  0.2598 -0.1447
  814TIP3   OH2 2384   0.856   1.487   5.499 -0.3625  0.3813 -0.4104
  814TIP3    H1 2385   0.817   1.409   5.458 -0.5462  0.5938 -0.6392
  814TIP3    H2 2386   0.874   1.459   5.589 -0.9529  0.2480 -0.3287
  815TIP3   OH2 2387   1.479   6.754   2.780  0.4466  0.1476  0.1827
  815TIP3    H1 2388   1.420   6.757   2.705  1.8081 -0.1590 -0.9385
  815TIP3    H2 2389   1.435   6.806   2.847  0.0154  2.0009 -1.4385
  816TIP3   OH2 2390   2.372   4.743   1.974  0.2440 -0.0917 -0.4969
  816TIP3    H1 2391   2.343   4.665   2.021  0.3301 -0.2005 -0.6248
  816TIP3    H2 2392   2.291   4.781   1.939 -0.0602  0.9562  1.1889
  817TIP3   OH2 2393   1.671   0.725   4.781 -0.1149  0.2157  0.4273
  817TIP3    H1 2394   1.757   0.685   4.795  0.1629  0.6973  0.1262
  817TIP3    H2 2395   1.659   0.784   4.855 -0.0214  0.4284  0.2729
  818TIP3   OH2 2396   0.039   1.722   1.740 -0.0242  0.2967  0.1685
  818TIP3    H1 2397  -0.023   1.760   1.678 -0.6872 -0.1029  0.5697
  818TIP3    H2 2398  -0.011   1.716   1.822 -0.2261 -2.1601 -0.0684
  819TIP3   OH2 2399   4.839   1.051   4.022 -0.2240 -0.0005  0.6790
  819TIP3    H1 2400   4.758   1.102   4.019 -0.3642 -0.2562 -0.1292
  819TIP3    H2 2401   4.887   1.087   4.097 -0.6928  0.7494  0.6341
  820TIP3   OH2 2402   5.576   1.051   4.319  0.1035 -0.2423  0.4963
  820TIP3    H1 2403   5.556   1.141   4.345  0.3156  0.4726 -1.6615
  820TIP3    H2 2404   5.495   1.003   4.335 -0.4452  0.6252  0.3856
  821TIP3   OH2 2405   4.795   2.767   4.332  0.3846 -0.0999  0.3542
  821TIP3    H1 2406   4.876   2.745   4.286 -0.2099 -0.2803 -0.6492
  821TIP3    H2 2407   4.816   2.847   4.380  1.3416 -0.5084  0.6477
  822TIP3   OH2 2408   6.586   1.184   5.552  0.2185 -0.6574  0.5902
  822TIP3    H1 2409   6.548   1.239   5.621  1.7681  0.5643  0.5569
  822TIP3    H2 2410   6.603   1.100   5.595 -0.2881 -0.4316  1.2506
  823TIP3   OH2 2411   6.673   5.977   3.242 -0.3047  0.2625  0.3715
  823TIP3    H1 2412   6.648   5.960   3.151 -0.7671 -0.4143  0.6136
  823TIP3    H2 2413   6.672   5.890   3.283  2.2084  0.2003  0.4617
  824TIP3   OH2 2414   2.206   6.964   4.784  0.8233  0.7056  0.0618
  824TIP3    H1 2415   2.238   7.047   4.819 -0.4813  0.9342  0.8105
  824TIP3    H2 2416   2.131   6.942   4.840  0.6004 -0.5245 -0.6762
  825TIP3   OH2 2417   4.899   1.128   0.935 -0.1123 -0.4529 -0.9159
  825TIP3    H1 2418   4.804   1.119   0.943 -0.2151  0.9070 -0.3859
  825TIP3    H2 2419   4.933   1.094   1.017 -0.3342  1.3915 -0.0096
  826TIP3   OH2 2420   0.450   6.546   3.523 -0.4271  0.0684  0.1443
  826TIP3    H1 2421   0.378   6.551   3.461 -0.6350 -0.3832  0.3509
  826TIP3    H2 2422   0.432   6.616   3.586 -1.0960 -0.5237  0.6265
  827TIP3   OH2 2423   1.065   6.240   5.148  0.1187 -0.4364  0.8018
  827TIP3    H1 2424   1.063   6.174   5.217  0.5755 -0.6482  0.6137
  827TIP3    H2 2425   1.053   6.323   5.195  0.0842 -0.6049  1.0965
  828TIP3   OH2 2426   0.912   0.090   3.588 -0.1733  0.1900  0.0344
  828TIP3    H1 2427   0.955   0.142   3.520 -0.9276  0.1542 -0.4820
  828TIP3    H2 2428   0.895   0.152   3.659  0.7589  0.1939  0.2638
  829TIP3   OH2 2429   7.468   1.475   6.502  0.1235 -0.3636  0.3023
  829TIP3    H1 2430   7.480   1.561   6.542 -1.8209 -0.3059  0.8553
  829TIP3    H2 2431   7.555   1.436   6.503  1.1249  1.7084 -0.2676
  830TIP3   OH2 2432   5.893   0.608   5.056  0.8659 -0.7867  0.4011
  830TIP3    H1 2433   5.923   0.682   5.109  0.5146 -1.5321  1.6775
  830TIP3    H2 2434   5.850   0.648   4.981  0.2858  0.3216  1.2942
  831TIP3   OH2 2435   4.599   5.459   1.066  0.1853  0.0002  0.3386
  831TIP3    H1 2436   4.586   5.369   1.095  0.7554  0.6403  2.8174
  831TIP3    H2 2437   4.679   5.457   1.014 -0.4190 -1.0752 -0.6034
  832TIP3   OH2 2438   1.511   4.586   5.729  0.4169 -0.1210 -0.0386
  832TIP3    H1 2439   1.439   4.558   5.674 -0.0759 -0.9669  1.0082
  832TIP3    H2 2440   1.547   4.505   5.765  0.1171  0.4407  1.6211
  833TIP3   OH2 2441   1.123   3.360   3.708  0.2273 -0.2726  0.4218
  833TIP3    H1 2442   1.106   3.272   3.673 -1.3910 -0.2796  1.1182
  833TIP3    H2 2443   1.100   3.418   3.636 -1.2714 -0.3545  0.8035
  834TIP3   OH2 2444   3.564   1.439   4.037  0.1123 -0.4641 -0.6421
  834TIP3    H1 2445   3.562   1.385   3.958  0.2636  0.7768 -1.5239
  834TIP3    H2 2446   3.573   1.376   4.108 -0.0265 -1.6191 -1.6026
  835TIP3   OH2 2447   3.007   2.829   0.256 -0.0114  0.3300 -0.7803
  835TIP3    H1 2448   3.074   2.852   0.191  0.1371 -1.2109 -1.2217
  835TIP3    H2 2449   2.963   2.911   0.276  0.6050  1.0109 -2.1012
  836TIP3   OH2 2450   6.055   2.077   3.449 -0.2202  0.0495 -0.1137
  836TIP3    H1 2451   5.986   2.119   3.499 -0.4166  1.0212 -1.1579
  836TIP3    H2 2452   6.028   2.087   3.357  0.6492 -0.7362 -0.4754
  837TIP3   OH2 2453   2.952   1.847   6.345  0.4060  0.4829  0.3407
  837TIP3    H1 2454   2.884   1.780   6.353  0.6943  0.3459  1.9691
  837TIP3    H2 2455   3.024   1.803   6.301  0.4457 -0.1953  1.0540
  838TIP3   OH2 2456   4.780   4.926   4.608  0.2228  0.0073 -0.2287
  838TIP3    H1 2457   4.766   4.835   4.636 -0.2058  1.0998  3.6297
  838TIP3    H2 2458   4.875   4.938   4.610  0.2084  0.0323  0.8205
  839TIP3   OH2 2459   7.284   1.519   4.394 -0.1370 -0.0865 -0.5062
  839TIP3    H1 2460   7.224   1.521   4.319  0.1765  1.4265 -0.7614
  839TIP3    H2 2461   7.229   1.538   4.469 -0.2822 -0.5761 -0.4866
  840TIP3   OH2 2462   5.143   3.219   0.272 -0.0806  0.2180  0.4152
  840TIP3    H1 2463   5.122   3.126   0.285  1.6078 -0.2835 -0.2155
  840TIP3    H2 2464   5.059   3.258   0.247 -0.8137 -1.1500  0.6028
  841TIP3   OH2 2465   5.439   0.957   1.071 -0.0108 -0.3164 -0.0992
  841TIP3    H1 2466   5.438   0.872   1.116 -0.8704 -0.0010  0.4932
  841TIP3    H2 2467   5.532   0.973   1.054  0.2749 -0.7986  0.8923
  842TIP3   OH2 2468   0.112   5.822   1.178 -0.0777 -0.0762 -0.0425
  842TIP3    H1 2469   0.125   5.841   1.271 -0.3434  1.0412 -0.2182
  842TIP3    H2 2470   0.178   5.876   1.133 -1.4025  1.1455 -0.6087
  843TIP3   OH2 2471   1.150   7.201   5.016  0.5211  0.2506  0.1284
  843TIP3    H1 2472   1.244   7.216   5.023  0.6786 -0.2999 -0.6252
  843TIP3    H2 2473   1.120   7.266   4.952  0.6153 -0.3650 -0.5592
  844TIP3   OH2 2474   0.024   1.222   0.970  0.7030  0.5341 -0.4331
  844TIP3    H1 2475  -0.035   1.252   0.901 -0.0238  0.9563  0.3645
  844TIP3    H2 2476   0.042   1.300   1.023  1.4822  0.2746 -0.2940
  845TIP3   OH2 2477   6.452   6.082   5.384  0.4432  0.0079 -0.0753
  845TIP3    H1 2478   6.441   6.057   5.292  0.2479 -1.3504  0.2946
  845TIP3    H2 2479   6.545   6.099   5.393  0.2864  1.4798 -0.8139
  846TIP3   OH2 2480   6.824   6.118   6.195 -0.3855  0.4328  0.2745
  846TIP3    H1 2481   6.818   6.170   6.115  2.6797 -0.6631 -0.7845
  846TIP3    H2 2482   6.748   6.059   6.191 -1.2483  1.5690 -0.8945
  847TIP3   OH2 2483   2.686   4.910   4.517  0.4072  0.1833  0.1408
  847TIP3    H1 2484   2.683   4.814   4.510  0.4855  0.2309 -0.6830
  847TIP3    H2 2485   2.688   4.927   4.611 -0.5296 -0.5936  0.3164
  848TIP3   OH2 2486   6.236   5.928   0.824  0.5501  0.1821  0.3639
  848TIP3    H1 2487   6.216   6.018   0.849 -1.8343  0.0360 -0.6846
  848TIP3    H2 2488   6.221   5.877   0.903 -0.5455  0.4505  0.3487
  849TIP3   OH2 2489   3.463   0.484   2.106 -0.7314 -0.3375 -0.6776
  849TIP3    H1 2490   3.412   0.404   2.120 -1.0428 -0.1382 -0.6469
  849TIP3    H2 2491   3.404   0.542   2.058 -0.9348  0.3103  0.3165
  850TIP3   OH2 2492   5.512   1.305   3.037 -0.1400  0.7204  0.7475
  850TIP3    H1 2493   5.504   1.372   3.105  0.8794 -0.8238  2.4893
  850TIP3    H2 2494   5.512   1.222   3.085 -3.0943 -0.7155 -1.4298
  851TIP3   OH2 2495   3.686   2.404   3.319 -0.2051 -0.0498  0.4601
  851TIP3    H1 2496   3.721   2.492   3.329 -0.8577  0.0752  1.9009
  851TIP3    H2 2497   3.762   2.347   3.326  0.2782  0.3951 -0.9110
  852TIP3   OH2 2498   1.463   4.463   2.097  0.8349 -0.0097 -0.0594
  852TIP3    H1 2499   1.431   4.509   2.175  0.8491  1.8862 -1.1265
  852TIP3    H2 2500   1.417   4.504   2.025  0.4770 -2.0452 -1.0647
  853TIP3   OH2 2501   6.445   6.903   0.478 -0.5479  0.4808  0.0041
  853TIP3    H1 2502   6.395   6.921   0.399  0.4039  1.6471 -0.3502
  853TIP3    H2 2503   6.382   6.912   0.549 -2.0269 -2.8985 -0.6658
  854TIP3   OH2 2504   6.973  -0.001   6.221 -0.0255 -0.3914  0.3312
  854TIP3    H1 2505   7.066  -0.023   6.218  0.2327  0.7353 -0.1409
  854TIP3    H2 2506   6.964   0.076   6.166 -1.1955 -0.3062  0.6114
  855TIP3   OH2 2507   6.184   6.202   4.996 -0.2056 -0.1171 -0.3114
  855TIP3    H1 2508   6.240   6.133   5.033 -0.7867 -0.2003  0.4466
  855TIP3    H2 2509   6.129   6.157   4.932  0.5293 -0.0518 -0.9933
  856TIP3   OH2 2510   0.786   0.408   4.926  0.5820  1.2691 -0.0665
  856TIP3    H1 2511   0.817   0.350   4.857  0.7882 -1.2925  1.9998
  856TIP3    H2 2512   0.698   0.377   4.946  1.1009  0.8948  1.8296
  857TIP3   OH2 2513   5.865   1.924   0.262 -0.0760 -0.0093  0.5170
  857TIP3    H1 2514   5.960   1.913   0.263  0.2512  1.9846 -1.2553
  857TIP3    H2 2515   5.833   1.851   0.209  0.6804  0.2537 -0.3343
  858TIP3   OH2 2516   4.314   5.057   2.042  0.1393  0.0413  0.1545
  858TIP3    H1 2517   4.286   5.109   1.966 -0.2021  1.0900  0.9639
  858TIP3    H2 2518   4.409   5.066   2.043  0.2340 -0.7766 -0.6964
  859TIP3   OH2 2519   7.753   4.863   6.682 -0.1392  0.2114 -0.1326
  859TIP3    H1 2520   7.733   4.928   6.614  0.1760 -1.1839 -1.6293
  859TIP3    H2 2521   7.784   4.915   6.757  0.4656  1.7593 -1.3907
  860TIP3   OH2 2522   0.039   7.467   4.553  0.2993  0.1950  0.2267
  860TIP3    H1 2523  -0.043   7.426   4.525  0.2122  0.3150  0.3065
  860TIP3    H2 2524   0.037   7.463   4.648  0.8264 -0.6727  0.2136
  861TIP3   OH2 2525   6.378   4.482   4.125  0.0861 -0.1605  0.2562
  861TIP3    H1 2526   6.377   4.389   4.148 -1.3762 -0.4268 -0.7245
  861TIP3    H2 2527   6.312   4.522   4.182 -0.6228 -0.0829 -0.5953
  862TIP3   OH2 2528   5.277   2.821   5.055  0.4638  0.1456 -0.7481
  862TIP3    H1 2529   5.219   2.892   5.029  0.2837  0.8731  1.4514
  862TIP3    H2 2530   5.243   2.792   5.139  1.9483 -0.9462 -0.4944
  863TIP3   OH2 2531   7.266   0.670   6.219  0.1532 -0.1345  0.0526
  863TIP3    H1 2532   7.325   0.595   6.217  1.8430  1.1170 -1.7018
  863TIP3    H2 2533   7.306   0.730   6.283  0.7451  0.6341 -0.9977
  864TIP3   OH2 2534   2.502   4.997   3.727 -0.3380  0.2966 -0.0737
  864TIP3    H1 2535   2.445   4.937   3.678  0.4402  0.2142 -0.9030
  864TIP3    H2 2536   2.563   5.031   3.661 -0.0420  1.1293  0.6111
  865TIP3   OH2 2537   7.328   1.379   5.322  0.0431  0.3597  0.4293
  865TIP3    H1 2538   7.355   1.399   5.412 -0.5096 -0.1309  0.7154
  865TIP3    H2 2539   7.288   1.292   5.329 -1.6445  1.0746  0.0528
  866TIP3   OH2 2540   0.065   4.020   1.825 -0.0066 -0.1772 -0.4218
  866TIP3    H1 2541   0.049   3.973   1.906 -0.7751 -1.0683 -1.0699
  866TIP3    H2 2542  -0.022   4.038   1.789  0.3104  0.6518 -0.8036
  867TIP3   OH2 2543   6.874   4.550   4.029 -0.4044 -0.2649  0.3007
  867TIP3    H1 2544   6.901   4.513   3.946  1.0736  1.6779 -0.1614
  867TIP3    H2 2545   6.879   4.645   4.016  0.3405  0.1004  2.7165
  868TIP3   OH2 2546   3.093   4.618   5.657 -0.7349 -0.3671 -0.3093
  868TIP3    H1 2547   3.185   4.591   5.654  0.2207  2.4588 -3.4849
  868TIP3    H2 2548   3.048   4.556   5.599  0.0662  0.5905 -2.0350
  869TIP3   OH2 2549   4.072   2.981   2.046 -0.3485 -0.3044 -0.3008
  869TIP3    H1 2550   4.145   3.041   2.062 -0.3100 -0.7394  1.2939
  869TIP3    H2 2551   4.051   2.945   2.132  0.4961 -3.5786 -1.3066
  870TIP3   OH2 2552   3.113   3.182   4.589 -0.3641  0.2935  0.2797
  870TIP3    H1 2553   3.175   3.222   4.651 -1.0907 -0.4415  1.5166
  870TIP3    H2 2554   3.168   3.134   4.527  0.3647  0.7700  0.5465
  871TIP3   OH2 2555   1.461   5.994   0.421 -0.3392 -0.3230  0.0078
  871TIP3    H1 2556   1.502   6.017   0.337  0.9335 -0.4357  0.5654
  871TIP3    H2 2557   1.447   6.078   0.464 -1.1292 -0.2556 -0.3692
  872TIP3   OH2 2558   6.436   2.921   2.397 -0.0257 -0.2709  0.7243
  872TIP3    H1 2559   6.343   2.921   2.372 -0.3382 -0.6080  1.8610
  872TIP3    H2 2560   6.436   2.945   2.489  1.0688  0.2978  0.5791
  873TIP3   OH2 2561   7.227   3.136   6.248 -0.3748 -0.0131  0.2930
  873TIP3    H1 2562   7.144   3.178   6.224 -0.2057 -0.3015 -0.8621
  873TIP3    H2 2563   7.286   3.158   6.177 -0.5138 -2.8868 -0.8596
  874TIP3   OH2 2564   4.200   0.642   0.122 -0.5316 -0.1707 -0.2213
  874TIP3    H1 2565   4.111   0.633   0.156 -1.4155  4.1022 -0.8998
  874TIP3    H2 2566   4.255   0.643   0.200 -1.1071 -1.7079  0.2640
  875TIP3   OH2 2567   0.522   5.650   2.363 -0.1189 -0.0506  0.3541
  875TIP3    H1 2568   0.550   5.640   2.272  0.1386  1.7814  0.1914
  875TIP3    H2 2569   0.433   5.684   2.357 -0.0098  0.3190  0.7740
  876TIP3   OH2 2570   2.033   6.421   3.712 -0.5746 -0.1085 -0.3149
  876TIP3    H1 2571   2.051   6.488   3.778 -1.2552 -0.2080 -0.0132
  876TIP3    H2 2572   2.109   6.422   3.655  0.1180 -0.1509  0.5813
  877TIP3   OH2 2573   6.656   0.266   0.289  0.1487 -0.4241  0.0933
  877TIP3    H1 2574   6.721   0.209   0.330 -0.0560  0.7312  2.1879
  877TIP3    H2 2575   6.591   0.282   0.357 -0.4532  1.2960 -0.8078
  878TIP3   OH2 2576   3.954   4.087   2.026 -0.2158  0.2631 -0.4645
  878TIP3    H1 2577   3.981   4.175   2.054  1.6711  0.2031 -1.8963
  878TIP3    H2 2578   3.930   4.098   1.934 -0.6621 -0.6172 -0.4649
  879TIP3   OH2 2579   7.818   6.474   6.116 -0.1409  0.5545 -0.0707
  879TIP3    H1 2580   7.782   6.515   6.038  3.1535 -1.7602 -3.1321
  879TIP3    H2 2581   7.910   6.500   6.117  0.5949 -1.7623  1.3041
  880TIP3   OH2 2582   0.178   2.966   1.643 -0.2656 -0.2404  0.6305
  880TIP3    H1 2583   0.162   2.874   1.660  0.0135 -0.7006 -1.3456
  880TIP3    H2 2584   0.145   3.011   1.721 -1.6771 -1.8907  1.0482
  881TIP3   OH2 2585   2.198   7.031   0.293  0.1856  0.1450 -0.0370
  881TIP3    H1 2586   2.154   7.114   0.277  0.8679  0.4923 -0.1621
  881TIP3    H2 2587   2.168   7.003   0.379 -0.0963  0.4912 -0.0235
  882TIP3   OH2 2588   4.765   1.803   5.065  0.0297 -0.3625  0.2779
  882TIP3    H1 2589   4.826   1.850   5.007 -0.6947  0.7231  0.3687
  882TIP3    H2 2590   4.793   1.828   5.153 -2.2867  2.6175  0.3466
  883TIP3   OH2 2591   3.853   4.551   5.820 -0.2905  0.0473 -0.1491
  883TIP3    H1 2592   3.771   4.590   5.851 -1.5646 -1.6900 -1.1265
  883TIP3    H2 2593   3.889   4.507   5.897 -0.7617  0.0779  0.0936
  884TIP3   OH2 2594   2.093   4.610   3.521 -0.3360  0.0293  0.2729
  884TIP3    H1 2595   2.083   4.619   3.427  0.1920  2.7964  0.3942
  884TIP3    H2 2596   2.007   4.583   3.552 -0.1552 -2.3205 -1.0651
  885TIP3   OH2 2597   3.076   0.156   3.119  0.6342 -0.1607  0.1594
  885TIP3    H1 2598   3.068   0.246   3.148  0.1426 -0.5870  1.4112
  885TIP3    H2 2599   3.055   0.159   3.026  1.6513  1.1592 -0.0584
  886TIP3   OH2 2600   6.929   2.938   3.331  0.2381 -0.5437  0.7151
  886TIP3    H1 2601   7.019   2.958   3.357  1.2750  0.6358 -3.0983
  886TIP3    H2 2602   6.938   2.897   3.245 -2.9033 -0.0402  0.0338
  887TIP3   OH2 2603   2.538   3.788   3.925  0.2146 -0.7444 -0.3163
  887TIP3    H1 2604   2.592   3.857   3.886  1.0477 -0.3529  1.4248
  887TIP3    H2 2605   2.450   3.806   3.894  0.1814  1.8571  1.0025
  888TIP3   OH2 2606   8.194   6.928   6.386 -0.2916 -0.1081  0.1192
  888TIP3    H1 2607   8.286   6.908   6.401 -0.4492 -1.2323 -0.3295
  888TIP3    H2 2608   8.169   6.983   6.460  1.4458  2.6329 -1.1442
  889TIP3   OH2 2609   7.473   1.128   5.533 -0.1387 -0.4613  0.6562
  889TIP3    H1 2610   7.505   1.115   5.622  0.3329 -2.1981  0.2585
  889TIP3    H2 2611   7.547   1.167   5.486 -0.4369  0.5993  1.0291
  890TIP3   OH2 2612   5.470   2.812   2.994 -0.9251  0.4282 -0.6038
  890TIP3    H1 2613   5.523   2.892   2.994 -0.2110 -0.0312 -0.8623
  890TIP3    H2 2614   5.387   2.838   3.033 -0.1463  0.9343  0.7796
  891TIP3   OH2 2615   7.807   1.495   5.819  0.3210  0.1652  0.9141
  891TIP3    H1 2616   7.808   1.404   5.790  3.0543  0.6268 -0.8645
  891TIP3    H2 2617   7.769   1.544   5.746  2.0020  0.7374  0.3603
  892TIP3   OH2 2618   7.770   6.798   1.004 -0.2831 -0.1255  0.8000
  892TIP3    H1 2619   7.758   6.892   1.016 -1.9835 -0.1649 -0.2994
  892TIP3    H2 2620   7.682   6.764   0.987  0.2759 -1.9551  1.3737
  893TIP3   OH2 2621   1.808   0.782   2.629 -0.2496  0.2980  0.1275
  893TIP3    H1 2622   1.846   0.744   2.549  0.9129  1.3423  0.1542
  893TIP3    H2 2623   1.881   0.829   2.670 -1.3657  1.6151  0.6744
  894TIP3   OH2 2624   7.856   3.621   5.468 -0.0691 -0.4134  0.0718
  894TIP3    H1 2625   7.789   3.568   5.512  0.0361  0.8859  1.8983
  894TIP3    H2 2626   7.814   3.705   5.452 -0.1981 -0.8991 -2.7036
  895TIP3   OH2 2627   7.107   5.135   3.690  0.4430  0.0660  0.3329
  895TIP3    H1 2628   7.044   5.065   3.673 -0.4951  0.7913  0.7175
  895TIP3    H2 2629   7.175   5.123   3.623  0.1388 -0.9998  0.1876
  896TIP3   OH2 2630   6.828   7.797   0.938  0.2648  0.1850 -0.7419
  896TIP3    H1 2631   6.745   7.830   0.903  1.4169  1.9878 -1.9472
  896TIP3    H2 2632   6.806   7.764   1.025 -1.1928  3.6180  0.3573
  897TIP3   OH2 2633   0.878   0.910   6.384  0.2365 -0.1966  0.1862
  897TIP3    H1 2634   0.818   0.981   6.360  0.7522  0.1364 -0.1561
  897TIP3    H2 2635   0.860   0.894   6.476  1.7398  2.0314  0.9495
  898TIP3   OH2 2636   3.419   7.560   2.314 -0.0174 -0.4621  0.3799
  898TIP3    H1 2637   3.323   7.559   2.310 -0.0744 -1.3739  1.3709
  898TIP3    H2 2638   3.441   7.647   2.347 -0.3994  0.3077 -1.2820
  899TIP3   OH2 2639   6.155   0.364   1.167  0.4265 -0.3032 -0.0990
  899TIP3    H1 2640   6.102   0.324   1.237 -2.1855 -1.5442 -2.5503
  899TIP3    H2 2641   6.238   0.317   1.170 -0.6539 -2.3101  0.4730
  900TIP3   OH2 2642   1.540   2.221   6.122  0.2437 -0.4906  0.2781
  900TIP3    H1 2643   1.509   2.270   6.046 -1.0402 -0.2037  0.9540
  900TIP3    H2 2644   1.549   2.287   6.191  0.5738 -0.8756  0.6090
  901TIP3   OH2 2645   1.461   3.406   1.722 -0.0914  0.2062 -0.2042
  901TIP3    H1 2646   1.474   3.376   1.633  1.2124  0.6697 -0.1977
  901TIP3    H2 2647   1.512   3.346   1.776 -0.2570  0.3732  0.1430
  902TIP3   OH2 2648   4.292   7.505   4.489  0.2492  0.6189  0.1426
  902TIP3    H1 2649   4.371   7.557   4.472 -0.1353  1.2421  0.2065
  902TIP3    H2 2650   4.289   7.496   4.584  0.1078  0.8178  0.1577
  903TIP3   OH2 2651   5.548   4.254   0.098  0.5292 -0.3261 -0.3440
  903TIP3    H1 2652   5.489   4.268   0.172  0.2058 -0.3767 -0.5880
  903TIP3    H2 2653   5.588   4.339   0.082  1.5840 -0.5984  0.7100
  904TIP3   OH2 2654   4.830   7.722   3.921  0.0119 -0.0532  0.1950
  904TIP3    H1 2655   4.876   7.690   3.844 -0.8296 -0.6736 -0.0739
  904TIP3    H2 2656   4.755   7.771   3.886  0.0732  0.3486  0.6180
  905TIP3   OH2 2657   1.670   3.981   4.252  0.4626 -0.3383  0.6701
  905TIP3    H1 2658   1.761   3.999   4.274 -0.0831  3.0371  0.6991
  905TIP3    H2 2659   1.666   3.991   4.157  0.1701 -0.5981  0.6553
  906TIP3   OH2 2660   5.956   2.889   4.405  0.1022  0.0310  0.8774
  906TIP3    H1 2661   6.001   2.805   4.415  0.1864  0.1774  1.9002
  906TIP3    H2 2662   5.870   2.867   4.369  0.7527 -0.3106 -0.5040
  907TIP3   OH2 2663   4.813   5.710   3.647 -0.1105  0.0529  0.4134
  907TIP3    H1 2664   4.746   5.650   3.681  0.7002  0.0252  2.0612
  907TIP3    H2 2665   4.806   5.788   3.702 -0.3397  1.0090 -0.9314
  908TIP3   OH2 2666   4.101   1.699   2.997 -0.2608  0.0605  0.1829
  908TIP3    H1 2667   4.041   1.764   2.962 -0.7867 -0.5434 -0.0447
  908TIP3    H2 2668   4.058   1.666   3.076 -0.2648 -0.4180 -0.0147
  909TIP3   OH2 2669   5.202   6.876   1.103 -0.1296 -0.3085 -0.0889
  909TIP3    H1 2670   5.263   6.950   1.100 -1.0705  0.4529 -0.5604
  909TIP3    H2 2671   5.223   6.832   1.186 -0.0137  0.8652  0.5257
  910TIP3   OH2 2672   1.381   3.400   5.260  0.3900 -0.1438 -0.0501
  910TIP3    H1 2673   1.438   3.470   5.291 -0.1282 -0.7193  2.4571
  910TIP3    H2 2674   1.439   3.340   5.213  1.6264 -0.0458  1.2868
  911TIP3   OH2 2675   6.542   0.987   3.840 -0.2776  0.2202  0.0410
  911TIP3    H1 2676   6.620   0.938   3.866  0.6754  0.8421 -1.5396
  911TIP3    H2 2677   6.501   0.933   3.773 -1.2475 -0.1146  0.8821
  912TIP3   OH2 2678   2.277   7.222   4.834 -0.0046  0.0780 -0.2869
  912TIP3    H1 2679   2.308   7.280   4.765  0.3047  0.9388  0.5594
  912TIP3    H2 2680   2.226   7.278   4.891 -1.1950 -0.8550 -0.4028
  913TIP3   OH2 2681   1.352   0.700   1.052  0.5157 -0.1578 -0.5453
  913TIP3    H1 2682   1.257   0.698   1.067  0.4542 -1.1910 -1.0105
  913TIP3    H2 2683   1.380   0.609   1.062  1.0306 -0.3453 -3.0287
  914TIP3   OH2 2684   6.120   1.318   5.320  0.1005 -0.1990 -0.0268
  914TIP3    H1 2685   6.049   1.258   5.339  1.8423 -2.0138  1.1677
  914TIP3    H2 2686   6.126   1.375   5.396  0.0953 -0.2212 -0.0102
  915TIP3   OH2 2687   6.968   2.837   3.654 -0.0546 -0.1030 -0.2830
  915TIP3    H1 2688   6.990   2.928   3.633  1.7173 -0.5945 -0.6925
  915TIP3    H2 2689   6.987   2.829   3.748 -2.1918  0.4560  0.2610
  916TIP3   OH2 2690   7.107   5.104   3.996 -0.2495 -0.2524 -0.1429
  916TIP3    H1 2691   7.143   5.017   4.013  0.5735 -0.2506 -1.6887
  916TIP3    H2 2692   7.124   5.119   3.903 -1.8696  0.8822 -0.2929
  917TIP3   OH2 2693   3.805   4.102   2.684 -0.1385  0.2144  0.2631
  917TIP3    H1 2694   3.833   4.090   2.593 -0.2793  2.4772 -0.1215
  917TIP3    H2 2695   3.727   4.046   2.692 -0.4190  0.3622 -1.1699
  918TIP3   OH2 2696   3.010   3.307   2.401  0.0195  0.0052  0.8310
  918TIP3    H1 2697   3.101   3.333   2.389 -0.8472  2.5172 -0.9648
  918TIP3    H2 2698   2.962   3.390   2.412 -2.2674 -1.1350  0.1005
  919TIP3   OH2 2699   1.470   3.386   4.471  0.6222 -0.5260  0.1581
  919TIP3    H1 2700   1.529   3.440   4.523 -0.5845  1.2462 -0.2281
  919TIP3    H2 2701   1.440   3.318   4.531  1.2549 -0.0643  1.0134
  920TIP3   OH2 2702   3.274   6.577   5.687 -0.2716  0.2998  0.8856
  920TIP3    H1 2703   3.337   6.642   5.657 -0.3135 -0.0719 -0.0400
  920TIP3    H2 2704   3.191   6.603   5.646 -0.2646 -0.3871  0.4279
  921TIP3   OH2 2705   2.334   2.780   6.202  0.4836  0.0909  0.8360
  921TIP3    H1 2706   2.280   2.702   6.210 -0.6491  0.9476  1.8467
  921TIP3    H2 2707   2.400   2.771   6.270  0.0107  0.2603  1.3272
  922TIP3   OH2 2708   5.999   0.325   5.683 -0.1601  0.0168 -0.2813
  922TIP3    H1 2709   5.947   0.277   5.748 -0.8425 -0.4687 -1.1556
  922TIP3    H2 2710   6.084   0.336   5.724 -0.3579 -0.9151  0.4192
  923TIP3   OH2 2711   1.380   1.210   2.737  0.2784  0.2035 -0.0800
  923TIP3    H1 2712   1.461   1.217   2.686  0.3840 -1.4260 -0.1734
  923TIP3    H2 2713   1.311   1.203   2.671 -0.4049  4.4364 -0.1278
  924TIP3   OH2 2714   0.678   5.861   5.146  0.3989 -0.0183  0.0983
  924TIP3    H1 2715   0.590   5.831   5.166  0.4336 -0.6198 -0.5973
  924TIP3    H2 2716   0.730   5.780   5.139  0.7386  0.2578 -0.6822
  925TIP3   OH2 2717   1.308   2.157   0.177  0.1560 -0.2681  0.0657
  925TIP3    H1 2718   1.364   2.179   0.102  0.7918 -1.2134  0.2449
  925TIP3    H2 2719   1.368   2.115   0.240 -0.6229 -0.6496  0.5670
  926TIP3   OH2 2720   6.487   5.175   5.292  0.1576 -0.4186 -0.3346
  926TIP3    H1 2721   6.494   5.080   5.287 -1.0987 -0.6291  1.2481
  926TIP3    H2 2722   6.393   5.193   5.291  0.3651  0.9600 -2.2685
  927TIP3   OH2 2723   6.254   3.406   3.303 -0.5874 -0.0710 -0.0005
  927TIP3    H1 2724   6.270   3.339   3.369 -1.4967  0.9482  1.2974
  927TIP3    H2 2725   6.185   3.460   3.340 -0.1759  1.3304 -1.2024
  928TIP3   OH2 2726   0.874   1.903   5.187  0.2119 -0.3343 -0.0879
  928TIP3    H1 2727   0.883   1.932   5.096 -2.5167  0.4737 -0.1950
  928TIP3    H2 2728   0.852   1.810   5.180  1.2705 -0.5872 -0.1634
  929TIP3   OH2 2729   5.376   3.491   2.502 -0.0495 -0.3105  1.1281
  929TIP3    H1 2730   5.420   3.475   2.585  0.9051 -2.2169  0.3218
  929TIP3    H2 2731   5.319   3.566   2.519  1.3722  0.4312  3.0127
  930TIP3   OH2 2732   0.554   3.845   6.086 -1.3161  0.6372  0.1773
  930TIP3    H1 2733   0.537   3.846   5.992 -1.6195  2.3735  0.2265
  930TIP3    H2 2734   0.506   3.920   6.121 -2.1344 -0.6134  1.9134
  931TIP3   OH2 2735   0.855   0.996   4.491 -0.2527  0.2199  0.4877
  931TIP3    H1 2736   0.897   0.931   4.434 -0.6134 -0.5082  1.0297
  931TIP3    H2 2737   0.820   1.062   4.431  0.3404  0.0456 -0.0598
  932TIP3   OH2 2738   0.549   4.611   2.402  0.1918 -0.3813  0.0651
  932TIP3    H1 2739   0.516   4.680   2.344 -0.8678  0.4869  1.6179
  932TIP3    H2 2740   0.517   4.636   2.489  1.5215 -1.7558  0.9967
  933TIP3   OH2 2741   3.927   3.167   5.237 -0.2609 -0.3751 -0.4084
  933TIP3    H1 2742   3.886   3.244   5.277  1.6163 -0.0227  1.0192
  933TIP3    H2 2743   3.898   3.094   5.291  0.3400 -0.2356  0.1116
  934TIP3   OH2 2744   2.170   5.984   1.033 -0.2653  0.4559  0.2772
  934TIP3    H1 2745   2.134   6.066   1.065 -0.3413  0.4091  0.3132
  934TIP3    H2 2746   2.135   5.918   1.093 -0.3403  0.3777  0.1478
  935TIP3   OH2 2747   6.905   4.996   0.480  0.5108 -0.2034  0.0481
  935TIP3    H1 2748   6.948   4.911   0.472 -2.9585 -2.0896 -0.3488
  935TIP3    H2 2749   6.905   5.014   0.574  0.4796 -1.1139  0.2331
  936TIP3   OH2 2750   5.655   2.676   5.693 -0.2748  0.6584  0.5931
  936TIP3    H1 2751   5.745   2.675   5.727 -0.6730 -0.6742  1.6862
  936TIP3    H2 2752   5.660   2.624   5.613 -0.0874  0.5295  0.6866
  937TIP3   OH2 2753   2.067   6.771   2.173  0.5684 -0.2734  0.0931
  937TIP3    H1 2754   2.035   6.710   2.106 -0.7846  0.0600  0.4058
  937TIP3    H2 2755   2.053   6.725   2.256 -1.3251  0.7714  0.4055
  938TIP3   OH2 2756   7.123   2.416   0.454 -0.4324  0.1512  0.5214
  938TIP3    H1 2757   7.074   2.497   0.439  0.1518  0.5071  0.4988
  938TIP3    H2 2758   7.140   2.415   0.548 -0.6101 -0.0474  0.5519
  939TIP3   OH2 2759   7.678   0.858   3.885  0.1823  0.4672  0.4180
  939TIP3    H1 2760   7.714   0.947   3.880 -1.2173  0.9946 -0.9945
  939TIP3    H2 2761   7.623   0.850   3.807  0.1902 -1.6184  0.5815
  940TIP3   OH2 2762   0.040   7.592   2.233 -0.2828 -0.1955  0.5686
  940TIP3    H1 2763   0.077   7.608   2.147  0.4894 -0.5606  0.8233
  940TIP3    H2 2764  -0.012   7.670   2.252  0.4707  0.3957  0.2484
  941TIP3   OH2 2765   5.978   2.335   0.614  0.0594  0.2836 -0.2302
  941TIP3    H1 2766   5.943   2.402   0.556 -0.8171 -1.5424 -1.9293
  941TIP3    H2 2767   5.902   2.308   0.667  0.0685 -0.2828 -0.4977
  942TIP3   OH2 2768   5.890   3.838   2.338 -0.8232 -0.2502 -0.0275
  942TIP3    H1 2769   5.796   3.858   2.338 -0.6788  0.4640 -0.5921
  942TIP3    H2 2770   5.924   3.882   2.260  0.3491  1.2464  1.2522
  943TIP3   OH2 2771   1.386   5.497   5.694 -0.3218  0.4153 -0.0221
  943TIP3    H1 2772   1.356   5.491   5.603  0.6441  0.6682 -0.3704
  943TIP3    H2 2773   1.419   5.586   5.702  0.0755  0.2320  0.4189
  944TIP3   OH2 2774   0.077   4.153   4.164  0.2559 -0.1722 -0.4256
  944TIP3    H1 2775  -0.010   4.169   4.129  0.5937 -0.6018 -1.5028
  944TIP3    H2 2776   0.062   4.097   4.240 -0.4412  0.1922 -0.2844
  945TIP3   OH2 2777   5.644   3.691   5.287  0.3999 -0.1338 -0.0425
  945TIP3    H1 2778   5.586   3.615   5.286  1.3219 -0.8545 -0.2987
  945TIP3    H2 2779   5.732   3.654   5.285  0.8825  0.9282  0.4961
  946TIP3   OH2 2780   6.447   0.971   2.210 -0.5256  0.6009 -0.4009
  946TIP3    H1 2781   6.373   1.031   2.202 -0.1668  1.0212 -0.5550
  946TIP3    H2 2782   6.485   0.968   2.123 -1.1936 -0.7027 -0.6766
  947TIP3   OH2 2783   6.673   7.785   5.524 -0.0859  0.0431  0.2401
  947TIP3    H1 2784   6.627   7.865   5.549 -0.8939 -0.5109  0.5829
  947TIP3    H2 2785   6.671   7.785   5.428 -0.6772  0.1059  0.2473
  948TIP3   OH2 2786   2.450   2.797   3.106 -0.3683 -0.4229 -0.9024
  948TIP3    H1 2787   2.531   2.812   3.059  0.1412  1.1712  0.3727
  948TIP3    H2 2788   2.476   2.755   3.188 -0.9016 -0.4806 -0.7542
  949TIP3   OH2 2789   5.185   1.235   3.620  0.7033 -0.1810  0.2588
  949TIP3    H1 2790   5.136   1.199   3.694  0.0176  0.0844 -0.0624
  949TIP3    H2 2791   5.247   1.165   3.597 -0.9313 -1.3810 -0.6581
  950TIP3   OH2 2792   2.133   5.505   2.335  0.5872  0.0175  0.1052
  950TIP3    H1 2793   2.170   5.439   2.275  0.0500 -0.2802  0.0905
  950TIP3    H2 2794   2.158   5.474   2.422  0.2630 -0.2554  0.1034
  951TIP3   OH2 2795   3.039   4.978   2.309 -0.1831  0.2273  0.4279
  951TIP3    H1 2796   2.953   4.982   2.351  0.4786  0.6801  1.8070
  951TIP3    H2 2797   3.095   5.030   2.366  0.7459  0.9661 -1.1123
  952TIP3   OH2 2798   7.273   0.513   0.087  0.2202  0.1115 -0.1992
  952TIP3    H1 2799   7.364   0.485   0.095 -0.1297 -1.0483 -0.0663
  952TIP3    H2 2800   7.224   0.432   0.073 -0.8968  0.6145  0.6501
  953TIP3   OH2 2801   5.433   2.070   4.985 -0.5885  0.5507 -0.6549
  953TIP3    H1 2802   5.342   2.098   4.973 -0.6468 -0.2447 -2.5059
  953TIP3    H2 2803   5.427   1.986   5.029 -0.9576 -0.7274 -3.0032
  954TIP3   OH2 2804   1.923   5.648   3.498 -0.0347 -0.5917 -0.7648
  954TIP3    H1 2805   1.979   5.707   3.548 -0.5396 -1.4285  0.8650
  954TIP3    H2 2806   1.977   5.570   3.484 -0.5141 -1.0886  0.1185
  955TIP3   OH2 2807   2.766   6.686   4.062  0.1570  0.0351  0.3514
  955TIP3    H1 2808   2.713   6.725   3.993  0.3218  2.2462  1.3683
  955TIP3    H2 2809   2.703   6.665   4.131  0.2478 -0.0908  0.3952
  956TIP3   OH2 2810   7.375   0.681   6.632  0.6073  0.1151  0.1898
  956TIP3    H1 2811   7.378   0.754   6.571 -0.4428  1.0159  1.1635
  956TIP3    H2 2812   7.335   0.609   6.582  0.0436  0.7394 -0.2796
  957TIP3   OH2 2813   6.556   1.696   3.072 -0.7867 -0.1176  0.2909
  957TIP3    H1 2814   6.469   1.664   3.095 -0.7840 -0.9437 -0.8109
  957TIP3    H2 2815   6.552   1.790   3.092 -1.6671 -0.2875  0.9911
  958TIP3   OH2 2816   2.714   7.136   5.865  0.1338  0.5444  0.1456
  958TIP3    H1 2817   2.795   7.084   5.860 -0.0201  0.3783 -0.6888
  958TIP3    H2 2818   2.644   7.072   5.854 -0.1857  0.5134  1.9630
  959TIP3   OH2 2819   3.444   0.042   4.869 -0.4449  0.0654  0.3372
  959TIP3    H1 2820   3.361   0.012   4.831 -0.4861  0.3687  0.1862
  959TIP3    H2 2821   3.458  -0.015   4.945 -0.1671 -0.8127 -0.3514
  960TIP3   OH2 2822   3.548   2.076   2.399  0.5176  0.1095 -0.1135
  960TIP3    H1 2823   3.550   2.045   2.490  2.3527  0.9979  0.2137
  960TIP3    H2 2824   3.467   2.125   2.393  0.3348 -0.0034  1.0496
  961TIP3   OH2 2825   1.370   7.233   5.548  0.0143  0.0477  0.0585
  961TIP3    H1 2826   1.387   7.233   5.454  1.4053 -3.0428  0.2098
  961TIP3    H2 2827   1.429   7.300   5.583 -0.8600  1.5678 -1.2489
  962TIP3   OH2 2828   3.654   6.031   0.921 -0.0005  0.3771  0.2262
  962TIP3    H1 2829   3.738   6.078   0.914  0.1226 -0.0776 -2.2714
  962TIP3    H2 2830   3.678   5.939   0.918 -0.5623  0.2435 -0.8327
  963TIP3   OH2 2831   7.650   1.059   6.563 -0.2073 -0.4724 -0.3412
  963TIP3    H1 2832   7.611   1.139   6.599 -0.5538 -0.4304 -0.8008
  963TIP3    H2 2833   7.651   0.998   6.637  1.4820  0.4323  0.4368
  964TIP3   OH2 2834   1.906   7.425   1.310  0.5573 -0.1480  0.3812
  964TIP3    H1 2835   1.854   7.349   1.282 -0.2676  0.1251  1.1259
  964TIP3    H2 2836   1.957   7.393   1.384  0.7032 -0.1458  0.2825
  965TIP3   OH2 2837   6.158   1.006   5.289 -0.8330  0.0241 -0.1686
  965TIP3    H1 2838   6.114   0.924   5.314 -1.1758  0.2208 -0.1233
  965TIP3    H2 2839   6.091   1.073   5.298 -0.4345  0.3772  0.2177
  966TIP3   OH2 2840   1.744   4.601   3.912  0.0025  0.3626  0.0640
  966TIP3    H1 2841   1.738   4.548   3.991  0.0629 -0.8197 -0.6971
  966TIP3    H2 2842   1.789   4.681   3.939 -0.0810  0.0227  1.2333
  967TIP3   OH2 2843   7.832   0.729   6.188 -0.3240 -0.1224  0.1648
  967TIP3    H1 2844   7.868   0.641   6.199 -0.3665 -0.1848 -0.1860
  967TIP3    H2 2845   7.780   0.744   6.267  2.0032  0.7128  1.6426
  968TIP3   OH2 2846   0.590   1.154   2.343 -0.8062 -0.0629  1.3395
  968TIP3    H1 2847   0.551   1.241   2.344  1.4184  1.0280  0.1710
  968TIP3    H2 2848   0.679   1.167   2.376  0.3463 -1.4323 -0.9623
  969TIP3   OH2 2849   5.402   4.796   5.951  0.5218  0.1133  0.3130
  969TIP3    H1 2850   5.369   4.885   5.956 -0.0301 -0.1320  1.2211
  969TIP3    H2 2851   5.467   4.798   5.880 -0.5487  0.8865 -0.6762
  970TIP3   OH2 2852   0.250   4.361   1.623 -0.0935  0.1111  0.0248
  970TIP3    H1 2853   0.275   4.384   1.534 -1.4930 -3.4763 -1.5100
  970TIP3    H2 2854   0.295   4.278   1.639 -0.2915  0.4052  2.4953
  971TIP3   OH2 2855   4.300   5.569   4.551  0.4429 -0.2758 -0.3533
  971TIP3    H1 2856   4.245   5.624   4.607  0.3816 -0.0971 -0.5862
  971TIP3    H2 2857   4.261   5.578   4.463  0.2463 -0.9326 -0.3401
  972TIP3   OH2 2858   5.957   0.046   4.468 -0.8052 -0.2928 -0.3669
  972TIP3    H1 2859   5.954  -0.044   4.437 -2.5812 -0.4264  0.0750
  972TIP3    H2 2860   5.882   0.088   4.427  0.0491  1.0356 -0.6402
  973TIP3   OH2 2861   0.809   2.162   5.891  0.0841  0.1274 -0.2310
  973TIP3    H1 2862   0.871   2.096   5.921 -0.3681 -0.5662 -0.8072
  973TIP3    H2 2863   0.789   2.213   5.969  0.4764 -0.3777  0.2069
  974TIP3   OH2 2864   2.331   1.920   2.947 -0.0242  0.0815 -0.4289
  974TIP3    H1 2865   2.378   1.837   2.944  1.8959  1.1109 -0.9076
  974TIP3    H2 2866   2.299   1.933   2.858 -0.6762 -0.3164 -0.2581
  975TIP3   OH2 2867   5.896   7.685   3.169 -0.0843 -0.7409 -0.6938
  975TIP3    H1 2868   5.968   7.630   3.201 -0.1129 -0.8985 -0.8986
  975TIP3    H2 2869   5.935   7.737   3.098  0.5323  1.1205  0.9039
  976TIP3   OH2 2870   4.751   2.702   4.886 -0.2103 -0.4164 -0.4135
  976TIP3    H1 2871   4.722   2.746   4.966  0.4259 -0.2714 -0.2570
  976TIP3    H2 2872   4.706   2.749   4.815  0.0263  0.1318 -0.2062
  977TIP3   OH2 2873   4.003   0.518   3.999 -0.2069 -0.2756 -0.0267
  977TIP3    H1 2874   3.996   0.564   4.083  1.6876  1.2621 -0.6527
  977TIP3    H2 2875   3.914   0.489   3.981 -1.0531  1.1816  1.5053
  978TIP3   OH2 2876   2.688   4.264   3.171  0.3276  0.2268  0.1971
  978TIP3    H1 2877   2.775   4.279   3.133 -0.1257  3.1863  0.0896
  978TIP3    H2 2878   2.704   4.255   3.265  0.8863 -1.2776 -0.0082
  979TIP3   OH2 2879   2.638   4.819   0.722  0.2386 -0.0267 -0.6445
  979TIP3    H1 2880   2.555   4.854   0.692  0.6704 -0.2936 -2.2243
  979TIP3    H2 2881   2.641   4.729   0.688  0.1741 -0.8556  1.3755
  980TIP3   OH2 2882   2.398   4.508   2.896 -0.6535 -0.0320 -0.3097
  980TIP3    H1 2883   2.373   4.450   2.824 -2.1392  0.8384 -0.5498
  980TIP3    H2 2884   2.455   4.456   2.951  1.2197 -0.4816 -2.5463
  981TIP3   OH2 2885   2.195   3.236   0.625 -0.1653 -0.4808 -0.1836
  981TIP3    H1 2886   2.199   3.325   0.589  1.5092 -0.5971 -0.3652
  981TIP3    H2 2887   2.118   3.197   0.582 -0.1450  0.4476 -1.1238
  982TIP3   OH2 2888   2.123   7.421   3.247 -0.6925 -0.3623  0.4842
  982TIP3    H1 2889   2.138   7.334   3.285  0.4181 -0.7759 -0.7967
  982TIP3    H2 2890   2.066   7.465   3.310  0.3378 -1.3037  2.1615
  983TIP3   OH2 2891   5.686   6.020   6.617 -0.0789  0.1833 -0.1313
  983TIP3    H1 2892   5.640   5.987   6.539 -0.1357 -0.1577  0.0462
  983TIP3    H2 2893   5.616   6.056   6.672 -0.0417  0.3953 -0.2193
  984TIP3   OH2 2894   3.198   6.420   4.747  0.2196  0.3962  0.0341
  984TIP3    H1 2895   3.187   6.511   4.776 -1.5249  0.4129 -0.5130
  984TIP3    H2 2896   3.109   6.393   4.723  0.7042 -1.4736  0.2171
  985TIP3   OH2 2897   0.780   1.826   6.194 -0.2657  0.9042  0.2780
  985TIP3    H1 2898   0.793   1.826   6.289  0.4153 -0.8298  0.2231
  985TIP3    H2 2899   0.867   1.845   6.159 -0.2813  0.4666 -0.0012
  986TIP3   OH2 2900   3.522   3.800   0.352  0.2904  0.2006 -0.4715
  986TIP3    H1 2901   3.519   3.879   0.298  0.6172  0.1067 -0.6247
  986TIP3    H2 2902   3.550   3.831   0.438 -2.5636  0.7556  0.3768
  987TIP3   OH2 2903   6.097   4.903   6.160  0.2611  0.3700 -0.2330
  987TIP3    H1 2904   6.054   4.983   6.191  1.0761  0.7333 -0.0217
  987TIP3    H2 2905   6.142   4.930   6.080 -0.8392 -0.2828 -1.1053
  988TIP3   OH2 2906   5.955   3.929   3.812 -0.8582  0.1663  0.0298
  988TIP3    H1 2907   6.007   3.986   3.868 -0.2851 -0.2150 -0.1130
  988TIP3    H2 2908   5.944   3.848   3.862  0.4849 -0.5472 -0.7753
  989TIP3   OH2 2909   7.774   3.122   2.516 -0.0840 -0.2238  0.1468
  989TIP3    H1 2910   7.693   3.076   2.494 -0.8333  1.7510 -1.6642
  989TIP3    H2 2911   7.756   3.164   2.600 -1.4457  1.1024 -0.7441
  990TIP3   OH2 2912   4.505   3.430   1.492 -0.1962  0.4276  0.4183
  990TIP3    H1 2913   4.576   3.485   1.526 -2.2743  2.1223  2.2940
  990TIP3    H2 2914   4.506   3.353   1.550  0.9004 -0.2179 -0.4142
  991TIP3   OH2 2915   3.724   6.796   2.109  0.3309  0.0845  0.4536
  991TIP3    H1 2916   3.689   6.817   2.022  0.0147  1.1706  0.8225
  991TIP3    H2 2917   3.718   6.878   2.158  0.5977 -0.4824  1.4792
  992TIP3   OH2 2918   1.425   3.044   5.310 -0.4561  0.3509 -0.3992
  992TIP3    H1 2919   1.496   3.079   5.256 -1.0147  0.4164 -1.0992
  992TIP3    H2 2920   1.355   3.024   5.248 -0.8815 -0.1475  0.2305
  993TIP3   OH2 2921   2.283   6.955   3.848  0.3185  0.5087  0.0434
  993TIP3    H1 2922   2.356   6.945   3.787  2.2698 -1.0751  2.4184
  993TIP3    H2 2923   2.232   6.874   3.839  0.3932  0.4399  0.2215
  994TIP3   OH2 2924   2.245   6.415   3.526  0.1029  0.7714  0.2890
  994TIP3    H1 2925   2.248   6.358   3.449 -1.1158 -0.5422  1.1396
  994TIP3    H2 2926   2.206   6.496   3.495 -0.1836  0.3311 -0.5326
  995TIP3   OH2 2927   4.066   6.261   0.349  0.7138  0.4677 -0.3300
  995TIP3    H1 2928   3.995   6.284   0.289  0.1749  1.7883  0.7710
  995TIP3    H2 2929   4.114   6.192   0.303 -0.8249  0.0656 -1.4313
  996TIP3   OH2 2930   2.807   7.460   0.609 -0.5192  0.1824 -0.1674
  996TIP3    H1 2931   2.757   7.379   0.602 -1.2798  0.6715 -0.5684
  996TIP3    H2 2932   2.761   7.511   0.675  0.8247 -0.3075  1.1921
  997TIP3   OH2 2933   8.243   2.356   0.781  0.2250 -0.5888  0.3540
  997TIP3    H1 2934   8.170   2.317   0.828 -0.5874 -1.3291 -1.4505
  997TIP3    H2 2935   8.229   2.332   0.690  3.4739 -2.0064  0.0875
  998TIP3   OH2 2936   8.000   7.209   6.296  0.4969 -0.2946 -0.3579
  998TIP3    H1 2937   7.927   7.268   6.275  2.0177  1.2634 -1.5709
  998TIP3    H2 2938   7.963   7.121   6.286 -1.1983  0.4352 -1.0138
  999TIP3   OH2 2939   6.663   6.072   3.742  0.3366 -0.0391  0.0306
  999TIP3    H1 2940   6.634   6.162   3.724 -1.1339 -0.3803  0.5957
  999TIP3    H2 2941   6.622   6.019   3.674  2.2243 -0.1569 -1.0727
 1000TIP3   OH2 2942   2.688   5.789   0.640 -0.3723  0.1173  0.1623
 1000TIP3    H1 2943   2.784   5.781   0.646 -0.1811  1.7067 -0.1882
 1000TIP3    H2 2944   2.672   5.883   0.651 -1.8372 -0.0282 -0.5863
 1001TIP3   OH2 2945   1.276   2.001   5.475  0.0909  0.1032 -0.3074
 1001TIP3    H1 2946   1.354   1.948   5.463 -0.2418 -0.5886  0.5363
 1001TIP3    H2 2947   1.203   1.942   5.457 -0.3906 -0.5103  3.0228
 1002TIP3   OH2 2948   8.036   5.441   0.805 -0.0905  0.0644  0.2678
 1002TIP3    H1 2949   8.129   5.418   0.806 -0.3127 -0.8036  1.2528
 1002TIP3    H2 2950   7.990   5.358   0.810 -0.9565  0.4340 -0.9585
 1003TIP3   OH2 2951   0.917   7.349   5.258 -0.2787 -0.0280  0.2330
 1003TIP3    H1 2952   0.998   7.381   5.218  0.6689 -0.2086  1.9022
 1003TIP3    H2 2953   0.892   7.273   5.206  1.4993 -0.8870  0.5676
 1004TIP3   OH2 2954   2.790   1.144   3.743 -0.2649 -0.3058 -0.4650
 1004TIP3    H1 2955   2.786   1.127   3.648  1.8025  1.0161 -0.8450
 1004TIP3    H2 2956   2.821   1.061   3.781 -0.8244 -0.7553 -0.9665
 1005TIP3   OH2 2957   7.823   0.007   1.820  0.7452 -0.4826  0.2846
 1005TIP3    H1 2958   7.834   0.078   1.882  0.7807 -0.9160  0.7776
 1005TIP3    H2 2959   7.731   0.014   1.791  0.5678 -0.6235  0.8086
 1006TIP3   OH2 2960   8.145   1.110   1.263 -0.0442  0.1757 -1.1928
 1006TIP3    H1 2961   8.173   1.050   1.333 -2.5613  2.0265  1.6612
 1006TIP3    H2 2962   8.050   1.114   1.272 -0.2277  2.3370 -3.2220
 1007TIP3   OH2 2963   6.846   6.577   2.947  0.1374  0.3648  0.0316
 1007TIP3    H1 2964   6.776   6.561   3.010 -1.7397  3.4317 -1.1066
 1007TIP3    H2 2965   6.803   6.612   2.869  2.7576  0.6089 -1.4582
 1008TIP3   OH2 2966   5.515   5.043   2.264  0.4058  0.6231  0.2659
 1008TIP3    H1 2967   5.449   5.002   2.321 -0.1919 -2.9832 -2.6354
 1008TIP3    H2 2968   5.594   4.992   2.278  0.3837 -0.0195 -1.6229
 1009TIP3   OH2 2969   1.617   2.030   0.644  0.1673  0.5288  0.4785
 1009TIP3    H1 2970   1.564   2.107   0.664  1.2014  1.7032 -1.0502
 1009TIP3    H2 2971   1.659   2.008   0.727  0.0546  1.7848  0.8958
 1010TIP3   OH2 2972   6.949   3.742   6.035 -1.0254 -0.3217  0.3181
 1010TIP3    H1 2973   6.857   3.721   6.053 -0.9190 -2.3796 -1.2150
 1010TIP3    H2 2974   6.946   3.809   5.968 -1.3942  0.1064  0.7551
 1011TIP3   OH2 2975   3.125   2.007   4.901 -0.6075  0.4931 -0.2867
 1011TIP3    H1 2976   3.153   2.070   4.836  0.8761  0.6478  0.4700
 1011TIP3    H2 2977   3.175   2.029   4.980  0.5752 -2.0899 -0.2073
 1012TIP3   OH2 2978   3.511   2.829   6.116  0.2295  0.1441  0.3935
 1012TIP3    H1 2979   3.510   2.744   6.160  0.4503  0.6590  1.4371
 1012TIP3    H2 2980   3.568   2.884   6.171  2.4277  0.2120 -1.7707
 1013TIP3   OH2 2981   4.716   0.117   6.245  0.1830 -0.0371  0.4262
 1013TIP3    H1 2982   4.786   0.182   6.255  1.8420 -1.7407  0.3361
 1013TIP3    H2 2983   4.756   0.045   6.197 -1.3912 -1.4763  1.1613
 1014TIP3   OH2 2984   4.618   6.839   4.768 -0.0639 -0.7901 -0.6308
 1014TIP3    H1 2985   4.598   6.785   4.691 -1.5761 -0.3888 -0.5328
 1014TIP3    H2 2986   4.566   6.802   4.838  0.5263 -0.5107 -0.0356
 1015TIP3   OH2 2987   5.334   2.819   5.661 -0.1465 -0.2851  0.3633
 1015TIP3    H1 2988   5.255   2.855   5.702  1.1343  0.2265  2.5596
 1015TIP3    H2 2989   5.393   2.893   5.655 -0.2551 -0.3186 -2.6388
 1016TIP3   OH2 2990   1.164   5.462   4.107  0.2274  0.7185  0.6878
 1016TIP3    H1 2991   1.244   5.410   4.102 -1.6026 -2.5061  1.5713
 1016TIP3    H2 2992   1.147   5.472   4.201 -1.1632 -0.0194  0.5381
 1017TIP3   OH2 2993   5.793   0.771   0.641 -0.0657  0.4665 -0.7030
 1017TIP3    H1 2994   5.884   0.765   0.672  0.7632  0.2415 -3.0343
 1017TIP3    H2 2995   5.766   0.680   0.627 -0.5601  0.5497 -0.3264
 1018TIP3   OH2 2996   8.105   3.298   5.755 -0.0918  0.6161 -0.0342
 1018TIP3    H1 2997   8.120   3.204   5.752  0.8823  0.7677 -0.4706
 1018TIP3    H2 2998   8.050   3.312   5.832  1.9224 -0.0305  1.6071
 1019TIP3   OH2 2999   1.841   1.516   0.505 -0.5131  0.4612  0.4718
 1019TIP3    H1 3000   1.813   1.446   0.446 -1.7084  0.3839  1.0790
 1019TIP3    H2 3001   1.760   1.544   0.548 -0.0445  2.1319  0.3384
 1020TIP3   OH2 3002   6.441   5.364   5.959 -0.0057 -0.2601 -0.1017
 1020TIP3    H1 3003   6.515   5.405   6.004 -0.1950 -0.0107 -0.0170
 1020TIP3    H2 3004   6.406   5.301   6.022 -0.5334  0.3876  0.2686
 1021TIP3   OH2 3005   3.286   5.563   0.055  0.0059  0.0295 -0.3128
 1021TIP3    H1 3006   3.268   5.470   0.043  0.4496 -0.0537 -0.3174
 1021TIP3    H2 3007   3.256   5.604  -0.027 -1.5619  0.0884  0.2515
 1022TIP3   OH2 3008   4.045   6.788   2.703  0.0358  0.2165 -0.2283
 1022TIP3    H1 3009   3.990   6.734   2.646  1.0930 -0.8331 -0.2769
 1022TIP3    H2 3010   4.034   6.750   2.790 -0.8695  1.2629  0.1386
 1023TIP3   OH2 3011   5.629   2.683   0.499 -0.2112  0.5529  0.4890
 1023TIP3    H1 3012   5.590   2.675   0.586 -2.0383 -2.7262 -0.4691
 1023TIP3    H2 3013   5.622   2.776   0.478 -2.6399  0.9383  2.5513
 1024TIP3   OH2 3014   0.282   6.074   6.655 -0.0462 -0.3700 -0.4588
 1024TIP3    H1 3015   0.322   5.990   6.679 -0.5056 -0.6957 -0.8200
 1024TIP3    H2 3016   0.336   6.106   6.583  1.4085  0.6654  1.0237
 1025TIP3   OH2 3017   1.850   3.364   1.176 -0.0684  0.1586  0.4815
 1025TIP3    H1 3018   1.855   3.421   1.253  0.5079  0.4373  0.2446
 1025TIP3    H2 3019   1.817   3.420   1.106  0.1180  0.1009  0.3456
 1026TIP3   OH2 3020   5.951   7.290   5.897 -0.9905  0.3073 -0.0973
 1026TIP3    H1 3021   5.872   7.246   5.929 -1.8463  1.0175 -1.1507
 1026TIP3    H2 3022   6.023   7.230   5.918 -1.3478  0.9048  3.5980
 1027TIP3   OH2 3023   6.316   3.775   0.048 -0.0493 -0.2068 -0.3684
 1027TIP3    H1 3024   6.226   3.751   0.071 -0.0655 -0.6452 -0.8726
 1027TIP3    H2 3025   6.324   3.752  -0.044  0.3426  0.5495 -0.5311
 1028TIP3   OH2 3026   4.151   1.384   4.947 -0.6677 -0.0784  0.2365
 1028TIP3    H1 3027   4.126   1.453   5.009  0.5274  0.2374  0.3873
 1028TIP3    H2 3028   4.076   1.324   4.947 -0.9118  0.1846  1.5991
 1029TIP3   OH2 3029   6.817   0.112   3.734  0.1122 -0.1028  0.4869
 1029TIP3    H1 3030   6.854   0.027   3.757  1.6971  0.1719 -0.8170
 1029TIP3    H2 3031   6.784   0.100   3.645 -0.3726  0.4401  0.5867
 1030TIP3   OH2 3032   6.120   4.408   4.859  0.4779  0.3466 -0.7191
 1030TIP3    H1 3033   6.185   4.452   4.804  0.6896  1.0740  0.1066
 1030TIP3    H2 3034   6.036   4.430   4.819  0.5725  1.6441 -0.2249
 1031TIP3   OH2 3035   7.679   7.414   0.517  0.0927 -0.2741 -0.3858
 1031TIP3    H1 3036   7.660   7.462   0.598 -1.4156  1.1249 -1.4995
 1031TIP3    H2 3037   7.673   7.480   0.448  1.1676 -1.4681 -1.6755
 1032TIP3   OH2 3038   3.720   5.753   0.938 -0.4568 -0.3751  0.3562
 1032TIP3    H1 3039   3.815   5.748   0.943 -0.4567 -0.4322  0.2927
 1032TIP3    H2 3040   3.689   5.687   1.000 -0.4591 -2.3479 -1.6357
 1033TIP3   OH2 3041   5.289   1.327   3.955 -0.0800 -0.1962  0.0973
 1033TIP3    H1 3042   5.303   1.247   3.905 -0.1592  0.6415 -1.3345
 1033TIP3    H2 3043   5.357   1.326   4.023  1.3445 -0.4189 -1.2721
 1034TIP3   OH2 3044   6.671   0.156   6.170  0.2012  0.1155  0.1000
 1034TIP3    H1 3045   6.691   0.136   6.261  0.8220 -0.5906 -0.1801
 1034TIP3    H2 3046   6.751   0.196   6.136  0.3786 -0.6899 -0.4429
 1035TIP3   OH2 3047   5.693   2.978   3.066  0.6087  0.7350 -0.3350
 1035TIP3    H1 3048   5.682   3.004   3.157 -0.3352 -2.1875  0.5076
 1035TIP3    H2 3049   5.759   2.909   3.068 -1.1971 -1.1717 -1.3823
 1036TIP3   OH2 3050   0.351   3.709   1.001 -0.2563 -0.1040 -0.0400
 1036TIP3    H1 3051   0.371   3.789   0.951  0.9249 -0.4988 -0.2330
 1036TIP3    H2 3052   0.258   3.715   1.019 -0.2562  1.1495 -0.3659
 1037TIP3   OH2 3053   4.810   3.644   3.690 -0.7478 -0.2309  0.1894
 1037TIP3    H1 3054   4.761   3.722   3.665 -0.2322  0.6158  1.6884
 1037TIP3    H2 3055   4.787   3.579   3.624 -1.2554  1.1518 -1.0598
 1038TIP3   OH2 3056   7.966   0.215   1.962  0.9355  0.3177 -0.9773
 1038TIP3    H1 3057   7.987   0.233   1.870  0.3990 -1.0850 -1.4022
 1038TIP3    H2 3058   8.031   0.150   1.989  0.0014 -0.6328 -0.9345
 1039TIP3   OH2 3059   8.026   7.036   5.217  0.4499  0.6883  0.1233
 1039TIP3    H1 3060   8.021   7.048   5.123  1.3185  0.6795  0.0688
 1039TIP3    H2 3061   7.939   7.002   5.242  0.2204  0.6804 -0.6617
 1040TIP3   OH2 3062   8.163   2.521   3.012  0.1541 -0.3537 -0.2068
 1040TIP3    H1 3063   8.083   2.550   2.968  0.2404  0.9279  0.4180
 1040TIP3    H2 3064   8.168   2.428   2.994 -1.0167 -0.2880 -0.9936
 1041TIP3   OH2 3065   3.173   2.863   1.114  0.0680 -0.5331  0.4914
 1041TIP3    H1 3066   3.267   2.865   1.133  0.1477 -1.4215  0.2286
 1041TIP3    H2 3067   3.132   2.902   1.191  0.7554  1.7557 -0.2222
 1042TIP3   OH2 3068   0.243   6.250   3.506  0.3773  0.0109  0.5820
 1042TIP3    H1 3069   0.189   6.324   3.480 -0.4150 -0.6044  0.4601
 1042TIP3    H2 3070   0.195   6.173   3.476  1.7919 -0.5154 -0.4319
 1043TIP3   OH2 3071   4.312   2.291   3.957 -0.6295 -0.3641  0.0126
 1043TIP3    H1 3072   4.241   2.242   3.915 -1.4423 -0.1590  1.0920
 1043TIP3    H2 3073   4.389   2.270   3.905 -1.8219  1.1508 -2.5969
 1044TIP3   OH2 3074   3.615   3.540   5.481  0.0199 -0.5840  0.1122
 1044TIP3    H1 3075   3.542   3.478   5.490  0.3676 -1.1610 -0.9012
 1044TIP3    H2 3076   3.580   3.611   5.427  0.3211 -1.0672 -0.7323
 1045TIP3   OH2 3077   2.953   5.597   4.672 -0.0365 -0.2541  0.3560
 1045TIP3    H1 3078   3.033   5.620   4.626 -0.2746  1.1699  0.6025
 1045TIP3    H2 3079   2.966   5.627   4.762 -0.6673 -0.4208  0.5152
 1046TIP3   OH2 3080   2.701   2.610   2.013 -0.0030  0.4597  0.4149
 1046TIP3    H1 3081   2.757   2.549   2.061  1.0777  1.2791  0.2107
 1046TIP3    H2 3082   2.729   2.696   2.042 -0.7900  0.8994 -0.1048
 1047TIP3   OH2 3083   3.843   0.992   0.307 -0.2687 -0.3139  0.2138
 1047TIP3    H1 3084   3.916   0.975   0.248  0.7086  0.4953  1.1501
 1047TIP3    H2 3085   3.767   1.002   0.250  0.8763  1.8418 -1.0384
 1048TIP3   OH2 3086   2.481   7.684   4.967  0.0777 -0.2286  0.5456
 1048TIP3    H1 3087   2.499   7.598   5.005  1.1569 -0.2646 -0.0150
 1048TIP3    H2 3088   2.546   7.694   4.898  1.3470  1.9442  1.9626
 1049TIP3   OH2 3089   0.388   0.772   0.737  0.1935  0.3787 -0.6315
 1049TIP3    H1 3090   0.452   0.841   0.753 -0.7992  1.4505 -1.0828
 1049TIP3    H2 3091   0.347   0.757   0.823 -0.4617  1.2892 -0.7630
 1050TIP3   OH2 3092   1.525   5.282   2.467  0.1256  0.2430  0.1302
 1050TIP3    H1 3093   1.448   5.228   2.449  0.5786 -0.5706  0.5839
 1050TIP3    H2 3094   1.489   5.369   2.488 -0.7038 -0.2649  0.8716
 1051TIP3   OH2 3095   6.907   5.730   5.191 -0.0426  0.5204 -0.4233
 1051TIP3    H1 3096   6.989   5.777   5.208 -0.8966  1.4397  1.4825
 1051TIP3    H2 3097   6.840   5.781   5.237 -1.3058 -1.5964  0.2309
 1052TIP3   OH2 3098   5.266   2.553   3.260 -0.3970  0.3740 -0.0929
 1052TIP3    H1 3099   5.339   2.614   3.252  0.7608 -0.8314  0.7198
 1052TIP3    H2 3100   5.258   2.515   3.172 -0.6702  1.1777 -0.4228
 1053TIP3   OH2 3101   0.935   2.513   5.864  0.4403  0.4326  0.3207
 1053TIP3    H1 3102   0.940   2.464   5.782 -1.0055  0.1926  0.3462
 1053TIP3    H2 3103   0.973   2.599   5.844 -0.7689  0.7176 -0.8883
 1054TIP3   OH2 3104   7.745   4.623   2.489  0.0646  0.5268 -0.5210
 1054TIP3    H1 3105   7.747   4.662   2.576  1.2007 -0.3278 -0.1450
 1054TIP3    H2 3106   7.809   4.674   2.439  2.3941 -1.4482  0.2775
 1055TIP3   OH2 3107   1.703   3.289   4.913  0.4614  0.1911 -0.5746
 1055TIP3    H1 3108   1.730   3.200   4.890 -0.3221 -0.8067  1.9870
 1055TIP3    H2 3109   1.644   3.315   4.842  2.2464 -0.4920 -2.4010
 1056TIP3   OH2 3110   1.905   0.740   0.699 -0.1019  0.0697  0.1791
 1056TIP3    H1 3111   1.926   0.831   0.719  1.9337 -0.7383  2.2123
 1056TIP3    H2 3112   1.882   0.701   0.784 -1.7366 -1.1750 -0.7605
 1057TIP3   OH2 3113   5.976   6.425   0.713 -0.2414 -0.2678  0.3110
 1057TIP3    H1 3114   5.952   6.460   0.627 -0.7403  0.8507  0.8831
 1057TIP3    H2 3115   5.896   6.430   0.764 -0.0596 -1.3599  0.7086
 1058TIP3   OH2 3116   5.969   5.379   1.215 -0.2265 -0.0002  0.1910
 1058TIP3    H1 3117   6.039   5.378   1.150 -0.6752  0.2138 -0.3074
 1058TIP3    H2 3118   5.893   5.342   1.169 -0.9165  1.3839  0.1592
 1059TIP3   OH2 3119   6.404   2.485   0.997 -0.0992 -0.2892 -0.2570
 1059TIP3    H1 3120   6.358   2.407   0.967 -0.1256  0.3755 -2.1097
 1059TIP3    H2 3121   6.357   2.558   0.956 -0.4945  0.7852  1.9702
 1060TIP3   OH2 3122   0.672   6.733   4.055  0.5006 -0.3332  0.1588
 1060TIP3    H1 3123   0.579   6.728   4.034  0.6387 -1.5958 -0.2375
 1060TIP3    H2 3124   0.679   6.700   4.145  0.6586 -1.1491 -0.1416
 1061TIP3   OH2 3125   6.472   4.793   1.753  0.5453 -0.2867  0.6460
 1061TIP3    H1 3126   6.551   4.845   1.739  0.0194  0.1583 -0.8772
 1061TIP3    H2 3127   6.453   4.755   1.668 -0.6139 -0.7725  1.1046
 1062TIP3   OH2 3128   7.812   6.262   5.463 -0.1154 -0.1794  0.0817
 1062TIP3    H1 3129   7.894   6.298   5.497 -1.0531  1.4833  0.6620
 1062TIP3    H2 3130   7.744   6.317   5.501 -1.4978 -1.3355 -0.6419
 1063TIP3   OH2 3131   3.875   0.457   5.707  0.2453 -0.4033  0.3878
 1063TIP3    H1 3132   3.928   0.383   5.677 -0.5049 -0.1694 -1.6763
 1063TIP3    H2 3133   3.939   0.520   5.739  1.1350 -0.7028 -0.7315
 1064TIP3   OH2 3134   6.240   0.963   6.444 -0.0908 -0.2045 -0.2924
 1064TIP3    H1 3135   6.322   0.940   6.401 -0.4111  0.7451 -1.4634
 1064TIP3    H2 3136   6.261   1.040   6.497  0.3040 -1.3727  1.3157
 1065TIP3   OH2 3137   4.345   5.760   4.979 -0.2957  0.3107  0.5147
 1065TIP3    H1 3138   4.335   5.810   4.898  2.0644 -0.2722 -0.2209
 1065TIP3    H2 3139   4.256   5.747   5.011 -1.5076 -1.1093 -3.0073
 1066TIP3   OH2 3140   2.845   0.751   3.240 -0.4063 -0.1988  0.0901
 1066TIP3    H1 3141   2.878   0.688   3.176 -1.7667  0.2009 -1.0563
 1066TIP3    H2 3142   2.892   0.833   3.220  2.3620 -1.0133  2.4235
 1067TIP3   OH2 3143   1.825   3.048   1.691  0.1387 -1.1699 -0.1606
 1067TIP3    H1 3144   1.874   3.129   1.675  1.2406 -1.7315  0.2201
 1067TIP3    H2 3145   1.735   3.069   1.670  0.5714 -0.1241 -1.0316
 1068TIP3   OH2 3146   7.483   7.339   5.633 -0.4076 -0.6384  0.0582
 1068TIP3    H1 3147   7.516   7.279   5.566  1.0544  1.7636 -1.5453
 1068TIP3    H2 3148   7.477   7.424   5.588  0.5124  1.0908  2.8968
 1069TIP3   OH2 3149   2.150   6.379   4.600  0.2398  0.4737  0.5418
 1069TIP3    H1 3150   2.178   6.292   4.630  0.5206  0.9493  1.7078
 1069TIP3    H2 3151   2.114   6.363   4.513  1.8403 -0.5722  0.0039
 1070TIP3   OH2 3152   2.066   7.492   5.461  0.4725 -0.3759 -0.2484
 1070TIP3    H1 3153   2.072   7.397   5.460  1.3870 -0.3233 -0.0920
 1070TIP3    H2 3154   2.119   7.519   5.536 -0.8151  0.1958  0.5007
 1071TIP3   OH2 3155   6.094   6.665   3.341 -0.1644 -0.1937  0.6567
 1071TIP3    H1 3156   6.000   6.683   3.339  0.2274  2.1730  0.8367
 1071TIP3    H2 3157   6.114   6.657   3.434  0.1040  1.3116  0.7550
 1072TIP3   OH2 3158   7.726   2.378   6.085 -0.3974 -0.4148  0.6697
 1072TIP3    H1 3159   7.798   2.385   6.021 -1.6218  0.3165 -0.6910
 1072TIP3    H2 3160   7.690   2.291   6.070 -1.0112 -0.0529 -0.0373
 1073TIP3   OH2 3161   5.441   1.819   6.242  0.2727  0.2498 -0.2018
 1073TIP3    H1 3162   5.345   1.821   6.232  0.1783 -0.4287  0.4110
 1073TIP3    H2 3163   5.468   1.739   6.196  0.2492 -0.8523  1.5629
 1074TIP3   OH2 3164   3.927   0.464   1.243  0.0163  0.5148 -0.2147
 1074TIP3    H1 3165   3.841   0.462   1.284 -0.1515  2.3873 -0.3812
 1074TIP3    H2 3166   3.909   0.490   1.152  0.6551 -0.3381 -0.5949
 1075TIP3   OH2 3167   7.243   4.522   3.999 -0.0486  0.1118  0.3720
 1075TIP3    H1 3168   7.233   4.464   3.923 -1.2028 -0.4237  0.9182
 1075TIP3    H2 3169   7.198   4.478   4.070 -1.7551  2.0679  0.6037
 1076TIP3   OH2 3170   1.294   4.738   0.201  0.0834 -0.3568 -0.1864
 1076TIP3    H1 3171   1.321   4.780   0.283  0.3850 -0.1369 -0.3951
 1076TIP3    H2 3172   1.254   4.808   0.149 -1.2738 -0.7637  0.2762
 1077TIP3   OH2 3173   0.299   1.285   4.882  0.7305 -0.1345 -0.0225
 1077TIP3    H1 3174   0.350   1.241   4.950 -1.8124 -1.3360  1.2555
 1077TIP3    H2 3175   0.313   1.378   4.898  0.1086 -0.3768  2.3411
 1078TIP3   OH2 3176   2.131   2.225   6.592 -0.3223 -0.5524  0.0962
 1078TIP3    H1 3177   2.079   2.161   6.640  0.3046  0.3303  2.0341
 1078TIP3    H2 3178   2.069   2.266   6.531 -1.2270 -1.4227  0.4191
 1079TIP3   OH2 3179   5.139   4.413   2.148 -0.4404 -0.1071 -0.5099
 1079TIP3    H1 3180   5.178   4.499   2.161 -0.1281 -0.4834  1.2982
 1079TIP3    H2 3181   5.074   4.426   2.079 -0.9540  1.7667  0.2828
 1080TIP3   OH2 3182   3.934   6.343   6.657  0.6291  0.9020 -0.0570
 1080TIP3    H1 3183   3.911   6.271   6.598  0.4284  1.9912 -1.3587
 1080TIP3    H2 3184   3.992   6.303   6.722  1.5087 -0.1951 -1.4425
 1081TIP3   OH2 3185   7.227   6.133   5.932 -0.0350 -0.5007 -0.6853
 1081TIP3    H1 3186   7.281   6.126   6.010 -1.0714  0.8525  0.2033
 1081TIP3    H2 3187   7.148   6.082   5.952 -0.0912 -0.5720 -1.0653
 1082TIP3   OH2 3188   0.226   1.911   5.511  0.5601  0.3357 -0.0686
 1082TIP3    H1 3189   0.316   1.922   5.541  0.3421  0.9018  0.3993
 1082TIP3    H2 3190   0.207   1.992   5.463  0.3677  0.1274 -0.3481
 1083TIP3   OH2 3191   2.288   6.517   0.849 -0.3452  0.1716  0.0058
 1083TIP3    H1 3192   2.344   6.586   0.883  0.3320 -0.6939  0.7190
 1083TIP3    H2 3193   2.311   6.440   0.902  0.7718 -1.2627 -2.3810
 1084TIP3   OH2 3194   3.428   0.161   1.328 -0.4695  0.1603  0.3245
 1084TIP3    H1 3195   3.485   0.106   1.381  0.4474 -0.1279 -0.9067
 1084TIP3    H2 3196   3.373   0.099   1.280  0.9015  0.2093 -1.4416
 1085TIP3   OH2 3197   3.675   6.820   1.843 -0.0891 -0.3946 -0.0332
 1085TIP3    H1 3198   3.712   6.889   1.787 -0.3401 -0.2576 -0.0307
 1085TIP3    H2 3199   3.598   6.790   1.796 -0.1729 -0.4370  0.1308
 1086TIP3   OH2 3200   3.744   4.259   5.640 -0.3360 -0.2423 -0.0587
 1086TIP3    H1 3201   3.758   4.295   5.728 -3.5753 -0.1398  0.5144
 1086TIP3    H2 3202   3.790   4.175   5.640  2.2158  1.0309  0.6260
 1087TIP3   OH2 3203   2.976   3.431   5.904  0.3219 -0.4206  0.0686
 1087TIP3    H1 3204   2.943   3.373   5.836  1.6549 -1.4696  0.2756
 1087TIP3    H2 3205   2.898   3.477   5.937 -0.4275 -0.3804 -1.6764
 1088TIP3   OH2 3206   3.596   7.373   2.427  0.0378  0.0589  0.5590
 1088TIP3    H1 3207   3.562   7.462   2.419 -0.3915 -0.0570  1.0777
 1088TIP3    H2 3208   3.569   7.344   2.514 -0.9667 -1.0484 -0.0913
 1089TIP3   OH2 3209   3.295   1.035   0.067  0.6987  0.4704  0.5978
 1089TIP3    H1 3210   3.280   0.940   0.068  0.0522  0.5697  1.0610
 1089TIP3    H2 3211   3.240   1.068  -0.004  0.7057  0.5288  0.6193
 1090TIP3   OH2 3212   5.617   1.711   6.614  1.1123 -0.4791  0.8233
 1090TIP3    H1 3213   5.630   1.625   6.574 -0.7934 -0.3208 -0.2276
 1090TIP3    H2 3214   5.661   1.772   6.555  1.1586 -0.5764  0.7570
 1091TIP3   OH2 3215   8.120   2.308   2.031  0.1600 -0.5157 -0.3249
 1091TIP3    H1 3216   8.079   2.392   2.051 -0.6177 -1.3618  2.0102
 1091TIP3    H2 3217   8.054   2.242   2.054  1.6415 -1.8300  0.4165
 1092TIP3   OH2 3218   0.259   3.765   4.083  0.6520 -0.0788 -0.4934
 1092TIP3    H1 3219   0.176   3.760   4.129  0.3497  0.1101 -1.0183
 1092TIP3    H2 3220   0.320   3.715   4.138 -0.2244 -1.7870 -1.0207
 1093TIP3   OH2 3221   4.862   1.995   1.420  0.2696 -0.1911  0.1576
 1093TIP3    H1 3222   4.908   2.014   1.338  1.2746 -0.6033  0.6204
 1093TIP3    H2 3223   4.873   2.074   1.472  1.4061 -0.6797  0.6900
 1094TIP3   OH2 3224   7.561   7.262   3.553 -0.0250  0.1764  0.3719
 1094TIP3    H1 3225   7.556   7.213   3.635 -0.6179  0.4759  0.5144
 1094TIP3    H2 3226   7.479   7.244   3.508 -0.4306  1.3614  0.6116
 1095TIP3   OH2 3227   1.426   3.793   3.263 -0.4285 -0.2650 -0.4575
 1095TIP3    H1 3228   1.409   3.768   3.354 -0.3379 -2.0945 -0.9049
 1095TIP3    H2 3229   1.462   3.882   3.269 -1.2463 -0.0117  1.2105
 1096TIP3   OH2 3230   1.992   5.383   3.461 -0.2594  0.4389  0.6517
 1096TIP3    H1 3231   2.069   5.371   3.407 -1.3736 -2.4091 -0.5257
 1096TIP3    H2 3232   1.919   5.358   3.405 -1.6895 -0.4250  2.7470
 1097TIP3   OH2 3233   6.056   6.824   4.350  0.2321 -0.1740  0.3709
 1097TIP3    H1 3234   6.036   6.762   4.420 -0.4208 -1.6124 -1.0283
 1097TIP3    H2 3235   6.026   6.908   4.383 -0.3503 -0.8715  1.6854
 1098TIP3   OH2 3236   4.222   4.467   6.227  0.0096 -0.2496 -0.1185
 1098TIP3    H1 3237   4.293   4.522   6.260 -1.4479  2.2707 -0.8813
 1098TIP3    H2 3238   4.145   4.497   6.274 -1.0156 -0.9518 -1.2998
 1099TIP3   OH2 3239   2.984   1.671   5.267 -0.1167 -0.1669 -0.5988
 1099TIP3    H1 3240   3.050   1.603   5.280 -0.7145 -0.2733  2.4620
 1099TIP3    H2 3241   3.031   1.740   5.219  1.6795 -0.9949 -0.1211
 1100TIP3   OH2 3242   0.162   0.381   1.471  0.3690 -0.4608  0.5730
 1100TIP3    H1 3243   0.070   0.395   1.490 -0.4199  0.5378 -3.2445
 1100TIP3    H2 3244   0.166   0.291   1.437  0.3105  0.2559 -1.4334
 1101TIP3   OH2 3245   1.463   5.125   5.961 -0.5845  0.3288 -0.7446
 1101TIP3    H1 3246   1.422   5.097   6.043 -0.9869  0.2148 -0.9784
 1101TIP3    H2 3247   1.447   5.053   5.901 -2.8529  1.5422 -1.7677
 1102TIP3   OH2 3248   4.159   6.121   6.493 -0.4720  0.0857 -0.0656
 1102TIP3    H1 3249   4.208   6.090   6.417  1.2852 -0.4069  1.2238
 1102TIP3    H2 3250   4.108   6.044   6.521  3.6343 -1.8825  2.9351
 1103TIP3   OH2 3251   4.697   3.830   2.022 -0.5446  0.5349  0.3987
 1103TIP3    H1 3252   4.651   3.748   2.043 -1.4689  0.6566 -1.0632
 1103TIP3    H2 3253   4.790   3.807   2.029 -0.7952 -0.4569  0.6649
 1104TIP3   OH2 3254   6.252   4.649   2.428  0.2467  0.1506  0.1569
 1104TIP3    H1 3255   6.258   4.553   2.427 -1.2905  0.0254 -0.4423
 1104TIP3    H2 3256   6.207   4.670   2.346  1.4338  1.4772 -0.1946
 1105TIP3   OH2 3257   3.466   1.688   3.982 -0.3969 -0.3385  0.3131
 1105TIP3    H1 3258   3.487   1.596   3.992  0.1578 -0.3592 -0.7981
 1105TIP3    H2 3259   3.389   1.689   3.925  0.1993 -0.1130 -0.5198
 1106TIP3   OH2 3260   5.620   4.759   0.939  0.0439 -0.6448  0.1699
 1106TIP3    H1 3261   5.576   4.784   0.858 -0.4447 -1.1662  0.2624
 1106TIP3    H2 3262   5.698   4.711   0.912  0.7209  0.5292 -0.0010
 1107TIP3   OH2 3263   5.822   6.507   1.002  0.3637 -0.1464  0.3739
 1107TIP3    H1 3264   5.727   6.511   1.003  0.2073 -2.3799  0.2334
 1107TIP3    H2 3265   5.850   6.587   1.047 -1.5889  0.0971  1.2505
 1108TIP3   OH2 3266   6.750   2.301   0.182  0.7822  0.0689 -0.2779
 1108TIP3    H1 3267   6.816   2.370   0.187  1.8905 -0.9086 -1.0576
 1108TIP3    H2 3268   6.678   2.341   0.133  2.1474  0.1491 -2.3228
 1109TIP3   OH2 3269   8.217   6.863   1.230  0.5143  0.0820  0.1662
 1109TIP3    H1 3270   8.221   6.810   1.150 -0.3586 -0.9253  0.7571
 1109TIP3    H2 3271   8.162   6.811   1.289  1.5167  0.5968  1.5764
 1110TIP3   OH2 3272   4.399   3.178   0.476  0.0751  0.2307  0.4242
 1110TIP3    H1 3273   4.362   3.095   0.505  1.1429 -0.1353  0.7791
 1110TIP3    H2 3274   4.488   3.157   0.449 -0.1555  0.9858 -1.0067
 1111TIP3   OH2 3275   3.731   4.292   3.624 -0.5941 -0.7463 -0.0590
 1111TIP3    H1 3276   3.779   4.351   3.567  0.6578 -1.7522 -0.0977
 1111TIP3    H2 3277   3.684   4.350   3.684  0.6517  0.2953 -0.0436
 1112TIP3   OH2 3278   1.769   3.479   0.335  0.0907  0.0596 -0.5379
 1112TIP3    H1 3279   1.733   3.524   0.259 -0.7537  0.4035  0.0449
 1112TIP3    H2 3280   1.752   3.539   0.408  2.7038  0.7031 -0.3216
 1113TIP3   OH2 3281   6.568   6.630   2.009 -0.0380  0.7162 -0.2985
 1113TIP3    H1 3282   6.546   6.720   2.034  0.8949  0.8315  0.1632
 1113TIP3    H2 3283   6.664   6.629   2.008  0.0329 -0.8291  1.8931
 1114TIP3   OH2 3284   3.144   4.500   6.289 -0.6259 -0.0504  0.2726
 1114TIP3    H1 3285   3.087   4.533   6.359 -1.0450 -0.2652  0.0340
 1114TIP3    H2 3286   3.207   4.571   6.274 -3.6273  2.2708 -2.7009
 1115TIP3   OH2 3287   4.170   4.768   2.601  0.1759 -0.3351  0.8293
 1115TIP3    H1 3288   4.196   4.773   2.693 -1.0142  0.0468  1.1671
 1115TIP3    H2 3289   4.233   4.823   2.555  1.5405 -1.5065  1.2179
 1116TIP3   OH2 3290   6.481   4.222   5.626  0.1924  0.1230 -0.2761
 1116TIP3    H1 3291   6.510   4.289   5.564  2.1137  0.2653  0.7045
 1116TIP3    H2 3292   6.530   4.240   5.706 -1.5144 -0.6406  1.0145
 1117TIP3   OH2 3293   4.707   0.680   6.678 -0.5254 -0.3081  0.3669
 1117TIP3    H1 3294   4.660   0.763   6.666 -1.6349 -1.0494 -0.6522
 1117TIP3    H2 3295   4.639   0.613   6.670  0.1662 -1.2919  2.2361
 1118TIP3   OH2 3296   7.491   3.575   3.365 -0.2449  0.3447  0.3774
 1118TIP3    H1 3297   7.482   3.621   3.281  0.1646  0.0765  0.1859
 1118TIP3    H2 3298   7.576   3.604   3.399 -0.1589  0.0239  0.4349
 1119TIP3   OH2 3299   6.316   6.636   3.857 -0.2191 -0.3022 -0.0471
 1119TIP3    H1 3300   6.412   6.631   3.861 -0.1969 -0.7681 -0.8332
 1119TIP3    H2 3301   6.293   6.704   3.920  0.8316  1.7374 -1.7144
 1120TIP3   OH2 3302   7.083   5.214   5.680 -0.3178  0.1007  0.2502
 1120TIP3    H1 3303   7.003   5.163   5.669 -0.8099  0.7258  0.8570
 1120TIP3    H2 3304   7.153   5.148   5.687 -0.9903 -0.5168  1.4327
 1121TIP3   OH2 3305   3.971   3.446   0.649  0.0321  0.1707 -0.2868
 1121TIP3    H1 3306   3.930   3.521   0.606 -0.0258 -0.2803 -1.0347
 1121TIP3    H2 3307   4.026   3.406   0.582  1.4416  0.5533  0.5945
 1122TIP3   OH2 3308   0.155   6.194   0.896  0.0360 -0.1781 -0.1420
 1122TIP3    H1 3309   0.150   6.190   0.801  0.3013 -0.7968 -0.1339
 1122TIP3    H2 3310   0.070   6.228   0.923  0.4898  1.4840 -0.6753
 1123TIP3   OH2 3311   1.801   6.633   0.432  0.0880 -0.7507  0.3594
 1123TIP3    H1 3312   1.794   6.710   0.487  1.3053  0.2456 -0.8166
 1123TIP3    H2 3313   1.882   6.590   0.460 -0.0738 -1.0548  0.3613
 1124TIP3   OH2 3314   3.468   2.923   5.187  0.1748 -0.0644  0.7005
 1124TIP3    H1 3315   3.531   2.881   5.129 -0.5425  0.3831 -0.4256
 1124TIP3    H2 3316   3.428   2.850   5.235 -0.5831 -0.6528 -0.7497
 1125TIP3   OH2 3317   0.697   0.230   4.212 -0.4010  0.3145 -0.8358
 1125TIP3    H1 3318   0.779   0.260   4.171 -0.1420  0.3206 -0.3240
 1125TIP3    H2 3319   0.702   0.135   4.211  0.6103  0.2809  1.0869
 1126TIP3   OH2 3320   4.979   5.904   4.099  0.5562 -0.3623 -0.6207
 1126TIP3    H1 3321   4.919   5.976   4.080  0.7874 -0.0571 -0.2175
 1126TIP3    H2 3322   4.921   5.828   4.109  0.3217 -0.2612 -1.1689
 1127TIP3   OH2 3323   0.866   3.490   4.905 -0.2026  0.2188  0.0300
 1127TIP3    H1 3324   0.943   3.434   4.917 -0.4542  0.0664  1.0441
 1127TIP3    H2 3325   0.792   3.429   4.908 -0.3173 -0.1002 -4.0088
 1128TIP3   OH2 3326   1.586   0.548   6.249 -0.2302 -0.4369 -0.1456
 1128TIP3    H1 3327   1.553   0.618   6.192 -0.3039 -1.0956 -0.9403
 1128TIP3    H2 3328   1.544   0.469   6.215  1.1244 -1.1053 -0.3314
 1129TIP3   OH2 3329   5.993   6.113   3.520  0.0572  0.3890 -0.0238
 1129TIP3    H1 3330   5.990   6.200   3.559  0.1470  0.2570  0.2821
 1129TIP3    H2 3331   5.986   6.128   3.425  0.4205  0.7524  0.0051
 1130TIP3   OH2 3332   3.978   5.976   2.763  0.0754 -0.6531 -0.1236
 1130TIP3    H1 3333   3.933   5.989   2.846  0.3508  0.4609 -0.1362
 1130TIP3    H2 3334   3.926   5.909   2.718 -1.3365  0.2923  0.0299
 1131TIP3   OH2 3335   6.455   6.610   5.969 -0.2497 -0.3773  0.0415
 1131TIP3    H1 3336   6.402   6.691   5.967  2.0506  1.2763  1.4650
 1131TIP3    H2 3337   6.508   6.619   6.047  1.1434 -2.6267 -0.5855
 1132TIP3   OH2 3338   4.692   4.294   3.331  0.3189 -0.6995 -0.0864
 1132TIP3    H1 3339   4.614   4.240   3.320  0.4135 -0.9212  0.3376
 1132TIP3    H2 3340   4.668   4.380   3.294  0.3028 -1.1372 -1.1427
 1133TIP3   OH2 3341   6.199   4.306   2.356 -0.3066 -0.0129 -0.2019
 1133TIP3    H1 3342   6.180   4.339   2.268  0.6175  0.0579 -0.3849
 1133TIP3    H2 3343   6.116   4.314   2.403 -1.1169 -1.0677 -1.3777
 1134TIP3   OH2 3344   4.215   7.180   1.801  0.4854 -0.8916 -1.1697
 1134TIP3    H1 3345   4.210   7.225   1.717  0.7526  0.6130 -0.4004
 1134TIP3    H2 3346   4.293   7.125   1.794  1.2481  0.1938 -1.4590
 1135TIP3   OH2 3347   7.823   3.425   5.100  0.1592 -0.1701  0.1270
 1135TIP3    H1 3348   7.810   3.519   5.085 -0.0815 -0.5061 -2.0093
 1135TIP3    H2 3349   7.737   3.386   5.084 -0.4118 -0.5931  3.3791
 1136TIP3   OH2 3350   2.185   0.190   4.364  0.5996  0.2804  0.3523
 1136TIP3    H1 3351   2.233   0.111   4.387  1.3941  0.2703 -1.2163
 1136TIP3    H2 3352   2.239   0.262   4.397  0.3878  0.2003  0.8761
 1137TIP3   OH2 3353   0.527   0.943   1.051  0.2867 -0.0602  0.1645
 1137TIP3    H1 3354   0.603   0.999   1.060 -0.8389  1.8433 -1.4777
 1137TIP3    H2 3355   0.505   0.918   1.141  2.1555  0.2293  0.7380
 1138TIP3   OH2 3356   7.074   0.686   5.215  0.0798  0.6683 -0.3177
 1138TIP3    H1 3357   7.042   0.701   5.127  0.4252  2.2956 -0.1989
 1138TIP3    H2 3358   6.998   0.656   5.264  0.4276 -2.9810 -1.7097
 1139TIP3   OH2 3359   2.203   1.568   0.158  0.2208 -0.1010 -0.2402
 1139TIP3    H1 3360   2.198   1.660   0.133 -0.0382 -0.0577 -0.0375
 1139TIP3    H2 3361   2.163   1.564   0.245  0.6605 -0.3276 -0.0435
 1140TIP3   OH2 3362   5.333   0.881   2.260 -0.4684  0.0579  0.0396
 1140TIP3    H1 3363   5.326   0.836   2.175 -0.2025 -1.4965  0.7972
 1140TIP3    H2 3364   5.260   0.846   2.311 -0.9455  1.3867  0.2903
 1141TIP3   OH2 3365   4.504   2.981   3.723  0.1835 -0.0737 -0.5386
 1141TIP3    H1 3366   4.524   2.888   3.723  2.3649  0.3399 -1.4674
 1141TIP3    H2 3367   4.439   2.992   3.793 -0.2196 -2.2867 -0.5227
 1142TIP3   OH2 3368   4.394   6.474   3.353  0.0306  0.4540 -0.1512
 1142TIP3    H1 3369   4.462   6.515   3.406 -1.0050  1.6679  0.2886
 1142TIP3    H2 3370   4.334   6.545   3.331 -1.8318 -0.8074  0.6127
 1143TIP3   OH2 3371   2.676   0.113   6.396  0.1819  0.3146  0.0886
 1143TIP3    H1 3372   2.660   0.087   6.305 -0.1143 -1.1480  0.5257
 1143TIP3    H2 3373   2.771   0.118   6.402  0.2058  0.4085 -0.2990
 1144TIP3   OH2 3374   2.893   5.704   4.940  0.1364 -0.0301 -0.3601
 1144TIP3    H1 3375   2.924   5.688   5.029  0.4208  0.0014 -0.4553
 1144TIP3    H2 3376   2.805   5.666   4.939  0.6564 -1.2750 -0.4754
 1145TIP3   OH2 3377   4.094   6.682   2.968 -0.1359 -0.1863  0.1235
 1145TIP3    H1 3378   4.092   6.605   3.024  0.1748 -1.0851 -1.0647
 1145TIP3    H2 3379   4.070   6.754   3.026 -1.6782 -1.3253  0.9929
 1146TIP3   OH2 3380   4.653   1.590   5.271  0.3433 -0.1862 -0.1546
 1146TIP3    H1 3381   4.609   1.665   5.311  0.3066  0.0008 -0.5428
 1146TIP3    H2 3382   4.608   1.577   5.188  1.4054  0.4109 -0.8545
 1147TIP3   OH2 3383   4.114   2.412   5.632  0.3212 -0.8286  0.0528
 1147TIP3    H1 3384   4.201   2.449   5.648  0.2478 -1.1960  1.5075
 1147TIP3    H2 3385   4.087   2.378   5.718 -1.9993  0.8502  0.0660
 1148TIP3   OH2 3386   3.900   7.190   6.668  0.7671 -0.1497 -0.8302
 1148TIP3    H1 3387   3.879   7.167   6.758 -0.2642  0.1791 -0.9821
 1148TIP3    H2 3388   3.969   7.128   6.643  0.6740 -0.5941 -0.0011
 1149TIP3   OH2 3389   3.003   3.915   5.041  0.0925  0.2339  0.1069
 1149TIP3    H1 3390   3.002   3.968   5.121  0.4734 -0.2751  0.4616
 1149TIP3    H2 3391   2.915   3.921   5.006 -0.5359 -0.8145  1.4352
 1150TIP3   OH2 3392   0.214   0.729   2.624  0.0221 -0.3064  0.2998
 1150TIP3    H1 3393   0.206   0.793   2.553  0.5490 -0.3804  0.1713
 1150TIP3    H2 3394   0.173   0.772   2.699  2.4262  1.2108  0.8805
 1151TIP3   OH2 3395   2.256   3.087   5.196 -0.0955  0.6141 -0.3266
 1151TIP3    H1 3396   2.231   3.002   5.161  0.0059  0.4347  0.0309
 1151TIP3    H2 3397   2.340   3.107   5.155  1.0321 -0.5230  1.3038
 1152TIP3   OH2 3398   6.714   4.681   5.546 -0.0575  0.7640  0.1681
 1152TIP3    H1 3399   6.658   4.627   5.602  0.7411  0.6199  0.8486
 1152TIP3    H2 3400   6.745   4.751   5.603 -1.2188  2.0726 -0.7490
 1153TIP3   OH2 3401   5.457   4.912   5.192  0.5078 -0.3742  0.9124
 1153TIP3    H1 3402   5.543   4.923   5.150  0.7231 -1.1948  1.1100
 1153TIP3    H2 3403   5.423   4.830   5.156  0.3330 -0.6666  1.7160
 1154TIP3   OH2 3404   0.673   7.643   2.466  0.0620  0.4146  0.2408
 1154TIP3    H1 3405   0.669   7.573   2.401  1.2087  0.1561  0.4439
 1154TIP3    H2 3406   0.587   7.641   2.508 -0.6345  0.4608 -1.1190
 1155TIP3   OH2 3407   1.108   7.703   1.003  0.3648 -0.3148 -0.0012
 1155TIP3    H1 3408   1.151   7.619   1.022 -0.0870 -0.3809  0.7528
 1155TIP3    H2 3409   1.176   7.768   1.020  0.0661 -0.3898  1.6465
 1156TIP3   OH2 3410   7.537   7.725   4.459  0.1645  0.2183  0.3270
 1156TIP3    H1 3411   7.464   7.786   4.451 -0.5460 -0.6430  0.1649
 1156TIP3    H2 3412   7.543   7.704   4.552  0.4335  0.5562  0.3882
 1157TIP3   OH2 3413   1.389   3.871   5.848 -0.2169 -0.0496  0.0372
 1157TIP3    H1 3414   1.370   3.820   5.927 -1.6536 -0.6577 -0.6883
 1157TIP3    H2 3415   1.323   3.941   5.848  0.1020  0.2563 -0.3719
 1158TIP3   OH2 3416   0.488   2.753   2.849  0.3896 -0.0129 -0.5751
 1158TIP3    H1 3417   0.536   2.724   2.927  0.1345  0.1554 -0.3521
 1158TIP3    H2 3418   0.403   2.710   2.856  1.1962 -1.9623 -2.0417
 1159TIP3   OH2 3419   6.736   5.293   4.009  0.1686  0.2413  0.6789
 1159TIP3    H1 3420   6.667   5.337   4.059  1.5712  0.7537  2.2643
 1159TIP3    H2 3421   6.814   5.346   4.026  1.0017 -0.4144 -0.9326
 1160TIP3   OH2 3422   0.080   2.811   2.348 -0.0409  0.0028  0.0597
 1160TIP3    H1 3423   0.088   2.802   2.443  0.0028  1.1957  0.1766
 1160TIP3    H2 3424   0.131   2.737   2.313 -0.3720 -0.6722  0.9552
 1161TIP3   OH2 3425   7.324   7.512   6.338  0.5358 -0.3665  0.2366
 1161TIP3    H1 3426   7.367   7.435   6.377  0.3977 -0.6162 -0.1007
 1161TIP3    H2 3427   7.393   7.555   6.288  0.2927 -1.0281 -0.6917
 1162TIP3   OH2 3428   0.982   0.360   0.432 -0.3374  0.1693  0.8130
 1162TIP3    H1 3429   0.904   0.381   0.382 -0.2704  1.1965  1.1138
 1162TIP3    H2 3430   1.019   0.445   0.456  1.1138 -0.2933  0.3101
 1163TIP3   OH2 3431   5.744   2.714   2.944  0.3174  0.4969  0.3396
 1163TIP3    H1 3432   5.671   2.777   2.937 -0.1483  0.2268  2.1687
 1163TIP3    H2 3433   5.711   2.634   2.903 -0.0706  0.6655  0.3185
 1164TIP3   OH2 3434   7.366   4.412   0.331 -0.1374  0.1278  0.1333
 1164TIP3    H1 3435   7.455   4.428   0.300 -0.3434 -0.4925 -0.8287
 1164TIP3    H2 3436   7.365   4.320   0.356 -0.3050  0.3259  0.8811
 1165TIP3   OH2 3437   8.245   7.670   5.032  0.0145  0.1837 -0.0460
 1165TIP3    H1 3438   8.303   7.610   5.078  0.6670 -0.2605 -1.3709
 1165TIP3    H2 3439   8.296   7.750   5.021  0.1521  0.0217 -0.6403
 1166TIP3   OH2 3440   7.166   1.118   3.669  0.3320  0.4461 -0.0487
 1166TIP3    H1 3441   7.097   1.075   3.619  0.4859  0.8104 -0.5870
 1166TIP3    H2 3442   7.138   1.112   3.760 -0.1465  0.1233 -0.2152
 1167TIP3   OH2 3443   2.659   1.744   1.067 -0.0358 -0.0324  0.1845
 1167TIP3    H1 3444   2.672   1.792   1.148  0.6114  1.3041 -0.6791
 1167TIP3    H2 3445   2.568   1.712   1.072  0.2067 -0.5643  1.7053
 1168TIP3   OH2 3446   2.800   4.919   1.302 -0.2934  0.0855 -0.0410
 1168TIP3    H1 3447   2.815   4.937   1.209  1.6031 -1.7434 -0.1767
 1168TIP3    H2 3448   2.875   4.959   1.346 -1.0843  0.7794  0.7217
 1169TIP3   OH2 3449   5.681   2.975   3.742 -0.1749 -0.2042  0.4119
 1169TIP3    H1 3450   5.696   3.062   3.777  0.3142 -0.5393  1.0550
 1169TIP3    H2 3451   5.752   2.922   3.779 -1.1926 -1.1533  1.0455
 1170TIP3   OH2 3452   0.917   2.566   0.981 -0.3734 -0.1382  0.4607
 1170TIP3    H1 3453   0.835   2.530   1.015  0.4791 -2.0010  0.6961
 1170TIP3    H2 3454   0.917   2.657   1.009 -1.6778 -0.4972  1.7548
 1171TIP3   OH2 3455   1.769   0.744   2.984 -0.2270  0.0308  0.2586
 1171TIP3    H1 3456   1.692   0.714   3.032 -0.2027  0.0184  0.2895
 1171TIP3    H2 3457   1.808   0.811   3.040 -2.5852  3.2029 -1.5409
 1172TIP3   OH2 3458   7.257   6.502   4.162 -0.4637 -0.5597  0.3049
 1172TIP3    H1 3459   7.238   6.438   4.094  0.0362 -0.8184  0.4058
 1172TIP3    H2 3460   7.174   6.511   4.210 -0.5671 -1.0516  0.2219
 1173TIP3   OH2 3461   5.785   4.734   2.150 -0.0889 -0.1128  0.0489
 1173TIP3    H1 3462   5.737   4.784   2.217  0.1906 -0.9267  0.8838
 1173TIP3    H2 3463   5.852   4.795   2.118  0.9470 -0.2505  1.8218
 1174TIP3   OH2 3464   5.926   0.593   1.362  0.3893 -0.3074 -0.1180
 1174TIP3    H1 3465   5.879   0.557   1.286  1.7500 -1.0023 -0.6657
 1174TIP3    H2 3466   5.890   0.545   1.437  0.4093 -1.0457 -0.5620
 1175TIP3   OH2 3467   4.427   6.789   2.913 -0.1406 -0.5399 -0.0806
 1175TIP3    H1 3468   4.499   6.852   2.922 -0.2185 -0.5217  0.4703
 1175TIP3    H2 3469   4.418   6.776   2.819 -1.2826  1.6166 -0.3498
 1176TIP3   OH2 3470   7.447   6.362   2.854 -0.5972  0.5804  0.0259
 1176TIP3    H1 3471   7.405   6.346   2.938 -1.7831 -1.8779 -0.9409
 1176TIP3    H2 3472   7.505   6.287   2.841  2.0468  2.4666 -0.0115
 1177TIP3   OH2 3473   2.176   1.191   4.228 -0.1350  0.3519 -0.9790
 1177TIP3    H1 3474   2.103   1.188   4.290 -1.3058  1.9085 -2.2044
 1177TIP3    H2 3475   2.197   1.099   4.211 -0.0009 -0.1285  1.4139
 1178TIP3   OH2 3476   2.375   4.680   2.661  0.1066 -0.4722 -0.6285
 1178TIP3    H1 3477   2.466   4.673   2.690 -0.0966 -2.7193 -0.3480
 1178TIP3    H2 3478   2.381   4.708   2.569  0.8935  2.7196  0.2893
 1179TIP3   OH2 3479   2.848   6.580   3.790  0.2321 -0.2896 -0.5162
 1179TIP3    H1 3480   2.844   6.490   3.756  2.5353 -0.5450 -0.2780
 1179TIP3    H2 3481   2.876   6.570   3.881 -0.8471  0.6490 -0.0456
 1180TIP3   OH2 3482   5.222   1.510   4.551  0.3035  0.1345 -0.0502
 1180TIP3    H1 3483   5.128   1.503   4.535  0.1943  0.0075  0.6136
 1180TIP3    H2 3484   5.258   1.547   4.470 -0.3713  0.5629 -0.1600
 1181TIP3   OH2 3485   1.382   3.984   6.230 -0.0180 -0.5232  0.0590
 1181TIP3    H1 3486   1.461   3.963   6.279  1.1816  0.0855 -1.5040
 1181TIP3    H2 3487   1.401   4.070   6.192 -1.6646 -0.1221  0.0902
 1182TIP3   OH2 3488   4.796   1.134   5.831  0.1639  0.1572  0.4511
 1182TIP3    H1 3489   4.841   1.185   5.764  0.4914  1.0156  1.3053
 1182TIP3    H2 3490   4.709   1.173   5.837  0.4940  0.7998  1.2743
 1183TIP3   OH2 3491   5.818   6.604   5.981 -0.1113 -0.5945  0.4554
 1183TIP3    H1 3492   5.824   6.511   5.958 -0.5920 -0.3480 -0.7069
 1183TIP3    H2 3493   5.760   6.642   5.915 -2.0565  0.0413  2.3666
 1184TIP3   OH2 3494   5.018   0.318   2.730 -0.1361 -0.5783  0.2554
 1184TIP3    H1 3495   4.942   0.345   2.782  0.5349  1.2261  0.3713
 1184TIP3    H2 3496   5.066   0.258   2.787  0.1536  0.7315  1.4191
 1185TIP3   OH2 3497   1.356   7.099   3.230 -0.1579 -0.3892  0.5682
 1185TIP3    H1 3498   1.270   7.114   3.270  0.8658 -0.0642  2.8162
 1185TIP3    H2 3499   1.395   7.186   3.222 -0.1796 -0.4871 -0.8616
 1186TIP3   OH2 3500   3.249   2.947   4.803  0.1367  0.3188 -0.0352
 1186TIP3    H1 3501   3.307   2.928   4.729 -2.0895 -0.0738 -1.7904
 1186TIP3    H2 3502   3.271   3.037   4.828  0.4114  0.7804 -1.7587
 1187TIP3   OH2 3503   4.072   5.632   6.043  0.2131 -0.4042  0.2216
 1187TIP3    H1 3504   4.072   5.647   5.948  0.5870 -0.2962  0.2401
 1187TIP3    H2 3505   4.104   5.714   6.081 -1.5267  0.1757  0.5449
 1188TIP3   OH2 3506   5.523   3.163   2.857 -0.0737  0.3893 -0.0681
 1188TIP3    H1 3507   5.618   3.164   2.870 -0.1296 -2.5791  1.6195
 1188TIP3    H2 3508   5.509   3.100   2.787 -0.8057 -0.8705  1.1443
 1189TIP3   OH2 3509   7.350   5.144   1.538  0.8471 -0.0768  0.3100
 1189TIP3    H1 3510   7.297   5.131   1.617 -1.2332 -0.5379 -1.0539
 1189TIP3    H2 3511   7.387   5.058   1.519  1.0035 -0.0646  0.5689
 1190TIP3   OH2 3512   3.310   6.292   3.916 -0.3160 -0.4648 -0.1471
 1190TIP3    H1 3513   3.404   6.286   3.933 -0.3474 -1.5726 -0.2799
 1190TIP3    H2 3514   3.269   6.242   3.987 -0.7457 -0.7389 -0.5727
 1191TIP3   OH2 3515   0.824   2.288   4.449 -0.2791 -0.1881  0.0242
 1191TIP3    H1 3516   0.891   2.298   4.382  1.7980  2.3019  2.2567
 1191TIP3    H2 3517   0.753   2.345   4.421 -1.4915 -2.5293 -2.1412
 1192TIP3   OH2 3518   4.572   6.991   2.767  0.3694 -0.2545  0.2840
 1192TIP3    H1 3519   4.619   7.018   2.846  0.9297  1.4493 -0.5782
 1192TIP3    H2 3520   4.502   7.056   2.757 -0.0813 -0.8124 -0.2956
 1193TIP3   OH2 3521   4.216   7.303   3.838 -0.4652 -0.1607  0.1313
 1193TIP3    H1 3522   4.237   7.254   3.917  1.2889  0.5764  0.1674
 1193TIP3    H2 3523   4.121   7.299   3.832 -0.4968 -2.0696  1.0703
 1194TIP3   OH2 3524   5.870   1.861   5.787  0.3542 -0.3297  0.2041
 1194TIP3    H1 3525   5.827   1.908   5.858 -1.0236  0.0741 -0.8515
 1194TIP3    H2 3526   5.932   1.802   5.831 -0.5643 -0.2020  1.7403
 1195TIP3   OH2 3527   2.833   5.357   4.713 -0.1541  0.3008  0.2317
 1195TIP3    H1 3528   2.880   5.441   4.706 -1.1588  0.8937  0.3573
 1195TIP3    H2 3529   2.792   5.346   4.627  3.5227 -2.3334 -1.4683
 1196TIP3   OH2 3530   0.440   6.343   3.781 -0.3170  0.0294 -0.0698
 1196TIP3    H1 3531   0.389   6.289   3.840  0.4782 -0.8939 -0.2096
 1196TIP3    H2 3532   0.506   6.385   3.836 -0.7899  0.6976  0.0014
 1197TIP3   OH2 3533   0.489   1.595   0.516  0.1454 -0.2247  0.3656
 1197TIP3    H1 3534   0.427   1.561   0.579  0.1503 -1.7657 -0.4233
 1197TIP3    H2 3535   0.442   1.594   0.433  1.1541 -1.2780 -0.2154
 1198TIP3   OH2 3536   8.104   0.185   3.473  0.1831  0.7062 -1.0443
 1198TIP3    H1 3537   8.037   0.249   3.496  0.5284  1.0968 -1.1117
 1198TIP3    H2 3538   8.111   0.128   3.550 -1.2924 -0.2838 -1.5930
 1199TIP3   OH2 3539   5.128   1.493   0.611 -0.0832  0.8480 -0.0299
 1199TIP3    H1 3540   5.082   1.409   0.615  0.8304  0.2014 -2.0151
 1199TIP3    H2 3541   5.193   1.487   0.681  0.2584 -0.3033 -0.4180
 1200TIP3   OH2 3542   7.215   0.554   3.737  0.0697  0.2918  0.2687
 1200TIP3    H1 3543   7.243   0.583   3.650 -1.1051  0.6067 -0.0237
 1200TIP3    H2 3544   7.256   0.469   3.749 -0.9906 -0.4874 -1.2794
 1201TIP3   OH2 3545   5.918   1.480   5.849 -0.8510 -0.4857 -0.1926
 1201TIP3    H1 3546   5.941   1.549   5.911 -0.1799 -1.1161  0.2841
 1201TIP3    H2 3547   5.961   1.506   5.768 -1.1118 -0.0312 -0.1863
 1202TIP3   OH2 3548   3.694   0.403   2.919  0.5792 -0.4162 -0.1562
 1202TIP3    H1 3549   3.776   0.403   2.968  0.0199 -1.9421  0.8401
 1202TIP3    H2 3550   3.681   0.312   2.892 -0.7785 -0.2159 -0.2824
 1203TIP3   OH2 3551   6.526   7.115   5.626  0.0552 -0.3168  0.5378
 1203TIP3    H1 3552   6.588   7.125   5.554 -0.2224 -1.7433  0.0625
 1203TIP3    H2 3553   6.446   7.157   5.595 -0.1897 -1.2739 -0.1862
 1204TIP3   OH2 3554   1.503   6.698   4.497  0.1844 -0.2503 -0.1837
 1204TIP3    H1 3555   1.507   6.715   4.592  1.0608  0.0413 -0.2579
 1204TIP3    H2 3556   1.576   6.638   4.481 -0.4128 -0.8884 -0.5704
 1205TIP3   OH2 3557   6.908   7.260   1.719 -0.2586 -0.4851  0.8057
 1205TIP3    H1 3558   6.927   7.352   1.739 -0.0242 -0.5750  0.9966
 1205TIP3    H2 3559   6.867   7.263   1.633  0.2731 -0.2537  0.5554
 1206TIP3   OH2 3560   0.186   3.803   0.703  0.0665  0.2389 -0.2608
 1206TIP3    H1 3561   0.162   3.866   0.635 -2.7642 -0.4134  0.0198
 1206TIP3    H2 3562   0.175   3.851   0.785 -2.2621 -0.5974 -0.0381
 1207TIP3   OH2 3563   2.330   5.011   5.513 -0.1808 -0.7362  0.2005
 1207TIP3    H1 3564   2.320   4.922   5.548  0.5216 -1.1108 -0.5216
 1207TIP3    H2 3565   2.302   5.003   5.422  0.4628 -0.3546 -0.0328
 1208TIP3   OH2 3566   0.431   3.031   0.361 -0.1542  0.4454  0.4624
 1208TIP3    H1 3567   0.476   2.980   0.428  2.3752 -0.3827 -1.6579
 1208TIP3    H2 3568   0.464   3.120   0.373  0.4214  0.2670  0.2472
 1209TIP3   OH2 3569   4.189   1.008   2.784  0.4551 -0.2386  0.0756
 1209TIP3    H1 3570   4.200   0.930   2.730 -0.1734 -0.3855  0.1563
 1209TIP3    H2 3571   4.220   0.982   2.870 -2.1161 -1.2389  0.7863
 1210TIP3   OH2 3572   8.253   3.710   4.486 -0.2171 -0.3621 -0.0155
 1210TIP3    H1 3573   8.171   3.686   4.441  0.0463 -2.1009  0.3787
 1210TIP3    H2 3574   8.255   3.654   4.563  0.9228  0.3074  0.4513
 1211TIP3   OH2 3575   0.001   1.233   4.068  0.0031 -0.2998  0.2873
 1211TIP3    H1 3576   0.096   1.234   4.057 -0.1139  0.9032 -1.0252
 1211TIP3    H2 3577  -0.016   1.296   4.138  0.2261 -1.2466  1.1995
 1212TIP3   OH2 3578   7.334   1.150   2.458  0.2530  0.1625  0.0964
 1212TIP3    H1 3579   7.420   1.175   2.425 -0.5380  1.9673 -0.7881
 1212TIP3    H2 3580   7.339   1.163   2.552  0.8381  0.6615  0.0034
 1213TIP3   OH2 3581   3.572   3.302   2.046  0.4165 -0.8326  0.4532
 1213TIP3    H1 3582   3.514   3.285   2.120 -0.2598  1.7707  0.6154
 1213TIP3    H2 3583   3.645   3.350   2.084 -0.2412  1.1001 -0.5737
 1214TIP3   OH2 3584   6.426   3.785   5.647 -0.5584  0.4248  0.2180
 1214TIP3    H1 3585   6.500   3.826   5.602  1.5789 -1.3611  1.8678
 1214TIP3    H2 3586   6.452   3.781   5.739 -1.1574 -3.2507  0.3917
 1215TIP3   OH2 3587   0.900   3.043   0.358 -0.1989  0.4829  0.2853
 1215TIP3    H1 3588   0.985   3.083   0.373  0.4727 -1.5543  2.3845
 1215TIP3    H2 3589   0.918   2.965   0.306 -0.7944  0.1567  0.5528
 1216TIP3   OH2 3590   2.617   2.424   0.399 -0.6210  0.0600 -0.1589
 1216TIP3    H1 3591   2.547   2.487   0.383  0.1925  1.1824  0.5165
 1216TIP3    H2 3592   2.598   2.389   0.486 -0.8357 -0.3108 -0.3539
 1217TIP3   OH2 3593   8.263   0.922   3.995 -0.8478  0.2141  0.0445
 1217TIP3    H1 3594   8.343   0.869   3.996  0.4994  2.1447 -0.1901
 1217TIP3    H2 3595   8.278   0.989   4.062 -1.7866  1.3096 -0.8030
 1218TIP3   OH2 3596   7.563   4.789   0.583 -0.6544  0.4111 -0.1514
 1218TIP3    H1 3597   7.624   4.733   0.535 -1.8742 -0.5662 -0.5981
 1218TIP3    H2 3598   7.476   4.759   0.557 -1.4062  3.1616 -1.1915
 1219TIP3   OH2 3599   0.021   6.741   0.741  0.3669 -0.3371 -0.0328
 1219TIP3    H1 3600   0.016   6.809   0.674 -0.4382 -0.8709 -0.5343
 1219TIP3    H2 3601   0.010   6.659   0.693  2.4898 -0.9495  0.3881
 1220TIP3   OH2 3602   1.008   6.922   3.874  0.4323  0.4272 -0.2703
 1220TIP3    H1 3603   0.955   6.884   3.945 -2.2425  4.1039  0.0118
 1220TIP3    H2 3604   0.955   6.910   3.795  0.4733  1.6629 -0.5099
 1221TIP3   OH2 3605   5.046   0.077   0.781 -0.6909  0.2489  0.6481
 1221TIP3    H1 3606   5.010   0.018   0.848  0.2099 -1.2244 -0.1176
 1221TIP3    H2 3607   5.141   0.074   0.795 -0.6553  1.9134  0.8831
 1222TIP3   OH2 3608   2.613   4.073   1.573 -0.6836 -0.3839 -0.6095
 1222TIP3    H1 3609   2.575   4.011   1.510 -1.1540  0.3853 -1.0931
 1222TIP3    H2 3610   2.549   4.077   1.644  0.0366 -1.5675  0.1495
 1223TIP3   OH2 3611   6.351   3.739   0.830 -0.1407  0.0977  0.4037
 1223TIP3    H1 3612   6.434   3.695   0.845 -0.1441 -0.0409  0.0261
 1223TIP3    H2 3613   6.287   3.687   0.878 -0.3354 -1.0159 -1.0199
 1224TIP3   OH2 3614   5.889   5.421   1.710  0.2441  0.1154 -0.2099
 1224TIP3    H1 3615   5.943   5.351   1.746  1.1229  0.2456 -1.2076
 1224TIP3    H2 3616   5.837   5.452   1.784 -0.0343 -1.4558  0.2993
 1225TIP3   OH2 3617   0.952   6.194   3.047 -0.3583 -0.7600 -0.1629
 1225TIP3    H1 3618   0.951   6.132   3.120  0.0566 -0.7524 -0.1517
 1225TIP3    H2 3619   1.004   6.268   3.079 -1.7268  0.0754  0.2204
 1226TIP3   OH2 3620   6.860  -0.014   5.154  0.0746 -0.0889  0.5410
 1226TIP3    H1 3621   6.868   0.052   5.224  1.6870 -0.7064  0.9842
 1226TIP3    H2 3622   6.923   0.014   5.088  0.4573 -0.9396  0.5387
 1227TIP3   OH2 3623   8.081   1.788   0.049  0.8549 -0.4455 -0.0745
 1227TIP3    H1 3624   8.151   1.814   0.108  0.9485  1.6928 -1.0473
 1227TIP3    H2 3625   8.122   1.787  -0.038  0.0580 -0.7614 -0.4587
 1228TIP3   OH2 3626   6.338   4.923   2.978 -0.1340  0.6506 -0.0201
 1228TIP3    H1 3627   6.339   4.985   3.051 -2.2543  0.8159 -0.0921
 1228TIP3    H2 3628   6.378   4.972   2.906  1.1436  0.7987  0.7515
 1229TIP3   OH2 3629   1.290   3.902   3.930 -0.0395  0.1622  0.5349
 1229TIP3    H1 3630   1.236   3.957   3.987  0.1227  0.7928  0.0944
 1229TIP3    H2 3631   1.310   3.959   3.855 -1.2741 -1.0089 -0.7536
 1230TIP3   OH2 3632   6.825   1.796   6.287  0.3322 -0.0891 -0.9239
 1230TIP3    H1 3633   6.888   1.829   6.352 -1.4988 -2.3049  2.2857
 1230TIP3    H2 3634   6.866   1.716   6.254  0.2638 -0.2212 -0.6923
 1231TIP3   OH2 3635   4.654   4.421   0.513 -0.0143 -0.3244  0.2614
 1231TIP3    H1 3636   4.598   4.492   0.481  0.8177 -0.4528 -1.6359
 1231TIP3    H2 3637   4.704   4.460   0.585 -1.2696  0.2887  0.8280
 1232TIP3   OH2 3638   2.279   1.241   1.320 -0.0870  0.1717  0.4108
 1232TIP3    H1 3639   2.369   1.257   1.346 -0.5592  0.3072  2.1142
 1232TIP3    H2 3640   2.248   1.325   1.285 -0.3756  0.9949  2.5031
 1233TIP3   OH2 3641   5.964   4.149   3.277  0.0703 -0.4734  0.1198
 1233TIP3    H1 3642   5.932   4.236   3.301 -0.3862 -0.9536  1.3316
 1233TIP3    H2 3643   6.012   4.119   3.354 -0.7351 -1.7332  0.1700
 1234TIP3   OH2 3644   6.111   3.550   6.158  0.0118  0.0450 -0.2938
 1234TIP3    H1 3645   6.157   3.539   6.075 -0.6931 -0.2497 -0.6549
 1234TIP3    H2 3646   6.070   3.636   6.151 -0.5054 -0.2128 -0.4871
 1235TIP3   OH2 3647   6.476   3.900   3.255 -0.9267 -0.3837  0.0001
 1235TIP3    H1 3648   6.489   3.810   3.285  0.9343 -0.2396 -0.2402
 1235TIP3    H2 3649   6.442   3.891   3.166 -2.8066 -0.8093  0.7125
 1236TIP3   OH2 3650   0.029   6.950   1.814  0.5822  0.9507  0.0411
 1236TIP3    H1 3651   0.088   6.909   1.877 -2.6652 -0.1398  2.6274
 1236TIP3    H2 3652  -0.006   6.877   1.763 -0.4934  1.2516  0.3350
 1237TIP3   OH2 3653   3.904   1.890   3.799 -0.0618 -0.2507  0.6166
 1237TIP3    H1 3654   3.857   1.924   3.722  1.6219 -0.2131 -0.4528
 1237TIP3    H2 3655   3.956   1.964   3.829 -1.6645  0.1419  2.6780
 1238TIP3   OH2 3656   2.385   6.015   5.081 -0.6515  0.4423 -0.2500
 1238TIP3    H1 3657   2.376   6.108   5.061  1.5021  0.8710  0.5443
 1238TIP3    H2 3658   2.343   6.005   5.166 -0.2723  0.8337 -0.0160
 1239TIP3   OH2 3659   2.400   3.105   4.847 -0.1117 -0.2212 -0.2759
 1239TIP3    H1 3660   2.357   3.028   4.808 -0.4086 -0.7241  1.0014
 1239TIP3    H2 3661   2.378   3.177   4.788  0.1125 -1.0892 -1.4634
 1240TIP3   OH2 3662   1.277   2.091   6.446 -0.0186 -0.4693  0.8391
 1240TIP3    H1 3663   1.318   2.045   6.372 -0.8813 -0.4991  0.3593
 1240TIP3    H2 3664   1.343   2.090   6.515  0.2988 -1.6615  0.5356
 1241TIP3   OH2 3665   1.847   0.019   6.657  0.1762 -0.3117  0.2028
 1241TIP3    H1 3666   1.812  -0.070   6.652 -0.7710 -0.0179  1.1680
 1241TIP3    H2 3667   1.771   0.073   6.680  0.8289  0.6776  0.0793
 1242TIP3   OH2 3668   0.436   5.996   6.190  0.4968  0.0809 -0.1856
 1242TIP3    H1 3669   0.360   6.014   6.245  0.1928  0.4680 -0.7178
 1242TIP3    H2 3670   0.500   6.064   6.214  0.4377  0.1321 -0.1725
 1243TIP3   OH2 3671   5.208   6.259   1.297  0.0016  0.7631 -0.1635
 1243TIP3    H1 3672   5.265   6.309   1.356 -1.7360  1.9280  0.6215
 1243TIP3    H2 3673   5.139   6.224   1.354 -0.0229 -0.7090 -1.0565
 1244TIP3   OH2 3674   1.206   4.509   0.095 -0.2440  0.1287 -0.2732
 1244TIP3    H1 3675   1.291   4.479   0.062 -0.2020 -0.3802  0.2960
 1244TIP3    H2 3676   1.223   4.598   0.126 -0.1757  0.4369 -1.1666
 1245TIP3   OH2 3677   3.229   6.232   0.950 -0.2878  0.0524 -0.0591
 1245TIP3    H1 3678   3.182   6.150   0.964  1.7067 -1.0722  0.4943
 1245TIP3    H2 3679   3.318   6.205   0.925 -0.1206  2.0457 -1.9938
 1246TIP3   OH2 3680   3.413   0.368   4.958 -0.5191  0.0769 -0.0076
 1246TIP3    H1 3681   3.467   0.352   5.035 -0.1242  0.5457 -0.1834
 1246TIP3    H2 3682   3.473   0.356   4.884 -0.8288 -0.1078 -0.2301
 1247TIP3   OH2 3683   6.024   0.897   2.047 -0.3713  0.0313 -0.1336
 1247TIP3    H1 3684   6.100   0.934   2.003 -1.1049  0.0552 -1.4315
 1247TIP3    H2 3685   6.016   0.947   2.128  1.2225 -0.2594  0.2330
 1248TIP3   OH2 3686   5.996   6.758   1.576 -0.5606 -0.3061 -0.3158
 1248TIP3    H1 3687   6.038   6.804   1.648  2.0676 -0.9421 -1.3370
 1248TIP3    H2 3688   5.991   6.822   1.505  1.7048 -1.0074 -1.2244
 1249TIP3   OH2 3689   4.068   7.026   4.931  0.1189 -0.5359 -1.0241
 1249TIP3    H1 3690   3.999   7.053   4.870  0.1844 -1.4279 -1.4957
 1249TIP3    H2 3691   4.053   7.081   5.009 -0.7657 -0.3107 -1.3379
 1250TIP3   OH2 3692   3.273   5.069   3.920  0.0943 -0.2283 -0.2483
 1250TIP3    H1 3693   3.263   5.096   4.011  0.4109 -1.8321  0.2893
 1250TIP3    H2 3694   3.259   5.149   3.869 -1.8037  0.3564  1.1020
 1251TIP3   OH2 3695   7.485   4.190   6.790  0.4342  0.2584  0.1574
 1251TIP3    H1 3696   7.496   4.277   6.752 -1.3340  0.2560 -0.4553
 1251TIP3    H2 3697   7.568   4.146   6.775  0.8771  1.3772 -0.7609
 1252TIP3   OH2 3698   5.099   4.565   6.200  0.0791 -0.3819  0.8231
 1252TIP3    H1 3699   5.136   4.627   6.262  3.5355 -1.0977 -0.3282
 1252TIP3    H2 3700   5.143   4.583   6.118 -1.4039 -2.0979 -0.4469
 1253TIP3   OH2 3701   1.408   1.964   6.203  0.3978 -0.4271 -0.0191
 1253TIP3    H1 3702   1.458   1.908   6.144  1.5114 -0.2079  0.6671
 1253TIP3    H2 3703   1.453   2.048   6.199 -0.7016  0.1556 -0.3431
 1254TIP3   OH2 3704   7.554   5.872   6.539  0.3132  0.1935 -0.3602
 1254TIP3    H1 3705   7.501   5.797   6.564 -1.4883  1.0508 -1.3814
 1254TIP3    H2 3706   7.538   5.937   6.607  1.1810 -0.0188  0.0613
 1255TIP3   OH2 3707   0.979   7.715   2.348 -0.3288 -0.0505  0.1039
 1255TIP3    H1 3708   0.924   7.640   2.372  0.9209 -1.2142 -0.5009
 1255TIP3    H2 3709   1.007   7.696   2.258  1.4811  0.1925  0.5781
 1256TIP3   OH2 3710   5.462   1.080   1.408  0.0988 -0.0936 -0.3848
 1256TIP3    H1 3711   5.462   1.096   1.503  0.8070 -1.6282 -0.0968
 1256TIP3    H2 3712   5.535   1.132   1.376  0.3517 -0.1748  0.0420
 1257TIP3   OH2 3713   2.560   5.371   1.280  0.3818 -0.1771 -0.2426
 1257TIP3    H1 3714   2.569   5.415   1.365  1.5525 -0.6189 -0.1230
 1257TIP3    H2 3715   2.619   5.420   1.222 -1.1563  0.7583 -1.0880
 1258TIP3   OH2 3716   6.812   0.485   6.008  0.0321 -0.2861 -0.1360
 1258TIP3    H1 3717   6.773   0.557   5.960 -1.3873  0.8023  2.4294
 1258TIP3    H2 3718   6.791   0.407   5.956 -0.0225  0.9222 -2.0140
 1259TIP3   OH2 3719   6.564   5.863   0.548  0.2603 -0.0066  0.4694
 1259TIP3    H1 3720   6.535   5.919   0.620  0.0582  0.8345 -0.2472
 1259TIP3    H2 3721   6.485   5.817   0.520  0.5182 -1.0378  1.3680
 1260TIP3   OH2 3722   6.322   6.096   6.640 -0.5463 -0.2617 -0.1842
 1260TIP3    H1 3723   6.326   6.017   6.694 -0.1968  0.7341  1.2999
 1260TIP3    H2 3724   6.322   6.168   6.703  1.5709  1.0253 -1.5487
 1261TIP3   OH2 3725   8.223   2.325   5.665  0.1104 -0.6086 -0.4861
 1261TIP3    H1 3726   8.245   2.395   5.727 -1.6828  0.3938 -0.9144
 1261TIP3    H2 3727   8.197   2.371   5.585 -0.2020 -1.8055 -1.0998
 1262TIP3   OH2 3728   4.200   2.087   1.655 -0.1489 -0.3011 -0.0196
 1262TIP3    H1 3729   4.144   2.012   1.637 -0.1087 -0.1737 -0.7225
 1262TIP3    H2 3730   4.221   2.123   1.568  0.7113 -0.1258  0.2498
 1263TIP3   OH2 3731   2.425   4.493   5.652  0.1208 -0.1643 -0.0150
 1263TIP3    H1 3732   2.518   4.482   5.668  0.1727  0.7606  0.3668
 1263TIP3    H2 3733   2.387   4.511   5.738  0.1377  3.0486 -0.5731
 1264TIP3   OH2 3734   1.423   6.038   3.352  0.5356 -0.0124  0.1143
 1264TIP3    H1 3735   1.447   6.106   3.289  0.6697 -1.4078 -1.4311
 1264TIP3    H2 3736   1.428   5.956   3.301  1.5641 -1.3229  2.1741
 1265TIP3   OH2 3737   7.589   5.258   1.135  0.0593 -0.1684  0.3296
 1265TIP3    H1 3738   7.641   5.241   1.213  0.5605  2.8397  0.8034
 1265TIP3    H2 3739   7.508   5.209   1.147  1.3166 -2.1192  1.2668
 1266TIP3   OH2 3740   0.488   2.945   4.910  0.0447 -0.4330  0.1316
 1266TIP3    H1 3741   0.472   2.896   4.830 -0.9373 -0.4600  0.3336
 1266TIP3    H2 3742   0.409   2.998   4.922  0.8436  0.7843  0.2171
 1267TIP3   OH2 3743   5.903   5.811   3.348  0.1141 -0.2384 -0.3830
 1267TIP3    H1 3744   5.891   5.901   3.319  0.8514 -0.3439 -1.0351
 1267TIP3    H2 3745   5.885   5.758   3.270  1.6381 -0.5498 -0.5613
 1268TIP3   OH2 3746   7.562   4.216   4.781  0.1289 -0.5732 -0.0316
 1268TIP3    H1 3747   7.609   4.297   4.803  2.5990 -1.8116 -0.4093
 1268TIP3    H2 3748   7.526   4.187   4.865  0.4899  0.1582  0.3945
 1269TIP3   OH2 3749   7.456   0.593   3.525 -0.0274  0.0920  0.2402
 1269TIP3    H1 3750   7.534   0.543   3.502 -0.6496 -0.8003  0.0494
 1269TIP3    H2 3751   7.489   0.681   3.546  1.0679 -0.4015  0.6044
 1270TIP3   OH2 3752   3.603   5.077   4.445  0.6757 -0.0794  0.1306
 1270TIP3    H1 3753   3.672   5.058   4.508  0.3077  1.0918  0.9035
 1270TIP3    H2 3754   3.521   5.068   4.494  0.4286  2.2875  0.2962
 1271TIP3   OH2 3755   8.006   0.919   1.743 -0.0339 -0.2060  0.7300
 1271TIP3    H1 3756   8.092   0.876   1.748  1.0402  1.8886  2.1932
 1271TIP3    H2 3757   8.003   0.956   1.655  1.2454  0.8823  1.1043
 1272TIP3   OH2 3758   4.136   1.234   6.542  0.1354 -0.7219 -0.2829
 1272TIP3    H1 3759   4.155   1.328   6.537 -3.0569  0.1543  1.2106
 1272TIP3    H2 3760   4.191   1.202   6.613  2.3367 -0.3965 -1.7410
 1273TIP3   OH2 3761   0.614   0.492   5.243 -0.2982 -0.2512  0.1661
 1273TIP3    H1 3762   0.705   0.479   5.219 -0.4301 -0.2036 -0.3844
 1273TIP3    H2 3763   0.565   0.468   5.164 -0.7649 -0.3520  0.4788
 1274TIP3   OH2 3764   5.100   1.014   2.939 -0.6434 -0.1985 -0.6255
 1274TIP3    H1 3765   5.039   1.082   2.967  1.3634  1.7581 -0.7219
 1274TIP3    H2 3766   5.061   0.933   2.971 -2.4676  1.0970  0.6934
 1275TIP3   OH2 3767   1.399   0.668   1.421  0.3875 -0.2271  0.2822
 1275TIP3    H1 3768   1.400   0.590   1.365 -0.7437 -1.3465  1.7339
 1275TIP3    H2 3769   1.487   0.706   1.412  0.5523 -0.9387 -1.4201
 1276TIP3   OH2 3770   3.139   3.991   1.104  0.1005 -0.1266  0.5080
 1276TIP3    H1 3771   3.100   4.070   1.065 -0.3011 -1.0772 -1.1560
 1276TIP3    H2 3772   3.232   4.011   1.112 -0.1843  0.9476  1.2619
 1277TIP3   OH2 3773   7.318   3.028   5.632 -0.0649 -0.2675 -0.1022
 1277TIP3    H1 3774   7.229   3.002   5.605 -1.1345  2.2489  0.6678
 1277TIP3    H2 3775   7.375   2.993   5.564 -1.8870 -0.2419 -1.7391
 1278TIP3   OH2 3776   6.389   3.145   0.589 -0.3505 -0.4083  0.1314
 1278TIP3    H1 3777   6.454   3.165   0.656 -0.2574 -0.7833  0.1549
 1278TIP3    H2 3778   6.307   3.180   0.624 -0.8154 -2.7309  1.5810
 1279TIP3   OH2 3779   2.917   5.282   0.932 -0.1514 -0.1893 -0.2751
 1279TIP3    H1 3780   2.836   5.272   0.882 -1.5195 -0.5176  1.8658
 1279TIP3    H2 3781   2.956   5.362   0.898 -1.8555  0.4875 -0.7424
 1280TIP3   OH2 3782   7.136   3.351   3.515 -0.0792 -0.5028  0.1380
 1280TIP3    H1 3783   7.067   3.375   3.451  1.4750 -1.6952 -2.1259
 1280TIP3    H2 3784   7.216   3.346   3.463  1.6217  0.0113  2.5393
 1281TIP3   OH2 3785   1.617   1.732   6.085 -0.4181  0.2733  0.2285
 1281TIP3    H1 3786   1.572   1.655   6.051 -0.9410  0.1061  1.2471
 1281TIP3    H2 3787   1.704   1.729   6.046 -0.2790 -1.0922  0.5975
 1282TIP3   OH2 3788   5.398   6.137   1.121  0.2707 -0.1209 -0.0582
 1282TIP3    H1 3789   5.338   6.182   1.179 -1.3106  0.0485 -1.7443
 1282TIP3    H2 3790   5.484   6.172   1.144 -0.2242 -0.2961  2.3399
 1283TIP3   OH2 3791   3.078   5.516   0.885  0.3337  0.0400  0.6468
 1283TIP3    H1 3792   3.122   5.589   0.929 -0.4509  0.3854  0.8839
 1283TIP3    H2 3793   3.146   5.474   0.833  0.9009  0.6572  0.8817
 1284TIP3   OH2 3794   0.799   6.210   1.689  0.0797  1.0334 -0.3837
 1284TIP3    H1 3795   0.776   6.221   1.781  1.1019  0.9106 -0.0988
 1284TIP3    H2 3796   0.814   6.116   1.679  0.6948  1.1395 -0.4921
 1285TIP3   OH2 3797   2.376   3.060   5.608  0.0460 -0.0708 -0.5730
 1285TIP3    H1 3798   2.416   2.981   5.572 -0.3957  0.1164 -1.4995
 1285TIP3    H2 3799   2.435   3.131   5.580  0.4798 -0.0697  0.3142
 1286TIP3   OH2 3800   6.021   0.412   4.286 -0.1641 -0.1407  0.3586
 1286TIP3    H1 3801   6.066   0.489   4.251  0.0682  0.8949  2.7397
 1286TIP3    H2 3802   6.082   0.340   4.274  0.8755  0.6472  0.7313
 1287TIP3   OH2 3803   6.932   2.543   2.165  0.2066  0.0545  0.0260
 1287TIP3    H1 3804   6.910   2.561   2.257 -3.0221 -2.0342 -0.1695
 1287TIP3    H2 3805   7.003   2.479   2.170 -0.7838 -0.9998  1.1395
 1288TIP3   OH2 3806   0.500   4.140   3.019 -0.6133  0.1830 -0.0462
 1288TIP3    H1 3807   0.475   4.190   2.941 -0.9652  0.8769  0.5000
 1288TIP3    H2 3808   0.467   4.192   3.092  0.5619  0.0370  0.6116
 1289TIP3   OH2 3809   3.854   5.190   1.581  0.0593  0.3159  0.0316
 1289TIP3    H1 3810   3.919   5.161   1.517  0.1670 -1.5916  0.9168
 1289TIP3    H2 3811   3.899   5.259   1.630  1.5839 -1.0758  0.7352
 1290TIP3   OH2 3812   7.390   0.991   3.746  0.4318 -0.3457 -0.2246
 1290TIP3    H1 3813   7.328   1.037   3.689  1.7561 -0.0563 -1.5017
 1290TIP3    H2 3814   7.442   1.060   3.787  1.3883 -0.6153 -0.9309
 1291TIP3   OH2 3815   6.208   1.450   1.117  0.2276 -0.8981 -0.7789
 1291TIP3    H1 3816   6.132   1.460   1.060 -0.5266 -0.5681  0.2624
 1291TIP3    H2 3817   6.238   1.539   1.134 -0.6087 -0.8766  0.7174
 1292TIP3   OH2 3818   5.801   0.644   1.849  0.1687 -0.6300 -0.4564
 1292TIP3    H1 3819   5.802   0.625   1.943 -0.7411 -0.8035 -0.4638
 1292TIP3    H2 3820   5.731   0.587   1.815  0.8404 -0.9541 -1.3248
 1293TIP3   OH2 3821   6.077   6.996   4.862 -0.5385 -0.5291 -0.1549
 1293TIP3    H1 3822   6.112   7.077   4.901 -0.2765 -0.0930 -1.2493
 1293TIP3    H2 3823   6.031   7.026   4.784 -1.1949 -1.3639 -0.0912
 1294TIP3   OH2 3824   5.555   0.201   1.472 -0.2836  0.4130  0.8572
 1294TIP3    H1 3825   5.570   0.207   1.377 -1.7584 -3.1373  0.2183
 1294TIP3    H2 3826   5.482   0.261   1.488 -1.9346 -0.9332 -0.9447
 1295TIP3   OH2 3827   1.973   2.256   6.344 -0.4730 -0.5446  0.6023
 1295TIP3    H1 3828   1.935   2.231   6.259  1.2148 -0.6754 -0.1646
 1295TIP3    H2 3829   2.024   2.335   6.324 -0.1323 -0.5312  1.5148
 1296TIP3   OH2 3830   0.875   5.062   3.134 -0.2095  0.5236 -0.0962
 1296TIP3    H1 3831   0.826   5.087   3.212  0.3788 -0.2261  0.5199
 1296TIP3    H2 3832   0.809   5.059   3.064 -0.7729  0.9917  0.4058
 1297TIP3   OH2 3833   0.939   5.332   2.160  0.4928  0.4528  0.1077
 1297TIP3    H1 3834   0.945   5.376   2.245  1.4080 -0.2319  0.4172
 1297TIP3    H2 3835   0.863   5.276   2.168  0.2771  0.7678  0.2924
 1298TIP3   OH2 3836   4.114   5.365   6.159  0.0991 -0.2875  0.2441
 1298TIP3    H1 3837   4.200   5.375   6.199 -1.3601  0.3534  3.5095
 1298TIP3    H2 3838   4.079   5.455   6.155 -1.4574 -0.7897  1.6090
 1299TIP3   OH2 3839   2.025   3.552   3.951 -0.3718 -0.6033 -0.6397
 1299TIP3    H1 3840   1.978   3.476   3.917  0.3918 -0.9142 -1.0231
 1299TIP3    H2 3841   1.962   3.596   4.008 -1.6724 -0.0919 -2.3912
 1300TIP3   OH2 3842   4.204   1.077   3.412  0.1855  0.5091 -0.5697
 1300TIP3    H1 3843   4.111   1.055   3.422  0.2807  0.5993  0.6076
 1300TIP3    H2 3844   4.211   1.112   3.323 -0.6659 -0.6861 -1.1232
 1301TIP3   OH2 3845   2.331   3.714   6.051  0.4082 -0.3572 -0.1197
 1301TIP3    H1 3846   2.367   3.627   6.033  0.5761 -0.5726  1.1516
 1301TIP3    H2 3847   2.381   3.746   6.126 -0.2436  0.4728 -0.0203
 1302TIP3   OH2 3848   1.962   7.175   6.051 -0.1771  0.2496 -0.8687
 1302TIP3    H1 3849   2.051   7.211   6.047 -1.0613  2.7781 -0.2294
 1302TIP3    H2 3850   1.935   7.165   5.960  0.6511 -0.2973 -1.0628
 1303TIP3   OH2 3851   0.509   4.661   4.437 -0.5699 -0.1097  0.7615
 1303TIP3    H1 3852   0.488   4.696   4.524 -0.9226 -0.2927  0.7499
 1303TIP3    H2 3853   0.447   4.590   4.424  0.0791 -0.6867  0.7447
 1304TIP3   OH2 3854   2.754   2.488   5.074  0.2342  0.0306  0.3341
 1304TIP3    H1 3855   2.760   2.579   5.106 -1.9477  1.1685 -2.1596
 1304TIP3    H2 3856   2.728   2.438   5.152  0.6142  1.6882  1.5949
 1305TIP3   OH2 3857   4.884   5.333   3.739  0.4501 -1.0433  0.0390
 1305TIP3    H1 3858   4.820   5.401   3.715 -0.0380 -0.5406  2.5101
 1305TIP3    H2 3859   4.852   5.254   3.696 -0.3610 -0.2432 -0.8902
 1306TIP3   OH2 3860   5.384   6.027   4.354 -0.6935  0.1374 -0.4701
 1306TIP3    H1 3861   5.363   6.118   4.372 -0.7650  0.0125  0.1084
 1306TIP3    H2 3862   5.343   6.009   4.269 -1.7478  0.3009 -0.0130
 1307TIP3   OH2 3863   3.576   5.542   5.323  0.3381  0.1594 -0.2707
 1307TIP3    H1 3864   3.586   5.449   5.343  1.0613 -0.2412 -2.2245
 1307TIP3    H2 3865   3.573   5.545   5.227  2.2320  2.3095 -0.3363
 1308TIP3   OH2 3866   4.284   0.830   5.978  0.0242  0.1130  0.5774
 1308TIP3    H1 3867   4.214   0.895   5.985  0.6403  0.7757  0.7552
 1308TIP3    H2 3868   4.318   0.840   5.890 -0.5457 -0.6888  0.2514
 1309TIP3   OH2 3869   1.678   1.967   5.851 -0.3282 -0.0964  0.4565
 1309TIP3    H1 3870   1.714   1.879   5.860 -0.6221 -0.2121  0.5016
 1309TIP3    H2 3871   1.734   2.021   5.906  0.6326 -0.0321 -0.5399
 1310TIP3   OH2 3872   5.536   0.160   0.282  0.2154  0.1761 -0.0779
 1310TIP3    H1 3873   5.597   0.234   0.286 -0.6338  0.8583  0.8219
 1310TIP3    H2 3874   5.479   0.180   0.208 -0.7448  1.0379  0.8661
 1311TIP3   OH2 3875   7.653   3.468   2.307  0.0477 -0.3526  0.1919
 1311TIP3    H1 3876   7.602   3.398   2.348 -1.2529  0.1401 -0.5157
 1311TIP3    H2 3877   7.658   3.444   2.214 -0.6590  0.5955 -0.1172
 1312TIP3   OH2 3878   4.986   4.236   5.258 -0.4444 -0.3411  0.3058
 1312TIP3    H1 3879   4.951   4.252   5.346 -0.3341 -0.7263  0.4195
 1312TIP3    H2 3880   5.058   4.175   5.272 -0.4108 -0.3833 -0.0534
 1313TIP3   OH2 3881   1.631   2.088   3.591  0.2385 -0.3748 -0.0132
 1313TIP3    H1 3882   1.686   2.149   3.543 -0.4725  0.9537  0.7885
 1313TIP3    H2 3883   1.558   2.141   3.622 -0.9464 -1.8520 -0.1406
 1314TIP3   OH2 3884   1.582   7.502   6.655 -0.1266  0.3933 -0.0923
 1314TIP3    H1 3885   1.629   7.423   6.626  0.5752  0.0377  1.9043
 1314TIP3    H2 3886   1.649   7.570   6.656 -0.1499  0.4034  0.6802
 1315TIP3   OH2 3887   0.237   2.406   6.496  0.1471  0.5847 -0.5658
 1315TIP3    H1 3888   0.178   2.421   6.422 -0.5503  0.6354 -0.0014
 1315TIP3    H2 3889   0.290   2.486   6.501 -0.1833  0.8094 -0.6600
 1316TIP3   OH2 3890   4.703   3.591   5.757 -0.2095  0.0079 -0.2438
 1316TIP3    H1 3891   4.762   3.579   5.682  1.1761  0.4324  0.7377
 1316TIP3    H2 3892   4.649   3.513   5.758 -0.5659  0.1934 -1.9510
 1317TIP3   OH2 3893   0.582   6.355   1.582 -0.2349  0.4738  1.0778
 1317TIP3    H1 3894   0.634   6.435   1.595  0.4644  0.1169  0.5402
 1317TIP3    H2 3895   0.643   6.284   1.603 -0.4370  0.0394  0.2148
 1318TIP3   OH2 3896   1.843   4.862   6.245  0.1379  0.0823 -0.0898
 1318TIP3    H1 3897   1.855   4.947   6.288  0.8992  0.9286 -1.8657
 1318TIP3    H2 3898   1.757   4.869   6.202  0.2541 -0.0061 -0.3374
 1319TIP3   OH2 3899   4.272   4.223   6.078  0.0027 -0.6459 -0.0413
 1319TIP3    H1 3900   4.255   4.171   6.156  0.7313  0.2893  0.7665
 1319TIP3    H2 3901   4.305   4.307   6.111  1.5945 -0.7019 -1.3808
 1320TIP3   OH2 3902   0.608   2.192   1.632 -0.3143 -0.5737 -0.3155
 1320TIP3    H1 3903   0.551   2.270   1.631  0.9790  0.5792  2.6160
 1320TIP3    H2 3904   0.697   2.228   1.632  0.3381 -2.1180 -0.3136
 1321TIP3   OH2 3905   4.693   6.476   3.998 -0.0946  0.2225 -0.0054
 1321TIP3    H1 3906   4.627   6.517   4.052  0.7121  1.4964  0.0495
 1321TIP3    H2 3907   4.776   6.496   4.042  0.3762 -0.9209 -0.3289
 1322TIP3   OH2 3908   7.412   2.101   3.901  0.4297  0.5237 -0.3770
 1322TIP3    H1 3909   7.468   2.023   3.897  0.8130  0.8414 -2.4958
 1322TIP3    H2 3910   7.384   2.106   3.993  0.8556 -1.7635 -0.0674
 1323TIP3   OH2 3911   0.834   5.611   2.082  0.0773 -0.5389 -0.3453
 1323TIP3    H1 3912   0.874   5.696   2.098 -1.5254  0.4321 -1.2903
 1323TIP3    H2 3913   0.895   5.567   2.022  1.7278 -0.7756  1.3831
 1324TIP3   OH2 3914   7.016   3.303   6.130 -0.4660 -0.1155  0.3090
 1324TIP3    H1 3915   7.031   3.358   6.053 -0.2111  1.5795  1.5027
 1324TIP3    H2 3916   6.929   3.328   6.160 -0.6782 -0.9663  0.4286
 1325TIP3   OH2 3917   2.855   6.984   0.233  0.2792 -0.1159 -0.2478
 1325TIP3    H1 3918   2.923   6.969   0.299  1.8333 -1.5830 -2.0567
 1325TIP3    H2 3919   2.832   7.076   0.243  0.8747 -0.1293  1.9125
 1326TIP3   OH2 3920   3.062   0.408   3.841 -0.2971 -0.1411 -0.2471
 1326TIP3    H1 3921   2.971   0.427   3.862 -0.3605 -0.3269 -0.3523
 1326TIP3    H2 3922   3.086   0.336   3.899 -0.0832  0.1992  0.0906
 1327TIP3   OH2 3923   2.429   7.779   5.285 -0.1810  0.5475  0.0466
 1327TIP3    H1 3924   2.381   7.734   5.215  0.4447 -0.9027  0.5300
 1327TIP3    H2 3925   2.475   7.850   5.240  0.4452 -0.5390 -1.0835
 1328TIP3   OH2 3926   4.355   0.435   6.348 -1.0431  0.0804  0.3807
 1328TIP3    H1 3927   4.424   0.386   6.304 -2.1635 -0.8136 -0.4592
 1328TIP3    H2 3928   4.303   0.472   6.277 -0.1999  2.6220  0.9874
 1329TIP3   OH2 3929   6.310   0.661   1.716  0.0015  0.2344 -0.7128
 1329TIP3    H1 3930   6.299   0.714   1.637  1.1706  0.6605 -0.6169
 1329TIP3    H2 3931   6.256   0.584   1.701 -2.3096  1.7123 -0.5692
 1330TIP3   OH2 3932   5.128   5.694   0.710  0.2355 -0.0759  0.2087
 1330TIP3    H1 3933   5.194   5.625   0.700  2.0081  1.6922 -1.1288
 1330TIP3    H2 3934   5.084   5.698   0.625  0.6165  0.8476  0.0377
 1331TIP3   OH2 3935   5.006   0.175   4.643 -0.4495 -0.2460  0.1755
 1331TIP3    H1 3936   5.027   0.266   4.624 -1.6524  0.1006  0.4314
 1331TIP3    H2 3937   5.004   0.170   4.739  1.0183 -0.8880  0.1874
 1332TIP3   OH2 3938   7.747   6.778   2.848 -0.5118 -0.0634  0.0311
 1332TIP3    H1 3939   7.693   6.707   2.884  0.0022  0.4274  1.8902
 1332TIP3    H2 3940   7.776   6.827   2.925  0.2141  1.4043 -1.1273
 1333TIP3   OH2 3941   7.357   4.071   1.627 -0.3671 -0.3746 -0.6223
 1333TIP3    H1 3942   7.430   4.112   1.582 -0.2628  0.8346  0.5739
 1333TIP3    H2 3943   7.361   3.979   1.601  0.9013 -0.1115 -1.4418
 1334TIP3   OH2 3944   0.500   2.625   4.675  0.0173  0.4474  0.0204
 1334TIP3    H1 3945   0.454   2.709   4.680  0.8994  1.1153 -1.9033
 1334TIP3    H2 3946   0.581   2.646   4.628  0.2793 -1.4826 -0.4522
 1335TIP3   OH2 3947   4.787   2.723   3.811 -0.1432 -0.0255 -0.2281
 1335TIP3    H1 3948   4.693   2.721   3.797  0.0435 -1.0483 -1.4733
 1335TIP3    H2 3949   4.825   2.738   3.725  0.8730 -0.8285  0.0527
 1336TIP3   OH2 3950   5.557   1.630   3.938  0.0610 -0.7853 -0.2253
 1336TIP3    H1 3951   5.471   1.632   3.896 -0.6073 -0.2701  1.1232
 1336TIP3    H2 3952   5.591   1.543   3.917 -0.0938 -0.4370 -2.0752
 1337TIP3   OH2 3953   2.056   2.487   0.686 -0.1635 -0.3690  0.0229
 1337TIP3    H1 3954   2.039   2.399   0.653 -0.2842 -0.1261 -0.5635
 1337TIP3    H2 3955   1.969   2.525   0.698 -0.2844 -1.3106  3.0383
 1338TIP3   OH2 3956   1.738   1.936   0.870  0.0864  0.0375 -0.1680
 1338TIP3    H1 3957   1.683   1.903   0.940  1.2741 -1.3801  0.1480
 1338TIP3    H2 3958   1.795   2.001   0.912  0.2852 -0.2569  0.0165
 1339TIP3   OH2 3959   1.767   0.987   3.749 -0.2230 -0.2464  0.2587
 1339TIP3    H1 3960   1.853   0.947   3.760  0.4061  0.7679 -0.7983
 1339TIP3    H2 3961   1.736   0.953   3.665 -0.3812  0.2340  0.1226
 1340TIP3   OH2 3962   8.251   6.232   3.529  0.1550 -0.4187 -0.1052
 1340TIP3    H1 3963   8.216   6.310   3.574  0.5569 -0.2998  0.0101
 1340TIP3    H2 3964   8.269   6.170   3.600 -3.3734 -1.9919 -0.4061
 1341TIP3   OH2 3965   3.987   2.977   4.466  0.3948 -0.1469 -0.4733
 1341TIP3    H1 3966   3.929   2.901   4.477 -0.0454  0.1672 -0.5619
 1341TIP3    H2 3967   4.070   2.950   4.504 -0.0614 -0.3065  0.4475
 1342TIP3   OH2 3968   6.471   0.349   1.743 -0.1604 -0.1552 -0.4095
 1342TIP3    H1 3969   6.502   0.439   1.737  2.9064 -1.0821 -0.0650
 1342TIP3    H2 3970   6.400   0.352   1.808  1.0232  1.7301  0.8867
 1343TIP3   OH2 3971   6.498   1.866   5.903 -0.0862 -0.7767  0.0717
 1343TIP3    H1 3972   6.406   1.888   5.917 -0.0307 -1.0035  0.8306
 1343TIP3    H2 3973   6.508   1.863   5.807 -0.5231  0.6694 -0.0435
 1344TIP3   OH2 3974   0.246   3.625   5.531  0.1622 -0.2632 -0.4770
 1344TIP3    H1 3975   0.254   3.607   5.437  2.2336 -1.4541 -0.1502
 1344TIP3    H2 3976   0.261   3.540   5.572  0.2305  0.4133  0.9491
 1345TIP3   OH2 3977   4.652   0.343   5.616  0.4282 -0.5000 -0.1714
 1345TIP3    H1 3978   4.741   0.354   5.648  0.2816 -3.2136  1.4368
 1345TIP3    H2 3979   4.616   0.432   5.613  0.8628  0.3079  6.2050
 1346TIP3   OH2 3980   3.575   4.012   2.066 -0.4576  0.0823 -0.1074
 1346TIP3    H1 3981   3.620   3.928   2.060 -2.2106 -0.8192 -1.4237
 1346TIP3    H2 3982   3.496   3.994   2.117 -0.3332  1.1934  0.5222
 1347TIP3   OH2 3983   6.092   3.607   0.051  0.0525  0.3436  0.6217
 1347TIP3    H1 3984   6.036   3.626   0.126 -0.9354  3.1393 -0.6599
 1347TIP3    H2 3985   6.032   3.570  -0.014 -0.2817  2.6367 -0.4860
 1348TIP3   OH2 3986   5.685   2.214   2.989  0.1970  0.0737 -0.0160
 1348TIP3    H1 3987   5.748   2.153   2.951  0.5083 -1.0439  2.1237
 1348TIP3    H2 3988   5.613   2.159   3.020 -0.0880  0.8992  0.8493
 1349TIP3   OH2 3989   1.275   5.012   2.144 -0.0272  0.3660  0.1631
 1349TIP3    H1 3990   1.227   4.990   2.064  0.7371  2.2114 -0.8518
 1349TIP3    H2 3991   1.308   4.928   2.175 -0.4155 -0.4148 -1.4168
 1350TIP3   OH2 3992   7.712   5.952   2.643 -0.0870 -0.1359  0.1253
 1350TIP3    H1 3993   7.763   5.958   2.563  2.1916 -0.2914  1.4654
 1350TIP3    H2 3994   7.776   5.966   2.713 -1.9913  0.0835  1.9258
 1351TIP3   OH2 3995   1.838   4.500   2.867  0.6368 -0.0016  0.4596
 1351TIP3    H1 3996   1.746   4.506   2.843  0.7034  1.6580  0.5560
 1351TIP3    H2 3997   1.838   4.501   2.963  0.7328 -0.5109  0.4675
 1352TIP3   OH2 3998   5.557   2.826   1.377 -0.5216 -0.0224  0.1693
 1352TIP3    H1 3999   5.640   2.817   1.423 -0.6564 -0.0364  0.4112
 1352TIP3    H2 4000   5.581   2.854   1.288 -0.1837 -1.3250 -0.1683
 1353TIP3   OH2 4001   7.644   1.872   1.642 -0.5031  0.0680  0.6488
 1353TIP3    H1 4002   7.669   1.962   1.663 -1.0400  0.1046  1.1328
 1353TIP3    H2 4003   7.550   1.868   1.660 -0.4389 -0.6510  0.8329
 1354TIP3   OH2 4004   6.576   2.208   5.865 -0.2570 -0.0357 -0.5828
 1354TIP3    H1 4005   6.511   2.147   5.830 -0.4460 -0.2275  0.0924
 1354TIP3    H2 4006   6.525   2.281   5.899 -0.2937 -0.9462  1.5185
 1355TIP3   OH2 4007   6.892   4.556   5.401  0.1261  0.4919 -0.0792
 1355TIP3    H1 4008   6.857   4.614   5.469 -1.8826 -0.5407 -0.1700
 1355TIP3    H2 4009   6.958   4.504   5.445 -0.3108  0.6582  0.7884
 1356TIP3   OH2 4010   6.575   7.108   0.317  0.1658  0.1357 -0.3334
 1356TIP3    H1 4011   6.656   7.064   0.342 -0.5503 -0.6690  0.6282
 1356TIP3    H2 4012   6.506   7.047   0.340 -0.6698  0.0852 -2.6679
 1357TIP3   OH2 4013   6.945   4.189   5.540  0.6146  0.5482 -0.5345
 1357TIP3    H1 4014   6.935   4.179   5.446 -2.2538  0.2653 -0.2957
 1357TIP3    H2 4015   6.985   4.275   5.551  0.0515  1.0302 -2.0036
 1358TIP3   OH2 4016   8.242   2.169   4.753  0.1304  0.0175 -0.3269
 1358TIP3    H1 4017   8.313   2.107   4.736 -1.6922 -2.3018  0.0793
 1358TIP3    H2 4018   8.184   2.160   4.678 -1.6874 -1.0917  1.1353
 1359TIP3   OH2 4019   7.945   5.547   6.059 -0.1466 -0.4332 -0.1591
 1359TIP3    H1 4020   8.040   5.556   6.067 -0.1584  0.2419 -0.7142
 1359TIP3    H2 4021   7.910   5.603   6.128 -0.1497 -0.1011 -0.4289
 1360TIP3   OH2 4022   7.407   3.004   2.231  0.0350  0.5113 -0.6597
 1360TIP3    H1 4023   7.329   2.968   2.275 -1.2446  2.5216 -1.1699
 1360TIP3    H2 4024   7.480   2.977   2.287 -1.2108  0.1777  0.8942
 1361TIP3   OH2 4025   2.808   3.078   3.532  0.1004 -0.1390  0.1895
 1361TIP3    H1 4026   2.837   2.996   3.573  0.1106  0.0006  0.4668
 1361TIP3    H2 4027   2.715   3.065   3.515  0.2321 -0.4289 -0.3102
 1362TIP3   OH2 4028   0.501   3.823   4.468  0.0447  0.1559 -0.0703
 1362TIP3    H1 4029   0.422   3.868   4.498  0.6148  1.1775 -0.0200
 1362TIP3    H2 4030   0.549   3.891   4.420  1.4426 -0.1018  0.8974
 1363TIP3   OH2 4031   2.403   4.283   2.751 -0.0385  0.3739  0.1600
 1363TIP3    H1 4032   2.446   4.223   2.691 -0.0244  0.8314 -0.3013
 1363TIP3    H2 4033   2.327   4.235   2.783  1.2443 -0.7657  1.6503
 1364TIP3   OH2 4034   2.858   6.451   3.068  0.5750 -0.0553  0.2644
 1364TIP3    H1 4035   2.820   6.448   2.980  0.2148  0.3067  0.4031
 1364TIP3    H2 4036   2.794   6.405   3.122  0.5615  0.1467  0.4195
 1365TIP3   OH2 4037   6.013   1.633   3.845  0.0350 -0.1234 -0.4821
 1365TIP3    H1 4038   5.974   1.710   3.804  0.6295  0.3018 -0.2568
 1365TIP3    H2 4039   6.086   1.667   3.897 -0.2733 -0.7340  0.3686
 1366TIP3   OH2 4040   0.543   3.689   4.703 -0.5215 -0.3721  0.3536
 1366TIP3    H1 4041   0.456   3.653   4.721 -0.2789 -0.7413  0.8022
 1366TIP3    H2 4042   0.531   3.740   4.623 -1.0701 -0.7107  0.2115
 1367TIP3   OH2 4043   0.458   0.644   2.706  0.2873  0.0150 -0.0161
 1367TIP3    H1 4044   0.499   0.586   2.642 -0.6775 -1.5641  0.7527
 1367TIP3    H2 4045   0.370   0.660   2.670  0.6136  1.2580 -0.3433
 1368TIP3   OH2 4046   3.566   1.280   5.812 -0.1622  0.4357  0.3988
 1368TIP3    H1 4047   3.579   1.366   5.772 -0.4564  0.9877  1.4503
 1368TIP3    H2 4048   3.644   1.230   5.787  0.1161  1.0825 -0.0476
 1369TIP3   OH2 4049   7.897   3.387   4.102 -0.2420  0.1701  0.0091
 1369TIP3    H1 4050   7.874   3.369   4.193 -3.2671  0.0897 -0.6705
 1369TIP3    H2 4051   7.829   3.447   4.072  2.4440  2.7997 -1.3899
 1370TIP3   OH2 4052   6.614   2.188   0.663  0.1712  0.4503 -0.1278
 1370TIP3    H1 4053   6.608   2.189   0.567  2.3176 -0.0054 -0.3192
 1370TIP3    H2 4054   6.548   2.124   0.690 -1.3008  1.4484 -1.1820
 1371TIP3   OH2 4055   7.313   7.146   3.930  0.0189 -0.7173 -0.3385
 1371TIP3    H1 4056   7.348   7.057   3.924 -0.6418 -0.9652 -0.5424
 1371TIP3    H2 4057   7.254   7.154   3.855  0.6447  0.1565 -0.7591
 1372TIP3   OH2 4058   6.943   3.119   1.363 -0.4589 -0.6368  0.3493
 1372TIP3    H1 4059   6.864   3.067   1.352 -0.3590 -0.7519  0.1687
 1372TIP3    H2 4060   7.012   3.055   1.382  0.0724 -0.7975 -1.8440
 1373TIP3   OH2 4061   6.586   6.389   2.130 -0.3574 -0.3973 -0.0034
 1373TIP3    H1 4062   6.507   6.381   2.184  0.8133  0.7799  2.0104
 1373TIP3    H2 4063   6.572   6.469   2.078 -0.3568  0.0107  0.6162
 1374TIP3   OH2 4064   7.558   0.903   1.829  0.3088  0.1244 -0.2192
 1374TIP3    H1 4065   7.600   0.988   1.846  0.4576  0.0764 -0.3427
 1374TIP3    H2 4066   7.629   0.839   1.838  0.8359  0.2409 -2.7094
 1375TIP3   OH2 4067   8.102   0.206   4.586 -0.2060  0.2404  0.6026
 1375TIP3    H1 4068   8.106   0.148   4.662 -0.7037 -0.4963  0.0825
 1375TIP3    H2 4069   8.065   0.151   4.516  0.7768  0.7274 -0.3327
 1376TIP3   OH2 4070   3.927   5.276   4.850 -0.3116  0.0757  0.0949
 1376TIP3    H1 4071   3.877   5.309   4.776  1.7848 -0.0053 -1.4475
 1376TIP3    H2 4072   3.987   5.347   4.873 -0.5168 -0.1244  1.3576
 1377TIP3   OH2 4073   7.197   3.053   1.051 -0.1559  0.0203 -0.8702
 1377TIP3    H1 4074   7.277   3.082   1.008  0.9178 -1.4722  0.0493
 1377TIP3    H2 4075   7.213   3.068   1.144 -0.5219 -1.2454 -0.5849
 1378TIP3   OH2 4076   7.078   3.013   5.303 -0.2777  0.3074  0.7712
 1378TIP3    H1 4077   7.069   2.933   5.250  0.1324  0.5654  0.3022
 1378TIP3    H2 4078   7.147   3.063   5.258 -1.1478  1.3302  0.5538
 1379TIP3   OH2 4079   0.242   0.453   2.592 -0.7341  0.0241 -0.1526
 1379TIP3    H1 4080   0.217   0.545   2.595 -3.0023 -0.5322  0.0936
 1379TIP3    H2 4081   0.168   0.410   2.549 -0.0467 -1.7848  0.3883
 1380TIP3   OH2 4082   7.059   1.624   1.345  0.0966 -0.1388  0.2381
 1380TIP3    H1 4083   7.100   1.653   1.263  1.0211  0.8531  1.0298
 1380TIP3    H2 4084   7.062   1.529   1.341  0.3379 -0.0972 -0.7835
 1381TIP3   OH2 4085   4.429   1.169   1.886  0.2767 -0.1267  0.2636
 1381TIP3    H1 4086   4.472   1.195   1.968  0.2013  1.7563 -0.2415
 1381TIP3    H2 4087   4.380   1.247   1.859 -0.5844 -1.0716 -1.0234
 1382TIP3   OH2 4088   4.345   4.869   3.110 -0.1745  0.2799  0.3560
 1382TIP3    H1 4089   4.337   4.834   3.021  0.9362  1.8394 -0.4117
 1382TIP3    H2 4090   4.354   4.792   3.166 -0.9656 -0.7325 -0.8749
 1383TIP3   OH2 4091   2.579   5.301   3.668  0.7509 -0.5093  0.0963
 1383TIP3    H1 4092   2.566   5.394   3.688 -1.8666 -0.6978 -0.3748
 1383TIP3    H2 4093   2.583   5.259   3.754  2.0411  0.0205  0.3134
 1384TIP3   OH2 4094   6.669   2.325   5.020  0.1888 -0.2357  0.2177
 1384TIP3    H1 4095   6.620   2.307   5.101  0.1964 -2.5020 -0.2360
 1384TIP3    H2 4096   6.755   2.354   5.050 -0.4274  0.8439  1.0060
 1385TIP3   OH2 4097   5.000   0.652   4.717 -0.0061 -0.0220 -0.4350
 1385TIP3    H1 4098   5.035   0.695   4.795 -0.1951 -0.6269 -0.0077
 1385TIP3    H2 4099   5.035   0.703   4.644 -1.0448  1.4837  0.0663
 1386TIP3   OH2 4100   1.239   3.603   1.585 -0.3325 -0.0169 -0.2186
 1386TIP3    H1 4101   1.173   3.668   1.562 -0.1709 -0.6236 -2.6731
 1386TIP3    H2 4102   1.322   3.645   1.562 -0.1729 -0.7783 -1.0559
 1387TIP3   OH2 4103   1.450   2.477   2.433  0.3573  0.0151  0.1461
 1387TIP3    H1 4104   1.378   2.506   2.489  0.3580 -0.9246  0.6495
 1387TIP3    H2 4105   1.408   2.433   2.360  0.4050  0.0709  0.0844
 1388TIP3   OH2 4106   5.367   4.818   1.180 -0.4091 -0.0294  0.2236
 1388TIP3    H1 4107   5.423   4.892   1.157 -0.0413 -0.7480 -1.2891
 1388TIP3    H2 4108   5.426   4.758   1.226 -0.6151  0.4305  1.1041
 1389TIP3   OH2 4109   0.537   4.044   4.830 -0.4807 -0.0601 -0.3938
 1389TIP3    H1 4110   0.500   4.106   4.893  0.7810 -1.1194  1.4877
 1389TIP3    H2 4111   0.569   4.099   4.758  1.9875  1.7511  1.8608
 1390TIP3   OH2 4112   3.686   1.792   1.728  0.7395 -0.0039  0.6875
 1390TIP3    H1 4113   3.722   1.714   1.685 -2.2450 -1.2658  0.2443
 1390TIP3    H2 4114   3.703   1.863   1.666 -0.7556 -1.2376 -1.2553
 1391TIP3   OH2 4115   7.550   4.793   5.029  0.1274  0.1030  0.1088
 1391TIP3    H1 4116   7.580   4.786   4.939 -0.1493 -1.0772  0.0941
 1391TIP3    H2 4117   7.493   4.870   5.029  1.4803  1.1345 -0.3134
 1392TIP3   OH2 4118   6.404   0.343   5.564 -0.3143 -0.1985  0.6485
 1392TIP3    H1 4119   6.388   0.437   5.573 -0.3055 -0.0228 -0.9306
 1392TIP3    H2 4120   6.375   0.306   5.647 -0.2072  1.2060  1.3454
 1393TIP3   OH2 4121   0.580   2.447   4.873  0.2635 -0.3723 -0.3908
 1393TIP3    H1 4122   0.527   2.501   4.815 -0.6970 -0.4342  0.3957
 1393TIP3    H2 4123   0.665   2.490   4.876  0.1120  0.0106 -1.2875
 1394TIP3   OH2 4124   2.553   0.794   4.829 -0.0639  0.7126 -0.0845
 1394TIP3    H1 4125   2.492   0.828   4.895 -0.6125  0.4907 -0.4730
 1394TIP3    H2 4126   2.639   0.813   4.865 -0.3587  0.8681  0.5582
 1395TIP3   OH2 4127   6.505   3.820   0.251 -0.1353 -0.5028 -0.2905
 1395TIP3    H1 4128   6.483   3.744   0.305 -3.7387  2.5094  3.0567
 1395TIP3    H2 4129   6.455   3.806   0.170 -0.7227 -1.7038  0.2440
 1396TIP3   OH2 4130   4.143   3.314   1.671  0.0018 -0.1171  0.0377
 1396TIP3    H1 4131   4.057   3.297   1.634 -0.1124  1.5654 -0.5248
 1396TIP3    H2 4132   4.157   3.408   1.658  0.7867  0.1772  2.5370
 1397TIP3   OH2 4133   4.233   6.513   2.790  0.2578  0.0495  0.3820
 1397TIP3    H1 4134   4.220   6.579   2.858 -0.5170 -1.2387  1.5267
 1397TIP3    H2 4135   4.189   6.435   2.823  1.9831 -1.3615 -0.4722
 1398TIP3   OH2 4136   3.060   1.293   3.651  0.2752  0.1000 -0.4191
 1398TIP3    H1 4137   2.988   1.289   3.714  0.6216  0.7053  0.0304
 1398TIP3    H2 4138   3.022   1.263   3.568 -0.4344  0.2308 -0.1437
 1399TIP3   OH2 4139   0.373   0.870   4.292 -0.3625 -0.1403 -0.3758
 1399TIP3    H1 4140   0.344   0.780   4.278 -0.0967 -0.5637  1.5044
 1399TIP3    H2 4141   0.396   0.873   4.385  2.1694  1.1425 -0.9752
 1400TIP3   OH2 4142   7.896   2.302   3.679 -0.6372  0.4779 -0.1099
 1400TIP3    H1 4143   7.806   2.332   3.663 -0.5148  1.0299  0.2170
 1400TIP3    H2 4144   7.950   2.359   3.625 -0.3186  1.5605  1.2917
 1401TIP3   OH2 4145   7.507   3.930   6.445 -0.1667  0.3986  0.5797
 1401TIP3    H1 4146   7.448   3.983   6.498 -0.5438  1.2183 -0.6127
 1401TIP3    H2 4147   7.460   3.917   6.362  0.1108 -1.4385  0.6866
 1402TIP3   OH2 4148   6.291   5.392   2.656 -0.6541 -0.3298 -0.5026
 1402TIP3    H1 4149   6.358   5.424   2.595  0.4337 -0.2885  0.6674
 1402TIP3    H2 4150   6.281   5.463   2.720 -1.0621 -0.7527 -0.0840
 1403TIP3   OH2 4151   5.154   5.962   0.739 -0.0852 -0.2094 -0.4187
 1403TIP3    H1 4152   5.163   5.870   0.714  0.8621 -0.2678  0.0709
 1403TIP3    H2 4153   5.213   5.972   0.814  0.2083  0.9100 -0.7759
 1404TIP3   OH2 4154   2.384   0.547   5.827 -0.0637 -0.0322  0.4108
 1404TIP3    H1 4155   2.361   0.458   5.855 -1.9523  0.5301  0.7722
 1404TIP3    H2 4156   2.374   0.600   5.905 -1.5721  0.9206 -0.3822
 1405TIP3   OH2 4157   1.599   6.079   5.917  0.1566 -0.2109 -0.4857
 1405TIP3    H1 4158   1.625   6.168   5.893  0.2325  0.0069  0.3851
 1405TIP3    H2 4159   1.508   6.088   5.947  0.4781 -0.2517  0.5350
 1406TIP3   OH2 4160   1.841   3.332   6.382  0.1320  0.3843  0.3498
 1406TIP3    H1 4161   1.833   3.425   6.404 -0.5734 -0.2651  3.3045
 1406TIP3    H2 4162   1.836   3.329   6.286 -0.7379  3.2852  0.2107
 1407TIP3   OH2 4163   4.287   0.270   4.332 -0.3592  0.0379  0.1210
 1407TIP3    H1 4164   4.257   0.311   4.413  0.9500  1.1522  0.0832
 1407TIP3    H2 4165   4.276   0.338   4.265 -0.3091 -0.4564 -0.3930
 1408TIP3   OH2 4166   0.365   7.242   4.064 -0.5751  0.0114 -0.3290
 1408TIP3    H1 4167   0.349   7.323   4.013 -0.0429 -0.0067 -0.5279
 1408TIP3    H2 4168   0.288   7.188   4.046 -1.6469  1.0268  0.9348
 1409TIP3   OH2 4169   6.121   0.673   3.553 -0.3849 -0.3165  0.2859
 1409TIP3    H1 4170   6.103   0.580   3.562  0.9310 -0.7126 -0.8833
 1409TIP3    H2 4171   6.207   0.677   3.512 -0.2921  1.4187  0.5877
 1410TIP3   OH2 4172   6.100   3.089   3.854  0.6646 -0.1596  0.6187
 1410TIP3    H1 4173   6.010   3.058   3.863  0.2524  1.2228  1.5938
 1410TIP3    H2 4174   6.150   3.034   3.915  0.2489 -0.0489  1.0637
 1411TIP3   OH2 4175   5.317   5.860   2.195  0.6380  0.5297  0.4524
 1411TIP3    H1 4176   5.284   5.936   2.148 -0.8607 -0.5673 -0.3342
 1411TIP3    H2 4177   5.321   5.791   2.129 -0.2241 -0.6910  1.6345
 1412TIP3   OH2 4178   4.413   6.824   1.525 -0.1515  0.2445  0.4367
 1412TIP3    H1 4179   4.339   6.781   1.482 -0.4135  0.6222  0.5108
 1412TIP3    H2 4180   4.477   6.753   1.539 -0.7520 -0.2105  0.9371
 1413TIP3   OH2 4181   7.894   4.392   3.896  0.1463  0.4191  0.3892
 1413TIP3    H1 4182   7.800   4.377   3.898 -0.0448  1.5216  0.9448
 1413TIP3    H2 4183   7.927   4.351   3.976  0.0155  0.6616  0.5714
 1414TIP3   OH2 4184   2.413   2.476   5.159  0.5864 -0.1443 -0.2785
 1414TIP3    H1 4185   2.461   2.399   5.131  0.6334 -0.7364  1.3309
 1414TIP3    H2 4186   2.390   2.459   5.250 -0.2923  1.3055 -0.1868
 1415TIP3   OH2 4187   5.069   6.290   4.441  0.3400  0.2040  0.0689
 1415TIP3    H1 4188   5.063   6.205   4.399  1.7754 -0.2859  0.7912
 1415TIP3    H2 4189   5.160   6.317   4.429 -0.2481  1.9924 -0.7691
 1416TIP3   OH2 4190   2.607   0.418   1.169  0.1558 -0.5645 -0.2097
 1416TIP3    H1 4191   2.597   0.323   1.172  3.1490 -0.9753 -0.2507
 1416TIP3    H2 4192   2.534   0.448   1.114 -1.2360 -2.7151  0.3166
 1417TIP3   OH2 4193   8.277   1.365   0.676 -0.0579  0.3158 -0.1638
 1417TIP3    H1 4194   8.195   1.336   0.716 -0.1133 -1.0049 -1.1653
 1417TIP3    H2 4195   8.272   1.460   0.676 -1.1972  0.2707  0.5846
 1418TIP3   OH2 4196   2.385   2.711   1.516  0.2214  0.8133  0.7029
 1418TIP3    H1 4197   2.338   2.793   1.502 -0.4955  0.1346 -1.1051
 1418TIP3    H2 4198   2.348   2.650   1.452  2.6842 -0.1164  0.0419
 1419TIP3   OH2 4199   5.020   4.807   0.876  0.5998  0.1829  0.7908
 1419TIP3    H1 4200   4.996   4.729   0.925  0.6155  0.2954  0.9785
 1419TIP3    H2 4201   5.031   4.875   0.943  0.3937  0.3940  0.6093
 1420TIP3   OH2 4202   5.589   5.555   4.441 -0.4409 -0.1616  0.0400
 1420TIP3    H1 4203   5.635   5.578   4.360 -0.3326 -1.5548 -0.3160
 1420TIP3    H2 4204   5.591   5.636   4.493 -0.5586  0.7738 -1.3544
 1421TIP3   OH2 4205   7.963   6.664   4.503 -0.2983  0.7016 -0.7683
 1421TIP3    H1 4206   7.961   6.680   4.409  0.7109  1.4493 -0.6909
 1421TIP3    H2 4207   7.873   6.644   4.527 -0.4302 -0.2433 -2.0064
 1422TIP3   OH2 4208   4.770   1.047   3.252 -0.3070 -0.0227 -0.0530
 1422TIP3    H1 4209   4.749   1.072   3.343  1.1202  1.0204  0.0339
 1422TIP3    H2 4210   4.685   1.031   3.211 -1.3054  3.3243  0.4238
 1423TIP3   OH2 4211   4.135   5.433   2.944 -0.7519 -0.0512 -0.3974
 1423TIP3    H1 4212   4.092   5.440   3.029  1.3165  0.2759  0.6707
 1423TIP3    H2 4213   4.098   5.504   2.892  1.6021  3.1897  1.9534
 1424TIP3   OH2 4214   2.080   3.775   6.229 -0.3675 -0.0380  0.1097
 1424TIP3    H1 4215   2.159   3.818   6.262 -0.2540  0.3867 -0.6844
 1424TIP3    H2 4216   2.106   3.738   6.144 -0.8798 -0.3532  0.0827
 1425TIP3   OH2 4217   8.223   7.679   4.211 -0.2472  0.6279 -0.3056
 1425TIP3    H1 4218   8.294   7.631   4.253  0.6233  0.8947 -1.4351
 1425TIP3    H2 4219   8.240   7.771   4.232 -1.2065  0.5937  0.7889
 1426TIP3   OH2 4220   7.066   1.018   2.801 -0.3645 -0.4610  0.4557
 1426TIP3    H1 4221   7.038   0.995   2.712 -2.2064  0.3903  0.7684
 1426TIP3    H2 4222   7.091   0.934   2.841 -0.0521 -0.9213 -0.6801
 1427TIP3   OH2 4223   7.785   1.570   2.375  0.1721  0.1522  0.1569
 1427TIP3    H1 4224   7.728   1.555   2.300  0.2862  0.7915 -0.0690
 1427TIP3    H2 4225   7.729   1.555   2.451 -0.0815 -0.0031 -0.0576
 1428TIP3   OH2 4226   1.155   5.740   6.252  0.0575 -0.3971  0.8785
 1428TIP3    H1 4227   1.200   5.747   6.336  0.5271 -1.0567  0.6909
 1428TIP3    H2 4228   1.158   5.647   6.231 -2.5141 -0.7066  1.4559
 1429TIP3   OH2 4229   2.120   4.310   0.957  0.0788 -0.5435  0.4146
 1429TIP3    H1 4230   2.069   4.329   1.036  2.1426 -1.4732  2.0819
 1429TIP3    H2 4231   2.211   4.312   0.987  0.9519 -0.5440 -2.0625
 1430TIP3   OH2 4232   0.710   2.714   4.552  0.0225 -0.4754 -0.6455
 1430TIP3    H1 4233   0.799   2.721   4.586  0.5455 -0.6144 -1.9345
 1430TIP3    H2 4234   0.718   2.734   4.459 -1.3516 -0.1567 -0.7152
 1431TIP3   OH2 4235   7.813   5.492   0.981  0.3819 -0.0941  0.3149
 1431TIP3    H1 4236   7.884   5.523   0.925  0.7933  0.3456  1.0731
 1431TIP3    H2 4237   7.805   5.398   0.960  0.7268 -0.0034 -0.2527
 1432TIP3   OH2 4238   2.636   4.687   4.249  0.4191 -0.1324  0.5973
 1432TIP3    H1 4239   2.560   4.744   4.259 -0.9962 -1.6588 -0.8353
 1432TIP3    H2 4240   2.710   4.747   4.244 -0.9765  1.6070 -0.7668
 1433TIP3   OH2 4241   3.962   0.022   5.181 -0.4165 -0.2789  0.8530
 1433TIP3    H1 4242   3.877   0.047   5.145  0.4088  1.0491 -0.2604
 1433TIP3    H2 4243   3.983   0.093   5.242  0.7018  0.3647 -0.2523
 1434TIP3   OH2 4244   4.102   7.603   3.457 -0.0226 -0.3419  0.0019
 1434TIP3    H1 4245   4.043   7.638   3.389 -1.6944 -0.5878  1.2686
 1434TIP3    H2 4246   4.150   7.680   3.488 -1.5578  0.3741  0.7251
 1435TIP3   OH2 4247   4.466   0.048   3.636 -0.1153  0.0700 -0.2371
 1435TIP3    H1 4248   4.399   0.115   3.649 -1.1740 -0.8900 -0.5662
 1435TIP3    H2 4249   4.531   0.066   3.704  0.0039  1.8487 -0.7477
 1436TIP3   OH2 4250   5.679   6.381   0.742  0.2449  0.3579  0.2916
 1436TIP3    H1 4251   5.598   6.332   0.753  0.0436  0.3317 -1.0481
 1436TIP3    H2 4252   5.651   6.473   0.744  0.1069  0.3462 -0.4878
 1437TIP3   OH2 4253   5.646   1.880   4.068 -0.2254  0.7598 -0.5374
 1437TIP3    H1 4254   5.635   1.787   4.048 -0.7193  0.6997 -0.0388
 1437TIP3    H2 4255   5.586   1.895   4.142  2.0858  0.7457  1.4747
 1438TIP3   OH2 4256   0.857   3.256   3.437  0.5184  0.1918  0.2394
 1438TIP3    H1 4257   0.946   3.224   3.449  0.8606  0.8504 -0.4671
 1438TIP3    H2 4258   0.867   3.348   3.415 -0.2172 -0.1482 -1.7445
 1439TIP3   OH2 4259   1.352   4.805   2.768 -0.6608 -0.4538  0.4617
 1439TIP3    H1 4260   1.271   4.782   2.814  0.3435 -0.2047  2.4807
 1439TIP3    H2 4261   1.420   4.757   2.815  0.3056 -1.3805 -1.7536
 1440TIP3   OH2 4262   0.944   7.823   0.058  0.3391 -0.3886  0.2857
 1440TIP3    H1 4263   0.869   7.774   0.092  0.8774 -0.1800  1.8656
 1440TIP3    H2 4264   1.020   7.766   0.075  0.5578 -0.5855 -1.2634
 1441TIP3   OH2 4265   1.471   4.917   4.253  0.0755  0.0607 -0.0223
 1441TIP3    H1 4266   1.526   4.914   4.175 -0.7520  0.6875 -0.6613
 1441TIP3    H2 4267   1.382   4.928   4.219 -0.3898 -0.3944  0.9931
 1442TIP3   OH2 4268   5.892   3.720   2.753  0.0192 -0.8408  0.2840
 1442TIP3    H1 4269   5.849   3.639   2.723  0.7405 -0.6795 -1.2784
 1442TIP3    H2 4270   5.858   3.788   2.694 -0.2227 -0.0709  1.2894
 1443TIP3   OH2 4271   6.688   6.985   6.705 -0.0888  0.3464 -0.1206
 1443TIP3    H1 4272   6.726   7.048   6.643 -1.6524  0.3804 -1.0832
 1443TIP3    H2 4273   6.596   7.011   6.713 -0.5356 -1.2292  0.2043
 1444TIP3   OH2 4274   7.584   3.786   3.933 -0.1256 -0.2085  0.3753
 1444TIP3    H1 4275   7.595   3.859   3.994 -0.1681  0.1215 -0.0129
 1444TIP3    H2 4276   7.617   3.818   3.850 -0.0067 -0.6828  0.2321
 1445TIP3   OH2 4277   8.244   3.807   5.616 -0.4082  0.1535  0.2952
 1445TIP3    H1 4278   8.296   3.877   5.578 -0.0729 -0.0155  0.4423
 1445TIP3    H2 4279   8.235   3.831   5.708  0.8632 -0.6804  0.6584
 1446TIP3   OH2 4280   0.449   3.969   1.698 -0.3315  0.2016  0.6677
 1446TIP3    H1 4281   0.375   3.966   1.638 -0.8411 -0.1513  1.3041
 1446TIP3    H2 4282   0.520   4.007   1.646 -0.2318 -1.7124 -0.6908
 1447TIP3   OH2 4283   0.809   6.996   4.063  0.4095  0.4471  0.2568
 1447TIP3    H1 4284   0.836   7.046   4.140  2.0948  1.0160 -0.6437
 1447TIP3    H2 4285   0.794   6.907   4.095 -0.7850  1.0678  1.5481
 1448TIP3   OH2 4286   7.443   4.317   0.960 -0.4090  0.4747  0.3461
 1448TIP3    H1 4287   7.394   4.284   1.035 -0.0576 -0.3957  0.2054
 1448TIP3    H2 4288   7.532   4.287   0.974 -0.2267  0.7764 -0.1407
 1449TIP3   OH2 4289   2.898   5.713   6.657 -0.3661  0.2731  0.4268
 1449TIP3    H1 4290   2.812   5.691   6.622  0.2768  0.9123 -1.7444
 1449TIP3    H2 4291   2.958   5.695   6.584  1.1620  1.1719  1.4149
 1450TIP3   OH2 4292   2.957   2.972   4.724  0.0662 -0.3832  0.2820
 1450TIP3    H1 4293   3.029   3.028   4.698 -1.8905  1.5765 -1.2657
 1450TIP3    H2 4294   2.944   2.990   4.817  0.6965  0.2642  0.2443
 1451TIP3   OH2 4295   6.008   3.912   0.793  0.5444  0.0300 -0.3761
 1451TIP3    H1 4296   6.032   3.977   0.727  0.3835  1.1859  0.6571
 1451TIP3    H2 4297   5.915   3.896   0.778  0.1474  1.3942  0.4505
 1452TIP3   OH2 4298   0.621   7.458   4.268 -0.1847  0.0069 -0.0355
 1452TIP3    H1 4299   0.544   7.515   4.261  0.4486  0.9856  0.7124
 1452TIP3    H2 4300   0.691   7.516   4.300  0.6173 -1.0732  0.2094
 1453TIP3   OH2 4301   2.568   2.109   6.538 -0.7512 -0.3699  0.2375
 1453TIP3    H1 4302   2.626   2.052   6.590 -0.1177  0.5273  0.5395
 1453TIP3    H2 4303   2.601   2.197   6.554 -0.6940 -0.0486 -1.5005
 1454TIP3   OH2 4304   5.614   5.443   5.854 -0.4543 -0.6688  0.3993
 1454TIP3    H1 4305   5.577   5.484   5.776 -1.2276 -0.7156  0.7336
 1454TIP3    H2 4306   5.704   5.474   5.857 -0.6459 -0.0483 -0.0873
 1455TIP3   OH2 4307   7.313   2.983   0.691  0.2018  0.1371 -0.0786
 1455TIP3    H1 4308   7.346   3.070   0.669  0.4131  0.0082 -0.2744
 1455TIP3    H2 4309   7.390   2.927   0.689  0.2165  0.1106  0.9443
 1456TIP3   OH2 4310   0.084   7.369   1.641 -0.2545  0.0730 -0.9173
 1456TIP3    H1 4311   0.173   7.389   1.611  0.5722  1.2937  2.0584
 1456TIP3    H2 4312   0.096   7.295   1.701 -1.2397  0.3595 -0.3654
 1457TIP3   OH2 4313   1.295   3.109   2.557  0.2150 -0.2399  0.0948
 1457TIP3    H1 4314   1.203   3.108   2.530  0.4713 -0.0019 -0.8579
 1457TIP3    H2 4315   1.340   3.062   2.487  0.9497  0.6389 -0.0419
 1458TIP3   OH2 4316   7.349   5.295   2.904 -0.3155  0.0779  0.3469
 1458TIP3    H1 4317   7.422   5.266   2.849 -0.9255 -0.7329 -0.0545
 1458TIP3    H2 4318   7.331   5.385   2.876  0.1501  0.0780  0.0436
 1459TIP3   OH2 4319   1.604   3.715   6.303  0.4639  0.0099 -0.0287
 1459TIP3    H1 4320   1.666   3.693   6.235  1.4339  2.3205  0.0075
 1459TIP3    H2 4321   1.650   3.779   6.358 -0.6189 -1.0345  2.2496
 1460TIP3   OH2 4322   2.146   4.473   1.408 -0.1017  0.1625 -0.0344
 1460TIP3    H1 4323   2.062   4.428   1.414  0.2734 -0.7389 -1.2234
 1460TIP3    H2 4324   2.189   4.454   1.491 -1.0506  0.6286  0.5853
 1461TIP3   OH2 4325   3.740   0.397   6.306 -0.0934 -0.4347 -0.7025
 1461TIP3    H1 4326   3.730   0.315   6.355 -1.4427 -1.2650 -2.2684
 1461TIP3    H2 4327   3.776   0.369   6.222  1.4504  0.8730 -0.5381
 1462TIP3   OH2 4328   5.267   7.713   2.217  0.2446  0.1312  0.0858
 1462TIP3    H1 4329   5.362   7.725   2.225  0.1115  2.8056 -1.2295
 1462TIP3    H2 4330   5.253   7.697   2.124 -0.6510  0.6461  0.1249
 1463TIP3   OH2 4331   6.671   7.369   0.622  0.5249 -0.4566 -0.0123
 1463TIP3    H1 4332   6.660   7.282   0.659 -0.3367 -0.0239  0.7977
 1463TIP3    H2 4333   6.686   7.425   0.698 -0.8684  0.3926 -0.3349
 1464TIP3   OH2 4334   6.941   2.780   4.873 -0.2783 -0.4637  0.2453
 1464TIP3    H1 4335   6.922   2.857   4.820 -1.3105 -1.2831 -0.6046
 1464TIP3    H2 4336   6.862   2.726   4.868  0.0530 -1.1262  1.6326
 1465TIP3   OH2 4337   3.722   0.412   3.943  0.3216  0.1622  0.2999
 1465TIP3    H1 4338   3.732   0.317   3.946  0.6141  0.2000  0.5434
 1465TIP3    H2 4339   3.690   0.430   3.855 -0.6689 -0.2451  0.5709
 1466TIP3   OH2 4340   7.037   2.397   4.049 -0.0133 -0.0606 -0.1402
 1466TIP3    H1 4341   6.990   2.463   4.100 -0.9071 -1.0665  0.3786
 1466TIP3    H2 4342   7.018   2.418   3.958  0.0067  0.6040  0.0081
 1467TIP3   OH2 4343   5.996   2.231   4.072 -0.1206  0.6338 -0.4771
 1467TIP3    H1 4344   6.059   2.255   4.005  0.9508  3.3831  1.3242
 1467TIP3    H2 4345   5.911   2.256   4.036 -0.0347 -1.1829 -2.0968
 1468TIP3   OH2 4346   6.190   5.895   5.373 -0.0051  0.4077 -0.0932
 1468TIP3    H1 4347   6.141   5.867   5.296  0.7349  2.1975 -1.2845
 1468TIP3    H2 4348   6.274   5.924   5.339 -0.8317  4.4576  0.8397
 1469TIP3   OH2 4349   6.644   0.067   5.677 -0.2354 -0.0658  0.1586
 1469TIP3    H1 4350   6.692   0.008   5.736  1.2133  0.2435 -0.6790
 1469TIP3    H2 4351   6.552   0.046   5.693  0.1999 -1.5830  0.8805
 1470TIP3   OH2 4352   0.689   2.320   3.994 -0.1931  0.5742  0.5173
 1470TIP3    H1 4353   0.740   2.363   4.062 -0.9434  1.3973  0.5800
 1470TIP3    H2 4354   0.609   2.291   4.038 -1.7356  3.1240 -0.4136
 1471TIP3   OH2 4355   7.543   5.504   6.290 -0.1211 -0.3415 -0.2702
 1471TIP3    H1 4356   7.602   5.572   6.258  0.7208  0.2723  2.3697
 1471TIP3    H2 4357   7.471   5.552   6.331 -0.2917 -1.0366  0.2636
 1472TIP3   OH2 4358   1.708   4.049   5.575  0.3963  0.0732 -0.7662
 1472TIP3    H1 4359   1.657   4.122   5.539 -0.0999 -0.1607 -0.5445
 1472TIP3    H2 4360   1.799   4.070   5.553  0.6055  2.2130  1.7244
 1473TIP3   OH2 4361   2.441   0.755   6.015  0.1607 -0.4481  0.5726
 1473TIP3    H1 4362   2.518   0.734   5.962  0.9263 -0.2006  1.5644
 1473TIP3    H2 4363   2.476   0.770   6.103 -0.8430  1.0395  0.7556
 1474TIP3   OH2 4364   5.730   7.039   5.588  0.2485 -0.3255  0.3930
 1474TIP3    H1 4365   5.755   6.950   5.565  0.6315 -0.0685 -0.2285
 1474TIP3    H2 4366   5.642   7.032   5.623 -0.1935 -0.7980 -0.7834
 1475TIP3   OH2 4367   3.921   2.614   5.650 -0.0265 -0.0022 -0.1505
 1475TIP3    H1 4368   3.958   2.682   5.706  0.5353 -0.2500 -0.2174
 1475TIP3    H2 4369   3.989   2.548   5.645  0.8340  0.9879 -2.9226
 1476TIP3   OH2 4370   4.899   4.445   2.472 -0.3268 -0.3201 -0.4359
 1476TIP3    H1 4371   4.905   4.366   2.418 -1.4867  0.2986 -1.5031
 1476TIP3    H2 4372   4.806   4.466   2.474 -0.0473  0.9674 -0.0583
 1477TIP3   OH2 4373   4.082   2.000   6.109  0.0237 -0.7612 -0.1414
 1477TIP3    H1 4374   4.046   2.089   6.112 -1.1549 -1.1871 -0.8633
 1477TIP3    H2 4375   4.053   1.965   6.025 -0.1143 -2.0499  0.4129
 1478TIP3   OH2 4376   5.586   6.606   0.140 -0.3540 -0.1375 -0.0343
 1478TIP3    H1 4377   5.544   6.598   0.226 -1.4373  2.0274 -0.2996
 1478TIP3    H2 4378   5.680   6.612   0.160 -0.3495 -2.0867  0.7734
 1479TIP3   OH2 4379   0.362   4.806   0.763  0.3938 -0.3838 -0.5313
 1479TIP3    H1 4380   0.335   4.720   0.793 -0.4741 -0.4132 -1.3471
 1479TIP3    H2 4381   0.293   4.833   0.701  1.0105  0.5813 -0.8239
 1480TIP3   OH2 4382   4.618   1.924   3.067 -0.0098  0.4538  0.7176
 1480TIP3    H1 4383   4.678   1.856   3.097 -0.1828  0.2398  0.5803
 1480TIP3    H2 4384   4.654   1.952   2.983  0.2587  0.7816  0.9401
 1481TIP3   OH2 4385   5.454   3.773   4.486 -0.1210 -0.4747 -0.0542
 1481TIP3    H1 4386   5.482   3.745   4.573  1.4434  0.1154 -0.3348
 1481TIP3    H2 4387   5.457   3.869   4.490  0.1869 -0.4445 -0.8097
 1482TIP3   OH2 4388   1.149   5.497   4.382  0.3761  0.0316 -0.0046
 1482TIP3    H1 4389   1.147   5.592   4.387  0.1974  0.0034  0.5907
 1482TIP3    H2 4390   1.107   5.468   4.463 -2.8227 -0.5602 -1.7054
 1483TIP3   OH2 4391   0.816   2.267   5.168 -0.1632  0.6974  0.1722
 1483TIP3    H1 4392   0.882   2.205   5.198 -0.4672  1.2432  2.1310
 1483TIP3    H2 4393   0.860   2.318   5.100  0.8627 -0.0766  0.2296
 1484TIP3   OH2 4394   7.519   7.734   3.786  0.0154  0.4430  0.3717
 1484TIP3    H1 4395   7.575   7.659   3.805 -2.4068 -1.9937 -1.2271
 1484TIP3    H2 4396   7.509   7.734   3.691 -0.4610  2.5575  0.3545
 1485TIP3   OH2 4397   3.870   3.192   0.299 -0.5197 -0.2906  0.3265
 1485TIP3    H1 4398   3.943   3.138   0.271 -0.7792 -1.4019  1.7479
 1485TIP3    H2 4399   3.875   3.269   0.242  1.3764 -0.6162 -0.0076
 1486TIP3   OH2 4400   0.815   3.190   5.399  0.3098  0.1092 -0.0586
 1486TIP3    H1 4401   0.888   3.202   5.460 -0.7929  1.2759  1.1177
 1486TIP3    H2 4402   0.748   3.251   5.431 -0.9314 -0.4589 -1.4815
 1487TIP3   OH2 4403   2.831   4.346   1.238  0.6582  0.6708 -0.7267
 1487TIP3    H1 4404   2.821   4.253   1.253  0.6164  0.5703 -1.3550
 1487TIP3    H2 4405   2.914   4.369   1.280 -0.5989  0.9117  1.8405
 1488TIP3   OH2 4406   5.552   4.401   4.493  0.3045  0.2885 -0.1250
 1488TIP3    H1 4407   5.535   4.334   4.428 -2.1663  0.1837  0.5321
 1488TIP3    H2 4408   5.495   4.474   4.469  1.2154  1.2481  0.5085
 1489TIP3   OH2 4409   7.718   0.672   3.042  0.0605  0.1104 -0.0833
 1489TIP3    H1 4410   7.624   0.676   3.030  0.2354  1.1960 -1.3092
 1489TIP3    H2 4411   7.740   0.579   3.036 -0.8817 -0.1165 -0.1045
 1490TIP3   OH2 4412   1.092   7.741   2.090 -0.2745  0.0511 -0.4888
 1490TIP3    H1 4413   1.086   7.757   1.996 -1.4322 -2.1444 -0.8617
 1490TIP3    H2 4414   1.179   7.705   2.103 -0.5380 -0.7816 -0.9509
 1491TIP3   OH2 4415   5.332   7.402   4.176 -0.2249 -0.0289  0.0139
 1491TIP3    H1 4416   5.347   7.489   4.212 -1.3736 -0.4234  1.5372
 1491TIP3    H2 4417   5.313   7.347   4.252  0.1242 -1.5435 -0.9424
 1492TIP3   OH2 4418   2.129   6.549   1.169 -0.2539 -0.4411  0.6905
 1492TIP3    H1 4419   2.062   6.583   1.228  0.8507  0.6263  1.3785
 1492TIP3    H2 4420   2.120   6.601   1.089  0.6404  0.7087  1.3004
 1493TIP3   OH2 4421   6.403   3.677   4.477 -0.1968  0.6730  0.2884
 1493TIP3    H1 4422   6.473   3.635   4.527  0.3002  0.9565 -0.1513
 1493TIP3    H2 4423   6.346   3.605   4.449 -0.6728  0.5418  1.5316
 1494TIP3   OH2 4424   0.966   4.396   0.787 -0.1581 -0.3435  0.7050
 1494TIP3    H1 4425   0.875   4.425   0.783 -0.0889  0.3310  2.6818
 1494TIP3    H2 4426   0.996   4.399   0.697 -1.7500  0.5654  0.1550
 1495TIP3   OH2 4427   0.421   6.869   1.573 -0.2313 -0.5506  0.0918
 1495TIP3    H1 4428   0.338   6.891   1.530  0.5472 -0.0560 -1.2431
 1495TIP3    H2 4429   0.471   6.824   1.505  1.0322  0.2053  0.4867
 1496TIP3   OH2 4430   5.050   2.190   4.875  0.2183 -0.1910 -0.0191
 1496TIP3    H1 4431   4.954   2.198   4.869  0.2293  0.9150  1.0219
 1496TIP3    H2 4432   5.083   2.251   4.809  0.2508 -2.2119 -2.0184
 1497TIP3   OH2 4433   1.059   2.546   2.911  0.1638 -0.5022  0.1236
 1497TIP3    H1 4434   1.068   2.629   2.959 -1.0384 -0.5760  0.4988
 1497TIP3    H2 4435   1.148   2.527   2.881  0.4586  0.9754 -0.0554
 1498TIP3   OH2 4436   0.010   0.211   6.327  0.3301 -0.5307 -0.1041
 1498TIP3    H1 4437   0.044   0.179   6.411  0.3191 -1.6896 -0.5243
 1498TIP3    H2 4438   0.088   0.233   6.276  0.4014 -1.2407 -0.3182
 1499TIP3   OH2 4439   4.703   5.530   5.447 -0.5059 -0.2325  0.0089
 1499TIP3    H1 4440   4.760   5.482   5.386  1.3243  0.3967  1.1396
 1499TIP3    H2 4441   4.715   5.486   5.531 -0.8426  0.6017  0.5071
 1500TIP3   OH2 4442   3.246   1.961   2.069  0.2955  0.1726  0.5629
 1500TIP3    H1 4443   3.338   1.962   2.094 -0.2038  1.7196  2.7109
 1500TIP3    H2 4444   3.219   2.053   2.076 -1.5147 -0.3175  0.4538
 1501TIP3   OH2 4445   3.999   6.095   1.161  0.1002  0.1567 -0.4693
 1501TIP3    H1 4446   4.001   6.081   1.256 -0.8330  2.0450 -0.1244
 1501TIP3    H2 4447   3.933   6.163   1.148 -0.6220 -0.8656 -2.6118
 1502TIP3   OH2 4448   8.242   2.021   1.865 -0.0027 -0.0636  0.1088
 1502TIP3    H1 4449   8.287   1.941   1.837  0.8640  0.3296  0.3553
 1502TIP3    H2 4450   8.177   2.037   1.796 -0.0093 -0.8269 -0.0756
 1503TIP3   OH2 4451   4.841   0.966   6.485 -0.0669 -0.8730  0.2998
 1503TIP3    H1 4452   4.761   1.003   6.524 -1.5507 -3.4736 -0.0551
 1503TIP3    H2 4453   4.827   0.973   6.391  0.8803  0.1076  0.2190
 1504TIP3   OH2 4454   5.085   4.822   0.618 -0.4579 -0.3964 -0.4101
 1504TIP3    H1 4455   5.059   4.912   0.601  0.6335 -0.4483 -2.7211
 1504TIP3    H2 4456   5.097   4.818   0.712  1.0947  2.3550 -0.3841
 1505TIP3   OH2 4457   4.194   2.702   0.513  0.6758 -0.0518 -0.4865
 1505TIP3    H1 4458   4.240   2.652   0.581 -0.8351 -1.1324 -0.2167
 1505TIP3    H2 4459   4.161   2.636   0.452  2.2041  0.9117 -2.4719
 1506TIP3   OH2 4460   1.343   4.524   1.227 -0.0144 -0.1919  0.4801
 1506TIP3    H1 4461   1.255   4.490   1.211  0.0418 -0.1847  0.1418
 1506TIP3    H2 4462   1.362   4.501   1.317 -0.7169  0.5922  0.8427
 1507TIP3   OH2 4463   1.038   7.584   4.090 -0.7142  0.1480 -0.0891
 1507TIP3    H1 4464   0.960   7.639   4.084 -0.3596  0.6377 -0.3971
 1507TIP3    H2 4465   1.105   7.642   4.126 -0.5672 -0.3481  0.4421
 1508TIP3   OH2 4466   4.112   2.133   2.827 -0.1938  0.0678 -0.1009
 1508TIP3    H1 4467   4.121   2.057   2.771 -0.3808 -0.2739  0.3205
 1508TIP3    H2 4468   4.124   2.099   2.916  0.9680  0.7468  0.0194
 1509TIP3   OH2 4469   6.357   2.036   1.434 -0.1954  0.1644 -0.4624
 1509TIP3    H1 4470   6.306   2.114   1.455 -0.5863  0.1382 -1.2730
 1509TIP3    H2 4471   6.443   2.053   1.473 -0.8692  0.1127  1.0950
 1510TIP3   OH2 4472   0.428   0.749   0.347  0.2576 -0.2392 -0.5288
 1510TIP3    H1 4473   0.489   0.821   0.360 -1.7903  1.4317  0.4087
 1510TIP3    H2 4474   0.417   0.743   0.252 -0.3514  1.4402 -0.5866
 1511TIP3   OH2 4475   4.105   0.590   0.701 -0.6998 -0.0831  0.3263
 1511TIP3    H1 4476   4.162   0.666   0.694  0.7139 -0.9496  1.6139
 1511TIP3    H2 4477   4.122   0.539   0.622 -1.2801  0.6909 -0.2999
 1512TIP3   OH2 4478   5.132   0.911   0.760  0.0690  0.1828  0.3978
 1512TIP3    H1 4479   5.160   0.997   0.792 -2.4350  1.4726 -0.5860
 1512TIP3    H2 4480   5.213   0.863   0.746  1.5655  2.4098  0.9306
 1513TIP3   OH2 4481   4.280   1.844   5.951 -0.0033 -0.7523 -0.1818
 1513TIP3    H1 4482   4.245   1.858   6.039  1.3069 -0.6597  0.3554
 1513TIP3    H2 4483   4.234   1.767   5.919 -1.4976  0.0079  0.0217
 1514TIP3   OH2 4484   2.562   3.916   5.863  0.0148  0.2266 -0.0331
 1514TIP3    H1 4485   2.564   4.008   5.837 -0.2476  0.1958 -0.1718
 1514TIP3    H2 4486   2.492   3.911   5.928  1.1771  0.4498  1.2784
 1515TIP3   OH2 4487   6.704   3.677   0.666 -0.0436  0.2278 -0.3362
 1515TIP3    H1 4488   6.656   3.595   0.672  1.9486 -1.0322 -0.8030
 1515TIP3    H2 4489   6.665   3.722   0.591  0.0888 -1.1787 -1.2884
 1516TIP3   OH2 4490   1.214   5.414   2.537 -0.7854 -0.1597  0.1195
 1516TIP3    H1 4491   1.236   5.376   2.622  0.2411  1.4274  0.6050
 1516TIP3    H2 4492   1.243   5.349   2.474  1.0742 -0.1706  0.9159
 1517TIP3   OH2 4493   4.258   5.282   5.676  0.3948 -0.4335  0.0115
 1517TIP3    H1 4494   4.345   5.310   5.706  0.4010 -1.0290  0.5928
 1517TIP3    H2 4495   4.205   5.280   5.756 -0.2801  0.3397 -0.4045
 1518TIP3   OH2 4496   1.239   7.526   2.846  0.5530  0.1399 -0.3482
 1518TIP3    H1 4497   1.202   7.499   2.762 -2.6047  1.2022  0.5768
 1518TIP3    H2 4498   1.254   7.443   2.893 -0.4284 -0.3535 -0.8709
 1519TIP3   OH2 4499   2.216   4.966   4.773 -0.4682  0.9222 -1.2386
 1519TIP3    H1 4500   2.129   4.930   4.789  0.7732 -1.7822  0.1312
 1519TIP3    H2 4501   2.230   4.954   4.679 -1.5350  1.3752 -1.4680
 1520TIP3   OH2 4502   2.917   0.136   5.575 -0.2199 -0.0339 -0.3047
 1520TIP3    H1 4503   2.898   0.168   5.663 -0.7175  0.5490 -0.6202
 1520TIP3    H2 4504   2.978   0.200   5.539  1.2855 -1.1325  0.1844
 1521TIP3   OH2 4505   5.462   1.611   0.609 -0.2869  0.5901 -0.0853
 1521TIP3    H1 4506   5.527   1.546   0.582 -1.2354 -0.1590 -0.6354
 1521TIP3    H2 4507   5.414   1.570   0.680  1.0749  1.9011  1.6775
 1522TIP3   OH2 4508   2.594   0.984   1.359 -0.0612  0.3223  0.1267
 1522TIP3    H1 4509   2.684   0.956   1.342 -0.3336 -0.3735 -0.2181
 1522TIP3    H2 4510   2.558   1.001   1.272 -0.8672 -1.3431  0.1171
 1523TIP3   OH2 4511   3.890   0.571   0.955 -0.0879 -0.3725 -0.1467
 1523TIP3    H1 4512   3.924   0.544   0.870 -1.1503 -0.0723 -0.7003
 1523TIP3    H2 4513   3.855   0.659   0.939  0.9408  0.2555  0.9492
 1524TIP3   OH2 4514   7.484   0.559   4.472  0.0214  0.0197 -0.4403
 1524TIP3    H1 4515   7.402   0.539   4.516  1.5474  0.7376  3.0843
 1524TIP3    H2 4516   7.552   0.524   4.531  2.2969  2.0717 -1.6573
 1525TIP3   OH2 4517   0.409   1.782   3.026  0.2569 -0.4516 -0.3057
 1525TIP3    H1 4518   0.324   1.791   3.068  1.2945 -0.2073  1.8979
 1525TIP3    H2 4519   0.415   1.690   3.003 -0.3617 -0.5992  0.1100
 1526TIP3   OH2 4520   5.981   1.338   2.707  0.4394  0.0654 -0.6411
 1526TIP3    H1 4521   6.046   1.286   2.753 -1.2497 -1.6399 -0.0193
 1526TIP3    H2 4522   5.908   1.345   2.768  1.0176  4.4214 -0.1448
 1527TIP3   OH2 4523   4.512   4.470   5.674 -0.1302  0.8833 -0.5407
 1527TIP3    H1 4524   4.550   4.534   5.733  0.9043 -0.2471  0.0717
 1527TIP3    H2 4525   4.497   4.393   5.729 -0.7461  0.3823 -1.3888
 1528TIP3   OH2 4526   2.739   0.371   5.952  0.9872 -0.5290  0.1789
 1528TIP3    H1 4527   2.766   0.363   6.044  0.1787  0.5758  0.5413
 1528TIP3    H2 4528   2.819   0.396   5.905  1.4024 -1.0889  0.5860
 1529TIP3   OH2 4529   5.938   4.529   0.525 -0.2985  0.0518  0.1030
 1529TIP3    H1 4530   5.903   4.454   0.477  0.5949 -0.1168 -0.3146
 1529TIP3    H2 4531   6.027   4.540   0.490 -0.8204  2.0795 -0.7449
 1530TIP3   OH2 4532   1.224   7.229   1.982 -0.2126  0.1208 -0.6285
 1530TIP3    H1 4533   1.158   7.161   1.993 -1.3286  1.1535 -0.6538
 1530TIP3    H2 4534   1.198   7.275   1.902  1.4093 -0.3632 -1.4814
 1531TIP3   OH2 4535   7.630   2.136   5.998 -0.0535 -0.6938  0.3385
 1531TIP3    H1 4536   7.617   2.168   5.909  0.9073 -0.8956  0.1185
 1531TIP3    H2 4537   7.548   2.091   6.020 -0.6859  0.2483 -0.0488
 1532TIP3   OH2 4538   4.230   6.000   4.735 -0.0797 -0.2833 -0.3969
 1532TIP3    H1 4539   4.299   6.057   4.700 -0.9744  0.9314 -0.2277
 1532TIP3    H2 4540   4.149   6.038   4.702 -0.8262 -0.2864  1.3680
 1533TIP3   OH2 4541   5.329   3.897   3.697 -0.3389 -0.0724 -0.4483
 1533TIP3    H1 4542   5.401   3.834   3.695  0.9511  1.3571 -1.2583
 1533TIP3    H2 4543   5.260   3.856   3.645  0.5368 -0.7722 -1.0965
 1534TIP3   OH2 4544   6.390   7.141   4.500 -0.5299 -0.2134 -0.1271
 1534TIP3    H1 4545   6.317   7.199   4.522 -0.2318 -0.2889  1.1143
 1534TIP3    H2 4546   6.377   7.063   4.555  0.3620 -0.3144 -0.0390
 1535TIP3   OH2 4547   2.512   0.113   4.311  0.1058 -0.2640  0.2187
 1535TIP3    H1 4548   2.492   0.071   4.228  2.0993 -1.1932  0.1420
 1535TIP3    H2 4549   2.457   0.069   4.375  0.0725 -0.9964 -0.3055
 1536TIP3   OH2 4550   1.963   3.376   3.344 -0.0631  0.1205 -0.2919
 1536TIP3    H1 4551   1.952   3.406   3.254 -3.1453  2.8642  0.8259
 1536TIP3    H2 4552   1.937   3.284   3.341 -1.4887  0.5111 -2.0217
 1537TIP3   OH2 4553   1.041   4.907   3.658 -0.1020 -0.5474  0.3779
 1537TIP3    H1 4554   1.010   4.941   3.742 -0.0651  1.6057 -0.4071
 1537TIP3    H2 4555   0.967   4.919   3.598  0.2573 -0.9645 -0.1607
 1538TIP3   OH2 4556   2.625   1.205   0.431 -0.3553  0.0431  0.2669
 1538TIP3    H1 4557   2.623   1.167   0.343 -0.4797 -1.9860  1.0802
 1538TIP3    H2 4558   2.716   1.198   0.458 -0.2155  1.1710  0.1094
 1539TIP3   OH2 4559   0.652   2.480   1.075  0.1708  0.1042 -0.0040
 1539TIP3    H1 4560   0.622   2.535   1.148 -1.6765 -0.9331  0.0979
 1539TIP3    H2 4561   0.705   2.412   1.116 -1.4420 -0.8874  0.5323
 1540TIP3   OH2 4562   0.076   5.005   0.085 -0.5169 -0.1617 -0.4033
 1540TIP3    H1 4563   0.029   5.072   0.037 -1.6213 -1.1358 -0.7509
 1540TIP3    H2 4564   0.140   4.970   0.023  1.0411  1.4617  0.2022
 1541TIP3   OH2 4565   3.098   0.043   0.160 -0.2417 -0.2632  0.4811
 1541TIP3    H1 4566   3.108  -0.021   0.231 -1.1034 -2.2573 -1.0931
 1541TIP3    H2 4567   3.173   0.027   0.103 -1.5480 -1.3698 -0.9942
 1542TIP3   OH2 4568   3.708   2.776   4.728  0.3520 -0.2270  0.4218
 1542TIP3    H1 4569   3.704   2.688   4.689  1.8861 -0.5095  0.8309
 1542TIP3    H2 4570   3.751   2.763   4.812 -2.4524  0.4487  2.0811
 1543TIP3   OH2 4571   1.037   1.417   2.174  0.0610  0.1650  0.1321
 1543TIP3    H1 4572   1.126   1.428   2.209 -0.2409 -0.4049  1.1355
 1543TIP3    H2 4573   1.007   1.506   2.158  0.5686  0.3993  0.4309
 1544TIP3   OH2 4574   2.656   6.323   2.608 -0.6644  0.9709  0.1278
 1544TIP3    H1 4575   2.689   6.247   2.656  0.0951  2.5559  2.2913
 1544TIP3    H2 4576   2.562   6.324   2.626 -0.6349  0.6676  0.3122
 1545TIP3   OH2 4577   1.571   5.750   5.886  0.1153  0.3696 -0.4738
 1545TIP3    H1 4578   1.618   5.744   5.969  0.0138 -1.4612 -0.5161
 1545TIP3    H2 4579   1.639   5.767   5.820  0.6621 -1.3452 -0.4100
 1546TIP3   OH2 4580   3.426   6.780   2.224  0.1856  0.2877  0.0474
 1546TIP3    H1 4581   3.437   6.822   2.309  0.1880  0.2995  0.0412
 1546TIP3    H2 4582   3.513   6.783   2.184  0.2565  0.0005  0.1756
 1547TIP3   OH2 4583   7.070   2.966   2.238  0.2653 -0.3552  0.1712
 1547TIP3    H1 4584   7.009   2.995   2.307 -1.2152 -1.2172 -0.7222
 1547TIP3    H2 4585   7.093   3.047   2.192 -0.4729 -0.0457  0.3205
 1548TIP3   OH2 4586   0.176   5.917   3.172 -0.5026 -0.4301 -0.2416
 1548TIP3    H1 4587   0.243   5.890   3.110  1.1542  1.6434  0.5219
 1548TIP3    H2 4588   0.137   5.835   3.203  0.3600 -1.5987 -2.0938
 1549TIP3   OH2 4589   4.377   5.724   4.209  0.0613  0.0362  0.8494
 1549TIP3    H1 4590   4.316   5.656   4.237  0.3164 -0.5284  0.0565
 1549TIP3    H2 4591   4.457   5.677   4.186 -0.3696  0.3444 -1.5873
 1550TIP3   OH2 4592   0.877   1.216   6.492  0.1183  0.4313 -0.4062
 1550TIP3    H1 4593   0.829   1.150   6.542 -0.2772  0.9199 -0.1349
 1550TIP3    H2 4594   0.915   1.274   6.559  2.3836 -0.8001 -0.5273
 1551TIP3   OH2 4595   7.902   3.481   0.899  0.6419  0.4575 -0.1372
 1551TIP3    H1 4596   7.963   3.410   0.917  3.1838  2.7112  0.7750
 1551TIP3    H2 4597   7.955   3.549   0.856 -1.3522  2.3118  0.1411
 1552TIP3   OH2 4598   4.015   3.617   0.402 -0.4122  0.4885  0.7535
 1552TIP3    H1 4599   4.071   3.546   0.372 -1.7635  0.2418 -1.4394
 1552TIP3    H2 4600   4.069   3.696   0.397 -0.0833  0.1847 -0.8025
 1553TIP3   OH2 4601   2.354   0.325   6.642  0.0365 -0.0391 -0.1800
 1553TIP3    H1 4602   2.273   0.334   6.592 -0.3366  2.4034  0.7355
 1553TIP3    H2 4603   2.326   0.290   6.727 -0.1552  1.2772  0.3119
 1554TIP3   OH2 4604   8.188   7.113   3.760  0.4600 -0.0808  0.0803
 1554TIP3    H1 4605   8.108   7.166   3.759  0.2602 -0.3858 -0.6213
 1554TIP3    H2 4606   8.184   7.061   3.679  1.1146 -0.4765  0.2912
 1555TIP3   OH2 4607   2.341   7.641   4.318 -0.1979 -0.0361  0.9445
 1555TIP3    H1 4608   2.281   7.679   4.253  0.2148 -1.4352 -0.3049
 1555TIP3    H2 4609   2.408   7.597   4.266  0.0554 -1.3600  2.3306
 1556TIP3   OH2 4610   7.071   5.271   1.147 -0.0207  0.0873 -0.8222
 1556TIP3    H1 4611   7.114   5.290   1.231  0.5872 -0.9945 -0.8624
 1556TIP3    H2 4612   7.135   5.298   1.081  1.0822 -2.3711 -0.8785
 1557TIP3   OH2 4613   3.035   2.155   1.200  0.0194  0.2642  0.6099
 1557TIP3    H1 4614   2.976   2.154   1.124 -0.2402 -2.0345  0.7656
 1557TIP3    H2 4615   2.986   2.112   1.269  0.9843  0.5662  1.5135
 1558TIP3   OH2 4616   5.500   6.631   4.834  0.0388  0.0758 -0.0752
 1558TIP3    H1 4617   5.413   6.595   4.817  0.4270 -1.2174  0.5292
 1558TIP3    H2 4618   5.487   6.693   4.905 -0.1871 -1.2187  1.0604
 1559TIP3   OH2 4619   6.740   0.019   6.390 -0.5020 -0.6358 -0.0060
 1559TIP3    H1 4620   6.825   0.003   6.349 -0.5129  0.7132 -0.5919
 1559TIP3    H2 4621   6.760   0.024   6.484  0.0150 -0.7009 -0.1099
 1560TIP3   OH2 4622   7.883   1.701   0.747 -0.0387 -0.1161  0.3205
 1560TIP3    H1 4623   7.817   1.631   0.743 -0.0672 -0.0463 -3.1051
 1560TIP3    H2 4624   7.856   1.763   0.680  1.9206  1.4601  0.8937
 1561TIP3   OH2 4625   4.683   6.323   2.956 -0.6311  0.2541  0.2307
 1561TIP3    H1 4626   4.642   6.277   2.883 -0.6818  0.1776  0.3078
 1561TIP3    H2 4627   4.616   6.325   3.024 -1.1808  1.8063 -0.3176
 1562TIP3   OH2 4628   6.968   5.195   2.600  0.0054  0.2258 -0.8634
 1562TIP3    H1 4629   7.007   5.214   2.514 -0.6638 -1.1121 -1.5083
 1562TIP3    H2 4630   6.891   5.142   2.579 -0.7758  0.7564  0.5220
 1563TIP3   OH2 4631   6.118   3.213   0.627  0.0269  0.0318  0.0560
 1563TIP3    H1 4632   6.061   3.157   0.680 -0.4251 -0.0488 -0.5049
 1563TIP3    H2 4633   6.060   3.249   0.559  0.3001  1.1686  0.3948
 1564TIP3   OH2 4634   0.476   3.383   4.540  0.0846 -0.4935 -0.5121
 1564TIP3    H1 4635   0.381   3.389   4.533  0.1464  0.4473 -0.5865
 1564TIP3    H2 4636   0.492   3.293   4.569 -0.9002 -0.2438  0.8644
 1565TIP3   OH2 4637   7.828   1.243   0.157  0.3828  0.1023  0.3736
 1565TIP3    H1 4638   7.894   1.303   0.123  0.3944 -0.1185  0.0082
 1565TIP3    H2 4639   7.771   1.299   0.211  0.7530  0.3258  0.5376
 1566TIP3   OH2 4640   8.054   2.560   2.127  0.2779  0.5091  0.1522
 1566TIP3    H1 4641   8.063   2.642   2.175  0.1446  0.6299 -0.0287
 1566TIP3    H2 4642   8.035   2.586   2.037  1.0201  0.2860 -0.0736
 1567TIP3   OH2 4643   2.330   5.231   1.070 -0.4530 -0.2785 -0.4324
 1567TIP3    H1 4644   2.399   5.298   1.068 -0.5536 -0.1836 -2.3386
 1567TIP3    H2 4645   2.332   5.198   1.160  2.0606 -0.2493 -0.4035
 1568TIP3   OH2 4646   5.673   7.569   3.039  0.0063 -0.3442 -0.1588
 1568TIP3    H1 4647   5.594   7.572   3.092 -0.4908  0.1816 -0.9045
 1568TIP3    H2 4648   5.739   7.614   3.091  0.4289 -2.6370  1.4079
 1569TIP3   OH2 4649   6.896   0.395   1.203  0.1335 -0.0060  0.0593
 1569TIP3    H1 4650   6.881   0.409   1.296 -0.9396 -1.5242  0.1544
 1569TIP3    H2 4651   6.814   0.356   1.171  0.2434  1.0388 -1.6498
 1570TIP3   OH2 4652   2.118   2.536   4.203  0.3960  0.1758  0.5191
 1570TIP3    H1 4653   2.090   2.555   4.114  0.1362  1.3824  0.8479
 1570TIP3    H2 4654   2.147   2.444   4.200 -1.0932 -0.2932 -0.4261
 1571TIP3   OH2 4655   2.915   4.374   3.353 -0.2203 -0.0697 -0.3732
 1571TIP3    H1 4656   2.922   4.386   3.258 -3.1386  0.2461 -0.6398
 1571TIP3    H2 4657   2.920   4.463   3.389 -1.9022  0.1251 -0.5385
 1572TIP3   OH2 4658   2.041   0.880   3.720 -0.2968  0.1416  0.3351
 1572TIP3    H1 4659   2.126   0.920   3.702  0.5608 -2.1827 -1.1613
 1572TIP3    H2 4660   2.059   0.812   3.785 -0.7977 -0.9505 -0.6257
 1573TIP3   OH2 4661   2.973   7.084   0.920 -0.3794 -0.1526 -0.3504
 1573TIP3    H1 4662   2.995   7.092   0.827  1.1777  0.4226  0.0246
 1573TIP3    H2 4663   3.008   6.999   0.945  1.5661  0.7541  0.2457
 1574TIP3   OH2 4664   0.968   7.022   4.794 -0.1729 -0.1152  0.2889
 1574TIP3    H1 4665   0.981   7.117   4.783 -2.8944  0.1694 -1.5345
 1574TIP3    H2 4666   0.873   7.011   4.796  0.0840 -2.7369  1.7743
 1575TIP3   OH2 4667   5.924   2.201   3.720 -0.2803  0.4883  0.0725
 1575TIP3    H1 4668   5.832   2.219   3.739 -0.4547 -0.6895  0.4806
 1575TIP3    H2 4669   5.937   2.112   3.753  1.5674  1.3944  1.9916
 1576TIP3   OH2 4670   5.852   1.532   5.300  0.2197 -0.3702  0.0921
 1576TIP3    H1 4671   5.771   1.520   5.348  1.2894 -0.1662  2.0410
 1576TIP3    H2 4672   5.921   1.526   5.366  1.7019  1.4877 -1.1584
 1577TIP3   OH2 4673   2.195   1.302   0.839 -0.5617 -0.2275  0.1476
 1577TIP3    H1 4674   2.216   1.214   0.872 -4.1217 -1.2195  0.2577
 1577TIP3    H2 4675   2.173   1.352   0.918  0.6523  0.5565  0.0090
 1578TIP3   OH2 4676   4.640   5.418   3.419  0.0081 -0.3154  0.2102
 1578TIP3    H1 4677   4.627   5.449   3.509  1.5991  2.7681 -0.4954
 1578TIP3    H2 4678   4.556   5.379   3.395 -1.7032  2.0623  1.8591
 1579TIP3   OH2 4679   5.185   0.764   3.661  0.0503 -0.0516 -0.1401
 1579TIP3    H1 4680   5.142   0.741   3.744 -1.7533 -0.7605 -1.2010
 1579TIP3    H2 4681   5.127   0.830   3.622  0.9789  0.4110 -0.7651
 1580TIP3   OH2 4682   6.210   3.144   6.513 -0.2104  0.3451 -0.3266
 1580TIP3    H1 4683   6.294   3.186   6.527 -0.6236  0.7183  1.3732
 1580TIP3    H2 4684   6.217   3.060   6.560 -0.2396 -0.3749 -1.5737
 1581TIP3   OH2 4685   7.470   6.016   3.035 -0.6104 -0.2341 -0.0678
 1581TIP3    H1 4686   7.478   6.033   2.941 -1.8866  1.6153  0.0976
 1581TIP3    H2 4687   7.557   5.988   3.062  0.7582  2.5960 -1.2054
 1582TIP3   OH2 4688   2.108   2.973   6.447  0.4097  0.1951  0.5120
 1582TIP3    H1 4689   2.100   3.057   6.493  0.5115  0.2833  0.3680
 1582TIP3    H2 4690   2.062   2.985   6.365 -0.1220 -0.0937  0.7600
 1583TIP3   OH2 4691   3.737   5.014   1.199  0.8524 -0.0802 -0.0312
 1583TIP3    H1 4692   3.800   4.955   1.241  1.4059 -0.6220 -1.5705
 1583TIP3    H2 4693   3.654   4.966   1.204  1.4444 -1.4682 -2.0164
 1584TIP3   OH2 4694   5.548   2.908   5.961 -1.0202  0.0655  0.0256
 1584TIP3    H1 4695   5.470   2.939   6.007 -2.4219  0.6461 -2.5417
 1584TIP3    H2 4696   5.532   2.815   5.946 -1.2044  0.1660 -0.4262
 1585TIP3   OH2 4697   6.822   0.113   4.061 -0.0470 -0.0759 -0.1509
 1585TIP3    H1 4698   6.806   0.019   4.048  0.0943 -0.5861  2.8179
 1585TIP3    H2 4699   6.739   0.147   4.095 -0.2554  1.0540 -1.6627
 1586TIP3   OH2 4700   6.224   5.286   3.809 -0.0300  0.1649  0.2367
 1586TIP3    H1 4701   6.235   5.375   3.775 -0.5720  0.0926 -0.1613
 1586TIP3    H2 4702   6.310   5.246   3.801 -0.1687  0.0829 -1.3104
 1587TIP3   OH2 4703   0.119   2.786   6.352  0.3187 -0.2953  0.6906
 1587TIP3    H1 4704   0.121   2.881   6.358  3.1495 -0.2262  0.0842
 1587TIP3    H2 4705   0.026   2.763   6.359 -1.0248  2.7958 -3.2746
 1588TIP3   OH2 4706   1.167   0.359   6.555  0.7686  0.2474  0.4323
 1588TIP3    H1 4707   1.127   0.400   6.632  0.5259  2.6372 -0.8423
 1588TIP3    H2 4708   1.209   0.432   6.508  0.7322 -1.0567 -1.7988
 1589TIP3   OH2 4709   6.833   6.922   5.413  0.1052  0.0775  0.9664
 1589TIP3    H1 4710   6.776   6.850   5.441 -0.7144  0.6760  0.8761
 1589TIP3    H2 4711   6.830   6.920   5.318  0.1571  0.1715  0.9624
 1590TIP3   OH2 4712   5.655   7.645   6.489 -0.8530 -0.3832 -0.2071
 1590TIP3    H1 4713   5.566   7.671   6.510 -0.4227  1.7690 -0.7769
 1590TIP3    H2 4714   5.710   7.706   6.539  0.2693 -0.8626 -0.8135
 1591TIP3   OH2 4715   7.397   6.885   2.551  0.3716  0.0453  0.4493
 1591TIP3    H1 4716   7.435   6.809   2.506 -3.5781 -0.6783 -2.1782
 1591TIP3    H2 4717   7.345   6.846   2.622  0.9250  0.6288  1.1891
 1592TIP3   OH2 4718   7.220   6.292   3.083  0.3879  0.0591 -0.6355
 1592TIP3    H1 4719   7.153   6.335   3.030 -0.5682 -1.0013 -0.3141
 1592TIP3    H2 4720   7.195   6.200   3.084  1.6537 -0.3016 -0.2032
 1593TIP3   OH2 4721   3.473   4.151   5.304  0.9060 -0.1383  0.2146
 1593TIP3    H1 4722   3.438   4.228   5.259  0.7986  1.2126  2.4327
 1593TIP3    H2 4723   3.472   4.081   5.238 -1.2335  1.1408 -1.2360
 1594TIP3   OH2 4724   7.603   7.018   1.851 -0.3149 -0.1860 -0.1746
 1594TIP3    H1 4725   7.544   7.038   1.923 -0.1787  0.5224 -0.2560
 1594TIP3    H2 4726   7.545   6.999   1.777 -0.4631 -1.2704  0.1957
 1595TIP3   OH2 4727   7.638   7.529   2.730  0.3677 -0.4647 -0.0005
 1595TIP3    H1 4728   7.727   7.543   2.697 -0.2878  0.4543 -1.4890
 1595TIP3    H2 4729   7.596   7.476   2.662 -0.7811  0.7267 -0.2475
 1596TIP3   OH2 4730   0.893   7.051   0.583 -0.3439  0.2995 -0.1564
 1596TIP3    H1 4731   0.985   7.049   0.557  0.0736  2.0609  1.0466
 1596TIP3    H2 4732   0.849   6.993   0.521  1.6567 -1.1000 -0.3643
 1597TIP3   OH2 4733   3.500   7.521   1.579 -0.1863 -0.0030  0.1251
 1597TIP3    H1 4734   3.567   7.455   1.563  0.0487 -0.1882  1.6700
 1597TIP3    H2 4735   3.444   7.483   1.647 -0.6602  0.9615  0.3054
 1598TIP3   OH2 4736   8.232   2.488   5.108 -0.0850  0.1133 -0.2754
 1598TIP3    H1 4737   8.232   2.474   5.013 -0.0930  0.0598 -0.2672
 1598TIP3    H2 4738   8.311   2.540   5.124  1.0064 -1.5604 -0.0555
 1599TIP3   OH2 4739   1.753   1.853   3.924  0.2004 -0.6527 -0.2683
 1599TIP3    H1 4740   1.763   1.766   3.965  1.3317 -1.0884 -1.3870
 1599TIP3    H2 4741   1.733   1.834   3.833 -2.2566  0.3022  0.0185
 1600TIP3   OH2 4742   5.545   6.288   0.431 -1.0156 -0.0647  0.0987
 1600TIP3    H1 4743   5.452   6.302   0.415 -1.5437 -0.2549  2.5439
 1600TIP3    H2 4744   5.579   6.375   0.452 -0.2170  0.2853 -2.3268
 1601TIP3   OH2 4745   2.981   2.577   2.562  0.1313  0.1863 -0.7848
 1601TIP3    H1 4746   2.941   2.654   2.521 -0.1405  1.1535  1.1344
 1601TIP3    H2 4747   3.074   2.586   2.544  0.3130  1.8725  0.6483
 1602TIP3   OH2 4748   1.267   3.848   0.227 -0.0280  0.7515  0.0186
 1602TIP3    H1 4749   1.218   3.915   0.180  0.4816  0.6990 -0.6041
 1602TIP3    H2 4750   1.309   3.895   0.300  1.1380  1.3313 -0.9846
 1603TIP3   OH2 4751   0.789   6.138   0.607  0.2794  0.0080  0.5359
 1603TIP3    H1 4752   0.862   6.168   0.553  0.9751 -0.5489  1.1508
 1603TIP3    H2 4753   0.802   6.043   0.614 -2.0127 -0.5671 -1.5886
 1604TIP3   OH2 4754   6.383   2.408   5.929  0.1493  0.2816 -0.6196
 1604TIP3    H1 4755   6.327   2.345   5.975  0.7507  0.0182 -0.2426
 1604TIP3    H2 4756   6.322   2.471   5.891 -0.3701  0.4004  0.3772
 1605TIP3   OH2 4757   4.086   3.388   5.459 -0.1673  0.0980 -0.4641
 1605TIP3    H1 4758   4.062   3.463   5.405  0.5189  0.1097 -0.7544
 1605TIP3    H2 4759   4.025   3.392   5.533  0.4342  1.4712 -0.0093
 1606TIP3   OH2 4760   6.060   5.382   0.274 -0.1198  0.3591 -0.0414
 1606TIP3    H1 4761   6.058   5.316   0.343 -1.0622  2.5135  2.1776
 1606TIP3    H2 4762   5.975   5.374   0.231 -0.1736  0.0249  0.1202
 1607TIP3   OH2 4763   3.584   3.145   1.254  0.1774  0.2635 -0.0404
 1607TIP3    H1 4764   3.580   3.095   1.173  0.1401  0.9907 -0.4971
 1607TIP3    H2 4765   3.640   3.220   1.233  0.8019  0.0525  0.8322
 1608TIP3   OH2 4766   6.143   6.045   5.843  0.3337 -0.7379  0.0013
 1608TIP3    H1 4767   6.162   6.069   5.752 -1.8359  3.7667  0.4397
 1608TIP3    H2 4768   6.221   6.070   5.892  0.2530  0.1549 -0.2970
 1609TIP3   OH2 4769   1.013   0.340   5.925 -0.0668 -0.4981  0.3537
 1609TIP3    H1 4770   0.969   0.423   5.946  1.0871 -0.0634  1.1984
 1609TIP3    H2 4771   1.105   0.365   5.913  0.4424 -1.7600  1.4039
 1610TIP3   OH2 4772   0.750   5.660   1.460 -0.8074  0.1564 -0.3979
 1610TIP3    H1 4773   0.698   5.595   1.414 -2.2384  0.4778  0.7107
 1610TIP3    H2 4774   0.792   5.612   1.531 -1.2022  0.2779 -0.0801
 1611TIP3   OH2 4775   6.537   3.869   5.349  0.0253 -0.1543  0.0393
 1611TIP3    H1 4776   6.442   3.859   5.361  0.2526 -2.4066  0.3670
 1611TIP3    H2 4777   6.566   3.913   5.429 -0.7559  0.8101 -0.1822
 1612TIP3   OH2 4778   1.729   2.049   1.896 -0.0879 -0.0606  0.0917
 1612TIP3    H1 4779   1.720   1.970   1.948 -0.9604 -1.0873 -1.5373
 1612TIP3    H2 4780   1.643   2.092   1.902 -0.1575 -0.1298 -0.4129
 1613TIP3   OH2 4781   1.354   4.746   4.495 -0.2888 -0.2618  0.6137
 1613TIP3    H1 4782   1.273   4.766   4.541 -1.5223 -1.7490 -0.8054
 1613TIP3    H2 4783   1.355   4.804   4.419 -1.4318 -2.0132 -0.8285
 1614TIP3   OH2 4784   3.996   1.672   4.468  0.1534 -0.0385 -0.1676
 1614TIP3    H1 4785   4.004   1.667   4.563  1.3934 -1.2722 -0.3067
 1614TIP3    H2 4786   3.929   1.608   4.446 -1.4919  1.5611 -0.0088
 1615TIP3   OH2 4787   4.611   1.012   1.578  0.5442  0.6578 -0.1487
 1615TIP3    H1 4788   4.687   0.975   1.533  0.6944 -0.3431  0.8643
 1615TIP3    H2 4789   4.577   1.079   1.519  2.9794  2.0517 -0.0923
 1616TIP3   OH2 4790   5.303   7.733   4.530 -0.4993  0.1176  0.2938
 1616TIP3    H1 4791   5.229   7.722   4.470 -0.0316  0.4104 -0.3501
 1616TIP3    H2 4792   5.274   7.691   4.611 -1.6532  0.8542  0.2954
 1617TIP3   OH2 4793   5.882   0.092   5.361  0.2553  0.0533 -0.1611
 1617TIP3    H1 4794   5.884   0.135   5.275  1.8671  1.8400  0.6854
 1617TIP3    H2 4795   5.927   0.009   5.347 -0.5552 -0.2176 -1.2840
 1618TIP3   OH2 4796   2.589   1.263   5.669 -0.8320 -0.2939 -0.0993
 1618TIP3    H1 4797   2.590   1.202   5.595 -0.6475 -1.5492  0.9069
 1618TIP3    H2 4798   2.644   1.221   5.735 -2.4521 -0.0625  1.4457
 1619TIP3   OH2 4799   3.753   1.729   2.677 -0.2390 -0.6216 -0.0964
 1619TIP3    H1 4800   3.824   1.681   2.633 -0.3770 -2.4097  1.4666
 1619TIP3    H2 4801   3.680   1.667   2.678 -1.0104  0.2738  0.4719
 1620TIP3   OH2 4802   0.819   1.376   2.688 -0.0463 -0.3377 -0.3456
 1620TIP3    H1 4803   0.873   1.370   2.767 -0.0645  1.0615 -0.1969
 1620TIP3    H2 4804   0.772   1.293   2.685 -0.4422 -0.2282  1.4273
 1621TIP3   OH2 4805   3.787   1.611   1.545 -0.0115 -0.4278  0.1876
 1621TIP3    H1 4806   3.837   1.563   1.479 -1.6086 -1.4543 -0.3359
 1621TIP3    H2 4807   3.695   1.589   1.527 -0.9448  3.1810 -0.4011
 1622TIP3   OH2 4808   7.559   6.386   0.002  0.7409  0.3179  0.3514
 1622TIP3    H1 4809   7.552   6.295   0.030 -0.4244  0.4647  0.5669
 1622TIP3    H2 4810   7.584   6.434   0.081  0.3810  0.3194  0.4657
 1623TIP3   OH2 4811   0.416   4.317   3.200 -0.5456  0.5589 -0.4441
 1623TIP3    H1 4812   0.383   4.289   3.285 -0.3781 -4.0346 -1.6405
 1623TIP3    H2 4813   0.338   4.342   3.151 -1.1763 -0.7971 -0.1775
 1624TIP3   OH2 4814   6.739   5.871   5.347 -0.3714  0.1327  0.0643
 1624TIP3    H1 4815   6.775   5.959   5.336 -1.3090  0.4800 -0.3009
 1624TIP3    H2 4816   6.652   5.885   5.383 -0.8794 -0.6070 -0.8437
 1625TIP3   OH2 4817   2.342   4.816   1.588  0.6103 -0.1505  0.3339
 1625TIP3    H1 4818   2.415   4.872   1.614  1.2090  0.0682 -1.6488
 1625TIP3    H2 4819   2.382   4.748   1.534 -0.6633  0.1312 -1.0293
 1626TIP3   OH2 4820   7.642   1.530   4.300  0.2464  0.1479  0.4668
 1626TIP3    H1 4821   7.732   1.503   4.316 -0.1826 -1.1936  0.6911
 1626TIP3    H2 4822   7.648   1.592   4.226  1.3767  0.3683  0.7326
 1627TIP3   OH2 4823   3.703   6.497   3.735 -1.0291 -0.1114 -0.0186
 1627TIP3    H1 4824   3.685   6.516   3.643 -0.9956 -3.2501 -0.7899
 1627TIP3    H2 4825   3.622   6.521   3.780 -1.7561 -0.3220 -1.1621
 1628TIP3   OH2 4826   7.410   2.413   6.165 -0.3749 -0.1760 -0.0792
 1628TIP3    H1 4827   7.401   2.504   6.137 -1.0114 -0.4184 -0.7076
 1628TIP3    H2 4828   7.503   2.394   6.155  0.3717  1.3084  3.0351
 1629TIP3   OH2 4829   6.954   1.511   3.429 -0.2021 -0.1119  0.5015
 1629TIP3    H1 4830   6.871   1.553   3.406 -1.0066 -2.0995 -0.4583
 1629TIP3    H2 4831   6.961   1.437   3.370  2.0612 -0.2903  0.8850
 1630TIP3   OH2 4832   8.096   2.414   5.419  0.0610 -0.0004 -0.3661
 1630TIP3    H1 4833   8.169   2.475   5.404  0.3736 -0.6628 -1.5863
 1630TIP3    H2 4834   8.043   2.420   5.340  0.6681 -2.0806 -0.9859
 1631TIP3   OH2 4835   1.295   0.686   4.226  0.0909  0.0932 -0.7028
 1631TIP3    H1 4836   1.292   0.778   4.253 -1.0864 -0.2490  0.4647
 1631TIP3    H2 4837   1.360   0.683   4.156  0.5001  1.7238 -0.4271
 1632TIP3   OH2 4838   3.450   3.367   6.555 -0.0146  0.6197  0.0591
 1632TIP3    H1 4839   3.361   3.401   6.562 -0.7089 -1.3014  1.6435
 1632TIP3    H2 4840   3.480   3.360   6.646  0.9850 -0.6150 -0.3316
 1633TIP3   OH2 4841   5.598   3.447   2.032 -0.0467 -0.1679  0.1351
 1633TIP3    H1 4842   5.534   3.462   1.962 -0.1363  1.1921  0.4859
 1633TIP3    H2 4843   5.563   3.493   2.108  1.4484  0.8600  0.2634
 1634TIP3   OH2 4844   7.805   3.806   3.318 -0.5304 -0.2149  0.0423
 1634TIP3    H1 4845   7.758   3.881   3.281  1.7690 -0.3889 -3.7877
 1634TIP3    H2 4846   7.880   3.845   3.364 -0.7065 -0.1082  0.2403
 1635TIP3   OH2 4847   0.738   1.378   1.647 -0.4144 -0.3190 -0.4498
 1635TIP3    H1 4848   0.816   1.388   1.592 -0.6399 -0.3534 -0.7808
 1635TIP3    H2 4849   0.772   1.356   1.733  0.0037  0.9570 -0.2645
 1636TIP3   OH2 4850   0.010   4.186   2.120 -0.1084 -0.2189  0.4619
 1636TIP3    H1 4851  -0.008   4.236   2.040 -1.5938 -0.7317  0.4530
 1636TIP3    H2 4852   0.006   4.094   2.093  1.3090 -0.4027  0.7544
 1637TIP3   OH2 4853   7.707   5.315   2.143  0.0968  0.4426  0.2380
 1637TIP3    H1 4854   7.680   5.339   2.232  1.4735  0.8182  0.5853
 1637TIP3    H2 4855   7.752   5.231   2.154  0.2560  0.4828 -0.0987
 1638TIP3   OH2 4856   0.069   3.591   5.810  0.4289  0.1415  0.5444
 1638TIP3    H1 4857  -0.000   3.627   5.755 -0.2115 -1.5150  0.2115
 1638TIP3    H2 4858   0.108   3.522   5.757  1.0882 -0.2036  1.4539
 1639TIP3   OH2 4859   4.529   0.809   1.290 -0.5422 -0.1417 -0.2934
 1639TIP3    H1 4860   4.452   0.863   1.312 -0.2822  1.2470 -2.4867
 1639TIP3    H2 4861   4.604   0.864   1.313 -0.2364 -0.5487 -0.3090
 1640TIP3   OH2 4862   2.935   3.598   3.361  0.6431 -0.1107  0.6463
 1640TIP3    H1 4863   2.920   3.660   3.290  1.2129 -1.4174 -0.6475
 1640TIP3    H2 4864   3.028   3.577   3.355  0.4048 -1.3036  0.8902
 1641TIP3   OH2 4865   5.599   3.453   6.437  0.6637 -0.3205  0.3186
 1641TIP3    H1 4866   5.671   3.516   6.446  0.6232 -0.3026  0.5208
 1641TIP3    H2 4867   5.642   3.368   6.437  0.6357 -0.3427  1.1041
 1642TIP3   OH2 4868   8.037   1.355   1.871  0.4840 -0.4907  0.1893
 1642TIP3    H1 4869   8.048   1.279   1.928 -0.4997 -1.1100 -0.4005
 1642TIP3    H2 4870   8.111   1.351   1.811  0.7473 -0.6571  0.5198
 1643TIP3   OH2 4871   7.546   1.935   5.724 -0.1564  0.5127 -0.6258
 1643TIP3    H1 4872   7.600   1.879   5.780  0.7221  0.7419 -1.2142
 1643TIP3    H2 4873   7.456   1.910   5.744  0.2058 -1.4764 -1.2186
 1644TIP3   OH2 4874   8.128   1.173   2.246  0.0968 -0.1987 -0.1845
 1644TIP3    H1 4875   8.108   1.125   2.166 -1.9609  2.6827 -1.5482
 1644TIP3    H2 4876   8.223   1.162   2.257  0.3182 -1.2837 -2.5866
 1645TIP3   OH2 4877   2.730   4.570   4.015  0.0210 -0.3548  0.0454
 1645TIP3    H1 4878   2.704   4.634   3.949 -1.6229 -1.2633 -0.2587
 1645TIP3    H2 4879   2.717   4.616   4.098  4.4928  1.6824 -0.1228
 1646TIP3   OH2 4880   7.005   3.629   4.150  0.0502 -0.4562 -0.1060
 1646TIP3    H1 4881   7.094   3.601   4.128 -0.3510 -0.6003 -1.6375
 1646TIP3    H2 4882   7.004   3.723   4.133  0.5295  0.0291  2.1453
 1647TIP3   OH2 4883   6.124   2.616   1.894  0.2771 -0.5547 -0.9364
 1647TIP3    H1 4884   6.180   2.662   1.956  0.0256 -1.6271  0.1290
 1647TIP3    H2 4885   6.152   2.524   1.901 -2.1276 -1.2760  0.2442
 1648TIP3   OH2 4886   6.892   1.479   5.041  0.1151  0.2173  0.1686
 1648TIP3    H1 4887   6.816   1.435   5.003  0.1003  0.9254 -0.6575
 1648TIP3    H2 4888   6.929   1.529   4.969  0.1076  1.5878  1.0716
 1649TIP3   OH2 4889   1.057   7.131   2.951 -0.3947 -0.2714 -0.1625
 1649TIP3    H1 4890   0.998   7.147   3.024  1.1962  0.0003  1.1257
 1649TIP3    H2 4891   1.016   7.175   2.877 -2.6468 -1.5427  0.2280
 1650TIP3   OH2 4892   2.012   6.643   2.432 -0.3365 -0.0959  0.2386
 1650TIP3    H1 4893   1.922   6.613   2.424  0.2749 -2.6384  1.8526
 1650TIP3    H2 4894   2.009   6.708   2.502 -0.8948 -0.3185  0.4298
 1651TIP3   OH2 4895   2.690   3.648   6.667  0.0503 -0.2116 -0.0022
 1651TIP3    H1 4896   2.663   3.602   6.746  0.5125 -1.1685 -0.3918
 1651TIP3    H2 4897   2.610   3.688   6.633  0.2041  2.2529  2.2196
 1652TIP3   OH2 4898   1.062   5.583   5.323  0.0264 -0.1378 -0.7549
 1652TIP3    H1 4899   1.109   5.502   5.303 -1.7875 -1.5580  0.4200
 1652TIP3    H2 4900   1.121   5.632   5.381 -0.0686 -2.0943  1.0852
 1653TIP3   OH2 4901   0.760   6.478   5.464 -0.0788 -0.1454  0.3866
 1653TIP3    H1 4902   0.665   6.478   5.453  0.0457 -0.3345 -0.7698
 1653TIP3    H2 4903   0.786   6.570   5.458 -0.0692 -0.1984 -0.5064
 1654TIP3   OH2 4904   1.203   2.388   4.525  0.3302  0.2381  0.8583
 1654TIP3    H1 4905   1.291   2.403   4.492 -0.9797  1.5157 -2.4880
 1654TIP3    H2 4906   1.201   2.295   4.548  1.5025 -0.9212 -2.9899
 1655TIP3   OH2 4907   5.911   3.531   0.838  0.4763 -0.1942  0.1090
 1655TIP3    H1 4908   5.841   3.484   0.793  1.2343 -1.9407  0.6434
 1655TIP3    H2 4909   5.899   3.622   0.814 -0.3187 -0.8041 -2.0316
 1656TIP3   OH2 4910   1.339   0.879   2.754  0.2153  0.3546 -0.2394
 1656TIP3    H1 4911   1.363   0.870   2.662 -1.8545  0.6443 -0.8686
 1656TIP3    H2 4912   1.279   0.954   2.756 -0.3231 -0.0843  1.2212
 1657TIP3   OH2 4913   7.964   4.074   1.994  0.0843  0.4934  0.7398
 1657TIP3    H1 4914   7.870   4.058   1.996  0.3063 -0.8683  1.3398
 1657TIP3    H2 4915   8.001   4.011   2.056  1.3881  1.0299  0.5481
 1658TIP3   OH2 4916   8.176   4.492   1.329  0.3255 -0.2133  0.5220
 1658TIP3    H1 4917   8.117   4.487   1.254  0.0245  0.0251  0.7400
 1658TIP3    H2 4918   8.261   4.467   1.295  0.0092 -1.0303  0.3024
 1659TIP3   OH2 4919   5.184   3.629   6.223 -0.2529  0.0989  0.2525
 1659TIP3    H1 4920   5.211   3.643   6.132 -0.8726 -1.1057 -0.1321
 1659TIP3    H2 4921   5.220   3.543   6.246  0.6534  0.7670  1.4495
 1660TIP3   OH2 4922   8.030   7.060   2.812  0.0467 -0.3323  0.1260
 1660TIP3    H1 4923   8.097   7.052   2.879 -1.1535 -1.2722  1.2764
 1660TIP3    H2 4924   7.964   7.118   2.851 -0.5220 -0.6418 -0.3587
 1661TIP3   OH2 4925   0.453   4.659   0.382  0.1442 -0.7660 -0.3609
 1661TIP3    H1 4926   0.424   4.748   0.400  1.2335  0.5078 -4.0468
 1661TIP3    H2 4927   0.415   4.637   0.298  2.1465 -2.6896 -0.8792
 1662TIP3   OH2 4928   4.334   0.646   3.380 -0.8021 -0.3298 -0.1256
 1662TIP3    H1 4929   4.395   0.578   3.408 -1.0178 -1.1239 -1.4805
 1662TIP3    H2 4930   4.386   0.702   3.322 -1.0718 -0.3830 -0.4254
 1663TIP3   OH2 4931   4.475   0.305   1.847 -0.1599 -0.1791 -0.4638
 1663TIP3    H1 4932   4.413   0.308   1.920  0.2698 -0.9288 -0.0532
 1663TIP3    H2 4933   4.443   0.233   1.793  2.4220 -3.2702  1.7290
 1664TIP3   OH2 4934   6.774   2.022   2.924  0.0387 -0.6719 -0.3552
 1664TIP3    H1 4935   6.798   1.930   2.937  1.4594 -0.1356  1.1877
 1664TIP3    H2 4936   6.709   2.039   2.991 -0.8735 -0.7537 -1.2014
 1665TIP3   OH2 4937   3.286   5.690   6.575 -0.2197 -0.2511  0.6621
 1665TIP3    H1 4938   3.359   5.637   6.545 -0.3999 -0.6720  0.9678
 1665TIP3    H2 4939   3.295   5.772   6.526 -0.4666 -0.8923 -0.4770
 1666TIP3   OH2 4940   3.802   2.996   3.585  0.3382  0.1710 -0.5276
 1666TIP3    H1 4941   3.778   3.076   3.632  1.0015  2.2258 -3.3758
 1666TIP3    H2 4942   3.889   2.974   3.618 -0.2189  0.0682  0.9178
 1667TIP3   OH2 4943   2.146   4.101   1.476 -0.0810  0.8994 -0.1420
 1667TIP3    H1 4944   2.070   4.155   1.498 -1.4780 -0.9989 -0.0631
 1667TIP3    H2 4945   2.219   4.143   1.522 -1.4423  1.6732  1.4302
 1668TIP3   OH2 4946   2.946   2.667   6.497 -0.3258 -0.2951  0.2525
 1668TIP3    H1 4947   2.896   2.670   6.416 -0.8580  0.5800  0.5990
 1668TIP3    H2 4948   2.880   2.653   6.565 -0.0887  0.6193  0.6894
 1669TIP3   OH2 4949   7.975   3.340   4.863  0.2182 -0.5282  0.4021
 1669TIP3    H1 4950   7.936   3.268   4.912 -0.2902  0.1188  0.9744
 1669TIP3    H2 4951   7.974   3.311   4.772  2.0376 -2.1409  0.8375
 1670TIP3   OH2 4952   1.211   2.683   2.021 -0.2843 -0.5974  0.2230
 1670TIP3    H1 4953   1.276   2.631   1.974 -0.2633  1.3574 -2.1202
 1670TIP3    H2 4954   1.243   2.688   2.111  0.7507 -2.8264  0.0370
 1671TIP3   OH2 4955   1.029   3.161   3.898 -0.0836  0.5329  0.5040
 1671TIP3    H1 4956   1.089   3.221   3.944 -0.2119  0.1096  1.2407
 1671TIP3    H2 4957   0.996   3.212   3.825  0.7505  0.9634  0.4148
 1672TIP3   OH2 4958   2.157   2.566   3.684 -0.3808  0.5457  0.3715
 1672TIP3    H1 4959   2.130   2.652   3.716  0.5938  0.8867  0.3105
 1672TIP3    H2 4960   2.245   2.580   3.650 -0.9084 -0.0827 -1.3230
 1673TIP3   OH2 4961   7.577   4.545   2.272 -0.4294 -0.2991  0.0832
 1673TIP3    H1 4962   7.604   4.557   2.363 -0.8689 -2.4420  0.5645
 1673TIP3    H2 4963   7.511   4.612   2.257  1.6449  1.9729  0.3724
 1674TIP3   OH2 4964   6.147   4.143   4.997  0.3690 -0.0991  0.3234
 1674TIP3    H1 4965   6.135   4.222   4.944 -1.0326 -0.9448 -0.6905
 1674TIP3    H2 4966   6.121   4.169   5.085  1.5641  1.0022  0.3867
 1675TIP3   OH2 4967   7.121   0.036   2.998  0.1642  0.1235 -0.1055
 1675TIP3    H1 4968   7.041   0.049   2.946  1.5889 -2.1188 -3.2174
 1675TIP3    H2 4969   7.092  -0.013   3.075 -1.5303 -0.5453 -1.1120
 1676TIP3   OH2 4970   7.187   6.335   2.383 -0.1003 -0.3615 -0.5276
 1676TIP3    H1 4971   7.134   6.261   2.353  0.2187 -0.5929 -0.5293
 1676TIP3    H2 4972   7.261   6.294   2.427 -0.2541 -0.0300  0.0395
 1677TIP3   OH2 4973   6.536   3.502   4.194  0.5637 -0.5474  0.1323
 1677TIP3    H1 4974   6.542   3.592   4.224  0.3335 -0.0870 -1.1125
 1677TIP3    H2 4975   6.620   3.486   4.150  1.6318 -1.8050  2.4804
 1678TIP3   OH2 4976   0.306   7.399   1.453  0.3903  0.1751 -0.0473
 1678TIP3    H1 4977   0.332   7.321   1.403  0.4289  0.1805 -0.0350
 1678TIP3    H2 4978   0.248   7.446   1.394  1.4793  0.8589 -0.5999
 1679TIP3   OH2 4979   1.313   6.905   5.708 -0.1497 -1.0978 -0.5581
 1679TIP3    H1 4980   1.353   6.889   5.794 -0.0676 -0.6513 -0.5098
 1679TIP3    H2 4981   1.272   6.990   5.717  1.7364  0.0030 -1.6321
 1680TIP3   OH2 4982   0.354   2.929   2.689  0.2523  0.2635 -0.3712
 1680TIP3    H1 4983   0.408   2.855   2.718  0.3875  0.3350 -0.4405
 1680TIP3    H2 4984   0.283   2.889   2.640 -1.1608 -0.0350  1.8143
 1681TIP3   OH2 4985   4.570   1.313   0.704 -0.1837  0.9906  0.0572
 1681TIP3    H1 4986   4.561   1.362   0.786 -0.2717  0.0142  0.6444
 1681TIP3    H2 4987   4.662   1.284   0.705  0.7845  3.5762 -1.7141
 1682TIP3   OH2 4988   5.362   3.113   4.745  0.3041  0.2162 -0.8259
 1682TIP3    H1 4989   5.298   3.172   4.706 -0.3366  0.4052  0.4737
 1682TIP3    H2 4990   5.400   3.163   4.817 -0.0977 -0.8651  0.1669
 1683TIP3   OH2 4991   7.535   0.952   0.488 -0.2064  0.5328  0.1736
 1683TIP3    H1 4992   7.538   1.044   0.464 -0.0523  0.5004  0.0698
 1683TIP3    H2 4993   7.626   0.923   0.486 -0.3427  0.0941 -0.9209
 1684TIP3   OH2 4994   7.446   2.028   0.035 -0.0447  0.3954 -0.4523
 1684TIP3    H1 4995   7.538   2.052   0.025  0.1202  0.0979  0.2902
 1684TIP3    H2 4996   7.420   2.070   0.117  0.1500 -1.6065  0.6936
 1685TIP3   OH2 4997   5.055   3.847   5.640 -0.0586 -0.9847  0.3093
 1685TIP3    H1 4998   5.086   3.929   5.600  0.5560  0.2794  3.1343
 1685TIP3    H2 4999   5.019   3.797   5.566  0.5121  1.3514 -1.7048
 1686TIP3   OH2 5000   1.679   0.702   3.330 -0.2235 -0.4106  0.5770
 1686TIP3    H1 5001   1.651   0.668   3.245 -0.0964 -0.0152  0.3712
 1686TIP3    H2 5002   1.656   0.633   3.393 -0.2191 -0.7526  0.2083
 1687TIP3   OH2 5003   0.365   2.710   5.948 -0.3848  0.7139  0.2407
 1687TIP3    H1 5004   0.401   2.721   6.036 -2.1044  1.1644  0.9227
 1687TIP3    H2 5005   0.442   2.701   5.892  0.7486 -1.6021  2.0195
 1688TIP3   OH2 5006   1.278   3.382   0.608 -0.0166 -0.1493  0.2015
 1688TIP3    H1 5007   1.284   3.408   0.515  0.9686  0.5397  0.4360
 1688TIP3    H2 5008   1.306   3.461   0.656 -1.1291 -0.2928  1.1130
 1689TIP3   OH2 5009   6.085   3.869   1.041  0.1413 -0.3027 -0.1655
 1689TIP3    H1 5010   6.039   3.881   0.959  0.5998 -0.4359 -0.4452
 1689TIP3    H2 5011   6.176   3.890   1.021  0.4522 -1.3864  0.0366
 1690TIP3   OH2 5012   3.143   1.630   0.213  0.0298  0.7148  0.3143
 1690TIP3    H1 5013   3.137   1.550   0.266  1.6414  1.0674  1.0865
 1690TIP3    H2 5014   3.052   1.659   0.203 -0.6322 -1.3655 -0.2595
 1691TIP3   OH2 5015   1.115   3.722   0.021 -0.2113 -0.1739 -0.1467
 1691TIP3    H1 5016   1.147   3.745   0.108 -0.4743  0.5398 -0.2286
 1691TIP3    H2 5017   1.023   3.697   0.035 -0.3012  0.1015 -0.2383
 1692TIP3   OH2 5018   7.405   3.403   2.121 -0.6228 -0.1696 -0.1346
 1692TIP3    H1 5019   7.426   3.374   2.032 -0.5607 -0.8555  0.1016
 1692TIP3    H2 5020   7.464   3.353   2.177 -0.9195 -0.0142  0.3213
 1693TIP3   OH2 5021   4.856   0.530   4.379  0.0642  0.2742  0.2127
 1693TIP3    H1 5022   4.771   0.497   4.350  0.5264 -1.4657  0.7440
 1693TIP3    H2 5023   4.861   0.505   4.472 -0.1347  3.1278  1.0907
 1694TIP3   OH2 5024   4.295   0.964   4.534  0.5479 -0.2084 -0.5645
 1694TIP3    H1 5025   4.204   0.965   4.505  0.4009  0.8815 -0.1379
 1694TIP3    H2 5026   4.346   0.980   4.455  0.4836 -2.3189 -1.0711
 1695TIP3   OH2 5027   7.484   4.867   0.102  0.5198  0.1886  0.5384
 1695TIP3    H1 5028   7.536   4.790   0.124 -0.3852 -0.7143 -0.3763
 1695TIP3    H2 5029   7.514   4.935   0.163  0.6777 -1.1432  1.9994
 1696TIP3   OH2 5030   8.232   0.973   1.024 -0.2630 -0.9574  0.2907
 1696TIP3    H1 5031   8.144   0.964   0.987 -0.4863 -0.8964  0.7925
 1696TIP3    H2 5032   8.239   1.067   1.045 -0.3621 -1.0848  0.9257
 1697TIP3   OH2 5033   1.463   4.684   6.140  0.1087 -0.3266 -0.5126
 1697TIP3    H1 5034   1.546   4.635   6.144 -0.1154 -0.7016 -0.4523
 1697TIP3    H2 5035   1.462   4.721   6.052  0.7456  0.3986 -0.2328
 1698TIP3   OH2 5036   0.803   3.741   2.038 -0.6777  0.7574 -0.3312
 1698TIP3    H1 5037   0.725   3.721   1.987  0.2878  0.7028 -1.8501
 1698TIP3    H2 5038   0.819   3.834   2.021  0.0408  0.5729 -0.7026
 1699TIP3   OH2 5039   7.806   0.754   1.883  0.5104  0.2688  0.2807
 1699TIP3    H1 5040   7.860   0.831   1.900  1.4708 -0.5861  1.2588
 1699TIP3    H2 5041   7.831   0.726   1.795  0.9032  0.4918  0.3201
 1700TIP3   OH2 5042   6.238   6.007   0.240  0.3544 -0.6781  0.0568
 1700TIP3    H1 5043   6.193   5.982   0.160  0.1262  0.6669 -0.2645
 1700TIP3    H2 5044   6.198   6.090   0.266  0.8095 -0.8057  1.2545
 1701TIP3   OH2 5045   3.066   0.687   3.742 -0.9472 -0.0792 -1.3567
 1701TIP3    H1 5046   3.068   0.595   3.770 -2.0767  0.9591  2.8047
 1701TIP3    H2 5047   3.133   0.729   3.795 -2.4251  1.9496 -0.9776
 1702TIP3   OH2 5048   5.044   1.292   4.161 -0.0291 -0.2045  0.8801
 1702TIP3    H1 5049   5.034   1.384   4.138 -1.6443 -0.3568  0.8294
 1702TIP3    H2 5050   5.119   1.262   4.111 -0.3892  0.7237 -0.2590
 1703TIP3   OH2 5051   4.556   4.104   4.965 -0.2630  0.4807 -0.3024
 1703TIP3    H1 5052   4.577   4.041   5.033  0.9349 -1.4419 -2.3219
 1703TIP3    H2 5053   4.570   4.190   5.006  1.0181 -0.6040  1.6562
 1704TIP3   OH2 5054   7.475   1.036   3.334 -0.2300 -0.1599 -0.0589
 1704TIP3    H1 5055   7.466   1.123   3.296 -0.2969 -0.8885 -1.8472
 1704TIP3    H2 5056   7.395   0.990   3.309  0.0967 -0.9312  0.2653
 1705TIP3   OH2 5057   1.834   6.800   3.831  0.6422  0.4670  0.1779
 1705TIP3    H1 5058   1.882   6.870   3.874 -0.7034  1.7195 -0.2836
 1705TIP3    H2 5059   1.747   6.837   3.815  0.3421 -0.8134 -1.3544
 1706TIP3   OH2 5060   2.277   4.258   5.606 -0.2308 -0.0589 -0.1037
 1706TIP3    H1 5061   2.337   4.329   5.630 -0.9434  0.0257  1.6227
 1706TIP3    H2 5062   2.202   4.302   5.565 -0.8749  0.2814  1.3715
 1707TIP3   OH2 5063   2.865   6.788   3.626 -0.2895 -0.0822  0.1935
 1707TIP3    H1 5064   2.864   6.710   3.682 -0.0037 -1.1471 -1.2260
 1707TIP3    H2 5065   2.901   6.857   3.682 -1.0954 -0.8036  1.6682
 1708TIP3   OH2 5066   6.820   1.688   5.225 -0.2472  0.0164  0.1093
 1708TIP3    H1 5067   6.810   1.628   5.152 -1.0105 -1.1403  1.1201
 1708TIP3    H2 5068   6.788   1.639   5.301 -0.7355  1.6455  1.0042
 1709TIP3   OH2 5069   0.221   3.005   2.215  0.3205  0.2938 -0.5382
 1709TIP3    H1 5070   0.153   3.071   2.228  1.1121  1.2913 -1.3609
 1709TIP3    H2 5071   0.189   2.928   2.264 -1.5071  0.6384 -1.1243
 1710TIP3   OH2 5072   8.081   6.690   3.657 -0.2982 -0.3338 -0.4645
 1710TIP3    H1 5073   8.140   6.718   3.726 -0.8285 -1.0668  0.3013
 1710TIP3    H2 5074   8.017   6.761   3.650  0.6912  0.5068 -1.3632
 1711TIP3   OH2 5075   1.565   0.401   2.176  0.2003 -0.3672 -0.6125
 1711TIP3    H1 5076   1.474   0.391   2.204 -0.3420  1.2386 -1.6955
 1711TIP3    H2 5077   1.611   0.432   2.254 -0.9217  2.2692 -0.8895
 1712TIP3   OH2 5078   2.309   2.384   1.651 -0.2387  0.1884  1.0501
 1712TIP3    H1 5079   2.235   2.330   1.624 -1.3962  1.1394  2.1835
 1712TIP3    H2 5080   2.319   2.448   1.579  0.2806 -0.6679  0.3381
 1713TIP3   OH2 5081   5.626   3.839   2.018  0.6647 -0.5593  0.3686
 1713TIP3    H1 5082   5.642   3.924   2.058 -0.9568 -1.2139  2.6140
 1713TIP3    H2 5083   5.665   3.776   2.078 -0.7280 -1.5337  0.3099
 1714TIP3   OH2 5084   2.144   4.317   3.930  0.3672 -0.3194 -0.1508
 1714TIP3    H1 5085   2.128   4.318   3.835 -0.3956 -0.3166 -0.0297
 1714TIP3    H2 5086   2.063   4.351   3.968  0.2236 -1.3842  0.5482
 1715TIP3   OH2 5087   4.784   2.430   1.733  0.7483  0.0789  0.1285
 1715TIP3    H1 5088   4.764   2.520   1.710  0.5997  0.4096  1.4944
 1715TIP3    H2 5089   4.832   2.436   1.815 -0.3165 -1.1481  0.8760
 1716TIP3   OH2 5090   4.646   6.163   1.136 -0.2166  0.5409  0.2350
 1716TIP3    H1 5091   4.633   6.189   1.045 -1.5847 -0.8915 -0.0226
 1716TIP3    H2 5092   4.710   6.092   1.131  1.5368  1.9974  0.6808
 1717TIP3   OH2 5093   7.996   1.281   4.066 -0.3724 -0.1608 -0.0129
 1717TIP3    H1 5094   7.950   1.199   4.081  1.6144 -1.7231 -1.8357
 1717TIP3    H2 5095   8.085   1.255   4.039  0.3152  2.5677 -0.7322
 1718TIP3   OH2 5096   6.042   1.086   2.236  0.7926 -0.0671 -0.2773
 1718TIP3    H1 5097   6.117   1.121   2.283 -0.4231 -1.7232  3.1782
 1718TIP3    H2 5098   5.967   1.134   2.271 -0.1806 -1.3793 -0.4795
 1719TIP3   OH2 5099   2.883   0.896   1.390  0.1231 -0.3877 -0.3229
 1719TIP3    H1 5100   2.971   0.881   1.425  0.9835 -0.5531 -2.4142
 1719TIP3    H2 5101   2.886   0.983   1.350 -1.1339  0.2348  0.8430
 1720TIP3   OH2 5102   5.605   1.369   0.488 -0.1538  0.0094 -0.5163
 1720TIP3    H1 5103   5.613   1.390   0.395 -1.1106 -0.8478 -0.8087
 1720TIP3    H2 5104   5.691   1.335   0.512  0.6651  1.8483 -0.6255
 1721TIP3   OH2 5105   5.769   0.656   4.588  0.3865  0.2207  0.0524
 1721TIP3    H1 5106   5.818   0.730   4.553  1.9420 -0.6714  0.2832
 1721TIP3    H2 5107   5.806   0.579   4.544  0.0312 -0.5978  1.1245
 1722TIP3   OH2 5108   7.495   6.459   2.345  0.7925  0.3934  0.0715
 1722TIP3    H1 5109   7.480   6.468   2.439  0.1942  0.3291 -0.0180
 1722TIP3    H2 5110   7.491   6.365   2.328  1.8627  0.3277  0.1382
 1723TIP3   OH2 5111   6.957   2.446   5.114 -0.3474  0.3842 -0.5166
 1723TIP3    H1 5112   6.980   2.461   5.205  2.0152 -1.9554 -0.6151
 1723TIP3    H2 5113   7.040   2.449   5.067 -1.3431  0.1901 -2.3874
 1724TIP3   OH2 5114   7.813   4.196   4.257  0.3702  0.0534  0.4001
 1724TIP3    H1 5115   7.893   4.194   4.205  2.0049 -1.5530  2.7510
 1724TIP3    H2 5116   7.828   4.263   4.324 -0.6735  0.3961  0.3223
 1725TIP3   OH2 5117   0.677   6.692   4.345  0.9715  0.0585 -0.2462
 1725TIP3    H1 5118   0.693   6.725   4.433 -1.9102 -1.0621  0.8296
 1725TIP3    H2 5119   0.705   6.600   4.349 -0.0705 -0.2656 -0.1659
 1726TIP3   OH2 5120   4.397   2.645   6.519 -0.0964 -0.8705  0.4602
 1726TIP3    H1 5121   4.357   2.562   6.544  0.6750 -1.2234  0.5443
 1726TIP3    H2 5122   4.491   2.633   6.536 -0.3125  1.2472  4.0562
 1727TIP3   OH2 5123   5.371   1.313   2.515 -0.2942  0.1187 -0.0395
 1727TIP3    H1 5124   5.381   1.218   2.524  0.4442 -0.0816 -2.3007
 1727TIP3    H2 5125   5.449   1.349   2.557  0.4643 -0.4199 -0.9424
 1728TIP3   OH2 5126   5.336   1.639   1.383  0.1904  0.7535  0.2406
 1728TIP3    H1 5127   5.351   1.630   1.477 -0.9469 -1.1068  0.2911
 1728TIP3    H2 5128   5.414   1.599   1.343 -0.2736 -0.3795  0.4304
 1729TIP3   OH2 5129   0.323   4.481   1.387  1.0073  0.3941 -0.6333
 1729TIP3    H1 5130   0.396   4.443   1.337  1.6648 -0.3035  0.8078
 1729TIP3    H2 5131   0.246   4.460   1.335  1.2488 -3.5336  0.2774
 1730TIP3   OH2 5132   2.970   0.326   3.599 -0.0723 -0.5267  0.1038
 1730TIP3    H1 5133   2.999   0.295   3.685  2.2240  0.3811 -0.2686
 1730TIP3    H2 5134   3.008   0.413   3.591 -2.2438  0.4014 -0.8987
 1731TIP3   OH2 5135   2.471   6.415   4.182 -0.3733 -0.0265  0.0158
 1731TIP3    H1 5136   2.391   6.365   4.164 -0.4431  0.2720 -0.5246
 1731TIP3    H2 5137   2.439   6.499   4.216 -0.3715  0.6627 -1.5562
 1732TIP3   OH2 5138   7.005   6.380   2.893 -0.2678  0.2792 -0.3194
 1732TIP3    H1 5139   7.068   6.378   2.821  0.7883  0.3464  0.5714
 1732TIP3    H2 5140   6.982   6.473   2.902  0.3421  0.4052  0.0340
 1733TIP3   OH2 5141   3.235   0.835   3.057  0.4857  0.0855  0.1324
 1733TIP3    H1 5142   3.246   0.787   3.139  2.3311  0.9736  0.4535
 1733TIP3    H2 5143   3.184   0.776   3.001  1.3896 -1.6122  1.0257
 1734TIP3   OH2 5144   8.022   3.656   3.629  0.2676  0.0194  0.6594
 1734TIP3    H1 5145   8.015   3.743   3.590 -3.5942 -1.3393 -2.3602
 1734TIP3    H2 5146   8.096   3.616   3.584  0.7093  0.9993  0.4784
 1735TIP3   OH2 5147   8.205   0.959   2.033 -0.2988  0.1228  0.3642
 1735TIP3    H1 5148   8.270   0.976   2.101 -0.0713  0.2066  0.1267
 1735TIP3    H2 5149   8.162   0.878   2.061 -0.5186  0.4023  0.8429
 1736TIP3   OH2 5150   6.602   7.490   2.772 -0.4019 -0.3195  0.0690
 1736TIP3    H1 5151   6.534   7.555   2.789 -0.4358 -0.2055 -0.4930
 1736TIP3    H2 5152   6.563   7.431   2.707  0.5521  0.5791 -1.3528
 1737TIP3   OH2 5153   5.045   3.938   1.412  0.5195 -0.4005  0.8340
 1737TIP3    H1 5154   4.982   4.010   1.419 -0.3129 -1.1569  1.3763
 1737TIP3    H2 5155   5.080   3.945   1.323  0.2918  0.5344  0.8033
 1738TIP3   OH2 5156   7.023   0.648   4.831  0.4862 -0.4710  0.0043
 1738TIP3    H1 5157   7.016   0.554   4.814 -0.4232 -0.1692 -1.4711
 1738TIP3    H2 5158   6.957   0.666   4.898  0.3354 -0.8066 -0.0527
 1739TIP3   OH2 5159   1.935   7.527   3.393  0.1177  0.1530 -0.3746
 1739TIP3    H1 5160   1.953   7.442   3.431  2.0161 -0.2627 -2.0149
 1739TIP3    H2 5161   1.866   7.510   3.328  0.5370 -0.1767 -0.7440
 1740TIP3   OH2 5162   0.985   5.443   3.906 -0.4296 -0.5661  0.2026
 1740TIP3    H1 5163   1.001   5.515   3.844 -0.8043 -0.5892  0.0769
 1740TIP3    H2 5164   1.044   5.461   3.979 -0.6215 -0.0516  0.2360
 1741TIP3   OH2 5165   2.129   4.637   2.281  0.2028  0.5738  0.3566
 1741TIP3    H1 5166   2.179   4.594   2.211 -1.2678  1.2431 -1.1829
 1741TIP3    H2 5167   2.064   4.572   2.307 -0.6740  1.0897 -0.4939
 1742TIP3   OH2 5168   4.066   0.266   5.663 -0.2929 -0.4487 -0.3938
 1742TIP3    H1 5169   4.080   0.175   5.688  2.2126 -0.2130 -0.7291
 1742TIP3    H2 5170   4.138   0.314   5.704 -0.8461  1.1866 -1.2582
 1743TIP3   OH2 5171   5.086   3.146   3.947 -0.1159 -0.2773  0.2971
 1743TIP3    H1 5172   5.038   3.088   4.007  0.9410  0.5145  1.9889
 1743TIP3    H2 5173   5.084   3.231   3.990  0.2839  0.4269 -1.0505
 1744TIP3   OH2 5174   0.118   7.063   1.234  0.3099  0.1580  0.1597
 1744TIP3    H1 5175   0.047   6.999   1.227 -0.4166  1.0049 -0.3164
 1744TIP3    H2 5176   0.075   7.145   1.256  0.9545  1.0391 -1.6976
 1745TIP3   OH2 5177   5.444   6.936   2.812 -0.1268  0.4793 -0.3510
 1745TIP3    H1 5178   5.469   6.956   2.722  0.8065  1.5018  0.1099
 1745TIP3    H2 5179   5.450   6.841   2.819 -0.7978  0.3403 -1.5254
 1746TIP3   OH2 5180   8.107   0.663   4.151  0.3160  0.3921 -0.0983
 1746TIP3    H1 5181   8.071   0.742   4.111 -1.1795 -1.8258 -3.7514
 1746TIP3    H2 5182   8.200   0.682   4.163  0.2382  2.3652 -1.9161
 1747TIP3   OH2 5183   2.448   0.733   2.936  0.1737  0.1248  0.5695
 1747TIP3    H1 5184   2.493   0.784   3.003  2.5436  0.3831 -1.0495
 1747TIP3    H2 5185   2.437   0.794   2.863 -1.9475 -0.2568  0.5239
 1748TIP3   OH2 5186   6.305   0.288   4.611 -0.0282 -0.3488 -0.0541
 1748TIP3    H1 5187   6.328   0.280   4.519  1.1782  1.0286  0.0950
 1748TIP3    H2 5188   6.332   0.204   4.650  0.7417 -0.4044 -0.6978
 1749TIP3   OH2 5189   5.444   2.654   1.602 -0.2007 -1.2270  0.0798
 1749TIP3    H1 5190   5.355   2.686   1.617  0.3962 -0.2283  1.7827
 1749TIP3    H2 5191   5.478   2.708   1.531 -0.2676 -0.1674  0.8317
 1750TIP3   OH2 5192   5.175   6.219   0.661 -0.2430 -0.0196 -0.0260
 1750TIP3    H1 5193   5.083   6.232   0.639 -0.2609 -2.3513 -1.6589
 1750TIP3    H2 5194   5.190   6.125   0.651  1.9078 -0.0112  1.9886
 1751TIP3   OH2 5195   3.628   4.029   5.483 -0.5855  0.2223 -0.3707
 1751TIP3    H1 5196   3.716   4.028   5.446 -0.5161  0.9398 -0.2328
 1751TIP3    H2 5197   3.574   4.069   5.415 -0.4290  1.6859  0.3394
 1752TIP3   OH2 5198   3.542   0.847   5.493 -0.5847 -1.0156  0.2472
 1752TIP3    H1 5199   3.546   0.905   5.417 -2.4051 -1.6603 -0.4156
 1752TIP3    H2 5200   3.503   0.900   5.563 -1.4431 -1.1548 -0.1053
 1753TIP3   OH2 5201   2.954   7.492   2.051 -0.1657  0.6370 -0.3609
 1753TIP3    H1 5202   2.921   7.476   2.139 -0.9072  1.6845 -0.4220
 1753TIP3    H2 5203   3.001   7.575   2.058  0.4153  0.3509 -0.7979
 1754TIP3   OH2 5204   4.943   0.341   6.301 -0.0655  0.1931 -0.4262
 1754TIP3    H1 5205   4.935   0.389   6.219 -1.6957  1.6004  0.4877
 1754TIP3    H2 5206   4.987   0.403   6.360 -0.9203  0.0556  0.3731
 1755TIP3   OH2 5207   0.365   5.039   2.230  0.3092  0.2109  0.6961
 1755TIP3    H1 5208   0.328   5.121   2.262 -0.6818  0.1906 -0.2966
 1755TIP3    H2 5209   0.316   4.971   2.277 -1.8425  0.1641 -1.4319
 1756TIP3   OH2 5210   3.963   2.693   6.460  0.4905  0.3261  0.1092
 1756TIP3    H1 5211   4.027   2.697   6.389  0.6804  2.3790  0.3404
 1756TIP3    H2 5212   3.932   2.783   6.469  0.2174  0.0515  2.4206
 1757TIP3   OH2 5213   3.133   2.552   5.694  0.5294  0.3736  0.4498
 1757TIP3    H1 5214   3.077   2.488   5.738  0.1809  0.5523  0.2700
 1757TIP3    H2 5215   3.177   2.598   5.765 -0.5716  1.1545  0.6471
 1758TIP3   OH2 5216   1.576   6.051   4.508 -0.1050 -0.5457 -0.3040
 1758TIP3    H1 5217   1.619   6.073   4.425 -1.3613  1.6196 -0.4741
 1758TIP3    H2 5218   1.560   6.136   4.549 -1.6054 -1.4417  1.0617
 1759TIP3   OH2 5219   3.095   6.555   2.518 -0.1829  0.2008 -0.0189
 1759TIP3    H1 5220   3.077   6.464   2.542 -0.3765  0.2938  0.1903
 1759TIP3    H2 5221   3.175   6.550   2.465 -0.0754 -0.0673  0.1641
 1760TIP3   OH2 5222   1.276   1.009   1.888 -0.2647  0.1418  0.3827
 1760TIP3    H1 5223   1.347   1.069   1.866  0.0277 -0.9335 -1.8649
 1760TIP3    H2 5224   1.294   0.931   1.837 -2.3699 -0.6551  0.7640
 1761TIP3   OH2 5225   0.239   6.430   0.049  0.1138  0.3981  0.2862
 1761TIP3    H1 5226   0.260   6.523   0.056  1.7749  0.1248 -0.5615
 1761TIP3    H2 5227   0.289   6.388   0.119  2.7085 -0.2598 -1.7614
 1762TIP3   OH2 5228   2.299   6.580   2.082 -0.3540 -0.2753 -0.0780
 1762TIP3    H1 5229   2.333   6.514   2.142  0.7158 -0.1637 -0.5379
 1762TIP3    H2 5230   2.368   6.592   2.017 -1.3485 -0.1530 -1.1517
 1763TIP3   OH2 5231   6.165   4.959   1.502  0.2462 -0.0853  0.5016
 1763TIP3    H1 5232   6.075   4.926   1.500  0.6967 -1.3203 -1.0258
 1763TIP3    H2 5233   6.158   5.047   1.465 -0.0996 -0.8922 -1.4736
 1764TIP3   OH2 5234   5.338   5.480   1.537  0.1924 -0.0967 -0.0309
 1764TIP3    H1 5235   5.418   5.526   1.512  0.2565  0.2981  0.8626
 1764TIP3    H2 5236   5.358   5.388   1.522  1.7375 -0.2503  2.5014
 1765TIP3   OH2 5237   0.828   1.900   4.690  0.1768  0.3149 -0.1107
 1765TIP3    H1 5238   0.792   1.989   4.683 -1.7460 -0.5385 -2.0500
 1765TIP3    H2 5239   0.785   1.851   4.620  1.6596 -2.0193  0.5115
 1766TIP3   OH2 5240   7.024   6.644   1.806 -0.1142  0.2657 -0.3172
 1766TIP3    H1 5241   7.077   6.715   1.771 -0.6769  0.6394 -0.4159
 1766TIP3    H2 5242   7.062   6.565   1.768  0.5983  0.4946 -0.0981
 1767TIP3   OH2 5243   6.523   1.153   3.008  0.1129  0.5109  0.0926
 1767TIP3    H1 5244   6.452   1.175   3.068 -0.1241  0.5536 -0.2030
 1767TIP3    H2 5245   6.590   1.219   3.026 -0.4136  1.2213 -0.4742
 1768TIP3   OH2 5246   2.511   0.751   3.520  0.4303 -0.2208  0.4183
 1768TIP3    H1 5247   2.603   0.724   3.520  0.0970 -1.5223  1.9109
 1768TIP3    H2 5248   2.512   0.841   3.488  2.1277 -0.4780 -0.3563
 1769TIP3   OH2 5249   0.232   5.915   6.394  0.1055 -0.4180  0.0922
 1769TIP3    H1 5250   0.183   5.994   6.416  0.8230  0.2892 -0.7412
 1769TIP3    H2 5251   0.233   5.864   6.475 -0.5537  0.3250  0.5884
 1770TIP3   OH2 5252   2.386   4.584   0.410  0.2711  0.0634 -0.2195
 1770TIP3    H1 5253   2.369   4.495   0.443  0.7041  0.7219  1.9699
 1770TIP3    H2 5254   2.301   4.613   0.376  0.5950 -1.9143 -3.0963
 1771TIP3   OH2 5255   1.382   3.334   5.797  0.0918 -0.1842 -0.1621
 1771TIP3    H1 5256   1.425   3.333   5.711  1.1607 -1.1760  0.3463
 1771TIP3    H2 5257   1.289   3.323   5.778  0.2757 -0.0009 -1.2144
 1772TIP3   OH2 5258   1.290   7.590   5.506 -0.1244 -0.2392 -0.2378
 1772TIP3    H1 5259   1.301   7.671   5.555  1.1434 -0.0146 -0.8323
 1772TIP3    H2 5260   1.372   7.541   5.522 -0.5697 -1.0789 -0.4535
 1773TIP3   OH2 5261   2.865   6.834   1.056 -0.4787 -0.0551 -0.2295
 1773TIP3    H1 5262   2.831   6.879   1.133 -0.5978 -2.0957  1.0043
 1773TIP3    H2 5263   2.958   6.822   1.075 -0.8337 -2.1306  0.5128
 1774TIP3   OH2 5264   5.777   3.385   4.901  0.3238  0.2988  0.2760
 1774TIP3    H1 5265   5.865   3.354   4.926  0.5951  0.7529 -0.0963
 1774TIP3    H2 5266   5.759   3.341   4.818 -0.3490 -0.7868  0.9816
 1775TIP3   OH2 5267   0.950   1.185   2.308 -0.1132 -0.4865  0.2651
 1775TIP3    H1 5268   0.969   1.257   2.248 -0.0553  0.2610  1.1605
 1775TIP3    H2 5269   0.989   1.212   2.391  2.7590 -2.9736 -0.1291
 1776TIP3   OH2 5270   4.979  -0.013   1.008 -0.0189  0.2521 -0.0633
 1776TIP3    H1 5271   5.015  -0.015   1.096  1.4315  3.0008 -0.4899
 1776TIP3    H2 5272   4.904   0.047   1.014 -1.2993 -1.2424 -0.3166
 1777TIP3   OH2 5273   3.043   0.988   4.499 -0.0491 -0.3172 -0.1557
 1777TIP3    H1 5274   3.092   1.009   4.579  0.5181  1.4732 -0.9208
 1777TIP3    H2 5275   2.951   1.001   4.523  0.1679  1.1065 -0.0097
 1778TIP3   OH2 5276   1.988   0.493   5.515 -0.5521  0.1046  0.5079
 1778TIP3    H1 5277   2.045   0.570   5.522 -1.9391  1.0383  3.3626
 1778TIP3    H2 5278   2.048   0.421   5.498  0.7773  1.7465 -2.6191
 1779TIP3   OH2 5279   4.681   0.341   2.136  0.1947 -0.4236 -0.3552
 1779TIP3    H1 5280   4.608   0.395   2.167 -0.7930 -2.0254  0.2689
 1779TIP3    H2 5281   4.684   0.268   2.198  1.3062 -1.2220 -1.3068
 1780TIP3   OH2 5282   8.198   5.749   4.475  0.0592 -0.1313 -0.2117
 1780TIP3    H1 5283   8.134   5.699   4.425 -0.1068  0.9729 -1.1413
 1780TIP3    H2 5284   8.263   5.777   4.411  0.3258  0.5610  0.3429
 1781TIP3   OH2 5285   1.820   3.570   6.184 -0.3254  0.2597 -0.3145
 1781TIP3    H1 5286   1.851   3.606   6.100  0.5901  0.3355  0.0468
 1781TIP3    H2 5287   1.785   3.484   6.161 -0.9071  0.6453 -0.9104
 1782TIP3   OH2 5288   4.080   6.727   6.070 -0.2646  0.3021  0.6575
 1782TIP3    H1 5289   4.054   6.696   5.984 -1.5861  0.7150  0.8870
 1782TIP3    H2 5290   4.006   6.779   6.101  1.4217  2.8661  0.7177
 1783TIP3   OH2 5291   0.518   5.648   3.342 -0.5208 -0.2332  0.1269
 1783TIP3    H1 5292   0.579   5.691   3.402 -0.7882 -0.7291  0.7661
 1783TIP3    H2 5293   0.493   5.717   3.281 -0.0105  0.2068  0.4011
 1784TIP3   OH2 5294   4.039   2.389   3.708 -0.1260 -0.3386  0.2383
 1784TIP3    H1 5295   4.035   2.479   3.676  1.5872  0.0302  0.9796
 1784TIP3    H2 5296   4.063   2.337   3.631  0.5631  0.0718  0.1745
 1785TIP3   OH2 5297   6.154   3.615   2.793  1.2002  0.0788 -0.2305
 1785TIP3    H1 5298   6.063   3.640   2.779  0.6720 -1.7221 -0.3049
 1785TIP3    H2 5299   6.200   3.697   2.809 -0.8338  0.8749  2.0939
 1786TIP3   OH2 5300   3.651   0.445   1.251 -0.4535 -0.3092 -0.7316
 1786TIP3    H1 5301   3.639   0.402   1.167 -0.5744  0.0418 -0.8940
 1786TIP3    H2 5302   3.622   0.535   1.237 -1.8058 -0.5820  0.0439
 1787TIP3   OH2 5303   2.636   7.371   3.247 -0.2537  0.7566  0.0525
 1787TIP3    H1 5304   2.567   7.337   3.190 -0.6132  0.6958  0.5192
 1787TIP3    H2 5305   2.662   7.454   3.206 -1.2355  1.2336  0.3592
 1788TIP3   OH2 5306   0.256   3.567   2.808 -0.8670  0.2327  0.2544
 1788TIP3    H1 5307   0.275   3.574   2.901  1.6005 -0.1884 -0.1282
 1788TIP3    H2 5308   0.301   3.642   2.769 -1.8569  0.3973 -0.5940
 1789TIP3   OH2 5309   0.196   7.026   2.562  0.4953  0.3850 -0.1811
 1789TIP3    H1 5310   0.232   7.114   2.551  0.0540  0.5684 -0.1561
 1789TIP3    H2 5311   0.102   7.036   2.546  0.7610 -0.5545 -2.9363
 1790TIP3   OH2 5312   4.632   2.235   4.247 -0.4597 -0.1910 -0.0847
 1790TIP3    H1 5313   4.658   2.225   4.155  1.5539 -0.7187  0.4788
 1790TIP3    H2 5314   4.571   2.163   4.262 -0.1323 -0.6396 -0.7946
 1791TIP3   OH2 5315   4.246   2.314   4.668 -0.4820  0.1564 -0.8644
 1791TIP3    H1 5316   4.326   2.334   4.619  0.8371  1.0382  1.4996
 1791TIP3    H2 5317   4.237   2.387   4.729 -1.3610 -1.4525  1.0085
 1792TIP3   OH2 5318   3.770   7.027   3.794 -0.3940  0.0556  0.1442
 1792TIP3    H1 5319   3.708   6.956   3.806 -0.0543 -0.2624  0.0535
 1792TIP3    H2 5320   3.780   7.067   3.880 -1.1229  0.4481  0.0529
 1793TIP3   OH2 5321   1.777   2.820   1.055  0.7205  0.1956 -0.2240
 1793TIP3    H1 5322   1.815   2.736   1.081 -0.6799 -0.6892 -0.9130
 1793TIP3    H2 5323   1.824   2.844   0.976  1.3164  0.2035  0.1285
 1794TIP3   OH2 5324   2.334   2.068   5.119 -0.8938 -0.4071 -0.5067
 1794TIP3    H1 5325   2.325   2.008   5.193 -1.3633  0.6944  0.3609
 1794TIP3    H2 5326   2.244   2.093   5.098 -0.7034 -0.0219 -0.8666
 1795TIP3   OH2 5327   4.197   3.329   5.022 -0.4943  0.1191  0.3919
 1795TIP3    H1 5328   4.224   3.400   5.080 -1.5218 -0.4542  1.6178
 1795TIP3    H2 5329   4.201   3.367   4.935  0.6924  1.1355  0.8458
 1796TIP3   OH2 5330   1.038   5.994   5.965  0.1461 -0.1172  0.3694
 1796TIP3    H1 5331   1.131   5.999   5.947 -0.2586 -1.0466 -2.4249
 1796TIP3    H2 5332   0.998   6.058   5.906 -1.0759 -0.9270  0.2688
 1797TIP3   OH2 5333   4.216   6.336   1.304  0.1629 -0.2783 -0.2729
 1797TIP3    H1 5334   4.291   6.298   1.258 -0.3589 -1.2811 -0.3208
 1797TIP3    H2 5335   4.155   6.359   1.234  0.1148 -0.1435 -0.1870
 1798TIP3   OH2 5336   0.202   6.112   5.685  0.4701 -0.0229 -0.4225
 1798TIP3    H1 5337   0.245   6.188   5.724  1.5035 -0.3535 -0.8863
 1798TIP3    H2 5338   0.272   6.047   5.674 -0.5540 -1.4093  0.8370
 1799TIP3   OH2 5339   1.368   6.902   6.000 -0.3326 -0.1560  0.0444
 1799TIP3    H1 5340   1.346   6.845   6.074 -0.6720 -0.1566 -0.0549
 1799TIP3    H2 5341   1.295   6.964   5.995 -0.1723  0.0213 -0.1137
 1800TIP3   OH2 5342   6.170   1.666   6.315 -0.5042 -0.3195 -0.9439
 1800TIP3    H1 5343   6.127   1.674   6.230 -0.3063 -0.2941 -1.0404
 1800TIP3    H2 5344   6.100   1.638   6.374 -1.2587  2.0639 -0.5815
 1801TIP3   OH2 5345   1.383   6.222   2.320  0.7885 -0.0064 -0.2409
 1801TIP3    H1 5346   1.389   6.216   2.415  1.8102 -1.3680 -0.3710
 1801TIP3    H2 5347   1.295   6.258   2.304 -0.5213 -2.3283  1.1558
 1802TIP3   OH2 5348   2.068   1.623   0.434  0.2746  0.1252  0.2766
 1802TIP3    H1 5349   1.976   1.595   0.436  0.2468  0.2184  0.3369
 1802TIP3    H2 5350   2.106   1.590   0.515  1.0974 -2.5597 -1.0824
 1803TIP3   OH2 5351   7.264   5.368   0.912 -0.4416 -0.2308 -0.0789
 1803TIP3    H1 5352   7.354   5.354   0.883 -1.2523 -4.2610 -1.1721
 1803TIP3    H2 5353   7.214   5.379   0.831 -1.2799 -0.4936  0.3956
 1804TIP3   OH2 5354   3.860   4.003   3.958  0.2028  0.0106 -0.6763
 1804TIP3    H1 5355   3.831   3.944   4.028  0.6733 -0.2879 -0.7210
 1804TIP3    H2 5356   3.894   4.079   4.004  0.1470 -0.0141 -0.5939
 1805TIP3   OH2 5357   4.198   3.645   3.023 -0.2014  0.1513  0.0610
 1805TIP3    H1 5358   4.226   3.563   3.064 -0.7699 -0.6647 -1.1233
 1805TIP3    H2 5359   4.279   3.687   2.996  0.2949  1.2912  2.9724
 1806TIP3   OH2 5360   7.153   7.426   1.408  0.6387  0.9494  0.0264
 1806TIP3    H1 5361   7.062   7.430   1.437  0.0189 -0.0876 -1.6144
 1806TIP3    H2 5362   7.200   7.388   1.482 -0.5318  0.1854  0.4132
 1807TIP3   OH2 5363   6.961   4.425   0.538  0.1493 -0.1881 -0.2091
 1807TIP3    H1 5364   7.045   4.386   0.564  0.1821  0.1267  0.1795
 1807TIP3    H2 5365   6.904   4.350   0.521  0.2114 -0.4157  0.5295
 1808TIP3   OH2 5366   2.416   0.697   4.061  0.0315  0.3779  0.5309
 1808TIP3    H1 5367   2.467   0.711   3.981  0.2759 -0.4324  0.5392
 1808TIP3    H2 5368   2.448   0.614   4.096 -0.9977  0.0741  0.7765
 1809TIP3   OH2 5369   3.649   5.625   1.639  0.1093  0.1160  0.5606
 1809TIP3    H1 5370   3.669   5.583   1.722 -1.2973 -0.5492  0.5934
 1809TIP3    H2 5371   3.669   5.558   1.573  1.8536  0.8646  0.2810
 1810TIP3   OH2 5372   7.928   1.696   5.208  0.3656  0.2148 -0.2134
 1810TIP3    H1 5373   7.894   1.785   5.220 -1.4638 -0.5709  0.9532
 1810TIP3    H2 5374   8.010   1.707   5.161 -0.2278  2.4599 -0.8189
 1811TIP3   OH2 5375   7.575   1.637   1.785  0.6145  0.0506  0.1930
 1811TIP3    H1 5376   7.633   1.576   1.829  1.0738  0.7656  0.6015
 1811TIP3    H2 5377   7.632   1.690   1.730 -0.0405 -1.3302 -1.9029
 1812TIP3   OH2 5378   2.712   1.974   4.057  0.1050  0.6428 -0.1967
 1812TIP3    H1 5379   2.750   2.045   4.006 -2.2017  1.5764 -0.7353
 1812TIP3    H2 5380   2.651   2.016   4.117 -2.1440 -0.8598 -1.2656
 1813TIP3   OH2 5381   4.413   3.501   2.758  0.1537  0.1493 -0.3189
 1813TIP3    H1 5382   4.340   3.440   2.770  0.2928  0.1524  0.5803
 1813TIP3    H2 5383   4.371   3.585   2.737 -0.0620 -0.0522 -0.7099
 1814TIP3   OH2 5384   5.148   4.732   4.325  0.0720 -0.1608 -0.1061
 1814TIP3    H1 5385   5.136   4.716   4.231  0.7581 -1.3199 -0.0171
 1814TIP3    H2 5386   5.209   4.805   4.330  0.3814 -0.3867 -0.5635
 1815TIP3   OH2 5387   1.672   7.487   5.856  0.6042  0.1359  0.8653
 1815TIP3    H1 5388   1.753   7.533   5.832 -0.3497  2.4196  1.7581
 1815TIP3    H2 5389   1.695   7.442   5.937  0.8523  1.2941  1.4704
 1816TIP3   OH2 5390   1.597   4.510   6.505  0.2341 -0.5042 -0.5876
 1816TIP3    H1 5391   1.505   4.526   6.482 -0.1931 -1.6682  0.2060
 1816TIP3    H2 5392   1.642   4.590   6.480 -1.4641  1.2470  1.5499
 1817TIP3   OH2 5393   2.231   7.724   2.904 -0.0782  0.0882 -0.4925
 1817TIP3    H1 5394   2.216   7.728   2.810  1.3457 -2.4293 -0.9096
 1817TIP3    H2 5395   2.284   7.801   2.924  0.3146  0.1963 -1.8935
 1818TIP3   OH2 5396   5.733   2.584   5.120 -0.1879  0.3076  0.5724
 1818TIP3    H1 5397   5.661   2.643   5.099  1.6178  1.9299 -1.4903
 1818TIP3    H2 5398   5.709   2.501   5.079 -1.4582  0.3763  1.1129
 1819TIP3   OH2 5399   0.338   0.590   4.285 -0.2747  0.3805 -0.6197
 1819TIP3    H1 5400   0.288   0.523   4.331  0.3431  0.6007  0.4014
 1819TIP3    H2 5401   0.422   0.548   4.265  0.1675  0.8742  0.1476
 1820TIP3   OH2 5402   7.021   2.324   3.175 -0.6013 -0.2617  1.1407
 1820TIP3    H1 5403   6.978   2.347   3.257 -0.4652  0.3782  1.0404
 1820TIP3    H2 5404   7.081   2.254   3.197  0.4140  0.8051  1.8615
 1821TIP3   OH2 5405   3.950   2.706   4.512 -0.3892  0.3968 -0.3727
 1821TIP3    H1 5406   3.968   2.622   4.470 -1.5960 -0.3213  0.4766
 1821TIP3    H2 5407   3.970   2.691   4.605  1.1140  1.6077 -0.4636
 1822TIP3   OH2 5408   4.271   6.125   4.489 -0.4297  0.4018  0.5960
 1822TIP3    H1 5409   4.354   6.078   4.487  0.0712  1.2176  1.6529
 1822TIP3    H2 5410   4.267   6.170   4.405 -1.3905 -2.2343 -0.9113
 1823TIP3   OH2 5411   2.900   3.426   1.912  0.5289 -0.2802 -0.1400
 1823TIP3    H1 5412   2.969   3.487   1.886  0.4067  0.1837  0.5951
 1823TIP3    H2 5413   2.856   3.402   1.830  1.8810 -0.9842 -0.6767
 1824TIP3   OH2 5414   5.775   3.271   2.482  0.3482 -0.0208  0.3661
 1824TIP3    H1 5415   5.821   3.223   2.551 -0.4036 -0.1462  0.7881
 1824TIP3    H2 5416   5.721   3.204   2.439  2.3021 -0.3862 -1.6814
 1825TIP3   OH2 5417   2.135   6.348   1.817  0.1415 -0.2018  0.2476
 1825TIP3    H1 5418   2.212   6.293   1.803 -1.1708 -1.5730 -2.5684
 1825TIP3    H2 5419   2.162   6.435   1.790  1.3978 -0.0771  1.8191
 1826TIP3   OH2 5420   2.731   6.444   0.970  0.2405 -0.1551  0.0132
 1826TIP3    H1 5421   2.689   6.361   0.947 -2.5050  1.0879  0.2091
 1826TIP3    H2 5422   2.743   6.489   0.886 -0.2804  0.1336  0.0909
 1827TIP3   OH2 5423   6.483   2.279   2.039 -0.0655  0.8235  0.0051
 1827TIP3    H1 5424   6.426   2.205   2.018  0.6114  0.6970 -1.4819
 1827TIP3    H2 5425   6.422   2.349   2.063 -0.7030 -0.2772  1.8397
 1828TIP3   OH2 5426   1.613   2.920   2.160  0.0130 -0.4319  0.4486
 1828TIP3    H1 5427   1.606   2.958   2.247 -1.3127  0.6898 -0.1005
 1828TIP3    H2 5428   1.698   2.948   2.128  0.6181 -1.0643  1.4589
 1829TIP3   OH2 5429   1.301   4.088   6.500 -0.2790  0.2552 -0.0369
 1829TIP3    H1 5430   1.368   4.156   6.500  1.0311 -0.9771  0.2431
 1829TIP3    H2 5431   1.259   4.096   6.586  0.8928 -0.2284  0.6021
 1830TIP3   OH2 5432   0.567   5.616   5.374  0.6359 -0.3553 -0.2392
 1830TIP3    H1 5433   0.640   5.637   5.316  0.2348 -1.4585 -1.1889
 1830TIP3    H2 5434   0.605   5.557   5.440  1.1857  1.2173  0.9324
 1831TIP3   OH2 5435   7.500   7.102   2.327  0.2757 -0.8656 -0.3760
 1831TIP3    H1 5436   7.509   7.007   2.337  1.0128 -0.6324  1.7451
 1831TIP3    H2 5437   7.585   7.137   2.354 -0.1583  0.4350 -0.6119
 1832TIP3   OH2 5438   0.554   2.249   0.166 -0.4491  0.6291 -0.1186
 1832TIP3    H1 5439   0.624   2.207   0.115 -0.2471 -0.1118  0.7368
 1832TIP3    H2 5440   0.484   2.264   0.102  0.3581  1.0853 -0.9177
 1833TIP3   OH2 5441   1.664   0.766   1.412 -0.3167 -0.7801 -0.1838
 1833TIP3    H1 5442   1.753   0.801   1.411  0.0000 -1.5245 -1.8501
 1833TIP3    H2 5443   1.616   0.822   1.352 -0.6634 -1.1238 -0.2311
 1834TIP3   OH2 5444   1.603   6.533   6.454  0.1713  0.8159 -0.0903
 1834TIP3    H1 5445   1.571   6.451   6.417 -0.7010 -1.1051  4.2474
 1834TIP3    H2 5446   1.524   6.580   6.480  0.7228  2.2651 -0.8652
 1835TIP3   OH2 5447   6.391   0.333   2.301 -0.3346 -0.2375 -0.3322
 1835TIP3    H1 5448   6.362   0.250   2.263  0.2200 -0.3860 -0.4350
 1835TIP3    H2 5449   6.447   0.372   2.234  1.8788 -1.1912  0.8631
 1836TIP3   OH2 5450   4.847   4.282   6.386 -0.1434  0.0693  0.7666
 1836TIP3    H1 5451   4.924   4.310   6.436  0.8651 -1.9201  0.4312
 1836TIP3    H2 5452   4.822   4.360   6.335 -0.1121  1.5990  2.9642
 1837TIP3   OH2 5453   2.096   3.699   3.719 -0.1413  0.0277 -0.3006
 1837TIP3    H1 5454   2.050   3.702   3.636  2.4749 -0.4145 -1.8678
 1837TIP3    H2 5455   2.055   3.626   3.767 -2.0773  0.6808 -0.8934
 1838TIP3   OH2 5456   4.986   7.430   4.204  0.3319  0.0616 -0.0231
 1838TIP3    H1 5457   5.035   7.424   4.122 -1.0524  1.4754 -1.0035
 1838TIP3    H2 5458   4.895   7.443   4.177 -0.3080 -0.4388  1.7535
 1839TIP3   OH2 5459   4.365   6.217   0.471  0.0088  0.5260 -0.2270
 1839TIP3    H1 5460   4.382   6.241   0.563 -0.9052 -1.2591  0.4523
 1839TIP3    H2 5461   4.314   6.290   0.437 -1.0324  0.5067  1.1813
 1840TIP3   OH2 5462   6.594   3.909   5.076 -0.2545  0.4633 -0.5479
 1840TIP3    H1 5463   6.542   3.988   5.060  1.6317  2.5201  2.5260
 1840TIP3    H2 5464   6.580   3.889   5.168  1.0956 -1.4705 -0.7176
 1841TIP3   OH2 5465   0.405   1.174   3.007  0.1998  0.1909  0.3735
 1841TIP3    H1 5466   0.319   1.205   3.036 -0.3645 -1.0681  0.0714
 1841TIP3    H2 5467   0.458   1.174   3.086  0.5337  2.7990  0.2568
 1842TIP3   OH2 5468   2.532   3.523   4.355 -0.2937 -0.5948 -0.0388
 1842TIP3    H1 5469   2.565   3.575   4.282 -0.7046 -2.8839 -1.9380
 1842TIP3    H2 5470   2.603   3.462   4.375 -0.2736 -0.1487  1.3804
 1843TIP3   OH2 5471   2.654   7.322   3.508  0.3588 -0.1232 -0.2007
 1843TIP3    H1 5472   2.680   7.406   3.546 -1.3237  0.1516  0.4582
 1843TIP3    H2 5473   2.638   7.341   3.416  3.0986 -0.4815 -0.8367
 1844TIP3   OH2 5474   4.686   2.433   4.855 -0.1939 -0.3800 -0.0248
 1844TIP3    H1 5475   4.719   2.403   4.770  0.1147  0.1217 -0.0854
 1844TIP3    H2 5476   4.706   2.526   4.856  1.3400 -0.6930  1.3158
 1845TIP3   OH2 5477   1.739   2.666   2.092 -0.1743 -0.0989 -0.2372
 1845TIP3    H1 5478   1.794   2.631   2.162 -1.0498 -1.7223 -0.3054
 1845TIP3    H2 5479   1.708   2.750   2.126 -0.3592 -0.7180  1.2152
 1846TIP3   OH2 5480   3.729   3.798   6.129  0.4315 -0.0218  0.0046
 1846TIP3    H1 5481   3.758   3.881   6.167  1.4421  0.2128 -1.2252
 1846TIP3    H2 5482   3.652   3.821   6.077  1.6527  0.4898 -1.6619
 1847TIP3   OH2 5483   1.799   2.820   6.497  0.2351  0.2387  0.4125
 1847TIP3    H1 5484   1.815   2.775   6.414 -0.7109 -1.0348  0.8869
 1847TIP3    H2 5485   1.885   2.855   6.523  0.9094 -0.9364 -0.1876
 1848TIP3   OH2 5486   7.735   3.182   4.871  0.0956 -0.6405 -0.1518
 1848TIP3    H1 5487   7.726   3.094   4.835 -0.1936 -0.6494 -0.0589
 1848TIP3    H2 5488   7.764   3.236   4.797  2.0797 -1.1536  0.1791
 1849TIP3   OH2 5489   7.204   4.946   0.152  0.0352  0.4185 -0.3170
 1849TIP3    H1 5490   7.189   5.002   0.076  1.2735 -0.9933 -1.6718
 1849TIP3    H2 5491   7.290   4.907   0.136  0.6866  0.6721  2.2305
 1850TIP3   OH2 5492   1.778   6.845   4.823  0.1694 -0.5448 -0.0117
 1850TIP3    H1 5493   1.830   6.853   4.743  0.6575 -1.9062  0.1353
 1850TIP3    H2 5494   1.687   6.849   4.794  0.3369  0.1549 -0.4729
 1851TIP3   OH2 5495   5.104   0.206   5.038 -0.6509  0.1614 -0.0580
 1851TIP3    H1 5496   5.193   0.188   5.068 -1.5801 -1.0829  2.2175
 1851TIP3    H2 5497   5.048   0.177   5.110 -2.8410  2.8264 -0.5257
 1852TIP3   OH2 5498   5.702   0.092   0.490 -0.6537  0.2899  0.1949
 1852TIP3    H1 5499   5.687   0.140   0.572 -1.0569 -0.2458  0.4456
 1852TIP3    H2 5500   5.638   0.128   0.429 -1.2788 -0.2584  0.5237
 1853TIP3   OH2 5501   0.112   3.570   1.386 -0.4522 -0.2640 -0.4916
 1853TIP3    H1 5502   0.180   3.544   1.323  1.1081  2.1782  0.0646
 1853TIP3    H2 5503   0.115   3.503   1.454  1.0505 -0.4810 -0.7404
 1854TIP3   OH2 5504   3.034   0.756   6.363  0.1493  0.0911  0.8524
 1854TIP3    H1 5505   2.964   0.771   6.426  1.0466 -0.5660  2.0498
 1854TIP3    H2 5506   3.083   0.838   6.360 -0.7253  0.6036 -0.1027
 1855TIP3   OH2 5507   0.217   3.295   1.917 -0.0628  0.5622  0.6312
 1855TIP3    H1 5508   0.311   3.276   1.914  0.1116  1.4759 -1.7543
 1855TIP3    H2 5509   0.205   3.366   1.853 -2.3646  0.5629  0.9885
 1856TIP3   OH2 5510   4.151   7.303   3.160  0.0332 -0.1040 -0.2510
 1856TIP3    H1 5511   4.190   7.222   3.126  0.5243 -0.5076  1.1831
 1856TIP3    H2 5512   4.226   7.361   3.174  0.1794 -0.7501  2.1681
 1857TIP3   OH2 5513   0.407   5.573   4.575  0.3634 -0.3843  0.2347
 1857TIP3    H1 5514   0.370   5.660   4.563 -0.6060 -0.7417  0.5527
 1857TIP3    H2 5515   0.452   5.578   4.659 -0.7743 -0.5350  0.8761
 1858TIP3   OH2 5516   6.130   0.696   6.656  0.9700 -0.1719 -0.1463
 1858TIP3    H1 5517   6.058   0.699   6.719  0.8268 -0.5709 -0.2847
 1858TIP3    H2 5518   6.190   0.766   6.684 -0.6756  1.9003 -1.5103
 1859TIP3   OH2 5519   2.258   0.992   4.550 -0.5492  0.1774 -0.2967
 1859TIP3    H1 5520   2.272   0.920   4.487 -1.6608 -1.9215  1.7046
 1859TIP3    H2 5521   2.185   1.041   4.514 -1.7633 -1.5235 -0.2973
 1860TIP3   OH2 5522   6.230   5.612   6.687  0.2575  0.1115 -0.3759
 1860TIP3    H1 5523   6.247   5.587   6.778 -1.4717 -0.6594 -0.2237
 1860TIP3    H2 5524   6.232   5.530   6.639 -2.9240 -0.1428 -0.2979
 1861TIP3   OH2 5525   1.520   4.253   6.503  0.3937 -0.1171 -0.2259
 1861TIP3    H1 5526   1.599   4.218   6.462  1.3044  1.2059  0.3293
 1861TIP3    H2 5527   1.532   4.348   6.501 -0.8442  0.0760  0.5461
 1862TIP3   OH2 5528   4.707   7.069   5.517  0.1495  0.2373  0.2828
 1862TIP3    H1 5529   4.718   7.125   5.441  1.1635  0.5229  0.6312
 1862TIP3    H2 5530   4.631   7.106   5.563 -0.3943  0.1299 -0.5085
 1863TIP3   OH2 5531   7.899   2.774   5.102 -0.4219  0.2076 -0.5513
 1863TIP3    H1 5532   7.881   2.820   5.183 -0.9773  0.3549 -0.7547
 1863TIP3    H2 5533   7.919   2.843   5.039 -0.2058  0.1069 -0.5949
 1864TIP3   OH2 5534   1.972   1.716   4.474 -0.1429 -0.0347 -0.6294
 1864TIP3    H1 5535   1.944   1.780   4.410  0.4323  0.3959 -0.4540
 1864TIP3    H2 5536   2.064   1.700   4.455  0.5439  1.3978  1.1282
 1865TIP3   OH2 5537   0.715   5.869   2.281  0.0332 -0.5276  0.2495
 1865TIP3    H1 5538   0.750   5.809   2.348  1.6220 -2.4118 -2.1103
 1865TIP3    H2 5539   0.785   5.934   2.269 -0.1055 -0.3936  0.1688
 1866TIP3   OH2 5540   3.267   4.969   5.121 -0.2217 -0.0545  0.1047
 1866TIP3    H1 5541   3.354   4.931   5.134 -1.0446 -1.7520  0.9604
 1866TIP3    H2 5542   3.253   4.965   5.026  0.1316 -0.9986  0.0783
 1867TIP3   OH2 5543   4.751   4.452   1.424  0.3315  0.4855 -0.1849
 1867TIP3    H1 5544   4.788   4.365   1.410  2.3677  1.5144 -1.6698
 1867TIP3    H2 5545   4.814   4.512   1.385 -1.3173  2.6206  0.2262
 1868TIP3   OH2 5546   0.476   1.908   5.597  0.3035  0.2024 -0.1284
 1868TIP3    H1 5547   0.524   1.921   5.679  1.6759 -1.4204 -0.6087
 1868TIP3    H2 5548   0.536   1.939   5.529  0.2611 -0.8629 -0.6729
 1869TIP3   OH2 5549   1.376   3.026   5.905 -0.1071  0.1042  0.5129
 1869TIP3    H1 5550   1.334   2.939   5.901  0.0420 -0.1828  3.2719
 1869TIP3    H2 5551   1.463   3.012   5.868 -1.0374 -0.1859 -1.7444
 1870TIP3   OH2 5552   0.661   1.866   6.720  0.3201 -0.8518 -0.1077
 1870TIP3    H1 5553   0.658   1.927   6.793  1.1516 -0.5695 -0.3009
 1870TIP3    H2 5554   0.705   1.788   6.755 -0.4862 -1.2387  0.0604
 1871TIP3   OH2 5555   5.840   7.530   2.746  0.0591  0.2395  0.5461
 1871TIP3    H1 5556   5.859   7.623   2.734  1.9277 -0.2698 -0.9331
 1871TIP3    H2 5557   5.905   7.500   2.810  1.9876 -0.7258 -1.6971
 1872TIP3   OH2 5558   2.384   1.067   5.927 -0.7828  0.3083  0.2562
 1872TIP3    H1 5559   2.400   1.033   5.839 -0.7534  3.3247 -1.0016
 1872TIP3    H2 5560   2.471   1.093   5.958 -0.9905  0.5737  0.6208
 1873TIP3   OH2 5561   3.529   5.828   2.435  0.0291  0.1186 -0.3180
 1873TIP3    H1 5562   3.512   5.767   2.364 -1.4908  1.2947 -1.0313
 1873TIP3    H2 5563   3.622   5.851   2.426  0.3015 -1.1076 -0.7863
 1874TIP3   OH2 5564   4.622   6.849   3.322  0.0651 -0.1131 -0.8155
 1874TIP3    H1 5565   4.600   6.889   3.407  1.2676  0.7940 -0.9127
 1874TIP3    H2 5566   4.538   6.842   3.277 -0.9651 -2.5183  1.1986
 1875TIP3   OH2 5567   6.245   1.662   0.341 -0.0710 -0.0891 -0.0451
 1875TIP3    H1 5568   6.302   1.587   0.325  0.9756  0.6666  0.0554
 1875TIP3    H2 5569   6.158   1.623   0.356  0.0934 -1.1727 -1.6609
 1876TIP3   OH2 5570   5.993   0.989   1.320  0.0748 -0.6418  0.1672
 1876TIP3    H1 5571   6.004   0.950   1.233 -1.1350 -1.7885  0.4951
 1876TIP3    H2 5572   5.969   1.080   1.303  0.9041 -0.5573 -0.6616
 1877TIP3   OH2 5573   6.030   3.984   2.573 -0.0883 -0.0642 -0.0870
 1877TIP3    H1 5574   6.092   3.964   2.504 -0.1367 -1.1026  0.1588
 1877TIP3    H2 5575   5.951   3.934   2.550 -0.4335  0.3297  0.2180
 1878TIP3   OH2 5576   0.310   3.411   3.040 -0.1995 -0.4776  0.5235
 1878TIP3    H1 5577   0.323   3.455   3.124  2.2059 -0.3614  0.1550
 1878TIP3    H2 5578   0.373   3.338   3.041 -3.8722 -4.0020  1.0424
 1879TIP3   OH2 5579   5.843   4.292   0.428 -0.0138 -0.0977 -0.0515
 1879TIP3    H1 5580   5.828   4.350   0.354  1.4547 -1.5849 -1.5910
 1879TIP3    H2 5581   5.905   4.227   0.396  0.3290 -1.0780  2.3531
 1880TIP3   OH2 5582   7.470   1.502   0.599  0.3997 -0.0406 -0.3149
 1880TIP3    H1 5583   7.530   1.465   0.535  0.6518 -3.4940  1.6788
 1880TIP3    H2 5584   7.383   1.482   0.564  0.5018 -0.1950 -0.4835
 1881TIP3   OH2 5585   2.517   0.044   1.944 -0.5213 -0.1180 -0.1851
 1881TIP3    H1 5586   2.498  -0.031   2.000 -0.8258 -0.3221 -0.5582
 1881TIP3    H2 5587   2.516   0.009   1.856 -1.1391  0.4142 -0.3995
 1882TIP3   OH2 5588   2.564   4.801   1.328  0.3166  0.2176 -0.5006
 1882TIP3    H1 5589   2.647   4.848   1.329 -0.3916  1.4982  0.0544
 1882TIP3    H2 5590   2.498   4.869   1.316 -0.9040 -0.3700  2.1517
 1883TIP3   OH2 5591   6.721   0.393   5.190 -0.1349  0.1411 -0.0194
 1883TIP3    H1 5592   6.793   0.331   5.175  1.5878  1.6499  1.6538
 1883TIP3    H2 5593   6.717   0.445   5.109 -0.7211 -1.2079 -0.9054
 1884TIP3   OH2 5594   6.974   1.356   5.463 -0.0833  0.5045  0.1516
 1884TIP3    H1 5595   6.932   1.367   5.378 -0.0070 -0.4685 -0.0204
 1884TIP3    H2 5596   6.911   1.391   5.526 -0.4975  0.4517 -0.2341
 1885TIP3   OH2 5597   5.166   1.843   4.464  0.0499  0.3861 -0.2338
 1885TIP3    H1 5598   5.215   1.782   4.410  1.5509  0.5594  0.8496
 1885TIP3    H2 5599   5.145   1.915   4.406  2.0389  0.7944 -0.5398
 1886TIP3   OH2 5600   8.293   1.795   5.315  0.0001  0.3737 -0.3623
 1886TIP3    H1 5601   8.269   1.716   5.266 -1.3178  1.1388 -1.0057
 1886TIP3    H2 5602   8.283   1.769   5.407 -4.5024  0.8285 -0.5065
 1887TIP3   OH2 5603   6.379   3.018   2.657 -0.3522  0.1310 -0.2506
 1887TIP3    H1 5604   6.391   3.063   2.741  0.8175  0.1489 -0.4179
 1887TIP3    H2 5605   6.318   3.073   2.609  0.8868  1.4420 -0.3707
 1888TIP3   OH2 5606   6.841   3.428   0.516  0.2517 -0.0675 -0.4934
 1888TIP3    H1 5607   6.884   3.511   0.496 -1.2822  0.8583 -0.1848
 1888TIP3    H2 5608   6.834   3.427   0.612 -1.5282  0.4694 -0.5714
 1889TIP3   OH2 5609   0.751   3.037   1.575 -0.0896 -0.5560  0.3801
 1889TIP3    H1 5610   0.747   3.127   1.609  2.3589 -0.4926  0.6814
 1889TIP3    H2 5611   0.826   2.998   1.620  0.4438 -1.9486 -1.5975
 1890TIP3   OH2 5612   0.371   2.241   4.393  0.4599 -0.2862  0.5909
 1890TIP3    H1 5613   0.401   2.312   4.449 -0.6096  1.1560 -0.5823
 1890TIP3    H2 5614   0.278   2.232   4.412  0.4222 -0.8694  0.1920
 1891TIP3   OH2 5615   4.847   4.809   6.683  0.5371 -0.5088  0.7398
 1891TIP3    H1 5616   4.820   4.898   6.704 -0.2197 -0.2419 -1.1409
 1891TIP3    H2 5617   4.864   4.768   6.768 -0.0183  1.1293  1.6842
 1892TIP3   OH2 5618   1.357   5.673   6.734 -0.1299  0.2778  0.1687
 1892TIP3    H1 5619   1.367   5.629   6.818 -2.2309  0.5820  0.6492
 1892TIP3    H2 5620   1.287   5.737   6.749 -0.4343  0.4550 -1.7622
 1893TIP3   OH2 5621   5.444   1.276   4.445 -0.0689  0.4233  0.2899
 1893TIP3    H1 5622   5.361   1.321   4.463 -0.1014  0.1919  0.7180
 1893TIP3    H2 5623   5.501   1.299   4.518 -0.3042 -0.7680  0.8621
 1894TIP3   OH2 5624   6.190   7.431   4.293 -0.6292  0.7034 -0.5468
 1894TIP3    H1 5625   6.168   7.341   4.270  0.9134  0.5626 -1.5762
 1894TIP3    H2 5626   6.106   7.469   4.321 -1.4719 -0.7913 -0.9164
 1895TIP3   OH2 5627   2.841   2.443  -0.029 -0.1638 -0.3548  0.2389
 1895TIP3    H1 5628   2.897   2.458   0.048 -0.0576  2.4221 -0.2816
 1895TIP3    H2 5629   2.753   2.431   0.008  0.0207  0.1137  0.8670
 1896TIP3   OH2 5630   2.881   5.535   2.808 -0.1195 -0.0111  0.0347
 1896TIP3    H1 5631   2.972   5.521   2.835 -0.2679 -0.4226  0.3296
 1896TIP3    H2 5632   2.880   5.623   2.771 -0.0151  0.8227  1.8866
 1897TIP3   OH2 5633   7.547   3.575   5.754  0.0758 -0.3777 -0.0937
 1897TIP3    H1 5634   7.489   3.651   5.745 -1.0336 -0.9180  1.8958
 1897TIP3    H2 5635   7.491   3.500   5.738  0.6992 -0.8556 -0.0769
 1898TIP3   OH2 5636   3.210   6.172   4.166 -0.7477 -0.5376  0.0463
 1898TIP3    H1 5637   3.206   6.079   4.191 -1.3870  0.3246  3.6481
 1898TIP3    H2 5638   3.262   6.213   4.235  0.6764  1.6736 -2.1865
 1899TIP3   OH2 5639   1.970   5.065   0.663  0.1516  0.4017 -0.6062
 1899TIP3    H1 5640   2.053   5.040   0.703  0.6809  1.3300 -1.0808
 1899TIP3    H2 5641   1.994   5.100   0.577 -1.0854 -3.6683 -2.8964
 1900TIP3   OH2 5642   5.300   3.029   5.363 -0.3672  1.0477  0.2811
 1900TIP3    H1 5643   5.262   3.077   5.436 -1.2544 -1.1194  1.3505
 1900TIP3    H2 5644   5.275   3.079   5.285 -3.0156  1.2491  1.1742
 1901TIP3   OH2 5645   3.131   6.302   3.716  0.3883 -0.0345 -0.3188
 1901TIP3    H1 5646   3.171   6.265   3.637 -1.2783 -0.7690 -0.8627
 1901TIP3    H2 5647   3.206   6.324   3.771  1.5630 -1.4501 -1.2259
 1902TIP3   OH2 5648   5.054   4.945   4.634 -0.4514 -0.0908 -0.3288
 1902TIP3    H1 5649   5.097   4.886   4.696  0.3768  1.5217  0.6845
 1902TIP3    H2 5650   5.102   4.932   4.552 -0.7379 -1.3090 -0.3282
 1903TIP3   OH2 5651   6.553   0.391   3.319  0.0909  0.4102  0.7543
 1903TIP3    H1 5652   6.594   0.420   3.237  0.2002 -1.5574  0.0556
 1903TIP3    H2 5653   6.460   0.409   3.307 -0.0927 -1.0919 -0.4297
 1904TIP3   OH2 5654   5.868   0.879   5.188  0.1375 -0.2877 -0.2343
 1904TIP3    H1 5655   5.925   0.839   5.254 -0.7238 -0.7630  0.2277
 1904TIP3    H2 5656   5.879   0.973   5.201 -2.1213 -0.2882  2.5207
 1905TIP3   OH2 5657   2.448   1.655   5.431  0.2004  0.0318  0.0103
 1905TIP3    H1 5658   2.535   1.627   5.403  0.4922  1.3300 -0.4740
 1905TIP3    H2 5659   2.433   1.608   5.513 -0.0220 -2.6807 -1.4959
 1906TIP3   OH2 5660   3.228   0.545   1.618  0.0123 -0.0826  0.4389
 1906TIP3    H1 5661   3.255   0.619   1.564 -2.7836  0.0418 -1.0214
 1906TIP3    H2 5662   3.242   0.468   1.562  0.1240 -0.3164  0.7852
 1907TIP3   OH2 5663   3.307   0.645   1.940  0.7206  0.4374 -0.5582
 1907TIP3    H1 5664   3.335   0.700   1.867 -1.4483  1.1664 -0.9305
 1907TIP3    H2 5665   3.237   0.590   1.904  1.4880 -1.1800  0.3132
 1908TIP3   OH2 5666   7.157   5.618   3.504 -0.3078  0.2141 -0.4142
 1908TIP3    H1 5667   7.111   5.602   3.422  1.0925 -1.5170 -0.9257
 1908TIP3    H2 5668   7.144   5.538   3.555 -0.8745  1.1295  0.9485
 1909TIP3   OH2 5669   7.487   2.993   6.049  0.3082  0.6078  0.1366
 1909TIP3    H1 5670   7.427   3.064   6.029  0.1305  0.6155  0.6760
 1909TIP3    H2 5671   7.535   3.024   6.126  1.7782  1.0654 -0.9159
 1910TIP3   OH2 5672   6.999   4.022   0.680 -0.0524  0.1396 -0.1038
 1910TIP3    H1 5673   7.093   4.015   0.692  0.0913 -0.7690 -1.4888
 1910TIP3    H2 5674   6.974   4.103   0.725  1.2755  0.0649  0.8007
 1911TIP3   OH2 5675   5.281   3.511   3.229 -0.0253  0.0627 -0.7646
 1911TIP3    H1 5676   5.278   3.415   3.239 -1.2717  0.1467 -0.1403
 1911TIP3    H2 5677   5.310   3.543   3.314 -0.0142  0.2552 -0.8422
 1912TIP3   OH2 5678   6.001   0.729   1.689 -0.3503 -0.3584 -1.0173
 1912TIP3    H1 5679   6.028   0.755   1.777 -0.1231 -0.3995 -1.0755
 1912TIP3    H2 5680   5.932   0.664   1.703 -0.9498  0.2865 -0.8661
 1913TIP3   OH2 5681   7.304   1.073   4.289  0.8251 -0.0417 -0.0433
 1913TIP3    H1 5682   7.364   1.140   4.257  0.7337  0.5115  0.9140
 1913TIP3    H2 5683   7.359   0.996   4.303  1.1919  0.2700  0.2340
 1914TIP3   OH2 5684   1.399   6.214   4.222 -0.3243 -0.1251 -0.0733
 1914TIP3    H1 5685   1.480   6.264   4.220 -0.4221  0.0348 -1.1407
 1914TIP3    H2 5686   1.335   6.270   4.177 -0.5366 -1.0182 -0.9395
 1915TIP3   OH2 5687   7.812   6.284   2.238  0.6481 -0.0392  0.4413
 1915TIP3    H1 5688   7.894   6.334   2.239  0.4779  0.2439  1.4196
 1915TIP3    H2 5689   7.754   6.334   2.180  1.3252 -0.5382 -0.7089
 1916TIP3   OH2 5690   5.985   7.066   4.454  0.1319 -0.2574 -0.1010
 1916TIP3    H1 5691   5.900   7.080   4.412 -0.1207  1.7439  0.9723
 1916TIP3    H2 5692   6.046   7.118   4.403  0.1897  0.5540  0.7795
 1917TIP3   OH2 5693   4.565   0.163   4.655  0.0281 -0.2194  0.0398
 1917TIP3    H1 5694   4.522   0.129   4.733  1.3710 -0.0554  0.8930
 1917TIP3    H2 5695   4.530   0.252   4.644 -0.0385 -0.1799  0.5650
 1918TIP3   OH2 5696   6.650   6.505   5.790  0.5653  0.4640  0.0414
 1918TIP3    H1 5697   6.598   6.562   5.846 -1.0179 -0.2072 -0.6869
 1918TIP3    H2 5698   6.723   6.560   5.761 -1.1323  2.3032 -0.9950
 1919TIP3   OH2 5699   3.166   5.623   0.424 -0.1067  0.5170  0.7582
 1919TIP3    H1 5700   3.230   5.575   0.476 -0.2652  0.6327  1.0638
 1919TIP3    H2 5701   3.217   5.690   0.378  0.3336 -0.7768 -0.7282
 1920TIP3   OH2 5702   6.680   0.983   5.118 -0.3332  0.1017  0.3384
 1920TIP3    H1 5703   6.595   0.960   5.155 -0.2880  0.3185  0.5807
 1920TIP3    H2 5704   6.726   1.029   5.189 -0.4888  1.0841 -0.1849
 1921TIP3   OH2 5705   0.755   7.020   2.885 -0.0603  0.1872  0.3387
 1921TIP3    H1 5706   0.818   6.969   2.935 -0.5819 -1.5970 -0.7367
 1921TIP3    H2 5707   0.740   6.969   2.806 -2.6490  0.6478  0.4295
 1922TIP3   OH2 5708   1.881   6.110   2.744 -0.0788 -0.0928 -0.7422
 1922TIP3    H1 5709   1.964   6.135   2.785  0.1089 -1.1494 -0.4417
 1922TIP3    H2 5710   1.894   6.019   2.716 -1.1247 -0.2692 -0.7098
 1923TIP3   OH2 5711   0.298   4.533   2.696 -0.5519 -0.0558  0.2731
 1923TIP3    H1 5712   0.336   4.457   2.740  1.3229  0.6306 -0.0707
 1923TIP3    H2 5713   0.257   4.497   2.617  0.4073 -0.7074  0.0600
 1924TIP3   OH2 5714   3.883   4.691   2.320 -0.1955 -0.3462  0.0723
 1924TIP3    H1 5715   3.951   4.670   2.255  1.4933 -1.6369  2.1160
 1924TIP3    H2 5716   3.813   4.731   2.269  0.7698 -1.8290 -2.6237
 1925TIP3   OH2 5717   2.481   3.017   0.122 -0.6340  0.0208  0.4833
 1925TIP3    H1 5718   2.547   3.021   0.054 -0.8054  1.6488  0.3632
 1925TIP3    H2 5719   2.401   3.049   0.080 -1.3681 -1.3184  0.7911
 1926TIP3   OH2 5720   3.848   6.934   5.879  0.0989  0.4621 -0.1822
 1926TIP3    H1 5721   3.774   6.884   5.847 -1.4328  3.7999 -2.4578
 1926TIP3    H2 5722   3.820   6.968   5.964  0.9465 -1.8465  1.1209
 1927TIP3   OH2 5723   6.670   6.034   5.636 -1.0194  0.0107  0.1225
 1927TIP3    H1 5724   6.636   6.122   5.625  0.2885  0.6158  0.6728
 1927TIP3    H2 5725   6.596   5.984   5.672 -1.6403  0.9862  0.2390
 1928TIP3   OH2 5726   6.399   1.008   1.029 -0.2945  0.2707 -0.3913
 1928TIP3    H1 5727   6.403   1.104   1.024  1.1504  0.2084 -0.9053
 1928TIP3    H2 5728   6.483   0.982   1.065 -0.4271 -0.8435 -0.8397
 1929TIP3   OH2 5729   3.429   0.339   5.648 -0.4734  0.0011  0.2379
 1929TIP3    H1 5730   3.364   0.383   5.702 -0.0016  1.8830 -0.6440
 1929TIP3    H2 5731   3.499   0.403   5.637 -0.1131 -0.6526 -1.7583
 1930TIP3   OH2 5732   6.863   7.555   5.298  0.0636  0.2539 -0.1885
 1930TIP3    H1 5733   6.932   7.544   5.364  0.5749  0.0219 -0.7569
 1930TIP3    H2 5734   6.897   7.512   5.220  0.2028  2.0252 -1.1467
 1931TIP3   OH2 5735   0.919   4.441   5.871  0.3044 -0.3198 -0.0720
 1931TIP3    H1 5736   1.006   4.444   5.831  0.3430 -0.9404 -0.0380
 1931TIP3    H2 5737   0.920   4.513   5.935  0.8823 -0.4856  0.1118
 1932TIP3   OH2 5738   2.458   4.398   0.867  0.1021  0.2559  0.4567
 1932TIP3    H1 5739   2.436   4.477   0.818  2.2075  2.1999  2.4036
 1932TIP3    H2 5740   2.412   4.408   0.950  1.4878  0.2106  1.2692
 1933TIP3   OH2 5741   0.799   0.861   2.623 -0.2078  0.0320  0.1016
 1933TIP3    H1 5742   0.758   0.840   2.707  0.0889 -0.8424  0.0387
 1933TIP3    H2 5743   0.880   0.906   2.647 -0.0779 -0.2964  0.2915
 1934TIP3   OH2 5744   0.095   6.283   1.621 -0.2247  0.4662 -0.0869
 1934TIP3    H1 5745   0.091   6.299   1.715  1.0244  1.2108 -0.1375
 1934TIP3    H2 5746   0.061   6.194   1.610 -2.2813  1.0686  0.8188
 1935TIP3   OH2 5747   3.233   7.291   2.922 -0.3313  0.2781 -0.3283
 1935TIP3    H1 5748   3.168   7.343   2.873 -1.0470  0.5092  0.8304
 1935TIP3    H2 5749   3.190   7.273   3.006  1.5005  1.3528  0.9066
 1936TIP3   OH2 5750   2.352   0.420   0.662 -0.2664 -0.0684  0.0987
 1936TIP3    H1 5751   2.299   0.496   0.685  0.3819 -0.1017  1.8685
 1936TIP3    H2 5752   2.437   0.456   0.637  0.2592 -0.2034  1.5977
 1937TIP3   OH2 5753   8.122   5.062   0.376  0.0289 -0.1177  0.0888
 1937TIP3    H1 5754   8.153   5.068   0.466  1.1127  1.0026 -0.3166
 1937TIP3    H2 5755   8.197   5.090   0.323 -0.7880 -0.1229 -1.1211
 1938TIP3   OH2 5756   8.099   6.644   6.321 -0.1579 -0.1469 -0.7860
 1938TIP3    H1 5757   8.098   6.639   6.225  1.5249  0.0190 -0.8332
 1938TIP3    H2 5758   8.117   6.736   6.340  0.0043 -0.2722 -0.3242
 1939TIP3   OH2 5759   4.248   4.955   6.041 -0.2827  0.5216  0.0499
 1939TIP3    H1 5760   4.200   5.030   6.007 -0.7874  0.1393 -0.0780
 1939TIP3    H2 5761   4.208   4.936   6.125 -0.3890  0.1740 -0.0763
 1940TIP3   OH2 5762   0.810   5.419   5.871  0.3562  0.4355 -0.2319
 1940TIP3    H1 5763   0.902   5.426   5.845 -0.3194  1.8129 -2.5492
 1940TIP3    H2 5764   0.802   5.478   5.946  1.1060  1.3057 -0.8181
 1941TIP3   OH2 5765   2.539   4.719   6.234  0.4030 -0.1307 -0.1341
 1941TIP3    H1 5766   2.476   4.748   6.168 -1.5728 -0.8198  1.3230
 1941TIP3    H2 5767   2.574   4.800   6.271 -1.1583  0.3609  0.3613
 1942TIP3   OH2 5768   7.546   5.050   0.492 -0.1531  0.2724  0.0104
 1942TIP3    H1 5769   7.496   5.083   0.566 -1.1160 -1.4031  0.1677
 1942TIP3    H2 5770   7.577   4.964   0.520 -0.4566 -0.3648 -1.4774
 1943TIP3   OH2 5771   0.411   4.220   4.996 -0.3168  0.2366  0.5311
 1943TIP3    H1 5772   0.357   4.282   4.947 -0.2026 -0.3758 -0.3888
 1943TIP3    H2 5773   0.349   4.173   5.051 -0.3327  1.5693  1.7144
 1944TIP3   OH2 5774   3.585   3.903   5.734  0.2171 -0.4386  0.3518
 1944TIP3    H1 5775   3.617   3.925   5.647  1.8213  0.9340  1.2305
 1944TIP3    H2 5776   3.642   3.951   5.794 -0.1773 -2.1214  2.2123
 1945TIP3   OH2 5777   7.916   2.198   5.630 -0.2109 -0.0213  0.2388
 1945TIP3    H1 5778   7.943   2.273   5.579  0.2567 -1.2111 -1.3357
 1945TIP3    H2 5779   7.929   2.123   5.572 -0.7671 -1.3136  1.7029
 1946TIP3   OH2 5780   1.083   0.294   0.718  0.3905  0.7252  0.1014
 1946TIP3    H1 5781   1.057   0.384   0.736 -0.1274  0.2731  1.7538
 1946TIP3    H2 5782   1.059   0.280   0.626 -0.8559  1.8062  0.2417
 1947TIP3   OH2 5783   7.500   0.021   5.356  0.0504 -0.2165  0.0720
 1947TIP3    H1 5784   7.558   0.095   5.339  2.8677 -1.9163  1.4535
 1947TIP3    H2 5785   7.476   0.030   5.448 -0.9488 -0.1808 -0.1777
 1948TIP3   OH2 5786   3.323   6.548   1.752 -0.0641  0.2373 -0.9922
 1948TIP3    H1 5787   3.232   6.524   1.734 -0.6014  0.8049  0.7502
 1948TIP3    H2 5788   3.340   6.514   1.840  0.8361  1.6640 -0.5840
 1949TIP3   OH2 5789   2.843   3.524   2.445 -0.5292  0.4703 -0.1704
 1949TIP3    H1 5790   2.887   3.587   2.388 -1.2282  0.4251 -0.7666
 1949TIP3    H2 5791   2.753   3.519   2.412 -0.7694 -0.0538  0.5216
 1950TIP3   OH2 5792   0.922   7.568   2.629  0.0007 -0.0848  0.1766
 1950TIP3    H1 5793   0.840   7.606   2.597 -0.6936 -1.7095 -0.0757
 1950TIP3    H2 5794   0.963   7.638   2.679 -0.8039  1.2558 -0.9544
 1951TIP3   OH2 5795   1.382   3.136   0.604  0.0291 -0.2052  0.4015
 1951TIP3    H1 5796   1.349   3.087   0.679  0.6835  0.2156  0.9820
 1951TIP3    H2 5797   1.328   3.215   0.602  0.0550 -0.1855  0.4713
 1952TIP3   OH2 5798   7.634   1.550   5.058  0.2836  0.0051 -0.4896
 1952TIP3    H1 5799   7.609   1.496   4.983  1.2288 -0.1947 -0.6683
 1952TIP3    H2 5800   7.702   1.608   5.024  3.2775 -2.3630  0.9386
 1953TIP3   OH2 5801   6.196   3.983   2.815 -0.0375 -0.1127 -0.1532
 1953TIP3    H1 5802   6.143   4.000   2.737  1.3624  0.5019 -1.0112
 1953TIP3    H2 5803   6.148   4.025   2.886 -0.3683  1.0714 -1.0339
 1954TIP3   OH2 5804   1.289   7.183   4.684  0.0629 -0.6003  0.0873
 1954TIP3    H1 5805   1.214   7.193   4.743  1.0558 -1.1657  1.4765
 1954TIP3    H2 5806   1.272   7.102   4.637 -0.7488 -0.1296 -0.4622
 1955TIP3   OH2 5807   3.716   1.656   0.924 -0.0559 -0.0025  0.2552
 1955TIP3    H1 5808   3.727   1.658   1.019 -1.1976  0.4635  0.3933
 1955TIP3    H2 5809   3.623   1.638   0.910 -0.4569  2.4193 -0.7242
 1956TIP3   OH2 5810   6.077   7.082   1.273  0.0522 -0.1464 -0.1881
 1956TIP3    H1 5811   6.029   7.154   1.232 -0.5431 -1.3820 -1.7908
 1956TIP3    H2 5812   6.009   7.026   1.312  0.3908 -0.5398 -0.1452
 1957TIP3   OH2 5813   3.472   3.699   1.197 -0.2848 -0.0047 -0.8144
 1957TIP3    H1 5814   3.546   3.755   1.174  0.3974 -0.7498 -0.4998
 1957TIP3    H2 5815   3.458   3.714   1.290  1.1621 -1.7248 -0.2482
 1958TIP3   OH2 5816   2.164   1.706   5.431  0.3288  0.3249  0.3495
 1958TIP3    H1 5817   2.174   1.798   5.453 -0.3233  0.6372 -0.5789
 1958TIP3    H2 5818   2.250   1.679   5.398  0.5940  0.5261  0.8712
 1959TIP3   OH2 5819   5.257   5.006   3.476 -0.0591 -0.3810  0.8394
 1959TIP3    H1 5820   5.172   5.047   3.460  1.0107  0.9554 -2.3378
 1959TIP3    H2 5821   5.259   4.932   3.414  1.4425  0.2479  0.0958
 1960TIP3   OH2 5822   6.882   7.517   4.679  0.1450 -0.1891 -0.1957
 1960TIP3    H1 5823   6.853   7.435   4.639 -0.8498  0.0193  0.0587
 1960TIP3    H2 5824   6.836   7.585   4.631 -1.3222  0.0504  1.4305
 1961TIP3   OH2 5825   6.070   6.217   0.343 -0.1633  0.2769 -0.1954
 1961TIP3    H1 5826   5.983   6.211   0.384  0.2774 -0.6781  0.6167
 1961TIP3    H2 5827   6.121   6.269   0.404  0.1106  0.0376 -0.2235
 1962TIP3   OH2 5828   1.921   3.739   3.516 -0.3362 -0.2061 -0.3174
 1962TIP3    H1 5829   1.854   3.677   3.488 -0.3559  0.7198 -2.5023
 1962TIP3    H2 5830   1.899   3.821   3.471  0.7797  0.8751  0.9818
 1963TIP3   OH2 5831   1.451   6.559   1.483 -0.4186 -0.0243 -0.4100
 1963TIP3    H1 5832   1.374   6.540   1.430  0.1382 -1.0750 -0.8829
 1963TIP3    H2 5833   1.492   6.634   1.441 -1.4028  0.8160  0.0991
 1964TIP3   OH2 5834   1.002   2.374   6.112  0.2061  0.0069  0.0847
 1964TIP3    H1 5835   1.055   2.295   6.123  0.2268 -0.1492 -1.0260
 1964TIP3    H2 5836   1.007   2.393   6.019 -1.7884 -0.0774 -0.0856
 1965TIP3   OH2 5837   1.797   0.842   0.041 -0.3338  0.0594 -0.1005
 1965TIP3    H1 5838   1.769   0.760  -0.001 -2.4368 -0.3156  1.8479
 1965TIP3    H2 5839   1.885   0.822   0.074 -0.7670 -1.4150  0.2677
 1966TIP3   OH2 5840   2.844   6.755   0.535  0.3354 -0.4060  0.0622
 1966TIP3    H1 5841   2.761   6.794   0.507 -0.3916 -2.4009 -0.7636
 1966TIP3    H2 5842   2.910   6.815   0.502 -0.6662 -0.6162 -2.6349
 1967TIP3   OH2 5843   4.983   2.750   0.829 -0.9353 -0.2183 -0.2712
 1967TIP3    H1 5844   5.029   2.777   0.909 -1.1728 -2.2245  0.6022
 1967TIP3    H2 5845   4.979   2.830   0.776  1.1162  0.6658  0.7863
 1968TIP3   OH2 5846   4.703   5.934   6.060  0.2164  0.1694 -0.2214
 1968TIP3    H1 5847   4.747   5.851   6.041  1.6545  0.9779 -0.5105
 1968TIP3    H2 5848   4.772   5.991   6.094 -0.9907  0.8789  1.1680
 1969TIP3   OH2 5849   2.732   0.587   1.816 -0.4310 -0.1860 -0.1906
 1969TIP3    H1 5850   2.800   0.618   1.876 -0.6244 -3.3448  1.8274
 1969TIP3    H2 5851   2.770   0.510   1.774 -1.6820 -0.1810 -1.4121
 1970TIP3   OH2 5852   6.115   5.944   2.798  0.6647  0.2959 -0.4352
 1970TIP3    H1 5853   6.092   6.036   2.813  1.3659  0.1762  1.7004
 1970TIP3    H2 5854   6.207   5.947   2.771  0.8848  0.1940  0.2882
 1971TIP3   OH2 5855   4.202   1.055   1.544 -0.5423  0.0873 -0.1493
 1971TIP3    H1 5856   4.258   1.059   1.467  0.0744  2.3253  0.3483
 1971TIP3    H2 5857   4.257   1.012   1.611  1.1233  3.1827  0.6481
 1972TIP3   OH2 5858   0.830   2.247   1.932 -0.1549 -0.1109  0.1223
 1972TIP3    H1 5859   0.853   2.278   1.845 -1.1522 -0.1252 -0.1646
 1972TIP3    H2 5860   0.734   2.249   1.933 -0.1594  1.5363  1.8007
 1973TIP3   OH2 5861   5.428   2.091   3.376 -0.1200  0.3595 -0.7508
 1973TIP3    H1 5862   5.410   2.010   3.424  0.4554  0.6612  0.0018
 1973TIP3    H2 5863   5.511   2.074   3.331  0.8964  1.0841  0.7651
 1974TIP3   OH2 5864   0.819   0.438   5.536  0.2309  0.6163  0.0031
 1974TIP3    H1 5865   0.780   0.351   5.525  2.4275 -0.9340  2.9362
 1974TIP3    H2 5866   0.838   0.467   5.447 -0.9127 -1.7374 -1.1080
 1975TIP3   OH2 5867   2.372   7.488   0.314 -0.2557  0.7337  0.2348
 1975TIP3    H1 5868   2.289   7.452   0.343  0.3823 -0.8638  0.1684
 1975TIP3    H2 5869   2.363   7.496   0.219  0.0730 -0.5995  0.0765
 1976TIP3   OH2 5870   3.456   4.512   4.801  0.0434 -0.3791  0.1126
 1976TIP3    H1 5871   3.409   4.560   4.869  1.4665  0.6216  0.4568
 1976TIP3    H2 5872   3.433   4.557   4.720 -0.9826 -1.0347  0.0242
 1977TIP3   OH2 5873   4.703   4.791   6.142  0.1701  0.4236 -0.1564
 1977TIP3    H1 5874   4.653   4.837   6.074 -0.8446 -1.3131 -0.6606
 1977TIP3    H2 5875   4.786   4.769   6.099 -1.1206 -2.1937 -1.5562
 1978TIP3   OH2 5876   7.003   0.120   1.394  0.2457 -0.2426 -0.3567
 1978TIP3    H1 5877   6.928   0.082   1.440  1.1424 -1.4900  0.1373
 1978TIP3    H2 5878   6.976   0.123   1.302 -0.2087 -1.2654 -0.2747
 1979TIP3   OH2 5879   5.574   7.599   3.847 -0.3558  0.1365  0.8437
 1979TIP3    H1 5880   5.584   7.608   3.942 -0.4127 -0.3958  0.9013
 1979TIP3    H2 5881   5.594   7.507   3.829  0.4035  0.4127  0.2418
 1980TIP3   OH2 5882   4.237   4.356   1.282  0.4465 -0.9228  0.1930
 1980TIP3    H1 5883   4.146   4.367   1.310  0.3837 -1.4545  0.2187
 1980TIP3    H2 5884   4.280   4.313   1.356  0.8034 -0.3794  0.3108
 1981TIP3   OH2 5885   6.983   3.738   0.521  0.5735  0.1238 -0.0514
 1981TIP3    H1 5886   6.981   3.746   0.426 -1.2420  2.1680  0.0873
 1981TIP3    H2 5887   6.980   3.828   0.553 -0.7516 -0.5567  1.9367
 1982TIP3   OH2 5888   2.779   6.445   4.482  0.0192 -0.0048 -0.4441
 1982TIP3    H1 5889   2.720   6.392   4.428 -1.5155  2.3284 -1.2334
 1982TIP3    H2 5890   2.799   6.522   4.428 -0.4710  1.7881  1.7435
 1983TIP3   OH2 5891   3.739   0.906   4.784  0.3294 -0.3153 -0.2928
 1983TIP3    H1 5892   3.802   0.884   4.852  1.1237 -0.7299 -1.1433
 1983TIP3    H2 5893   3.699   0.988   4.813  1.1183 -0.1478  0.3492
 1984TIP3   OH2 5894   6.116   4.023   3.515 -0.4901 -0.9753 -0.1686
 1984TIP3    H1 5895   6.184   4.070   3.468 -0.2563 -0.9935  0.1504
 1984TIP3    H2 5896   6.133   4.041   3.608 -0.8330 -1.0932 -0.0806
 1985TIP3   OH2 5897   7.145   0.690   4.582  0.3809 -0.0404 -0.1855
 1985TIP3    H1 5898   7.196   0.609   4.575  0.2330 -0.1689  0.2078
 1985TIP3    H2 5899   7.109   0.688   4.670 -0.4429 -0.0205 -0.5195
 1986TIP3   OH2 5900   0.470   5.659   3.003 -0.0807 -0.4116 -0.3374
 1986TIP3    H1 5901   0.412   5.588   3.030 -0.9189  0.7693  1.1117
 1986TIP3    H2 5902   0.412   5.730   2.976  0.7077  0.3228 -0.1712
 1987TIP3   OH2 5903   2.191   7.699   6.074 -0.2259 -0.5778  0.2421
 1987TIP3    H1 5904   2.244   7.769   6.037  1.6837 -0.4865  2.8919
 1987TIP3    H2 5905   2.133   7.673   6.003  1.2583  1.4284 -1.8449
 1988TIP3   OH2 5906   1.227   0.964   1.395  0.1969  0.1747  0.0330
 1988TIP3    H1 5907   1.192   1.028   1.457 -0.1933 -1.0872  1.1752
 1988TIP3    H2 5908   1.319   0.953   1.420  0.3315  0.4755 -0.3268
 1989TIP3   OH2 5909   3.961   3.617   4.347 -0.2304 -0.2877 -0.1628
 1989TIP3    H1 5910   4.023   3.546   4.365 -1.0980 -1.5949 -1.9360
 1989TIP3    H2 5911   3.970   3.677   4.421  2.7282 -0.6927 -0.0670
 1990TIP3   OH2 5912   7.528   0.947   1.375  0.2672  1.1231 -0.6050
 1990TIP3    H1 5913   7.481   0.922   1.295 -0.4037  0.2796  0.0429
 1990TIP3    H2 5914   7.462   0.989   1.430  0.4146  0.5077  0.0478
 1991TIP3   OH2 5915   2.933   4.503   0.598  0.2932 -0.3837  0.4498
 1991TIP3    H1 5916   2.913   4.595   0.581 -0.5173 -0.7889 -0.9016
 1991TIP3    H2 5917   2.847   4.462   0.608  0.6246 -1.1537  0.1603
 1992TIP3   OH2 5918   3.004   0.881   0.326 -0.4209 -0.1971 -0.2780
 1992TIP3    H1 5919   2.951   0.879   0.406 -1.0336 -1.9108 -0.6721
 1992TIP3    H2 5920   3.083   0.832   0.349  0.6009  1.5341  0.0184
 1993TIP3   OH2 5921   1.222   4.281   1.921 -0.3934 -0.2490 -0.0420
 1993TIP3    H1 5922   1.315   4.283   1.897 -0.3973  1.5964 -0.0744
 1993TIP3    H2 5923   1.216   4.337   1.999 -1.3657 -0.9816  0.4266
 1994TIP3   OH2 5924   1.932   5.140   1.485  0.1373 -0.1657 -0.8556
 1994TIP3    H1 5925   1.854   5.148   1.540  0.7879  1.2078 -0.0640
 1994TIP3    H2 5926   1.903   5.167   1.398 -0.2299  0.5732 -0.5143
 1995TIP3   OH2 5927   2.002   3.670   5.370  0.7836  0.0717  0.1801
 1995TIP3    H1 5928   2.044   3.673   5.284 -1.0892  0.2063 -0.7834
 1995TIP3    H2 5929   2.036   3.590   5.411 -0.2692 -1.4557 -1.7884
 1996TIP3   OH2 5930   5.709   2.807   4.220  0.0189 -0.0569 -0.2538
 1996TIP3    H1 5931   5.736   2.719   4.195  0.5914  0.2950 -0.9045
 1996TIP3    H2 5932   5.618   2.813   4.191  0.1382 -0.2531 -0.6655
 1997TIP3   OH2 5933   1.730   3.125   2.926  0.2526  0.7209  0.1932
 1997TIP3    H1 5934   1.768   3.106   2.840  1.0315  0.7797  0.5207
 1997TIP3    H2 5935   1.783   3.197   2.960  0.5566  0.0726  1.1278
 1998TIP3   OH2 5936   5.847   5.785   1.949 -0.5903 -0.2899  0.0692
 1998TIP3    H1 5937   5.856   5.721   2.020 -1.0593  2.5848  2.9380
 1998TIP3    H2 5938   5.770   5.837   1.972  0.0327  1.6557 -1.8337
 1999TIP3   OH2 5939   2.438   2.602   2.038 -0.0489 -0.8131  0.2566
 1999TIP3    H1 5940   2.434   2.578   2.131  1.4816 -0.2105  0.5102
 1999TIP3    H2 5941   2.532   2.606   2.019 -0.3261  0.2651 -0.9959
 2000TIP3   OH2 5942   6.275   0.332   5.002 -0.0042 -0.5592  0.0746
 2000TIP3    H1 5943   6.215   0.366   4.936  0.6154  1.0269  0.2916
 2000TIP3    H2 5944   6.313   0.254   4.962 -1.7976 -1.3096 -0.2632
 2001TIP3   OH2 5945   6.961   0.272   2.701 -0.1486  0.4609 -0.4125
 2001TIP3    H1 5946   6.956   0.332   2.627  0.2021 -0.8985 -1.5857
 2001TIP3    H2 5947   7.002   0.193   2.665  0.0157 -0.2385  1.2351
 2002TIP3   OH2 5948   7.117   6.754   4.498 -0.6407  0.0381 -0.1284
 2002TIP3    H1 5949   7.075   6.681   4.452 -2.9127  0.5364  1.0046
 2002TIP3    H2 5950   7.048   6.821   4.504  1.0482  1.8654 -0.1835
 2003TIP3   OH2 5951   0.226   3.053   4.924  0.6048  0.1064  0.3683
 2003TIP3    H1 5952   0.221   3.051   4.829 -1.9712 -2.4072  0.4380
 2003TIP3    H2 5953   0.196   3.140   4.948  1.2577  0.7624 -1.0725
 2004TIP3   OH2 5954   5.308   2.988   6.082 -0.0261 -0.2673 -0.2323
 2004TIP3    H1 5955   5.237   2.928   6.060  0.8254 -1.1917 -0.5312
 2004TIP3    H2 5956   5.290   3.016   6.171 -2.7546  2.4160 -1.4565
 2005TIP3   OH2 5957   0.774   0.512   0.298  0.4846  0.3896 -0.1667
 2005TIP3    H1 5958   0.700   0.478   0.348  1.0857 -0.2357  0.3009
 2005TIP3    H2 5959   0.793   0.597   0.339  0.4962  0.2215  0.1777
 2006TIP3   OH2 5960   5.908   2.036   4.874  0.2561  0.0993  0.0524
 2006TIP3    H1 5961   5.937   2.058   4.786 -1.0386 -1.0927 -0.7205
 2006TIP3    H2 5962   5.869   2.116   4.908 -1.3750 -0.0319 -1.3992
 2007TIP3   OH2 5963   6.922   2.418   1.053  0.9912 -0.2976  0.2422
 2007TIP3    H1 5964   6.853   2.372   1.004  0.5956 -0.9766  1.4001
 2007TIP3    H2 5965   6.925   2.373   1.137  0.9248  1.5169  1.2481
 2008TIP3   OH2 5966   6.619   5.821   3.888  0.4514  0.0395  0.6327
 2008TIP3    H1 5967   6.532   5.781   3.892  0.1737  0.5623 -0.0822
 2008TIP3    H2 5968   6.602   5.914   3.874  1.1272  0.1296  0.4029
 2009TIP3   OH2 5969   6.384   1.794   6.475 -0.0516 -0.1011  0.0663
 2009TIP3    H1 5970   6.377   1.762   6.565 -0.8353  1.3629  0.5581
 2009TIP3    H2 5971   6.302   1.767   6.434 -1.4668  2.4708  0.9438
 2010TIP3   OH2 5972   7.305   1.177   2.750 -0.1760  0.0187  0.6314
 2010TIP3    H1 5973   7.215   1.148   2.737 -0.7180  1.0198  1.9378
 2010TIP3    H2 5974   7.298   1.249   2.812  1.5448  0.0604  0.8191
 2011TIP3   OH2 5975   1.594   2.068   2.183 -0.2229  0.1361 -0.2897
 2011TIP3    H1 5976   1.502   2.049   2.201 -0.1469 -1.8709 -1.5872
 2011TIP3    H2 5977   1.632   1.982   2.160  1.6620  1.1051 -1.0394
 2012TIP3   OH2 5978   5.896   7.593   3.767 -0.6361 -0.0835  0.2487
 2012TIP3    H1 5979   5.912   7.672   3.820  0.8143 -0.7488  0.8567
 2012TIP3    H2 5980   5.875   7.525   3.831  2.2772 -1.1873  0.1540
 2013TIP3   OH2 5981   7.237   7.516   3.519 -0.1144 -0.1662 -0.4335
 2013TIP3    H1 5982   7.284   7.443   3.479  1.0530  0.5100 -0.3523
 2013TIP3    H2 5983   7.164   7.475   3.565 -0.3246 -1.1346 -1.5772
 2014TIP3   OH2 5984   3.117   3.128   3.780  0.0456  0.4650 -0.0658
 2014TIP3    H1 5985   3.069   3.072   3.842  0.1842  0.5048  0.0773
 2014TIP3    H2 5986   3.158   3.194   3.835 -1.1321  1.4620 -0.3410
 2015TIP3   OH2 5987   6.723   6.971   4.651 -0.3785 -0.0654 -0.3079
 2015TIP3    H1 5988   6.713   6.876   4.640 -1.2106  0.0955 -1.0956
 2015TIP3    H2 5989   6.634   7.003   4.662 -0.0812  0.6107  0.1570
 2016TIP3   OH2 5990   2.569   5.285   0.047 -0.8340  0.0728 -0.2585
 2016TIP3    H1 5991   2.645   5.292  -0.010 -0.0853 -0.3903  0.6619
 2016TIP3    H2 5992   2.589   5.341   0.122  1.0195 -3.8316  2.5493
 2017TIP3   OH2 5993   5.205   4.320   3.964 -0.6336  0.0453 -0.5046
 2017TIP3    H1 5994   5.227   4.245   3.909 -0.9740 -0.6650  0.2917
 2017TIP3    H2 5995   5.171   4.386   3.904 -1.0437 -0.7228 -1.1358
 2018TIP3   OH2 5996   7.243   6.075   1.039 -0.5746  0.2908  0.0017
 2018TIP3    H1 5997   7.227   6.169   1.050 -1.9803 -0.0301  0.9474
 2018TIP3    H2 5998   7.176   6.032   1.092 -0.8343 -1.2731 -1.4973
 2019TIP3   OH2 5999   3.262   6.223   1.680  0.1864  0.0421  0.2823
 2019TIP3    H1 6000   3.238   6.216   1.773  0.3588  1.5779  0.4701
 2019TIP3    H2 6001   3.191   6.181   1.633 -0.1128 -0.3841  1.0954
 2020TIP3   OH2 6002   5.411   6.508   6.372 -0.0177 -0.1508  0.1856
 2020TIP3    H1 6003   5.476   6.568   6.409 -1.4886  0.8130  1.2830
 2020TIP3    H2 6004   5.446   6.421   6.391  0.7895  0.3506  1.0532
 2021TIP3   OH2 6005   6.520   4.950   4.045  0.1199 -0.8861  0.2724
 2021TIP3    H1 6006   6.541   4.857   4.030 -1.0733 -1.1663  0.2675
 2021TIP3    H2 6007   6.471   4.950   4.127 -0.0925 -0.2801  0.1461
 2022TIP3   OH2 6008   2.563   5.655   1.340  0.0635 -0.6502  0.1864
 2022TIP3    H1 6009   2.620   5.660   1.264  0.3919 -0.1554  0.4573
 2022TIP3    H2 6010   2.505   5.730   1.332 -0.6349 -1.2090 -0.1424
 2023TIP3   OH2 6011   3.175   7.486   5.699 -0.5954  0.6401 -0.5041
 2023TIP3    H1 6012   3.198   7.493   5.606  1.6537 -1.1422 -0.1585
 2023TIP3    H2 6013   3.221   7.559   5.740  0.0162  0.2823 -0.5449
 2024TIP3   OH2 6014   3.908   5.844   4.566 -0.0563  0.0090  0.1219
 2024TIP3    H1 6015   3.839   5.840   4.632  1.5153 -0.2148  1.8475
 2024TIP3    H2 6016   3.933   5.936   4.563  1.1058 -0.2378  1.2483
 2025TIP3   OH2 6017   7.460   7.631   0.561 -0.2787 -0.7130 -0.6042
 2025TIP3    H1 6018   7.453   7.597   0.650 -2.3522  0.7399 -0.1249
 2025TIP3    H2 6019   7.477   7.724   0.573  0.9603 -0.7593 -1.7941
 2026TIP3   OH2 6020   4.171   5.595   6.736 -0.1939 -0.6720  0.4009
 2026TIP3    H1 6021   4.252   5.613   6.689 -0.4488 -0.3235  0.0874
 2026TIP3    H2 6022   4.133   5.519   6.691  0.4472 -1.4750  1.1759
 2027TIP3   OH2 6023   1.760   1.571   6.578  0.1679  0.0462 -0.3777
 2027TIP3    H1 6024   1.724   1.491   6.539  0.4453 -0.5808  0.5913
 2027TIP3    H2 6025   1.753   1.555   6.673  1.5573  0.5641 -0.1716
 2028TIP3   OH2 6026   2.077   5.954   1.666 -0.2210  0.2653 -0.3383
 2028TIP3    H1 6027   2.092   5.905   1.747  0.7211  0.3854 -0.4288
 2028TIP3    H2 6028   2.025   6.030   1.693 -0.2414  0.1044  0.0805
 2029TIP3   OH2 6029   1.730   0.369   1.280  0.2712  0.0211  0.1034
 2029TIP3    H1 6030   1.772   0.454   1.293  1.0323 -0.5197  1.4017
 2029TIP3    H2 6031   1.771   0.334   1.201  1.4687  0.0129  0.6940
 2030TIP3   OH2 6032   0.907   1.755   5.608  0.0580  0.2333 -0.1467
 2030TIP3    H1 6033   0.953   1.677   5.640 -0.8433 -0.0964  0.3802
 2030TIP3    H2 6034   0.884   1.804   5.688 -1.8148 -0.3705 -0.2719
 2031TIP3   OH2 6035   4.860   6.770   2.958  0.3249  0.4104  0.0396
 2031TIP3    H1 6036   4.949   6.741   2.981  0.0004  0.9555  2.2084
 2031TIP3    H2 6037   4.833   6.710   2.888  1.7279 -0.9638  0.6001
 2032TIP3   OH2 6038   1.238   7.081   2.333 -0.0041 -0.0206  0.4411
 2032TIP3    H1 6039   1.193   7.158   2.299 -1.3057  1.7178  5.3317
 2032TIP3    H2 6040   1.330   7.105   2.334 -0.4471  1.9810  2.5653
 2033TIP3   OH2 6041   8.262   7.547   3.680 -0.3555 -0.1971  0.2060
 2033TIP3    H1 6042   8.275   7.485   3.751  1.0067 -2.1771 -1.6495
 2033TIP3    H2 6043   8.197   7.505   3.623  0.2134  0.2957 -0.8325
 2034TIP3   OH2 6044   2.953   1.031   1.845 -0.4533 -0.0919  0.0287
 2034TIP3    H1 6045   2.936   1.006   1.935 -0.1891 -0.0640  0.0877
 2034TIP3    H2 6046   2.882   0.991   1.795  0.6787 -2.1124 -0.0527
 2035TIP3   OH2 6047   2.762   4.026   4.951  0.9391  0.0278  0.0562
 2035TIP3    H1 6048   2.765   3.988   4.863 -0.8660 -1.3741  0.5292
 2035TIP3    H2 6049   2.777   4.120   4.937 -3.4775  0.6406 -2.3695
 2036TIP3   OH2 6050   1.641   5.585   0.918 -0.3858  0.1268  0.0183
 2036TIP3    H1 6051   1.580   5.549   0.853 -0.4554  0.5687 -0.1611
 2036TIP3    H2 6052   1.726   5.583   0.875 -0.0906 -1.4105  0.6178
 2037TIP3   OH2 6053   5.167   3.264   3.319  0.1127  0.5940  0.3125
 2037TIP3    H1 6054   5.217   3.213   3.382 -0.4514 -0.9330 -0.4281
 2037TIP3    H2 6055   5.102   3.203   3.285 -1.0369  2.0089 -0.1186
 2038TIP3   OH2 6056   2.419   6.193   3.576  0.6619 -0.7080  0.4877
 2038TIP3    H1 6057   2.346   6.254   3.574  0.8876 -0.4622 -1.1697
 2038TIP3    H2 6058   2.471   6.221   3.652  0.5708  0.9355 -0.0108
 2039TIP3   OH2 6059   2.520   5.435   3.417  0.3528  0.6874  0.5395
 2039TIP3    H1 6060   2.568   5.378   3.477  0.5835  0.1414 -0.1505
 2039TIP3    H2 6061   2.567   5.518   3.421  2.5620 -0.3427 -1.4861
 2040TIP3   OH2 6062   5.988   4.676   4.914  0.1849 -0.7256 -0.0047
 2040TIP3    H1 6063   5.911   4.636   4.874  1.3628 -2.8682 -0.2578
 2040TIP3    H2 6064   5.960   4.697   5.003 -0.7131 -1.4588 -0.0932
 2041TIP3   OH2 6065   4.827   5.566   5.136 -0.5700 -0.2259 -0.1537
 2041TIP3    H1 6066   4.821   5.660   5.118 -0.5426 -0.3581 -0.9034
 2041TIP3    H2 6067   4.838   5.526   5.050  2.3341 -0.7010  0.3347
 2042TIP3   OH2 6068   4.183   2.017   4.264 -0.1254 -0.0722  0.5231
 2042TIP3    H1 6069   4.114   1.998   4.200 -0.3654 -0.1908  0.8144
 2042TIP3    H2 6070   4.144   1.994   4.348  0.7632 -1.5393  0.5711
 2043TIP3   OH2 6071   4.594   1.381   1.735 -0.4052 -0.1889  0.7255
 2043TIP3    H1 6072   4.544   1.329   1.797 -0.3711 -2.2778 -0.9010
 2043TIP3    H2 6073   4.661   1.322   1.702 -0.0053  1.0381 -0.8136
 2044TIP3   OH2 6074   5.440   6.090   3.346 -0.3512 -0.3689  0.3247
 2044TIP3    H1 6075   5.522   6.099   3.395  0.5085 -0.4221 -1.0496
 2044TIP3    H2 6076   5.380   6.151   3.388  0.2841 -0.5606  1.5672
 2045TIP3   OH2 6077   4.771   3.660   3.146  0.1429  0.2135 -0.1053
 2045TIP3    H1 6078   4.799   3.578   3.187 -0.9618  0.5359  1.3705
 2045TIP3    H2 6079   4.739   3.634   3.060 -0.1064 -0.9121  0.3085
 2046TIP3   OH2 6080   5.545   2.455   4.916 -0.3839 -0.2401  0.1063
 2046TIP3    H1 6081   5.541   2.543   4.880  1.6493  0.0161  0.4014
 2046TIP3    H2 6082   5.543   2.398   4.839  1.5761  0.2154 -0.3269
 2047TIP3   OH2 6083   0.161   4.366   2.487  0.1352 -0.0350  0.7969
 2047TIP3    H1 6084   0.171   4.341   2.395 -3.1244 -0.3350  0.4218
 2047TIP3    H2 6085   0.141   4.284   2.532  2.6015 -0.0528  2.0475
 2048TIP3   OH2 6086   5.563   7.526   2.467 -0.4036  0.4697  0.2876
 2048TIP3    H1 6087   5.587   7.612   2.501  1.3428 -0.9083  2.9227
 2048TIP3    H2 6088   5.514   7.485   2.539 -0.6713 -0.9532 -0.6672
 2049TIP3   OH2 6089   2.721   4.076   3.844  0.5277  0.3996  0.3307
 2049TIP3    H1 6090   2.688   4.151   3.893  2.1015  2.7128 -1.8442
 2049TIP3    H2 6091   2.647   4.047   3.791 -0.0587  0.4884  1.0854
 2050TIP3   OH2 6092   1.693   5.531   3.410  0.6485 -0.1134 -0.0146
 2050TIP3    H1 6093   1.671   5.477   3.486 -0.8978 -1.1274 -1.1184
 2050TIP3    H2 6094   1.771   5.580   3.437  1.1104 -1.6463  1.6401
 2051TIP3   OH2 6095   3.359   6.796   3.154  0.3145  0.0277  0.1806
 2051TIP3    H1 6096   3.332   6.768   3.241  0.3616  1.5738  0.7272
 2051TIP3    H2 6097   3.379   6.715   3.107  1.3167 -0.7849  1.9437
 2052TIP3   OH2 6098   1.579   3.353   1.473  0.1308 -0.2562 -0.4393
 2052TIP3    H1 6099   1.656   3.399   1.440  1.6490 -1.3497  1.3403
 2052TIP3    H2 6100   1.595   3.261   1.454 -1.2061 -0.4300 -0.8533
 2053TIP3   OH2 6101   7.187   7.312   2.774 -0.3711 -0.1596 -0.2744
 2053TIP3    H1 6102   7.281   7.305   2.787 -0.3429  1.6250  0.7109
 2053TIP3    H2 6103   7.164   7.232   2.726  1.9974  0.4717 -2.7276
 2054TIP3   OH2 6104   0.010   4.767   2.026  0.5820 -0.5332 -0.0115
 2054TIP3    H1 6105   0.104   4.770   2.043  0.7080  0.0023 -0.7397
 2054TIP3    H2 6106   0.003   4.765   1.931 -0.1798  2.4137 -0.1073
 2055TIP3   OH2 6107   3.770   3.361   1.233  0.2744  0.0802 -0.4705
 2055TIP3    H1 6108   3.791   3.377   1.141 -1.9227  0.6428 -0.9313
 2055TIP3    H2 6109   3.820   3.282   1.255 -0.2003 -0.8857 -2.5738
 2056TIP3   OH2 6110   0.860   2.834   5.527 -0.1295  0.0317 -0.1128
 2056TIP3    H1 6111   0.912   2.914   5.534 -1.5287  1.1516 -1.5314
 2056TIP3    H2 6112   0.826   2.820   5.615 -0.4358  1.4534  0.0281
 2057TIP3   OH2 6113   6.560   5.326   2.403 -0.0391 -0.4722  0.0413
 2057TIP3    H1 6114   6.487   5.325   2.343 -0.1977  1.5122  0.1510
 2057TIP3    H2 6115   6.637   5.339   2.348 -0.0071 -0.3056  0.1249
 2058TIP3   OH2 6116   4.522   5.477   0.760 -0.0420 -0.5169 -0.0782
 2058TIP3    H1 6117   4.438   5.459   0.719  0.4345  1.3202 -2.0482
 2058TIP3    H2 6118   4.524   5.573   0.768  1.1301 -0.6385  1.6132
 2059TIP3   OH2 6119   5.417   3.266   6.375  0.0191 -0.6860 -0.2333
 2059TIP3    H1 6120   5.458   3.347   6.406 -0.8811 -0.0586 -0.6427
 2059TIP3    H2 6121   5.464   3.245   6.294  1.1511 -1.3333  0.5514
 2060TIP3   OH2 6122   7.055   1.752   1.605  0.4404  0.5143  0.0926
 2060TIP3    H1 6123   7.110   1.826   1.580  0.4137  0.1394 -1.1769
 2060TIP3    H2 6124   7.070   1.687   1.536 -0.9268  0.0705  0.1746
 2061TIP3   OH2 6125   3.709   0.721   5.175  0.2817  0.0887 -0.0240
 2061TIP3    H1 6126   3.740   0.661   5.107 -1.1715 -0.8983  0.1401
 2061TIP3    H2 6127   3.623   0.687   5.200 -0.2110  1.7383  0.7041
 2062TIP3   OH2 6128   3.233   1.511   2.515 -0.0862 -0.7112  0.3299
 2062TIP3    H1 6129   3.250   1.418   2.529 -2.6485 -0.9679  2.6263
 2062TIP3    H2 6130   3.295   1.556   2.572  2.2097 -0.8441 -1.9297
 2063TIP3   OH2 6131   1.737   1.029   4.530  0.6038  0.0803 -0.0872
 2063TIP3    H1 6132   1.658   1.082   4.535  0.8191  0.2961  1.5396
 2063TIP3    H2 6133   1.716   0.960   4.467 -0.3496  0.9711 -0.7723
 2064TIP3   OH2 6134   7.832   3.578   2.888  0.2838  0.3116 -0.6862
 2064TIP3    H1 6135   7.867   3.534   2.965 -0.0311  1.6347  0.2403
 2064TIP3    H2 6136   7.748   3.615   2.917  0.8614  2.1123 -1.2114
 2065TIP3   OH2 6137   4.268   7.391   6.267  0.0621 -0.2794 -0.4167
 2065TIP3    H1 6138   4.179   7.425   6.281  0.2870 -0.4371  1.6750
 2065TIP3    H2 6139   4.309   7.454   6.208 -1.5219 -0.3886 -1.7187
 2066TIP3   OH2 6140   3.710   0.365   3.590  0.1141  0.3064 -0.0603
 2066TIP3    H1 6141   3.625   0.410   3.597 -0.1758 -0.3208  0.6151
 2066TIP3    H2 6142   3.774   0.432   3.613 -0.0991  1.0781 -1.5775
 2067TIP3   OH2 6143   0.128   4.370   5.809  0.2908 -0.3225  0.2729
 2067TIP3    H1 6144   0.060   4.379   5.876  0.8409  0.3437  0.7439
 2067TIP3    H2 6145   0.082   4.388   5.726 -0.2594 -0.5819  0.5185
 2068TIP3   OH2 6146   8.060   6.224   4.978  0.4021  0.0478  0.0282
 2068TIP3    H1 6147   8.035   6.164   5.048  0.2117 -0.8119 -0.7520
 2068TIP3    H2 6148   8.025   6.309   5.005 -2.3668 -0.8332 -0.4247
 2069TIP3   OH2 6149   5.380   5.913   2.518  0.0217 -0.1819  0.5194
 2069TIP3    H1 6150   5.450   5.851   2.537  0.3860  0.1470  0.2623
 2069TIP3    H2 6151   5.339   5.880   2.438  0.6788  0.2967 -0.0238
 2070TIP3   OH2 6152   0.835   1.762   3.167  0.3446 -0.0221  0.3196
 2070TIP3    H1 6153   0.853   1.736   3.077  1.6245 -0.1772  0.6060
 2070TIP3    H2 6154   0.921   1.766   3.209 -0.3952 -3.3873  2.4819
 2071TIP3   OH2 6155   3.531   2.017   6.006 -0.1140 -0.6248  0.2075
 2071TIP3    H1 6156   3.465   1.952   5.983 -2.3608  1.5850  0.0429
 2071TIP3    H2 6157   3.481   2.094   6.033  2.4161  1.2329 -0.0495
 2072TIP3   OH2 6158   7.020   5.281   6.190 -0.3699  0.7642  0.1920
 2072TIP3    H1 6159   7.100   5.271   6.138  0.0110 -2.8327  1.1620
 2072TIP3    H2 6160   7.047   5.333   6.266  0.2898  1.9150 -0.7975
 2073TIP3   OH2 6161   0.504   6.425   4.293  0.4558  0.6097 -0.0818
 2073TIP3    H1 6162   0.458   6.466   4.219 -0.1798  1.5609  0.7995
 2073TIP3    H2 6163   0.434   6.407   4.356  0.8411 -1.1965 -0.1464
 2074TIP3   OH2 6164   7.366   1.629   5.001  0.2583  0.0528 -0.6795
 2074TIP3    H1 6165   7.302   1.561   5.025 -0.6280  1.5593  1.5000
 2074TIP3    H2 6166   7.442   1.609   5.055 -0.9834  2.2347  2.1207
 2075TIP3   OH2 6167   0.176   2.813   4.465 -0.0231  0.1356 -0.5306
 2075TIP3    H1 6168   0.160   2.725   4.431 -1.0216  0.5092 -1.0951
 2075TIP3    H2 6169   0.255   2.842   4.420  1.4035 -1.1210  1.0107
 2076TIP3   OH2 6170   0.459   4.835   1.192  0.3716 -0.5622  0.3545
 2076TIP3    H1 6171   0.548   4.845   1.224  0.5531 -0.4958 -0.1594
 2076TIP3    H2 6172   0.405   4.834   1.271  0.7823 -0.1419  0.6446
 2077TIP3   OH2 6173   5.630   1.549   4.281  0.7830  0.1698 -0.0067
 2077TIP3    H1 6174   5.558   1.509   4.231  1.3438  0.2040 -0.8742
 2077TIP3    H2 6175   5.645   1.633   4.238  1.2369  0.2287  0.2593
 2078TIP3   OH2 6176   1.258   2.215   6.119  0.0661 -0.7111  0.4012
 2078TIP3    H1 6177   1.268   2.198   6.026 -0.0975 -0.3004  0.3038
 2078TIP3    H2 6178   1.289   2.305   6.130  2.0183 -1.4288  1.0959
 2079TIP3   OH2 6179   5.952   6.507   2.792  0.5065  0.4017  0.1810
 2079TIP3    H1 6180   6.041   6.510   2.827  0.6160  1.2451 -0.1617
 2079TIP3    H2 6181   5.895   6.520   2.868  0.7519  2.5821  0.0406
 2080TIP3   OH2 6182   6.000   2.931   2.781  0.5655  0.1981 -0.3257
 2080TIP3    H1 6183   5.915   2.897   2.753  0.0575 -0.3039  1.6847
 2080TIP3    H2 6184   6.000   3.022   2.749 -0.9118  0.3376 -0.0342
 2081TIP3   OH2 6185   3.978   6.539   0.192  0.1514  0.1790 -0.1973
 2081TIP3    H1 6186   4.070   6.561   0.177  0.0647  2.6601  2.1877
 2081TIP3    H2 6187   3.929   6.610   0.151 -0.5313  0.5119  1.1415
 2082TIP3   OH2 6188   4.057   5.040   1.799 -0.4764  0.0426  0.4750
 2082TIP3    H1 6189   3.998   5.087   1.741  0.3160  0.7539  0.2298
 2082TIP3    H2 6190   4.112   5.108   1.838  1.5144 -0.7495 -0.8067
 2083TIP3   OH2 6191   4.755   0.880   4.665  0.1909 -0.2357  0.1104
 2083TIP3    H1 6192   4.841   0.915   4.689 -0.3112  2.5366 -1.6753
 2083TIP3    H2 6193   4.767   0.846   4.576 -0.8924  1.9908 -0.9696
 2084TIP3   OH2 6194   5.689   5.528   4.166  0.8476 -0.2815 -0.1612
 2084TIP3    H1 6195   5.706   5.472   4.090  2.1124 -0.0643 -0.0619
 2084TIP3    H2 6196   5.775   5.544   4.204  0.1924 -0.8278  1.6561
 2085TIP3   OH2 6197   4.360   3.951   5.936 -0.1243 -0.2188 -0.2947
 2085TIP3    H1 6198   4.448   3.981   5.959 -0.3375  0.3817 -0.2435
 2085TIP3    H2 6199   4.350   3.976   5.844 -0.4440  0.2079 -0.1455
 2086TIP3   OH2 6200   2.532   1.611   6.210 -0.3812 -0.4341  0.3048
 2086TIP3    H1 6201   2.557   1.608   6.118  1.0166  2.9924  0.4236
 2086TIP3    H2 6202   2.463   1.545   6.219 -0.7400 -0.6925 -3.2042
 2087TIP3   OH2 6203   5.237   3.695   4.976 -0.3974 -0.5533  0.4178
 2087TIP3    H1 6204   5.141   3.702   4.967 -0.4918 -0.9844  1.0223
 2087TIP3    H2 6205   5.265   3.784   4.996 -0.6039 -0.3156 -0.3143
 2088TIP3   OH2 6206   4.340   6.488   5.870  0.2576  0.4190  0.0803
 2088TIP3    H1 6207   4.333   6.480   5.775 -2.1961  1.4281  0.0916
 2088TIP3    H2 6208   4.299   6.572   5.890 -0.1734 -0.2082  2.1021
 2089TIP3   OH2 6209   5.715   5.207   5.950 -0.1121  0.0767 -0.2578
 2089TIP3    H1 6210   5.743   5.242   6.034 -0.7688 -0.2475  0.1006
 2089TIP3    H2 6211   5.699   5.284   5.896 -2.5541  0.4387  0.8465
 2090TIP3   OH2 6212   7.660   0.864   5.737  0.0969  0.2190 -0.9557
 2090TIP3    H1 6213   7.701   0.828   5.816  2.1607  1.2656 -1.5046
 2090TIP3    H2 6214   7.624   0.948   5.765  1.9458  1.1909 -1.3536
 2091TIP3   OH2 6215   5.472   0.164   3.597  0.3120  0.2332  0.2245
 2091TIP3    H1 6216   5.514   0.091   3.643  1.4274 -0.3567 -1.5975
 2091TIP3    H2 6217   5.422   0.123   3.527  0.7225  1.1678 -0.6523
 2092TIP3   OH2 6218   7.781   2.307   4.899 -0.3988 -0.0707  0.3075
 2092TIP3    H1 6219   7.833   2.227   4.912  2.1960  1.0047 -2.2139
 2092TIP3    H2 6220   7.727   2.288   4.822 -0.3713  0.3091  0.1920
 2093TIP3   OH2 6221   5.911   6.396   2.483  0.0572 -0.1500  0.1352
 2093TIP3    H1 6222   5.964   6.450   2.543 -0.1387  0.1261  0.0603
 2093TIP3    H2 6223   5.929   6.432   2.397 -1.6709  1.1550  0.2773
 2094TIP3   OH2 6224   6.261   3.953   6.134 -0.0025  0.3277 -0.0943
 2094TIP3    H1 6225   6.270   4.048   6.137 -2.6052  0.6159  1.5095
 2094TIP3    H2 6226   6.295   3.922   6.219  0.4925 -0.1748 -0.4611
 2095TIP3   OH2 6227   6.555   4.381   3.859 -0.5492 -0.0042 -0.6217
 2095TIP3    H1 6228   6.633   4.327   3.844  0.3210  1.1713 -0.5102
 2095TIP3    H2 6229   6.549   4.437   3.781 -1.2920 -0.0932 -0.6328
 2096TIP3   OH2 6230   1.295   1.844   1.135 -0.2839 -0.1697 -0.7513
 2096TIP3    H1 6231   1.276   1.774   1.072  1.8436 -1.2063 -0.3312
 2096TIP3    H2 6232   1.245   1.821   1.213  1.5357 -2.1764 -0.0702
 2097TIP3   OH2 6233   5.090   7.565   4.966  0.3593  0.1908 -0.2735
 2097TIP3    H1 6234   5.111   7.619   4.890  0.5047  0.5242 -0.0006
 2097TIP3    H2 6235   5.176   7.545   5.005  0.3155 -0.3355 -0.4378
 2098TIP3   OH2 6236   0.579   1.382   3.941 -0.0556 -0.5360 -0.4963
 2098TIP3    H1 6237   0.617   1.400   4.027 -1.0732  0.5101 -0.2422
 2098TIP3    H2 6238   0.652   1.349   3.890  1.5341  2.3206 -0.3310
 2099TIP3   OH2 6239   5.313   2.087   2.568  0.0769 -0.0279 -0.1821
 2099TIP3    H1 6240   5.231   2.042   2.548 -0.5734  0.4985  1.1592
 2099TIP3    H2 6241   5.317   2.160   2.506 -1.6785  1.3311  1.1984
 2100TIP3   OH2 6242   6.401   1.963   1.163 -0.3144 -0.2390 -0.3444
 2100TIP3    H1 6243   6.396   1.989   1.255 -1.1619  1.0259 -0.7113
 2100TIP3    H2 6244   6.389   1.869   1.164 -0.2246 -0.2569  0.8484
 2101TIP3   OH2 6245   7.406   0.110   1.217  0.6693 -0.1239 -0.0277
 2101TIP3    H1 6246   7.354   0.095   1.295 -0.3613 -0.8567 -0.8265
 2101TIP3    H2 6247   7.406   0.205   1.206 -0.2730 -0.0903  0.1587
 2102TIP3   OH2 6248   0.676   0.023   3.747  0.8695  0.0130 -0.0325
 2102TIP3    H1 6249   0.605   0.080   3.718  1.0029 -0.3843 -1.1769
 2102TIP3    H2 6250   0.715  -0.010   3.666  0.0455 -2.6388  0.5371
 2103TIP3   OH2 6251   1.052   6.647   2.848 -0.0123  0.2915  0.3826
 2103TIP3    H1 6252   0.978   6.693   2.887 -0.6271  0.0736 -0.5248
 2103TIP3    H2 6253   1.121   6.713   2.842 -0.4355  0.7345  0.3605
 2104TIP3   OH2 6254   7.866   7.634   0.956  0.0329 -0.4393  0.1293
 2104TIP3    H1 6255   7.904   7.664   0.873  0.2321 -1.2482 -0.0834
 2104TIP3    H2 6256   7.854   7.714   1.007  1.5345 -0.0848 -0.0039
 2105TIP3   OH2 6257   6.974   0.833   3.237  0.3920  0.7466 -0.3177
 2105TIP3    H1 6258   6.907   0.893   3.205  0.5984  1.8925  1.2614
 2105TIP3    H2 6259   6.985   0.857   3.329  1.6467 -0.6609 -0.0652
 2106TIP3   OH2 6260   3.710   0.356   0.622  0.0436 -0.0244  0.4759
 2106TIP3    H1 6261   3.736   0.382   0.534  1.3418  0.1742  0.8910
 2106TIP3    H2 6262   3.769   0.284   0.644  0.0258  0.2136  1.3360
 2107TIP3   OH2 6263   5.722   2.101   4.333 -0.4067 -0.1984  0.2396
 2107TIP3    H1 6264   5.639   2.126   4.372 -0.4754  1.6323 -0.9645
 2107TIP3    H2 6265   5.705   2.098   4.239  0.7315 -0.4008  0.0216
 2108TIP3   OH2 6266   2.967   4.873   2.864 -0.2583 -0.2396 -0.0009
 2108TIP3    H1 6267   2.950   4.933   2.937  0.9337  1.0453 -0.7417
 2108TIP3    H2 6268   3.061   4.857   2.868 -0.6836 -3.1491  0.9569
 2109TIP3   OH2 6269   3.218   4.651   0.342 -0.0377  0.1091 -0.4449
 2109TIP3    H1 6270   3.230   4.745   0.353  1.9375 -0.0519 -0.7684
 2109TIP3    H2 6271   3.142   4.630   0.395 -0.8012  1.9506 -0.7397
 2110TIP3   OH2 6272   0.976   7.335   2.768  0.1949  0.0156 -0.0229
 2110TIP3    H1 6273   0.921   7.413   2.760  0.6314  0.2821 -0.4822
 2110TIP3    H2 6274   1.039   7.342   2.696  2.5634  1.1280  1.9919
 2111TIP3   OH2 6275   3.805   5.857   0.070 -0.4334  0.1037 -0.2103
 2111TIP3    H1 6276   3.820   5.869   0.163  2.5901  1.2926 -0.7607
 2111TIP3    H2 6277   3.758   5.936   0.043 -0.6736  0.0922  0.1718
 2112TIP3   OH2 6278   4.945   0.813   0.245  0.3290  0.0987 -0.0268
 2112TIP3    H1 6279   4.940   0.900   0.206 -1.1769  0.5091  1.0084
 2112TIP3    H2 6280   4.983   0.828   0.332  0.9811 -0.4345 -0.2032
 2113TIP3   OH2 6281   6.545   2.496   0.098  0.1046  0.2649 -0.8974
 2113TIP3    H1 6282   6.520   2.511   0.189  1.9794 -1.5221 -0.0021
 2113TIP3    H2 6283   6.465   2.465   0.056 -0.5453  0.1299  0.3891
 2114TIP3   OH2 6284   0.044   0.817   4.915  0.3496 -0.0765 -0.3770
 2114TIP3    H1 6285   0.071   0.900   4.954 -0.3736 -0.3280  0.6909
 2114TIP3    H2 6286  -0.036   0.838   4.867 -0.4815 -0.3498  0.8377
 2115TIP3   OH2 6287   5.465   3.050   1.965 -0.1120 -0.0778 -0.0587
 2115TIP3    H1 6288   5.498   2.967   1.930 -2.1692 -0.8104 -0.4167
 2115TIP3    H2 6289   5.476   3.112   1.894 -0.4387 -0.5590 -0.5381
 2116TIP3   OH2 6290   4.944   1.472   2.996  0.3505  0.0834  0.1988
 2116TIP3    H1 6291   4.950   1.565   2.975  0.0968 -0.2960 -1.6580
 2116TIP3    H2 6292   5.015   1.457   3.059  2.1511  0.9975 -1.5174
 2117TIP3   OH2 6293   3.090   6.766   5.630  0.1607 -0.3254 -0.3463
 2117TIP3    H1 6294   3.090   6.816   5.548 -1.2858  1.5368  0.7159
 2117TIP3    H2 6295   2.998   6.746   5.646  0.2968  0.2032  1.2913
 2118TIP3   OH2 6296   3.855   3.112   4.704 -0.1445  0.6649  0.7246
 2118TIP3    H1 6297   3.921   3.116   4.635 -0.0287 -0.2568  0.7698
 2118TIP3    H2 6298   3.789   3.050   4.672  1.2527 -1.9745  2.5123
 2119TIP3   OH2 6299   0.420   2.106   0.399  0.2024  0.0256 -0.4628
 2119TIP3    H1 6300   0.487   2.125   0.332  1.3231 -0.5671  0.4460
 2119TIP3    H2 6301   0.460   2.136   0.481 -1.0946  0.6083 -0.0263
 2120TIP3   OH2 6302   6.343   3.449   0.081 -0.2440  0.5412 -0.3545
 2120TIP3    H1 6303   6.273   3.513   0.080 -0.2764  0.5523  0.9156
 2120TIP3    H2 6304   6.360   3.432   0.174  1.5004  0.6126 -0.6159
 2121TIP3   OH2 6305   5.269   2.963   3.879  0.3136  0.2679 -0.2624
 2121TIP3    H1 6306   5.345   2.936   3.930  0.3584  1.1236  0.1345
 2121TIP3    H2 6307   5.240   3.045   3.919 -0.5725  0.1663 -0.6642
 2122TIP3   OH2 6308   5.936   2.146   5.684 -0.2205  0.1806 -0.1135
 2122TIP3    H1 6309   6.029   2.124   5.691  0.2269  1.6880 -0.8351
 2122TIP3    H2 6310   5.893   2.063   5.665  0.8472 -0.7056  1.1527
 2123TIP3   OH2 6311   4.938   0.245   4.084  0.1570  0.1025 -0.3127
 2123TIP3    H1 6312   4.968   0.154   4.075  0.2417  0.0433  0.5358
 2123TIP3    H2 6313   4.853   0.237   4.127 -0.3957  0.3661 -1.3052
 2124TIP3   OH2 6314   1.924   0.138   0.574 -0.7403  0.2068 -0.1777
 2124TIP3    H1 6315   1.944   0.230   0.591  2.7291 -0.8437  2.4862
 2124TIP3    H2 6316   1.998   0.106   0.522 -1.9079 -1.1227 -1.1023
 2125TIP3   OH2 6317   6.774   0.711   2.663  0.0455  0.0058  0.4911
 2125TIP3    H1 6318   6.857   0.669   2.641 -0.2460  0.8119 -2.6847
 2125TIP3    H2 6319   6.710   0.639   2.663  0.2360 -0.1824 -0.5270
 2126TIP3   OH2 6320   0.794   2.287   5.663  0.2052 -0.0663 -0.3514
 2126TIP3    H1 6321   0.753   2.238   5.592  0.4315  0.6660 -1.0092
 2126TIP3    H2 6322   0.798   2.226   5.736 -0.9746 -0.5207 -0.6447
 2127TIP3   OH2 6323   0.500   6.332   5.218 -0.3996  0.2985 -0.5888
 2127TIP3    H1 6324   0.557   6.255   5.223 -0.0806  0.5340 -0.5646
 2127TIP3    H2 6325   0.441   6.323   5.293  1.2324  1.3204  0.9064
 2128TIP3   OH2 6326   4.882   1.369   3.758 -0.2279 -0.1907  0.0546
 2128TIP3    H1 6327   4.947   1.437   3.777 -0.4184 -0.1678  0.6544
 2128TIP3    H2 6328   4.811   1.387   3.821  0.3768 -1.8667  1.2786
 2129TIP3   OH2 6329   0.432   0.250   6.508  0.1486  0.2112 -0.3247
 2129TIP3    H1 6330   0.422   0.346   6.507  0.4672  0.2455 -1.4432
 2129TIP3    H2 6331   0.493   0.232   6.436  0.2078 -0.8244 -0.0212
 2130TIP3   OH2 6332   6.428   4.198   4.743 -0.4315  0.4578 -0.2605
 2130TIP3    H1 6333   6.462   4.191   4.832 -1.7985 -0.6473  0.2238
 2130TIP3    H2 6334   6.414   4.292   4.730  0.5987  0.7074  0.3592
 2131TIP3   OH2 6335   6.229   2.585   1.610 -0.5308  0.7683 -0.4153
 2131TIP3    H1 6336   6.184   2.610   1.690 -0.9360 -0.0194 -0.3901
 2131TIP3    H2 6337   6.267   2.499   1.628 -0.2459  0.7779 -0.9221
 2132TIP3   OH2 6338   3.066   1.133   6.308  0.1287 -0.3574 -0.4652
 2132TIP3    H1 6339   3.132   1.118   6.376 -0.2309 -2.1662 -0.4648
 2132TIP3    H2 6340   2.986   1.154   6.355  0.8336  2.8381 -0.4801
 2133TIP3   OH2 6341   8.268   1.174   1.865  0.5654 -0.1683  0.2126
 2133TIP3    H1 6342   8.250   1.156   1.773  0.6347 -0.2681  0.2186
 2133TIP3    H2 6343   8.269   1.088   1.907 -0.0010 -0.0854  0.4078
 2134TIP3   OH2 6344   2.134   0.728   1.853  0.0680  0.0782 -0.0322
 2134TIP3    H1 6345   2.182   0.808   1.876 -1.8633  1.9885 -2.1297
 2134TIP3    H2 6346   2.088   0.704   1.933 -1.7947  3.0161 -0.0541
 2135TIP3   OH2 6347   7.184   1.249   0.032 -0.0740  0.1274 -0.7657
 2135TIP3    H1 6348   7.104   1.197   0.041 -0.3379  0.6314 -0.0797
 2135TIP3    H2 6349   7.213   1.234  -0.058  0.1995 -1.6914 -0.4230
 2136TIP3   OH2 6350   6.828   1.981   1.323 -0.3534 -0.5915  0.0261
 2136TIP3    H1 6351   6.802   1.965   1.232 -1.4748 -0.1945  0.2536
 2136TIP3    H2 6352   6.843   1.893   1.358 -0.0738 -0.7595 -0.4912
 2137TIP3   OH2 6353   0.077   7.766   0.821  0.0869 -0.4238 -0.2411
 2137TIP3    H1 6354   0.065   7.765   0.726 -2.3303  0.4082 -0.0238
 2137TIP3    H2 6355   0.113   7.853   0.839  1.2362 -0.8491 -0.4413
 2138TIP3   OH2 6356   2.731   3.014   2.705 -0.2618 -0.0273  0.4170
 2138TIP3    H1 6357   2.751   3.070   2.630 -0.2379  0.9377  1.1249
 2138TIP3    H2 6358   2.635   3.011   2.707 -0.2835 -1.6585 -0.7891
 2139TIP3   OH2 6359   7.101   3.655   6.241  0.2331 -0.4138 -0.0312
 2139TIP3    H1 6360   7.160   3.595   6.196  0.4975  1.2507 -2.0587
 2139TIP3    H2 6361   7.023   3.658   6.186 -1.1081 -1.2448  1.7076
 2140TIP3   OH2 6362   0.507   7.133   1.500 -0.1930  0.2983 -0.0481
 2140TIP3    H1 6363   0.450   7.141   1.424 -2.2546  0.4880  1.4563
 2140TIP3    H2 6364   0.491   7.045   1.533  1.2412 -0.0526 -0.2158
 2141TIP3   OH2 6365   7.217   5.974   6.400  0.0938  0.0614  0.4448
 2141TIP3    H1 6366   7.228   5.967   6.495 -0.7136 -2.4728  0.4093
 2141TIP3    H2 6367   7.125   5.956   6.385  0.6257 -1.7787 -0.9493
 2142TIP3   OH2 6368   0.983   5.903   5.587 -0.0128  0.2607 -0.2229
 2142TIP3    H1 6369   1.066   5.918   5.541  0.0225  0.3742 -0.1230
 2142TIP3    H2 6370   0.993   5.949   5.670 -1.0867  2.3902 -1.1893
 2143TIP3   OH2 6371   3.936   3.909   2.223 -0.0167  0.2361 -0.0892
 2143TIP3    H1 6372   3.975   3.962   2.154 -1.8905  0.5462 -0.9662
 2143TIP3    H2 6373   4.006   3.900   2.289  0.7100  2.8371 -0.4137
 2144TIP3   OH2 6374   7.029   3.504   1.728  0.6666 -0.1445 -0.4459
 2144TIP3    H1 6375   7.033   3.446   1.653  1.7626 -0.7051  0.0163
 2144TIP3    H2 6376   6.951   3.477   1.776  0.4046 -0.3086 -0.9592
 2145TIP3   OH2 6377   0.867   5.714   0.668  0.2131 -0.3172  0.0126
 2145TIP3    H1 6378   0.801   5.776   0.636  1.1071  0.6481 -0.0334
 2145TIP3    H2 6379   0.914   5.686   0.590 -0.2059 -1.1038  0.0301
 2146TIP3   OH2 6380   3.582   3.363   2.804 -0.1034 -0.1857 -0.2267
 2146TIP3    H1 6381   3.514   3.340   2.740 -0.9465 -1.2420  0.9958
 2146TIP3    H2 6382   3.632   3.283   2.815 -0.0480 -0.0532  0.5297
 2147TIP3   OH2 6383   7.714   3.034   4.204 -0.2802  0.2497 -0.1528
 2147TIP3    H1 6384   7.776   3.025   4.132 -0.2226  0.3873 -0.1208
 2147TIP3    H2 6385   7.755   2.988   4.277 -0.6973 -0.5778 -0.4283
 2148TIP3   OH2 6386   5.029   7.174   1.719  0.1370  0.1222 -0.3440
 2148TIP3    H1 6387   5.011   7.178   1.813  0.3866 -1.4484 -0.1989
 2148TIP3    H2 6388   4.950   7.138   1.680 -0.0854  1.0746 -0.7883
 2149TIP3   OH2 6389   5.762   4.568   2.389  0.1246 -0.0684  0.5865
 2149TIP3    H1 6390   5.805   4.591   2.307 -0.5130  0.7038  0.4596
 2149TIP3    H2 6391   5.826   4.514   2.436  1.2038  1.0232  0.3895
 2150TIP3   OH2 6392   5.492   3.424   2.738 -0.0987  0.1478  0.1941
 2150TIP3    H1 6393   5.501   3.334   2.767 -0.2217 -0.1415 -0.6667
 2150TIP3    H2 6394   5.451   3.469   2.812  1.3874 -0.1406  1.2464
 2151TIP3   OH2 6395   5.917   4.531   5.730 -0.4132  0.0456 -0.6557
 2151TIP3    H1 6396   5.837   4.499   5.687  0.0730  0.7345 -2.1687
 2151TIP3    H2 6397   5.983   4.465   5.709 -0.7162 -0.9504  1.2877
 2152TIP3   OH2 6398   0.630   6.161   3.965 -0.0120 -0.3020 -0.3828
 2152TIP3    H1 6399   0.697   6.100   3.996 -0.2212  0.2776  1.3155
 2152TIP3    H2 6400   0.671   6.206   3.891  1.0536 -0.7519 -0.0839
 2153TIP3   OH2 6401   6.455   0.878   3.594  0.3584 -0.0174 -0.2309
 2153TIP3    H1 6402   6.421   0.943   3.533 -0.7082 -0.8215 -0.5386
 2153TIP3    H2 6403   6.414   0.796   3.566 -0.5897 -0.3215  1.8796
 2154TIP3   OH2 6404   5.984   7.182   4.712  0.2758 -0.2469  0.3901
 2154TIP3    H1 6405   5.961   7.147   4.626  1.4912  0.4374 -0.2409
 2154TIP3    H2 6406   5.912   7.241   4.734  1.0635  1.4343 -1.2807
 2155TIP3   OH2 6407   3.225   7.748   4.087 -0.1691  0.6756 -0.4550
 2155TIP3    H1 6408   3.178   7.738   4.004 -1.3953 -1.3761  0.4048
 2155TIP3    H2 6409   3.243   7.658   4.115  1.1617  1.3480  1.0000
 2156TIP3   OH2 6410   4.620   1.672   3.369  0.0338  0.1056  0.0464
 2156TIP3    H1 6411   4.580   1.607   3.427 -1.2376  0.3946 -0.4732
 2156TIP3    H2 6412   4.713   1.652   3.371 -0.3456 -1.8511 -0.2480
 2157TIP3   OH2 6413   6.050   6.908   5.824 -0.2649  0.1184 -0.1163
 2157TIP3    H1 6414   6.140   6.892   5.799  0.2606  1.5669  0.7051
 2157TIP3    H2 6415   5.998   6.879   5.749  0.8962 -0.3832 -0.7458
 2158TIP3   OH2 6416   7.718   5.040   5.621  0.5954  0.1302  0.0506
 2158TIP3    H1 6417   7.692   4.956   5.583 -0.7176 -0.6386  2.4633
 2158TIP3    H2 6418   7.799   5.020   5.668  0.4071  0.2727  0.4338
 2159TIP3   OH2 6419   5.334   6.190   2.438  0.4869 -0.3394 -0.0869
 2159TIP3    H1 6420   5.275   6.204   2.513  1.9650  0.7911  0.9081
 2159TIP3    H2 6421   5.371   6.103   2.453 -0.5991 -0.8966 -0.5154
 2160TIP3   OH2 6422   7.338   1.760   0.302  0.1791 -0.4258  0.2635
 2160TIP3    H1 6423   7.316   1.801   0.218  3.2966 -0.3663 -0.6265
 2160TIP3    H2 6424   7.311   1.669   0.292 -1.6630  0.0787  0.1709
 2161TIP3   OH2 6425   2.882   3.437   1.032 -0.2313 -0.7734 -0.1355
 2161TIP3    H1 6426   2.906   3.463   1.121 -0.8806 -0.4535 -0.0415
 2161TIP3    H2 6427   2.891   3.518   0.980 -1.1515 -0.6183 -0.0763
 2162TIP3   OH2 6428   2.277   5.324   3.386 -0.0306  0.5882  0.1321
 2162TIP3    H1 6429   2.319   5.240   3.368  1.4022  1.6577 -1.8513
 2162TIP3    H2 6430   2.345   5.390   3.370 -1.6525  2.2364 -0.3609
 2163TIP3   OH2 6431   8.006   5.606   5.189  0.1553  0.0888  0.3900
 2163TIP3    H1 6432   7.926   5.566   5.154 -0.1643  2.2120 -1.5459
 2163TIP3    H2 6433   7.975   5.682   5.239  0.9065  2.0694 -1.9555
 2164TIP3   OH2 6434   0.386   2.964   3.868  0.5385  0.0699 -0.1576
 2164TIP3    H1 6435   0.359   3.014   3.791  0.1945  0.6436  0.3274
 2164TIP3    H2 6436   0.463   2.916   3.839  2.0579  2.3458 -0.0994
 2165TIP3   OH2 6437   7.499   1.906   5.253  0.2473  0.5958 -0.4954
 2165TIP3    H1 6438   7.408   1.919   5.282  0.2429 -1.3223  0.4974
 2165TIP3    H2 6439   7.510   1.968   5.181 -1.9995  0.5550 -0.9462
 2166TIP3   OH2 6440   6.272   0.104   3.104  0.4077 -0.3336 -0.3748
 2166TIP3    H1 6441   6.259   0.197   3.087 -1.5591 -0.7341 -1.3033
 2166TIP3    H2 6442   6.312   0.070   3.024 -1.1023 -0.6895 -1.0123
 2167TIP3   OH2 6443   7.468   2.986   3.460  0.4784  0.6023  0.3566
 2167TIP3    H1 6444   7.555   2.947   3.463  0.0174 -0.3754  2.0737
 2167TIP3    H2 6445   7.470   3.056   3.525 -0.1033  0.4083  0.5897
 2168TIP3   OH2 6446   1.572   0.468   3.446  0.3305 -0.4487 -0.4906
 2168TIP3    H1 6447   1.552   0.375   3.446  1.0152 -0.8217  4.0908
 2168TIP3    H2 6448   1.487   0.511   3.450  0.0633 -0.8998 -1.1009
 2169TIP3   OH2 6449   1.659   0.079   1.349  0.1076 -0.6171 -0.5670
 2169TIP3    H1 6450   1.700   0.152   1.303  1.6826 -1.1553 -0.0687
 2169TIP3    H2 6451   1.612   0.031   1.281 -1.7270  1.3025 -0.7758
 2170TIP3   OH2 6452   1.375   0.277   0.196 -0.1023  0.0653 -0.3733
 2170TIP3    H1 6453   1.423   0.195   0.183  0.4995  0.6865 -2.3459
 2170TIP3    H2 6454   1.283   0.251   0.195  0.0754 -0.5853 -1.1289
 2171TIP3   OH2 6455   3.815   1.637   6.070 -0.2563 -0.0142 -0.2784
 2171TIP3    H1 6456   3.830   1.636   5.975  1.9837  1.7957 -0.0171
 2171TIP3    H2 6457   3.834   1.548   6.098 -0.0584 -0.3485 -1.4147
 2172TIP3   OH2 6458   3.722   3.525   2.107  0.0214 -0.1637  0.5387
 2172TIP3    H1 6459   3.739   3.540   2.200 -0.9411  0.9167  0.5497
 2172TIP3    H2 6460   3.720   3.612   2.068  0.2694 -0.5954 -0.4854
 2173TIP3   OH2 6461   5.875   5.958   6.386 -0.4782  0.6922  0.2528
 2173TIP3    H1 6462   5.921   5.960   6.470 -1.6127  0.7340  0.9034
 2173TIP3    H2 6463   5.812   5.886   6.396 -2.3674  2.2683  0.4279
 2174TIP3   OH2 6464   6.419   3.409   3.565 -0.0354 -0.2607  0.1892
 2174TIP3    H1 6465   6.451   3.385   3.652 -1.1019  0.7339  0.8969
 2174TIP3    H2 6466   6.402   3.503   3.571 -0.9492 -0.3386 -0.8189
 2175TIP3   OH2 6467   0.031   0.933   2.542 -0.5548 -0.3538  0.8950
 2175TIP3    H1 6468   0.074   0.907   2.461  1.1902  0.3977  1.5354
 2175TIP3    H2 6469  -0.059   0.901   2.533 -0.4916 -0.0272 -1.4492
 2176TIP3   OH2 6470   2.801   0.029   0.333 -0.5465 -0.4604 -0.2329
 2176TIP3    H1 6471   2.823  -0.006   0.420 -2.0536  0.6309  0.6332
 2176TIP3    H2 6472   2.833   0.119   0.334 -3.4940  0.7164  0.5527
 2177TIP3   OH2 6473   7.835   5.047   6.268  0.1433  0.0308 -0.0341
 2177TIP3    H1 6474   7.847   5.060   6.362  0.5416  1.7819 -0.2995
 2177TIP3    H2 6475   7.922   5.062   6.231 -0.5569  2.1657 -0.9282
 2178TIP3   OH2 6476   5.401   5.798   5.852 -0.2267 -0.0426 -0.4527
 2178TIP3    H1 6477   5.357   5.844   5.780  0.2976 -0.5109 -1.0910
 2178TIP3    H2 6478   5.491   5.787   5.821 -0.4463 -1.9183 -0.5457
 2179TIP3   OH2 6479   7.936   6.406   6.440 -0.4029 -0.1513 -0.0706
 2179TIP3    H1 6480   7.917   6.458   6.518 -1.1073  1.4357 -1.2285
 2179TIP3    H2 6481   7.979   6.467   6.380 -1.4150 -0.8201 -1.5648
 2180TIP3   OH2 6482   7.811   7.043   5.469  0.4441 -0.4110 -0.7905
 2180TIP3    H1 6483   7.767   7.013   5.389  0.5827 -1.1644 -0.5867
 2180TIP3    H2 6484   7.890   6.990   5.474  0.7044  0.0049 -0.4273
 2181TIP3   OH2 6485   1.977   7.133   3.122  0.3327  0.2668 -0.3445
 2181TIP3    H1 6486   2.049   7.147   3.183 -0.8977  2.1868  0.7289
 2181TIP3    H2 6487   1.949   7.220   3.096  0.6175 -0.4533 -3.5071
 2182TIP3   OH2 6488   6.332   1.615   0.824  0.4077  0.2429 -0.0888
 2182TIP3    H1 6489   6.355   1.536   0.775 -0.5876 -0.6228  0.8051
 2182TIP3    H2 6490   6.325   1.683   0.757  2.1549 -0.1961 -0.7795
 2183TIP3   OH2 6491   7.301   4.895   1.818 -0.6902  0.3054 -0.0268
 2183TIP3    H1 6492   7.324   4.804   1.840 -0.1872  0.6299  0.8227
 2183TIP3    H2 6493   7.368   4.948   1.862 -0.0393  1.0288 -1.8013
 2184TIP3   OH2 6494   7.158   5.000   1.372 -0.5000  0.4013 -0.0749
 2184TIP3    H1 6495   7.184   4.938   1.441 -0.1380  1.1459  0.4784
 2184TIP3    H2 6496   7.110   5.069   1.419  0.4471  1.3316 -0.4365
 2185TIP3   OH2 6497   1.561   1.285   6.132 -0.0775 -0.7850 -0.9799
 2185TIP3    H1 6498   1.489   1.246   6.083 -1.8495  0.8828  0.1618
 2185TIP3    H2 6499   1.550   1.253   6.221 -0.1466  0.3981 -0.5396
 2186TIP3   OH2 6500   1.349   0.737   0.338  0.2257 -0.2692  0.4828
 2186TIP3    H1 6501   1.333   0.810   0.278  1.1438 -0.9289 -0.6180
 2186TIP3    H2 6502   1.438   0.707   0.316 -0.5000 -2.3600  0.1594
 2187TIP3   OH2 6503   7.924   7.457   1.464 -0.4864  0.2364 -0.2830
 2187TIP3    H1 6504   7.856   7.421   1.521 -1.8581  3.1799  0.1152
 2187TIP3    H2 6505   7.892   7.440   1.375  0.6837 -2.5651 -0.2806
 2188TIP3   OH2 6506   2.348   4.759   2.399 -0.0768  0.2811  0.2113
 2188TIP3    H1 6507   2.425   4.730   2.351  0.4920  1.5109  0.3331
 2188TIP3    H2 6508   2.277   4.701   2.370  0.9729 -1.1544  0.4292
 2189TIP3   OH2 6509   6.546   2.605   1.700 -0.1684 -0.6511  0.2010
 2189TIP3    H1 6510   6.553   2.636   1.610 -2.2928 -1.2585 -0.2293
 2189TIP3    H2 6511   6.612   2.536   1.706  0.4711 -0.1399 -0.6557
 2190TIP3   OH2 6512   1.715   5.116   0.764  0.0137 -0.5013  0.3203
 2190TIP3    H1 6513   1.799   5.071   0.758  0.5943  0.5998 -0.2366
 2190TIP3    H2 6514   1.726   5.193   0.707 -1.0324  0.1699  1.0007
 2191TIP3   OH2 6515   8.072   0.231   2.417  0.5877  0.6335 -0.0636
 2191TIP3    H1 6516   8.066   0.219   2.322  0.3224  3.3870 -0.4715
 2191TIP3    H2 6517   8.101   0.146   2.450 -2.9909 -1.6585 -2.1454
 2192TIP3   OH2 6518   1.301   6.616   5.043  0.3225  0.0299  0.3768
 2192TIP3    H1 6519   1.302   6.566   4.961 -1.5702  0.8769 -0.2195
 2192TIP3    H2 6520   1.267   6.702   5.018 -1.2004  0.0085  2.1729
 2193TIP3   OH2 6521   6.239   5.088   2.655 -0.1564  0.2779 -0.2531
 2193TIP3    H1 6522   6.249   4.995   2.636 -0.0250  0.3881 -0.7561
 2193TIP3    H2 6523   6.317   5.129   2.615 -1.5613  0.9310 -2.5198
 2194TIP3   OH2 6524   0.312   3.454   6.517  0.3959 -0.7347  0.2005
 2194TIP3    H1 6525   0.228   3.492   6.490  1.2217 -0.3743 -2.0836
 2194TIP3    H2 6526   0.342   3.511   6.588 -0.1564  0.6561 -0.6350
 2195TIP3   OH2 6527   4.101   6.282   2.853 -0.1522 -0.1374  0.1532
 2195TIP3    H1 6528   4.020   6.287   2.904  0.1627  0.0804  0.6325
 2195TIP3    H2 6529   4.135   6.195   2.871 -0.4263 -0.3338 -0.2736
 2196TIP3   OH2 6530   3.889   5.640   2.791 -0.2305  0.2233  0.0933
 2196TIP3    H1 6531   3.888   5.675   2.702 -0.6688 -2.2677 -0.9675
 2196TIP3    H2 6532   3.978   5.657   2.822  0.3865 -0.1810 -1.3900
 2197TIP3   OH2 6533   5.376   4.612   2.145  0.0153 -0.1309 -0.3588
 2197TIP3    H1 6534   5.353   4.656   2.227  1.4069 -0.7247  0.3988
 2197TIP3    H2 6535   5.388   4.683   2.082  0.1748  0.4412  0.2983
 2198TIP3   OH2 6536   3.334   3.430   0.912  0.0328 -0.0987  0.2834
 2198TIP3    H1 6537   3.348   3.433   1.006  1.4210  0.4594  0.0846
 2198TIP3    H2 6538   3.365   3.515   0.880  0.1943 -0.5197 -0.7365
 2199TIP3   OH2 6539   3.455   1.556   3.333 -0.1104 -0.1101  0.1856
 2199TIP3    H1 6540   3.446   1.472   3.379 -0.4385 -0.6549 -0.8547
 2199TIP3    H2 6541   3.539   1.549   3.288  0.4915  0.6581  1.1411
 2200TIP3   OH2 6542   7.657   1.385   1.050 -0.3616  0.7955 -0.2993
 2200TIP3    H1 6543   7.573   1.370   1.007  0.0078  1.4797 -1.3129
 2200TIP3    H2 6544   7.636   1.391   1.144 -1.3535  0.4032 -0.4905
 2201TIP3   OH2 6545   7.375   5.107   1.207 -0.0222 -0.7977 -0.3738
 2201TIP3    H1 6546   7.404   5.016   1.203  0.3625 -0.6753 -0.3777
 2201TIP3    H2 6547   7.304   5.107   1.272 -0.3095 -1.1759 -0.6859
 2202TIP3   OH2 6548   6.843   1.497   1.079 -0.0803  0.3538 -0.4265
 2202TIP3    H1 6549   6.840   1.460   0.991 -0.7977 -0.5038 -0.0482
 2202TIP3    H2 6550   6.928   1.469   1.114 -0.1240  0.0544 -0.5653
 2203TIP3   OH2 6551   5.257   7.412   4.754 -0.2463 -0.4984  0.2709
 2203TIP3    H1 6552   5.186   7.470   4.726  0.1174 -0.9495 -1.7327
 2203TIP3    H2 6553   5.328   7.471   4.778 -0.9303 -0.0664  1.3012
 2204TIP3   OH2 6554   1.118   2.105   4.022 -0.1636  0.4767  0.2269
 2204TIP3    H1 6555   1.095   2.031   4.077 -0.1732 -0.3699 -0.8704
 2204TIP3    H2 6556   1.038   2.126   3.975  0.3987 -0.3396 -1.1622
 2205TIP3   OH2 6557   6.483   4.414   6.122  0.3040  0.3533 -0.0455
 2205TIP3    H1 6558   6.577   4.429   6.129  0.3860 -0.5741  1.0161
 2205TIP3    H2 6559   6.464   4.347   6.187 -0.9192 -0.2441 -0.9711
 2206TIP3   OH2 6560   6.388   4.423   6.710 -0.5451  0.4865 -0.5054
 2206TIP3    H1 6561   6.405   4.355   6.776 -1.1132  0.8679  0.0540
 2206TIP3    H2 6562   6.309   4.466   6.742 -0.2060  1.3900 -0.8686
 2207TIP3   OH2 6563   7.164   1.192   5.561 -0.6987 -0.1172 -0.8361
 2207TIP3    H1 6564   7.234   1.234   5.610 -1.2419  1.1528 -1.1044
 2207TIP3    H2 6565   7.106   1.264   5.535 -1.7194 -1.0468 -1.2339
 2208TIP3   OH2 6566   1.614   4.860   4.035 -0.6547  0.3527 -0.2882
 2208TIP3    H1 6567   1.704   4.877   4.008 -0.4513  1.2373  0.8458
 2208TIP3    H2 6568   1.568   4.836   3.955  0.6157 -0.2371 -0.8572
 2209TIP3   OH2 6569   6.515   0.367   3.719 -0.0820 -0.3670 -0.2115
 2209TIP3    H1 6570   6.536   0.306   3.648  3.3795  0.1900  0.1748
 2209TIP3    H2 6571   6.589   0.427   3.723 -1.7886  1.8425  1.6368
 2210TIP3   OH2 6572   0.405   6.820   3.315  0.3793  0.6689 -0.3868
 2210TIP3    H1 6573   0.323   6.862   3.286  0.5957  0.8728 -0.7139
 2210TIP3    H2 6574   0.460   6.893   3.343  1.5198  0.8406 -2.8339
 2211TIP3   OH2 6575   4.934   4.934   6.284 -0.1307 -0.1207 -0.1572
 2211TIP3    H1 6576   4.840   4.915   6.280 -0.2356  0.5824 -1.9207
 2211TIP3    H2 6577   4.975   4.849   6.296 -0.9833 -0.4089  0.9665
 2212TIP3   OH2 6578   0.349   3.179   6.411 -0.0326 -0.1445  0.0098
 2212TIP3    H1 6579   0.313   3.195   6.324 -2.1081  0.3563  0.9091
 2212TIP3    H2 6580   0.347   3.264   6.454  2.3971 -0.0615  0.1030
 2213TIP3   OH2 6581   2.440   0.494   3.628  0.3895 -0.2349 -0.0955
 2213TIP3    H1 6582   2.464   0.541   3.707  1.4736  0.0756 -0.6001
 2213TIP3    H2 6583   2.454   0.556   3.557  1.1101 -1.0485 -0.6972
 2214TIP3   OH2 6584   6.352   5.128   6.303 -0.1913 -0.3489 -0.1753
 2214TIP3    H1 6585   6.447   5.125   6.307 -0.1588 -0.4285 -0.8471
 2214TIP3    H2 6586   6.332   5.116   6.210 -0.7828  1.3917 -0.3053
 2215TIP3   OH2 6587   5.807   3.070   0.194  0.5152 -0.4848  1.1084
 2215TIP3    H1 6588   5.768   3.008   0.132 -0.6521  1.5018 -0.2651
 2215TIP3    H2 6589   5.881   3.108   0.146 -1.1655  2.0123  0.2604
 2216TIP3   OH2 6590   6.932   6.593   4.027  0.6434  0.4302  0.2285
 2216TIP3    H1 6591   7.002   6.560   3.971  0.0095  0.8522 -0.8525
 2216TIP3    H2 6592   6.863   6.527   4.020  0.9851 -0.0637  1.4142
 2217TIP3   OH2 6593   2.411   5.385   0.586 -0.4485 -0.5273  0.5003
 2217TIP3    H1 6594   2.428   5.460   0.530  0.5896 -0.1489  1.2975
 2217TIP3    H2 6595   2.397   5.422   0.673 -0.2198 -1.2376  0.8512
 2218TIP3   OH2 6596   1.332   2.739   5.929 -0.4200 -0.1295  0.1897
 2218TIP3    H1 6597   1.412   2.694   5.954  0.1500  0.8352  0.1788
 2218TIP3    H2 6598   1.286   2.753   6.012  0.5676  1.3916  0.5297
 2219TIP3   OH2 6599   5.147   7.513   1.489  0.1190  0.3096 -0.2504
 2219TIP3    H1 6600   5.142   7.604   1.519 -0.4487  0.0463  0.4596
 2219TIP3    H2 6601   5.205   7.470   1.552  0.8085  0.2807 -0.8771
 2220TIP3   OH2 6602   5.459   5.089   1.141  0.1433 -0.0807  0.1165
 2220TIP3    H1 6603   5.410   5.131   1.212 -1.4266 -2.1699  0.3828
 2220TIP3    H2 6604   5.446   5.145   1.065 -0.7875  0.5991  0.7546
 2221TIP3   OH2 6605   6.098   6.753   4.103  0.2361 -0.1497 -0.1867
 2221TIP3    H1 6606   6.011   6.751   4.064 -0.7578 -2.0176  1.9153
 2221TIP3    H2 6607   6.086   6.796   4.187  1.6012  0.6183 -0.3522
 2222TIP3   OH2 6608   4.479   4.468   3.175  0.1335  0.7469 -0.1773
 2222TIP3    H1 6609   4.539   4.542   3.170 -1.3855  2.1271  0.8360
 2222TIP3    H2 6610   4.435   4.467   3.090  1.0151  0.1979 -0.6456
 2223TIP3   OH2 6611   4.653   0.257   4.193  0.2966 -0.2887  0.4397
 2223TIP3    H1 6612   4.607   0.304   4.123  1.7173 -2.1782 -1.9394
 2223TIP3    H2 6613   4.588   0.197   4.229 -0.7974  1.5493  1.7085
 2224TIP3   OH2 6614   0.829   3.687   4.215 -0.4362  0.0132 -0.6039
 2224TIP3    H1 6615   0.769   3.758   4.195 -1.1485 -0.2302  0.5867
 2224TIP3    H2 6616   0.784   3.635   4.282  0.5023 -0.9761 -0.7072
 2225TIP3   OH2 6617   3.418   2.854   4.621  0.1379 -0.3670 -0.5001
 2225TIP3    H1 6618   3.507   2.849   4.656 -0.9574 -1.2336  2.4899
 2225TIP3    H2 6619   3.401   2.766   4.588  0.5901 -0.0004 -1.7771
 2226TIP3   OH2 6620   0.044   6.710   6.573  0.0230 -0.2583  0.0649
 2226TIP3    H1 6621  -0.039   6.664   6.587  0.1710 -0.1859  1.2715
 2226TIP3    H2 6622   0.085   6.664   6.499 -0.5670 -1.0238  0.2055
 2227TIP3   OH2 6623   7.395   7.447   0.343 -0.1581 -0.4341  0.1387
 2227TIP3    H1 6624   7.434   7.482   0.263 -1.0164  2.4867  0.8677
 2227TIP3    H2 6625   7.416   7.512   0.411  0.7839 -2.9285  2.4199
 2228TIP3   OH2 6626   5.561   4.478   1.068  0.2394  0.1062  0.5824
 2228TIP3    H1 6627   5.642   4.509   1.029 -0.1469 -0.1713 -0.4810
 2228TIP3    H2 6628   5.497   4.546   1.047 -0.6599 -1.3852 -1.9457
 2229TIP3   OH2 6629   6.760   5.421   0.108 -0.0305 -0.6442 -0.3746
 2229TIP3    H1 6630   6.750   5.484   0.036  0.2293 -0.3302 -0.1433
 2229TIP3    H2 6631   6.855   5.419   0.123  0.0447 -1.7474 -0.9578
 2230TIP3   OH2 6632   4.170   5.543   4.316 -0.1741  0.5417  0.2530
 2230TIP3    H1 6633   4.105   5.612   4.300  1.2155  1.8830  0.1391
 2230TIP3    H2 6634   4.166   5.488   4.238 -1.8866 -0.0466  0.7006
 2231TIP3   OH2 6635   1.722   0.131   0.268  0.4285 -0.1095  0.7396
 2231TIP3    H1 6636   1.754   0.051   0.225  0.2574 -0.4744  1.2766
 2231TIP3    H2 6637   1.647   0.102   0.320 -2.1328  1.0778 -2.0613
 2232TIP3   OH2 6638   0.831   7.729   3.969  0.1925 -0.6978  0.0067
 2232TIP3    H1 6639   0.737   7.713   3.974  0.2065 -0.4042  1.9210
 2232TIP3    H2 6640   0.841   7.795   3.901 -0.7384 -2.3032 -1.7703
 2233TIP3   OH2 6641   6.671   5.999   2.902 -0.0474 -0.0184 -0.0111
 2233TIP3    H1 6642   6.687   6.005   2.808  0.4930  1.1274  0.1346
 2233TIP3    H2 6643   6.698   5.910   2.926  0.1726 -0.1885 -0.8711
 2234TIP3   OH2 6644   8.102   1.870   4.611 -0.3102  0.0880  0.2125
 2234TIP3    H1 6645   8.155   1.849   4.534 -1.4380 -0.9173 -0.3109
 2234TIP3    H2 6646   8.152   1.835   4.685  0.3977  0.3524 -0.1273
 2235TIP3   OH2 6647   0.748   1.234   3.225 -0.2829 -0.1251  0.1121
 2235TIP3    H1 6648   0.775   1.322   3.249 -0.2557  0.2054 -1.0643
 2235TIP3    H2 6649   0.656   1.228   3.252 -1.5935  1.7267 -3.3464
 2236TIP3   OH2 6650   2.716   2.103   4.957  0.3066 -0.0570 -0.2687
 2236TIP3    H1 6651   2.769   2.117   4.878 -0.6210 -2.8841 -1.5347
 2236TIP3    H2 6652   2.641   2.052   4.926 -1.0288  0.2869  2.1769
 2237TIP3   OH2 6653   3.942   5.065   2.683  0.0582 -0.2004  0.6538
 2237TIP3    H1 6654   3.922   5.098   2.596  1.3680 -0.4752  0.2170
 2237TIP3    H2 6655   3.860   5.028   2.715 -0.4478 -0.0646 -0.4386
 2238TIP3   OH2 6656   5.507   1.328   2.136  0.5024 -0.3363 -0.4035
 2238TIP3    H1 6657   5.557   1.306   2.215  3.5313 -0.9658 -2.3138
 2238TIP3    H2 6658   5.476   1.417   2.150  1.4016 -0.2589  1.2875
 2239TIP3   OH2 6659   5.086   5.242   3.440 -0.1787 -0.0293  0.5744
 2239TIP3    H1 6660   5.055   5.332   3.429  0.1613 -0.1646 -2.1336
 2239TIP3    H2 6661   5.173   5.251   3.481  0.0876  0.9125 -0.1773
 2240TIP3   OH2 6662   2.829   1.272   4.099 -0.1628 -0.2674  0.0819
 2240TIP3    H1 6663   2.753   1.330   4.095  0.5279  0.6981  0.6269
 2240TIP3    H2 6664   2.868   1.289   4.185  1.3246  0.1021 -0.6398
 2241TIP3   OH2 6665   1.481   6.436   0.267 -0.1911 -0.2872 -0.2318
 2241TIP3    H1 6666   1.516   6.482   0.191 -0.3104 -0.0801 -0.1630
 2241TIP3    H2 6667   1.465   6.504   0.332  0.5998 -0.5451  0.2552
 2242TIP3   OH2 6668   0.933   0.871   3.422 -0.1283  0.6234 -0.4206
 2242TIP3    H1 6669   0.952   0.872   3.516 -2.0256  0.0341  0.0003
 2242TIP3    H2 6670   0.994   0.935   3.385  0.0867  1.4876  1.3118
 2243TIP3   OH2 6671   4.695   0.803   4.038  0.4682  0.4463  0.7733
 2243TIP3    H1 6672   4.771   0.861   4.029  1.6891 -1.0971  0.7761
 2243TIP3    H2 6673   4.700   0.744   3.963  0.4484 -0.9734  1.8487
 2244TIP3   OH2 6674   4.760   1.934   6.673  0.5199  0.3887 -0.3332
 2244TIP3    H1 6675   4.769   1.870   6.603 -0.2096 -0.2429  0.1362
 2244TIP3    H2 6676   4.822   1.905   6.740 -0.6975 -0.5757  0.4122
 2245TIP3   OH2 6677   4.771   0.992   0.460  0.1768  0.1122  0.0670
 2245TIP3    H1 6678   4.687   1.022   0.425 -0.2155  0.1677  1.0420
 2245TIP3    H2 6679   4.836   1.029   0.399 -0.5437 -1.0267 -1.4608
 2246TIP3   OH2 6680   7.902   3.729   2.100 -0.3982 -0.7327 -0.2313
 2246TIP3    H1 6681   7.813   3.716   2.066 -1.0767 -0.9493  1.5200
 2246TIP3    H2 6682   7.958   3.726   2.023 -1.9843  0.2492 -1.4902
 2247TIP3   OH2 6683   2.765   4.082   3.489  0.1066  0.1785  0.0890
 2247TIP3    H1 6684   2.769   4.014   3.556  1.0274 -0.4457 -0.5690
 2247TIP3    H2 6685   2.855   4.116   3.484  0.0668  0.1630 -0.8619
 2248TIP3   OH2 6686   2.356   2.744   3.597  0.1256  0.8865 -0.2429
 2248TIP3    H1 6687   2.405   2.820   3.629  0.5669  0.5010  0.0153
 2248TIP3    H2 6688   2.390   2.729   3.509  1.6938 -0.3914  0.5423
 2249TIP3   OH2 6689   5.326   5.243   3.990 -0.1129  0.4687  0.5574
 2249TIP3    H1 6690   5.374   5.287   4.060  1.4091  0.2303 -0.2955
 2249TIP3    H2 6691   5.310   5.155   4.024  1.4634  0.0422  0.2762
 2250TIP3   OH2 6692   0.889   7.801   1.193  0.3410 -0.6809  0.0504
 2250TIP3    H1 6693   0.818   7.827   1.135  0.0683  0.8396  1.0070
 2250TIP3    H2 6694   0.952   7.758   1.136 -0.9491 -1.3002 -0.9622
 2251TIP3   OH2 6695   0.591   3.784   1.389  0.1316 -0.2087  0.4525
 2251TIP3    H1 6696   0.514   3.805   1.337  1.0691  0.9907 -0.5163
 2251TIP3    H2 6697   0.566   3.706   1.439 -0.9683 -1.1266 -1.4259
 2252TIP3   OH2 6698   2.973   7.190   6.422  0.2533 -0.0729  0.2699
 2252TIP3    H1 6699   3.017   7.239   6.492  1.3851 -0.2481 -0.2863
 2252TIP3    H2 6700   2.892   7.237   6.407  1.1841  1.5007 -0.0753
 2253TIP3   OH2 6701   4.687   3.744   1.064 -0.1840 -0.2018  0.4596
 2253TIP3    H1 6702   4.658   3.659   1.032  1.8068 -0.1925 -1.5691
 2253TIP3    H2 6703   4.732   3.726   1.147 -0.0938 -1.0657  0.2229
 2254TIP3   OH2 6704   5.513   1.609   5.687  0.3510  0.2374 -0.6796
 2254TIP3    H1 6705   5.499   1.704   5.696 -0.8932 -0.1558  2.9661
 2254TIP3    H2 6706   5.575   1.587   5.757  0.3417 -1.7311 -1.2339
 2255TIP3   OH2 6707   4.577   3.066   2.721 -0.0991  0.6528  0.0468
 2255TIP3    H1 6708   4.496   3.034   2.761 -0.1698  1.2379  0.3757
 2255TIP3    H2 6709   4.552   3.146   2.675  0.2923  0.8451  0.1612
 2256TIP3   OH2 6710   5.134   1.836   1.810 -0.1733  0.1562 -0.3973
 2256TIP3    H1 6711   5.147   1.930   1.797 -3.5985  0.6119 -1.5955
 2256TIP3    H2 6712   5.172   1.818   1.896  2.2173  2.1759 -0.9096
 2257TIP3   OH2 6713   5.036   1.024   4.897  0.1666  0.0786  0.9122
 2257TIP3    H1 6714   5.037   0.931   4.922  1.1732 -0.5775 -1.3114
 2257TIP3    H2 6715   5.003   1.024   4.807  2.4797  1.5650 -0.0448
 2258TIP3   OH2 6716   2.133   6.380   2.520 -0.0006 -0.0780 -0.5650
 2258TIP3    H1 6717   2.113   6.471   2.499 -1.3779 -0.3605 -0.5392
 2258TIP3    H2 6718   2.050   6.343   2.549  0.5772 -1.3110 -0.4233
 2259TIP3   OH2 6719   1.467   3.230   2.951 -0.1494  0.8743  0.3258
 2259TIP3    H1 6720   1.542   3.181   2.918 -0.6845 -0.3688  0.8806
 2259TIP3    H2 6721   1.488   3.322   2.933  0.9876  0.4684 -0.5316
 2260TIP3   OH2 6722   7.235   5.155   6.057 -0.8073 -0.1077 -0.0043
 2260TIP3    H1 6723   7.284   5.175   6.137 -1.3175  1.3253 -0.0083
 2260TIP3    H2 6724   7.282   5.082   6.017  0.7180  0.5324  0.5229
 2261TIP3   OH2 6725   6.870   4.309   5.913 -0.0343 -0.1284  0.1742
 2261TIP3    H1 6726   6.900   4.286   6.001  0.6375 -0.4664 -0.1351
 2261TIP3    H2 6727   6.888   4.403   5.905 -1.7686  0.3146  1.0404
 2262TIP3   OH2 6728   1.128   4.735   5.773  0.4340  0.2110  0.0939
 2262TIP3    H1 6729   1.154   4.648   5.744 -0.4315 -0.1999  0.5130
 2262TIP3    H2 6730   1.082   4.772   5.698 -1.7450 -0.8261  0.8236
 2263TIP3   OH2 6731   2.281   3.239   0.913 -0.3004  0.8825  0.4973
 2263TIP3    H1 6732   2.370   3.275   0.917 -0.7659  2.1750 -0.0143
 2263TIP3    H2 6733   2.262   3.233   0.819 -1.1189  1.6116  0.6039
 2264TIP3   OH2 6734   3.460   1.795   5.151 -0.7122  0.0733  0.2637
 2264TIP3    H1 6735   3.535   1.840   5.190 -0.1628  0.4544 -1.1877
 2264TIP3    H2 6736   3.471   1.805   5.057 -1.9169 -0.9703 -0.0274
 2265TIP3   OH2 6737   8.099   5.769   0.227 -0.4288  0.3836  0.2448
 2265TIP3    H1 6738   8.114   5.707   0.155  0.3552 -0.8845  1.4443
 2265TIP3    H2 6739   8.026   5.823   0.197 -0.1533 -0.1336 -1.4753
 2266TIP3   OH2 6740   1.967   5.282   6.275  0.6381 -0.3832  0.5278
 2266TIP3    H1 6741   1.906   5.237   6.333 -0.5884  0.5297 -0.0101
 2266TIP3    H2 6742   2.028   5.327   6.334 -1.7566  2.1584  1.2589
 2267TIP3   OH2 6743   3.722   7.480   4.200 -0.2307  0.5158 -0.2656
 2267TIP3    H1 6744   3.744   7.388   4.216  0.1920  0.8298  1.0499
 2267TIP3    H2 6745   3.799   7.528   4.230 -1.7339  1.5160  2.3519
 2268TIP3   OH2 6746   2.205   6.693   3.738  0.1537 -0.7250  0.1826
 2268TIP3    H1 6747   2.242   6.618   3.786  2.7504  0.7339  0.6450
 2268TIP3    H2 6748   2.247   6.689   3.652 -1.1680 -0.8381 -0.4866
 2269TIP3   OH2 6749   7.870   7.160   3.024  0.1170  0.3930 -0.1742
 2269TIP3    H1 6750   7.877   7.066   3.037  0.0211  0.3384 -0.5025
 2269TIP3    H2 6751   7.944   7.197   3.072 -1.3562  0.3679  2.2736
 2270TIP3   OH2 6752   4.229   1.044   4.793 -0.3895 -0.9824 -0.0314
 2270TIP3    H1 6753   4.239   1.012   4.704  0.5943 -1.2685  0.1707
 2270TIP3    H2 6754   4.258   0.971   4.848 -1.0009 -0.8135  0.5269
 2271TIP3   OH2 6755   3.248   0.147   4.266 -0.7016 -0.0642  0.1926
 2271TIP3    H1 6756   3.313   0.172   4.200  0.8562  1.0205  2.0385
 2271TIP3    H2 6757   3.172   0.119   4.215 -0.0132  1.8579 -2.0795
 2272TIP3   OH2 6758   3.424   5.761   1.556 -0.5368 -0.2796  0.0586
 2272TIP3    H1 6759   3.493   5.721   1.609  0.0889  0.6443 -0.0295
 2272TIP3    H2 6760   3.463   5.842   1.524 -1.7466  0.3721  0.1901
 2273TIP3   OH2 6761   4.976   2.708   0.187  0.4779  0.7498  0.4877
 2273TIP3    H1 6762   5.001   2.624   0.224  0.0939 -0.8568 -2.6050
 2273TIP3    H2 6763   5.045   2.728   0.124 -0.8928  1.2580 -0.9137
 2274TIP3   OH2 6764   1.786   0.788   4.006 -0.0950  0.1935  0.0718
 2274TIP3    H1 6765   1.751   0.706   4.039 -0.5073  0.4690  0.3310
 2274TIP3    H2 6766   1.717   0.823   3.950 -0.0347  0.4875  0.1757
 2275TIP3   OH2 6767   2.454   4.272   3.650  0.5705  0.0617 -0.4517
 2275TIP3    H1 6768   2.374   4.309   3.613 -1.2322 -3.5310 -0.6713
 2275TIP3    H2 6769   2.517   4.273   3.579 -0.9710 -1.5174 -1.9229
 2276TIP3   OH2 6770   7.279   4.389   3.747  0.6931 -0.0057 -0.2095
 2276TIP3    H1 6771   7.360   4.440   3.736  1.8289 -1.8898 -1.0086
 2276TIP3    H2 6772   7.232   4.401   3.665  1.7578 -1.5025 -1.0916
 2277TIP3   OH2 6773   3.185   0.392   1.854  0.1639 -0.7851  0.6281
 2277TIP3    H1 6774   3.222   0.304   1.855  3.0785  0.2646  2.3647
 2277TIP3    H2 6775   3.218   0.432   1.774 -0.2872 -0.9684  0.3528
 2278TIP3   OH2 6776   2.215   3.244   2.553  0.0146 -0.1603  0.0728
 2278TIP3    H1 6777   2.295   3.259   2.604  0.9119  1.2509 -1.6530
 2278TIP3    H2 6778   2.146   3.243   2.619  1.4180 -1.5276  1.6346
 2279TIP3   OH2 6779   7.860   7.071   6.569 -0.5264 -0.1193  0.5431
 2279TIP3    H1 6780   7.956   7.072   6.572 -0.4549  1.2740 -0.9619
 2279TIP3    H2 6781   7.839   7.007   6.501 -0.6604 -0.3650  0.8166
 2280TIP3   OH2 6782   4.910   7.437   2.718 -0.2176  0.1472 -0.2505
 2280TIP3    H1 6783   4.856   7.514   2.733  0.2597  0.0625  2.3947
 2280TIP3    H2 6784   5.000   7.469   2.724 -0.0149 -0.5389  0.6056
 2281TIP3   OH2 6785   2.406   1.441   5.629 -0.7520  0.1954 -0.0874
 2281TIP3    H1 6786   2.341   1.417   5.695 -2.1468 -1.3190 -1.9256
 2281TIP3    H2 6787   2.481   1.384   5.646 -0.1562  1.3843  1.5301
 2282TIP3   OH2 6788   3.946   6.007   4.090  0.4976 -0.1831  0.8220
 2282TIP3    H1 6789   3.996   6.072   4.040 -0.0511 -0.8498 -0.6409
 2282TIP3    H2 6790   4.012   5.961   4.142  1.1663  0.1784  0.3068
 2283TIP3   OH2 6791   5.899   7.609   2.122  0.0238  0.3119 -0.0083
 2283TIP3    H1 6792   5.885   7.523   2.163  0.3240  0.0824 -0.3788
 2283TIP3    H2 6793   5.961   7.592   2.052  1.0180  1.0464  0.6684
 2284TIP3   OH2 6794   6.149   0.090   4.270  0.1196  0.5538  0.0832
 2284TIP3    H1 6795   6.234   0.126   4.294 -0.3058  1.0267  0.9405
 2284TIP3    H2 6796   6.097   0.095   4.351 -0.9812  1.0316 -0.6238
 2285TIP3   OH2 6797   0.280   4.337   5.440 -0.2831  0.8790 -0.8475
 2285TIP3    H1 6798   0.357   4.302   5.395  0.5585 -0.9212  1.7759
 2285TIP3    H2 6799   0.270   4.282   5.518 -2.7468  2.6380  0.2211
 2286TIP3   OH2 6800   3.693   5.075   0.122  0.5672 -0.0500  0.2213
 2286TIP3    H1 6801   3.623   5.095   0.185  1.0557  0.3996  0.6320
 2286TIP3    H2 6802   3.707   5.157   0.075  0.0543 -0.4452 -0.6315
 2287TIP3   OH2 6803   2.251   0.831   3.271  0.1578 -0.5358 -0.1595
 2287TIP3    H1 6804   2.156   0.840   3.276  0.2312 -0.1514  0.7935
 2287TIP3    H2 6805   2.279   0.827   3.362  1.1696  0.7311 -0.3790
 2288TIP3   OH2 6806   5.578   1.849   4.594 -0.6175 -0.2758 -0.1303
 2288TIP3    H1 6807   5.490   1.847   4.633  0.4235  2.4415  2.8772
 2288TIP3    H2 6808   5.636   1.860   4.669  1.7188  4.7547 -2.2135
 2289TIP3   OH2 6809   0.998   4.811   5.549 -0.8526  0.3678  1.3111
 2289TIP3    H1 6810   0.932   4.854   5.495  1.4412 -2.3842 -4.6257
 2289TIP3    H2 6811   0.963   4.724   5.566  0.6971 -0.9925 -1.5984
 2290TIP3   OH2 6812   2.968   5.361   5.091  0.1013  0.3715  0.4609
 2290TIP3    H1 6813   3.000   5.284   5.139  0.4977 -0.8283 -1.6098
 2290TIP3    H2 6814   3.018   5.434   5.128  1.5211 -0.7261  0.8233
 2291TIP3   OH2 6815   6.447   6.108   1.955  0.3018  0.1062 -0.4068
 2291TIP3    H1 6816   6.421   6.018   1.932  0.3768  0.0348 -0.2159
 2291TIP3    H2 6817   6.432   6.114   2.049 -0.1802  0.4592 -0.5020
 2292TIP3   OH2 6818   1.521   0.365   3.741 -0.0912 -0.4089  0.0073
 2292TIP3    H1 6819   1.512   0.306   3.666  2.1471 -0.3165 -0.3992
 2292TIP3    H2 6820   1.568   0.314   3.806  1.2817  0.6848 -0.0936
 2293TIP3   OH2 6821   7.934   7.463   2.431  0.0674  0.1081  0.2003
 2293TIP3    H1 6822   7.986   7.456   2.510  0.9323 -0.9032 -0.4399
 2293TIP3    H2 6823   7.966   7.393   2.374 -0.9989  0.3820 -0.7796
 2294TIP3   OH2 6824   1.555   6.321   4.554  0.1870 -0.2149 -0.1115
 2294TIP3    H1 6825   1.567   6.328   4.649 -0.8540 -1.2802  0.1155
 2294TIP3    H2 6826   1.601   6.398   4.519 -0.7387  1.0731  1.3630
 2295TIP3   OH2 6827   0.017   1.805   3.429  0.0809 -0.1457 -0.4625
 2295TIP3    H1 6828   0.073   1.782   3.354 -0.3493 -2.2158 -0.1899
 2295TIP3    H2 6829   0.022   1.901   3.433  0.4196  0.0118 -2.8961
 2296TIP3   OH2 6830   3.386   0.397   0.476 -0.2234 -0.4356 -0.4601
 2296TIP3    H1 6831   3.371   0.323   0.534 -0.8329  0.7841  1.0026
 2296TIP3    H2 6832   3.460   0.444   0.515 -0.6744  0.4383 -0.6274
 2297TIP3   OH2 6833   3.157   6.970   3.020  0.1056 -0.7507 -0.1378
 2297TIP3    H1 6834   3.189   6.888   3.057  0.2086 -0.9473 -0.6494
 2297TIP3    H2 6835   3.190   7.038   3.079  0.5642 -1.0312 -0.0680
 2298TIP3   OH2 6836   6.652   0.941   5.640  0.7451  0.1279 -0.4786
 2298TIP3    H1 6837   6.744   0.918   5.656  0.7226 -0.5490 -1.2432
 2298TIP3    H2 6838   6.631   0.898   5.557 -0.0416  0.9225 -0.7051
 2299TIP3   OH2 6839   5.970   3.793   3.491  0.4265  0.3673 -0.1315
 2299TIP3    H1 6840   5.881   3.821   3.512  0.3347 -0.3699  0.5133
 2299TIP3    H2 6841   6.026   3.847   3.547  0.2095 -1.2280  1.7254
 2300TIP3   OH2 6842   4.768   2.494   4.593  0.4866  0.0856  0.6163
 2300TIP3    H1 6843   4.799   2.457   4.510 -0.6196  0.9371 -0.2140
 2300TIP3    H2 6844   4.847   2.531   4.634  1.1621 -0.9583  0.2850
 2301TIP3   OH2 6845   1.215   6.480   1.394 -0.2534  0.2213  0.1332
 2301TIP3    H1 6846   1.165   6.560   1.413  0.1163  0.6283 -0.5771
 2301TIP3    H2 6847   1.199   6.424   1.470 -2.3338  0.0559 -0.3729
 2302TIP3   OH2 6848   5.475   6.416   6.029  0.0295  0.2983 -0.5322
 2302TIP3    H1 6849   5.541   6.401   5.962  0.6685  0.0705  0.1382
 2302TIP3    H2 6850   5.416   6.341   6.021  1.1125 -0.6935  0.3209
 2303TIP3   OH2 6851   5.268   6.572   5.826  0.3479  0.2408 -0.5129
 2303TIP3    H1 6852   5.182   6.545   5.794  0.4216  0.8875 -1.2794
 2303TIP3    H2 6853   5.272   6.539   5.915 -0.2826 -0.6941 -0.8211
 2304TIP3   OH2 6854   8.120   2.390   3.526  0.0991  0.3241 -0.8771
 2304TIP3    H1 6855   8.125   2.432   3.440  0.9670  1.0127 -0.5052
 2304TIP3    H2 6856   8.116   2.297   3.507  1.1128  0.4245 -1.6583
 2305TIP3   OH2 6857   1.746   1.071   5.107  0.2390 -0.1673  0.0100
 2305TIP3    H1 6858   1.832   1.074   5.066  0.2823 -0.8132  0.0466
 2305TIP3    H2 6859   1.688   1.037   5.039  0.1891 -0.6213  0.2760
 2306TIP3   OH2 6860   1.328   0.350   0.518 -0.6376 -0.2427 -0.0471
 2306TIP3    H1 6861   1.407   0.404   0.513 -0.7600  0.1600  1.6563
 2306TIP3    H2 6862   1.257   0.413   0.530 -0.8895 -0.7080  1.0341
 2307TIP3   OH2 6863   3.270   2.181   6.011  0.0238  0.0066 -0.0543
 2307TIP3    H1 6864   3.218   2.154   5.935  0.0279  0.6539 -0.2983
 2307TIP3    H2 6865   3.233   2.132   6.084 -1.0265  0.5349 -0.2028
 2308TIP3   OH2 6866   8.238   4.902   0.886  0.3860 -0.2089 -0.1175
 2308TIP3    H1 6867   8.287   4.977   0.854 -1.3521  0.2739 -1.8458
 2308TIP3    H2 6868   8.168   4.889   0.821 -0.8826 -1.7434  1.4429
 2309TIP3   OH2 6869   1.774   0.181   3.091  0.0024  0.4313 -0.2691
 2309TIP3    H1 6870   1.798   0.118   3.023 -0.0646  2.5997 -2.4833
 2309TIP3    H2 6871   1.844   0.247   3.087 -2.2048  2.8715 -1.3741
 2310TIP3   OH2 6872   6.398   1.004   5.729 -0.1924  0.1216 -1.1498
 2310TIP3    H1 6873   6.458   1.058   5.781 -0.3422  0.0211 -0.8704
 2310TIP3    H2 6874   6.455   0.953   5.672  0.0669 -0.8132 -0.0923
 2311TIP3   OH2 6875   0.583   1.963   1.792 -0.2535  0.4618  0.3261
 2311TIP3    H1 6876   0.552   1.890   1.738  1.7537 -0.1743 -0.0643
 2311TIP3    H2 6877   0.571   2.041   1.737  0.2278  0.0316 -0.4143
 2312TIP3   OH2 6878   3.285   2.613   6.758  0.0586 -0.8411  0.4081
 2312TIP3    H1 6879   3.244   2.619   6.671  1.9626 -0.8352 -0.5377
 2312TIP3    H2 6880   3.281   2.519   6.778 -0.3399 -0.8529  0.2993
 2313TIP3   OH2 6881   6.024   3.134   2.600  0.2055  0.1040  0.1367
 2313TIP3    H1 6882   6.109   3.164   2.567 -0.0437  0.4427 -0.2063
 2313TIP3    H2 6883   5.989   3.079   2.530 -0.4967  1.1343 -0.3482
 2314TIP3   OH2 6884   8.224   3.180   3.714  0.0572  0.0467  0.6051
 2314TIP3    H1 6885   8.140   3.227   3.710  0.2166  0.5004  2.0894
 2314TIP3    H2 6886   8.238   3.149   3.624 -0.7668  1.5884 -0.0992
 2315TIP3   OH2 6887   1.400   7.074   0.381 -0.1291  0.1253  0.2639
 2315TIP3    H1 6888   1.477   7.091   0.435 -0.2018 -1.5747  0.9422
 2315TIP3    H2 6889   1.408   7.137   0.308  2.9887 -1.3155 -0.8227
 2316TIP3   OH2 6890   8.073   6.102   3.365  0.9057  0.2177  0.0180
 2316TIP3    H1 6891   8.144   6.135   3.420 -0.3113  1.7566  0.7468
 2316TIP3    H2 6892   8.061   6.011   3.393  1.4952  0.4320  1.0105
 2317TIP3   OH2 6893   0.209   1.196   6.666  0.8947 -0.1777 -0.6152
 2317TIP3    H1 6894   0.119   1.218   6.687  0.6348 -1.3284 -0.4971
 2317TIP3    H2 6895   0.260   1.269   6.701 -0.0041  0.6429 -0.9802
 2318TIP3   OH2 6896   4.093   2.009   2.383 -0.7289  0.2738  0.4112
 2318TIP3    H1 6897   4.002   1.981   2.388 -0.5341 -0.7055 -1.0014
 2318TIP3    H2 6898   4.120   1.990   2.293  1.5363 -1.5849  1.3683
 2319TIP3   OH2 6899   7.515   4.871   1.185 -0.3631  0.3733  0.1368
 2319TIP3    H1 6900   7.476   4.801   1.237  3.6632 -0.2719  2.7700
 2319TIP3    H2 6901   7.495   4.848   1.094 -2.2188 -2.1514  1.0796
 2320TIP3   OH2 6902   6.691   6.698   6.790  0.2354 -0.0118 -0.5889
 2320TIP3    H1 6903   6.704   6.777   6.737  1.7396 -0.5069 -1.0222
 2320TIP3    H2 6904   6.596   6.685   6.792  0.0181  1.3533 -1.1742
 2321TIP3   OH2 6905   3.328   3.596   0.345 -0.3123 -0.1646 -0.0265
 2321TIP3    H1 6906   3.284   3.590   0.430 -0.3174  0.6187  0.0333
 2321TIP3    H2 6907   3.393   3.664   0.357  0.1224 -0.4976 -0.4687
 2322TIP3   OH2 6908   1.242   4.172   0.909 -0.5103 -0.3928  0.7615
 2322TIP3    H1 6909   1.204   4.178   0.997 -1.1970 -1.3945  0.5484
 2322TIP3    H2 6910   1.195   4.101   0.867  0.2985 -0.3932 -0.1891
 2323TIP3   OH2 6911   8.220   6.311   1.019 -0.1113  0.4389  0.2952
 2323TIP3    H1 6912   8.187   6.226   0.987  1.0867  0.3126 -0.6677
 2323TIP3    H2 6913   8.170   6.375   0.968  0.1986  0.2762 -0.2200
 2324TIP3   OH2 6914   3.065   6.455   1.697 -0.6934  0.8789 -0.2875
 2324TIP3    H1 6915   3.069   6.482   1.605 -0.1170  0.2308 -0.4604
 2324TIP3    H2 6916   3.105   6.368   1.698 -0.6427  0.9061  0.5928
 2325TIP3   OH2 6917   3.817   1.907   3.187  0.1393  0.5018 -0.0700
 2325TIP3    H1 6918   3.834   1.997   3.214  0.2522  1.0232 -1.7905
 2325TIP3    H2 6919   3.902   1.875   3.155  0.2820 -0.4931  1.1827
 2326TIP3   OH2 6920   1.927   5.801   2.279  0.1931  0.5008 -0.4993
 2326TIP3    H1 6921   1.865   5.753   2.334  0.9503 -0.7443 -0.6810
 2326TIP3    H2 6922   1.914   5.893   2.302 -1.0353  0.1926  0.1516
 2327TIP3   OH2 6923   5.645   4.098   5.409  0.2725  0.3141  0.2171
 2327TIP3    H1 6924   5.659   4.020   5.463  0.7032  0.3363  0.1351
 2327TIP3    H2 6925   5.732   4.125   5.382  0.0998  0.6424 -0.0176
 2328TIP3   OH2 6926   1.406   0.801   5.546  0.2583 -0.0971  0.6002
 2328TIP3    H1 6927   1.326   0.800   5.598 -0.4699  1.5136 -0.4292
 2328TIP3    H2 6928   1.377   0.811   5.456  1.5484 -1.7315 -0.0508
 2329TIP3   OH2 6929   7.970   4.516   1.164  0.0504  0.4721  0.1604
 2329TIP3    H1 6930   7.976   4.586   1.098 -0.8636  0.6708  0.2788
 2329TIP3    H2 6931   7.894   4.540   1.217 -0.8580 -1.0944 -0.3753
 2330TIP3   OH2 6932   7.482   3.799   2.320 -0.9495  0.5884  0.1283
 2330TIP3    H1 6933   7.404   3.763   2.360  0.0378 -0.1566  1.4575
 2330TIP3    H2 6934   7.479   3.769   2.229 -1.7684 -0.1376  0.3903
 2331TIP3   OH2 6935   6.733   5.213   5.098 -0.1818  0.1025  0.1434
 2331TIP3    H1 6936   6.651   5.204   5.147 -0.8495  2.1676 -0.4893
 2331TIP3    H2 6937   6.729   5.301   5.061  1.4300 -0.4710 -1.5532
 2332TIP3   OH2 6938   0.465   3.226   1.210 -0.3782 -0.0371 -0.1643
 2332TIP3    H1 6939   0.471   3.310   1.164  0.6938  0.3842  0.7260
 2332TIP3    H2 6940   0.376   3.224   1.244 -0.2217  1.0272  0.3353
 2333TIP3   OH2 6941   6.479   1.839   3.478 -0.2210  0.4829 -0.2195
 2333TIP3    H1 6942   6.486   1.906   3.546  0.8137 -0.2563  0.4303
 2333TIP3    H2 6943   6.385   1.836   3.456 -0.2141  2.4984 -0.6582
 2334TIP3   OH2 6944   8.239   4.112   0.097  0.4969 -0.4013 -0.1967
 2334TIP3    H1 6945   8.224   4.066   0.014 -2.8573  1.0734 -0.6005
 2334TIP3    H2 6946   8.333   4.110   0.109  0.9833 -2.1375 -3.1909
 2335TIP3   OH2 6947   4.194   3.951   1.944 -0.1443 -0.5803  0.1609
 2335TIP3    H1 6948   4.140   3.987   2.014  0.8349 -0.5918  0.9463
 2335TIP3    H2 6949   4.271   3.915   1.988  0.1770 -1.2075 -0.8577
 2336TIP3   OH2 6950   8.098   6.584   6.063  0.1148 -0.3409 -0.5037
 2336TIP3    H1 6951   8.130   6.649   6.000  3.1110 -0.7244  0.4362
 2336TIP3    H2 6952   8.175   6.529   6.081 -1.8573 -3.1703 -0.0131
 2337TIP3   OH2 6953   3.389   1.434   6.716  0.1112 -0.0932  0.6127
 2337TIP3    H1 6954   3.338   1.513   6.734 -0.5506 -0.6467  1.1898
 2337TIP3    H2 6955   3.474   1.468   6.686 -0.5320  0.8341 -0.2421
 2338TIP3   OH2 6956   2.327   7.157   6.729  0.0457 -0.2283 -0.5019
 2338TIP3    H1 6957   2.375   7.154   6.646  1.6659 -0.8914  0.4101
 2338TIP3    H2 6958   2.319   7.065   6.755  1.0404  0.0350  0.8565
 2339TIP3   OH2 6959   0.169   6.035  -0.017 -0.8096  0.0427 -0.1559
 2339TIP3    H1 6960   0.123   6.016   0.064  0.8843 -0.9706  0.6268
 2339TIP3    H2 6961   0.262   6.023   0.004 -0.2724  0.3784 -2.0745
 2340TIP3   OH2 6962   6.915   0.261   5.635 -0.0120  0.6423 -0.2796
 2340TIP3    H1 6963   6.929   0.196   5.704  0.0433  1.1531  0.1980
 2340TIP3    H2 6964   6.838   0.310   5.665 -0.7149  0.1164 -1.1599
 2341TIP3   OH2 6965   7.254   2.563   1.491  0.2385 -0.3193  0.2076
 2341TIP3    H1 6966   7.200   2.564   1.412 -0.6076 -0.7079  0.7726
 2341TIP3    H2 6967   7.191   2.556   1.563  1.0164 -0.2484  0.9040
 2342TIP3   OH2 6968   3.689   3.079   2.578 -0.4696 -0.0641 -0.0723
 2342TIP3    H1 6969   3.659   3.048   2.492 -1.1580 -1.1619  0.5430
 2342TIP3    H2 6970   3.782   3.054   2.581 -0.0326  1.2995 -1.0597
 2343TIP3   OH2 6971   2.677   0.791   2.346 -0.1954  0.4609 -0.2053
 2343TIP3    H1 6972   2.694   0.698   2.360 -1.5569  0.3497  0.8770
 2343TIP3    H2 6973   2.615   0.793   2.272 -1.0429  0.4173  0.4869
 2344TIP3   OH2 6974   2.917   0.393   1.763 -0.3577  0.1402 -0.2187
 2344TIP3    H1 6975   2.860   0.317   1.751 -1.5421  0.8081  0.8823
 2344TIP3    H2 6976   3.001   0.356   1.793 -0.5683 -0.7843 -0.7451
 2345TIP3   OH2 6977   0.911   2.359   1.685 -0.6477 -0.0269  0.1351
 2345TIP3    H1 6978   0.994   2.399   1.712 -0.1069 -1.2668  0.4214
 2345TIP3    H2 6979   0.918   2.351   1.590 -1.5431  2.1695 -0.1728
 2346TIP3   OH2 6980   5.215   7.783   0.104  0.5901  0.2250 -0.5278
 2346TIP3    H1 6981   5.172   7.699   0.121  1.7321 -0.4231 -0.6983
 2346TIP3    H2 6982   5.174   7.816   0.024 -0.0047 -0.0789 -0.3492
 2347TIP3   OH2 6983   1.662   6.262   3.278  0.1542  0.2495  0.0309
 2347TIP3    H1 6984   1.605   6.236   3.205  0.4609 -0.1477 -0.0699
 2347TIP3    H2 6985   1.710   6.338   3.245  1.0813 -0.5698 -0.5874
 2348TIP3   OH2 6986   1.742   3.579   0.596  0.1652 -0.4614 -0.0482
 2348TIP3    H1 6987   1.784   3.652   0.641 -1.7958  0.4281  0.4491
 2348TIP3    H2 6988   1.715   3.520   0.667  0.3077 -0.8766 -0.3360
 2349TIP3   OH2 6989   3.590   6.941   0.657 -0.0843  0.0476  0.2584
 2349TIP3    H1 6990   3.531   6.870   0.683  3.4532 -2.4351  2.5638
 2349TIP3    H2 6991   3.630   6.910   0.576 -0.1624  0.5055  0.0432
 2350TIP3   OH2 6992   1.039   6.081   5.363 -0.2360  0.4002  0.0118
 2350TIP3    H1 6993   1.122   6.043   5.391 -1.4508 -1.5906  1.2294
 2350TIP3    H2 6994   1.002   6.118   5.443 -0.7555  0.8001 -0.4072
 2351TIP3   OH2 6995   2.588   6.236   4.433  0.0521 -0.4333  0.0814
 2351TIP3    H1 6996   2.535   6.224   4.355 -0.0867 -1.0803  0.2670
 2351TIP3    H2 6997   2.568   6.160   4.488  0.1399  0.0141  0.7481
 2352TIP3   OH2 6998   4.175   7.853   1.136 -0.7026  0.4903  0.2870
 2352TIP3    H1 6999   4.238   7.789   1.103  0.9619  2.0646  0.2921
 2352TIP3    H2 7000   4.096   7.802   1.151 -0.0759 -1.1796 -1.6141
 2353TIP3   OH2 7001   6.253   1.451   2.509 -0.0402 -0.5619  0.2559
 2353TIP3    H1 7002   6.196   1.443   2.434 -0.3232  2.2259  0.0496
 2353TIP3    H2 7003   6.221   1.386   2.571 -1.2789 -1.3331 -1.1321
 2354TIP3   OH2 7004   0.467   4.480   6.261  0.0950  0.0832  0.0909
 2354TIP3    H1 7005   0.543   4.498   6.206  0.0228  0.5413  0.1380
 2354TIP3    H2 7006   0.391   4.493   6.203  0.0092  0.7999  0.3476
 2355TIP3   OH2 7007   4.852   2.508   4.151 -0.6058  0.2220  0.0005
 2355TIP3    H1 7008   4.757   2.508   4.135 -0.9471  0.2951  1.8155
 2355TIP3    H2 7009   4.882   2.424   4.115 -1.8105 -0.9765  1.5959
 2356TIP3   OH2 7010   3.945   7.657   5.456 -0.3006 -0.1015  0.4238
 2356TIP3    H1 7011   3.949   7.654   5.360  1.9863 -0.7775  0.4713
 2356TIP3    H2 7012   3.983   7.742   5.479 -2.1969  0.7047  0.7422
 2357TIP3   OH2 7013   3.337   6.998   1.415 -0.1499 -0.1410  0.0255
 2357TIP3    H1 7014   3.368   7.040   1.496 -0.0044 -0.0589 -0.0735
 2357TIP3    H2 7015   3.400   6.927   1.401  0.4152  0.4645 -0.5670
 2358TIP3   OH2 7016   0.882   0.752   0.429  0.4255 -0.0997  0.1333
 2358TIP3    H1 7017   0.963   0.704   0.449  0.9064  1.6090  2.8469
 2358TIP3    H2 7018   0.909   0.844   0.428 -1.6969  0.6471  2.7651
 2359TIP3   OH2 7019   5.403   5.312   2.922 -0.3665  0.0968  0.0961
 2359TIP3    H1 7020   5.474   5.269   2.969  0.2492  1.7840  0.7703
 2359TIP3    H2 7021   5.340   5.337   2.990 -0.4105  0.8076 -0.1934
 2360TIP3   OH2 7022   6.270   5.089   6.024 -0.1035 -0.2117  0.2186
 2360TIP3    H1 7023   6.187   5.137   6.029  0.9387  1.8366 -1.2367
 2360TIP3    H2 7024   6.268   5.046   5.939  0.7647  0.6908 -0.2619
 2361TIP3   OH2 7025   3.374   5.637   5.599 -0.2064 -0.5043  0.2191
 2361TIP3    H1 7026   3.426   5.717   5.610 -0.1003 -0.0569 -2.6223
 2361TIP3    H2 7027   3.434   5.566   5.618  0.1018  0.0580  1.4309
 2362TIP3   OH2 7028   1.078   5.267   5.540 -0.0573  0.3955 -0.1179
 2362TIP3    H1 7029   1.142   5.203   5.509  1.4016  1.4273  0.6853
 2362TIP3    H2 7030   1.018   5.278   5.466  0.4028 -0.9333 -0.7193
 2363TIP3   OH2 7031   2.249   4.453   2.095  0.3013 -0.3299 -0.6246
 2363TIP3    H1 7032   2.246   4.387   2.164 -0.1379 -0.8491 -1.1248
 2363TIP3    H2 7033   2.212   4.409   2.018 -0.4260  0.6528 -0.8523
 2364TIP3   OH2 7034   1.433   6.740   5.528  0.0786  0.1840 -0.4078
 2364TIP3    H1 7035   1.367   6.732   5.459 -0.6737  0.1321  0.3025
 2364TIP3    H2 7036   1.413   6.823   5.570  1.5025  0.9646 -1.2266
 2365TIP3   OH2 7037   0.574   4.712   1.452 -0.5976 -0.3310 -0.2330
 2365TIP3    H1 7038   0.569   4.617   1.437  2.6220 -0.2383 -3.0985
 2365TIP3    H2 7039   0.663   4.727   1.482 -1.1267  1.8006  0.4563
 2366TIP3   OH2 7040   3.602   1.356   1.059 -0.2709  0.3058  0.1413
 2366TIP3    H1 7041   3.541   1.426   1.037  1.8096  1.6048 -1.8553
 2366TIP3    H2 7042   3.656   1.392   1.129 -0.0949  0.1796  0.0723
 2367TIP3   OH2 7043   0.648   1.164   2.679  0.0300 -0.3698 -0.2200
 2367TIP3    H1 7044   0.670   1.130   2.766 -0.3386 -0.1239 -0.0301
 2367TIP3    H2 7045   0.596   1.094   2.639 -1.3480  0.2330  0.4424
 2368TIP3   OH2 7046   0.139   1.528   2.405 -0.1711 -0.7448 -0.6433
 2368TIP3    H1 7047   0.126   1.471   2.480 -1.7155 -0.1673 -0.4418
 2368TIP3    H2 7048   0.129   1.470   2.329 -0.7995 -0.9316 -0.4271
 2369TIP3   OH2 7049   4.047   6.724   2.112  0.3855 -0.1609  0.3982
 2369TIP3    H1 7050   4.000   6.713   2.195  1.0521 -0.2373  0.7721
 2369TIP3    H2 7051   3.979   6.751   2.050 -0.0596  0.2332  1.0429
 2370TIP3   OH2 7052   5.866   6.627   0.191 -0.2104 -0.3152 -0.5405
 2370TIP3    H1 7053   5.938   6.598   0.136 -0.4608 -0.5050 -0.7773
 2370TIP3    H2 7054   5.873   6.722   0.193 -1.2746 -0.1528 -2.4274
 2371TIP3   OH2 7055   6.995   3.705   2.663  0.2952 -0.0657 -0.0730
 2371TIP3    H1 7056   7.051   3.774   2.626  1.1181 -0.0642  1.1235
 2371TIP3    H2 7057   6.957   3.745   2.742 -0.7827 -0.3334 -0.4399
 2372TIP3   OH2 7058   7.493   1.304   1.991  0.1005 -0.1305 -0.9903
 2372TIP3    H1 7059   7.561   1.239   2.012  0.0502 -0.2651 -1.2359
 2372TIP3    H2 7060   7.533   1.388   2.014 -1.4875 -0.4054  3.9797
 2373TIP3   OH2 7061   7.457   5.412   1.611  0.3684 -0.3290  0.2696
 2373TIP3    H1 7062   7.427   5.325   1.638 -0.3960 -0.6785 -1.5564
 2373TIP3    H2 7063   7.380   5.468   1.621  0.5658 -0.0858  0.4396
 2374TIP3   OH2 7064   4.107   2.651   1.428 -0.0334  0.0663 -0.1279
 2374TIP3    H1 7065   4.068   2.731   1.394  0.6536  0.1411 -0.7719
 2374TIP3    H2 7066   4.172   2.682   1.491  0.7277  0.0648 -0.8894
 2375TIP3   OH2 7067   2.857   3.919   4.732  0.2056  0.4822  0.0126
 2375TIP3    H1 7068   2.927   3.930   4.667  0.5558  0.9821  0.4657
 2375TIP3    H2 7069   2.845   3.825   4.739 -0.7295  0.4183 -1.7280
 2376TIP3   OH2 7070   7.905   2.026   5.982  0.2318  0.3940 -0.5823
 2376TIP3    H1 7071   7.875   2.014   6.072 -0.5876 -1.4172 -1.0592
 2376TIP3    H2 7072   7.998   2.002   5.984  0.2076  0.3268 -0.2289
 2377TIP3   OH2 7073   4.687   3.572   2.911  0.4103 -0.2892  0.1359
 2377TIP3    H1 7074   4.616   3.525   2.868 -0.6362  1.5648 -0.2877
 2377TIP3    H2 7075   4.764   3.556   2.856 -0.6966  1.2896 -2.0382
 2378TIP3   OH2 7076   2.056   7.106   1.361  0.3738 -0.3120 -0.0767
 2378TIP3    H1 7077   2.073   7.118   1.268 -1.3031  0.0342 -0.3661
 2378TIP3    H2 7078   2.061   7.194   1.398  0.9783 -0.4406  0.1535
 2379TIP3   OH2 7079   3.045   4.438   0.146  0.3463  0.2601  0.4888
 2379TIP3    H1 7080   2.991   4.385   0.204  0.4032 -0.7377 -0.3265
 2379TIP3    H2 7081   3.084   4.504   0.203 -1.7398  1.0505  1.0882
 2380TIP3   OH2 7082   1.053   0.212   1.168 -0.2402  0.3100  0.6871
 2380TIP3    H1 7083   0.969   0.179   1.199 -0.0266  1.4424  2.6276
 2380TIP3    H2 7084   1.056   0.303   1.199  1.1451  0.7059 -0.4968
 2381TIP3   OH2 7085   4.974   7.130   5.341 -0.2341  0.2773  0.1031
 2381TIP3    H1 7086   5.038   7.102   5.276 -1.6538 -0.1058 -1.1694
 2381TIP3    H2 7087   4.934   7.209   5.304  2.2073  3.0452  2.6762
 2382TIP3   OH2 7088   2.026   0.381   5.230 -0.3374 -0.3796  0.3774
 2382TIP3    H1 7089   2.094   0.356   5.292 -0.2382  1.1617  0.9300
 2382TIP3    H2 7090   2.067   0.371   5.144 -0.4841 -2.5494  0.5012
 2383TIP3   OH2 7091   7.206   7.739   4.909  0.0196 -0.0757  0.1851
 2383TIP3    H1 7092   7.246   7.821   4.936  1.7441 -0.3793 -1.2402
 2383TIP3    H2 7093   7.225   7.678   4.980 -0.1917  0.4326  0.6864
 2384TIP3   OH2 7094   7.688   3.511   3.940 -0.3487  0.7778 -0.3560
 2384TIP3    H1 7095   7.624   3.582   3.944 -0.7808  0.3452  1.5878
 2384TIP3    H2 7096   7.769   3.553   3.911 -0.3566  2.3039  1.5879
 2385TIP3   OH2 7097   6.107   4.825   0.373 -0.0765 -0.3965  0.1270
 2385TIP3    H1 7098   6.145   4.778   0.446 -0.0795 -0.3613  0.1515
 2385TIP3    H2 7099   6.170   4.814   0.301 -0.0758 -0.4350  0.1336
 2386TIP3   OH2 7100   6.736   4.670   6.520  0.1745  0.6311  0.3524
 2386TIP3    H1 7101   6.654   4.622   6.504  0.9676 -1.0818  1.2040
 2386TIP3    H2 7102   6.716   4.760   6.495 -1.6807  0.0650 -0.3731
 2387TIP3   OH2 7103   4.002   5.891   0.473 -0.4021 -0.1951  0.0840
 2387TIP3    H1 7104   3.920   5.855   0.507  0.0754  0.6080  2.2241
 2387TIP3    H2 7105   4.064   5.818   0.478 -0.5130 -0.2752  0.3275
 2388TIP3   OH2 7106   4.725   1.753   6.493  0.5894 -0.0845 -0.3337
 2388TIP3    H1 7107   4.677   1.722   6.571  3.1019  0.0653  1.3853
 2388TIP3    H2 7108   4.677   1.715   6.420 -3.0478  1.2831  1.0671
 2389TIP3   OH2 7109   1.951   2.070   1.454  0.0646  0.4458 -0.2908
 2389TIP3    H1 7110   1.952   2.015   1.532 -1.1916 -0.4415 -0.8639
 2389TIP3    H2 7111   1.873   2.125   1.464  2.5375  4.0237  1.4574
 2390TIP3   OH2 7112   6.110   0.016   2.463 -0.3668 -0.1436 -0.0732
 2390TIP3    H1 7113   6.100   0.029   2.368 -0.7853 -0.6569 -0.1068
 2390TIP3    H2 7114   6.158   0.093   2.493 -1.6964  0.8638 -0.4252
 2391TIP3   OH2 7115   0.190   7.420   3.541  0.1923  0.3177 -0.1094
 2391TIP3    H1 7116   0.263   7.476   3.567 -0.8049  1.9036 -0.6196
 2391TIP3    H2 7117   0.112   7.465   3.573 -0.5909 -1.4435  0.5963
 2392TIP3   OH2 7118   1.901   3.873   5.004 -0.4501  0.1714  0.0062
 2392TIP3    H1 7119   1.905   3.841   5.094 -0.7559 -1.2593 -0.4582
 2392TIP3    H2 7120   1.816   3.844   4.972 -0.4902  0.9801 -0.6341
 2393TIP3   OH2 7121   6.284   0.556   0.155 -0.0788 -0.0024  0.0270
 2393TIP3    H1 7122   6.283   0.598   0.241  0.5096 -1.2120  0.6626
 2393TIP3    H2 7123   6.351   0.603   0.106  0.1126  0.2270  0.4991
 2394TIP3   OH2 7124   3.049   7.696   6.062  0.5187  0.0595 -0.0564
 2394TIP3    H1 7125   3.060   7.663   6.151  2.2938  0.3035 -0.1636
 2394TIP3    H2 7126   3.115   7.765   6.053 -0.4289  0.8623 -1.1766
 2395TIP3   OH2 7127   3.839   3.138   6.151  0.4372 -0.0859 -0.6537
 2395TIP3    H1 7128   3.930   3.169   6.154  0.5589 -0.4854  0.1255
 2395TIP3    H2 7129   3.787   3.215   6.176  0.5660  0.1061 -0.9709
 2396TIP3   OH2 7130   2.150   3.510   2.493 -0.1023  0.3047 -0.2977
 2396TIP3    H1 7131   2.099   3.503   2.573 -0.1831  0.6187 -0.3240
 2396TIP3    H2 7132   2.202   3.429   2.491 -1.1353 -0.3785 -0.6470
 2397TIP3   OH2 7133   4.478   0.453   0.563 -0.5063 -0.2356  0.3146
 2397TIP3    H1 7134   4.440   0.387   0.504 -0.7422  1.5500 -1.6247
 2397TIP3    H2 7135   4.552   0.488   0.514 -0.0206  0.5228  1.5732
 2398TIP3   OH2 7136   8.153   4.954   1.354 -0.4422 -0.9814  0.1717
 2398TIP3    H1 7137   8.132   4.867   1.388  0.7427 -0.6132  1.9824
 2398TIP3    H2 7138   8.237   4.943   1.310 -0.5637 -0.8478 -0.0997
 2399TIP3   OH2 7139   4.361   0.908   5.732 -0.0912  0.5584 -0.1430
 2399TIP3    H1 7140   4.413   0.926   5.654 -0.6014  0.3987 -0.5257
 2399TIP3    H2 7141   4.278   0.954   5.717 -0.7916 -0.7351 -0.3956
 2400TIP3   OH2 7142   7.716   1.466   1.538  0.5281  0.3300 -0.1812
 2400TIP3    H1 7143   7.801   1.478   1.496  1.0436  5.1711  1.6646
 2400TIP3    H2 7144   7.662   1.538   1.506 -2.1596 -1.2437  0.5034
 2401TIP3   OH2 7145   1.546   6.120   1.898 -0.3394 -0.4570  0.5291
 2401TIP3    H1 7146   1.498   6.079   1.970  0.0360 -0.3266  0.8625
 2401TIP3    H2 7147   1.636   6.090   1.909  0.1516  1.1817  1.3660
 2402TIP3   OH2 7148   3.741   3.972   2.449  0.1692  0.2197  0.1794
 2402TIP3    H1 7149   3.670   4.006   2.394  0.6715 -0.6411 -1.0562
 2402TIP3    H2 7150   3.812   3.955   2.388  1.1498  0.2472  1.2788
 2403TIP3   OH2 7151   7.293   3.921   6.108  0.6338  0.2470  0.4288
 2403TIP3    H1 7152   7.230   3.927   6.180  1.2780  0.7051  0.9588
 2403TIP3    H2 7153   7.312   4.011   6.086 -0.5383  0.1359 -1.2108
 2404TIP3   OH2 7154   2.742   2.663   3.051  0.7181  0.0534  0.5698
 2404TIP3    H1 7155   2.780   2.689   2.967 -0.5578  1.5578  0.4160
 2404TIP3    H2 7156   2.739   2.567   3.047 -0.0391  0.1096 -1.4419
 2405TIP3   OH2 7157   0.893   3.222   6.005  0.2314  0.0844 -0.1539
 2405TIP3    H1 7158   0.950   3.156   5.966  0.2236 -0.5354  0.8804
 2405TIP3    H2 7159   0.917   3.303   5.960  0.6235 -0.5039 -1.0367
 2406TIP3   OH2 7160   5.634   5.482   3.006 -0.1760 -0.1949 -0.0515
 2406TIP3    H1 7161   5.611   5.483   2.913 -0.1285  1.7812 -0.0902
 2406TIP3    H2 7162   5.726   5.510   3.009 -0.2070 -0.1387  0.5979
 2407TIP3   OH2 7163   4.018   4.448   6.616 -0.2011  0.5134  0.0030
 2407TIP3    H1 7164   3.960   4.445   6.540 -0.1572  0.8895 -0.0476
 2407TIP3    H2 7165   4.002   4.366   6.661 -1.3978  0.9672  0.4511
 2408TIP3   OH2 7166   2.948   6.500   1.132  0.0800 -0.6194 -0.4796
 2408TIP3    H1 7167   2.997   6.515   1.051  0.2665  1.9224  0.0149
 2408TIP3    H2 7168   2.857   6.496   1.105  0.1513  0.1029 -0.8497
 2409TIP3   OH2 7169   1.757   5.599   5.218  0.3852 -0.1292  0.3832
 2409TIP3    H1 7170   1.733   5.619   5.309  2.4570  3.1816  0.3505
 2409TIP3    H2 7171   1.851   5.581   5.221  0.1869 -1.6150 -0.9580
 2410TIP3   OH2 7172   1.226   7.229   1.685  0.1092 -0.3995 -0.4502
 2410TIP3    H1 7173   1.240   7.136   1.663 -0.5355 -0.4309 -0.7498
 2410TIP3    H2 7174   1.214   7.272   1.601  1.1620  0.0979 -0.3620
 2411TIP3   OH2 7175   6.337   6.794   4.347 -0.3331 -0.5478  0.7975
 2411TIP3    H1 7176   6.361   6.878   4.307 -0.4079 -1.0922 -0.4269
 2411TIP3    H2 7177   6.241   6.792   4.340 -0.2707 -1.0982  0.0692
 2412TIP3   OH2 7178   3.051   6.929   0.426 -0.2320 -0.5660 -0.2458
 2412TIP3    H1 7179   3.135   6.884   0.434  0.3400  0.3956 -0.6841
 2412TIP3    H2 7180   3.072   7.021   0.436 -1.4513 -0.4031  1.1085
 2413TIP3   OH2 7181   5.405   4.296   2.975 -0.1669  0.0924  0.0734
 2413TIP3    H1 7182   5.477   4.266   3.030  0.1448  0.2115 -0.2690
 2413TIP3    H2 7183   5.337   4.322   3.038  0.1790  0.2117  0.4054
 2414TIP3   OH2 7184   1.892   6.628   2.967 -0.4585  0.2259 -0.2240
 2414TIP3    H1 7185   1.873   6.702   3.025 -0.0322 -0.4312  0.7688
 2414TIP3    H2 7186   1.848   6.651   2.885 -0.6418  1.4095  0.1841
 2415TIP3   OH2 7187   8.179   3.279   3.119  0.2316  0.1279  0.0804
 2415TIP3    H1 7188   8.270   3.260   3.144 -0.0722  0.0100  1.1042
 2415TIP3    H2 7189   8.188   3.326   3.036  1.2732  0.7208  0.4955
 2416TIP3   OH2 7190   4.222   2.577   3.473 -0.0892  0.2983 -0.0687
 2416TIP3    H1 7191   4.148   2.625   3.511  0.7288  0.4833  1.3596
 2416TIP3    H2 7192   4.183   2.496   3.439 -1.0795  0.8051 -0.1830
 2417TIP3   OH2 7193   2.702   5.252   4.921  0.1468  0.5006 -0.1383
 2417TIP3    H1 7194   2.774   5.199   4.956 -1.3754 -1.1160  0.7193
 2417TIP3    H2 7195   2.742   5.302   4.849  2.0376 -0.5969  0.0800
 2418TIP3   OH2 7196   8.155   5.038   4.566  0.0280 -0.5932  1.0047
 2418TIP3    H1 7197   8.198   5.076   4.643 -0.4331 -1.0038  1.4679
 2418TIP3    H2 7198   8.165   5.105   4.498 -1.2423  0.6384  1.9551
 2419TIP3   OH2 7199   0.534   4.288   5.909  1.0698 -0.4781 -0.2929
 2419TIP3    H1 7200   0.533   4.332   5.824 -1.2285 -0.3104 -0.2641
 2419TIP3    H2 7201   0.449   4.310   5.948  1.5519 -1.5695  1.5231
 2420TIP3   OH2 7202   7.470   0.820   4.381  0.3270 -0.3106 -0.1148
 2420TIP3    H1 7203   7.494   0.825   4.289 -0.7769  2.3314 -0.3601
 2420TIP3    H2 7204   7.489   0.730   4.407  3.9991 -0.2774 -1.9821
 2421TIP3   OH2 7205   3.079   3.213   1.706  0.3749 -0.3929 -0.1336
 2421TIP3    H1 7206   3.091   3.251   1.619  0.0233 -2.3691 -1.1263
 2421TIP3    H2 7207   3.010   3.265   1.746  4.4742  4.4872  1.5472
 2422TIP3   OH2 7208   4.340   4.957   4.665 -0.2342  0.1083  0.0473
 2422TIP3    H1 7209   4.407   4.931   4.728 -0.5250  0.2073  0.4010
 2422TIP3    H2 7210   4.318   5.047   4.689 -0.7591 -0.0509  0.1678
 2423TIP3   OH2 7211   1.292   0.100   3.484  0.8029 -0.1506 -0.2879
 2423TIP3    H1 7212   1.252   0.165   3.541 -1.8039 -0.8255 -1.2065
 2423TIP3    H2 7213   1.384   0.100   3.509  0.2962  1.5771  1.9305
 2424TIP3   OH2 7214   0.579   5.244   0.001  0.1881  0.1902  0.3236
 2424TIP3    H1 7215   0.661   5.206   0.032 -0.4346 -0.4214  1.2518
 2424TIP3    H2 7216   0.567   5.322   0.056  1.1553  1.4632 -1.1723
 2425TIP3   OH2 7217   3.315   7.779   6.636  0.8592  0.0482  0.1325
 2425TIP3    H1 7218   3.257   7.817   6.569  0.9441 -2.1202 -1.2432
 2425TIP3    H2 7219   3.265   7.787   6.717 -0.4802  0.1573 -0.6643
 2426TIP3   OH2 7220   2.039   3.431   4.504  0.4405  0.3558  0.3217
 2426TIP3    H1 7221   2.006   3.341   4.505  0.3487  0.3901  0.7975
 2426TIP3    H2 7222   2.098   3.435   4.429  3.4699 -1.1978  2.4175
 2427TIP3   OH2 7223   4.627   0.080   1.935 -0.2925 -0.1529 -0.3206
 2427TIP3    H1 7224   4.685   0.091   1.860  0.0337  0.3823  0.0036
 2427TIP3    H2 7225   4.598   0.168   1.956  0.1347 -0.2144  0.5804
 2428TIP3   OH2 7226   3.981   2.058   4.059 -0.1089  0.3908 -0.2518
 2428TIP3    H1 7227   4.022   2.123   4.001 -1.0342  0.4398 -0.8697
 2428TIP3    H2 7228   3.887   2.077   4.054 -0.3248 -0.5219  0.1448
 2429TIP3   OH2 7229   2.352   3.509   3.067  0.8105 -0.3117 -0.2977
 2429TIP3    H1 7230   2.375   3.601   3.080  1.3179 -0.5335  0.4415
 2429TIP3    H2 7231   2.434   3.461   3.080  1.1323 -0.7039 -3.1866
 2430TIP3   OH2 7232   2.872   1.733   2.648 -0.3811  0.2570 -0.4349
 2430TIP3    H1 7233   2.947   1.708   2.702  0.2641  3.3274  0.2962
 2430TIP3    H2 7234   2.905   1.728   2.558 -0.1487 -0.9313 -0.2957
 2431TIP3   OH2 7235   1.479   5.530   3.895  1.0965 -0.0228 -0.2913
 2431TIP3    H1 7236   1.505   5.582   3.971 -1.5756  1.1413 -0.0610
 2431TIP3    H2 7237   1.403   5.576   3.859  0.1394 -2.4335 -1.5977
 2432TIP3   OH2 7238   5.220   6.791   3.955 -0.5617 -0.0132 -0.3677
 2432TIP3    H1 7239   5.153   6.854   3.984 -0.9756 -0.7145  0.2440
 2432TIP3    H2 7240   5.263   6.763   4.036  0.4661  0.4132 -0.7601
 2433TIP3   OH2 7241   1.342   5.435   5.386 -0.2833 -0.1624  0.3738
 2433TIP3    H1 7242   1.262   5.416   5.337 -1.0645  0.7282  1.2605
 2433TIP3    H2 7243   1.377   5.349   5.409 -0.8313 -0.5685 -0.2781
 2434TIP3   OH2 7244   5.282   6.210   5.989  0.2844 -0.0615  0.8021
 2434TIP3    H1 7245   5.230   6.244   5.916 -0.9891  0.2459  1.8127
 2434TIP3    H2 7246   5.317   6.127   5.957 -0.2527  0.0738 -0.1619
 2435TIP3   OH2 7247   7.132   6.104   1.324 -0.2026  0.1844  0.4377
 2435TIP3    H1 7248   7.158   6.136   1.410 -1.7670  0.5560  0.8103
 2435TIP3    H2 7249   7.085   6.177   1.284  0.2837 -0.0692 -0.6395
 2436TIP3   OH2 7250   2.041   6.616   4.740 -0.2210 -0.3231 -0.3670
 2436TIP3    H1 7251   1.992   6.690   4.705  0.4509  1.5927  2.3780
 2436TIP3    H2 7252   1.994   6.539   4.710 -3.1622  1.3139 -0.3169
 2437TIP3   OH2 7253   7.438   5.965   0.578 -0.1541 -0.0576 -0.6450
 2437TIP3    H1 7254   7.473   6.022   0.647  0.0521 -1.7869  0.7293
 2437TIP3    H2 7255   7.344   5.985   0.577 -0.2550 -0.3954  0.5367
 2438TIP3   OH2 7256   4.458   3.460   5.966 -0.2947 -0.3141 -0.2561
 2438TIP3    H1 7257   4.527   3.404   5.929  0.5463  1.2641 -1.1800
 2438TIP3    H2 7258   4.461   3.540   5.914 -2.4756  0.0350  0.0674
 2439TIP3   OH2 7259   0.505   5.799   5.927 -0.2410  0.2644  0.5905
 2439TIP3    H1 7260   0.443   5.792   5.854 -0.0651  0.0114  0.4637
 2439TIP3    H2 7261   0.573   5.858   5.894 -0.8521  1.2357  1.0419
 2440TIP3   OH2 7262   6.553   4.983   5.997 -0.3038  0.1247 -0.2072
 2440TIP3    H1 7263   6.569   5.044   6.069 -0.5047 -1.3700  1.1766
 2440TIP3    H2 7264   6.461   4.996   5.974  0.0012  1.2354 -0.8111
 2441TIP3   OH2 7265   7.619   2.492   4.617  0.6347 -0.7491  0.2972
 2441TIP3    H1 7266   7.529   2.504   4.587 -0.5056 -4.1417  1.7559
 2441TIP3    H2 7267   7.630   2.556   4.686  0.1461  1.1135 -1.2755
 2442TIP3   OH2 7268   1.774   0.588   2.363  0.2367  0.5877  0.2052
 2442TIP3    H1 7269   1.843   0.523   2.352  0.5863  1.1073 -0.7930
 2442TIP3    H2 7270   1.709   0.544   2.419 -1.5414 -2.2607 -3.6313
 2443TIP3   OH2 7271   2.537   6.995   5.484 -0.3558 -0.6455 -0.2593
 2443TIP3    H1 7272   2.482   7.059   5.439  0.0440 -0.1200 -0.0136
 2443TIP3    H2 7273   2.527   7.016   5.577  0.8768 -0.0082 -0.2476
 2444TIP3   OH2 7274   3.650   0.859   1.494  0.4039  0.6192 -0.3029
 2444TIP3    H1 7275   3.637   0.764   1.490 -0.5649  0.6921  0.6430
 2444TIP3    H2 7276   3.708   0.878   1.421 -0.9970 -0.4293 -1.7589
 2445TIP3   OH2 7277   3.597   2.481   4.882 -0.1738 -0.7254  0.3665
 2445TIP3    H1 7278   3.645   2.473   4.800  0.1516 -1.0956  0.5919
 2445TIP3    H2 7279   3.505   2.490   4.855  0.0895  0.8600 -0.0887
 2446TIP3   OH2 7280   1.800   5.049   5.326 -0.3219 -0.0845 -0.3476
 2446TIP3    H1 7281   1.744   5.045   5.404  1.0860 -1.2938  0.6745
 2446TIP3    H2 7282   1.805   4.958   5.297  0.2925  0.1629 -1.0221
 2447TIP3   OH2 7283   6.820   6.493   2.309  0.6080  0.1495 -0.0302
 2447TIP3    H1 7284   6.810   6.508   2.215 -0.4487  3.0093  0.4171
 2447TIP3    H2 7285   6.806   6.399   2.321 -0.2132 -0.1236 -2.6023
 2448TIP3   OH2 7286   6.721   4.596   1.161 -0.1890 -0.6037 -1.1403
 2448TIP3    H1 7287   6.643   4.624   1.209 -0.9529 -1.7575 -1.6534
 2448TIP3    H2 7288   6.779   4.672   1.163 -1.8845  0.7884 -1.9319
 2449TIP3   OH2 7289   4.323   7.641   6.651  1.2817 -0.6670 -0.3995
 2449TIP3    H1 7290   4.337   7.618   6.743 -0.1734 -3.1769 -0.7165
 2449TIP3    H2 7291   4.309   7.558   6.607  1.3059  0.5163 -2.8185
 2450TIP3   OH2 7292   2.656   7.096   6.301  0.5267 -1.1408  0.0579
 2450TIP3    H1 7293   2.721   7.030   6.277  1.4092  0.3366 -2.0074
 2450TIP3    H2 7294   2.659   7.159   6.228 -2.5597 -0.5061  0.3538
 2451TIP3   OH2 7295   7.745   2.527   2.684 -0.2949  0.2168 -0.2531
 2451TIP3    H1 7296   7.651   2.547   2.690 -0.2141  0.4060  0.5604
 2451TIP3    H2 7297   7.748   2.439   2.648 -0.8207 -0.1198  0.4957
 2452TIP3   OH2 7298   6.699   2.403   4.763  0.3838  0.2954  0.7205
 2452TIP3    H1 7299   6.697   2.371   4.853  0.9867  0.4655  0.8029
 2452TIP3    H2 7300   6.686   2.498   4.772  0.4024  0.3069  0.6256
 2453TIP3   OH2 7301   7.815   2.405   2.284  0.0458  0.5660 -0.1945
 2453TIP3    H1 7302   7.836   2.496   2.304 -0.2479  0.6419 -0.2201
 2453TIP3    H2 7303   7.754   2.410   2.210 -2.0010  0.4920  1.3714
 2454TIP3   OH2 7304   7.886   4.876   1.764 -0.4497 -0.2479 -0.2018
 2454TIP3    H1 7305   7.825   4.877   1.837  0.2283 -2.4231  0.4530
 2454TIP3    H2 7306   7.840   4.924   1.695 -1.5459  0.9328  1.2709
 2455TIP3   OH2 7307   7.436   2.655   4.354  0.3733  0.1708 -0.1583
 2455TIP3    H1 7308   7.451   2.672   4.261  0.5624 -0.4570 -0.2497
 2455TIP3    H2 7309   7.499   2.711   4.400  0.1343  0.6416 -0.3972
 2456TIP3   OH2 7310   2.834   7.626   2.703  0.0822 -0.3557 -0.1273
 2456TIP3    H1 7311   2.764   7.562   2.709 -0.1605 -0.0090  0.8400
 2456TIP3    H2 7312   2.908   7.584   2.747  0.3079 -0.4720 -0.6071
 2457TIP3   OH2 7313   1.196   7.190   3.800  0.2820  0.4835 -0.1168
 2457TIP3    H1 7314   1.238   7.276   3.793 -0.7647  1.0408  0.2816
 2457TIP3    H2 7315   1.140   7.197   3.877 -0.7521 -0.1543 -0.7899
 2458TIP3   OH2 7316   5.395   0.259   2.700  0.1030 -0.3553  0.7042
 2458TIP3    H1 7317   5.478   0.213   2.710 -0.6445 -2.1565 -0.6697
 2458TIP3    H2 7318   5.332   0.190   2.681 -1.5480  1.0541  0.7948
 2459TIP3   OH2 7319   0.557   4.933   5.352  0.5188 -0.1782  0.3739
 2459TIP3    H1 7320   0.551   4.874   5.427 -0.6136  0.2651  0.6547
 2459TIP3    H2 7321   0.578   5.018   5.390 -1.1186  0.2806  0.3377
 2460TIP3   OH2 7322   1.484   5.254   0.491 -0.1557  0.0113  1.0355
 2460TIP3    H1 7323   1.572   5.261   0.527  0.7903  0.5340 -1.2340
 2460TIP3    H2 7324   1.427   5.252   0.568  1.8710 -1.8303  2.6313
 2461TIP3   OH2 7325   0.900   4.449   2.197 -0.2533 -0.5700  0.0041
 2461TIP3    H1 7326   0.885   4.531   2.243 -1.4888 -0.4590 -0.5558
 2461TIP3    H2 7327   0.890   4.381   2.263  0.6024 -0.2928  0.4320
 2462TIP3   OH2 7328   7.168   6.716   2.366  0.2246 -0.1675  0.3113
 2462TIP3    H1 7329   7.212   6.656   2.425  0.7551  0.1650  0.2614
 2462TIP3    H2 7330   7.239   6.762   2.321 -0.1691 -0.4857 -0.6559
 2463TIP3   OH2 7331   7.818   2.102   0.818  0.2784 -0.1649  0.3468
 2463TIP3    H1 7332   7.739   2.050   0.801  0.0918 -0.2439  1.3991
 2463TIP3    H2 7333   7.792   2.192   0.795 -0.0247 -0.2326  0.4159
 2464TIP3   OH2 7334   1.103   4.341   5.591  0.0828 -0.4056 -0.0200
 2464TIP3    H1 7335   1.016   4.381   5.582  0.4931 -0.0030 -3.3818
 2464TIP3    H2 7336   1.164   4.411   5.569  1.2091 -1.0686  0.8977
 2465TIP3   OH2 7337   0.437   6.895   2.983 -0.3292 -0.4245  0.0943
 2465TIP3    H1 7338   0.381   6.877   3.058  1.8166  0.3948  1.9889
 2465TIP3    H2 7339   0.494   6.966   3.011  0.7604 -0.2765 -2.2227
 2466TIP3   OH2 7340   0.127   3.195   0.426  0.1212 -0.0647  0.3361
 2466TIP3    H1 7341   0.064   3.245   0.478  0.6024  1.8898 -0.8323
 2466TIP3    H2 7342   0.210   3.204   0.474 -0.1520 -1.3822  1.0994
 2467TIP3   OH2 7343   2.508   3.480   3.953  0.5324  0.0060  0.6803
 2467TIP3    H1 7344   2.418   3.448   3.943  0.1000  1.2379  0.5492
 2467TIP3    H2 7345   2.503   3.573   3.933  1.6277  0.3441  1.8930
 2468TIP3   OH2 7346   6.283   3.743   5.359  0.0457 -0.3881  0.0153
 2468TIP3    H1 7347   6.204   3.729   5.412  0.4649 -1.7100  0.3352
 2468TIP3    H2 7348   6.302   3.657   5.321  0.4782  0.2545 -1.2867
 2469TIP3   OH2 7349   7.199   2.846   4.804 -0.4763  0.4191 -0.5206
 2469TIP3    H1 7350   7.112   2.824   4.839 -0.3444  0.5796 -0.0904
 2469TIP3    H2 7351   7.257   2.780   4.842  0.1291  2.1444  1.7228
 2470TIP3   OH2 7352   4.727   5.012   0.966  0.5237 -0.4096 -0.2389
 2470TIP3    H1 7353   4.756   5.069   0.895 -1.7338  0.9865 -0.1342
 2470TIP3    H2 7354   4.697   4.932   0.922 -0.8707  0.4512 -0.9329
 2471TIP3   OH2 7355   3.491   3.439   0.215 -0.4116 -0.2474  0.3930
 2471TIP3    H1 7356   3.560   3.505   0.206  1.8049 -2.4078  0.7024
 2471TIP3    H2 7357   3.426   3.481   0.272  0.8132  1.7024  0.4719
 2472TIP3   OH2 7358   2.064   3.229   3.734 -0.2872 -0.2246 -0.1546
 2472TIP3    H1 7359   2.121   3.154   3.716 -0.8392 -0.5161 -0.7421
 2472TIP3    H2 7360   2.124   3.300   3.754  0.5831  0.4179 -4.0985
 2473TIP3   OH2 7361   1.462   1.232   0.209 -0.5611 -0.4441 -0.6694
 2473TIP3    H1 7362   1.502   1.180   0.279  1.4203  2.8455  0.9092
 2473TIP3    H2 7363   1.486   1.186   0.129  1.1746 -1.9170  0.5975
 2474TIP3   OH2 7364   4.393   4.860   0.171 -0.1340  0.2222 -0.3517
 2474TIP3    H1 7365   4.461   4.815   0.223 -0.6202  1.4434  1.4159
 2474TIP3    H2 7366   4.439   4.890   0.093  1.4149  1.0290  0.8095
 2475TIP3   OH2 7367   6.770   5.742   5.737 -0.4455  0.4441  0.2382
 2475TIP3    H1 7368   6.779   5.683   5.662 -0.2119 -0.4114  0.9240
 2475TIP3    H2 7369   6.841   5.805   5.727 -0.7059  0.6322 -0.5111
 2476TIP3   OH2 7370   2.603   1.232   6.741 -0.6648 -0.2830  0.2127
 2476TIP3    H1 7371   2.520   1.198   6.776 -1.3408 -0.0359 -1.0814
 2476TIP3    H2 7372   2.587   1.326   6.729  0.0124 -0.1241  0.4985
 2477TIP3   OH2 7373   4.422   1.809   4.418  0.1565 -0.0102 -0.5004
 2477TIP3    H1 7374   4.461   1.758   4.489 -0.4747  2.0239  1.4595
 2477TIP3    H2 7375   4.336   1.835   4.453 -0.3348  0.7656 -2.1812
 2478TIP3   OH2 7376   3.399   4.123   0.981  0.1085 -0.0478 -0.5323
 2478TIP3    H1 7377   3.459   4.190   0.948  1.2378 -1.3476 -1.2311
 2478TIP3    H2 7378   3.411   4.048   0.921 -1.4601 -0.7162 -0.0722
 2479TIP3   OH2 7379   0.686   1.443   3.570 -0.1065  0.0946 -0.2665
 2479TIP3    H1 7380   0.606   1.490   3.593 -0.0648 -0.3238  0.8158
 2479TIP3    H2 7381   0.721   1.413   3.654  1.2657  0.3880 -0.7047
 2480TIP3   OH2 7382   7.287   6.720   6.691 -0.4224  0.3475  0.1829
 2480TIP3    H1 7383   7.362   6.696   6.746 -0.7811 -0.8740  0.1641
 2480TIP3    H2 7384   7.277   6.647   6.630 -0.3600  1.4480 -1.1820
 2481TIP3   OH2 7385   7.423   1.604   1.389 -0.2438 -0.2506 -0.3903
 2481TIP3    H1 7386   7.512   1.627   1.412 -0.7249  0.4461  0.8287
 2481TIP3    H2 7387   7.425   1.594   1.293  1.5653 -2.2523 -0.2059
 2482TIP3   OH2 7388   5.584   4.228   0.509  0.5231 -0.4903 -0.1727
 2482TIP3    H1 7389   5.618   4.233   0.598 -1.1597  1.2666  0.4229
 2482TIP3    H2 7390   5.661   4.237   0.453  1.6244 -1.7753  1.0572
 2483TIP3   OH2 7391   2.383   2.958   0.701  0.1940  0.0919  0.1582
 2483TIP3    H1 7392   2.340   3.020   0.642 -1.0292  1.2204  2.1494
 2483TIP3    H2 7393   2.311   2.909   0.740  0.9384 -0.2081  1.1802
 2484TIP3   OH2 7394   2.371   0.171   3.673  0.1547 -0.0782  0.3474
 2484TIP3    H1 7395   2.396   0.079   3.673  2.1100  0.3871 -1.2165
 2484TIP3    H2 7396   2.448   0.217   3.707 -0.3947  1.0534  0.1181
 2485TIP3   OH2 7397   3.334   5.652   6.085 -0.0502  0.1117  0.0405
 2485TIP3    H1 7398   3.346   5.630   5.993 -1.4972  0.9769 -0.3832
 2485TIP3    H2 7399   3.272   5.587   6.118  1.8743 -1.3775  0.9538
 2486TIP3   OH2 7400   0.519   4.707   3.330  0.2384  0.1750  0.3241
 2486TIP3    H1 7401   0.494   4.799   3.340  0.2858  0.1833  0.3651
 2486TIP3    H2 7402   0.436   4.659   3.339  0.2619  0.1915  0.6496
 2487TIP3   OH2 7403   1.126   4.655   3.606 -0.5865  0.1097 -0.9676
 2487TIP3    H1 7404   1.186   4.641   3.679 -0.9781 -1.6880 -0.9400
 2487TIP3    H2 7405   1.105   4.748   3.609  0.7815  0.4101  0.1202
 2488TIP3   OH2 7406   1.441   6.465   0.899 -0.3611  0.5121 -0.0148
 2488TIP3    H1 7407   1.409   6.521   0.828  0.4859  0.3881 -0.5003
 2488TIP3    H2 7408   1.433   6.376   0.866  1.7616  0.5222 -0.7282
 2489TIP3   OH2 7409   3.767   5.927   3.886  0.3979  0.1344  0.3039
 2489TIP3    H1 7410   3.705   5.997   3.905 -1.9146 -1.9549  1.1061
 2489TIP3    H2 7411   3.826   5.926   3.961  0.2936  1.0467  0.4037
 2490TIP3   OH2 7412   5.271   0.134   4.173 -0.2241  0.2443 -0.2769
 2490TIP3    H1 7413   5.219   0.203   4.213  1.3842  1.1537  0.3422
 2490TIP3    H2 7414   5.208   0.064   4.156 -1.2360  0.2269  2.8535
 2491TIP3   OH2 7415   3.268   3.888   4.221 -0.4590 -0.0516 -0.7430
 2491TIP3    H1 7416   3.208   3.813   4.223 -1.1812  0.5334 -0.2154
 2491TIP3    H2 7417   3.264   3.925   4.309  0.4692  0.1706 -0.7811
 2492TIP3   OH2 7418   1.127   2.056   1.809  0.1023  0.0773 -0.4463
 2492TIP3    H1 7419   1.184   1.979   1.806  1.2709  0.6611  2.6806
 2492TIP3    H2 7420   1.039   2.020   1.826  0.2060 -0.6536 -1.3915
 2493TIP3   OH2 7421   4.701   1.184   3.477 -0.4612 -0.2222 -0.5250
 2493TIP3    H1 7422   4.781   1.235   3.490  0.3622 -1.5093 -0.3445
 2493TIP3    H2 7423   4.696   1.129   3.555 -2.5852  1.1592  0.4030
 2494TIP3   OH2 7424   6.954   6.271   1.213  0.0176  0.6080  0.3216
 2494TIP3    H1 7425   6.907   6.313   1.286  1.8091  0.3035  1.7027
 2494TIP3    H2 7426   6.918   6.182   1.210 -1.4631  1.1843 -0.5062
 2495TIP3   OH2 7427   4.426   4.588   0.510 -0.5366 -0.1237 -0.3433
 2495TIP3    H1 7428   4.463   4.675   0.525 -0.6302  0.0074 -0.8463
 2495TIP3    H2 7429   4.377   4.597   0.428 -0.1492 -0.7767 -0.6519
 2496TIP3   OH2 7430   7.985   1.255   6.490  0.2974  0.1508  0.5213
 2496TIP3    H1 7431   7.971   1.294   6.577  1.3435 -0.1433  0.8340
 2496TIP3    H2 7432   8.014   1.328   6.436  1.5221 -0.0297  0.9152
 2497TIP3   OH2 7433   2.567   4.602   2.319 -0.4444 -0.3868 -0.4610
 2497TIP3    H1 7434   2.584   4.538   2.250  1.8015 -0.9288  0.4896
 2497TIP3    H2 7435   2.509   4.556   2.381 -2.1966 -0.0085 -1.7515
 2498TIP3   OH2 7436   3.952   1.309   2.450 -0.1240 -0.0932  0.6051
 2498TIP3    H1 7437   3.887   1.325   2.518 -0.2519 -0.4171  0.5597
 2498TIP3    H2 7438   3.902   1.268   2.379 -0.0713  0.5922  0.1604
 2499TIP3   OH2 7439   0.735   0.274   0.041  0.2540  0.2596 -0.4781
 2499TIP3    H1 7440   0.755   0.252  -0.050  0.5249  0.2463 -0.4165
 2499TIP3    H2 7441   0.727   0.190   0.086 -1.6328  0.1954 -0.8429
 2500TIP3   OH2 7442   4.226   4.928   4.303 -0.1565  0.2640  0.8981
 2500TIP3    H1 7443   4.157   4.993   4.287 -0.0527  0.2812  0.5178
 2500TIP3    H2 7444   4.196   4.881   4.381  0.5789  1.8706  2.2119
 2501TIP3   OH2 7445   3.500   2.022   0.074  0.2261 -0.0541 -0.0501
 2501TIP3    H1 7446   3.475   2.058   0.158  0.1884 -0.1137 -0.0353
 2501TIP3    H2 7447   3.418   1.988   0.037  0.0835  0.7299 -0.4845
 2502TIP3   OH2 7448   1.793   2.733   1.786 -0.1999 -0.2583 -0.2699
 2502TIP3    H1 7449   1.698   2.735   1.796 -0.4001 -2.2613 -1.3500
 2502TIP3    H2 7450   1.825   2.781   1.862 -2.0714  1.4224 -0.4466
 2503TIP3   OH2 7451   5.799   3.064   5.057  0.1256  0.0666 -0.4758
 2503TIP3    H1 7452   5.774   3.060   5.150  2.2194 -2.2465  0.0935
 2503TIP3    H2 7453   5.718   3.045   5.010 -0.9952  1.3235  0.8327
 2504TIP3   OH2 7454   8.152   1.944   5.929  0.1701  0.0021 -1.0089
 2504TIP3    H1 7455   8.163   2.001   6.005 -0.8913 -0.3964 -0.5419
 2504TIP3    H2 7456   8.172   2.001   5.854  2.5579  0.0457 -0.4028
 2505TIP3   OH2 7457   1.776   6.667   2.739  0.0975  0.1422 -0.8554
 2505TIP3    H1 7458   1.694   6.672   2.789  1.9639 -0.0006  2.5505
 2505TIP3    H2 7459   1.786   6.574   2.718  1.3692 -0.6662  2.6813
 2506TIP3   OH2 7460   2.413   3.761   3.180 -0.0592  0.2615 -0.3507
 2506TIP3    H1 7461   2.345   3.747   3.247 -0.5677  1.1439 -0.6677
 2506TIP3    H2 7462   2.484   3.804   3.227 -0.8280  1.8133 -0.5705
 2507TIP3   OH2 7463   1.320   6.380   3.780  0.4775 -0.1419 -0.1009
 2507TIP3    H1 7464   1.406   6.418   3.762 -0.7101  2.3291 -1.0688
 2507TIP3    H2 7465   1.264   6.413   3.710 -1.8616  0.6312  1.9550
 2508TIP3   OH2 7466   1.453   5.172   5.412  0.1135  0.2751  0.1470
 2508TIP3    H1 7467   1.368   5.127   5.415 -0.3507  1.1087 -0.2777
 2508TIP3    H2 7468   1.462   5.211   5.498  0.8196 -1.1379  0.7495
 2509TIP3   OH2 7469   3.499   1.061   2.033 -0.1895  0.5871 -0.0649
 2509TIP3    H1 7470   3.475   1.144   1.992 -0.5619  0.8636  0.7041
 2509TIP3    H2 7471   3.529   1.007   1.960 -0.2081  1.2955 -0.6146
 2510TIP3   OH2 7472   3.737   2.740   3.167 -0.3731 -0.2076 -0.2294
 2510TIP3    H1 7473   3.801   2.806   3.194  0.6660 -1.5984  0.8956
 2510TIP3    H2 7474   3.655   2.788   3.160 -0.4536  0.6797  4.0883
 2511TIP3   OH2 7475   1.119   3.465   5.858 -0.2493 -0.0770  0.0748
 2511TIP3    H1 7476   1.101   3.558   5.869 -1.4020 -0.0174 -1.8304
 2511TIP3    H2 7477   1.149   3.435   5.944  0.5470  2.1169  0.6126
 2512TIP3   OH2 7478   6.915   5.721   2.115 -0.0436 -0.5245  0.2029
 2512TIP3    H1 7479   6.967   5.799   2.094 -0.1181 -0.3374  0.7051
 2512TIP3    H2 7480   6.851   5.714   2.043  0.0475 -0.2006  0.0908
 2513TIP3   OH2 7481   7.570   4.786   3.878  0.1007 -0.5704 -0.3404
 2513TIP3    H1 7482   7.560   4.752   3.967  1.9082 -2.4061 -0.7542
 2513TIP3    H2 7483   7.650   4.837   3.880 -0.0919 -0.2436 -0.8194
 2514TIP3   OH2 7484   6.083   7.794   5.402  0.2831 -0.2524 -0.1608
 2514TIP3    H1 7485   6.113   7.883   5.421 -2.1702  0.8515 -1.0635
 2514TIP3    H2 7486   6.102   7.745   5.482 -0.6248  1.7366  1.3764
 2515TIP3   OH2 7487   3.178   1.847   5.217  0.2603 -0.2374 -0.7197
 2515TIP3    H1 7488   3.177   1.942   5.206  0.6831  0.0356  1.1889
 2515TIP3    H2 7489   3.266   1.820   5.191  0.0097 -0.1814 -1.6551
 2516TIP3   OH2 7490   4.446   3.030   2.073  0.0261  0.0549 -0.0565
 2516TIP3    H1 7491   4.488   3.010   2.157  0.5377 -0.2774 -0.3868
 2516TIP3    H2 7492   4.395   3.110   2.089 -0.9817 -0.7506  0.9374
 2517TIP3   OH2 7493   0.873   4.974   3.875  0.3156 -0.0266 -0.6385
 2517TIP3    H1 7494   0.815   4.916   3.827 -2.4454 -0.1117  2.4235
 2517TIP3    H2 7495   0.902   4.923   3.950 -2.4229  2.3133  2.3151
 2518TIP3   OH2 7496   5.492   1.580   6.141  0.2630  0.5134 -0.5197
 2518TIP3    H1 7497   5.504   1.488   6.114  2.7965  0.3821  0.7906
 2518TIP3    H2 7498   5.466   1.575   6.233 -0.6411  1.1320 -0.7222
 2519TIP3   OH2 7499   5.168   1.286   6.728 -0.0447 -0.2441  0.1331
 2519TIP3    H1 7500   5.083   1.243   6.718  0.2962 -0.8362 -0.3260
 2519TIP3    H2 7501   5.201   1.252   6.811 -0.5072  0.4426  0.6040
 2520TIP3   OH2 7502   6.091   3.653   2.283 -0.7668  0.2219  0.1840
 2520TIP3    H1 7503   6.038   3.712   2.338 -0.5984 -2.3102  3.4053
 2520TIP3    H2 7504   6.175   3.649   2.328  0.2099 -0.2483 -1.6291
 2521TIP3   OH2 7505   1.433   5.085   2.749 -0.5498  0.0237 -0.8799
 2521TIP3    H1 7506   1.522   5.057   2.731  0.1375  0.5173  1.3577
 2521TIP3    H2 7507   1.377   5.017   2.712  0.8986 -2.0220  0.4910
 2522TIP3   OH2 7508   4.724   0.601   1.293  0.0937  0.3505 -0.2103
 2522TIP3    H1 7509   4.678   0.685   1.290 -0.6862 -0.0957 -0.8932
 2522TIP3    H2 7510   4.769   0.602   1.378 -1.4143  0.6814  0.6182
 2523TIP3   OH2 7511   5.581   7.302   1.788  0.5857 -0.1751 -0.2991
 2523TIP3    H1 7512   5.556   7.279   1.878  1.0420 -0.9932 -0.3696
 2523TIP3    H2 7513   5.605   7.218   1.748 -1.0468 -0.0397 -1.6588
 2524TIP3   OH2 7514   2.719   4.903   6.553 -0.1501  0.4527 -0.1985
 2524TIP3    H1 7515   2.629   4.880   6.577 -0.3191  1.1620 -0.1213
 2524TIP3    H2 7516   2.762   4.920   6.637  0.5552 -1.5719 -0.1010
 2525TIP3   OH2 7517   2.585   7.113   0.069  0.0740  0.7734 -0.6736
 2525TIP3    H1 7518   2.655   7.155   0.119 -0.2547  0.1877  0.2960
 2525TIP3    H2 7519   2.509   7.170   0.082 -0.1460  0.3463 -0.0736
 2526TIP3   OH2 7520   7.302   7.529   2.166  0.0397 -0.3457 -0.1088
 2526TIP3    H1 7521   7.374   7.470   2.141  0.0906 -0.8859  1.2521
 2526TIP3    H2 7522   7.338   7.617   2.153  1.0825 -0.6042  0.8833
 2527TIP3   OH2 7523   6.429   6.467   0.110 -0.1656  0.2922 -0.0208
 2527TIP3    H1 7524   6.340   6.502   0.108  0.7695  3.2507  2.4783
 2527TIP3    H2 7525   6.486   6.542   0.094  1.9517 -1.0605  0.6162
 2528TIP3   OH2 7526   2.287   3.758   3.908  0.5782  0.1693 -0.4926
 2528TIP3    H1 7527   2.260   3.839   3.952 -1.5885 -0.4341 -0.6061
 2528TIP3    H2 7528   2.235   3.756   3.828  1.5093 -0.7443 -1.0897
 2529TIP3   OH2 7529   4.087   4.991   3.057  0.6328 -0.3005  0.7788
 2529TIP3    H1 7530   4.164   4.936   3.072  1.4927  0.6661  0.0803
 2529TIP3    H2 7531   4.079   5.044   3.137  0.3981 -0.7383  1.0474
 2530TIP3   OH2 7532   1.038   4.362   0.242  0.1436  0.2265  0.5070
 2530TIP3    H1 7533   1.106   4.400   0.187 -0.1700 -0.6668 -0.5472
 2530TIP3    H2 7534   0.957   4.370   0.190  0.3485 -3.5512 -0.7499
 2531TIP3   OH2 7535   3.545   2.059   0.829  0.1986  0.3930 -0.1625
 2531TIP3    H1 7536   3.623   2.004   0.824 -0.9165 -1.7792  3.1202
 2531TIP3    H2 7537   3.477   2.008   0.783 -0.1696  0.4559  0.3057
 2532TIP3   OH2 7538   3.756   5.305   4.621  0.0325 -0.3225  0.2548
 2532TIP3    H1 7539   3.810   5.232   4.590  0.2053 -1.1595  2.3708
 2532TIP3    H2 7540   3.684   5.264   4.668  0.0998  0.8499  1.4347
 2533TIP3   OH2 7541   0.583   4.658   1.015 -0.1855 -0.7778 -0.0140
 2533TIP3    H1 7542   0.529   4.716   1.069 -0.7790 -1.0379 -0.3275
 2533TIP3    H2 7543   0.614   4.714   0.944  2.6854  0.2797  1.8647
 2534TIP3   OH2 7544   7.678   2.994   1.363 -0.3302  0.5686 -0.2039
 2534TIP3    H1 7545   7.596   2.950   1.382 -1.1992  2.5005  0.7169
 2534TIP3    H2 7546   7.676   3.010   1.268 -1.2264  0.9947 -0.1162
 2535TIP3   OH2 7547   5.945   6.683   2.524 -0.0971 -0.5088  0.1244
 2535TIP3    H1 7548   6.039   6.673   2.538 -0.0854  0.1287  0.5254
 2535TIP3    H2 7549   5.906   6.676   2.611 -0.1418  2.0646  0.3807
 2536TIP3   OH2 7550   1.841   7.649   6.741 -0.4687  0.4038 -0.2127
 2536TIP3    H1 7551   1.862   7.679   6.829  0.3201  3.0662 -1.1988
 2536TIP3    H2 7552   1.919   7.603   6.711 -0.8514 -0.7679  0.5620
 2537TIP3   OH2 7553   6.591   4.512   0.067 -0.0667  0.3334  0.2579
 2537TIP3    H1 7554   6.564   4.420   0.066  0.1960  0.2566 -0.4660
 2537TIP3    H2 7555   6.665   4.515   0.128  0.9655 -0.2514 -0.9197
 2538TIP3   OH2 7556   4.560   0.901   6.571  0.2620 -0.6637  0.6413
 2538TIP3    H1 7557   4.558   0.870   6.481 -1.6885 -0.6483  0.6400
 2538TIP3    H2 7558   4.476   0.944   6.584  0.5573 -0.5360  2.4386
 2539TIP3   OH2 7559   7.836   0.847   1.140 -0.0412  0.2298 -0.4457
 2539TIP3    H1 7560   7.842   0.925   1.194  0.5348  0.0093 -0.1746
 2539TIP3    H2 7561   7.842   0.879   1.050  0.1171  0.5085 -0.3365
 2540TIP3   OH2 7562   1.592   5.458   3.644 -0.5407  0.3167  0.3316
 2540TIP3    H1 7563   1.579   5.363   3.653 -1.9481  0.4378 -0.1479
 2540TIP3    H2 7564   1.560   5.494   3.727  2.4681  0.2361  1.6487
 2541TIP3   OH2 7565   0.321   6.715   5.131 -0.3416  0.1037  0.5462
 2541TIP3    H1 7566   0.241   6.747   5.172 -1.5277 -1.5060 -0.3815
 2541TIP3    H2 7567   0.297   6.629   5.096  2.0010 -0.7400  0.8521
 2542TIP3   OH2 7568   0.727   2.785   2.672 -0.2481  0.2316 -0.1655
 2542TIP3    H1 7569   0.661   2.763   2.737  0.3811 -2.2095 -0.2288
 2542TIP3    H2 7570   0.681   2.836   2.606 -2.0092 -1.0364  0.0092
 2543TIP3   OH2 7571   5.231   1.580   6.025  0.1858 -0.1324 -0.2335
 2543TIP3    H1 7572   5.180   1.509   6.065 -0.5171  0.0315 -0.8147
 2543TIP3    H2 7573   5.315   1.578   6.071  0.1064 -1.2164 -0.1110
 2544TIP3   OH2 7574   2.114   1.603   3.348 -0.1426  0.2611 -0.0926
 2544TIP3    H1 7575   2.154   1.530   3.395 -1.5728  0.1007  0.9343
 2544TIP3    H2 7576   2.162   1.608   3.265 -0.1552 -2.0031 -0.2933
 2545TIP3   OH2 7577   2.952   2.572   3.684  0.4915 -0.1871  0.5715
 2545TIP3    H1 7578   2.870   2.608   3.719 -0.0673 -0.6807 -0.1907
 2545TIP3    H2 7579   2.961   2.488   3.728 -2.4569 -2.8768 -3.2793
 2546TIP3   OH2 7580   7.006   2.125   5.907  0.1353  0.7163  0.4561
 2546TIP3    H1 7581   7.045   2.095   5.825  1.2116 -1.7570  1.7710
 2546TIP3    H2 7582   7.006   2.221   5.900  0.7225  0.5997 -2.1451
 2547TIP3   OH2 7583   5.940   4.283   1.729 -0.1017  0.6566  0.4634
 2547TIP3    H1 7584   5.906   4.196   1.749  0.9502  0.1582  0.1476
 2547TIP3    H2 7585   6.005   4.268   1.661 -0.9280  1.8660 -0.6382
 2548TIP3   OH2 7586   1.662   4.066   5.124 -0.5515  0.2904 -0.4942
 2548TIP3    H1 7587   1.711   4.020   5.192 -0.6537  1.1828  0.2020
 2548TIP3    H2 7588   1.589   4.107   5.171 -0.4367  1.1928 -1.0798
 2549TIP3   OH2 7589   4.152   4.698   1.257 -0.0286 -0.4913 -0.0916
 2549TIP3    H1 7590   4.132   4.625   1.199 -0.3128 -1.0143  0.6567
 2549TIP3    H2 7591   4.240   4.679   1.289 -0.9550 -1.7387  1.8930
 2550TIP3   OH2 7592   3.808   3.742   5.571 -0.2033  0.5357  0.1630
 2550TIP3    H1 7593   3.839   3.770   5.485  1.3158 -2.2176 -0.2947
 2550TIP3    H2 7594   3.758   3.662   5.554 -2.2389  1.4113  1.6088
 2551TIP3   OH2 7595   7.618   5.796   5.167 -0.4902  0.1677  0.2223
 2551TIP3    H1 7596   7.625   5.737   5.242  0.4270  0.8160  0.6643
 2551TIP3    H2 7597   7.526   5.821   5.164 -0.6169 -0.2157  0.8519
 2552TIP3   OH2 7598   1.028   3.112   6.631  0.1780  0.4170 -0.6562
 2552TIP3    H1 7599   1.022   3.056   6.709 -0.5595 -0.6451 -1.4425
 2552TIP3    H2 7600   0.952   3.170   6.639 -1.2764 -1.2267 -1.6878
 2553TIP3   OH2 7601   5.414   6.400   4.102 -0.4102 -0.3810  0.1338
 2553TIP3    H1 7602   5.491   6.457   4.114 -0.2677 -0.3024 -1.0137
 2553TIP3    H2 7603   5.388   6.415   4.011 -1.1081 -1.2528  0.1821
 2554TIP3   OH2 7604   1.482   5.133   5.142  0.6247  0.1643 -0.0658
 2554TIP3    H1 7605   1.455   5.223   5.128 -0.1219  0.2411  1.5450
 2554TIP3    H2 7606   1.520   5.133   5.230  0.7077 -1.0637 -0.0793
 2555TIP3   OH2 7607   5.216   2.154   6.219  0.1062  0.7253 -0.0442
 2555TIP3    H1 7608   5.200   2.070   6.176  0.1991  0.3886  0.5724
 2555TIP3    H2 7609   5.129   2.188   6.240  0.0797  0.6386 -0.0155
 2556TIP3   OH2 7610   3.709   6.951   4.378 -0.5110 -0.3528 -0.1052
 2556TIP3    H1 7611   3.628   6.956   4.429  0.0539 -1.7876  0.9770
 2556TIP3    H2 7612   3.742   6.863   4.394  1.7223  0.4843  0.1463
 2557TIP3   OH2 7613   6.336   6.363   3.885 -0.3983  0.0902 -0.7088
 2557TIP3    H1 7614   6.299   6.447   3.912  1.3494  0.8540 -0.5473
 2557TIP3    H2 7615   6.331   6.308   3.963  1.0653  1.0200  0.0909
 2558TIP3   OH2 7616   2.451   3.800   1.077 -0.0868  0.0455 -0.3164
 2558TIP3    H1 7617   2.425   3.719   1.122  0.2378 -0.3840 -0.8891
 2558TIP3    H2 7618   2.384   3.812   1.010  0.4546 -0.3408 -0.9327
 2559TIP3   OH2 7619   1.379   3.480   1.314 -0.0084  1.1301  0.2637
 2559TIP3    H1 7620   1.442   3.442   1.375  0.2200 -0.1124 -0.6885
 2559TIP3    H2 7621   1.409   3.451   1.228 -2.4739 -0.4679 -0.1691
 2560TIP3   OH2 7622   6.979   1.104   2.282  0.1551  0.4168 -0.7886
 2560TIP3    H1 7623   6.983   1.109   2.186  1.0266 -0.7734 -0.8397
 2560TIP3    H2 7624   6.886   1.096   2.302 -0.1523  1.9549 -1.4384
 2561TIP3   OH2 7625   8.226   4.654   3.260  0.1520  0.8506 -0.2408
 2561TIP3    H1 7626   8.307   4.640   3.210  0.5754  1.4417  0.2556
 2561TIP3    H2 7627   8.256   4.681   3.347 -0.5837  1.0636 -0.0454
 2562TIP3   OH2 7628   2.567   7.415   1.771  0.2066 -0.0684 -0.1380
 2562TIP3    H1 7629   2.662   7.416   1.763  0.1953  0.2121 -0.2780
 2562TIP3    H2 7630   2.543   7.323   1.773  0.3522 -0.1674 -1.7071
 2563TIP3   OH2 7631   3.623   3.779   4.562 -0.1043  0.1595 -0.0610
 2563TIP3    H1 7632   3.578   3.806   4.642  1.5930  1.3976  0.5274
 2563TIP3    H2 7633   3.652   3.861   4.522  0.2563 -0.5220 -1.2291
 2564TIP3   OH2 7634   5.799   5.162   3.059  0.4184 -0.1420 -0.3607
 2564TIP3    H1 7635   5.857   5.187   3.131  0.1930  0.3710 -0.3552
 2564TIP3    H2 7636   5.846   5.091   3.015 -0.1823 -1.6188  1.2799
 2565TIP3   OH2 7637   0.482   0.298   3.879  0.1099  0.1770 -0.1928
 2565TIP3    H1 7638   0.450   0.388   3.888 -1.3557 -0.2142 -1.1629
 2565TIP3    H2 7639   0.502   0.289   3.786  0.5838 -0.3909 -0.0379
 2566TIP3   OH2 7640   6.863   1.796   1.922 -0.0615  0.0294  0.0483
 2566TIP3    H1 7641   6.844   1.750   1.841  1.8268 -0.3590 -0.2015
 2566TIP3    H2 7642   6.816   1.746   1.989  0.6152 -1.2965 -0.4391
 2567TIP3   OH2 7643   1.322   7.622   2.174 -0.2176 -0.4932 -0.1772
 2567TIP3    H1 7644   1.367   7.592   2.253 -1.3415  1.8966  1.5108
 2567TIP3    H2 7645   1.368   7.579   2.102  1.8691 -1.5800  1.6781
 2568TIP3   OH2 7646   0.311   2.718   3.541  0.1042 -0.5251  0.1004
 2568TIP3    H1 7647   0.377   2.787   3.545 -0.0507 -0.3794  0.1425
 2568TIP3    H2 7648   0.228   2.765   3.539  0.0287 -0.6652 -0.9994
 2569TIP3   OH2 7649   6.927   3.249   0.142 -0.0972 -0.1953  0.4561
 2569TIP3    H1 7650   6.995   3.183   0.153 -0.2089 -0.1612  1.4885
 2569TIP3    H2 7651   6.845   3.201   0.149 -0.1830  0.1183  1.7968
 2570TIP3   OH2 7652   8.260   4.089   3.491  0.1380 -0.2429 -0.1690
 2570TIP3    H1 7653   8.201   4.157   3.459 -0.5759 -0.2013  1.1700
 2570TIP3    H2 7654   8.257   4.021   3.424 -1.2491 -0.1357 -0.2459
 2571TIP3   OH2 7655   6.526   2.050   3.646 -0.1886  0.2263 -0.5463
 2571TIP3    H1 7656   6.581   2.124   3.619 -0.4235  1.1752  1.4065
 2571TIP3    H2 7657   6.549   2.034   3.737 -0.9953 -1.3719 -0.5773
 2572TIP3   OH2 7658   3.542   5.006   4.844 -0.1377  0.1505 -1.1806
 2572TIP3    H1 7659   3.557   5.058   4.923  1.0214 -1.5013 -0.2477
 2572TIP3    H2 7660   3.625   5.011   4.796 -1.1852  2.1131 -2.9918
 2573TIP3   OH2 7661   3.289   5.825   0.280  0.1704 -0.4641 -0.1705
 2573TIP3    H1 7662   3.365   5.876   0.251  0.1003  0.3741  1.0454
 2573TIP3    H2 7663   3.284   5.753   0.217  1.5342 -0.1394 -0.7060
 2574TIP3   OH2 7664   4.333   0.570   6.090  0.3929 -0.1231  0.4669
 2574TIP3    H1 7665   4.378   0.554   6.007  1.9596 -0.5427  1.3337
 2574TIP3    H2 7666   4.292   0.656   6.080 -0.7267 -0.8060 -1.2364
 2575TIP3   OH2 7667   3.458   2.850   1.201  0.1488  0.3017 -0.0059
 2575TIP3    H1 7668   3.526   2.857   1.135  0.3259  0.4403  0.1886
 2575TIP3    H2 7669   3.496   2.796   1.270 -0.3829 -0.6671 -0.4499
 2576TIP3   OH2 7670   4.020   4.492   4.806 -0.6574 -0.5967 -0.1537
 2576TIP3    H1 7671   4.070   4.556   4.756 -0.2293 -1.0010 -0.2496
 2576TIP3    H2 7672   4.056   4.496   4.894 -1.4849  0.1931  0.1701
 2577TIP3   OH2 7673   5.786   7.242   4.287 -0.1271 -0.4888  0.7839
 2577TIP3    H1 7674   5.718   7.220   4.350 -0.9268  1.8703  0.8349
 2577TIP3    H2 7675   5.738   7.271   4.209  0.8275 -0.2625  0.2620
 2578TIP3   OH2 7676   2.648   7.268   5.068  0.4374  0.0564  0.2732
 2578TIP3    H1 7677   2.708   7.285   4.996  3.0046  1.9614  2.6588
 2578TIP3    H2 7678   2.681   7.321   5.140 -3.4687  0.2762  2.1744
 2579TIP3   OH2 7679   2.547   2.980   3.675 -0.1188  0.1430 -0.4171
 2579TIP3    H1 7680   2.462   3.014   3.702 -0.8931  1.1270 -3.6376
 2579TIP3    H2 7681   2.611   3.028   3.729 -1.5009  0.8556  0.6394
 2580TIP3   OH2 7682   5.784   0.853   4.158  0.6871  0.0387  0.6656
 2580TIP3    H1 7683   5.749   0.768   4.186  1.7301 -0.4557  0.4917
 2580TIP3    H2 7684   5.712   0.894   4.110  0.0256 -0.5521  1.1402
 2581TIP3   OH2 7685   1.289   0.510   2.828 -0.3420 -0.0600 -0.5862
 2581TIP3    H1 7686   1.353   0.458   2.778  0.7743  1.7220 -1.1096
 2581TIP3    H2 7687   1.292   0.473   2.916  0.7466 -0.6137 -0.8390
 2582TIP3   OH2 7688   5.128   1.249   6.436 -0.3055  0.2125 -0.1918
 2582TIP3    H1 7689   5.086   1.332   6.460  1.2910  0.8102  0.7547
 2582TIP3    H2 7690   5.157   1.212   6.520  0.0524 -0.7166 -0.7050
 2583TIP3   OH2 7691   2.115   6.215   0.190 -0.0285  0.1003  0.2264
 2583TIP3    H1 7692   2.161   6.170   0.120  0.3452 -0.7954  1.0323
 2583TIP3    H2 7693   2.161   6.190   0.270 -0.7866  0.6569  0.8568
 2584TIP3   OH2 7694   3.869   2.949   3.308 -0.5985 -0.3917 -0.0712
 2584TIP3    H1 7695   3.835   3.027   3.264 -0.4252 -0.3009 -0.0455
 2584TIP3    H2 7696   3.846   2.961   3.400  1.1006  0.5572  0.2651
 2585TIP3   OH2 7697   0.021   5.018   2.220 -0.2457  0.2980  0.0055
 2585TIP3    H1 7698  -0.013   4.953   2.157 -2.7583 -0.1837  1.7156
 2585TIP3    H2 7699   0.070   5.080   2.166 -2.4171  0.0195 -2.5109
 2586TIP3   OH2 7700   6.895   6.622   6.542 -0.0194  0.3306 -0.8416
 2586TIP3    H1 7701   6.948   6.663   6.474  0.4593 -0.2612 -0.8458
 2586TIP3    H2 7702   6.827   6.575   6.495  1.2288 -1.3772 -1.0483
 2587TIP3   OH2 7703   2.327   6.223   2.434  0.5751 -0.1057  0.0753
 2587TIP3    H1 7704   2.248   6.275   2.446  0.2283 -0.5473 -0.2932
 2587TIP3    H2 7705   2.376   6.235   2.516  0.2362  0.3446  0.2155
 2588TIP3   OH2 7706   0.974   4.003   5.604  0.3158 -0.2905 -0.0308
 2588TIP3    H1 7707   0.946   3.984   5.515  2.5406 -0.8412 -0.6762
 2588TIP3    H2 7708   0.954   4.096   5.617 -0.4277 -0.3152 -0.9292
 2589TIP3   OH2 7709   2.635   3.337   2.655 -0.1273  0.0607 -0.2166
 2589TIP3    H1 7710   2.685   3.418   2.643 -0.4967  0.4520  0.7610
 2589TIP3    H2 7711   2.684   3.271   2.606  0.6236  0.7057 -0.3589
 2590TIP3   OH2 7712   5.685   4.814   6.446 -0.1749 -0.0797 -0.1780
 2590TIP3    H1 7713   5.602   4.839   6.405 -0.0206 -0.1807 -0.5528
 2590TIP3    H2 7714   5.704   4.727   6.412  0.5481  0.3170 -0.8232
 2591TIP3   OH2 7715   3.117   2.705   5.436  0.3543  0.3188  0.0921
 2591TIP3    H1 7716   3.212   2.701   5.424  0.3260  0.2666 -0.1235
 2591TIP3    H2 7717   3.098   2.637   5.499  0.3211 -0.4715 -0.7518
 2592TIP3   OH2 7718   6.144   3.392   1.377  0.0793 -0.4431 -0.0464
 2592TIP3    H1 7719   6.179   3.471   1.336  0.5610 -1.1118 -0.9503
 2592TIP3    H2 7720   6.119   3.420   1.465  1.6186  0.3832  0.1614
 2593TIP3   OH2 7721   2.664   6.967   3.114  0.2796 -0.0423 -1.2074
 2593TIP3    H1 7722   2.679   6.877   3.142 -1.8023 -0.2690 -0.6193
 2593TIP3    H2 7723   2.747   6.995   3.076  1.7773 -1.3519  0.8677
 2594TIP3   OH2 7724   0.901   4.760   1.625  0.0534  0.0161 -0.1333
 2594TIP3    H1 7725   0.859   4.837   1.664  1.1813  0.3965  0.3677
 2594TIP3    H2 7726   0.883   4.689   1.686 -0.8121 -0.0803 -0.4905
 2595TIP3   OH2 7727   0.474   6.876   2.558 -0.0278  0.5559 -0.2686
 2595TIP3    H1 7728   0.407   6.940   2.580 -1.8280 -0.8737 -1.2530
 2595TIP3    H2 7729   0.434   6.791   2.577  1.7118 -0.3599 -0.4088
 2596TIP3   OH2 7730   1.569   6.042   5.101 -0.4233  0.0345 -0.2549
 2596TIP3    H1 7731   1.500   6.081   5.047 -2.7543 -1.1004  1.7177
 2596TIP3    H2 7732   1.633   6.111   5.112 -0.9384  0.9922 -2.5809
 2597TIP3   OH2 7733   4.234   2.944   4.572  0.1826 -0.2968  0.0354
 2597TIP3    H1 7734   4.249   2.996   4.651  1.5746 -0.0902 -0.3302
 2597TIP3    H2 7735   4.298   2.873   4.578 -0.3905 -0.8621 -0.4179
 2598TIP3   OH2 7736   4.122   6.617   1.151  0.1568  0.1337 -0.0283
 2598TIP3    H1 7737   4.202   6.594   1.104  0.8461  0.2343  1.0535
 2598TIP3    H2 7738   4.087   6.692   1.104  0.5823 -0.0498 -0.6482
 2599TIP3   OH2 7739   5.466   5.593   0.833 -0.2624 -0.5438 -0.2609
 2599TIP3    H1 7740   5.488   5.639   0.914  1.3276 -0.6640 -0.6025
 2599TIP3    H2 7741   5.547   5.592   0.783 -1.1184 -0.8403 -1.6898
 2600TIP3   OH2 7742   6.990   2.846   1.990 -0.4261 -0.6147 -0.0190
 2600TIP3    H1 7743   6.906   2.820   1.954 -0.9335 -1.6819  1.7808
 2600TIP3    H2 7744   6.969   2.885   2.075  0.8602 -0.4768  0.2565
 2601TIP3   OH2 7745   4.245   4.962   1.155 -0.2481  0.0708 -0.5248
 2601TIP3    H1 7746   4.214   4.883   1.199  0.7738 -0.6653 -1.0686
 2601TIP3    H2 7747   4.257   4.935   1.064 -0.9156  1.1593 -0.9495
 2602TIP3   OH2 7748   7.258   1.863   1.362  0.2093 -0.5017 -0.0325
 2602TIP3    H1 7749   7.316   1.794   1.393  0.0486 -0.6036  0.0457
 2602TIP3    H2 7750   7.227   1.832   1.277  1.5516  0.3038 -0.8453
 2603TIP3   OH2 7751   0.351   2.433   4.569 -0.1250  0.1417 -0.5315
 2603TIP3    H1 7752   0.412   2.493   4.611  0.6441 -0.6477 -0.4817
 2603TIP3    H2 7753   0.267   2.451   4.611  0.6822 -0.8604  1.6664
 2604TIP3   OH2 7754   4.996   1.756   6.386  0.0255 -0.4033  0.0150
 2604TIP3    H1 7755   4.912   1.798   6.404 -1.1294 -2.2280 -0.8908
 2604TIP3    H2 7756   4.987   1.721   6.298  1.9878 -0.0953 -0.3466
 2605TIP3   OH2 7757   1.076   6.339   3.876  0.0615 -0.4383 -0.2913
 2605TIP3    H1 7758   1.049   6.249   3.897 -0.9125 -0.1604 -0.3065
 2605TIP3    H2 7759   1.171   6.335   3.873  0.1033 -1.1975  0.9885
 2606TIP3   OH2 7760   4.058   4.808   4.485 -0.1120 -0.9421 -0.1044
 2606TIP3    H1 7761   3.967   4.834   4.503 -0.0950 -0.0563 -1.1819
 2606TIP3    H2 7762   4.086   4.764   4.565 -1.8997 -2.4035 -0.2074
 2607TIP3   OH2 7763   6.141   0.929   5.804  0.2440  0.1181  0.1464
 2607TIP3    H1 7764   6.235   0.942   5.807  0.0325  1.8707  0.3008
 2607TIP3    H2 7765   6.107   0.982   5.877 -0.8085 -1.0902  0.5682
 2608TIP3   OH2 7766   0.732   3.132   3.223  0.0204  0.2646  0.0383
 2608TIP3    H1 7767   0.670   3.073   3.266  0.0754  1.1346  1.3490
 2608TIP3    H2 7768   0.770   3.183   3.294  1.0596  0.8610 -0.9246
 2609TIP3   OH2 7769   3.905   0.503   0.038 -0.4496  0.2103 -0.3693
 2609TIP3    H1 7770   3.901   0.408   0.050  1.0759  0.2598  0.8248
 2609TIP3    H2 7771   3.820   0.526  -0.001 -0.7150 -1.6678 -0.9867
 2610TIP3   OH2 7772   4.331   4.968   3.769  1.0444  0.5179  0.5197
 2610TIP3    H1 7773   4.304   4.915   3.844 -0.6516  1.2425  0.4561
 2610TIP3    H2 7774   4.259   5.030   3.756  1.8286  1.1549 -1.0008
 2611TIP3   OH2 7775   4.761   4.453   1.702  0.9943  0.1420  0.3732
 2611TIP3    H1 7776   4.765   4.473   1.608 -0.9048  1.9875  0.6268
 2611TIP3    H2 7777   4.848   4.419   1.723  1.4194 -0.4684 -2.0746
 2612TIP3   OH2 7778   5.634   3.992   4.321  0.8434 -0.1411 -0.2730
 2612TIP3    H1 7779   5.670   4.020   4.405 -0.4358  0.4201  0.1139
 2612TIP3    H2 7780   5.562   4.053   4.304  0.9731 -0.3453 -1.7042
 2613TIP3   OH2 7781   0.520   5.367   2.414  0.3483 -0.0137 -0.3304
 2613TIP3    H1 7782   0.443   5.316   2.388  0.3830 -0.0713 -0.3194
 2613TIP3    H2 7783   0.492   5.458   2.403 -0.6763  0.0766  2.2398
 2614TIP3   OH2 7784   1.715   2.582   2.373  0.2049  0.2900 -0.6069
 2614TIP3    H1 7785   1.701   2.661   2.425 -1.4627 -0.5798  0.3650
 2614TIP3    H2 7786   1.630   2.536   2.376  0.3651 -0.3557 -3.1673
 2615TIP3   OH2 7787   0.321   1.637   2.141 -0.6928  0.3998 -0.1839
 2615TIP3    H1 7788   0.407   1.675   2.122  0.0803 -0.6554  1.0267
 2615TIP3    H2 7789   0.292   1.602   2.057 -0.6823  2.1565 -0.9576
 2616TIP3   OH2 7790   0.087   2.843   3.551  0.3784  0.0305 -0.3520
 2616TIP3    H1 7791   0.017   2.868   3.490 -0.6309 -1.0810  0.3095
 2616TIP3    H2 7792   0.042   2.828   3.634  1.1533 -2.1657 -0.2605
 2617TIP3   OH2 7793  -0.002   7.160   0.414 -0.1988 -0.2390  0.2203
 2617TIP3    H1 7794  -0.011   7.161   0.510  2.7522 -0.4263  0.5853
 2617TIP3    H2 7795   0.018   7.069   0.393  0.2460  0.0083 -0.4405
 2618TIP3   OH2 7796   7.840   3.271   4.347  0.0283  0.2662 -0.4786
 2618TIP3    H1 7797   7.747   3.292   4.347 -0.2308 -0.8236 -0.7304
 2618TIP3    H2 7798   7.847   3.191   4.397  1.1748  1.6202  1.6784
 2619TIP3   OH2 7799   7.783   0.865   1.517  0.1341  0.4105 -0.0385
 2619TIP3    H1 7800   7.799   0.772   1.527 -0.4733  0.3374  0.2900
 2619TIP3    H2 7801   7.701   0.871   1.468  0.6565  0.7767 -0.9031
 2620TIP3   OH2 7802   7.710   4.466   6.260  0.5967  0.0430  0.2817
 2620TIP3    H1 7803   7.675   4.383   6.292  1.4507 -0.3135  0.2991
 2620TIP3    H2 7804   7.777   4.490   6.323  0.8886  0.3632 -0.1425
 2621TIP3   OH2 7805   5.067   0.638   1.982 -0.6088 -0.6855  0.5637
 2621TIP3    H1 7806   5.065   0.716   1.926 -0.8405 -0.8054  0.4025
 2621TIP3    H2 7807   4.976   0.612   1.990 -0.6186 -0.4296  1.3435
 2622TIP3   OH2 7808   6.256   3.789   4.079  0.2878  0.4684  0.5023
 2622TIP3    H1 7809   6.228   3.754   3.994  0.8214 -1.7437  1.1698
 2622TIP3    H2 7810   6.186   3.850   4.104 -1.1557 -0.7553 -0.3932
 2623TIP3   OH2 7811   8.231   3.070   6.638  0.2405 -0.1750 -0.4678
 2623TIP3    H1 7812   8.204   3.106   6.723  1.2748 -2.0689  0.7489
 2623TIP3    H2 7813   8.151   3.034   6.601  0.1068 -1.1397  0.6906
 2624TIP3   OH2 7814   6.858   4.443   1.507 -0.5416 -0.8639  0.4903
 2624TIP3    H1 7815   6.865   4.440   1.412  0.1065 -0.1445  0.5011
 2624TIP3    H2 7816   6.891   4.359   1.537 -1.4091 -1.3669  0.0520
 2625TIP3   OH2 7817   1.802   4.784   2.205  0.0354  0.4905  0.2488
 2625TIP3    H1 7818   1.888   4.788   2.164 -0.0652 -0.3483 -0.0598
 2625TIP3    H2 7819   1.779   4.876   2.222  1.2112  0.7035  0.8154
 2626TIP3   OH2 7820   1.566   4.950   0.166  0.0913 -0.1556  0.3849
 2626TIP3    H1 7821   1.643   4.992   0.205 -0.2742  1.6540 -0.7399
 2626TIP3    H2 7822   1.493   4.978   0.221 -0.0713  0.1309  0.0258
 2627TIP3   OH2 7823   5.405   3.780   1.232 -0.4591  0.0355  0.5651
 2627TIP3    H1 7824   5.364   3.848   1.177  0.6580 -0.0381 -0.3917
 2627TIP3    H2 7825   5.418   3.706   1.172  0.0130 -0.3576  1.1477
 2628TIP3   OH2 7826   2.924   0.430   2.731  0.2376 -0.2649 -0.4563
 2628TIP3    H1 7827   2.919   0.377   2.651  1.6604 -1.8764  0.4711
 2628TIP3    H2 7828   2.860   0.500   2.716 -1.0841 -1.7092 -2.1206
 2629TIP3   OH2 7829   2.577   6.049   0.648 -0.2037  0.2129 -0.2251
 2629TIP3    H1 7830   2.670   6.071   0.639  0.1210 -1.2500 -0.6580
 2629TIP3    H2 7831   2.532   6.129   0.621  0.9179  1.0614  0.3022
 2630TIP3   OH2 7832   4.855   7.694   3.112  0.2339  0.2827  0.1506
 2630TIP3    H1 7833   4.860   7.640   3.033 -0.5758 -0.6856  0.7558
 2630TIP3    H2 7834   4.787   7.759   3.092  0.2381  0.2283 -0.0446
 2631TIP3   OH2 7835   3.671   5.257   2.084 -0.6361 -0.6051  0.0583
 2631TIP3    H1 7836   3.682   5.313   2.007  1.2036 -1.3489 -0.2666
 2631TIP3    H2 7837   3.577   5.241   2.088 -1.2618  2.3418  0.0791
 2632TIP3   OH2 7838   2.050   6.135   5.962  0.5323 -0.5155 -0.6275
 2632TIP3    H1 7839   2.125   6.155   6.017  0.3476 -1.0758 -0.1517
 2632TIP3    H2 7840   2.088   6.098   5.882  0.7585 -1.6331 -0.0333
 2633TIP3   OH2 7841   1.897   0.831   1.699  0.3109  0.5405  0.2804
 2633TIP3    H1 7842   1.974   0.806   1.750 -0.9361 -3.8981  0.4872
 2633TIP3    H2 7843   1.931   0.855   1.613  2.0540 -2.5777 -0.0563
 2634TIP3   OH2 7844   0.621   3.464   3.576  0.0794  0.3422  0.0941
 2634TIP3    H1 7845   0.690   3.488   3.514 -0.4510  0.2394 -0.5417
 2634TIP3    H2 7846   0.539   3.484   3.530 -0.5419 -4.2053 -1.2757
 2635TIP3   OH2 7847   0.561   5.107   6.193  0.0310  0.1027  0.0423
 2635TIP3    H1 7848   0.471   5.107   6.227 -0.2143  1.8019 -0.5031
 2635TIP3    H2 7849   0.553   5.140   6.104  1.2783  1.0061  0.2422
 2636TIP3   OH2 7850   3.597   5.694   6.011  0.0278 -0.3655  0.1931
 2636TIP3    H1 7851   3.669   5.688   6.074  0.4186  0.4008 -0.1655
 2636TIP3    H2 7852   3.520   5.712   6.065  0.3136  0.0164  0.4887
 2637TIP3   OH2 7853   4.878   5.680   1.635  0.0491 -0.3617  0.0712
 2637TIP3    H1 7854   4.865   5.695   1.542 -0.1066  3.7201  0.5522
 2637TIP3    H2 7855   4.970   5.655   1.643  0.4655  0.6950 -1.1157
 2638TIP3   OH2 7856   4.742   2.826   0.436  0.2535 -0.1352 -0.0784
 2638TIP3    H1 7857   4.690   2.753   0.468  0.9501 -0.6690 -0.1476
 2638TIP3    H2 7858   4.797   2.789   0.367  1.5581  0.1512  0.7571
 2639TIP3   OH2 7859   3.708   0.084   5.132  0.6784  0.0881  0.9460
 2639TIP3    H1 7860   3.723   0.074   5.038  1.3977  0.9792  0.9550
 2639TIP3    H2 7861   3.681   0.175   5.143  0.7708  0.0378  1.6324
 2640TIP3   OH2 7862   7.445   7.131   2.054 -0.2289 -0.8120 -0.5136
 2640TIP3    H1 7863   7.468   7.104   2.142  1.6306 -1.0138 -1.0147
 2640TIP3    H2 7864   7.446   7.227   2.057  2.6567 -0.7548 -0.9124
 2641TIP3   OH2 7865   0.714   1.394   1.219 -0.5019 -0.2027  0.9845
 2641TIP3    H1 7866   0.775   1.327   1.253  0.8376 -0.5736 -1.8279
 2641TIP3    H2 7867   0.630   1.349   1.214 -0.0358 -1.0925  0.9037
 2642TIP3   OH2 7868   7.457   3.115   0.910 -0.0399  0.3813 -0.1467
 2642TIP3    H1 7869   7.494   3.042   0.860 -0.0962  0.7177 -0.6954
 2642TIP3    H2 7870   7.434   3.179   0.843 -0.4421  0.6982  0.2932
 2643TIP3   OH2 7871   0.275   0.818   5.712 -0.0453 -0.7348 -0.0824
 2643TIP3    H1 7872   0.201   0.806   5.653 -0.2433 -1.3729  0.2854
 2643TIP3    H2 7873   0.268   0.746   5.774  0.0623  0.0046  0.8218
 2644TIP3   OH2 7874   8.028   2.758   4.511 -0.0250  0.2035  0.2386
 2644TIP3    H1 7875   8.115   2.737   4.479  0.6715 -1.2387  2.7763
 2644TIP3    H2 7876   7.972   2.689   4.475  0.4353 -0.4933  0.8385
 2645TIP3   OH2 7877   2.676   2.388   4.378 -0.4856  0.2277  0.1753
 2645TIP3    H1 7878   2.677   2.344   4.463 -1.1085  2.7082  1.5385
 2645TIP3    H2 7879   2.734   2.463   4.389 -0.0643  0.2526 -1.8421
 2646TIP3   OH2 7880   7.011   0.354   4.475  0.5553 -0.4208  0.2805
 2646TIP3    H1 7881   7.040   0.266   4.450 -1.3355 -1.4812  1.5917
 2646TIP3    H2 7882   7.061   0.374   4.554  1.6467  0.1064 -0.5168
 2647TIP3   OH2 7883   4.201   3.321   6.545 -0.5674 -0.3243  0.0543
 2647TIP3    H1 7884   4.113   3.285   6.533  0.2757 -1.7686 -2.5217
 2647TIP3    H2 7885   4.243   3.262   6.607 -1.3449  0.3788  1.3118
 2648TIP3   OH2 7886   2.131   5.742   5.196  0.7275  0.2661 -0.5572
 2648TIP3    H1 7887   2.216   5.767   5.233  0.4005 -1.1105  1.2617
 2648TIP3    H2 7888   2.129   5.647   5.201 -1.1573  0.2856  0.0618
 2649TIP3   OH2 7889   7.378   4.626   1.286  0.9179 -0.2000  0.1125
 2649TIP3    H1 7890   7.352   4.606   1.376 -1.2860 -1.0027 -0.6423
 2649TIP3    H2 7891   7.296   4.630   1.238  1.9299  1.6170 -1.6276
 2650TIP3   OH2 7892   7.847   2.389   6.605  0.2599  0.2564 -0.0204
 2650TIP3    H1 7893   7.928   2.356   6.566 -0.1762 -1.4796  0.4714
 2650TIP3    H2 7894   7.786   2.395   6.532  0.1497 -0.7133 -0.0206
 2651TIP3   OH2 7895   4.044   3.836   5.660  0.4915 -0.4613 -0.3468
 2651TIP3    H1 7896   4.119   3.793   5.618  0.9910 -0.7953  0.8202
 2651TIP3    H2 7897   3.968   3.807   5.610  1.1203 -0.2342 -1.4706
 2652TIP3   OH2 7898   5.289   5.687   0.160 -0.6731 -0.2017  0.3993
 2652TIP3    H1 7899   5.370   5.687   0.108 -0.1150 -2.5853  1.1480
 2652TIP3    H2 7900   5.262   5.779   0.162  1.3387  0.4895 -0.9076
 2653TIP3   OH2 7901   7.335   0.082   3.329 -0.0504 -0.2241  0.9236
 2653TIP3    H1 7902   7.383   0.151   3.283 -0.2663  0.1997  1.3301
 2653TIP3    H2 7903   7.359   0.001   3.282  1.3772 -0.0887  1.3608
 2654TIP3   OH2 7904   6.632   4.756   5.178  1.0389 -0.0206 -0.2069
 2654TIP3    H1 7905   6.572   4.806   5.123 -2.5655 -3.2665  0.3522
 2654TIP3    H2 7906   6.668   4.820   5.239 -3.6497  2.0489  0.8489
 2655TIP3   OH2 7907   0.052   3.401   6.324 -0.1607 -0.2543 -0.1958
 2655TIP3    H1 7908   0.082   3.472   6.267  1.9615 -0.5006  0.5400
 2655TIP3    H2 7909   0.112   3.329   6.307 -0.3896 -0.8254  1.2537
 2656TIP3   OH2 7910   6.132   0.121   2.754  0.1626  0.1943  0.0427
 2656TIP3    H1 7911   6.169   0.173   2.683  0.8681  0.0962  0.3374
 2656TIP3    H2 7912   6.205   0.104   2.813  0.4960 -2.8426 -1.0392
 2657TIP3   OH2 7913   4.531   2.303   6.398 -0.4146 -0.0249 -0.3997
 2657TIP3    H1 7914   4.522   2.231   6.460 -3.2048  0.3309 -0.2785
 2657TIP3    H2 7915   4.516   2.382   6.450 -2.6922  0.2825 -1.4056
 2658TIP3   OH2 7916   0.367   2.638   0.924 -0.1111  0.4367 -0.4856
 2658TIP3    H1 7917   0.393   2.630   1.016  0.3303  1.1182 -0.5453
 2658TIP3    H2 7918   0.298   2.573   0.913 -2.2644  2.2891  1.1131
 2659TIP3   OH2 7919   3.065   2.987   5.878 -0.0325  0.0634 -0.0059
 2659TIP3    H1 7920   3.134   2.973   5.942  1.3697 -0.3757 -1.5527
 2659TIP3    H2 7921   3.111   3.001   5.795 -1.7839 -2.0904 -1.4747
 2660TIP3   OH2 7922   3.828   6.080   2.994 -0.5331 -0.2723 -0.4398
 2660TIP3    H1 7923   3.783   6.130   2.926 -0.0801 -0.7103 -1.0781
 2660TIP3    H2 7924   3.811   6.128   3.075 -1.9294 -0.2952 -0.6993
 2661TIP3   OH2 7925   1.012   5.764   1.603  0.0038 -0.4002  0.4703
 2661TIP3    H1 7926   0.982   5.675   1.617  0.3688 -0.8468 -1.2978
 2661TIP3    H2 7927   1.105   5.755   1.582  0.1315  0.4357  0.6197
 2662TIP3   OH2 7928   4.155   7.542   1.922 -0.5807  0.1840 -0.1467
 2662TIP3    H1 7929   4.128   7.534   2.014  0.6560 -1.4332  0.1334
 2662TIP3    H2 7930   4.095   7.484   1.875 -1.3190  1.1384 -0.4061
 2663TIP3   OH2 7931   5.477   1.262   4.878  0.6978  0.0410  0.1411
 2663TIP3    H1 7932   5.530   1.270   4.798 -1.2398 -0.1017 -1.2427
 2663TIP3    H2 7933   5.488   1.345   4.923  0.5267  0.7857 -1.1494
 2664TIP3   OH2 7934   4.930   1.291   5.652  1.0764 -0.0283  0.8307
 2664TIP3    H1 7935   4.921   1.237   5.574  1.4155 -1.7441  1.9315
 2664TIP3    H2 7936   5.002   1.350   5.632  0.9572 -0.2309 -0.2584
 2665TIP3   OH2 7937   8.052   5.895   1.468  0.0019  0.1730  0.0347
 2665TIP3    H1 7938   8.008   5.826   1.419 -3.3200  2.2837 -0.2722
 2665TIP3    H2 7939   8.049   5.971   1.411  2.0562  1.0889  1.0123
 2666TIP3   OH2 7940   8.069   0.539   1.411 -0.2390 -0.4175 -0.3945
 2666TIP3    H1 7941   8.050   0.602   1.341  0.2457  0.0544 -0.1132
 2666TIP3    H2 7942   8.109   0.465   1.365  0.6708  0.1570 -0.5670
 2667TIP3   OH2 7943   4.897   5.266   6.334  0.0453 -0.1509  0.5472
 2667TIP3    H1 7944   4.933   5.326   6.399  1.3419 -0.8096  0.4708
 2667TIP3    H2 7945   4.926   5.179   6.362  0.6322 -0.4537 -0.8773
 2668TIP3   OH2 7946   5.228   0.391   0.776  0.0405  0.3346  0.2026
 2668TIP3    H1 7947   5.160   0.428   0.721  0.2897 -1.4755 -1.4225
 2668TIP3    H2 7948   5.182   0.355   0.852 -0.7088 -0.0212 -0.4151
 2669TIP3   OH2 7949   7.260   4.222   5.761 -0.2781  0.0844 -0.2812
 2669TIP3    H1 7950   7.216   4.283   5.702 -1.6809  1.1406  1.7506
 2669TIP3    H2 7951   7.204   4.144   5.761 -0.5442  0.2723  0.0100
 2670TIP3   OH2 7952   2.629   7.077   2.402  0.1994  0.6963 -0.2419
 2670TIP3    H1 7953   2.626   6.991   2.444  1.3697  1.5674  1.7843
 2670TIP3    H2 7954   2.722   7.094   2.388  0.0125  1.7995 -0.2446
 2671TIP3   OH2 7955   3.945   7.792   2.304  0.1760  0.2295 -0.5011
 2671TIP3    H1 7956   3.966   7.885   2.303  0.3624  0.2444  1.5990
 2671TIP3    H2 7957   3.980   7.760   2.386  0.3443 -1.7737 -1.2996
 2672TIP3   OH2 7958   2.010   4.591   4.213 -0.4499  0.3953 -0.4408
 2672TIP3    H1 7959   2.049   4.581   4.300 -0.9383  0.5620 -0.1972
 2672TIP3    H2 7960   2.083   4.617   4.157 -0.3688  1.5643  0.1789
 2673TIP3   OH2 7961   0.180   0.322   3.558 -0.1718 -0.0037 -0.2467
 2673TIP3    H1 7962   0.177   0.417   3.544  1.8569  0.4147  1.6463
 2673TIP3    H2 7963   0.215   0.287   3.476 -0.3310  0.9381 -0.7300
 2674TIP3   OH2 7964   4.325   4.825   1.682  0.5468 -0.7377 -0.4454
 2674TIP3    H1 7965   4.243   4.794   1.644 -0.0783  0.3174 -0.0237
 2674TIP3    H2 7966   4.324   4.920   1.666  0.8255 -0.4425  1.1146
 2675TIP3   OH2 7967   8.319   5.377   2.264 -0.3554  0.4528 -0.1946
 2675TIP3    H1 7968   8.266   5.333   2.199 -0.7904  0.3320  0.2365
 2675TIP3    H2 7969   8.269   5.370   2.345  0.4612  0.0373  0.2947
 2676TIP3   OH2 7970   0.083   2.793   4.825  0.2931 -0.0720  0.1561
 2676TIP3    H1 7971   0.095   2.887   4.817  0.8215  0.3661  4.0716
 2676TIP3    H2 7972  -0.011   2.779   4.815  0.4201  0.4776 -2.4993
 2677TIP3   OH2 7973   3.125   1.906   2.536 -0.1032 -0.3100  0.5236
 2677TIP3    H1 7974   3.156   1.885   2.447 -0.8270 -0.5633  0.3271
 2677TIP3    H2 7975   3.168   1.841   2.592  1.9205  1.0335  0.6579
 2678TIP3   OH2 7976   3.863   1.354   0.248 -0.3972  0.3036  0.5602
 2678TIP3    H1 7977   3.922   1.361   0.173  0.5549 -2.7140  0.8943
 2678TIP3    H2 7978   3.776   1.375   0.214 -0.2580 -2.4908 -1.8534
 2679TIP3   OH2 7979   5.945   0.368   4.921  0.3022 -0.2758  0.0140
 2679TIP3    H1 7980   5.923   0.455   4.953 -1.9131 -0.9032  0.3435
 2679TIP3    H2 7981   5.959   0.379   4.827 -0.4406  0.3686 -0.0288
 2680TIP3   OH2 7982   4.214   6.506   3.718 -0.2686  0.2797 -0.1799
 2680TIP3    H1 7983   4.150   6.569   3.750  1.7764  1.6633  1.5035
 2680TIP3    H2 7984   4.187   6.487   3.628 -3.0059  0.7249  0.4747
 2681TIP3   OH2 7985   7.256   5.675   6.239  0.1260 -0.2746  0.1427
 2681TIP3    H1 7986   7.197   5.737   6.282 -0.5774  0.3609 -1.6437
 2681TIP3    H2 7987   7.246   5.594   6.290 -0.0409  0.6401  1.6363
 2682TIP3   OH2 7988   1.761   3.804   3.732  0.1733 -0.6442 -0.0628
 2682TIP3    H1 7989   1.826   3.779   3.666  0.9430 -2.8353  1.4198
 2682TIP3    H2 7990   1.748   3.725   3.784 -0.0539  1.0939  2.7167
 2683TIP3   OH2 7991   2.015   2.297   3.669 -0.1601 -0.0232 -0.2586
 2683TIP3    H1 7992   1.970   2.379   3.648  1.5571  0.7841 -0.9579
 2683TIP3    H2 7993   2.083   2.290   3.602 -0.0078 -1.8262  0.0443
 2684TIP3   OH2 7994   8.162   2.919   1.777  0.0806  0.9053  0.3555
 2684TIP3    H1 7995   8.246   2.961   1.792  0.7384 -0.2314 -0.0369
 2684TIP3    H2 7996   8.144   2.933   1.684  0.2491  0.4382  0.2484
 2685TIP3   OH2 7997   7.900   3.946   1.176  0.3537 -0.3391 -0.4566
 2685TIP3    H1 7998   7.936   3.916   1.093 -0.1045 -2.2254 -0.0194
 2685TIP3    H2 7999   7.833   4.010   1.151  1.2416  0.2260 -1.4512
 2686TIP3   OH2 8000   3.846   1.411   0.878 -0.0853 -0.2578  0.6092
 2686TIP3    H1 8001   3.839   1.490   0.824  0.4910 -0.3505  0.3980
 2686TIP3    H2 8002   3.773   1.419   0.940  0.1315  0.5731  0.7753
 2687TIP3   OH2 8003   5.332   0.802   5.694 -0.3908 -0.3771  0.1042
 2687TIP3    H1 8004   5.257   0.810   5.752 -0.1707  0.7905  0.2448
 2687TIP3    H2 8005   5.297   0.820   5.607 -0.4949 -1.0035  0.0100
 2688TIP3   OH2 8006   3.818   6.081   3.632  0.4362 -0.3313 -0.4730
 2688TIP3    H1 8007   3.877   6.031   3.576  1.3146 -2.0126  1.8371
 2688TIP3    H2 8008   3.784   6.018   3.695 -0.4677  1.4799  0.9506
 2689TIP3   OH2 8009   5.253   2.808   0.444 -0.0421 -0.1123  0.5387
 2689TIP3    H1 8010   5.295   2.863   0.509  0.4931  0.4227 -0.2492
 2689TIP3    H2 8011   5.297   2.829   0.362 -1.7052  0.3614 -0.2955
 2690TIP3   OH2 8012   6.921   7.698   2.648 -0.2896  0.0398 -0.0762
 2690TIP3    H1 8013   7.015   7.715   2.650 -0.0878 -0.6006 -2.3724
 2690TIP3    H2 8014   6.913   7.608   2.619 -1.6342 -0.1475  0.7792
 2691TIP3   OH2 8015   4.810   0.076   1.707 -0.5113  0.0582  0.2802
 2691TIP3    H1 8016   4.784   0.012   1.640 -1.3986  0.5950  0.0906
 2691TIP3    H2 8017   4.799   0.160   1.663  2.7546  0.3322 -0.2275
 2692TIP3   OH2 8018   4.931   5.831   2.861 -0.3753  0.0142  0.1623
 2692TIP3    H1 8019   4.915   5.770   2.933  1.5608 -0.1724  0.4749
 2692TIP3    H2 8020   4.885   5.911   2.887  0.2291 -0.0752  1.5967
 2693TIP3   OH2 8021   1.620   6.209   5.447  0.1146  0.2680 -0.0574
 2693TIP3    H1 8022   1.545   6.177   5.498 -0.9353  0.5030 -1.3721
 2693TIP3    H2 8023   1.596   6.189   5.356  1.8201  0.0463 -0.4933
 2694TIP3   OH2 8024   0.762   7.567   1.298 -0.5149 -0.6833  0.5681
 2694TIP3    H1 8025   0.695   7.635   1.285 -2.5986 -2.5644  0.7943
 2694TIP3    H2 8026   0.837   7.597   1.248 -1.7845  1.2103 -0.3120
 2695TIP3   OH2 8027   7.443   4.748   3.295 -0.0485 -0.0477 -0.3707
 2695TIP3    H1 8028   7.458   4.816   3.228 -1.9098 -0.0787 -0.8859
 2695TIP3    H2 8029   7.362   4.775   3.338  1.3659  0.2641  2.3172
 2696TIP3   OH2 8030   1.447   6.929   4.110  0.6904 -0.4511  0.3416
 2696TIP3    H1 8031   1.500   6.899   4.184  0.6845  1.4470  1.1698
 2696TIP3    H2 8032   1.428   7.020   4.130 -0.7268 -0.3669 -1.2157
 2697TIP3   OH2 8033   8.251   3.578   3.797  0.2711 -0.1996 -0.0139
 2697TIP3    H1 8034   8.175   3.601   3.743 -0.7191 -2.7810  0.1292
 2697TIP3    H2 8035   8.215   3.569   3.885  1.5079  2.1060  0.7979
 2698TIP3   OH2 8036   7.229   7.656   3.300  0.2599 -0.1052 -0.4590
 2698TIP3    H1 8037   7.224   7.616   3.387  0.0255  0.4960 -0.1917
 2698TIP3    H2 8038   7.321   7.678   3.288  0.6702 -2.0747 -1.2339
 2699TIP3   OH2 8039   4.818   0.252   6.792  0.4965  0.0487  0.2717
 2699TIP3    H1 8040   4.869   0.247   6.711  0.7859  0.0026  0.4527
 2699TIP3    H2 8041   4.801   0.161   6.815  0.5546  0.0553  0.3452
 2700TIP3   OH2 8042   2.705   2.602   4.643 -0.6929  0.6261 -0.4045
 2700TIP3    H1 8043   2.719   2.532   4.706 -0.8962  0.6103 -0.3778
 2700TIP3    H2 8044   2.688   2.679   4.697  2.4442  1.4064 -0.2881
 2701TIP3   OH2 8045   3.972   0.717   2.780  0.3314  0.5229 -0.6907
 2701TIP3    H1 8046   3.930   0.656   2.719 -1.4365  0.7234  0.2738
 2701TIP3    H2 8047   3.931   0.802   2.760 -0.1660  0.6164  0.6606
 2702TIP3   OH2 8048   0.521   5.048   4.648  0.4516 -0.0666 -1.0389
 2702TIP3    H1 8049   0.551   5.006   4.568 -0.2567  0.7010 -1.7332
 2702TIP3    H2 8050   0.587   5.115   4.666  0.2632  0.2232 -1.3892
 2703TIP3   OH2 8051   7.987   3.903   5.451  0.2495 -0.2346 -0.1662
 2703TIP3    H1 8052   7.908   3.946   5.482  0.7129 -0.3568  1.2581
 2703TIP3    H2 8053   8.041   3.974   5.418 -0.6233 -0.2018 -1.5826
 2704TIP3   OH2 8054   2.354   2.646   5.890  0.1898  0.0312  0.1734
 2704TIP3    H1 8055   2.395   2.650   5.977 -0.1770  2.8715  0.3008
 2704TIP3    H2 8056   2.386   2.723   5.845  0.5139 -1.4764 -2.3745
 2705TIP3   OH2 8057   8.083   4.287   5.803  0.0435  0.7528  0.2407
 2705TIP3    H1 8058   8.013   4.297   5.868 -0.0540  1.6756  0.0003
 2705TIP3    H2 8059   8.075   4.364   5.747 -1.5073 -1.2420 -2.4873
 2706TIP3   OH2 8060   0.857   1.746   3.934  0.5392 -0.1978 -0.0576
 2706TIP3    H1 8061   0.951   1.760   3.918 -0.1069  1.9904 -2.5843
 2706TIP3    H2 8062   0.831   1.685   3.865 -0.2577  0.8668 -0.7235
 2707TIP3   OH2 8063   7.208   5.991   0.758 -0.0395  0.3082 -0.1479
 2707TIP3    H1 8064   7.234   6.005   0.849 -1.1338 -0.4518  0.3021
 2707TIP3    H2 8065   7.145   6.060   0.740  1.0803  1.2091 -0.7456
 2708TIP3   OH2 8066   5.481   1.461   1.889  0.1958  0.3494 -0.6334
 2708TIP3    H1 8067   5.475   1.375   1.930  0.1917  0.5015 -0.3133
 2708TIP3    H2 8068   5.560   1.457   1.835  0.1010  0.0887 -0.7526
 2709TIP3   OH2 8069   3.333   2.249   1.795 -0.6436 -0.4411  0.0186
 2709TIP3    H1 8070   3.326   2.318   1.729 -0.3295  0.4858  0.9247
 2709TIP3    H2 8071   3.260   2.191   1.776  0.0865 -0.8360 -1.8372
 2710TIP3   OH2 8072   0.563   6.848   6.049  0.1651  0.2488  0.0665
 2710TIP3    H1 8073   0.626   6.843   6.121 -1.4813  0.8165  1.6192
 2710TIP3    H2 8074   0.548   6.942   6.036  1.0594  0.1841 -1.6123
 2711TIP3   OH2 8075   6.287   4.460   5.061  0.6799 -0.2364  0.1870
 2711TIP3    H1 8076   6.358   4.515   5.028  0.6805  0.1146  0.7669
 2711TIP3    H2 8077   6.221   4.463   4.991  1.9706 -2.0811 -1.2192
 2712TIP3   OH2 8078   0.331   6.201   3.976 -0.4647 -0.2774  0.4168
 2712TIP3    H1 8079   0.279   6.211   4.056 -0.1758 -0.6593  0.6521
 2712TIP3    H2 8080   0.409   6.153   4.003  0.7620  1.5977  0.3670
 2713TIP3   OH2 8081   3.455   6.350   1.152  0.3295 -0.4087  0.4442
 2713TIP3    H1 8082   3.379   6.353   1.211 -0.9414 -0.5968 -1.1216
 2713TIP3    H2 8083   3.516   6.414   1.189 -0.9920  0.4564  1.2250
 2714TIP3   OH2 8084   5.418   4.918   4.634  0.6922 -0.3193 -0.1267
 2714TIP3    H1 8085   5.362   4.846   4.662  2.6721 -1.9223 -0.0726
 2714TIP3    H2 8086   5.394   4.934   4.543  0.0507 -0.8687 -0.0591
 2715TIP3   OH2 8087   5.924   6.365   4.101 -0.0243 -0.2205  0.0736
 2715TIP3    H1 8088   5.938   6.271   4.104  0.8799 -0.1681 -1.2308
 2715TIP3    H2 8089   6.013   6.402   4.105 -0.4339  0.7667  3.7086
 2716TIP3   OH2 8090   3.125   1.294   1.945 -0.0074 -0.0415  0.1395
 2716TIP3    H1 8091   3.064   1.322   2.013  1.4873 -1.4269  2.1722
 2716TIP3    H2 8092   3.120   1.199   1.945  0.7382 -0.1121 -1.0447
 2717TIP3   OH2 8093   0.645   1.656   1.131 -0.4927  0.1989 -0.0791
 2717TIP3    H1 8094   0.692   1.575   1.150  0.1091  0.6023  0.1694
 2717TIP3    H2 8095   0.656   1.669   1.037  1.0994  1.0216  0.1900
 2718TIP3   OH2 8096   0.801   4.077   3.900  0.1948 -0.2747 -0.2658
 2718TIP3    H1 8097   0.868   4.032   3.848 -0.7909 -2.4300  0.2238
 2718TIP3    H2 8098   0.742   4.007   3.928 -2.1007  1.5028 -0.4071
 2719TIP3   OH2 8099   1.715   2.229   0.440 -0.3479 -0.3001  0.1192
 2719TIP3    H1 8100   1.646   2.175   0.401  0.8200 -1.9760  0.2613
 2719TIP3    H2 8101   1.714   2.206   0.533  0.1495 -0.0751  0.1846
 2720TIP3   OH2 8102   7.994   5.607   4.317  0.0814 -0.3069  0.2975
 2720TIP3    H1 8103   7.948   5.527   4.292  0.2669 -0.7742  1.3941
 2720TIP3    H2 8104   7.957   5.674   4.260  0.3473 -1.2628 -1.0683
 2721TIP3   OH2 8105   1.573   0.566   3.105  0.1437  0.4728  0.2656
 2721TIP3    H1 8106   1.551   0.474   3.112  1.6278 -0.0036 -0.8260
 2721TIP3    H2 8107   1.489   0.611   3.095 -0.6012 -0.7239  1.0411
 2722TIP3   OH2 8108   7.588   4.373   0.205 -0.4123 -0.3131 -0.6293
 2722TIP3    H1 8109   7.576   4.320   0.126 -3.5277 -0.4155 -0.2013
 2722TIP3    H2 8110   7.647   4.321   0.260  1.0842 -0.6551 -2.4485
 2723TIP3   OH2 8111   7.861   3.826   6.682 -0.1085  0.5494  0.2864
 2723TIP3    H1 8112   7.791   3.762   6.667 -0.0465  0.5609 -0.0577
 2723TIP3    H2 8113   7.891   3.849   6.595 -0.3594  1.3028  0.3922
 2724TIP3   OH2 8114   2.912   6.820   0.018  0.5279  0.3436  0.5592
 2724TIP3    H1 8115   2.879   6.886  -0.043 -3.9428 -0.6839  1.5018
 2724TIP3    H2 8116   2.914   6.863   0.103 -4.7418 -0.8846  1.6666
 2725TIP3   OH2 8117   0.947   5.630   5.621  0.1361  0.6444  0.2750
 2725TIP3    H1 8118   0.992   5.629   5.706 -1.2739 -1.2684  1.0856
 2725TIP3    H2 8119   0.963   5.718   5.586  3.0256  0.6307  1.2433
 2726TIP3   OH2 8120   0.165   0.902   0.908  0.2272 -0.0727  0.3728
 2726TIP3    H1 8121   0.216   0.858   0.976 -0.3892 -2.9892 -0.9355
 2726TIP3    H2 8122   0.080   0.918   0.948  0.0830 -1.1668  0.5208
 2727TIP3   OH2 8123   7.895   1.235   4.992  0.1390  0.8433 -0.3819
 2727TIP3    H1 8124   7.985   1.253   5.020  0.3060  0.1481 -0.4358
 2727TIP3    H2 8125   7.894   1.140   4.976 -0.5925  0.8537 -0.4263
 2728TIP3   OH2 8126   1.723   3.869   0.288 -0.0462 -0.3685  0.6547
 2728TIP3    H1 8127   1.790   3.823   0.340  0.0235  0.3259  1.1972
 2728TIP3    H2 8128   1.685   3.933   0.349 -0.6754 -0.2319  0.1314
 2729TIP3   OH2 8129   6.546   3.114   1.256 -0.1436  0.7492  0.1668
 2729TIP3    H1 8130   6.524   3.149   1.343  0.5367  1.0981  0.2094
 2729TIP3    H2 8131   6.611   3.046   1.274  1.6210  2.2646 -0.1971
 2730TIP3   OH2 8132   1.686   0.305   1.583 -0.4898  0.6038  0.2904
 2730TIP3    H1 8133   1.757   0.357   1.620 -3.0949  4.2816  0.7679
 2730TIP3    H2 8134   1.700   0.310   1.488 -0.6159  2.2377  0.3291
 2731TIP3   OH2 8135   7.368   7.062   4.556  0.5659 -0.0358 -0.3209
 2731TIP3    H1 8136   7.336   7.150   4.579  0.0940 -0.1517 -0.5383
 2731TIP3    H2 8137   7.458   7.061   4.588  0.0689 -0.0351  1.1424
 2732TIP3   OH2 8138   4.695   1.335   2.070 -0.1817  0.3044  0.2566
 2732TIP3    H1 8139   4.781   1.320   2.109  1.7184  1.1739 -3.1645
 2732TIP3    H2 8140   4.641   1.262   2.102  1.1112  0.8303  4.1207
 2733TIP3   OH2 8141   0.561   2.940   2.510 -0.2297 -0.6155 -0.1522
 2733TIP3    H1 8142   0.575   2.996   2.433  0.5637 -0.2308  0.2487
 2733TIP3    H2 8143   0.498   2.989   2.563 -0.7630 -0.8713 -0.5356
 2734TIP3   OH2 8144   6.850   4.777   4.624  0.2463  0.1743 -1.2809
 2734TIP3    H1 8145   6.788   4.777   4.552  0.3347 -3.0806 -1.5121
 2734TIP3    H2 8146   6.920   4.718   4.595 -0.0567 -1.8134  1.6779
 2735TIP3   OH2 8147   1.378   0.104   5.650 -0.3104 -0.3101  0.0385
 2735TIP3    H1 8148   1.306   0.069   5.598 -0.6743 -0.0247  0.3371
 2735TIP3    H2 8149   1.405   0.030   5.705 -1.0565 -0.1505  0.6485
 2736TIP3   OH2 8150   6.079   3.372   3.948  0.4556  0.0077 -0.3578
 2736TIP3    H1 8151   6.164   3.331   3.962  1.3389  0.8951 -2.6222
 2736TIP3    H2 8152   6.022   3.302   3.917  0.4956 -0.4718  0.6188
 2737TIP3   OH2 8153   8.113   1.710   2.909  0.3286 -0.0991  0.0415
 2737TIP3    H1 8154   8.093   1.738   2.820 -2.5243 -0.9579  0.3196
 2737TIP3    H2 8155   8.168   1.633   2.898  0.4278  0.1040 -0.9692
 2738TIP3   OH2 8156   8.009   7.791   3.868  0.8441 -0.3130 -0.9121
 2738TIP3    H1 8157   7.978   7.834   3.947  1.5495  0.9184 -1.2855
 2738TIP3    H2 8158   8.068   7.722   3.900 -0.8959 -1.5956 -0.2798
 2739TIP3   OH2 8159   2.302   6.067   6.053  0.3304 -0.1282 -0.2711
 2739TIP3    H1 8160   2.396   6.072   6.037  0.4164  0.6390  0.3814
 2739TIP3    H2 8161   2.292   5.996   6.116  0.4862 -0.1525 -0.2731
 2740TIP3   OH2 8162   6.692   2.237   4.192 -0.5111  0.6093  0.5557
 2740TIP3    H1 8163   6.701   2.330   4.173  0.7223  0.6337  1.1313
 2740TIP3    H2 8164   6.739   2.226   4.275  1.8653 -1.0029 -0.8747
 2741TIP3   OH2 8165   4.210   0.120   6.028  0.5018 -0.0491 -0.3578
 2741TIP3    H1 8166   4.226   0.162   5.944  1.5554 -0.9971 -0.6564
 2741TIP3    H2 8167   4.215   0.026   6.009  1.4444 -0.2728  0.8817
 2742TIP3   OH2 8168   6.451   7.174   1.095 -0.5708 -0.7878  0.4363
 2742TIP3    H1 8169   6.512   7.107   1.062 -1.2306 -1.8738  1.3560
 2742TIP3    H2 8170   6.379   7.174   1.032 -0.9059 -1.4629  0.8139
 2743TIP3   OH2 8171   6.390   3.316   5.594 -0.7787 -0.4742 -0.2926
 2743TIP3    H1 8172   6.303   3.320   5.556 -1.0489  1.2644  0.3860
 2743TIP3    H2 8173   6.375   3.304   5.688 -0.2667 -0.8924 -0.2615
 2744TIP3   OH2 8174   3.642   4.939   2.464 -0.6392  0.7715  0.6625
 2744TIP3    H1 8175   3.573   4.963   2.403 -1.1714 -0.6581  0.6689
 2744TIP3    H2 8176   3.714   4.998   2.443 -0.5386 -0.1291 -1.8458
 2745TIP3   OH2 8177   3.117   1.432   6.359  0.1309 -0.1240 -0.1496
 2745TIP3    H1 8178   3.150   1.342   6.352  0.1894 -0.0184 -1.3760
 2745TIP3    H2 8179   3.077   1.450   6.274 -1.6711  0.3177  0.7359
 2746TIP3   OH2 8180   5.345   1.849   3.541  0.1327 -0.1673  0.1888
 2746TIP3    H1 8181   5.350   1.867   3.635  0.2605 -0.7868  0.3063
 2746TIP3    H2 8182   5.406   1.776   3.527  2.2377  1.6526 -0.8406
 2747TIP3   OH2 8183   6.864   4.124   3.218 -0.2588 -0.4492  0.5434
 2747TIP3    H1 8184   6.797   4.094   3.279 -0.6701 -1.2000 -0.2700
 2747TIP3    H2 8185   6.823   4.118   3.132  1.0576 -1.5434 -0.0366
 2748TIP3   OH2 8186   1.223   4.278   4.067 -0.4897  0.1968  0.1384
 2748TIP3    H1 8187   1.267   4.274   4.151  0.9732 -1.3838 -0.6417
 2748TIP3    H2 8188   1.286   4.323   4.009 -0.9029  0.0525 -0.4359
 2749TIP3   OH2 8189   1.765   1.792   4.293  0.1335  0.6832 -0.4033
 2749TIP3    H1 8190   1.769   1.732   4.218 -1.5929  1.1725 -0.9458
 2749TIP3    H2 8191   1.829   1.859   4.273  0.0415  0.5426 -1.2265
 2750TIP3   OH2 8192   8.121   0.182   4.296  0.5418 -0.5789  0.9686
 2750TIP3    H1 8193   8.094   0.273   4.309  0.4566 -0.4479 -0.0443
 2750TIP3    H2 8194   8.107   0.166   4.203  0.5893 -1.6245  1.1293
 2751TIP3   OH2 8195   5.820   5.841   0.825  0.7107 -0.1685  0.1316
 2751TIP3    H1 8196   5.829   5.876   0.914  0.0624 -1.6291  0.7908
 2751TIP3    H2 8197   5.910   5.823   0.798  1.1597  2.4912 -0.4901
 2752TIP3   OH2 8198   0.236   4.496   5.169 -0.1827 -0.0031  0.3989
 2752TIP3    H1 8199   0.310   4.436   5.177 -0.4951 -0.3479  0.7684
 2752TIP3    H2 8200   0.159   4.440   5.178 -0.5318  0.1292 -1.4975
 2753TIP3   OH2 8201   5.667   1.610   2.725  0.0368 -0.3436  0.2135
 2753TIP3    H1 8202   5.730   1.599   2.796  0.2621 -0.9242 -0.0731
 2753TIP3    H2 8203   5.618   1.528   2.723 -2.8823  1.1632  2.4701
 2754TIP3   OH2 8204   3.515   0.661   6.708  0.6609 -0.2296 -0.5370
 2754TIP3    H1 8205   3.600   0.695   6.679  0.0769  2.1509  0.2978
 2754TIP3    H2 8206   3.460   0.667   6.630  1.1720 -1.6569 -1.0457
 2755TIP3   OH2 8207   6.272   3.649   3.060 -0.5288 -0.1281 -0.4676
 2755TIP3    H1 8208   6.226   3.706   3.122 -0.0712 -0.3245  0.0669
 2755TIP3    H2 8209   6.318   3.710   3.002 -0.1596  0.0598  0.0106
 2756TIP3   OH2 8210   5.519   5.243   0.311  0.0081  0.2089 -0.5214
 2756TIP3    H1 8211   5.442   5.297   0.327  0.7638  1.1937 -0.0914
 2756TIP3    H2 8212   5.560   5.281   0.233  0.1334 -0.2189 -0.6667
 2757TIP3   OH2 8213   2.128   3.609   0.150  0.6458  0.4676 -0.1875
 2757TIP3    H1 8214   2.166   3.537   0.200  0.6928 -0.4046 -1.4330
 2757TIP3    H2 8215   2.199   3.639   0.093  0.1748  0.4169 -0.8188
 2758TIP3   OH2 8216   3.214   6.014   5.311 -0.4841 -0.2889  0.0572
 2758TIP3    H1 8217   3.283   5.971   5.361  0.4851  0.2929 -0.7499
 2758TIP3    H2 8218   3.233   6.108   5.318  0.1305 -0.1976 -1.9601
 2759TIP3   OH2 8219   2.895   7.326   4.511 -0.3871 -0.0183 -0.8576
 2759TIP3    H1 8220   2.977   7.278   4.497 -0.3797 -0.2023 -0.2168
 2759TIP3    H2 8221   2.920   7.405   4.559 -0.3488  0.8382 -2.2351
 2760TIP3   OH2 8222   5.261   1.802   4.119 -0.7502  0.0942  0.3518
 2760TIP3    H1 8223   5.197   1.865   4.152  0.6476  2.4504 -1.1566
 2760TIP3    H2 8224   5.346   1.844   4.134  0.2081 -1.2180 -1.1390
 2761TIP3   OH2 8225   6.895   4.654   1.846  0.0954 -0.0548 -0.1958
 2761TIP3    H1 8226   6.966   4.611   1.797  0.1368 -1.2011  0.8348
 2761TIP3    H2 8227   6.827   4.668   1.781  0.4163 -0.9382 -0.7453
 2762TIP3   OH2 8228   3.171   7.327   2.005 -0.2051 -0.5445  0.0905
 2762TIP3    H1 8229   3.224   7.331   2.085  1.1162 -1.0287 -0.7222
 2762TIP3    H2 8230   3.101   7.391   2.020  0.5366  0.0440  1.2573
 2763TIP3   OH2 8231   1.456   7.443   2.341  0.4170 -0.1117 -0.0829
 2763TIP3    H1 8232   1.534   7.389   2.351  0.9834  0.3488 -1.6997
 2763TIP3    H2 8233   1.387   7.382   2.316  1.2470 -0.0718 -2.7568
 2764TIP3   OH2 8234   3.972   0.569   2.427 -0.3466  0.0427 -0.1134
 2764TIP3    H1 8235   3.920   0.492   2.405 -0.3131 -0.7694  2.3782
 2764TIP3    H2 8236   3.929   0.606   2.504  3.0509 -1.1142  2.5689
 2765TIP3   OH2 8237   6.386   5.555   4.858  0.2335 -0.4495  0.5601
 2765TIP3    H1 8238   6.455   5.508   4.906  1.9440  0.3366 -0.9980
 2765TIP3    H2 8239   6.395   5.646   4.887  0.5723 -0.1630 -0.3959
 2766TIP3   OH2 8240   6.072   3.561   4.659  0.3569 -0.0563 -0.5101
 2766TIP3    H1 8241   6.033   3.618   4.592 -0.4018 -1.1889 -1.0812
 2766TIP3    H2 8242   5.999   3.507   4.689  1.0507 -0.7183  0.0192
 2767TIP3   OH2 8243   1.970   6.247   5.021  0.5337  0.8704 -0.1640
 2767TIP3    H1 8244   1.997   6.157   5.042 -0.8729  0.0600 -1.5628
 2767TIP3    H2 8245   2.052   6.292   5.001  1.2087 -0.3586 -0.3168
 2768TIP3   OH2 8246   4.634   6.458   2.504  0.2755 -0.3284  0.2483
 2768TIP3    H1 8247   4.575   6.464   2.430  0.3212  1.2414  0.2860
 2768TIP3    H2 8248   4.719   6.438   2.466  0.5343  1.6082 -0.2959
 2769TIP3   OH2 8249   5.195   0.848   5.452 -0.5713 -0.0028  0.1663
 2769TIP3    H1 8250   5.267   0.890   5.405  0.1735 -0.2888  1.0191
 2769TIP3    H2 8251   5.153   0.792   5.386  0.3126 -0.2334 -0.2178
 2770TIP3   OH2 8252   1.913   5.184   5.765 -0.1952  0.3005 -0.1454
 2770TIP3    H1 8253   1.913   5.229   5.849 -0.6976 -0.1356  0.0962
 2770TIP3    H2 8254   1.995   5.210   5.724  0.1327  0.3955  0.5488
 2771TIP3   OH2 8255   0.683   0.861   0.072  0.0511 -0.2891 -0.0314
 2771TIP3    H1 8256   0.668   0.955   0.063  0.7535 -0.1852 -0.1936
 2771TIP3    H2 8257   0.758   0.843   0.015 -0.7673 -1.1518 -0.8547
 2772TIP3   OH2 8258   3.077   5.276   2.765  0.1193 -0.3267  0.6249
 2772TIP3    H1 8259   3.167   5.297   2.790 -0.0152 -0.9003  1.6153
 2772TIP3    H2 8260   3.084   5.192   2.719  0.3434  0.6399 -1.2259
 2773TIP3   OH2 8261   0.166   5.147   1.261 -0.0596 -0.1140 -0.2260
 2773TIP3    H1 8262   0.098   5.199   1.304 -0.1381  1.8329 -2.4606
 2773TIP3    H2 8263   0.118   5.088   1.202  0.1113 -0.8721  0.3888
 2774TIP3   OH2 8264   7.851   7.356   5.576 -0.0699  0.2863  0.0316
 2774TIP3    H1 8265   7.907   7.378   5.502 -0.0767 -2.0160 -0.7279
 2774TIP3    H2 8266   7.812   7.271   5.553 -2.9539  1.1899  1.0349
 2775TIP3   OH2 8267   7.004   7.082   6.267  0.1892  0.0900 -0.2103
 2775TIP3    H1 8268   6.990   7.066   6.174  1.3577  1.3354 -0.6409
 2775TIP3    H2 8269   7.010   7.177   6.275 -1.6095  0.1347  1.4334
 2776TIP3   OH2 8270   4.197   6.487   2.426 -0.2109 -0.5569 -0.6624
 2776TIP3    H1 8271   4.250   6.462   2.501  2.1179  1.2740 -1.5598
 2776TIP3    H2 8272   4.123   6.536   2.463  0.7495  0.0774  0.4560
 2777TIP3   OH2 8273   6.870   0.722   1.181 -0.5906 -0.0519 -0.2764
 2777TIP3    H1 8274   6.851   0.684   1.266  0.5346 -1.6820 -0.7114
 2777TIP3    H2 8275   6.920   0.802   1.201 -1.0868  0.0482  0.5913
 2778TIP3   OH2 8276   5.407   2.771   4.530 -0.5022  0.7275  0.5176
 2778TIP3    H1 8277   5.386   2.731   4.446 -0.1632 -3.1787  2.1114
 2778TIP3    H2 8278   5.325   2.771   4.579  0.0406 -0.6286  1.4813
 2779TIP3   OH2 8279   2.026   6.481   3.294  0.2719  0.2132 -0.5248
 2779TIP3    H1 8280   2.059   6.407   3.344 -0.0364 -1.4802 -2.7061
 2779TIP3    H2 8281   1.934   6.490   3.322  0.4817  0.2171  0.1924
 2780TIP3   OH2 8282   7.196   5.868   6.668  0.3247 -0.0338  0.4957
 2780TIP3    H1 8283   7.170   5.776   6.662  1.3181 -0.2637 -1.2227
 2780TIP3    H2 8284   7.152   5.901   6.746 -1.5649 -1.4725  0.1204
 2781TIP3   OH2 8285   1.179   1.888   1.401  0.6529 -0.2808 -0.0965
 2781TIP3    H1 8286   1.086   1.876   1.420  0.8510 -1.5930  0.1458
 2781TIP3    H2 8287   1.204   1.964   1.454 -0.4889  0.7259 -0.9438
 2782TIP3   OH2 8288   1.837   5.453   1.205 -0.2795 -0.4049 -0.4026
 2782TIP3    H1 8289   1.797   5.366   1.205 -1.6884  0.2226 -0.0970
 2782TIP3    H2 8290   1.769   5.511   1.238  1.1034  0.6221  0.7741
 2783TIP3   OH2 8291   7.954   3.118   1.367  0.2319 -0.4512  0.0595
 2783TIP3    H1 8292   7.933   3.060   1.293  0.5440 -0.5766  0.0696
 2783TIP3    H2 8293   7.885   3.184   1.365  0.3334 -0.3540 -0.4544
 2784TIP3   OH2 8294   0.685   3.614   0.880  0.1296 -0.0861 -0.0716
 2784TIP3    H1 8295   0.713   3.676   0.813  1.0882 -1.1497 -0.6836
 2784TIP3    H2 8296   0.686   3.665   0.961 -2.6995  1.6952 -1.0276
 2785TIP3   OH2 8297   4.039   5.665   5.317  0.0495 -0.1684 -0.4912
 2785TIP3    H1 8298   4.087   5.748   5.326 -0.8138  0.3012 -0.0974
 2785TIP3    H2 8299   4.106   5.598   5.329  0.6177  0.4685  0.0037
 2786TIP3   OH2 8300   7.148   1.748   1.108  0.3708  0.0010 -0.8414
 2786TIP3    H1 8301   7.110   1.726   1.023 -2.2019 -2.8091  0.8277
 2786TIP3    H2 8302   7.237   1.713   1.104  1.0851  1.8295 -3.0111
 2787TIP3   OH2 8303   6.738   7.553   6.477 -0.0300  0.2293  0.1596
 2787TIP3    H1 8304   6.688   7.472   6.485 -1.1634  0.3801 -3.6487
 2787TIP3    H2 8305   6.827   7.528   6.502 -0.4507 -2.0639 -0.3864
 2788TIP3   OH2 8306   0.339   0.376   1.872 -0.0837  0.1870  0.1882
 2788TIP3    H1 8307   0.411   0.321   1.844  0.4982  0.7737  0.5032
 2788TIP3    H2 8308   0.346   0.379   1.968  0.8026  1.9821  0.1103
 2789TIP3   OH2 8309   1.481   1.435   2.945  0.2419 -0.4618 -0.4857
 2789TIP3    H1 8310   1.521   1.515   2.911  0.6248 -1.1475 -1.7308
 2789TIP3    H2 8311   1.451   1.388   2.866  0.7334 -1.8993  0.1492
 2790TIP3   OH2 8312   0.969   3.461   0.680 -0.2963  0.1592 -0.9070
 2790TIP3    H1 8313   1.006   3.549   0.689  1.1144 -0.5549  1.0056
 2790TIP3    H2 8314   1.043   3.405   0.659 -1.0618 -0.6954 -1.4375
 2791TIP3   OH2 8315   1.265   7.290   0.105  0.2019  0.0545 -0.5916
 2791TIP3    H1 8316   1.299   7.227   0.040 -0.9059 -2.5714  1.2256
 2791TIP3    H2 8317   1.343   7.322   0.150  0.7516 -0.6610 -1.0118
 2792TIP3   OH2 8318   3.489   7.508   2.059 -0.0989  0.0037 -0.0983
 2792TIP3    H1 8319   3.494   7.413   2.056 -0.2160  0.0177 -0.8961
 2792TIP3    H2 8320   3.452   7.527   2.145 -0.5331 -0.6904 -0.1241
 2793TIP3   OH2 8321   2.497   6.349   6.290 -0.4521 -0.0372 -0.5340
 2793TIP3    H1 8322   2.522   6.415   6.355  1.4202 -2.2620  1.1794
 2793TIP3    H2 8323   2.403   6.336   6.304 -0.0571 -0.7185  2.1238
 2794TIP3   OH2 8324   1.975   4.451   6.285  0.8896 -0.0585  0.4678
 2794TIP3    H1 8325   1.978   4.506   6.207  0.4716  0.8934  1.1041
 2794TIP3    H2 8326   1.941   4.508   6.354  0.6886 -1.0441  1.2161
 2795TIP3   OH2 8327   7.226   2.748   2.233  0.9655 -0.3321  0.1930
 2795TIP3    H1 8328   7.140   2.789   2.234  1.2194  0.2267  0.2051
 2795TIP3    H2 8329   7.270   2.788   2.158  1.4523 -0.0763  0.6044
 2796TIP3   OH2 8330   5.515   2.292   3.872 -0.2777 -0.1069  0.1310
 2796TIP3    H1 8331   5.453   2.365   3.881  0.8394  0.7280  1.5869
 2796TIP3    H2 8332   5.584   2.326   3.816 -1.1872 -1.1185 -1.6863
 2797TIP3   OH2 8333   6.363   6.182   2.229  0.3244  0.0742  0.0439
 2797TIP3    H1 8334   6.315   6.109   2.268  0.2641  0.9232  1.6320
 2797TIP3    H2 8335   6.455   6.158   2.240  0.3182  0.4909  1.1360
 2798TIP3   OH2 8336   5.777   0.275   5.134  0.1510 -0.1787 -0.5077
 2798TIP3    H1 8337   5.840   0.287   5.063  1.0924 -0.0765  0.3161
 2798TIP3    H2 8338   5.702   0.329   5.110  0.5141 -0.0430 -1.3529
 2799TIP3   OH2 8339   2.787   6.218   5.584  0.0750 -1.0719 -0.8503
 2799TIP3    H1 8340   2.814   6.174   5.504 -0.2088 -1.6817 -0.6152
 2799TIP3    H2 8341   2.728   6.287   5.555  1.4653 -0.0268 -1.3302
 2800TIP3   OH2 8342   6.715   4.875   2.340  0.0776 -0.1922  0.4715
 2800TIP3    H1 8343   6.685   4.802   2.394  0.2901  0.2001  1.1262
 2800TIP3    H2 8344   6.719   4.839   2.251  0.1120 -0.9583  0.7766
 2801TIP3   OH2 8345   8.242   6.042   1.576 -0.4874 -0.7577  0.7985
 2801TIP3    H1 8346   8.307   5.975   1.595 -0.7071 -1.1349  0.2565
 2801TIP3    H2 8347   8.162   5.992   1.555 -0.7719 -0.3198  0.8351
 2802TIP3   OH2 8348   3.286   6.505   0.689  0.2013  0.2418  0.1748
 2802TIP3    H1 8349   3.373   6.475   0.666 -0.6380 -1.9489 -0.3981
 2802TIP3    H2 8350   3.245   6.529   0.606 -0.1590  0.0278  0.2862
 2803TIP3   OH2 8351   0.511   3.209   3.066 -0.5615 -0.4520  0.0202
 2803TIP3    H1 8352   0.601   3.184   3.047 -0.6917 -0.5209 -0.5433
 2803TIP3    H2 8353   0.509   3.226   3.160  0.3886  0.9804 -0.1849
 2804TIP3   OH2 8354   5.714   5.257   3.396 -0.3887  0.8761 -0.2397
 2804TIP3    H1 8355   5.691   5.345   3.424  1.0715  1.0986  0.3633
 2804TIP3    H2 8356   5.803   5.266   3.362 -0.1122 -0.4150  0.0991
 2805TIP3   OH2 8357   7.577   7.021   3.740 -0.0557 -0.0960  0.1963
 2805TIP3    H1 8358   7.498   6.975   3.766 -0.9591 -0.1565 -2.4133
 2805TIP3    H2 8359   7.605   6.978   3.660  2.6566 -0.0435  1.0105
 2806TIP3   OH2 8360   1.521   4.185   6.103  0.0778  0.1241 -0.4975
 2806TIP3    H1 8361   1.551   4.117   6.043  1.5126 -0.6370  1.0023
 2806TIP3    H2 8362   1.586   4.186   6.173 -2.4140 -0.2932  2.0113
 2807TIP3   OH2 8363   1.413   2.480   5.104  0.0724 -0.2749  0.6979
 2807TIP3    H1 8364   1.342   2.421   5.081 -1.1643  0.5020  2.2921
 2807TIP3    H2 8365   1.489   2.424   5.113 -0.4423 -1.2097 -0.4663
 2808TIP3   OH2 8366   2.658   5.949   5.064  0.7114 -0.0196 -0.4969
 2808TIP3    H1 8367   2.569   5.974   5.089  0.1448 -1.2930 -1.1751
 2808TIP3    H2 8368   2.647   5.873   5.007  2.2738 -0.6031 -0.0752
 2809TIP3   OH2 8369   0.517   5.329   2.919  0.2067  0.1144 -0.2379
 2809TIP3    H1 8370   0.441   5.388   2.915 -0.8325 -1.2004 -0.8537
 2809TIP3    H2 8371   0.579   5.374   2.977 -0.8352  1.4525 -0.0939
 2810TIP3   OH2 8372   5.734   2.861   0.783  0.3649 -0.2697  0.3371
 2810TIP3    H1 8373   5.647   2.828   0.763 -0.0247  1.1968 -0.5541
 2810TIP3    H2 8374   5.762   2.810   0.859 -1.6871 -0.0588  1.2951
 2811TIP3   OH2 8375   2.989   4.084   5.239  0.3282  0.2858 -0.7435
 2811TIP3    H1 8376   3.053   4.151   5.262 -0.4205  1.8169 -2.7934
 2811TIP3    H2 8377   2.905   4.124   5.260 -0.3623  1.4837 -4.8189
 2812TIP3   OH2 8378   1.958   1.157   0.013  0.3456 -0.3169 -0.0654
 2812TIP3    H1 8379   1.965   1.122   0.102 -2.5120 -0.7984  0.0480
 2812TIP3    H2 8380   2.003   1.242   0.018 -1.2434  0.4898  2.3608
 2813TIP3   OH2 8381   2.960   3.678   5.359 -0.3865 -0.3877  0.4103
 2813TIP3    H1 8382   2.889   3.619   5.384  0.0345 -0.7072  0.8485
 2813TIP3    H2 8383   3.013   3.688   5.438  1.0701 -1.5809 -0.3746
 2814TIP3   OH2 8384   0.290   6.044   3.746 -0.2420  0.2358 -0.0513
 2814TIP3    H1 8385   0.342   5.972   3.782  0.1487  0.7589  0.4537
 2814TIP3    H2 8386   0.277   6.103   3.820 -0.7695  0.5657 -0.4014
 2815TIP3   OH2 8387   4.624   2.527   6.564 -0.7023 -0.3879 -0.0166
 2815TIP3    H1 8388   4.697   2.474   6.530  1.2042  1.3894  1.0737
 2815TIP3    H2 8389   4.646   2.541   6.656 -2.3462  0.3640  0.2821
 2816TIP3   OH2 8390   5.771   3.552   4.602 -0.1437 -0.0871 -0.4429
 2816TIP3    H1 8391   5.708   3.607   4.648 -0.3228 -1.1146  0.5893
 2816TIP3    H2 8392   5.735   3.464   4.608  2.0475 -0.9562  1.4798
 2817TIP3   OH2 8393   0.072   7.063   0.682 -0.6899 -0.0301  0.7875
 2817TIP3    H1 8394   0.098   7.045   0.772  0.4932 -0.4697  0.3780
 2817TIP3    H2 8395   0.154   7.082   0.636 -1.2526  0.0429 -0.2299
 2818TIP3   OH2 8396   2.940   0.268   0.245  0.2794 -0.1585  0.6890
 2818TIP3    H1 8397   2.987   0.314   0.315  0.4820 -0.6647  0.8945
 2818TIP3    H2 8398   3.003   0.204   0.213 -0.5070 -1.3833  1.4916
 2819TIP3   OH2 8399   7.998   6.139   1.338  0.1635  0.1831  0.1986
 2819TIP3    H1 8400   7.965   6.114   1.252  0.9462  0.4414 -0.1863
 2819TIP3    H2 8401   8.024   6.231   1.328  0.2918  0.2036  0.7032
 2820TIP3   OH2 8402   3.578   6.197   4.662  0.4907 -0.2900  0.1437
 2820TIP3    H1 8403   3.615   6.114   4.630  1.5469 -0.6934  2.2542
 2820TIP3    H2 8404   3.486   6.177   4.678  0.7027 -1.0191  0.4853
 2821TIP3   OH2 8405   0.827   7.417   5.722  0.0078 -0.3150  0.3821
 2821TIP3    H1 8406   0.917   7.434   5.694  0.3135 -0.1410  1.4032
 2821TIP3    H2 8407   0.788   7.366   5.651  0.7245  0.1276 -0.3422
 2822TIP3   OH2 8408   0.711   3.582   3.351  1.0216 -0.3053 -0.2775
 2822TIP3    H1 8409   0.699   3.673   3.324  0.9069 -0.6603 -1.4662
 2822TIP3    H2 8410   0.711   3.532   3.269 -0.8762 -1.6134  0.4551
 2823TIP3   OH2 8411   2.609   2.983   1.095 -0.4714  0.2513  0.4989
 2823TIP3    H1 8412   2.689   2.933   1.111 -1.4933 -1.0759  1.6560
 2823TIP3    H2 8413   2.638   3.074   1.096  1.1711 -0.2311 -0.0594
 2824TIP3   OH2 8414   0.938   4.795   4.900  0.0222 -0.8731  0.3843
 2824TIP3    H1 8415   0.903   4.722   4.951 -2.8033  0.9963  1.3418
 2824TIP3    H2 8416   0.876   4.807   4.829  2.1806 -1.3555 -1.7151
 2825TIP3   OH2 8417   8.263   3.311   5.403  0.0058  0.6244 -0.5298
 2825TIP3    H1 8418   8.349   3.310   5.362  1.6932  2.5054  2.6435
 2825TIP3    H2 8419   8.264   3.237   5.464 -0.6761  0.6024 -0.5366
 2826TIP3   OH2 8420   2.766   3.070   5.462 -0.5270  0.1445  0.4186
 2826TIP3    H1 8421   2.749   2.999   5.524 -2.3909 -0.3723 -0.6109
 2826TIP3    H2 8422   2.855   3.099   5.482 -0.1514 -1.7056  1.6245
 2827TIP3   OH2 8423   7.648   5.709   2.587 -0.4411  0.3508 -0.0456
 2827TIP3    H1 8424   7.657   5.793   2.633  3.0488  0.7858 -1.2116
 2827TIP3    H2 8425   7.572   5.721   2.530 -0.5621  2.4275  0.4643
 2828TIP3   OH2 8426   1.727   7.275   6.563 -0.3929  0.3245  0.1336
 2828TIP3    H1 8427   1.756   7.214   6.495  0.2924 -0.2045  0.8786
 2828TIP3    H2 8428   1.726   7.222   6.643  0.5856  1.3893  0.8771
 2829TIP3   OH2 8429   6.655   3.449   5.815  0.0176 -0.1200 -0.2317
 2829TIP3    H1 8430   6.630   3.496   5.736 -1.8632  2.7711  1.8942
 2829TIP3    H2 8431   6.586   3.384   5.828 -0.1853  0.0582 -0.4218
 2830TIP3   OH2 8432   3.844   6.294   6.256 -0.1220 -0.1572  0.0954
 2830TIP3    H1 8433   3.835   6.384   6.286  1.8435 -0.6740  2.5206
 2830TIP3    H2 8434   3.824   6.241   6.333 -0.7306 -1.8117 -1.1454
 2831TIP3   OH2 8435   2.187   3.798   0.601  0.2626 -0.3049  0.1590
 2831TIP3    H1 8436   2.211   3.710   0.572  0.8024 -0.1478  0.1049
 2831TIP3    H2 8437   2.221   3.804   0.690  0.8009  0.0645 -0.0621
 2832TIP3   OH2 8438   0.389   7.094   2.240  0.6046  0.2052 -0.2365
 2832TIP3    H1 8439   0.313   7.142   2.273 -0.5520 -2.1179  0.7282
 2832TIP3    H2 8440   0.410   7.136   2.157 -2.2204  0.4653 -0.9010
 2833TIP3   OH2 8441   6.373   5.026   4.507  0.6833  0.3679  0.3828
 2833TIP3    H1 8442   6.405   5.031   4.597 -0.6789  0.8164  0.8600
 2833TIP3    H2 8443   6.280   5.004   4.516  0.7996 -0.7940 -0.9551
 2834TIP3   OH2 8444   7.771   7.252   2.762  0.3975 -0.2974  0.6924
 2834TIP3    H1 8445   7.691   7.300   2.785  0.5284 -0.4592  1.5301
 2834TIP3    H2 8446   7.803   7.219   2.846  1.7530  0.4040  0.4751
 2835TIP3   OH2 8447   7.934   1.038   2.819 -0.3806  0.4041 -0.0200
 2835TIP3    H1 8448   7.946   1.047   2.914  0.7544  0.4647 -0.1500
 2835TIP3    H2 8449   7.980   1.114   2.782 -2.2230  1.3091 -0.5654
 2836TIP3   OH2 8450   4.683   4.882   2.652  0.3820 -0.7755  0.3542
 2836TIP3    H1 8451   4.679   4.972   2.621 -0.2471 -1.0355 -0.3448
 2836TIP3    H2 8452   4.776   4.868   2.671  1.0503 -0.9616 -2.5854
 2837TIP3   OH2 8453   7.923   6.970   3.340 -0.3529  0.7051  0.2315
 2837TIP3    H1 8454   7.917   6.882   3.378 -0.0565  0.9008  0.7450
 2837TIP3    H2 8455   7.994   6.964   3.276 -0.5431  0.4921  0.0387
 2838TIP3   OH2 8456   0.375   4.169   4.521 -0.5179  0.0815  0.1437
 2838TIP3    H1 8457   0.470   4.173   4.517 -0.4610 -0.9789  0.2438
 2838TIP3    H2 8458   0.349   4.252   4.561  0.5463 -0.6956  2.6436
 2839TIP3   OH2 8459   2.795   4.099   5.827 -0.3013 -0.3071  0.3937
 2839TIP3    H1 8460   2.799   4.150   5.908  1.6892  0.7875 -0.3105
 2839TIP3    H2 8461   2.842   4.018   5.847 -0.4265 -0.3453  0.5308
 2840TIP3   OH2 8462   6.717   2.181   1.930  0.1681 -0.1407  0.3671
 2840TIP3    H1 8463   6.680   2.093   1.927 -2.6285  0.9367 -2.2010
 2840TIP3    H2 8464   6.669   2.225   2.001  1.3096 -0.5384  1.4106
 2841TIP3   OH2 8465   3.630   7.717   6.020  0.0772  0.1860 -0.0092
 2841TIP3    H1 8466   3.569   7.775   5.976  0.3957 -0.4234 -1.3171
 2841TIP3    H2 8467   3.590   7.698   6.105 -0.1176  2.1245  0.3703
 2842TIP3   OH2 8468   3.099   6.758   5.981  0.2723  0.4711  0.5991
 2842TIP3    H1 8469   3.144   6.729   6.061  0.0013  0.5778  0.7902
 2842TIP3    H2 8470   3.144   6.711   5.910  0.1368 -0.0681  0.8676
 2843TIP3   OH2 8471   2.728   1.853   4.331 -0.0265 -0.0315  0.2618
 2843TIP3    H1 8472   2.718   1.774   4.278 -0.8251 -1.1647  2.0125
 2843TIP3    H2 8473   2.695   1.924   4.275  2.1838 -0.6007 -1.9758
 2844TIP3   OH2 8474   3.295   1.709   6.730 -0.3779 -1.0186 -0.2897
 2844TIP3    H1 8475   3.327   1.720   6.820 -1.3008 -1.7035  0.1415
 2844TIP3    H2 8476   3.217   1.654   6.739 -0.3020 -1.3616 -1.5496
 2845TIP3   OH2 8477   7.372   3.604   3.056  0.0035 -0.0983  0.5081
 2845TIP3    H1 8478   7.297   3.617   2.999  1.2141 -0.6503 -1.2726
 2845TIP3    H2 8479   7.448   3.617   3.000  1.2505 -1.9531  1.6616
 2846TIP3   OH2 8480   7.006   4.176   6.161 -0.3443 -0.5456  0.1061
 2846TIP3    H1 8481   7.030   4.103   6.218 -0.5311 -1.7618 -1.2894
 2846TIP3    H2 8482   7.077   4.181   6.097 -1.3930 -1.0046 -1.1489
 2847TIP3   OH2 8483   0.566   7.516   5.737  0.1022  0.4191  0.3688
 2847TIP3    H1 8484   0.649   7.516   5.689 -0.6089 -1.2837 -0.9407
 2847TIP3    H2 8485   0.535   7.607   5.731  0.9464  0.6601 -0.7503
 2848TIP3   OH2 8486   4.813   1.163   2.484  0.0129 -0.3133  0.7693
 2848TIP3    H1 8487   4.826   1.257   2.469  0.8990 -0.1954  2.1384
 2848TIP3    H2 8488   4.851   1.147   2.570 -0.4947 -1.8634  0.7322
 2849TIP3   OH2 8489   7.339   4.142   6.526 -0.1160 -0.6185  0.7536
 2849TIP3    H1 8490   7.367   4.162   6.616 -0.1081  0.9452  0.4274
 2849TIP3    H2 8491   7.250   4.177   6.521 -0.5445 -1.7080  0.4696
 2850TIP3   OH2 8492   6.755   4.598   2.498 -0.1916  0.1017 -0.2016
 2850TIP3    H1 8493   6.799   4.558   2.423  0.5701  0.1238  0.2346
 2850TIP3    H2 8494   6.765   4.535   2.569  0.1253  0.6141  0.2118
 2851TIP3   OH2 8495   0.450   0.466   4.621  0.1114 -0.4438 -0.1184
 2851TIP3    H1 8496   0.374   0.519   4.646  1.6915  1.5400  0.8032
 2851TIP3    H2 8497   0.422   0.376   4.636 -1.3018  0.3140  2.5273
 2852TIP3   OH2 8498   7.173   7.040   0.985  0.7007 -1.0701 -0.3935
 2852TIP3    H1 8499   7.116   6.977   0.940 -0.7944  2.5439 -4.2534
 2852TIP3    H2 8500   7.251   7.044   0.930  1.3526 -0.4655  0.5479
 2853TIP3   OH2 8501   6.113   4.355   5.548 -0.4784  0.1838  0.6614
 2853TIP3    H1 8502   6.202   4.368   5.514 -1.1850  0.5415 -1.1808
 2853TIP3    H2 8503   6.125   4.298   5.624  1.2182 -0.8413 -0.2988
 2854TIP3   OH2 8504   4.955   1.873   5.737 -0.5046 -0.5195 -0.1079
 2854TIP3    H1 8505   4.937   1.779   5.741  0.7092 -0.7397  1.0445
 2854TIP3    H2 8506   4.870   1.915   5.749 -0.9718 -1.4699 -0.0255
 2855TIP3   OH2 8507   0.785   0.170   1.302  0.1701 -0.0239  0.3819
 2855TIP3    H1 8508   0.759   0.159   1.394  1.7881  1.6905  1.1193
 2855TIP3    H2 8509   0.702   0.176   1.254 -0.7407 -3.0646  1.3519
 2856TIP3   OH2 8510   4.734   4.188   6.670  0.2743 -0.0628  0.2172
 2856TIP3    H1 8511   4.796   4.260   6.666 -0.7740  0.8239 -0.6488
 2856TIP3    H2 8512   4.695   4.195   6.757 -0.3339  0.8788 -0.1147
 2857TIP3   OH2 8513   5.560   5.340   4.651  0.3382  0.3208  0.0029
 2857TIP3    H1 8514   5.523   5.375   4.731 -2.3618 -2.5709  0.2220
 2857TIP3    H2 8515   5.525   5.396   4.581 -1.3805 -0.0585  0.5279
 2858TIP3   OH2 8516   5.088   1.376   4.928  0.3590  0.1210  0.1530
 2858TIP3    H1 8517   5.004   1.336   4.906  0.5210 -0.5371  0.7129
 2858TIP3    H2 8518   5.081   1.398   5.021  1.0582 -0.5896  0.3855
 2859TIP3   OH2 8519   6.780   1.047   3.200  0.0595  0.0989 -0.2176
 2859TIP3    H1 8520   6.794   1.126   3.148  0.8603  0.3761  0.3863
 2859TIP3    H2 8521   6.695   1.060   3.241  0.5048  1.0093  0.4624
 2860TIP3   OH2 8522   4.251   2.855   3.495  0.7894 -0.7847  0.0348
 2860TIP3    H1 8523   4.318   2.788   3.483  1.7704 -0.3165  2.3082
 2860TIP3    H2 8524   4.291   2.917   3.557 -1.3579  0.0665  0.6534
 2861TIP3   OH2 8525   6.504   5.833   2.120 -0.1491 -0.1169  0.5681
 2861TIP3    H1 8526   6.442   5.822   2.049 -0.8141  0.2278  1.0834
 2861TIP3    H2 8527   6.492   5.756   2.175  0.5752 -0.5330  0.1648
 2862TIP3   OH2 8528   6.820   5.097   6.539 -0.1856  0.2484 -0.1045
 2862TIP3    H1 8529   6.856   5.016   6.573 -1.1918  0.4899  1.6121
 2862TIP3    H2 8530   6.819   5.085   6.444 -1.4848 -2.2390  0.1649
 2863TIP3   OH2 8531   7.639   7.618   2.996  0.8783 -0.2607 -0.2345
 2863TIP3    H1 8532   7.620   7.550   2.932 -0.0261 -0.6092  0.3814
 2863TIP3    H2 8533   7.734   7.612   3.011  1.1092 -0.1471 -1.5404
 2864TIP3   OH2 8534   5.019   3.441   5.677  1.0657  0.4060  0.0718
 2864TIP3    H1 8535   5.037   3.486   5.594  1.6206 -1.2528 -0.7640
 2864TIP3    H2 8536   5.025   3.509   5.743 -2.3150  2.4455 -1.4613
 2865TIP3   OH2 8537   3.872   1.959   0.817  0.2827  0.0909 -0.2129
 2865TIP3    H1 8538   3.843   1.873   0.789  2.4223 -0.9820  0.6705
 2865TIP3    H2 8539   3.945   1.980   0.758  0.6058  0.7274  0.3985
 2866TIP3   OH2 8540   3.163   0.971   1.696  0.2939 -0.7385 -0.6761
 2866TIP3    H1 8541   3.123   1.007   1.775 -2.9633 -0.8498 -2.1404
 2866TIP3    H2 8542   3.227   0.908   1.728  0.2480  0.3744  1.8501
 2867TIP3   OH2 8543   7.155   6.327   6.155  0.3153  0.1351 -0.2237
 2867TIP3    H1 8544   7.201   6.399   6.111 -0.0513  1.6041  1.6828
 2867TIP3    H2 8545   7.220   6.257   6.160  0.9797  0.6433 -1.2835
 2868TIP3   OH2 8546   5.074   5.195   1.877  0.0344  0.3020  0.6370
 2868TIP3    H1 8547   5.130   5.121   1.858  0.4569  0.3817  1.5136
 2868TIP3    H2 8548   5.048   5.183   1.969 -1.9349 -0.0992  0.0645
 2869TIP3   OH2 8549   1.893   0.852   2.382  0.4068 -0.0506  0.2515
 2869TIP3    H1 8550   1.812   0.814   2.347  0.4077  0.8803 -0.7841
 2869TIP3    H2 8551   1.878   0.946   2.381  1.4367  0.1206  0.2425
 2870TIP3   OH2 8552   7.838   6.878   2.050 -0.4407 -0.3125  0.3035
 2870TIP3    H1 8553   7.820   6.950   2.111  0.7329  0.3971 -0.1614
 2870TIP3    H2 8554   7.806   6.910   1.966  0.9977  0.1021 -0.1078
 2871TIP3   OH2 8555   0.942   3.499   5.295  0.4834  0.4464  0.0032
 2871TIP3    H1 8556   0.873   3.463   5.238 -0.0470 -0.5971  1.2696
 2871TIP3    H2 8557   0.894   3.544   5.365  1.1171  0.8389  0.1911
 2872TIP3   OH2 8558   6.219   0.654   5.922 -0.3863 -0.1371 -0.3872
 2872TIP3    H1 8559   6.185   0.738   5.890  0.8848  1.4515  2.1150
 2872TIP3    H2 8560   6.273   0.677   5.997 -0.7159 -3.3064  0.9818
 2873TIP3   OH2 8561   1.151   5.342   5.240 -0.6205 -0.2050 -0.2628
 2873TIP3    H1 8562   1.062   5.321   5.268 -0.5761 -0.2287 -0.1377
 2873TIP3    H2 8563   1.172   5.278   5.173 -0.3634 -0.7682  0.3456
 2874TIP3   OH2 8564   4.762   2.719   1.688  0.2869  0.2496 -0.1513
 2874TIP3    H1 8565   4.702   2.705   1.761 -0.6708 -0.1700 -0.9921
 2874TIP3    H2 8566   4.792   2.809   1.699 -0.4539  0.4513  0.3168
 2875TIP3   OH2 8567   7.957   7.029   4.368 -0.5831 -0.4249 -0.4412
 2875TIP3    H1 8568   8.007   7.062   4.442 -0.0816  2.2341 -1.8341
 2875TIP3    H2 8569   7.871   7.007   4.404 -0.6787  1.7172  0.8029
 2876TIP3   OH2 8570   0.595   4.141   1.940  0.9775  0.4333 -0.2398
 2876TIP3    H1 8571   0.681   4.107   1.918  1.7659  2.9256 -1.4357
 2876TIP3    H2 8572   0.552   4.155   1.856 -0.2698  0.0446  0.3086
 2877TIP3   OH2 8573   5.650   5.084   4.679  0.6274 -0.3887 -0.2629
 2877TIP3    H1 8574   5.626   5.173   4.653  0.7602 -0.4848 -0.7346
 2877TIP3    H2 8575   5.571   5.033   4.665  0.6274 -0.3922 -0.2488
 2878TIP3   OH2 8576   1.317   6.422   4.509  0.3493  0.2349  0.0888
 2878TIP3    H1 8577   1.340   6.515   4.508 -1.5401  0.7492 -0.0277
 2878TIP3    H2 8578   1.399   6.377   4.530  0.9362  2.0452  2.1119
 2879TIP3   OH2 8579   1.409   7.251   6.373 -0.2952 -0.3868 -0.8272
 2879TIP3    H1 8580   1.398   7.274   6.465  0.2586 -1.2240 -0.5383
 2879TIP3    H2 8581   1.485   7.193   6.371  0.5280  0.6737 -2.0003
 2880TIP3   OH2 8582   0.093   5.742   0.764 -0.4201 -0.4509 -0.0029
 2880TIP3    H1 8583   0.046   5.813   0.721 -0.2225  0.0573  0.6017
 2880TIP3    H2 8584   0.040   5.722   0.842 -1.2784 -1.9927 -0.9392
 2881TIP3   OH2 8585   7.581   1.232   2.364 -0.0151 -0.2043  0.1010
 2881TIP3    H1 8586   7.623   1.201   2.284 -1.7554 -1.0682 -0.5209
 2881TIP3    H2 8587   7.633   1.192   2.434  0.9421 -0.2255 -0.5900
 2882TIP3   OH2 8588   2.337   3.070   1.675  0.1747  0.0162 -0.2403
 2882TIP3    H1 8589   2.321   3.046   1.766  2.2845  1.7195  0.6856
 2882TIP3    H2 8590   2.432   3.067   1.666  0.0257  0.0782 -2.3562
 2883TIP3   OH2 8591   5.472   0.956   5.426 -0.1234  0.0972 -0.3580
 2883TIP3    H1 8592   5.482   0.986   5.335  2.2817  0.3506 -0.0624
 2883TIP3    H2 8593   5.469   1.036   5.478  1.6107 -0.0395  0.0156
 2884TIP3   OH2 8594   1.050   2.322   5.558 -0.1872 -0.7553 -0.5351
 2884TIP3    H1 8595   0.962   2.315   5.596 -0.5838 -0.6490 -1.4232
 2884TIP3    H2 8596   1.043   2.392   5.494  0.4901 -0.9070 -0.7753
 2885TIP3   OH2 8597   2.332   4.976   6.352  0.3850  0.1404 -0.0233
 2885TIP3    H1 8598   2.421   5.008   6.342 -0.3665  1.6411 -2.6910
 2885TIP3    H2 8599   2.277   5.050   6.329 -1.4956 -1.9102 -2.6627
 2886TIP3   OH2 8600   3.690   0.952   6.485 -0.1280 -0.3182 -0.1745
 2886TIP3    H1 8601   3.646   1.019   6.538  1.3393  1.3233 -0.9317
 2886TIP3    H2 8602   3.748   0.907   6.546 -0.6989 -0.5218  0.2247
 2887TIP3   OH2 8603   3.453   4.927   2.231  0.3355  0.0017  0.1013
 2887TIP3    H1 8604   3.376   4.878   2.260  0.8242 -0.4837  0.6383
 2887TIP3    H2 8605   3.435   4.951   2.141 -0.7351  0.5101  0.4406
 2888TIP3   OH2 8606   6.769   2.454   6.132 -0.7173  0.1175  0.3532
 2888TIP3    H1 8607   6.766   2.364   6.100  1.4004 -0.4922  1.6686
 2888TIP3    H2 8608   6.849   2.491   6.094 -0.6164  0.8544  1.2387
 2889TIP3   OH2 8609   1.560   0.786   1.861 -0.2276  0.0034  0.3660
 2889TIP3    H1 8610   1.540   0.811   1.951  1.8898 -1.9810  1.4768
 2889TIP3    H2 8611   1.610   0.705   1.869  1.4706  0.6385 -2.4906
 2890TIP3   OH2 8612   0.213   5.805   6.135 -0.2628 -0.0008 -0.2045
 2890TIP3    H1 8613   0.219   5.835   6.226  1.5210 -4.0754  1.2486
 2890TIP3    H2 8614   0.301   5.817   6.100 -1.0055  1.8022 -1.6296
 2891TIP3   OH2 8615   7.980   6.172   6.304 -0.4799  0.0377  0.4128
 2891TIP3    H1 8616   7.975   6.260   6.341 -1.9634  0.0541  0.2319
 2891TIP3    H2 8617   7.895   6.134   6.322 -0.0806 -1.1390 -0.0939
 2892TIP3   OH2 8618   3.715   7.056   2.239  0.2889 -0.2003 -0.9118
 2892TIP3    H1 8619   3.676   7.067   2.326  1.4999  0.6451 -0.4493
 2892TIP3    H2 8620   3.805   7.086   2.249  0.8987 -1.4892 -2.0976
 2893TIP3   OH2 8621   7.407   0.386   1.261  0.1023  0.3485  0.3310
 2893TIP3    H1 8622   7.458   0.467   1.270  0.4964  0.5945 -2.8892
 2893TIP3    H2 8623   7.316   0.416   1.257 -0.0687  0.2497  2.3832
 2894TIP3   OH2 8624   4.158   5.488   4.838  0.0462  0.2921 -0.8291
 2894TIP3    H1 8625   4.218   5.428   4.794  0.6498  0.2932 -0.0358
 2894TIP3    H2 8626   4.142   5.557   4.774  1.5727  0.7310 -0.7763
 2895TIP3   OH2 8627   1.743   7.286   1.532  0.1908  0.5823  0.3476
 2895TIP3    H1 8628   1.715   7.267   1.442  1.8277 -0.4900  0.0229
 2895TIP3    H2 8629   1.708   7.373   1.550  0.0352  0.9283 -1.4266
 2896TIP3   OH2 8630   6.957   4.407   3.807  0.0403 -0.0507 -0.0875
 2896TIP3    H1 8631   7.013   4.436   3.735  1.2530 -1.7372  0.1055
 2896TIP3    H2 8632   6.896   4.346   3.766 -0.1962  0.0690  0.0842
 2897TIP3   OH2 8633   2.346   5.956   1.743 -0.4249  0.0642 -0.6162
 2897TIP3    H1 8634   2.254   5.963   1.719 -0.5814  0.0849 -0.0169
 2897TIP3    H2 8635   2.345   5.929   1.835  0.1104  3.7674  0.6218
 2898TIP3   OH2 8636   6.599   4.354   4.429  0.1943 -0.0082  0.0169
 2898TIP3    H1 8637   6.637   4.414   4.494  0.0968  2.1422 -1.7800
 2898TIP3    H2 8638   6.631   4.387   4.345  0.5617 -2.8557 -1.0917
 2899TIP3   OH2 8639   0.312   0.644   1.380 -0.1062  0.4552  0.9178
 2899TIP3    H1 8640   0.285   0.563   1.337  2.6468  0.5819 -1.3186
 2899TIP3    H2 8641   0.321   0.620   1.472 -0.6351 -1.4318  0.5308
 2900TIP3   OH2 8642   0.447   6.916   5.003 -0.3269  0.7150  0.0136
 2900TIP3    H1 8643   0.417   6.841   5.055 -0.8346  1.1256  0.3308
 2900TIP3    H2 8644   0.450   6.988   5.066 -0.5188  1.1171 -0.4348
 2901TIP3   OH2 8645   1.033   2.870   4.415 -0.4667  0.0526  0.2906
 2901TIP3    H1 8646   0.981   2.844   4.491  1.3016  0.1507  1.5737
 2901TIP3    H2 8647   1.048   2.788   4.367  0.7757 -0.4898  1.5725
 2902TIP3   OH2 8648   4.228   1.246   1.087 -0.6180 -0.2087 -0.1206
 2902TIP3    H1 8649   4.157   1.310   1.089  0.0852  0.5744  0.2508
 2902TIP3    H2 8650   4.308   1.298   1.080 -0.0704 -1.0792 -0.5908
 2903TIP3   OH2 8651   4.199   3.930   5.263  0.1877 -0.2794 -0.1600
 2903TIP3    H1 8652   4.222   3.927   5.170 -3.6120  0.0004 -1.2827
 2903TIP3    H2 8653   4.202   4.022   5.286  0.9879 -0.3341 -0.0302
 2904TIP3   OH2 8654   5.079   4.326   1.114 -0.1473 -0.3397  0.5503
 2904TIP3    H1 8655   5.166   4.290   1.099  1.0457  2.8447 -1.2280
 2904TIP3    H2 8656   5.024   4.285   1.048  0.5782 -0.6771  0.1441
 2905TIP3   OH2 8657   7.258   6.673   0.385  0.3482  0.1879 -0.2442
 2905TIP3    H1 8658   7.325   6.607   0.402 -0.3198 -0.8226 -1.3594
 2905TIP3    H2 8659   7.176   6.630   0.410 -0.1185  0.4841 -1.2267
 2906TIP3   OH2 8660   3.469   5.533   2.555 -0.2144  0.1329 -0.2350
 2906TIP3    H1 8661   3.538   5.476   2.589  0.8525  1.6131  0.1907
 2906TIP3    H2 8662   3.426   5.568   2.633 -0.2615  0.6020 -0.4643
 2907TIP3   OH2 8663   8.085   0.625   3.667 -0.2416 -0.3879 -0.7897
 2907TIP3    H1 8664   8.078   0.546   3.720  0.5045  0.1605  0.1488
 2907TIP3    H2 8665   8.009   0.678   3.692  0.0865 -0.1488 -0.2934
 2908TIP3   OH2 8666   4.688   5.666   0.373  0.1163 -0.0938 -0.8239
 2908TIP3    H1 8667   4.646   5.729   0.433  0.7436  0.4122 -0.9099
 2908TIP3    H2 8668   4.737   5.608   0.431 -0.5178 -0.5613 -0.7389
 2909TIP3   OH2 8669   7.961   3.631   1.812  0.5760 -0.3712  0.0106
 2909TIP3    H1 8670   7.993   3.546   1.841  0.3529 -1.6044 -2.9522
 2909TIP3    H2 8671   7.869   3.615   1.789 -0.0179  1.1773  1.1532
 2910TIP3   OH2 8672   6.168   1.140   3.724 -0.3860 -0.4396 -0.5952
 2910TIP3    H1 8673   6.103   1.208   3.743 -0.7221 -0.9678  0.2143
 2910TIP3    H2 8674   6.134   1.095   3.647 -0.7421 -0.4065 -0.4606
 2911TIP3   OH2 8675   3.586   1.153   4.779  0.2168 -0.1560 -0.3727
 2911TIP3    H1 8676   3.519   1.119   4.838 -0.3775  1.8223  0.1827
 2911TIP3    H2 8677   3.625   1.226   4.827  0.3171  0.9603 -2.0719
 2912TIP3   OH2 8678   7.747   5.297   3.936  0.1656 -0.1280 -0.8677
 2912TIP3    H1 8679   7.804   5.229   3.900 -0.6677 -1.0097 -0.5509
 2912TIP3    H2 8680   7.784   5.316   4.023  1.2774  0.9130 -1.5458
 2913TIP3   OH2 8681   6.888   6.944   3.666  0.7154  0.3296  0.0718
 2913TIP3    H1 8682   6.881   6.866   3.721 -1.3784  0.8598  0.6479
 2913TIP3    H2 8683   6.873   7.017   3.726  1.6404  1.1374 -0.6427
 2914TIP3   OH2 8684   2.532   3.740   4.590 -0.1978  0.4389  0.2224
 2914TIP3    H1 8685   2.624   3.727   4.610 -0.0028 -1.8833 -1.7423
 2914TIP3    H2 8686   2.486   3.675   4.642 -0.5605  0.4354 -0.0947
 2915TIP3   OH2 8687   6.424   7.038   4.236 -0.2106  0.1189  0.0154
 2915TIP3    H1 8688   6.404   7.070   4.323  0.0294 -0.9151  0.4651
 2915TIP3    H2 8689   6.491   7.098   4.203 -1.6000  1.5979 -0.1951
 2916TIP3   OH2 8690   2.770   1.724   5.549  0.0081 -0.0475 -0.2154
 2916TIP3    H1 8691   2.863   1.743   5.536  0.1302 -1.9560 -2.7910
 2916TIP3    H2 8692   2.767   1.630   5.567 -1.4685 -0.0961 -0.6137
 2917TIP3   OH2 8693   6.694   2.789   3.432 -0.4341  0.2103 -0.3042
 2917TIP3    H1 8694   6.773   2.834   3.401 -0.3713 -1.3546 -2.6381
 2917TIP3    H2 8695   6.637   2.784   3.355 -0.9792 -2.4798  0.1620
 2918TIP3   OH2 8696   0.596   5.439   2.102 -0.3900  0.7973  0.2778
 2918TIP3    H1 8697   0.663   5.508   2.097 -1.6846  2.1290  0.6296
 2918TIP3    H2 8698   0.631   5.377   2.166  0.4994  1.5025  0.5031
 2919TIP3   OH2 8699   4.402   7.546   3.526 -0.1503 -0.5763 -0.1808
 2919TIP3    H1 8700   4.394   7.641   3.531  1.7862 -0.3277 -0.8527
 2919TIP3    H2 8701   4.393   7.526   3.433  2.2607 -0.6688 -0.4601
 2920TIP3   OH2 8702   5.689   4.978   3.769 -0.5368  0.2869  0.1610
 2920TIP3    H1 8703   5.656   5.066   3.790 -1.7765 -0.2227  0.4212
 2920TIP3    H2 8704   5.763   4.966   3.830 -0.2644  1.1879  0.0343
 2921TIP3   OH2 8705   4.605   1.757   1.926  0.3335  0.0909  0.0849
 2921TIP3    H1 8706   4.624   1.739   1.834 -1.3341 -1.5744  0.0207
 2921TIP3    H2 8707   4.674   1.819   1.952  0.4534  1.1591 -2.4268
 2922TIP3   OH2 8708   6.446   5.390   1.493  0.2596  0.3824  0.3661
 2922TIP3    H1 8709   6.503   5.317   1.469 -0.3956  0.3477 -1.1932
 2922TIP3    H2 8710   6.458   5.454   1.423  0.2403  1.4529  1.3098
 2923TIP3   OH2 8711   1.175   3.256   5.362 -0.5287 -0.0872 -0.3374
 2923TIP3    H1 8712   1.251   3.303   5.327 -0.1140 -3.1304 -4.1645
 2923TIP3    H2 8713   1.106   3.271   5.297 -2.4296  0.3596  1.6656
 2924TIP3   OH2 8714   0.579   7.326   1.052 -0.0244 -0.1864  1.3504
 2924TIP3    H1 8715   0.573   7.315   0.957  1.7219  1.1193  1.0542
 2924TIP3    H2 8716   0.638   7.256   1.080  3.1605  2.0601  0.7763
 2925TIP3   OH2 8717   4.477   4.706   5.523 -0.1042  0.2911  0.0025
 2925TIP3    H1 8718   4.481   4.628   5.578  1.0174 -0.1217 -0.6342
 2925TIP3    H2 8719   4.504   4.676   5.436  1.4671  1.5863 -0.0155
 2926TIP3   OH2 8720   2.472   2.101   1.031 -0.9515  0.0563 -0.0164
 2926TIP3    H1 8721   2.407   2.170   1.046 -0.6284  0.9390 -2.3799
 2926TIP3    H2 8722   2.455   2.070   0.942  1.1131 -0.5110 -0.2631
 2927TIP3   OH2 8723   3.357   6.157   2.108 -0.0948 -0.0649  0.1257
 2927TIP3    H1 8724   3.326   6.133   2.195 -1.4073  1.3979  0.1081
 2927TIP3    H2 8725   3.447   6.187   2.121 -0.2934  0.1657  0.9849
 2928TIP3   OH2 8726   6.501   5.390   4.402  0.5857  0.1313 -0.2460
 2928TIP3    H1 8727   6.510   5.429   4.489 -2.5756 -2.9503  1.7262
 2928TIP3    H2 8728   6.565   5.319   4.401 -1.1324 -1.5325  0.8054
 2929TIP3   OH2 8729   7.429   3.639   6.428  0.3407 -0.0169  0.0538
 2929TIP3    H1 8730   7.442   3.670   6.338  0.8160  0.1959  0.1898
 2929TIP3    H2 8731   7.335   3.644   6.443  0.1604 -0.8713 -0.7258
 2930TIP3   OH2 8732   1.222   6.868   6.675  0.2103 -0.2733  0.4895
 2930TIP3    H1 8733   1.177   6.884   6.592 -1.4891 -3.4743  0.6246
 2930TIP3    H2 8734   1.169   6.914   6.740  0.3260  0.4883  0.0550
 2931TIP3   OH2 8735   4.610   5.620   2.360 -0.1150  0.5256  0.4652
 2931TIP3    H1 8736   4.625   5.534   2.400  1.4741  0.5493 -0.0241
 2931TIP3    H2 8737   4.517   5.619   2.336  0.0576 -1.3858 -0.2874
 2932TIP3   OH2 8738   3.555   4.511   3.751  0.4302 -0.3116 -0.7448
 2932TIP3    H1 8739   3.593   4.594   3.721 -0.2464 -0.2583 -1.4699
 2932TIP3    H2 8740   3.465   4.513   3.720 -0.7969  0.3613  2.4591
 2933TIP3   OH2 8741   6.625   2.590   3.005  0.4931  0.5119 -0.3823
 2933TIP3    H1 8742   6.707   2.575   2.957  1.3224  0.0408  1.1007
 2933TIP3    H2 8743   6.622   2.685   3.018  0.9716  0.5025 -0.1822
 2934TIP3   OH2 8744   0.973   4.631   1.903 -0.3798 -0.5034 -0.1196
 2934TIP3    H1 8745   1.039   4.603   1.967 -1.3956  0.3854  1.3793
 2934TIP3    H2 8746   0.898   4.573   1.919 -0.6236 -0.3110 -0.5533
 2935TIP3   OH2 8747   7.159   4.566   1.764  0.3396  0.0380  0.0822
 2935TIP3    H1 8748   7.133   4.481   1.726  0.8256  0.5801 -1.5549
 2935TIP3    H2 8749   7.210   4.543   1.841  2.9783 -1.3055 -1.9098
 2936TIP3   OH2 8750   1.149   4.805   6.033  0.6309  0.0113 -0.8567
 2936TIP3    H1 8751   1.125   4.777   5.945 -0.1781  0.2212 -0.7062
 2936TIP3    H2 8752   1.121   4.732   6.089 -0.4445  0.6153 -0.5888
 2937TIP3   OH2 8753   5.232   4.717   3.371 -0.1549 -0.2247 -0.4113
 2937TIP3    H1 8754   5.255   4.628   3.347  1.5492 -0.5058  1.8954
 2937TIP3    H2 8755   5.181   4.708   3.452 -1.3678  0.8564 -1.0039
 2938TIP3   OH2 8756   0.204   2.102   1.169 -0.1814  0.2970  0.5711
 2938TIP3    H1 8757   0.258   2.145   1.235  0.4822  1.0320 -0.4276
 2938TIP3    H2 8758   0.209   2.159   1.093 -0.8518 -0.5844 -0.1543
 2939TIP3   OH2 8759   6.252   6.819   1.224 -0.0180 -0.4724 -0.6490
 2939TIP3    H1 8760   6.341   6.795   1.248  0.7711  0.6385 -2.2992
 2939TIP3    H2 8761   6.250   6.914   1.231 -0.6703 -0.3789 -1.8747
 2940TIP3   OH2 8762   3.438   2.149   4.929 -0.5502 -0.0093 -0.1740
 2940TIP3    H1 8763   3.531   2.173   4.932 -0.5663  0.4706 -2.1933
 2940TIP3    H2 8764   3.392   2.233   4.927 -0.9227 -0.2209 -0.9615
 2941TIP3   OH2 8765   3.200   5.670   4.606  0.3090  0.1303  0.5881
 2941TIP3    H1 8766   3.203   5.691   4.513 -0.1757 -0.5908  0.4037
 2941TIP3    H2 8767   3.285   5.629   4.624 -0.7568 -2.6619 -0.2822
 2942TIP3   OH2 8768   2.165   0.794   2.395 -0.3115  0.5987  0.3303
 2942TIP3    H1 8769   2.073   0.818   2.403 -1.2112 -2.2153 -0.2339
 2942TIP3    H2 8770   2.192   0.770   2.484 -0.5195  0.2033  0.2879
 2943TIP3   OH2 8771   2.337   3.999   4.057 -0.1987  0.2320 -0.4411
 2943TIP3    H1 8772   2.344   4.083   4.103 -1.7314  0.5890 -0.8042
 2943TIP3    H2 8773   2.325   3.935   4.127  3.3997 -0.0974  0.0338
 2944TIP3   OH2 8774   0.298   1.601   4.092  0.4108 -0.6660 -0.3201
 2944TIP3    H1 8775   0.346   1.532   4.046  1.2686 -0.2434 -0.0896
 2944TIP3    H2 8776   0.321   1.588   4.184 -0.6127 -0.9805 -0.0976
 2945TIP3   OH2 8777   8.013   2.251   6.251 -0.3138 -0.1445  0.6213
 2945TIP3    H1 8778   7.919   2.247   6.269 -0.1012  1.7353  2.5795
 2945TIP3    H2 8779   8.051   2.285   6.332  1.9842 -0.1474 -0.3798
 2946TIP3   OH2 8780   2.848   6.865   1.758 -0.1560 -0.1906 -0.0447
 2946TIP3    H1 8781   2.770   6.829   1.717 -0.3707 -0.5009  0.6280
 2946TIP3    H2 8782   2.816   6.911   1.835  0.4199 -1.3866  0.9461
 2947TIP3   OH2 8783   6.698   4.407   4.164  0.1397 -0.0087  0.1284
 2947TIP3    H1 8784   6.772   4.462   4.137  1.3123 -1.1306  0.8944
 2947TIP3    H2 8785   6.631   4.422   4.098  0.2340  2.6404  0.5519
 2948TIP3   OH2 8786   3.642   2.265   0.602 -0.7484 -0.1441  0.0625
 2948TIP3    H1 8787   3.727   2.305   0.617 -1.0958  0.5213  0.3036
 2948TIP3    H2 8788   3.661   2.173   0.583  0.1496  0.3664 -1.6890
 2949TIP3   OH2 8789   1.818   7.820   3.385 -0.1599 -0.0261 -0.3084
 2949TIP3    H1 8790   1.772   7.859   3.459  0.4345 -1.0291  0.6294
 2949TIP3    H2 8791   1.878   7.757   3.425  1.6593  0.8567 -1.5047
 2950TIP3   OH2 8792   1.109   5.173   4.655  0.0938  0.1016  0.2027
 2950TIP3    H1 8793   1.075   5.262   4.660 -2.1642 -0.5966 -1.3446
 2950TIP3    H2 8794   1.051   5.121   4.710  0.0638 -0.7552 -0.6173
 2951TIP3   OH2 8795   0.549   1.839   2.802  0.2518 -0.5847  0.0294
 2951TIP3    H1 8796   0.531   1.798   2.886  1.4691 -1.0660  0.0674
 2951TIP3    H2 8797   0.472   1.895   2.786 -0.1009 -0.6593  1.3380
 2952TIP3   OH2 8798   3.200   5.965   1.217 -0.1720  0.2081 -0.4046
 2952TIP3    H1 8799   3.207   5.912   1.297 -2.4088 -0.4945 -0.6149
 2952TIP3    H2 8800   3.288   6.000   1.205  0.4218 -0.2502  1.9622
 2953TIP3   OH2 8801   3.129   0.162   0.748 -0.2382 -0.2230  0.5204
 2953TIP3    H1 8802   3.200   0.169   0.812  0.0951  0.9890  0.0451
 2953TIP3    H2 8803   3.050   0.187   0.796  0.1131  1.3794  0.3028
 2954TIP3   OH2 8804   6.748   2.603   4.366 -0.6460 -0.8553  0.0537
 2954TIP3    H1 8805   6.762   2.588   4.272  0.9100  2.3749 -0.3797
 2954TIP3    H2 8806   6.687   2.677   4.370  0.1468 -0.2357  1.5333
 2955TIP3   OH2 8807   6.605   5.173   6.196  0.3272 -0.1003 -0.0453
 2955TIP3    H1 8808   6.624   5.238   6.128 -1.2500  0.5999  0.1313
 2955TIP3    H2 8809   6.688   5.161   6.242  0.8206  1.2893 -0.5184
 2956TIP3   OH2 8810   7.198   6.744   3.918 -0.3390 -0.2840 -0.4121
 2956TIP3    H1 8811   7.111   6.746   3.876  0.0017 -0.1145 -1.1266
 2956TIP3    H2 8812   7.188   6.681   3.989 -0.7328 -1.1524 -1.2090
 2957TIP3   OH2 8813   4.305   3.043   4.834 -0.1209 -0.1885 -0.2287
 2957TIP3    H1 8814   4.227   3.013   4.880  0.4146 -1.7194 -0.2872
 2957TIP3    H2 8815   4.373   3.047   4.900 -0.1509  0.8375 -0.2429
 2958TIP3   OH2 8816   5.838   0.088   2.432 -0.4902  0.3611  0.0913
 2958TIP3    H1 8817   5.798   0.155   2.377  0.0256 -1.1094 -2.2038
 2958TIP3    H2 8818   5.926   0.120   2.449 -0.8632  1.1289  0.6967
 2959TIP3   OH2 8819   5.565   6.262   2.191  0.4353 -0.2621  0.5893
 2959TIP3    H1 8820   5.554   6.309   2.108  1.1762  0.6816  1.0140
 2959TIP3    H2 8821   5.502   6.302   2.250 -0.1142 -0.9564  0.4855
 2960TIP3   OH2 8822   5.884   6.041   1.588  0.6322 -0.6558 -0.1680
 2960TIP3    H1 8823   5.914   5.974   1.527  3.5986  1.2008 -1.0095
 2960TIP3    H2 8824   5.948   6.040   1.659  0.6437  1.0759 -0.0989
 2961TIP3   OH2 8825   5.630   1.850   5.324  0.8229  0.1215  0.3903
 2961TIP3    H1 8826   5.681   1.859   5.243  0.1374  2.4080  0.1560
 2961TIP3    H2 8827   5.692   1.816   5.388  1.7261 -0.4203 -0.7256
 2962TIP3   OH2 8828   7.680   4.357   5.591 -0.0288 -0.2785 -0.2425
 2962TIP3    H1 8829   7.753   4.391   5.538 -2.2740  1.5826 -2.3568
 2962TIP3    H2 8830   7.603   4.403   5.558 -1.9143 -0.5047  3.4004
 2963TIP3   OH2 8831   3.287   7.773   5.674 -0.0714  0.1102  0.3965
 2963TIP3    H1 8832   3.311   7.761   5.582 -0.5393  1.6949  0.0384
 2963TIP3    H2 8833   3.204   7.821   5.671 -0.4350 -0.4046  1.6512
 2964TIP3   OH2 8834   6.466   5.706   4.448  0.0940 -0.4315 -0.3896
 2964TIP3    H1 8835   6.421   5.705   4.364  0.0971 -2.9627 -0.4286
 2964TIP3    H2 8836   6.407   5.660   4.508 -0.3361  2.1106  1.3029
 2965TIP3   OH2 8837   4.228   2.145   1.387  0.1569 -0.2742 -0.1717
 2965TIP3    H1 8838   4.300   2.208   1.376  1.0375 -1.2174 -0.0549
 2965TIP3    H2 8839   4.156   2.181   1.335  1.6566 -0.7241 -2.7309
 2966TIP3   OH2 8840   3.017   7.015   2.079 -0.2191 -0.0392 -0.2787
 2966TIP3    H1 8841   3.065   7.060   2.009  0.7030 -0.5742 -0.0162
 2966TIP3    H2 8842   3.056   6.927   2.082 -1.8560 -0.8037 -0.6500
 2967TIP3   OH2 8843   5.642   3.325   5.810  0.3103  0.1240  0.8035
 2967TIP3    H1 8844   5.684   3.269   5.876  0.0036  0.7695  1.5631
 2967TIP3    H2 8845   5.624   3.407   5.856 -2.2481 -0.2869  0.6763
 2968TIP3   OH2 8846   1.390   3.198   4.137  0.0438  0.2144  0.0298
 2968TIP3    H1 8847   1.337   3.263   4.092  1.5570  0.8904 -0.8470
 2968TIP3    H2 8848   1.414   3.135   4.070 -0.7384 -0.8448  0.7063
 2969TIP3   OH2 8849   4.637   4.718   0.245 -0.5930  0.4138  0.1319
 2969TIP3    H1 8850   4.663   4.719   0.337 -0.9830  1.4908  0.2384
 2969TIP3    H2 8851   4.644   4.625   0.220  1.6850  0.3908  0.5989
 2970TIP3   OH2 8852   7.502   7.751   2.332 -0.3368  0.5814  0.0630
 2970TIP3    H1 8853   7.449   7.713   2.402 -0.9382 -0.2584 -0.8294
 2970TIP3    H2 8854   7.438   7.781   2.267  0.2671 -1.5349 -1.5927
 2971TIP3   OH2 8855   6.146   2.481   3.317 -0.6091  0.5794 -0.0658
 2971TIP3    H1 8856   6.168   2.518   3.232 -0.1476 -0.1981 -0.2988
 2971TIP3    H2 8857   6.069   2.427   3.301 -1.6842  1.9179  0.4035
 2972TIP3   OH2 8858   4.388   5.699   3.505  0.2242 -0.3394 -0.3825
 2972TIP3    H1 8859   4.463   5.752   3.530 -0.1917  0.1083 -0.0536
 2972TIP3    H2 8860   4.380   5.634   3.576 -0.5403  0.4988  0.3190
 2973TIP3   OH2 8861   0.576   5.782   2.614  0.2512 -0.2439  0.3433
 2973TIP3    H1 8862   0.615   5.865   2.584  0.4754 -1.0171 -1.6173
 2973TIP3    H2 8863   0.565   5.730   2.535 -0.4002 -1.9077  1.4665
 2974TIP3   OH2 8864   3.054   5.670   6.415  0.4202 -0.1357 -0.0262
 2974TIP3    H1 8865   3.031   5.738   6.351  0.0350 -0.2418 -0.0000
 2974TIP3    H2 8866   3.146   5.688   6.436  0.4669  0.0727 -0.3966
 2975TIP3   OH2 8867   7.063   5.402   0.674  0.0738  0.0611  0.2975
 2975TIP3    H1 8868   7.065   5.451   0.592 -2.9999 -0.2835 -0.0907
 2975TIP3    H2 8869   7.074   5.311   0.647 -0.2295  0.0074  0.3581
 2976TIP3   OH2 8870   6.661   7.484   3.082 -0.0703 -0.7445  0.1438
 2976TIP3    H1 8871   6.654   7.483   2.986 -1.0789 -0.7913  0.2086
 2976TIP3    H2 8872   6.723   7.554   3.101 -0.4148 -0.2540 -0.5093
 2977TIP3   OH2 8873   7.263   0.636   2.693  0.2895  0.0426 -0.0716
 2977TIP3    H1 8874   7.327   0.585   2.743  1.1283  1.4359  0.3434
 2977TIP3    H2 8875   7.316   0.703   2.648 -0.8839  1.4255  0.5256
 2978TIP3   OH2 8876   4.043   3.602   3.334  0.2343 -0.5265 -0.2765
 2978TIP3    H1 8877   4.027   3.522   3.283 -4.2284 -0.1429  0.1519
 2978TIP3    H2 8878   4.057   3.571   3.423  0.1974 -0.8584 -0.3842
 2979TIP3   OH2 8879   7.855   2.314   3.974 -0.2067  0.0860 -0.2142
 2979TIP3    H1 8880   7.766   2.321   3.938  0.3420  2.2417 -1.3372
 2979TIP3    H2 8881   7.912   2.318   3.898  0.9107  2.0291  0.6435
 2980TIP3   OH2 8882   2.207   5.186   1.634  0.0782 -0.6542  0.2387
 2980TIP3    H1 8883   2.143   5.175   1.564  1.2994 -0.3888 -0.9582
 2980TIP3    H2 8884   2.291   5.164   1.594  1.3250  2.9277  0.5330
 2981TIP3   OH2 8885   7.841   7.318   6.689  0.2428 -0.1444  0.4610
 2981TIP3    H1 8886   7.822   7.236   6.644 -1.8599 -0.0980  1.1757
 2981TIP3    H2 8887   7.841   7.384   6.620 -1.6358 -0.2579  0.3207
 2982TIP3   OH2 8888   2.821   5.918   1.605 -0.2762 -0.0468  0.2505
 2982TIP3    H1 8889   2.794   5.882   1.690  0.1593  1.1255  0.9128
 2982TIP3    H2 8890   2.744   5.907   1.549 -0.6385 -0.6584  0.8470
 2983TIP3   OH2 8891   3.704   4.949   2.721 -0.6532  0.2527  0.2679
 2983TIP3    H1 8892   3.694   4.883   2.790  0.5728 -0.9880 -0.6756
 2983TIP3    H2 8893   3.683   4.902   2.640 -0.4018  1.2101 -0.3648
 2984TIP3   OH2 8894   4.358   4.595   4.468 -0.4704  0.5239  0.2159
 2984TIP3    H1 8895   4.360   4.681   4.427 -0.0467  0.8534  0.9145
 2984TIP3    H2 8896   4.435   4.593   4.524  1.0331 -1.2956 -1.7271
 2985TIP3   OH2 8897   4.967   2.898   6.311  0.4809 -0.2827 -0.4346
 2985TIP3    H1 8898   4.964   2.975   6.367  1.6798 -0.3939 -0.1981
 2985TIP3    H2 8899   4.890   2.847   6.335 -0.4553  0.9406 -0.7554
 2986TIP3   OH2 8900   4.087   3.720   5.933 -0.6192  0.8128 -0.0257
 2986TIP3    H1 8901   4.042   3.735   5.850 -1.0157  2.5086  0.4515
 2986TIP3    H2 8902   4.029   3.662   5.983 -1.3844  1.4560 -0.1498
 2987TIP3   OH2 8903   2.261   5.653   2.955  0.4360  0.1373  0.5603
 2987TIP3    H1 8904   2.193   5.672   3.019 -0.4608 -1.8280  0.2771
 2987TIP3    H2 8905   2.331   5.613   3.006  0.8370  0.9303  0.6530
 2988TIP3   OH2 8906   6.012   2.565   4.407  0.5549 -0.3189  0.1495
 2988TIP3    H1 8907   5.966   2.480   4.404 -1.7446  0.8723 -1.6129
 2988TIP3    H2 8908   6.021   2.583   4.500 -0.3124 -1.8027  0.5737
 2989TIP3   OH2 8909   3.521   6.394   0.604 -0.0464 -0.0651  0.3488
 2989TIP3    H1 8910   3.503   6.300   0.595 -0.6352  0.1715 -1.3819
 2989TIP3    H2 8911   3.545   6.422   0.516 -0.9242  1.6113  0.5987
 2990TIP3   OH2 8912   1.803   6.581   1.591 -0.2593  0.5233  0.0836
 2990TIP3    H1 8913   1.714   6.615   1.582 -0.3183  0.2699 -0.2681
 2990TIP3    H2 8914   1.854   6.657   1.622 -0.6620  0.5807  0.6262
 2991TIP3   OH2 8915   2.474   3.956   1.819 -0.7144  0.1942 -0.2207
 2991TIP3    H1 8916   2.469   3.939   1.913  0.8891 -2.0808 -0.4832
 2991TIP3    H2 8917   2.566   3.975   1.803 -1.0483  0.9920 -1.2933
 2992TIP3   OH2 8918   3.529   0.897   3.349  0.4619  0.0812  0.4962
 2992TIP3    H1 8919   3.548   0.971   3.407  0.0791  0.1263  0.5635
 2992TIP3    H2 8920   3.556   0.927   3.262  1.1879 -0.0438  0.6680
 2993TIP3   OH2 8921   2.939   7.564   4.668 -0.3219  0.0306  0.2961
 2993TIP3    H1 8922   2.924   7.534   4.757  1.1827 -1.0181  0.2377
 2993TIP3    H2 8923   3.026   7.604   4.670 -0.3251  0.1259 -0.6690
 2994TIP3   OH2 8924   5.997   0.741   4.428 -0.1949  0.5335 -0.6431
 2994TIP3    H1 8925   5.966   0.829   4.446 -2.8438 -0.6735  1.3379
 2994TIP3    H2 8926   6.068   0.727   4.491 -1.8539  0.2592  1.2526
 2995TIP3   OH2 8927   1.333   2.434   6.671 -0.1143 -0.0901  0.0750
 2995TIP3    H1 8928   1.403   2.402   6.614  0.2114  1.7393 -0.6103
 2995TIP3    H2 8929   1.369   2.512   6.712 -1.2529  0.0470  0.8708
 2996TIP3   OH2 8930   5.488   0.506   2.782 -0.1184 -0.5436 -0.0447
 2996TIP3    H1 8931   5.460   0.437   2.722  0.9959  0.5028 -1.8346
 2996TIP3    H2 8932   5.421   0.573   2.775  0.3904 -0.0966 -0.7107
 2997TIP3   OH2 8933   0.953   5.436   1.136  0.3384 -0.4191 -0.9924
 2997TIP3    H1 8934   0.972   5.482   1.055 -2.2422  0.6142 -1.1268
 2997TIP3    H2 8935   0.905   5.357   1.107  1.1806 -1.1132 -0.5445
 2998TIP3   OH2 8936   5.416   2.520   6.521  0.4016 -0.0667  0.5387
 2998TIP3    H1 8937   5.477   2.539   6.449  1.3206  0.8379  1.5226
 2998TIP3    H2 8938   5.336   2.490   6.477 -0.5172  4.1794 -1.1458
 2999TIP3   OH2 8939   3.042   7.325   0.729 -0.1674 -0.2573  0.0379
 2999TIP3    H1 8940   3.044   7.359   0.819  0.1981  1.7540 -0.6795
 2999TIP3    H2 8941   2.972   7.375   0.686  0.9781  0.2476 -1.3092
 3000TIP3   OH2 8942   0.191   3.436   4.218  0.2289 -0.3244 -0.4432
 3000TIP3    H1 8943   0.285   3.422   4.207  0.4933  1.0555 -0.2057
 3000TIP3    H2 8944   0.185   3.507   4.282 -0.9944 -0.8105  0.0133
 3001TIP3   OH2 8945   5.703   5.022   1.240  0.8244  0.1479 -0.2207
 3001TIP3    H1 8946   5.620   5.046   1.199  0.8890  1.7959  0.5419
 3001TIP3    H2 8947   5.691   5.039   1.333  1.8137 -0.1922 -0.0135
 3002TIP3   OH2 8948   5.479   2.532   1.842 -0.1032 -0.2688  0.0855
 3002TIP3    H1 8949   5.468   2.561   1.752  3.0685 -0.6733 -0.5367
 3002TIP3    H2 8950   5.479   2.437   1.838  0.7586 -0.2919  0.3826
 3003TIP3   OH2 8951   0.314   7.205   4.343 -0.0430 -0.5156  0.3459
 3003TIP3    H1 8952   0.335   7.231   4.253 -0.8015  0.1070  0.3391
 3003TIP3    H2 8953   0.367   7.262   4.398 -0.9606  0.3931  0.3136
 3004TIP3   OH2 8954   1.069   2.096   2.353  0.5411 -0.0064 -0.4090
 3004TIP3    H1 8955   1.050   2.132   2.440 -0.6920  0.3183 -0.7909
 3004TIP3    H2 8956   1.025   2.155   2.292 -1.2437 -1.8805 -1.0818
 3005TIP3   OH2 8957   5.568   1.936   6.037  0.1119  0.3446 -0.5133
 3005TIP3    H1 8958   5.550   1.896   6.122 -1.2259  1.1526 -0.3820
 3005TIP3    H2 8959   5.661   1.958   6.039 -0.3573  2.5695  1.7377
 3006TIP3   OH2 8960   1.292   6.935   3.612  0.8582  0.0578  0.1152
 3006TIP3    H1 8961   1.258   7.014   3.653  2.1365  1.3837 -1.2840
 3006TIP3    H2 8962   1.299   6.872   3.685 -0.3936  1.1234  1.2087
 3007TIP3   OH2 8963   4.599   3.103   4.052  0.1003  0.0042  0.6057
 3007TIP3    H1 8964   4.659   3.028   4.054  0.2014  0.0604 -0.0445
 3007TIP3    H2 8965   4.514   3.065   4.031  0.3236  0.1652 -0.6575
 3008TIP3   OH2 8966   4.358   2.913   2.856  0.9933  0.3067 -0.2546
 3008TIP3    H1 8967   4.375   2.840   2.917 -0.5026  0.7439  0.7569
 3008TIP3    H2 8968   4.299   2.876   2.790 -1.9807  1.1311  1.7304
 3009TIP3   OH2 8969   2.171   0.688   6.042  0.5797 -0.2484  0.6717
 3009TIP3    H1 8970   2.244   0.750   6.040  0.2844  0.1783  1.8852
 3009TIP3    H2 8971   2.176   0.649   6.130  0.7134 -1.9123 -0.0375
 3010TIP3   OH2 8972   1.960   6.815   1.650 -0.0397  0.1818 -0.3063
 3010TIP3    H1 8973   1.927   6.901   1.622  0.9776  1.5159  2.2844
 3010TIP3    H2 8974   2.043   6.805   1.602  0.2872  1.0969  0.0487
 3011TIP3   OH2 8975   3.095   7.549   6.325  0.0943 -0.0943 -0.6835
 3011TIP3    H1 8976   3.179   7.558   6.369 -0.1461  1.3248 -0.4759
 3011TIP3    H2 8977   3.043   7.494   6.384 -0.0908  1.4545  0.6374
 3012TIP3   OH2 8978   2.845   6.680   2.625  0.6022 -0.0715  0.2005
 3012TIP3    H1 8979   2.856   6.632   2.707  0.3540  0.7878  0.7378
 3012TIP3    H2 8980   2.899   6.632   2.562  1.3461 -0.3288  1.0244
 3013TIP3   OH2 8981   1.963   6.408   0.559 -0.1231  0.2587  0.2444
 3013TIP3    H1 8982   1.958   6.392   0.653  0.1224 -1.3691  0.0062
 3013TIP3    H2 8983   2.051   6.443   0.546 -0.0641  0.2413  0.5777
 3014TIP3   OH2 8984   2.436   4.193   5.824  0.2629 -0.2639 -0.3113
 3014TIP3    H1 8985   2.372   4.193   5.753  0.7599 -3.1746 -0.8911
 3014TIP3    H2 8986   2.385   4.171   5.902  0.3831 -1.8635 -0.6498
 3015TIP3   OH2 8987   2.749   0.508   4.938  0.0775 -0.0530  0.5311
 3015TIP3    H1 8988   2.660   0.490   4.969 -0.2097 -1.2576 -0.8951
 3015TIP3    H2 8989   2.770   0.595   4.973 -1.0175 -0.4487  2.2537
 3016TIP3   OH2 8990   1.381   1.546   4.535 -0.0075  0.3946  0.6102
 3016TIP3    H1 8991   1.425   1.506   4.610  1.1231 -0.7680 -0.6134
 3016TIP3    H2 8992   1.449   1.596   4.490 -0.0805 -0.7438 -0.8522
 3017TIP3   OH2 8993   1.549   7.193   4.708 -0.0042 -0.1145  0.0253
 3017TIP3    H1 8994   1.582   7.236   4.629 -0.4792  0.8545  0.3276
 3017TIP3    H2 8995   1.454   7.187   4.694  0.0621 -1.1607 -0.0412
 3018TIP3   OH2 8996   0.075   5.002   3.151 -0.2377 -0.2767  0.0689
 3018TIP3    H1 8997   0.115   5.078   3.195 -0.9401 -1.0246  2.1114
 3018TIP3    H2 8998  -0.012   4.996   3.191 -0.3166 -1.9379 -0.3259
 3019TIP3   OH2 8999   3.802   5.017   2.197  0.5961 -0.3326  0.3791
 3019TIP3    H1 9000   3.736   4.949   2.210 -0.0128  0.6563  3.3215
 3019TIP3    H2 9001   3.757   5.084   2.145 -0.1625 -0.4254  0.8979
 3020TIP3   OH2 9002   0.276   3.545   5.273 -0.3166  0.1747  0.5294
 3020TIP3    H1 9003   0.293   3.615   5.210 -2.4078 -1.6319 -2.2614
 3020TIP3    H2 9004   0.321   3.468   5.236 -1.0691 -0.8105  1.5949
 3021TIP3   OH2 9005   3.464   5.231   0.982 -0.0624  0.0919  0.5554
 3021TIP3    H1 9006   3.369   5.238   0.985 -0.0026  0.9599  0.7646
 3021TIP3    H2 9007   3.481   5.137   0.973 -0.9453 -0.0111 -0.1819
 3022TIP3   OH2 9008   4.790   6.599   6.290 -0.4590  0.8743 -0.0146
 3022TIP3    H1 9009   4.819   6.675   6.240 -0.8983  0.5229 -0.8243
 3022TIP3    H2 9010   4.822   6.615   6.379  0.2245  1.5745 -0.3712
 3023TIP3   OH2 9011   6.933   2.565   2.964  0.1946  0.0616  0.0768
 3023TIP3    H1 9012   6.899   2.478   2.986 -1.1326  0.6378  0.4218
 3023TIP3    H2 9013   6.912   2.575   2.871  1.1165 -0.3051 -0.1848
 3024TIP3   OH2 9014   3.568   1.067   4.093 -0.1033  0.2925 -0.5567
 3024TIP3    H1 9015   3.481   1.086   4.127 -0.4197 -0.2766 -1.0287
 3024TIP3    H2 9016   3.628   1.102   4.159 -0.6581  1.7994 -0.7981
 3025TIP3   OH2 9017   5.781   4.208   0.724 -0.6316 -0.0763 -0.2595
 3025TIP3    H1 9018   5.847   4.192   0.657  0.2031 -0.6811  0.6714
 3025TIP3    H2 9019   5.822   4.270   0.784 -1.3735  0.4758 -0.3025
 3026TIP3   OH2 9020   2.147   1.098   3.934  0.3446 -1.1109 -0.3087
 3026TIP3    H1 9021   2.211   1.043   3.887 -0.0002  0.3177 -2.6504
 3026TIP3    H2 9022   2.199   1.172   3.967 -0.0945  0.8431 -3.4999
 3027TIP3   OH2 9023   7.723   1.760   3.421  0.4082 -0.0907  0.5301
 3027TIP3    H1 9024   7.631   1.785   3.434  0.7044  0.7899  1.0323
 3027TIP3    H2 9025   7.741   1.700   3.494  1.2854  2.7256  2.7968
 3028TIP3   OH2 9026   4.776   0.723   3.785  0.1151  0.2302 -0.0241
 3028TIP3    H1 9027   4.857   0.677   3.763 -1.0881 -2.5776  0.8260
 3028TIP3    H2 9028   4.714   0.694   3.717 -1.0604 -0.6772  1.3661
 3029TIP3   OH2 9029   7.129   3.983   3.865 -0.3564 -0.3535  0.2104
 3029TIP3    H1 9030   7.180   3.913   3.906 -1.3963 -1.3213 -0.1042
 3029TIP3    H2 9031   7.161   3.988   3.776  0.4686  0.3325  0.5315
 3030TIP3   OH2 9032   6.404   7.258   1.358 -0.9522 -0.4360  0.2488
 3030TIP3    H1 9033   6.450   7.230   1.279  1.0819 -0.0907  1.2361
 3030TIP3    H2 9034   6.416   7.185   1.419 -0.1037  0.4012  1.1203
 3031TIP3   OH2 9035   2.805   3.813   0.726  0.1702 -0.1439 -0.0869
 3031TIP3    H1 9036   2.720   3.847   0.700 -0.1394 -1.8600 -1.5208
 3031TIP3    H2 9037   2.801   3.806   0.822 -0.8200  0.9476 -0.0358
 3032TIP3   OH2 9038   7.156   0.078   2.649  0.7429 -0.0175  0.5473
 3032TIP3    H1 9039   7.244   0.099   2.616  0.7268  0.6795  0.9327
 3032TIP3    H2 9040   7.164  -0.012   2.681  0.4870 -1.1551 -2.2854
 3033TIP3   OH2 9041   4.575   2.780   5.146 -0.4608  0.6465  0.0188
 3033TIP3    H1 9042   4.647   2.803   5.205  1.6435 -0.0785 -2.0926
 3033TIP3    H2 9043   4.502   2.834   5.175  0.7254  0.9950  2.6513
 3034TIP3   OH2 9044   6.201   1.408   2.955 -0.1506  0.5369 -0.1845
 3034TIP3    H1 9045   6.213   1.503   2.957 -0.1996  0.5818 -1.3518
 3034TIP3    H2 9046   6.254   1.379   2.881 -0.0347 -0.3685  0.2448
 3035TIP3   OH2 9047   2.519   2.127   2.448  0.2351 -0.4560 -0.5532
 3035TIP3    H1 9048   2.557   2.100   2.365 -0.1359 -2.4342 -0.1169
 3035TIP3    H2 9049   2.546   2.060   2.511 -0.5420  0.3122  0.6543
 3036TIP3   OH2 9050   3.967   2.592   3.084 -0.0679 -1.1962  0.0496
 3036TIP3    H1 9051   3.877   2.609   3.113 -0.1257 -0.3703 -0.5694
 3036TIP3    H2 9052   3.998   2.677   3.052  0.7264 -1.6066 -0.2894
 3037TIP3   OH2 9053   3.690   6.540   1.903  0.1865 -0.1647 -0.5634
 3037TIP3    H1 9054   3.686   6.636   1.901 -0.2806 -0.1951 -1.4421
 3037TIP3    H2 9055   3.784   6.521   1.906  0.3245  0.3178 -1.4337
 3038TIP3   OH2 9056   4.300   6.089   5.269  0.0638 -0.2092  0.1231
 3038TIP3    H1 9057   4.281   6.182   5.279 -1.1958 -0.5918  1.6367
 3038TIP3    H2 9058   4.384   6.076   5.313 -0.0631  0.1025  0.4541
 3039TIP3   OH2 9059   5.722   7.296   4.774 -0.1938 -0.2078 -0.3796
 3039TIP3    H1 9060   5.745   7.354   4.846  1.1402  0.8672 -1.6256
 3039TIP3    H2 9061   5.701   7.355   4.701  0.1422 -1.2748 -1.3680
 3040TIP3   OH2 9062   8.082   6.500   0.865  0.1913 -0.6140  0.1680
 3040TIP3    H1 9063   8.041   6.581   0.834  0.4586 -0.2528  0.7467
 3040TIP3    H2 9064   8.080   6.442   0.790 -3.3119 -1.3765  0.6642
 3041TIP3   OH2 9065   7.785   5.286   0.804  0.6702  0.5742  0.0175
 3041TIP3    H1 9066   7.800   5.200   0.842 -0.8698 -0.6086 -1.8318
 3041TIP3    H2 9067   7.818   5.278   0.714 -0.4221  1.5606 -0.4934
 3042TIP3   OH2 9068   1.704   4.443   1.324  0.3477  0.3774 -0.4900
 3042TIP3    H1 9069   1.715   4.368   1.382 -0.1466 -0.2061 -1.1205
 3042TIP3    H2 9070   1.768   4.507   1.355  0.8834 -0.3560 -0.0218
 3043TIP3   OH2 9071   4.850   7.475   4.757 -0.0100  0.0123  0.4274
 3043TIP3    H1 9072   4.833   7.437   4.671  0.0567  0.7850  0.0661
 3043TIP3    H2 9073   4.765   7.479   4.800  0.2629 -2.7360  1.4264
 3044TIP3   OH2 9074   0.126   1.424   1.122  0.0516  0.2440  0.4346
 3044TIP3    H1 9075   0.207   1.472   1.108  1.3278 -2.1975 -1.1995
 3044TIP3    H2 9076   0.138   1.381   1.207 -1.1009  2.6662  1.9069
 3045TIP3   OH2 9077   8.053   4.458   5.405 -0.4392 -0.0037  0.2109
 3045TIP3    H1 9078   8.053   4.503   5.490 -0.3831 -0.1418  0.2838
 3045TIP3    H2 9079   8.114   4.509   5.352 -1.1272  0.6034 -0.0263
 3046TIP3   OH2 9080   5.856   5.517   5.740 -0.0651  0.0801 -0.7756
 3046TIP3    H1 9081   5.930   5.566   5.773 -0.1165 -0.5265  0.2693
 3046TIP3    H2 9082   5.831   5.563   5.659  1.1186  0.5787 -0.8796
 3047TIP3   OH2 9083   1.807   7.793   0.492 -0.2570 -0.2776  0.4974
 3047TIP3    H1 9084   1.734   7.732   0.504 -0.0433 -0.6971 -0.3174
 3047TIP3    H2 9085   1.768   7.879   0.508 -1.2921 -0.3698 -1.3322
 3048TIP3   OH2 9086   4.755   7.234   6.170 -0.3685 -0.7656  0.1651
 3048TIP3    H1 9087   4.822   7.238   6.102 -0.0657 -0.3705  0.4769
 3048TIP3    H2 9088   4.781   7.160   6.225 -1.6473 -2.2784 -1.1924
 3049TIP3   OH2 9089   2.564   7.012   5.127  0.0095  0.2698 -0.0959
 3049TIP3    H1 9090   2.584   7.105   5.113 -0.5032  0.5176  0.7608
 3049TIP3    H2 9091   2.617   6.987   5.203  1.2253 -0.5258 -1.1612
 3050TIP3   OH2 9092   1.419   1.370   5.490 -0.1006 -0.1984 -0.1607
 3050TIP3    H1 9093   1.456   1.392   5.404  2.4594 -1.3212  0.5572
 3050TIP3    H2 9094   1.388   1.279   5.480 -2.6036  0.6239 -0.6619
 3051TIP3   OH2 9095   4.278   5.259   1.863  0.3348  0.2754  0.2012
 3051TIP3    H1 9096   4.266   5.333   1.803  0.4384  0.6648  0.6532
 3051TIP3    H2 9097   4.305   5.299   1.945  2.2121 -0.3821 -0.0470
 3052TIP3   OH2 9098   4.558   0.352   2.534  0.1234 -0.5376  0.2286
 3052TIP3    H1 9099   4.545   0.447   2.530  0.1246 -0.5698 -1.7442
 3052TIP3    H2 9100   4.650   0.341   2.556 -0.0965 -0.1065  1.4046
 3053TIP3   OH2 9101   7.756   0.203   6.011 -0.0701 -0.0808  0.9072
 3053TIP3    H1 9102   7.731   0.150   6.087  1.7647  1.3294  2.6079
 3053TIP3    H2 9103   7.849   0.218   6.022 -0.4979  3.5636  0.6189
 3054TIP3   OH2 9104   5.854   7.442   3.989 -0.2055  0.1495  0.3526
 3054TIP3    H1 9105   5.853   7.346   3.990  0.4084  0.1336  1.1834
 3054TIP3    H2 9106   5.777   7.467   4.040 -0.4428  0.0967  0.0181
 3055TIP3   OH2 9107   6.903   2.912   4.296 -0.1811 -0.4580  0.1413
 3055TIP3    H1 9108   6.895   2.996   4.250  0.0541  0.4769  1.7413
 3055TIP3    H2 9109   6.951   2.933   4.376  1.4515 -2.4518 -0.2303
 3056TIP3   OH2 9110   3.169   2.039   1.693 -0.3541  0.2787 -0.2013
 3056TIP3    H1 9111   3.098   1.980   1.720 -0.4378  0.5658  0.2203
 3056TIP3    H2 9112   3.131   2.091   1.623  0.3201 -1.4820 -1.9653
 3057TIP3   OH2 9113   8.174   5.546   1.195  0.2979  0.1023 -0.2526
 3057TIP3    H1 9114   8.206   5.617   1.140  0.4715  1.3803  1.3938
 3057TIP3    H2 9115   8.089   5.577   1.227  1.5732  0.9759  2.7297
 3058TIP3   OH2 9116   0.452   2.754   1.607 -0.6788 -0.1410  0.5992
 3058TIP3    H1 9117   0.376   2.740   1.551 -0.2584 -0.1964  0.0316
 3058TIP3    H2 9118   0.525   2.764   1.546 -0.5097  1.7176  1.0704
 3059TIP3   OH2 9119   7.832   7.054   2.271  0.3887 -0.3416 -0.1745
 3059TIP3    H1 9120   7.906   6.995   2.287 -0.7425 -2.1027 -1.1022
 3059TIP3    H2 9121   7.793   7.068   2.357 -0.0892 -2.0611 -0.0728
 3060TIP3   OH2 9122   7.400   5.978   3.979 -0.2756 -0.6196 -0.1569
 3060TIP3    H1 9123   7.367   5.917   4.046  2.2855 -1.7675  0.1935
 3060TIP3    H2 9124   7.465   6.031   4.025  2.5720 -2.3543 -1.8812
 3061TIP3   OH2 9125   6.748   7.259   3.544 -0.4645 -0.2634  0.5162
 3061TIP3    H1 9126   6.712   7.180   3.585  2.8246 -2.4920 -0.5188
 3061TIP3    H2 9127   6.732   7.247   3.451  0.7331 -0.0815  0.2824
 3062TIP3   OH2 9128   5.201   6.172   4.875 -0.2527 -0.0011 -0.2183
 3062TIP3    H1 9129   5.137   6.210   4.814 -1.2415  0.2699  0.9398
 3062TIP3    H2 9130   5.270   6.238   4.881 -0.7036  0.4787 -0.1916
 3063TIP3   OH2 9131   7.080   0.418   5.471 -0.3275 -0.4148  0.9599
 3063TIP3    H1 9132   7.043   0.356   5.534 -0.4337  0.4941  1.8308
 3063TIP3    H2 9133   7.045   0.503   5.499 -2.1902 -0.2129 -1.6733
 3064TIP3   OH2 9134   3.372   3.822   6.698 -0.2014  0.3226 -0.2424
 3064TIP3    H1 9135   3.319   3.902   6.691  1.8883  1.9284  1.0893
 3064TIP3    H2 9136   3.426   3.835   6.776  0.8421 -2.0264 -0.4803
 3065TIP3   OH2 9137   5.262   6.124   5.721  0.3411  0.2223  0.1357
 3065TIP3    H1 9138   5.358   6.124   5.728  0.4772  0.7990 -1.3545
 3065TIP3    H2 9139   5.242   6.047   5.668 -0.1993 -0.9651  1.9726
 3066TIP3   OH2 9140   7.513   2.642   2.024  0.2693  1.1854  0.3405
 3066TIP3    H1 9141   7.582   2.676   2.081 -0.5887  0.9778  1.5638
 3066TIP3    H2 9142   7.475   2.719   1.982  0.9602  1.3369 -0.0167
 3067TIP3   OH2 9143   1.543   1.325   5.759  0.0418 -0.0758 -0.2020
 3067TIP3    H1 9144   1.546   1.365   5.672 -1.4225 -1.3184 -0.8656
 3067TIP3    H2 9145   1.593   1.243   5.749  2.1964  1.0010  0.8922
 3068TIP3   OH2 9146   3.309   2.021   4.014  0.3233  0.0945  0.4653
 3068TIP3    H1 9147   3.329   2.008   4.106 -0.5674 -0.7334  0.5468
 3068TIP3    H2 9148   3.393   2.005   3.969  0.8783  0.9861  1.1448
 3069TIP3   OH2 9149   8.102   3.514   5.021 -0.2214  0.0307 -0.5770
 3069TIP3    H1 9150   8.042   3.459   4.971 -0.4951 -0.8146  0.6343
 3069TIP3    H2 9151   8.056   3.531   5.103  0.9190 -0.0764  0.1091
 3070TIP3   OH2 9152   8.227   1.964   1.157  0.1414 -0.0610 -0.2065
 3070TIP3    H1 9153   8.263   1.910   1.087  0.7966 -1.0448  0.8502
 3070TIP3    H2 9154   8.299   2.025   1.180  0.3245 -0.4646  0.3222
 3071TIP3   OH2 9155   2.750   1.593   1.667  0.1853 -0.0572 -0.5131
 3071TIP3    H1 9156   2.721   1.678   1.700  0.7317 -0.1067  0.1243
 3071TIP3    H2 9157   2.792   1.551   1.742 -0.6938 -1.1885 -0.6088
 3072TIP3   OH2 9158   1.112   4.829   6.683  0.0415 -0.4997  0.0151
 3072TIP3    H1 9159   1.119   4.924   6.687  0.4126 -0.4738 -0.9740
 3072TIP3    H2 9160   1.137   4.807   6.593 -0.1050 -1.5246  0.2156
 3073TIP3   OH2 9161   7.201   4.780   1.578  0.1120 -0.0267  0.5130
 3073TIP3    H1 9162   7.213   4.844   1.648 -1.2019  0.7682  0.0518
 3073TIP3    H2 9163   7.211   4.695   1.621 -0.4934  0.4524  1.6314
 3074TIP3   OH2 9164   3.397   5.262   3.170  0.2553  0.2945 -0.2231
 3074TIP3    H1 9165   3.440   5.177   3.165  0.3766  0.3567 -0.2273
 3074TIP3    H2 9166   3.406   5.288   3.262  0.5786  0.4920 -0.3100
 3075TIP3   OH2 9167   1.748   3.529   3.817 -0.1980  0.3658  0.0303
 3075TIP3    H1 9168   1.741   3.497   3.727  0.8396 -0.2790  0.1661
 3075TIP3    H2 9169   1.659   3.520   3.852 -0.6540  0.7942 -0.9710
 3076TIP3   OH2 9170   2.080   5.069   0.249 -0.3323  0.2546  0.6850
 3076TIP3    H1 9171   2.006   5.025   0.293 -0.6051  1.6939  1.7428
 3076TIP3    H2 9172   2.124   5.118   0.319  1.2601 -0.0657 -0.0574
 3077TIP3   OH2 9173   4.753   7.614   4.366 -1.1425  0.3371 -0.3636
 3077TIP3    H1 9174   4.811   7.553   4.412  0.0165  0.7546 -1.2404
 3077TIP3    H2 9175   4.749   7.582   4.276 -0.7313  1.3903 -0.7738
 3078TIP3   OH2 9176   5.630   7.776   2.568  0.3498 -0.1101 -0.3927
 3078TIP3    H1 9177   5.645   7.847   2.506 -0.7086  0.0785 -0.4495
 3078TIP3    H2 9178   5.634   7.818   2.654  0.9486 -0.2119 -0.3675
 3079TIP3   OH2 9179   7.032   6.130   2.328 -0.0936 -0.2583  0.1421
 3079TIP3    H1 9180   7.037   6.035   2.323 -0.6777 -0.4518  2.2972
 3079TIP3    H2 9181   6.941   6.149   2.351  0.5181  0.6303  2.0836
 3080TIP3   OH2 9182   0.091   3.464   2.405 -0.5839 -0.3661  0.5225
 3080TIP3    H1 9183   0.013   3.506   2.441 -0.3927 -1.0594  1.7958
 3080TIP3    H2 9184   0.079   3.468   2.310 -2.0255 -0.1881  0.6961
 3081TIP3   OH2 9185   3.457   2.834   2.488 -0.0321 -0.1536  0.5997
 3081TIP3    H1 9186   3.525   2.855   2.423  0.0121  3.9732  1.7461
 3081TIP3    H2 9187   3.505   2.794   2.560  1.1548  2.0096  1.0758
 3082TIP3   OH2 9188   6.990   6.184   0.221  0.0345 -0.4917 -0.1229
 3082TIP3    H1 9189   7.019   6.128   0.293 -0.1845  0.4249  0.6920
 3082TIP3    H2 9190   6.913   6.229   0.255 -1.3347 -1.5652 -1.6454
 3083TIP3   OH2 9191   1.853   2.882   3.783 -0.1439 -0.0148  0.5692
 3083TIP3    H1 9192   1.800   2.817   3.736  0.3976 -0.3027  0.3476
 3083TIP3    H2 9193   1.841   2.963   3.733 -0.6020 -0.0076  0.6868
 3084TIP3   OH2 9194   0.990   1.663   3.547  0.2956 -0.3630 -0.7258
 3084TIP3    H1 9195   1.085   1.679   3.541  0.3947 -0.6970 -0.1256
 3084TIP3    H2 9196   0.981   1.599   3.617 -0.4147 -0.0222 -0.4964
 3085TIP3   OH2 9197   6.438   5.210   2.891 -0.2605 -0.0830 -0.0911
 3085TIP3    H1 9198   6.354   5.239   2.855 -0.2103  0.6484  0.3641
 3085TIP3    H2 9199   6.497   5.209   2.816 -0.3447  0.7031 -0.1798
 3086TIP3   OH2 9200   3.278   5.229   6.007 -0.3606 -0.0811 -0.4931
 3086TIP3    H1 9201   3.220   5.153   6.015 -0.6363  0.0983 -0.7636
 3086TIP3    H2 9202   3.242   5.294   6.067 -1.1692  0.4771 -1.5525
 3087TIP3   OH2 9203   3.131   2.161   0.533 -0.7525 -0.1569 -0.3835
 3087TIP3    H1 9204   3.138   2.158   0.628 -1.7172  0.3122 -0.2778
 3087TIP3    H2 9205   3.101   2.073   0.508 -1.5668  0.0360 -0.1292
 3088TIP3   OH2 9206   3.930   0.517   4.730  0.1425 -0.6182  0.5782
 3088TIP3    H1 9207   4.000   0.462   4.696  1.6348  1.4310  0.1745
 3088TIP3    H2 9208   3.869   0.526   4.656  0.0015 -1.4667  0.5747
 3089TIP3   OH2 9209   1.607   2.306   3.819  0.0085  0.1874 -0.2437
 3089TIP3    H1 9210   1.592   2.258   3.900  0.1729 -0.4225 -0.5656
 3089TIP3    H2 9211   1.523   2.347   3.800 -0.6339 -1.3057 -0.8044
 3090TIP3   OH2 9212   5.106   4.603   3.069 -0.4757 -0.0753 -0.0931
 3090TIP3    H1 9213   5.161   4.625   2.995  2.9835 -4.2230  0.8167
 3090TIP3    H2 9214   5.034   4.553   3.031  1.3137 -2.2649 -0.8899
 3091TIP3   OH2 9215   3.917   1.791   1.914  0.0954  0.0699 -0.4484
 3091TIP3    H1 9216   3.870   1.865   1.951  0.7580  0.9674 -1.3597
 3091TIP3    H2 9217   3.856   1.754   1.849  0.6379  1.2680 -1.6736
 3092TIP3   OH2 9218   2.640   5.714   5.611 -0.8485  0.1201 -0.2956
 3092TIP3    H1 9219   2.596   5.798   5.624 -3.3363 -1.0061 -0.9581
 3092TIP3    H2 9220   2.569   5.650   5.604  0.9472 -2.3390  1.7679
 3093TIP3   OH2 9221   7.765   4.027   1.693 -0.5781 -0.6699 -0.8540
 3093TIP3    H1 9222   7.749   4.038   1.786 -0.8262 -2.1794 -0.6828
 3093TIP3    H2 9223   7.703   4.085   1.650 -3.0338 -2.5481 -0.1126
 3094TIP3   OH2 9224   5.678   2.642   0.063 -0.1984 -0.5946  0.3674
 3094TIP3    H1 9225   5.609   2.659  -0.001 -0.0743  1.1807  0.6581
 3094TIP3    H2 9226   5.758   2.675   0.020  0.0587 -0.3856  0.9968
 3095TIP3   OH2 9227   5.454   5.399   5.242  0.2997 -0.0177  0.3131
 3095TIP3    H1 9228   5.413   5.324   5.286 -1.1462  1.2410  1.2022
 3095TIP3    H2 9229   5.525   5.426   5.301 -0.7100  0.7700  1.1905
 3096TIP3   OH2 9230   4.067   5.642   0.130 -0.3583 -0.1756 -0.1978
 3096TIP3    H1 9231   4.000   5.590   0.174 -0.8082  0.3484 -0.2614
 3096TIP3    H2 9232   4.035   5.650   0.040 -1.3159  1.9016  0.2777
 3097TIP3   OH2 9233   0.924   4.549   2.689 -0.4050  0.1715  0.1261
 3097TIP3    H1 9234   0.928   4.598   2.607 -1.1839 -2.2648 -1.4852
 3097TIP3    H2 9235   0.838   4.509   2.689  0.9987 -3.1985 -0.0093
 3098TIP3   OH2 9236   2.635   0.995   2.558 -0.2029  0.0920  0.2542
 3098TIP3    H1 9237   2.566   1.030   2.501  1.6324 -1.1126 -2.9502
 3098TIP3    H2 9238   2.683   0.934   2.503  2.1142 -0.7895  3.0089
 3099TIP3   OH2 9239   4.549   1.610   0.580 -0.5765  0.1736  0.3540
 3099TIP3    H1 9240   4.515   1.689   0.539 -0.7816  0.0712  0.3243
 3099TIP3    H2 9241   4.641   1.606   0.553 -0.3779  0.7703  0.9264
 3100TIP3   OH2 9242   6.102   7.820   1.876 -0.7970  0.1740  0.0648
 3100TIP3    H1 9243   6.189   7.782   1.870 -1.2422 -0.8793  0.0434
 3100TIP3    H2 9244   6.067   7.813   1.787 -0.1134  2.6301 -0.4752
 3101TIP3   OH2 9245   1.122   0.517   2.062 -0.0802  0.3396  1.1127
 3101TIP3    H1 9246   1.068   0.559   2.130 -2.5318 -0.4362 -0.2367
 3101TIP3    H2 9247   1.083   0.545   1.980  0.5537 -1.6025  0.0971
 3102TIP3   OH2 9248   0.434   3.279   3.333 -0.3782 -0.4551  0.4396
 3102TIP3    H1 9249   0.417   3.371   3.354  1.4497  0.4211 -1.4594
 3102TIP3    H2 9250   0.498   3.251   3.398 -0.4559 -0.1914  0.6320
 3103TIP3   OH2 9251   0.160   6.573   3.120 -0.0581  0.3319  0.5253
 3103TIP3    H1 9252   0.151   6.610   3.032 -1.9530  0.8320  0.8705
 3103TIP3    H2 9253   0.232   6.510   3.113  2.4410  3.0478 -0.4333
 3104TIP3   OH2 9254   5.972   5.252   3.328  0.3748  0.4182  0.1577
 3104TIP3    H1 9255   5.990   5.158   3.334 -1.7057  0.0161  0.8996
 3104TIP3    H2 9256   6.000   5.288   3.412  0.7566  0.3868  0.0449
 3105TIP3   OH2 9257   1.817   1.699   0.749 -0.1320 -0.0957 -0.2548
 3105TIP3    H1 9258   1.789   1.778   0.795  0.2228  0.0685 -0.3211
 3105TIP3    H2 9259   1.737   1.668   0.705  0.0926  1.1659 -1.6161
 3106TIP3   OH2 9260   7.302   6.120   3.487  0.0391 -0.2892 -0.4530
 3106TIP3    H1 9261   7.318   6.125   3.392  1.6059 -0.9781 -0.2554
 3106TIP3    H2 9262   7.260   6.036   3.500  0.7731 -0.6656 -0.4414
 3107TIP3   OH2 9263   0.610   0.888   5.140 -0.6322  0.1138 -0.6210
 3107TIP3    H1 9264   0.683   0.827   5.129  0.6732  1.0548  1.8495
 3107TIP3    H2 9265   0.549   0.841   5.197 -0.3801  0.4969 -0.0247
 3108TIP3   OH2 9266   5.039   7.086   3.590  0.2944  0.0582  0.1516
 3108TIP3    H1 9267   5.022   6.993   3.603 -0.3202 -0.3533 -2.8674
 3108TIP3    H2 9268   5.108   7.089   3.523 -0.6173  1.7377 -0.7843
 3109TIP3   OH2 9269   0.918   0.017   4.433  0.4355 -0.0676  0.0834
 3109TIP3    H1 9270   0.962   0.062   4.505  0.1678 -0.6607  0.6308
 3109TIP3    H2 9271   0.984   0.011   4.365  0.1113  2.2635 -0.5152
 3110TIP3   OH2 9272   3.678   3.789   5.161  0.9340  0.2161 -0.1913
 3110TIP3    H1 9273   3.730   3.731   5.105 -0.0604 -1.1702  0.2469
 3110TIP3    H2 9274   3.618   3.730   5.207 -3.2379  1.8965 -2.8952
 3111TIP3   OH2 9275   5.931   2.516   3.584  0.4682  0.3035  0.1018
 3111TIP3    H1 9276   6.009   2.462   3.598 -0.9156 -1.7634  0.1301
 3111TIP3    H2 9277   5.965   2.596   3.544  2.4714 -1.0810 -1.1279
 3112TIP3   OH2 9278   0.691   7.766   3.276 -0.7223  0.0594  0.2346
 3112TIP3    H1 9279   0.659   7.696   3.220 -2.2247  0.9012  0.0061
 3112TIP3    H2 9280   0.650   7.845   3.243  1.7322  1.2770 -0.1712
 3113TIP3   OH2 9281   7.483   1.963   2.270  0.0507 -0.6941 -0.2218
 3113TIP3    H1 9282   7.405   1.921   2.235 -1.1049  0.4138  0.9128
 3113TIP3    H2 9283   7.452   2.010   2.348  1.5252  1.1112 -0.6662
 3114TIP3   OH2 9284   5.715   1.604   4.540  0.1694 -0.6555 -0.2571
 3114TIP3    H1 9285   5.693   1.695   4.562  1.2469 -0.5262  0.3462
 3114TIP3    H2 9286   5.703   1.599   4.445 -1.3365 -0.3051 -0.1191
 3115TIP3   OH2 9287   0.343   1.173   2.727  0.2317  0.0545  0.0935
 3115TIP3    H1 9288   0.362   1.085   2.694  0.4841 -0.7038  2.1118
 3115TIP3    H2 9289   0.386   1.176   2.812 -1.8823  1.2140  1.2006
 3116TIP3   OH2 9290   0.166   6.981   0.942 -0.4311 -0.3355 -0.5098
 3116TIP3    H1 9291   0.211   7.026   1.013 -0.0191  0.7284 -1.4341
 3116TIP3    H2 9292   0.135   6.899   0.983 -2.2338  1.2416  1.5467
 3117TIP3   OH2 9293   0.543   1.336   5.307  0.0832  0.3174 -0.3664
 3117TIP3    H1 9294   0.632   1.323   5.340 -0.3808 -0.2619  0.6841
 3117TIP3    H2 9295   0.533   1.431   5.301  0.7826  0.3863 -0.5526
 3118TIP3   OH2 9296   0.039   0.123   4.797 -0.5569  0.1350 -0.3493
 3118TIP3    H1 9297  -0.018   0.187   4.755 -0.1442  1.9600  1.6974
 3118TIP3    H2 9298  -0.009   0.096   4.875  0.2033 -0.4116 -0.0601
 3119TIP3   OH2 9299   3.474   2.006   3.548  0.1678  0.0735  0.5118
 3119TIP3    H1 9300   3.509   2.095   3.553  0.6107 -0.0998  0.5423
 3119TIP3    H2 9301   3.516   1.967   3.472 -2.0217  0.7284 -1.1403
 3120TIP3   OH2 9302   7.531   2.610   6.438 -0.1416  0.2179 -0.0335
 3120TIP3    H1 9303   7.475   2.685   6.420 -0.2976  0.2249  0.4933
 3120TIP3    H2 9304   7.510   2.583   6.527 -0.3388 -0.6721 -0.3361
 3121TIP3   OH2 9305   5.932   6.658   6.452  0.0556 -0.0211 -0.7729
 3121TIP3    H1 9306   5.980   6.706   6.519  1.0017  0.0001 -1.4438
 3121TIP3    H2 9307   5.932   6.567   6.483 -1.4409  0.3143  0.3272
 3122TIP3   OH2 9308   7.609   0.540   2.489 -0.4929 -0.0319  0.3301
 3122TIP3    H1 9309   7.579   0.532   2.580 -0.9593 -0.1180  0.1722
 3122TIP3    H2 9310   7.673   0.470   2.478  0.1182  0.4358  0.8088
 3123TIP3   OH2 9311   4.043   2.119   0.384  0.3369 -0.1567  0.2285
 3123TIP3    H1 9312   4.013   2.136   0.474 -1.2693 -0.3734 -0.2355
 3123TIP3    H2 9313   4.034   2.024   0.375  1.6872 -0.2952  0.2286
 3124TIP3   OH2 9314   1.980   0.817   3.310  0.2198 -0.1156  0.0737
 3124TIP3    H1 9315   1.900   0.779   3.273 -0.3678 -0.5732  1.7362
 3124TIP3    H2 9316   1.955   0.904   3.339  0.7990  0.4219 -0.9565
 3125TIP3   OH2 9317   0.178   5.265   0.650  0.3394  0.0869  0.2406
 3125TIP3    H1 9318   0.245   5.319   0.606 -0.5041  0.9812  0.0226
 3125TIP3    H2 9319   0.127   5.328   0.700 -0.8555 -0.4654 -0.2529
 3126TIP3   OH2 9320   3.764   3.206   3.226  0.4486  0.6020  0.0483
 3126TIP3    H1 9321   3.767   3.279   3.164 -0.2859  0.2746 -0.3961
 3126TIP3    H2 9322   3.673   3.177   3.224  0.8838 -0.8539 -0.4230
 3127TIP3   OH2 9323   3.660   0.513   4.215 -0.5427  0.1959 -0.2654
 3127TIP3    H1 9324   3.682   0.606   4.202  4.0441 -0.5734  0.2033
 3127TIP3    H2 9325   3.670   0.474   4.128  1.0856 -0.3295  0.1202
 3128TIP3   OH2 9326   3.822   7.630   3.923  0.7244  0.5215 -0.2602
 3128TIP3    H1 9327   3.742   7.678   3.944 -0.6500 -1.9227  0.5241
 3128TIP3    H2 9328   3.886   7.663   3.986  0.5916  2.9599 -1.2965
 3129TIP3   OH2 9329   1.097   0.152   0.282  0.4617  0.4219 -0.4742
 3129TIP3    H1 9330   1.074   0.236   0.321  2.9466  1.3077 -0.7804
 3129TIP3    H2 9331   1.144   0.105   0.350 -1.4301 -1.0653 -0.0919
 3130TIP3   OH2 9332   7.220   3.536   0.344 -0.2235 -0.2468  0.5717
 3130TIP3    H1 9333   7.232   3.588   0.423 -1.4426 -1.7798  1.8438
 3130TIP3    H2 9334   7.143   3.574   0.302  0.9050  1.0854 -0.3620
 3131TIP3   OH2 9335   4.885   1.802   1.708  0.1590 -0.1215  0.6540
 3131TIP3    H1 9336   4.860   1.727   1.761  1.9336 -0.4947  1.0217
 3131TIP3    H2 9337   4.979   1.814   1.726  0.6149  0.2897 -1.7248
 3132TIP3   OH2 9338   3.602   4.233   2.959 -0.3180  0.0937  0.3349
 3132TIP3    H1 9339   3.646   4.263   2.879 -0.9484  0.4788  0.1198
 3132TIP3    H2 9340   3.661   4.259   3.030 -0.5188  1.2375  0.1013
 3133TIP3   OH2 9341   6.569   1.607   5.881  1.2233 -0.2941 -0.8767
 3133TIP3    H1 9342   6.566   1.703   5.883  0.5015 -0.3184  0.6486
 3133TIP3    H2 9343   6.483   1.580   5.913  0.9759 -1.4845 -2.4324
 3134TIP3   OH2 9344   6.096   5.579   2.287 -0.0631 -0.0091 -0.3789
 3134TIP3    H1 9345   6.105   5.552   2.196  0.0438  0.0706 -0.3929
 3134TIP3    H2 9346   6.021   5.638   2.288  1.2578  1.7548 -0.8187
 3135TIP3   OH2 9347   5.158   5.128   0.190 -0.1725  0.2764  0.2168
 3135TIP3    H1 9348   5.114   5.212   0.174 -0.4292  0.0569 -0.2496
 3135TIP3    H2 9349   5.090   5.073   0.230 -0.3241 -0.0502 -0.4683
 3136TIP3   OH2 9350   3.958   7.654   1.582  0.2303 -0.4604  0.4518
 3136TIP3    H1 9351   3.868   7.667   1.551 -0.2266 -1.7773  1.1031
 3136TIP3    H2 9352   3.965   7.711   1.659 -0.0190 -0.2719  0.3365
 3137TIP3   OH2 9353   1.757   5.661   4.736  0.3545 -0.1374  0.1525
 3137TIP3    H1 9354   1.663   5.679   4.742  0.2390 -0.1729 -1.0941
 3137TIP3    H2 9355   1.799   5.737   4.774 -0.1830  0.3653 -0.2278
 3138TIP3   OH2 9356   6.389   6.882   4.600  0.7154  0.2358  0.4016
 3138TIP3    H1 9357   6.386   6.839   4.515 -0.4114  0.1452  0.4736
 3138TIP3    H2 9358   6.321   6.838   4.652  1.6158  0.0524  1.4705
 3139TIP3   OH2 9359   1.747   7.396   0.188 -0.5254  0.1878 -0.2397
 3139TIP3    H1 9360   1.791   7.477   0.214 -1.0892 -0.2185  2.2791
 3139TIP3    H2 9361   1.796   7.364   0.112  0.3476  2.3167 -0.6278
 3140TIP3   OH2 9362   2.945   0.200   6.437  0.6138 -0.1117  0.2541
 3140TIP3    H1 9363   2.906   0.165   6.517  1.7764  0.6182  1.1765
 3140TIP3    H2 9364   2.926   0.294   6.441 -0.1365 -0.2029 -0.8262
 3141TIP3   OH2 9365   2.560   6.582   1.932 -0.0328  0.0259 -0.2596
 3141TIP3    H1 9366   2.578   6.663   1.980 -1.4413 -0.1529  0.6202
 3141TIP3    H2 9367   2.590   6.513   1.991 -1.7849 -0.1947  0.4297
 3142TIP3   OH2 9368   5.965   7.320   1.737  0.5109  0.7684 -0.2231
 3142TIP3    H1 9369   5.877   7.285   1.726  0.6173 -0.5297  2.2596
 3142TIP3    H2 9370   6.020   7.264   1.682  0.1405 -0.4637  0.6085
 3143TIP3   OH2 9371   6.041   6.803   6.711  0.2866 -0.4363 -0.7331
 3143TIP3    H1 9372   6.078   6.728   6.758  1.8755  0.8625  0.1880
 3143TIP3    H2 9373   6.014   6.864   6.780  0.1226  0.3448 -1.4761
 3144TIP3   OH2 9374   6.270   7.190   3.981 -0.4657  0.1084  0.2299
 3144TIP3    H1 9375   6.245   7.283   3.978  0.1223  0.2848  0.5902
 3144TIP3    H2 9376   6.363   7.191   4.003 -0.4330 -0.5680  0.1355
 3145TIP3   OH2 9377   4.339   2.627   5.102  0.8473  0.1854  0.2383
 3145TIP3    H1 9378   4.346   2.542   5.144  1.6889  0.6909  1.1511
 3145TIP3    H2 9379   4.421   2.672   5.123  1.1162  0.6312 -1.5728
 3146TIP3   OH2 9380   3.946   5.517   2.483 -0.1500 -0.0036 -0.1014
 3146TIP3    H1 9381   3.889   5.477   2.417 -1.9503 -0.0187  1.3855
 3146TIP3    H2 9382   3.975   5.443   2.537  1.5237 -0.0278 -0.9629
 3147TIP3   OH2 9383   0.355   2.235   2.857  0.1608  0.3778 -0.1427
 3147TIP3    H1 9384   0.374   2.165   2.794  0.8641  0.4554 -0.0196
 3147TIP3    H2 9385   0.276   2.277   2.823 -0.7441 -0.9727  0.1960
 3148TIP3   OH2 9386   5.198   0.545   1.172 -0.0155 -0.2314  0.4114
 3148TIP3    H1 9387   5.106   0.564   1.153  0.5139  2.0854 -0.1578
 3148TIP3    H2 9388   5.200   0.528   1.266 -0.9358  0.3644  0.5541
 3149TIP3   OH2 9389   7.625   6.423   5.559 -0.2002  0.7186  0.1628
 3149TIP3    H1 9390   7.619   6.376   5.642 -0.9106  0.6152  0.0589
 3149TIP3    H2 9391   7.679   6.500   5.578  0.9078 -0.0741  0.3584
 3150TIP3   OH2 9392   7.858   1.382   6.699 -0.3301 -0.2395 -0.3379
 3150TIP3    H1 9393   7.844   1.475   6.681  1.4582  0.1070 -0.1576
 3150TIP3    H2 9394   7.950   1.376   6.725 -0.2083 -2.1686 -1.0082
 3151TIP3   OH2 9395   0.770   6.458   2.318  0.0448 -0.2476  0.4877
 3151TIP3    H1 9396   0.788   6.552   2.319  2.5742 -0.6498 -0.5375
 3151TIP3    H2 9397   0.801   6.428   2.233 -1.6452 -1.8932  0.3826
 3152TIP3   OH2 9398   1.786   3.838   2.293 -0.1919 -0.4015  0.5851
 3152TIP3    H1 9399   1.792   3.893   2.215  0.5080 -3.8672 -2.0522
 3152TIP3    H2 9400   1.876   3.810   2.310 -0.2233  0.7808  3.1608
 3153TIP3   OH2 9401   8.020   1.777   3.776  0.0504 -0.3599 -0.1872
 3153TIP3    H1 9402   8.041   1.722   3.701 -1.5667 -0.0229 -0.9292
 3153TIP3    H2 9403   8.105   1.810   3.807  0.9018 -2.0031 -0.6765
 3154TIP3   OH2 9404   2.575   7.430   2.340  0.5690 -0.0661  0.0555
 3154TIP3    H1 9405   2.641   7.434   2.270 -0.0951 -0.1282 -0.5938
 3154TIP3    H2 9406   2.508   7.371   2.305  1.2248 -1.8306  1.6253
 3155TIP3   OH2 9407   2.209   2.220   3.123  1.0455 -0.0773 -0.7770
 3155TIP3    H1 9408   2.287   2.238   3.072  1.6383  1.4005  0.5766
 3155TIP3    H2 9409   2.196   2.298   3.176 -0.3677 -0.9769  0.2763
 3156TIP3   OH2 9410   7.620   0.369   4.643 -0.3442 -0.6543 -0.1357
 3156TIP3    H1 9411   7.684   0.376   4.713  0.6106 -1.0504 -0.9437
 3156TIP3    H2 9412   7.543   0.328   4.683 -0.3200  0.3398  0.9798
 3157TIP3   OH2 9413   0.604   0.556   3.934  0.4487 -0.2282 -0.2336
 3157TIP3    H1 9414   0.630   0.634   3.885 -0.4391 -0.7978 -1.7029
 3157TIP3    H2 9415   0.573   0.590   4.018 -0.0004  1.0333 -0.8681
 3158TIP3   OH2 9416   2.624   4.142   6.647  0.9708  0.1535 -0.5219
 3158TIP3    H1 9417   2.669   4.059   6.665 -1.6703 -1.5605 -1.2085
 3158TIP3    H2 9418   2.556   4.147   6.715  0.0075  0.8468 -1.5101
 3159TIP3   OH2 9419   6.515   3.311   5.359 -0.1401  0.1211  0.3256
 3159TIP3    H1 9420   6.503   3.403   5.336  0.8192  0.5465  1.4205
 3159TIP3    H2 9421   6.485   3.305   5.450  1.6418 -0.1845  0.9372
 3160TIP3   OH2 9422   1.022   1.525   5.737 -0.4743  0.1864  0.1174
 3160TIP3    H1 9423   1.088   1.483   5.792  0.3454 -0.7360 -1.5134
 3160TIP3    H2 9424   0.944   1.470   5.746 -0.0479 -0.5106 -0.3788
 3161TIP3   OH2 9425   7.074   3.212   0.621  0.1078 -0.6086 -0.0824
 3161TIP3    H1 9426   7.134   3.193   0.549 -0.0809 -0.5939 -0.2444
 3161TIP3    H2 9427   6.988   3.189   0.587 -0.3240  1.7685 -0.7826
 3162TIP3   OH2 9428   5.231   7.320   6.060 -0.0191  0.0155 -0.0459
 3162TIP3    H1 9429   5.323   7.305   6.036  0.4066  1.9623  0.1937
 3162TIP3    H2 9430   5.221   7.415   6.058 -1.9474 -0.1422  0.3099
 3163TIP3   OH2 9431   0.393   0.423   0.071 -0.4547  0.3261  0.2190
 3163TIP3    H1 9432   0.484   0.451   0.058 -0.4682  1.1170  1.6205
 3163TIP3    H2 9433   0.363   0.398  -0.016  0.5956  1.6100 -0.5400
 3164TIP3   OH2 9434   0.284   1.851   0.816  0.0390 -0.1317 -0.7349
 3164TIP3    H1 9435   0.298   1.944   0.831 -1.9329 -0.0602  0.9604
 3164TIP3    H2 9436   0.259   1.845   0.723  0.6240  0.9301 -0.9768
 3165TIP3   OH2 9437   0.320   5.766   0.607  0.6271 -0.2955 -0.1891
 3165TIP3    H1 9438   0.255   5.747   0.674 -0.1620 -2.1208 -1.3965
 3165TIP3    H2 9439   0.281   5.734   0.525  2.3367  0.1123 -1.2235
 3166TIP3   OH2 9440   6.393   5.154   0.279 -0.0522  0.1439  0.2622
 3166TIP3    H1 9441   6.434   5.175   0.363 -1.2321 -2.1227  1.4970
 3166TIP3    H2 9442   6.436   5.073   0.251  0.0040  0.6206 -1.1240
 3167TIP3   OH2 9443   5.609   0.939   4.753 -0.4428 -0.2783  0.0449
 3167TIP3    H1 9444   5.643   1.009   4.808 -1.9898  0.5020  0.0515
 3167TIP3    H2 9445   5.654   0.951   4.669 -0.9735  0.9803 -0.0787
 3168TIP3   OH2 9446   2.923   1.615   4.476 -0.0765 -0.1564  0.0904
 3168TIP3    H1 9447   2.988   1.628   4.406  2.0380  0.4393  2.0312
 3168TIP3    H2 9448   2.924   1.697   4.525  0.0154 -1.2042  1.9606
 3169TIP3   OH2 9449   6.417   5.731   5.252  0.0592 -0.3520 -0.1529
 3169TIP3    H1 9450   6.328   5.716   5.219  0.4438 -1.1520 -0.8894
 3169TIP3    H2 9451   6.416   5.697   5.341 -0.3465 -0.4652 -0.2013
 3170TIP3   OH2 9452   0.282   1.212   6.229  0.0244 -0.3131 -0.1922
 3170TIP3    H1 9453   0.208   1.253   6.274 -0.7615 -0.2048 -1.5262
 3170TIP3    H2 9454   0.286   1.257   6.144 -0.0916 -2.1390 -1.2147
 3171TIP3   OH2 9455   7.999   6.089   0.584  0.0314 -0.2753  0.3240
 3171TIP3    H1 9456   8.070   6.025   0.591 -1.3300 -1.8452  0.3946
 3171TIP3    H2 9457   8.017   6.135   0.502  0.8224 -1.0279  0.0529
 3172TIP3   OH2 9458   6.283   7.777   2.224 -0.7314 -0.0152 -0.0101
 3172TIP3    H1 9459   6.238   7.793   2.307 -0.2648  0.5176  0.1499
 3172TIP3    H2 9460   6.282   7.862   2.179 -3.4136 -0.8735 -1.8106
 3173TIP3   OH2 9461   4.210   7.737   3.192 -0.1446  0.2381 -0.8440
 3173TIP3    H1 9462   4.229   7.791   3.269 -0.0435  1.2280 -1.5572
 3173TIP3    H2 9463   4.114   7.733   3.190 -0.1482  0.1792 -0.6519
 3174TIP3   OH2 9464   4.490   1.230   3.169 -0.3818 -0.4912 -0.4485
 3174TIP3    H1 9465   4.448   1.280   3.239 -0.2609  0.1761 -0.8492
 3174TIP3    H2 9466   4.563   1.284   3.140 -0.2960 -0.8585 -0.9436
 3175TIP3   OH2 9467   7.040   2.072   5.638 -0.3065  0.6959 -0.1190
 3175TIP3    H1 9468   7.134   2.087   5.642 -0.4862  2.3509 -1.2868
 3175TIP3    H2 9469   7.007   2.139   5.578 -1.8509 -1.7254 -2.1707
 3176TIP3   OH2 9470   4.573   7.020   3.908 -0.8607 -0.1579  0.1478
 3176TIP3    H1 9471   4.607   6.948   3.962 -0.4886  0.2132  0.4191
 3176TIP3    H2 9472   4.609   7.004   3.821  0.3440  0.4376  0.5198
 3177TIP3   OH2 9473   0.425   1.674   5.934  0.7559  0.0761  0.4093
 3177TIP3    H1 9474   0.422   1.663   5.839  1.2289  0.7294  0.3086
 3177TIP3    H2 9475   0.516   1.653   5.957  0.3963 -1.0789  0.8597
 3178TIP3   OH2 9476   4.638   3.071   0.120 -0.0229 -0.4891  0.3680
 3178TIP3    H1 9477   4.729   3.056   0.094 -0.6929  0.6220 -3.2461
 3178TIP3    H2 9478   4.644   3.109   0.208  3.0867  0.6625 -0.2103
 3179TIP3   OH2 9479   4.169   6.120   1.484  0.4398  0.4067 -0.2082
 3179TIP3    H1 9480   4.201   6.203   1.446 -0.9896  0.4432 -1.4220
 3179TIP3    H2 9481   4.183   6.130   1.578  1.5866  1.4406 -0.4531
 3180TIP3   OH2 9482   5.722   7.100   5.875  0.0466 -0.2296  0.3844
 3180TIP3    H1 9483   5.633   7.120   5.846  0.9717  2.2088 -1.0430
 3180TIP3    H2 9484   5.770   7.079   5.795  1.1819  0.3295  0.8979
 3181TIP3   OH2 9485   1.012   5.883   0.824  0.4227 -0.1503  0.0517
 3181TIP3    H1 9486   0.937   5.940   0.840  0.4742 -0.6339  2.3817
 3181TIP3    H2 9487   0.974   5.805   0.784 -0.3833 -0.4450  1.3284
 3182TIP3   OH2 9488   6.378   2.166   4.549  0.2029 -0.1360 -0.6301
 3182TIP3    H1 9489   6.335   2.157   4.464  1.1536 -1.0521 -1.0398
 3182TIP3    H2 9490   6.469   2.140   4.533  0.1556 -1.4015  0.8897
 3183TIP3   OH2 9491   7.169   2.300   6.718 -0.3123  0.3177 -0.0647
 3183TIP3    H1 9492   7.239   2.292   6.782  0.0069  0.5737 -0.3745
 3183TIP3    H2 9493   7.207   2.267   6.636 -1.3514 -1.9729  0.2953
 3184TIP3   OH2 9494   0.847   4.657   6.041 -0.1454  0.0355  0.2970
 3184TIP3    H1 9495   0.924   4.638   6.093  0.6657  2.5145  0.1311
 3184TIP3    H2 9496   0.818   4.744   6.070 -0.8683  0.6251 -1.9324
 3185TIP3   OH2 9497   7.627   6.178   1.740  0.3305 -0.4626 -0.5420
 3185TIP3    H1 9498   7.548   6.217   1.777  0.6035 -0.9184  0.5634
 3185TIP3    H2 9499   7.676   6.253   1.706 -0.0022 -0.0363 -0.1111
 3186TIP3   OH2 9500   7.189   7.767   4.245 -0.3876 -0.1712  0.0943
 3186TIP3    H1 9501   7.189   7.673   4.229 -2.2141 -0.5497  1.9029
 3186TIP3    H2 9502   7.100   7.795   4.225 -0.4357  0.7843  1.5124
 3187TIP3   OH2 9503   0.105   2.316   6.727  0.4435 -0.1567  0.3138
 3187TIP3    H1 9504   0.166   2.344   6.658  1.4690 -2.6230  0.1132
 3187TIP3    H2 9505   0.158   2.314   6.807  0.4581 -1.5189  0.2967
 3188TIP3   OH2 9506   0.649   7.246   4.450  0.0287 -0.6113 -0.1608
 3188TIP3    H1 9507   0.638   7.324   4.396 -0.7103 -0.3830  0.2949
 3188TIP3    H2 9508   0.737   7.254   4.486 -0.0949  0.1100  0.0090
 3189TIP3   OH2 9509   3.999   4.677   0.161  0.0876 -0.0167 -0.5920
 3189TIP3    H1 9510   3.982   4.771   0.175 -1.3788 -0.1462 -1.2526
 3189TIP3    H2 9511   3.912   4.637   0.164  0.6194 -1.2429 -1.1258
 3190TIP3   OH2 9512   2.491   6.515   3.042  0.4910  0.1781 -0.4453
 3190TIP3    H1 9513   2.506   6.512   2.947 -1.0879 -2.2779 -0.7063
 3190TIP3    H2 9514   2.416   6.573   3.053  0.8079  0.6384 -0.6406
 3191TIP3   OH2 9515   5.373   3.733   1.548  0.4626 -0.4445  0.1594
 3191TIP3    H1 9516   5.396   3.746   1.639  0.1155  0.6980  0.0943
 3191TIP3    H2 9517   5.280   3.755   1.543  0.3417 -1.0484 -0.3618
 3192TIP3   OH2 9518   5.484   1.267   6.345  0.0452 -0.1431  0.0097
 3192TIP3    H1 9519   5.442   1.237   6.264  2.9352 -3.1224 -0.6188
 3192TIP3    H2 9520   5.458   1.202   6.411  1.1042 -0.2155  0.3758
 3193TIP3   OH2 9521   6.679   0.275   1.426 -0.0275  0.4549  0.1031
 3193TIP3    H1 9522   6.586   0.270   1.449 -0.0878  1.2421  0.0459
 3193TIP3    H2 9523   6.682   0.334   1.350  0.6945  1.7410  1.0993
 3194TIP3   OH2 9524   1.916   4.286   5.773 -0.3951 -0.1632  0.2126
 3194TIP3    H1 9525   1.976   4.361   5.775 -0.4204 -0.0808 -1.3562
 3194TIP3    H2 9526   1.829   4.325   5.783 -0.4187  0.0555 -0.7367
 3195TIP3   OH2 9527   7.409   1.771   3.015 -0.0782  0.3524  0.2352
 3195TIP3    H1 9528   7.371   1.700   2.963 -1.0342  0.2459  1.0537
 3195TIP3    H2 9529   7.391   1.850   2.963  0.6930  0.0499 -0.5168
 3196TIP3   OH2 9530   2.588   3.902   5.172  0.3162  0.1036 -0.2949
 3196TIP3    H1 9531   2.620   3.821   5.132  0.3392  0.1924 -0.4525
 3196TIP3    H2 9532   2.640   3.971   5.132  1.7341  0.0337  1.2858
 3197TIP3   OH2 9533   6.697   7.164   2.163  0.3294  0.2643  0.1690
 3197TIP3    H1 9534   6.766   7.157   2.096 -0.8082  0.4158 -1.0659
 3197TIP3    H2 9535   6.618   7.184   2.113 -0.3710  1.4194  1.6813
 3198TIP3   OH2 9536   6.860   5.276   3.511  0.0465 -0.2298  0.2827
 3198TIP3    H1 9537   6.809   5.254   3.589 -0.1249  0.4308  0.3587
 3198TIP3    H2 9538   6.844   5.202   3.451 -0.5514 -0.3016  0.5225
 3199TIP3   OH2 9539   6.457   1.314   1.814  0.0715 -0.1653 -0.0472
 3199TIP3    H1 9540   6.503   1.385   1.769  0.5248 -0.7832 -0.5823
 3199TIP3    H2 9541   6.490   1.234   1.772 -1.0010 -0.6533  0.0102
 3200TIP3   OH2 9542   5.233   4.761   4.766 -0.0833  0.4009  0.2701
 3200TIP3    H1 9543   5.215   4.766   4.860  0.2310 -1.1377  0.4521
 3200TIP3    H2 9544   5.227   4.667   4.746  1.7682  0.4570 -0.8324
 3201TIP3   OH2 9545   4.637   4.147   3.984 -0.1340 -0.0885 -0.5652
 3201TIP3    H1 9546   4.559   4.106   3.946 -1.2030 -0.2816  1.6610
 3201TIP3    H2 9547   4.615   4.241   3.988 -0.5297 -0.2159  0.6008
 3202TIP3   OH2 9548   4.310   2.786   2.073  0.0958  0.0377 -0.0445
 3202TIP3    H1 9549   4.364   2.863   2.089 -0.3516  0.3735 -0.1309
 3202TIP3    H2 9550   4.359   2.714   2.112  0.2042  0.4668  0.6313
 3203TIP3   OH2 9551   5.553   6.732   1.691 -0.0675 -0.5842  0.0139
 3203TIP3    H1 9552   5.468   6.688   1.689  0.2401 -1.2037 -1.8972
 3203TIP3    H2 9553   5.616   6.661   1.704  0.3667 -0.6906 -2.2238
 3204TIP3   OH2 9554   3.855   1.881   5.449  0.0944  0.4147  0.6863
 3204TIP3    H1 9555   3.811   1.944   5.505  0.7813  3.3869 -1.8486
 3204TIP3    H2 9556   3.831   1.907   5.360  1.5820 -2.0730 -0.5531
 3205TIP3   OH2 9557   4.522   4.195   6.461 -0.0537  0.0405  0.0246
 3205TIP3    H1 9558   4.486   4.277   6.496  1.7567  1.3381 -0.9832
 3205TIP3    H2 9559   4.588   4.169   6.526  1.4426  1.0256 -1.0324
 3206TIP3   OH2 9560   4.743   6.776   1.530  0.5875 -0.6297  0.4298
 3206TIP3    H1 9561   4.780   6.687   1.533  0.5433 -0.8096 -2.1538
 3206TIP3    H2 9562   4.799   6.827   1.589  1.2622 -2.1337  1.1507
 3207TIP3   OH2 9563   3.740   1.761   0.625  0.0223 -0.4116  0.1532
 3207TIP3    H1 9564   3.744   1.689   0.562  0.2374 -1.0445  0.8801
 3207TIP3    H2 9565   3.689   1.726   0.698 -1.0343  0.6279 -0.0587
 3208TIP3   OH2 9566   6.164   1.285   0.857  0.4852  0.4038  0.7754
 3208TIP3    H1 9567   6.119   1.364   0.827  1.2958  1.0889  1.3347
 3208TIP3    H2 9568   6.190   1.241   0.776 -1.1180  0.0113  0.4361
 3209TIP3   OH2 9569   3.209   0.701   0.472 -0.0242  0.3008 -0.2189
 3209TIP3    H1 9570   3.288   0.737   0.433  0.3867 -1.3730 -1.0361
 3209TIP3    H2 9571   3.233   0.683   0.563  0.7546 -0.6942 -0.5925
 3210TIP3   OH2 9572   6.868   2.208   2.359  0.4851 -0.1053  0.0234
 3210TIP3    H1 9573   6.855   2.187   2.266 -1.6043 -1.5891  0.5891
 3210TIP3    H2 9574   6.962   2.195   2.373  1.0232  1.0594 -2.0565
 3211TIP3   OH2 9575   5.811   3.807   0.041 -0.0035  0.0347 -0.0079
 3211TIP3    H1 9576   5.904   3.827   0.030  0.2798 -1.9921 -2.2013
 3211TIP3    H2 9577   5.767   3.864  -0.021 -0.0625 -0.0916 -0.0819
 3212TIP3   OH2 9578   7.744   5.841   1.914 -0.1724 -0.3521  0.5056
 3212TIP3    H1 9579   7.773   5.814   2.001  0.5583  0.6323  0.5887
 3212TIP3    H2 9580   7.818   5.822   1.857 -0.8617 -1.5299 -0.0197
 3213TIP3   OH2 9581   2.684   4.339   0.671 -0.0129 -0.6756 -0.3251
 3213TIP3    H1 9582   2.672   4.377   0.759 -1.4878  0.6842 -1.0503
 3213TIP3    H2 9583   2.710   4.249   0.687 -1.8158 -0.9402  1.5454
 3214TIP3   OH2 9584   7.162   7.715   0.397  0.1280 -0.7575 -0.2672
 3214TIP3    H1 9585   7.221   7.687   0.467 -2.2098 -2.4478  1.1727
 3214TIP3    H2 9586   7.138   7.633   0.352  0.1123  0.0804 -1.8496
 3215TIP3   OH2 9587   0.741   3.705   1.144  0.1282 -0.4537  0.3341
 3215TIP3    H1 9588   0.768   3.795   1.157  0.1475 -0.3292 -0.5012
 3215TIP3    H2 9589   0.676   3.689   1.213 -0.5961  0.5140 -0.0950
 3216TIP3   OH2 9590   6.777   7.272   5.151  0.0436 -0.3755 -0.1879
 3216TIP3    H1 9591   6.804   7.212   5.081  1.9382 -0.2316  0.3634
 3216TIP3    H2 9592   6.731   7.342   5.105 -0.0491 -1.0187 -1.1157
 3217TIP3   OH2 9593   6.010   2.285   4.597  0.7090 -0.1467 -0.1947
 3217TIP3    H1 9594   6.008   2.289   4.501 -1.5786  0.3693 -0.1805
 3217TIP3    H2 9595   5.918   2.280   4.623  1.1548  1.6544  2.0536
 3218TIP3   OH2 9596   2.096   0.249   2.636  0.6235  0.7772 -0.3031
 3218TIP3    H1 9597   2.040   0.300   2.695 -2.9594 -1.1315 -1.7441
 3218TIP3    H2 9598   2.134   0.182   2.693 -2.2641 -0.6464  0.1370
 3219TIP3   OH2 9599   7.681   1.804   3.121  0.8994 -0.0069  0.2023
 3219TIP3    H1 9600   7.721   1.809   3.208 -0.1833 -2.0695  0.8729
 3219TIP3    H2 9601   7.587   1.802   3.138  0.6099  1.1537 -1.1378
 3220TIP3   OH2 9602   6.584   0.702   4.688  0.7126  0.1165 -0.1923
 3220TIP3    H1 9603   6.673   0.695   4.653  0.0097  1.6288 -2.5393
 3220TIP3    H2 9604   6.547   0.614   4.679  1.9027 -0.5080  0.7414
 3221TIP3   OH2 9605   8.079   2.238   4.188  0.0694 -0.6065  0.5866
 3221TIP3    H1 9606   8.023   2.316   4.194  0.6627 -0.0018 -1.0352
 3221TIP3    H2 9607   8.079   2.217   4.095  2.0037 -0.9803  0.6409
 3222TIP3   OH2 9608   6.584   1.216   4.357  0.0253 -0.0045  0.4779
 3222TIP3    H1 9609   6.630   1.200   4.274 -0.3826 -1.1299  0.4494
 3222TIP3    H2 9610   6.649   1.199   4.424  0.1824  0.2868  0.3990
 3223TIP3   OH2 9611   6.046   4.607   3.386 -0.9948  0.0119  0.1504
 3223TIP3    H1 9612   5.979   4.665   3.351 -0.3116  0.2268 -0.8405
 3223TIP3    H2 9613   6.119   4.665   3.407 -1.1147 -0.2107  1.2718
 3224TIP3   OH2 9614   0.861   4.972   5.249  0.6868  0.0032  0.1360
 3224TIP3    H1 9615   0.841   4.880   5.268  1.2087 -0.4616 -1.4491
 3224TIP3    H2 9616   0.779   5.006   5.212  1.1522 -0.4518 -1.3655
 3225TIP3   OH2 9617   4.148   0.850   0.306 -0.1868 -0.1547 -1.1890
 3225TIP3    H1 9618   4.138   0.941   0.280 -0.1964 -0.3769 -2.0054
 3225TIP3    H2 9619   4.242   0.837   0.317 -0.2435  0.1717 -0.2023
 3226TIP3   OH2 9620   3.801   5.056   4.789 -0.1206  0.8812  0.5885
 3226TIP3    H1 9621   3.815   4.980   4.845  0.9663  0.3513 -0.3472
 3226TIP3    H2 9622   3.875   5.114   4.808  0.4228  0.5656 -0.4633
 3227TIP3   OH2 9623   6.532   0.531   2.687 -0.7181 -0.2688 -0.3568
 3227TIP3    H1 9624   6.439   0.554   2.689 -1.1439 -1.9069  0.8237
 3227TIP3    H2 9625   6.536   0.456   2.627 -0.4654 -1.2690  0.8696
 3228TIP3   OH2 9626   4.123   2.737   5.779  0.0821 -0.0590 -0.2128
 3228TIP3    H1 9627   4.194   2.680   5.808  0.4509 -0.2547 -1.4299
 3228TIP3    H2 9628   4.163   2.795   5.714 -0.5255  0.8817  0.2250
 3229TIP3   OH2 9629   7.065   6.189   2.042  0.1229  0.2739  0.1231
 3229TIP3    H1 9630   7.009   6.172   2.118  0.2721 -1.5672 -0.1442
 3229TIP3    H2 9631   7.091   6.281   2.052 -3.0722  1.3030  0.1429
 3230TIP3   OH2 9632   7.153   4.994   2.713  0.1991  0.2284  1.0992
 3230TIP3    H1 9633   7.111   4.911   2.691  0.0038  0.1719  1.6832
 3230TIP3    H2 9634   7.106   5.059   2.661  0.4705 -0.0425  0.5018
 3231TIP3   OH2 9635   0.455   6.915   4.160 -0.2337 -0.4992 -0.6238
 3231TIP3    H1 9636   0.462   6.950   4.072 -0.6990  0.6953 -0.2071
 3231TIP3    H2 9637   0.485   6.987   4.217 -0.1199 -1.1781  0.1957
 3232TIP3   OH2 9638   8.158   5.354   0.196  0.0788 -0.3206  0.0589
 3232TIP3    H1 9639   8.126   5.345   0.286  2.1164  2.5223  1.1810
 3232TIP3    H2 9640   8.137   5.444   0.172  3.4790  0.4099 -0.5949
 3233TIP3   OH2 9641   3.823   3.558   2.420  0.0312 -0.2427 -0.2954
 3233TIP3    H1 9642   3.862   3.596   2.499  0.8325 -0.6487 -0.4816
 3233TIP3    H2 9643   3.765   3.490   2.453 -1.0118  0.7661  0.0142
 3234TIP3   OH2 9644   3.801   3.939   0.304  0.0512  0.2608  0.2828
 3234TIP3    H1 9645   3.886   3.934   0.260 -0.0188 -1.8058  0.2958
 3234TIP3    H2 9646   3.821   3.965   0.393  0.5197  1.1424 -0.0689
 3235TIP3   OH2 9647   1.041   4.320   3.188  0.4674  0.1245  0.0116
 3235TIP3    H1 9648   1.055   4.342   3.280  0.0439  2.7588 -0.4491
 3235TIP3    H2 9649   0.946   4.315   3.179  0.4988  0.0876 -0.3106
 3236TIP3   OH2 9650   0.022   2.661   1.055  0.1110  0.0204  0.9388
 3236TIP3    H1 9651  -0.006   2.577   1.090  1.3308 -0.3495  1.0974
 3236TIP3    H2 9652   0.100   2.683   1.107 -1.4932  2.4173  2.5817
 3237TIP3   OH2 9653   6.049   4.387   4.123  1.1635 -0.3893 -0.4256
 3237TIP3    H1 9654   6.103   4.333   4.181  1.0392  0.5172  0.5675
 3237TIP3    H2 9655   6.075   4.477   4.143 -1.8881  0.2494  1.4007
 3238TIP3   OH2 9656   2.031   4.920   3.102 -0.3956 -0.9128  0.1484
 3238TIP3    H1 9657   2.047   4.866   3.025  1.3010  1.0419 -0.9731
 3238TIP3    H2 9658   1.964   4.982   3.075  0.6667  0.2024 -0.0503
 3239TIP3   OH2 9659   3.200   7.791   0.806  0.4198 -0.9932 -0.7356
 3239TIP3    H1 9660   3.127   7.744   0.846  0.0815  0.6179  0.6586
 3239TIP3    H2 9661   3.181   7.788   0.712  0.0923 -3.0313 -0.6470
 3240TIP3   OH2 9662   5.352   4.992   2.487 -0.0554 -0.0348 -0.4536
 3240TIP3    H1 9663   5.395   5.000   2.572 -2.2429 -2.1920  0.9792
 3240TIP3    H2 9664   5.266   5.032   2.499 -1.3643 -2.5578 -0.7796
 3241TIP3   OH2 9665   5.819   4.540   0.993  0.2101  0.5473  0.2774
 3241TIP3    H1 9666   5.807   4.576   0.906  0.0510  0.0796  0.1014
 3241TIP3    H2 9667   5.893   4.480   0.984  0.3457  0.6768  0.5194
 3242TIP3   OH2 9668   6.209   7.271   0.068  0.3694  0.3703  0.3562
 3242TIP3    H1 9669   6.262   7.344   0.098 -0.5422  1.0196  0.4461
 3242TIP3    H2 9670   6.268   7.196   0.067  2.4613  1.7943 -3.4698
 3243TIP3   OH2 9671   6.313   5.395   0.565  0.5983  0.0929  0.4365
 3243TIP3    H1 9672   6.249   5.326   0.582  2.0955 -0.9693  2.0716
 3243TIP3    H2 9673   6.307   5.452   0.642  0.1246  1.2398 -0.4136
 3244TIP3   OH2 9674   2.655   6.195   5.193  0.1728 -0.3481  0.1827
 3244TIP3    H1 9675   2.707   6.266   5.156  0.2379  0.1147  1.1395
 3244TIP3    H2 9676   2.674   6.119   5.137  0.7930  0.1650 -0.3046
 3245TIP3   OH2 9677   5.195   5.055   1.502 -0.0984  0.5336 -0.4443
 3245TIP3    H1 9678   5.241   5.125   1.456  0.2157 -0.5292 -1.8458
 3245TIP3    H2 9679   5.105   5.060   1.470  0.2928 -0.6975 -1.8854
 3246TIP3   OH2 9680   7.291   7.398   1.153  0.3185  0.4696  0.5839
 3246TIP3    H1 9681   7.384   7.397   1.173  0.1739 -1.5588  1.3798
 3246TIP3    H2 9682   7.248   7.408   1.238 -0.2140 -0.0468  0.3843
 3247TIP3   OH2 9683   0.226   7.438   5.547 -0.1543  0.2628 -0.2777
 3247TIP3    H1 9684   0.235   7.524   5.589  1.1278 -0.5115  1.1510
 3247TIP3    H2 9685   0.132   7.423   5.542 -0.3725  1.0836  0.9158
 3248TIP3   OH2 9686   5.312   1.056   4.970  0.0583  0.1840  0.9818
 3248TIP3    H1 9687   5.230   1.056   4.920  0.4952  0.3694  0.2496
 3248TIP3    H2 9688   5.356   1.137   4.945  0.3392  0.2249  1.5896
 3249TIP3   OH2 9689   6.521   4.974   6.802 -0.1168 -0.0755 -0.2091
 3249TIP3    H1 9690   6.613   4.946   6.804  0.0127  0.1507 -1.7772
 3249TIP3    H2 9691   6.495   4.965   6.710 -0.9042  2.3010 -0.2870
 3250TIP3   OH2 9692   3.235   0.765   3.937  0.5561 -0.1995  0.0295
 3250TIP3    H1 9693   3.326   0.793   3.929  1.7548 -3.2500  1.4647
 3250TIP3    H2 9694   3.213   0.781   4.029  0.7524 -2.2641  0.4811
 3251TIP3   OH2 9695   0.049   5.701   3.315 -0.2045 -0.3397  0.1680
 3251TIP3    H1 9696   0.018   5.611   3.313 -0.7715 -0.1409 -1.0386
 3251TIP3    H2 9697   0.089   5.711   3.401  0.8492 -2.0672 -0.0848
 3252TIP3   OH2 9698   5.683   6.495   2.650  0.0565  0.0846 -0.5004
 3252TIP3    H1 9699   5.768   6.474   2.612 -0.1066  0.0426 -0.8488
 3252TIP3    H2 9700   5.648   6.410   2.677  1.4789  0.3275  2.6447
 3253TIP3   OH2 9701   1.440   2.051   3.069  0.0873 -0.0271 -0.1427
 3253TIP3    H1 9702   1.355   2.089   3.092  0.0753  0.0763 -0.3553
 3253TIP3    H2 9703   1.464   2.094   2.987  1.5456  1.9120  1.2012
 3254TIP3   OH2 9704   6.542   2.109   3.968 -0.1141 -0.4412 -0.4533
 3254TIP3    H1 9705   6.570   2.131   4.057 -2.1767  2.2983 -0.3544
 3254TIP3    H2 9706   6.609   2.147   3.912  0.3728 -0.8085 -0.1376
 3255TIP3   OH2 9707   5.388   0.973   3.615 -0.4942 -0.2032  0.6021
 3255TIP3    H1 9708   5.462   0.976   3.555  3.2658 -0.9086  4.6384
 3255TIP3    H2 9709   5.341   0.894   3.590  2.8232 -2.3307  0.3650
 3256TIP3   OH2 9710   4.183   5.204   3.815 -0.0789 -0.1353 -0.4932
 3256TIP3    H1 9711   4.108   5.211   3.756  0.5308 -1.2926 -1.4349
 3256TIP3    H2 9712   4.159   5.260   3.890 -2.1764 -0.9724 -0.4576
 3257TIP3   OH2 9713   3.179   5.470   5.270  0.0122 -0.0466  0.7536
 3257TIP3    H1 9714   3.134   5.427   5.343 -0.0205 -0.1267  0.6863
 3257TIP3    H2 9715   3.145   5.559   5.271 -0.9311 -0.3775  0.0665
 3258TIP3   OH2 9716   0.648   0.406   5.942 -0.4756 -0.4185 -0.6883
 3258TIP3    H1 9717   0.570   0.453   5.971 -0.8476 -1.6832  0.4864
 3258TIP3    H2 9718   0.716   0.473   5.936 -1.3363  0.4902 -0.4844
 3259TIP3   OH2 9719   6.585   5.457   4.157 -0.1369 -0.1321  0.3331
 3259TIP3    H1 9720   6.562   5.444   4.249 -0.2543  0.8028  0.4470
 3259TIP3    H2 9721   6.503   5.481   4.115 -0.0027 -0.1414  0.0677
 3260TIP3   OH2 9722   7.427   0.705   3.001 -0.3508  0.3910  0.4345
 3260TIP3    H1 9723   7.344   0.666   3.027  0.1423 -0.6401  0.5514
 3260TIP3    H2 9724   7.404   0.773   2.938 -1.2245 -0.4210 -0.1420
 3261TIP3   OH2 9725   2.353   4.507   5.907  0.3906  0.1983  0.2573
 3261TIP3    H1 9726   2.411   4.582   5.921  0.8344 -0.0202 -0.3576
 3261TIP3    H2 9727   2.332   4.476   5.996 -0.2511  1.3795  0.5272
 3262TIP3   OH2 9728   1.529   3.833   5.044  0.2715 -0.1617  0.0559
 3262TIP3    H1 9729   1.569   3.913   5.079 -1.0962  0.5742  0.0060
 3262TIP3    H2 9730   1.515   3.853   4.951 -1.4439  0.1622  0.3437
 3263TIP3   OH2 9731   5.133   6.509   4.157 -0.2881  0.8353 -0.3306
 3263TIP3    H1 9732   5.222   6.539   4.139 -0.7736  1.3725 -2.0172
 3263TIP3    H2 9733   5.131   6.419   4.126 -0.1572  0.5825  0.3667
 3264TIP3   OH2 9734   2.134   5.783   3.599 -0.4478  0.1638  0.2114
 3264TIP3    H1 9735   2.159   5.869   3.631 -2.0223  0.4382  0.8003
 3264TIP3    H2 9736   2.194   5.766   3.526 -2.0439  3.1158 -1.9984
 3265TIP3   OH2 9737   4.334   4.046   0.291 -0.0373 -0.3268  0.3920
 3265TIP3    H1 9738   4.345   4.137   0.263 -0.8015  0.3517  2.1671
 3265TIP3    H2 9739   4.380   3.995   0.224  1.1899  1.4111 -0.1625
 3266TIP3   OH2 9740   0.914   1.588   2.542  0.8083 -0.1919 -0.0929
 3266TIP3    H1 9741   0.879   1.506   2.579 -1.1498 -0.4696 -2.3283
 3266TIP3    H2 9742   0.884   1.656   2.603 -1.2668 -0.7477 -0.4116
 3267TIP3   OH2 9743   6.284   4.747   3.510 -0.6592  0.2768  0.4896
 3267TIP3    H1 9744   6.237   4.806   3.569 -0.2784  0.7842  0.3032
 3267TIP3    H2 9745   6.367   4.729   3.555 -1.2837 -1.1519  1.1225
 3268TIP3   OH2 9746   4.782   1.953   0.410  0.0041  0.0037  0.4154
 3268TIP3    H1 9747   4.838   2.030   0.417  0.6841 -0.3906 -0.5059
 3268TIP3    H2 9748   4.719   1.976   0.341 -0.5188  0.1592  0.9331
 3269TIP3   OH2 9749   6.046   2.904   0.906 -0.3432 -0.0032  0.5838
 3269TIP3    H1 9750   5.975   2.847   0.933 -0.2218  0.2949  1.5709
 3269TIP3    H2 9751   6.013   2.948   0.827 -1.5948  0.7758  1.5125
 3270TIP3   OH2 9752   6.562   5.602   2.585 -0.3514  0.3199 -0.3063
 3270TIP3    H1 9753   6.477   5.646   2.584 -0.1828  0.6563 -1.0243
 3270TIP3    H2 9754   6.588   5.601   2.493  1.2722  1.8859  0.0852
 3271TIP3   OH2 9755   8.077   1.882   4.111 -0.1050  0.0274  0.3430
 3271TIP3    H1 9756   8.004   1.943   4.116 -0.3349 -0.1339 -0.6856
 3271TIP3    H2 9757   8.037   1.796   4.120 -0.0954 -0.0742 -0.4419
 3272TIP3   OH2 9758   4.498   5.488   0.070  0.5597  0.2237 -0.0416
 3272TIP3    H1 9759   4.435   5.559   0.076 -0.8982 -1.0518  0.5078
 3272TIP3    H2 9760   4.463   5.420   0.128  1.9820 -0.8743 -0.4129
 3273TIP3   OH2 9761   1.389   1.790   2.111  0.7099 -0.2953 -0.2188
 3273TIP3    H1 9762   1.332   1.867   2.115  0.6928 -0.1438 -2.4655
 3273TIP3    H2 9763   1.438   1.793   2.194 -2.5900 -0.5524  1.9254
 3274TIP3   OH2 9764   0.387   3.335   5.123  0.2969  0.2616  0.0322
 3274TIP3    H1 9765   0.415   3.354   5.033 -0.9593  0.0916 -0.4178
 3274TIP3    H2 9766   0.451   3.271   5.155  0.1230 -0.5364 -1.1503
 3275TIP3   OH2 9767   2.750   4.009   1.849  0.3042  0.4628  0.3294
 3275TIP3    H1 9768   2.792   4.030   1.766  0.6779  3.0990  1.0783
 3275TIP3    H2 9769   2.779   3.921   1.870  1.3452  0.2940 -1.6260
 3276TIP3   OH2 9770   2.453   0.703   0.633  0.0472 -0.4762  0.1853
 3276TIP3    H1 9771   2.445   0.779   0.575  0.6183  0.1833  0.9474
 3276TIP3    H2 9772   2.514   0.645   0.587 -0.1418 -0.3318 -0.2551
 3277TIP3   OH2 9773   3.555   5.162   5.895  0.0911 -0.0131  0.6295
 3277TIP3    H1 9774   3.478   5.217   5.904 -0.2508 -0.1930 -1.0138
 3277TIP3    H2 9775   3.535   5.102   5.823  2.5232  1.3129 -1.3327
 3278TIP3   OH2 9776   4.810   1.641   0.400  0.8116  0.0140  0.7278
 3278TIP3    H1 9777   4.787   1.732   0.416  2.6545  0.8189 -0.7951
 3278TIP3    H2 9778   4.901   1.633   0.431  1.1098 -0.9410 -0.3275
 3279TIP3   OH2 9779   5.287   4.594   0.985 -0.2048 -0.7371  0.7003
 3279TIP3    H1 9780   5.197   4.610   0.956  0.3352  1.2640 -0.0566
 3279TIP3    H2 9781   5.285   4.615   1.079 -0.4491 -0.2111  0.5850
 3280TIP3   OH2 9782   7.668   6.562   0.668  0.4091 -0.1655 -0.0010
 3280TIP3    H1 9783   7.612   6.497   0.625  1.1619 -0.3431 -0.7422
 3280TIP3    H2 9784   7.706   6.515   0.743  1.7092 -0.9182 -1.0828
 3281TIP3   OH2 9785   7.569   0.066   1.736  0.1042  0.7190  0.1668
 3281TIP3    H1 9786   7.531   0.092   1.652  2.0814  0.0849 -0.9975
 3281TIP3    H2 9787   7.522   0.118   1.801 -2.9732 -0.3009 -1.0645
 3282TIP3   OH2 9788   1.791   1.755   0.083 -0.1569 -0.4638  0.1339
 3282TIP3    H1 9789   1.886   1.755   0.068 -0.1456  1.1960  0.0940
 3282TIP3    H2 9790   1.766   1.663   0.077  0.8259 -0.6522 -3.8210
 3283TIP3   OH2 9791   1.238   1.418   0.393 -0.0494  0.3132 -0.0136
 3283TIP3    H1 9792   1.245   1.427   0.488  0.1872 -1.8555  0.2253
 3283TIP3    H2 9793   1.202   1.330   0.380 -1.8309  1.2439 -1.9110
 3284TIP3   OH2 9794   7.585   1.631   5.345  0.4768 -0.2152 -0.0098
 3284TIP3    H1 9795   7.571   1.552   5.293 -1.1826  0.2714 -0.3800
 3284TIP3    H2 9796   7.605   1.699   5.281  0.8948 -0.1195  0.2185
 3285TIP3   OH2 9797   1.471   1.734   4.032  1.0041  0.8325  0.4380
 3285TIP3    H1 9798   1.458   1.696   3.945  0.2758 -1.8387  1.6287
 3285TIP3    H2 9799   1.557   1.703   4.060  0.3962 -0.0441  1.4314
 3286TIP3   OH2 9800   8.282   5.434   4.285 -0.6174 -0.1361 -0.0100
 3286TIP3    H1 9801   8.205   5.419   4.339 -0.6663  0.0023 -0.0430
 3286TIP3    H2 9802   8.353   5.388   4.331 -0.7155 -0.2532  0.0259
 3287TIP3   OH2 9803   0.735   1.433   0.463  0.0468 -0.1293  0.6927
 3287TIP3    H1 9804   0.766   1.444   0.373  1.4375 -0.3594  1.1126
 3287TIP3    H2 9805   0.650   1.476   0.464 -1.2204 -2.3662 -1.3748
 3288TIP3   OH2 9806   7.263   0.079   1.471  0.2444  0.4184 -0.4161
 3288TIP3    H1 9807   7.257   0.064   1.565  0.4113  0.6949 -0.3598
 3288TIP3    H2 9808   7.172   0.084   1.441  0.1916  0.4321 -0.2544
 3289TIP3   OH2 9809   6.534   1.438   2.947 -0.8645 -0.2561 -0.6702
 3289TIP3    H1 9810   6.614   1.396   2.979 -0.7642 -0.4272 -1.1484
 3289TIP3    H2 9811   6.542   1.529   2.975 -1.1889 -0.5873  0.5833
 3290TIP3   OH2 9812   3.571   5.526   2.857 -1.1193 -0.3192 -0.4679
 3290TIP3    H1 9813   3.516   5.505   2.933 -0.2111  0.0932  0.3170
 3290TIP3    H2 9814   3.660   5.533   2.892 -0.5441 -1.0004 -1.7232
 3291TIP3   OH2 9815   2.323   6.698   3.485  0.0729 -0.1425 -0.0363
 3291TIP3    H1 9816   2.380   6.631   3.448  0.8023  0.4716 -0.0427
 3291TIP3    H2 9817   2.293   6.749   3.410 -3.0047 -2.2814 -0.4581
 3292TIP3   OH2 9818   0.796   4.758   0.068 -0.3387 -0.2228 -0.2861
 3292TIP3    H1 9819   0.825   4.823   0.005 -1.9503  1.1652  0.3131
 3292TIP3    H2 9820   0.820   4.795   0.153 -1.8420 -0.0756  0.0966
 3293TIP3   OH2 9821   8.047   0.739   2.107 -0.4085 -0.1764 -0.7753
 3293TIP3    H1 9822   7.982   0.670   2.121  0.3593 -0.5625  1.4627
 3293TIP3    H2 9823   8.033   0.800   2.180  0.4807  0.7546 -1.3598
 3294TIP3   OH2 9824   1.303   2.566   0.195 -0.0560  0.0299  0.2772
 3294TIP3    H1 9825   1.323   2.659   0.203 -0.3174  0.0625  0.5728
 3294TIP3    H2 9826   1.340   2.526   0.274 -1.9733  0.2360  1.3452
 3295TIP3   OH2 9827   2.256   1.175   2.101  0.3777 -0.6517  0.1769
 3295TIP3    H1 9828   2.200   1.209   2.171  0.8420 -1.8952  1.1901
 3295TIP3    H2 9829   2.269   1.083   2.123  0.7182 -1.0310 -1.4427
 3296TIP3   OH2 9830   7.183   3.472   1.079  0.5813  0.4976  0.0290
 3296TIP3    H1 9831   7.159   3.446   0.990 -0.0976  0.8528  0.1030
 3296TIP3    H2 9832   7.277   3.489   1.075  0.2301  2.4455 -1.1190
 3297TIP3   OH2 9833   5.909   7.632   4.882 -0.5040  0.0318 -0.0418
 3297TIP3    H1 9834   5.902   7.550   4.930 -2.5988 -0.5760 -1.2541
 3297TIP3    H2 9835   5.963   7.610   4.806 -0.0900  0.0725  0.2428
 3298TIP3   OH2 9836   0.368   2.471   3.462  0.0204 -0.2675  0.1942
 3298TIP3    H1 9837   0.328   2.556   3.481  0.0297  0.3204 -2.0955
 3298TIP3    H2 9838   0.295   2.414   3.439  0.1279 -0.5135  0.4562
 3299TIP3   OH2 9839   0.180   5.212   5.048  0.3437  0.7088 -0.3720
 3299TIP3    H1 9840   0.105   5.164   5.012  1.1463 -0.4033 -0.6107
 3299TIP3    H2 9841   0.151   5.303   5.049 -0.5485  0.4822 -1.6879
 3300TIP3   OH2 9842   6.262   2.031   0.548  0.4227  0.4250  0.0654
 3300TIP3    H1 9843   6.271   2.052   0.455 -0.4248 -0.3947 -0.2145
 3300TIP3    H2 9844   6.278   2.115   0.592  0.1475  0.9859 -0.8525
 3301TIP3   OH2 9845   6.320   2.337   6.482  0.0074 -0.8649  0.1626
 3301TIP3    H1 9846   6.290   2.417   6.439 -1.6648 -0.7646  1.3892
 3301TIP3    H2 9847   6.304   2.267   6.418 -1.7771 -0.6272  0.2845
 3302TIP3   OH2 9848   1.754   4.412   5.437 -0.0458  0.3434  0.3661
 3302TIP3    H1 9849   1.725   4.504   5.431  0.5165  0.4378 -1.8600
 3302TIP3    H2 9850   1.676   4.365   5.468 -0.9715  1.3288 -0.3485
 3303TIP3   OH2 9851   4.978   0.695   1.164 -0.3073 -0.1978 -0.2473
 3303TIP3    H1 9852   4.891   0.692   1.205  0.3097  0.4731  1.2052
 3303TIP3    H2 9853   5.025   0.760   1.215  1.6999 -1.9759  0.2942
 3304TIP3   OH2 9854   1.924   4.358   1.140  0.1449 -0.0889 -0.4993
 3304TIP3    H1 9855   1.925   4.280   1.195 -0.5019 -0.8761 -1.5578
 3304TIP3    H2 9856   1.845   4.406   1.165 -1.1713 -1.3931 -1.9635
 3305TIP3   OH2 9857   0.045   5.398   5.514 -0.0302 -0.4924  0.5095
 3305TIP3    H1 9858  -0.009   5.408   5.435  0.4451 -0.1882  0.2218
 3305TIP3    H2 9859  -0.013   5.424   5.586 -0.1445  0.2393  0.1615
 3306TIP3   OH2 9860   1.019   5.785   0.440 -0.2877  0.3881 -0.7075
 3306TIP3    H1 9861   1.023   5.877   0.465  0.1219  0.2337 -0.2043
 3306TIP3    H2 9862   1.108   5.764   0.412 -0.1092 -0.1440  0.2238
 3307TIP3   OH2 9863   7.015   4.772   0.030 -0.9057  0.1208 -0.0632
 3307TIP3    H1 9864   7.069   4.812   0.098 -0.2870  0.5260 -0.7792
 3307TIP3    H2 9865   7.034   4.678   0.037 -0.8873  0.1552  0.3612
 3308TIP3   OH2 9866   5.937   7.023   0.412  0.1083  0.0027  0.6062
 3308TIP3    H1 9867   5.999   7.084   0.453 -0.8455  0.0509  2.0296
 3308TIP3    H2 9868   5.945   7.041   0.318  0.9218  1.2850  0.8903
 3309TIP3   OH2 9869   3.510   2.127   2.962  0.4356 -0.0177  0.0700
 3309TIP3    H1 9870   3.591   2.169   2.991 -0.1345  1.3911 -0.2761
 3309TIP3    H2 9871   3.447   2.145   3.032 -0.1876  0.9554 -0.7040
 3310TIP3   OH2 9872   2.403   4.150   2.038  0.1268  0.2404 -0.3930
 3310TIP3    H1 9873   2.345   4.189   2.103 -0.1132  0.1878 -0.5728
 3310TIP3    H2 9874   2.395   4.056   2.053  1.1851  0.2694  0.4536
 3311TIP3   OH2 9875   0.360   6.061   5.932  1.0676 -0.2198 -0.5598
 3311TIP3    H1 9876   0.395   6.044   6.020 -0.3143  0.1656  0.0844
 3311TIP3    H2 9877   0.324   5.976   5.904  1.7458 -0.4092 -0.8783
 3312TIP3   OH2 9878   3.683   0.774   2.041 -0.1380  0.2735  0.2344
 3312TIP3    H1 9879   3.662   0.732   1.958  0.6652  0.8488 -0.2810
 3312TIP3    H2 9880   3.706   0.864   2.017  0.6574  0.2878  1.0011
 3313TIP3   OH2 9881   3.588   5.502   0.988  0.4003  0.0951 -0.2948
 3313TIP3    H1 9882   3.585   5.415   1.028 -1.6160 -0.6305 -1.8568
 3313TIP3    H2 9883   3.572   5.487   0.895  1.9404  1.9899 -0.9422
 3314TIP3   OH2 9884   6.819   6.409   0.438  0.4305  0.0177  0.2923
 3314TIP3    H1 9885   6.843   6.446   0.523  0.5684  1.1566 -0.2252
 3314TIP3    H2 9886   6.752   6.344   0.458  0.8086 -0.0739  1.3181
 3315TIP3   OH2 9887   2.327   2.437   5.421 -0.2490  0.2972  0.0251
 3315TIP3    H1 9888   2.361   2.351   5.444 -0.4887 -0.0273 -0.8017
 3315TIP3    H2 9889   2.360   2.495   5.490 -0.4949 -0.5321  0.8588
 3316TIP3   OH2 9890   6.200   4.253   3.680  0.5622  0.3723  0.2467
 3316TIP3    H1 9891   6.115   4.293   3.663  0.0740 -0.1974  1.3245
 3316TIP3    H2 9892   6.244   4.256   3.595 -0.4596  0.8155 -0.2891
 3317TIP3   OH2 9893   4.436   0.532   1.206 -0.1956 -0.4690  0.6336
 3317TIP3    H1 9894   4.492   0.606   1.228  0.0157 -0.5789  0.4651
 3317TIP3    H2 9895   4.431   0.534   1.110 -0.9486 -0.1097  0.6707
 3318TIP3   OH2 9896   1.479   0.297   3.096 -0.5216  0.0331 -0.2936
 3318TIP3    H1 9897   1.460   0.238   3.023  0.7950 -1.2005  0.3236
 3318TIP3    H2 9898   1.529   0.244   3.158 -0.2799  1.4899  0.8172
 3319TIP3   OH2 9899   3.119   1.131   5.475 -0.0798 -0.2370  0.3568
 3319TIP3    H1 9900   3.186   1.196   5.496  0.3119 -0.5654  0.1175
 3319TIP3    H2 9901   3.038   1.183   5.467  0.3491  0.3153 -0.5008
 3320TIP3   OH2 9902   7.809   3.084   3.026  0.1593  0.2262  0.3667
 3320TIP3    H1 9903   7.862   3.148   2.977 -0.0390 -0.3212 -0.5971
 3320TIP3    H2 9904   7.745   3.053   2.962 -0.3352 -0.2607  1.0911
 3321TIP3   OH2 9905   2.347   4.086   0.980  0.2350  0.0799 -0.0354
 3321TIP3    H1 9906   2.291   4.067   1.055  1.8467 -2.3158  0.6987
 3321TIP3    H2 9907   2.399   4.162   1.007 -0.8949  0.7625  0.2559
 3322TIP3   OH2 9908   6.820   2.958   4.678 -0.6255 -0.0427  0.3380
 3322TIP3    H1 9909   6.817   3.047   4.713 -1.8667 -0.3128  0.9417
 3322TIP3    H2 9910   6.771   2.963   4.596 -1.7316 -0.4094  0.9582
 3323TIP3   OH2 9911   3.493   0.155   3.458  0.3967  0.9182 -0.0063
 3323TIP3    H1 9912   3.474   0.087   3.394  2.0941 -0.4049  0.8152
 3323TIP3    H2 9913   3.433   0.226   3.436 -2.8551 -1.4957  0.2458
 3324TIP3   OH2 9914   2.696   6.392   4.901  0.0782 -0.2667  0.2814
 3324TIP3    H1 9915   2.617   6.428   4.941 -0.1232 -0.7155  0.2967
 3324TIP3    H2 9916   2.734   6.465   4.853 -1.0077 -0.3437 -0.7490
 3325TIP3   OH2 9917   4.855   3.359   4.210 -0.2838 -0.1388  0.3882
 3325TIP3    H1 9918   4.923   3.294   4.193 -2.3017 -2.0651 -0.9431
 3325TIP3    H2 9919   4.789   3.342   4.142 -1.4219  2.5955  0.7066
 3326TIP3   OH2 9920   8.007   2.444   1.032 -0.6181  0.1067 -1.4647
 3326TIP3    H1 9921   8.066   2.376   0.999 -1.7259 -3.3736  2.8168
 3326TIP3    H2 9922   7.924   2.428   0.987 -0.2683  0.2486 -2.1811
 3327TIP3   OH2 9923   0.038   5.142   0.875 -0.5348 -0.0886 -0.1649
 3327TIP3    H1 9924   0.024   5.213   0.938 -1.3828  0.7029 -1.2030
 3327TIP3    H2 9925   0.109   5.174   0.819  2.1134 -1.9000  1.9015
 3328TIP3   OH2 9926   6.005   6.963   3.356 -0.6060  0.1762 -0.5335
 3328TIP3    H1 9927   6.027   6.955   3.448 -0.2391  0.1919 -0.6180
 3328TIP3    H2 9928   5.932   6.902   3.343 -0.5287  0.0296 -0.2774
 3329TIP3   OH2 9929   5.247   6.814   3.235 -0.5026  0.2190 -0.1278
 3329TIP3    H1 9930   5.318   6.795   3.296 -0.4334  0.9972  0.0462
 3329TIP3    H2 9931   5.263   6.904   3.208 -0.5047 -0.1238 -1.3338
 3330TIP3   OH2 9932   1.832   1.681   3.478 -0.3349 -0.7785 -0.0946
 3330TIP3    H1 9933   1.910   1.647   3.433  0.0697  0.7171 -0.5778
 3330TIP3    H2 9934   1.795   1.745   3.417 -0.5370  0.3172  1.1294
 3331TIP3   OH2 9935   0.687   6.579   6.742 -0.0850  0.1399 -0.2428
 3331TIP3    H1 9936   0.593   6.570   6.758  0.0493 -0.4867  0.1866
 3331TIP3    H2 9937   0.721   6.621   6.821  0.1622 -0.5855  0.0376
 3332TIP3   OH2 9938   6.122   1.918   5.042 -0.2325  0.1236 -0.1214
 3332TIP3    H1 9939   6.133   1.971   5.121 -1.5970 -0.7945  0.7370
 3332TIP3    H2 9940   6.074   1.975   4.982  2.1681  1.3916 -0.9603
 3333TIP3   OH2 9941   1.904   6.236   6.602 -0.5309  0.1576  0.1499
 3333TIP3    H1 9942   1.822   6.223   6.555 -0.4768 -1.4578  0.4280
 3333TIP3    H2 9943   1.886   6.205   6.691  0.6303 -1.1704 -0.0360
 3334TIP3   OH2 9944   0.710   2.949   0.574  0.7835 -0.1860 -0.3658
 3334TIP3    H1 9945   0.774   2.940   0.503 -0.6224  0.0896 -1.7211
 3334TIP3    H2 9946   0.630   2.910   0.539  0.3074 -0.9579  1.4651
 3335TIP3   OH2 9947   7.711   3.738   0.081 -0.0099  0.4655 -0.2316
 3335TIP3    H1 9948   7.675   3.725   0.169  1.4764  0.2324  0.3734
 3335TIP3    H2 9949   7.765   3.660   0.065 -0.9506  0.0670 -1.7423
 3336TIP3   OH2 9950   4.042   4.142   0.442  0.0753 -0.5184  0.1419
 3336TIP3    H1 9951   4.124   4.187   0.419  0.7571 -1.3712  0.8238
 3336TIP3    H2 9952   3.988   4.209   0.483  1.6740 -0.6069  2.5616
 3337TIP3   OH2 9953   0.195   1.320   5.967 -0.2679  0.2589 -1.0464
 3337TIP3    H1 9954   0.102   1.339   5.949 -0.3552 -0.3088 -1.2255
 3337TIP3    H2 9955   0.237   1.326   5.881 -0.1248  0.5667 -0.9570
 3338TIP3   OH2 9956   7.695   7.479   3.835 -0.6765 -0.2271 -0.1503
 3338TIP3    H1 9957   7.620   7.442   3.882  0.0211  0.0143  1.2308
 3338TIP3    H2 9958   7.770   7.462   3.893  0.0795  0.9187 -0.7429
 3339TIP3   OH2 9959   4.445   3.636   4.475 -0.2535  0.3519  0.1610
 3339TIP3    H1 9960   4.532   3.622   4.439 -0.0917 -0.3992  0.7965
 3339TIP3    H2 9961   4.385   3.603   4.408 -0.2971  4.1599 -1.8879
 3340TIP3   OH2 9962   5.159   6.162   2.634  0.1984  0.2594  0.1382
 3340TIP3    H1 9963   5.082   6.217   2.652 -1.7002 -1.0463 -3.1452
 3340TIP3    H2 9964   5.125   6.072   2.637  2.5036 -0.6685  2.1225
 3341TIP3   OH2 9965   3.904   1.418   4.410 -0.2853  0.5471  0.2613
 3341TIP3    H1 9966   3.953   1.353   4.359 -1.9443 -1.4715  1.0656
 3341TIP3    H2 9967   3.925   1.398   4.501 -1.3945  0.6131  0.5563
 3342TIP3   OH2 9968   0.186   7.648   4.823  0.3035  0.7119  0.2636
 3342TIP3    H1 9969   0.124   7.588   4.864 -1.8504  2.1962 -0.6436
 3342TIP3    H2 9970   0.246   7.591   4.775 -0.9568 -0.7645  0.3649
 3343TIP3   OH2 9971   3.579   1.361   6.075  0.0732 -0.3544  0.0900
 3343TIP3    H1 9972   3.547   1.330   5.991 -0.9727  1.4422 -0.2102
 3343TIP3    H2 9973   3.659   1.310   6.090 -0.5593 -1.8142 -1.2175
 3344TIP3   OH2 9974   2.900   2.057   2.438  0.5269  0.6640 -0.0131
 3344TIP3    H1 9975   2.948   2.137   2.419  1.5250  0.5705  1.8838
 3344TIP3    H2 9976   2.966   1.995   2.469 -0.4614 -0.3411  0.1809
 3345TIP3   OH2 9977   7.069   1.353   4.110  0.3860 -0.0228 -0.3470
 3345TIP3    H1 9978   6.981   1.391   4.106  0.0852 -0.6590 -0.0316
 3345TIP3    H2 9979   7.128   1.428   4.110 -0.1799  0.4367  0.1402
 3346TIP3   OH2 9980   5.293   4.810   1.451  0.1985  0.3549 -0.1585
 3346TIP3    H1 9981   5.283   4.897   1.490 -1.3504  0.7959 -1.4674
 3346TIP3    H2 9982   5.299   4.826   1.357 -1.5041 -1.0194 -0.5411
 3347TIP3   OH2 9983   7.500   1.489   2.446 -0.2130 -0.1126 -0.3534
 3347TIP3    H1 9984   7.539   1.423   2.503  0.8207  0.8701  0.1166
 3347TIP3    H2 9985   7.472   1.439   2.369  1.3368 -1.0005 -0.4039
 3348TIP3   OH2 9986   6.876   7.125   1.145  0.6714  0.2552 -1.0047
 3348TIP3    H1 9987   6.949   7.159   1.093  1.8760 -0.5416  0.0925
 3348TIP3    H2 9988   6.880   7.030   1.133 -1.1676  0.2557 -2.1271
 3349TIP3   OH2 9989   6.914   3.452   2.775 -0.0037 -0.3783  0.0593
 3349TIP3    H1 9990   6.956   3.517   2.719 -0.4565 -0.1826 -0.0545
 3349TIP3    H2 9991   6.955   3.465   2.861  0.4123 -0.4202 -0.1283
 3350TIP3   OH2 9992   0.766   3.355   2.181 -0.3566  0.3147 -0.7291
 3350TIP3    H1 9993   0.764   3.441   2.223 -0.8152  1.2031 -2.4785
 3350TIP3    H2 9994   0.701   3.361   2.111 -2.2633 -2.2893  0.6174
 3351TIP3   OH2 9995   1.812   2.896   0.388  0.0044 -0.2613  0.1196
 3351TIP3    H1 9996   1.848   2.861   0.307 -0.4745 -0.1179 -0.1557
 3351TIP3    H2 9997   1.729   2.935   0.363 -0.3674 -0.6305  0.7595
 3352TIP3   OH2 9998   2.129   1.130   2.459  0.2336  0.2400 -0.5240
 3352TIP3    H1 9999   2.084   1.207   2.492  1.7995  0.7669  0.4384
 3352TIP3    H210000   2.093   1.118   2.371 -1.4296  0.8903  0.0160
 3353TIP3   OH210001   3.835   6.629   4.761 -0.4993  0.1755  0.5011
 3353TIP3    H110002   3.922   6.667   4.769 -0.1370 -0.7701  1.2948
 3353TIP3    H210003   3.780   6.699   4.726  0.3505  1.0943  0.9828
 3354TIP3   OH210004   5.433   5.634   0.398 -0.1533  0.1790 -0.1339
 3354TIP3    H110005   5.443   5.729   0.405  0.7576  0.1236 -0.6035
 3354TIP3    H210006   5.354   5.622   0.346 -0.6133  0.6666  0.4334
 3355TIP3   OH210007   4.669   3.100   0.415 -0.2105  0.8153  0.0038
 3355TIP3    H110008   4.682   3.137   0.502  3.1088  2.3289 -1.0085
 3355TIP3    H210009   4.690   3.007   0.426  0.1091  0.9719  0.8250
 3356TIP3   OH210010   1.472   7.227   5.300  0.0647  0.4121 -0.3597
 3356TIP3    H110011   1.566   7.231   5.278  0.1573 -0.1649 -0.0766
 3356TIP3    H210012   1.428   7.225   5.215  0.1776  2.8791 -0.5605
 3357TIP3   OH210013   5.761   6.519   5.507 -0.9324 -0.3952 -0.0871
 3357TIP3    H110014   5.673   6.484   5.493 -1.4333 -0.5687  2.8661
 3357TIP3    H210015   5.812   6.443   5.534 -0.0506 -0.1326 -0.9510
 3358TIP3   OH210016   1.035   2.020   5.992  0.4127  0.3597 -0.6088
 3358TIP3    H110017   1.062   2.027   6.084 -0.2797 -1.5624 -0.2164
 3358TIP3    H210018   1.111   1.982   5.948  0.0776 -0.5673 -0.4202
 3359TIP3   OH210019   2.300   0.375   3.375  0.2318  0.0888  0.4850
 3359TIP3    H110020   2.377   0.408   3.329 -0.1071  0.9232  0.5023
 3359TIP3    H210021   2.226   0.417   3.332 -0.2263 -0.6860  0.4845
 3360TIP3   OH210022   2.511   2.074   0.560 -0.1859 -0.5247  0.0836
 3360TIP3    H110023   2.537   1.995   0.608  0.1029 -0.1485  0.5448
 3360TIP3    H210024   2.443   2.114   0.613  0.8278  0.4295  0.7222
 3361TIP3   OH210025   0.364   1.470   3.414 -0.2242  0.7146  0.2287
 3361TIP3    H110026   0.427   1.512   3.356  0.1781  0.4324  0.4529
 3361TIP3    H210027   0.400   1.483   3.502 -0.0444 -0.1726  0.2957
 3362TIP3   OH210028   1.791   6.951   2.202  0.1630  0.1463  0.2618
 3362TIP3    H110029   1.875   6.905   2.204  0.5058  0.6951 -0.8587
 3362TIP3    H210030   1.761   6.944   2.112 -0.2821  1.2115  0.3022
 3363TIP3   OH210031   2.624   1.976   1.825 -0.2737 -0.7347  0.1333
 3363TIP3    H110032   2.595   2.015   1.907 -0.9877 -0.3171 -0.3049
 3363TIP3    H210033   2.643   2.050   1.768  0.8463 -1.0165  0.1258
 3364TIP3   OH210034   4.080   2.984   4.100  0.5959  0.5024  0.0013
 3364TIP3    H110035   4.111   2.902   4.137  0.5945 -0.2891 -1.6335
 3364TIP3    H210036   3.994   2.997   4.139  0.6584 -0.2125  0.3892
 3365TIP3   OH210037   6.716   7.534   2.477  0.1493 -0.1284 -0.0275
 3365TIP3    H110038   6.702   7.443   2.451 -1.7999  0.3550 -0.8139
 3365TIP3    H210039   6.768   7.528   2.558  0.3506 -1.9117 -0.2493
 3366TIP3   OH210040   4.447   7.350   0.904 -0.5263 -0.0581 -0.3004
 3366TIP3    H110041   4.433   7.421   0.842  0.1990  1.6707  1.4075
 3366TIP3    H210042   4.506   7.387   0.969 -1.5887 -1.6277  1.6602
 3367TIP3   OH210043   4.845   0.536   0.943  0.4038 -0.6128 -0.5498
 3367TIP3    H110044   4.888   0.585   0.873  1.9162  0.2406  0.8906
 3367TIP3    H210045   4.873   0.580   1.024 -0.6042 -2.0494  0.6481
 3368TIP3   OH210046   3.855   4.740   1.565  0.4257  0.1583 -0.0067
 3368TIP3    H110047   3.774   4.770   1.522  1.1129 -0.7900 -2.1016
 3368TIP3    H210048   3.850   4.776   1.653 -3.0643 -1.1825  0.5091
 3369TIP3   OH210049   4.011   4.420   5.190 -0.3423  0.5675  0.3910
 3369TIP3    H110050   3.926   4.380   5.173  1.0879 -2.9655  0.5576
 3369TIP3    H210051   4.017   4.422   5.286  0.7931 -2.0444  0.4645
 3370TIP3   OH210052   5.706   0.032   4.971  0.1829 -0.3026 -0.3601
 3370TIP3    H110053   5.703   0.084   4.891 -1.6292  2.1081  1.1212
 3370TIP3    H210054   5.726   0.095   5.040 -2.8690 -1.2992  1.6494
 3371TIP3   OH210055   3.808   6.435   2.952  0.7913  0.0486  0.3843
 3371TIP3    H110056   3.776   6.516   2.913  2.0849  0.3578 -0.0842
 3371TIP3    H210057   3.730   6.379   2.960 -0.3926  1.8049  1.9731
 3372TIP3   OH210058   1.826   4.151   1.819 -0.2944 -0.3406 -1.2752
 3372TIP3    H110059   1.833   4.246   1.809 -1.6547 -0.1876 -0.8740
 3372TIP3    H210060   1.858   4.116   1.736 -2.0929  0.5771 -2.4175
 3373TIP3   OH210061   6.120   2.023   2.771 -0.0128 -0.6230 -0.0060
 3373TIP3    H110062   6.048   1.970   2.738 -1.2585  1.0111 -0.0392
 3373TIP3    H210063   6.198   1.970   2.755 -0.8179 -1.0818 -3.0642
 3374TIP3   OH210064   4.564   5.818   5.825  0.3065 -0.8254 -0.1921
 3374TIP3    H110065   4.510   5.740   5.836  2.2718 -2.2869 -0.3911
 3374TIP3    H210066   4.633   5.809   5.891 -0.6852  1.9883  1.4211
 3375TIP3   OH210067   2.138   4.351   1.864 -0.2227 -0.2346  0.0092
 3375TIP3    H110068   2.064   4.408   1.884 -0.4906 -0.5772  0.0060
 3375TIP3    H210069   2.099   4.275   1.822 -0.2089 -1.7184  2.5148
 3376TIP3   OH210070   4.270   5.477   2.431 -0.1760 -0.0426 -0.7591
 3376TIP3    H110071   4.337   5.409   2.443  0.5838  0.7783 -0.1851
 3376TIP3    H210072   4.194   5.443   2.478 -0.8209 -1.8295 -2.9583
 3377TIP3   OH210073   3.388   5.024   0.670  0.0615 -0.2183 -0.0973
 3377TIP3    H110074   3.442   4.953   0.634 -0.4886 -0.8491  0.2993
 3377TIP3    H210075   3.338   4.983   0.740  0.0004  0.6561  0.3794
 3378TIP3   OH210076   6.620   4.031   4.622 -0.0085 -0.3783 -0.0716
 3378TIP3    H110077   6.546   4.091   4.631  1.0503  0.9730 -0.1524
 3378TIP3    H210078   6.600   3.960   4.684 -1.1782  0.1436  0.1795
 3379TIP3   OH210079   4.255   4.323   5.120 -0.0918  0.1045  0.5549
 3379TIP3    H110080   4.228   4.241   5.078 -0.4988 -0.1382  1.2779
 3379TIP3    H210081   4.175   4.372   5.132  0.2252  0.8851 -0.4187
 3380TIP3   OH210082   7.756   1.139   3.295 -0.1189 -0.1385  0.2225
 3380TIP3    H110083   7.813   1.078   3.343 -3.1347 -1.7675  2.0052
 3380TIP3    H210084   7.693   1.083   3.250 -0.2073  1.5811 -1.9606
 3381TIP3   OH210085   5.790   2.257   4.922  0.3556 -0.5147  0.4214
 3381TIP3    H110086   5.786   2.300   4.836 -0.4575  0.6714  1.0269
 3381TIP3    H210087   5.854   2.308   4.971 -0.4200 -0.1210  1.0572
 3382TIP3   OH210088   4.601   3.580   4.722 -1.1775  0.4203 -0.3623
 3382TIP3    H110089   4.641   3.522   4.657  0.7385  1.1730  0.0861
 3382TIP3    H210090   4.627   3.668   4.695 -0.0245  0.7288  1.5919
 3383TIP3   OH210091   1.926   1.783   1.933 -0.0641 -0.4930 -0.6425
 3383TIP3    H110092   1.961   1.808   1.848 -1.9591  1.3018 -0.9977
 3383TIP3    H210093   1.944   1.858   1.990 -1.4464 -0.3880 -0.3059
 3384TIP3   OH210094   1.014   7.479   2.083 -0.0677 -0.2311  0.5861
 3384TIP3    H110095   1.045   7.569   2.087 -1.9243  0.5127 -0.5426
 3384TIP3    H210096   1.016   7.457   1.989  0.6094 -1.4744  0.8630
 3385TIP3   OH210097   7.855   3.979   6.000 -0.1645 -0.6238 -0.1531
 3385TIP3    H110098   7.888   4.067   6.014  0.2481 -1.0139  1.5397
 3385TIP3    H210099   7.825   3.979   5.909 -0.7884  1.4493 -0.0037
 3386TIP3   OH210100   0.930   4.404   5.227 -0.4951 -0.8851  0.1944
 3386TIP3    H110101   0.898   4.465   5.293 -1.5207  0.2124 -1.2576
 3386TIP3    H210102   0.887   4.321   5.247 -0.8978 -0.5276  0.8059
 3387TIP3   OH210103   1.700   3.829   3.992 -0.0770  0.0726 -0.1988
 3387TIP3    H110104   1.770   3.776   4.030 -0.4541 -0.0905  0.2783
 3387TIP3    H210105   1.735   3.858   3.908  1.2019  1.3489  0.7365
 3388TIP3   OH210106   3.835   0.323   2.634 -0.1652  0.2026 -0.1618
 3388TIP3    H110107   3.902   0.284   2.690  0.3192  0.0264 -0.8506
 3388TIP3    H210108   3.825   0.412   2.667 -1.3422 -0.4928  1.4883
 3389TIP3   OH210109   6.491   5.699   1.023 -0.3740  0.0357  0.5274
 3389TIP3    H110110   6.474   5.635   0.954 -0.2488  0.0372  0.4961
 3389TIP3    H210111   6.583   5.721   1.014 -0.2683 -0.2280  0.9195
 3390TIP3   OH210112   2.476   6.407   5.311  0.5035 -0.6326 -0.1510
 3390TIP3    H110113   2.445   6.448   5.392  0.2542 -2.4620  0.7277
 3390TIP3    H210114   2.559   6.366   5.336 -0.7251 -3.2891 -0.0987
 3391TIP3   OH210115   1.435   7.792   5.084  0.9176 -0.4908  0.8004
 3391TIP3    H110116   1.430   7.723   5.017  1.7048  0.7097 -0.5360
 3391TIP3    H210117   1.348   7.791   5.125 -0.3354  0.0760 -1.6307
 3392TIP3   OH210118   0.757   3.226   2.873  0.1442  0.7010 -0.1514
 3392TIP3    H110119   0.823   3.291   2.898  0.0846  0.2662  1.2272
 3392TIP3    H210120   0.676   3.276   2.864 -0.2750  0.6322  2.5827
 3393TIP3   OH210121   0.589   3.847   3.443  0.2174  0.1678  0.3839
 3393TIP3    H110122   0.591   3.936   3.409  0.1746  0.1229  0.2642
 3393TIP3    H210123   0.499   3.835   3.474  0.2926  0.2549  0.6356
 3394TIP3   OH210124   0.422   7.549   3.522 -0.1794 -0.0004 -0.2225
 3394TIP3    H110125   0.433   7.593   3.438  0.2904 -2.4840 -1.5531
 3394TIP3    H210126   0.508   7.555   3.564 -0.1362  0.3623 -0.3585
 3395TIP3   OH210127   7.858   0.143   3.691 -0.3925  0.1653 -0.4132
 3395TIP3    H110128   7.779   0.111   3.734 -1.2133  1.3315 -0.9887
 3395TIP3    H210129   7.918   0.163   3.762 -1.4643  1.4086  0.1773
 3396TIP3   OH210130   1.123   1.685   0.484  0.1313 -0.1708  0.2541
 3396TIP3    H110131   1.112   1.778   0.464 -1.0785 -0.6254 -1.4431
 3396TIP3    H210132   1.217   1.669   0.473  0.3773  0.8581  0.6987
 3397TIP3   OH210133   3.746   1.962   0.323 -0.2324 -0.2193 -0.2030
 3397TIP3    H110134   3.826   1.914   0.345  0.2069  0.5412 -0.1104
 3397TIP3    H210135   3.703   1.908   0.256  1.2248  0.2043 -1.5243
 3398TIP3   OH210136   2.035   5.228   3.104  0.7540 -0.1116 -0.7724
 3398TIP3    H110137   2.085   5.160   3.149  0.7814 -0.3230 -1.1187
 3398TIP3    H210138   1.985   5.271   3.173 -1.1347 -2.0469 -0.8641
 3399TIP3   OH210139   2.509   2.998   1.359 -0.1320 -0.4801  0.0434
 3399TIP3    H110140   2.452   2.923   1.369  1.2278 -1.4123  1.2165
 3399TIP3    H210141   2.538   2.995   1.268  1.3366 -2.4974  0.5121
 3400TIP3   OH210142   8.208   6.696   3.180  0.5506 -0.0070  0.4790
 3400TIP3    H110143   8.299   6.667   3.182  0.0357 -1.9965 -1.3453
 3400TIP3    H210144   8.165   6.648   3.250  0.6710  0.0888  0.6193
 3401TIP3   OH210145   3.415   7.211   5.327  0.0290  0.1140 -0.3972
 3401TIP3    H110146   3.467   7.163   5.391  1.9795  0.3769 -1.6909
 3401TIP3    H210147   3.337   7.238   5.375  0.6760 -1.0372  1.4109
 3402TIP3   OH210148   2.990   2.205   1.570 -0.3206 -0.2349  0.1861
 3402TIP3    H110149   2.918   2.149   1.539 -0.3134  0.5239 -1.3169
 3402TIP3    H210150   3.015   2.256   1.493  0.5878  0.8615  1.1693
 3403TIP3   OH210151   5.147   0.362   5.398 -0.9218 -0.3705 -0.7167
 3403TIP3    H110152   5.111   0.283   5.439 -0.3000 -0.0331  0.5221
 3403TIP3    H210153   5.143   0.428   5.466 -0.7234  0.4704 -1.5090
 3404TIP3   OH210154   3.315   4.874   4.151  0.2342 -0.1645  0.1946
 3404TIP3    H110155   3.269   4.816   4.091  0.9956 -0.9137  0.3090
 3404TIP3    H210156   3.296   4.962   4.119 -1.3112 -0.4401  0.2834
 3405TIP3   OH210157   4.177   5.647   3.875  0.6063 -0.3160  0.2364
 3405TIP3    H110158   4.151   5.585   3.943 -1.8147 -0.3414 -0.6238
 3405TIP3    H210159   4.095   5.684   3.843  1.8603  1.8607 -0.6766
 3406TIP3   OH210160   0.352   4.355   6.679 -0.2984  0.0430  0.0215
 3406TIP3    H110161   0.320   4.329   6.766  1.1908 -0.2542  0.5132
 3406TIP3    H210162   0.368   4.272   6.634  0.4310  0.1649  0.0442
 3407TIP3   OH210163   7.601   6.681   4.082 -0.2356 -0.1430 -0.6183
 3407TIP3    H110164   7.581   6.727   4.164 -1.9158  0.8211 -1.4952
 3407TIP3    H210165   7.660   6.610   4.107  3.1069  2.8302  0.7401
 3408TIP3   OH210166   3.676   2.935   0.337 -0.5399 -0.2069 -0.0247
 3408TIP3    H110167   3.742   2.866   0.332 -0.8035 -0.4437 -0.2783
 3408TIP3    H210168   3.724   3.012   0.367  0.2379  0.0970 -1.8689
 3409TIP3   OH210169   4.945   1.103   1.220 -0.3186 -0.0885  0.2382
 3409TIP3    H110170   5.039   1.109   1.204  0.1508  0.6195  2.8139
 3409TIP3    H210171   4.920   1.190   1.254 -1.8823 -0.2922 -0.2969
 3410TIP3   OH210172   3.972   1.913   0.576 -0.5551  0.1567 -0.0349
 3410TIP3    H110173   3.890   1.865   0.576  0.3541 -1.4778 -0.1835
 3410TIP3    H210174   4.022   1.877   0.503  0.1149  1.4607 -0.2620
 3411TIP3   OH210175   2.765   0.931   2.997 -0.0663 -0.1528 -1.1412
 3411TIP3    H110176   2.788   0.884   2.917 -0.4386  0.0022 -1.3416
 3411TIP3    H210177   2.848   0.965   3.030  0.3149 -1.4772 -0.6556
 3412TIP3   OH210178   5.816   0.166   4.136  0.1766 -0.4219 -0.5841
 3412TIP3    H110179   5.780   0.119   4.211 -0.4011  0.2663 -0.4192
 3412TIP3    H210180   5.897   0.120   4.116  0.1731 -0.8198  0.2549
 3413TIP3   OH210181   6.553   0.190   3.491 -0.0139  0.6834  0.2226
 3413TIP3    H110182   6.476   0.133   3.488  1.3166 -1.2284 -0.1854
 3413TIP3    H210183   6.540   0.252   3.420 -0.0109 -1.3219 -1.6546
 3414TIP3   OH210184   7.999   6.125   3.047  0.3497  0.1509 -0.6950
 3414TIP3    H110185   8.071   6.165   2.998  0.0002  1.1707 -0.3874
 3414TIP3    H210186   8.037   6.102   3.131  0.0644  1.7321 -0.1004
 3415TIP3   OH210187   4.751   1.028   3.710 -0.4572 -0.2085 -0.5921
 3415TIP3    H110188   4.812   1.034   3.783  1.1889  0.2290 -1.9476
 3415TIP3    H210189   4.665   1.048   3.748  0.6532  2.2604  0.8175
 3416TIP3   OH210190   6.991   0.432   0.407  0.4337 -0.2964  0.0069
 3416TIP3    H110191   6.992   0.390   0.321 -1.5304  1.0106 -0.7459
 3416TIP3    H210192   6.952   0.367   0.465 -0.2420 -0.4386 -0.5877
 3417TIP3   OH210193   0.234   0.604   3.534  0.2813  0.1871 -0.6184
 3417TIP3    H110194   0.320   0.608   3.575  0.4035 -2.7680 -0.3596
 3417TIP3    H210195   0.251   0.572   3.445 -0.5073  0.3423 -0.8365
 3418TIP3   OH210196   5.805   0.930   1.908 -0.5348  0.3044 -0.2174
 3418TIP3    H110197   5.764   0.845   1.892  1.5749 -0.4926 -1.8025
 3418TIP3    H210198   5.888   0.909   1.951 -0.4512  1.6473  0.3305
 3419TIP3   OH210199   7.054   4.149   1.236  0.0272 -0.2338  0.3214
 3419TIP3    H110200   7.046   4.101   1.319 -0.3156 -0.4657  0.1578
 3419TIP3    H210201   7.009   4.093   1.173 -2.0380  1.1689  0.4640
 3420TIP3   OH210202   7.386   6.615   6.439 -0.1209  0.6651 -0.1400
 3420TIP3    H110203   7.465   6.593   6.389  0.7051 -0.3142  1.4757
 3420TIP3    H210204   7.350   6.530   6.465 -0.6232  1.1330  0.7467
 3421TIP3   OH210205   5.528   7.429   1.067  0.2517  0.6657 -0.0640
 3421TIP3    H110206   5.535   7.467   0.979 -2.2891 -1.0387 -1.1104
 3421TIP3    H210207   5.454   7.475   1.107  0.8018  0.7751  0.8518
 3422TIP3   OH210208   3.995   5.877   6.462  0.0598  0.2439  0.1025
 3422TIP3    H110209   3.920   5.922   6.423  0.6095  0.5621 -0.6400
 3422TIP3    H210210   4.057   5.868   6.389 -0.1213 -1.9473  0.1662
 3423TIP3   OH210211   8.108   6.325   5.659 -0.0983  0.5977  0.0508
 3423TIP3    H110212   8.199   6.355   5.662 -0.2382  1.0731 -0.3617
 3423TIP3    H210213   8.102   6.273   5.579 -0.0621  0.1367  0.3454
 3424TIP3   OH210214   4.312   1.189   5.952  0.0814 -0.8903 -1.2574
 3424TIP3    H110215   4.364   1.230   5.883 -0.6926  0.8891 -0.8399
 3424TIP3    H210216   4.346   1.226   6.033  0.0018 -1.8448 -0.7686
 3425TIP3   OH210217   6.142   1.915   5.640 -0.4697  0.2533  0.2437
 3425TIP3    H110218   6.201   1.942   5.570 -0.1545 -1.5807 -0.2590
 3425TIP3    H210219   6.110   1.829   5.613 -2.9095  0.8898  0.8098
 3426TIP3   OH210220   7.531   6.391   1.546 -0.5918 -0.4937  0.3740
 3426TIP3    H110221   7.493   6.445   1.475  0.7708 -0.0682 -0.0553
 3426TIP3    H210222   7.530   6.449   1.622  2.0865  0.7226 -0.3850
 3427TIP3   OH210223   7.573   2.614   0.528  0.0865 -0.1581 -0.0758
 3427TIP3    H110224   7.641   2.612   0.460 -0.7498  0.4945 -0.9629
 3427TIP3    H210225   7.497   2.574   0.486 -0.9511  1.7757 -0.1343
 3428TIP3   OH210226   1.475   1.221   4.302 -0.0027  0.1923 -0.4269
 3428TIP3    H110227   1.523   1.300   4.277 -0.4263  1.1465  1.5422
 3428TIP3    H210228   1.525   1.149   4.265  1.3473  1.2955 -0.8230
 3429TIP3   OH210229   3.103   1.033   5.193  0.3679 -0.2277 -0.6586
 3429TIP3    H110230   3.066   1.030   5.281 -0.6577  0.8488 -1.0152
 3429TIP3    H210231   3.187   1.077   5.204  0.6186 -0.8194 -0.1207
 3430TIP3   OH210232   1.469   2.399   5.919 -0.1852 -0.5093 -0.4318
 3430TIP3    H110233   1.544   2.459   5.920 -0.9223  0.4463 -0.6282
 3430TIP3    H210234   1.412   2.434   5.851 -0.4074 -1.7501 -0.9140
 3431TIP3   OH210235   2.759   1.030   1.632 -0.1330 -0.4845 -0.4510
 3431TIP3    H110236   2.771   0.964   1.564 -0.2890  1.1025 -2.0758
 3431TIP3    H210237   2.765   1.114   1.586 -3.5830  0.6544  0.8518
 3432TIP3   OH210238   0.524   0.033   1.026  0.1984  0.1508 -0.3317
 3432TIP3    H110239   0.609   0.049   0.986  0.6060 -0.3471  0.3162
 3432TIP3    H210240   0.543  -0.020   1.103 -0.8189 -1.0232 -0.8614
 3433TIP3   OH210241   6.527   6.426   6.731 -0.3472  0.0060  0.3201
 3433TIP3    H110242   6.450   6.382   6.767 -0.8299  0.5547 -0.0219
 3433TIP3    H210243   6.497   6.464   6.648 -0.6383  3.0397  1.7073
 3434TIP3   OH210244   7.135   7.549   6.152 -0.3410 -0.4266  0.7011
 3434TIP3    H110245   7.148   7.495   6.073  1.1009  2.2027 -1.0146
 3434TIP3    H210246   7.193   7.511   6.217  2.0052 -0.0489 -1.0147
 3435TIP3   OH210247   1.003   4.097   0.421  0.5204  0.4130 -0.3481
 3435TIP3    H110248   1.041   4.092   0.333 -0.5282 -0.2238 -0.7947
 3435TIP3    H210249   1.035   4.180   0.457  1.0495  0.6294 -1.2917
 3436TIP3   OH210250   6.188   7.328   0.917 -0.6195  0.1489 -0.7426
 3436TIP3    H110251   6.231   7.331   0.832 -0.8594  1.4081 -0.8303
 3436TIP3    H210252   6.149   7.415   0.928  0.4773  0.4416  1.2173
 3437TIP3   OH210253   4.633   2.336   3.931  0.4704 -0.3851  0.2577
 3437TIP3    H110254   4.648   2.243   3.947  0.8771 -0.4140 -0.2680
 3437TIP3    H210255   4.698   2.360   3.865  1.1135  0.5280  1.1973
 3438TIP3   OH210256   5.845   0.567   6.312 -0.1347  0.5223 -0.1656
 3438TIP3    H110257   5.912   0.636   6.312  0.6125 -0.1822  0.2463
 3438TIP3    H210258   5.882   0.498   6.367 -0.1592 -0.8873 -1.8385
 3439TIP3   OH210259   0.506   1.335   1.811  0.5415 -0.2907  0.1346
 3439TIP3    H110260   0.580   1.317   1.869  0.7388 -2.6770 -0.7435
 3439TIP3    H210261   0.529   1.293   1.728 -1.1491  0.2160 -0.6518
 3440TIP3   OH210262   7.659   2.036   4.442  0.5573 -0.3825 -0.5645
 3440TIP3    H110263   7.650   1.948   4.478 -2.6764 -0.2524 -0.7766
 3440TIP3    H210264   7.629   2.028   4.352 -1.5044  1.1583 -0.1020
 3441TIP3   OH210265   4.046   1.418   6.010  0.3819 -0.7943 -0.1843
 3441TIP3    H110266   4.013   1.335   5.977 -2.6411  0.4892 -0.7235
 3441TIP3    H210267   4.002   1.430   6.094 -0.6216  0.9826 -0.9083
 3442TIP3   OH210268   5.567   2.246   5.721  0.1336  0.1217 -0.1578
 3442TIP3    H110269   5.650   2.281   5.752 -0.2353  0.7385  0.1435
 3442TIP3    H210270   5.590   2.199   5.641  0.4449  2.2616 -1.4049
 3443TIP3   OH210271   6.676   6.147   6.776  0.2875 -0.0019 -0.3305
 3443TIP3    H110272   6.629   6.069   6.746 -1.1121  0.4397  0.6217
 3443TIP3    H210273   6.706   6.190   6.696  0.5381 -1.1740 -0.8851
 3444TIP3   OH210274   0.443   7.723   1.469  0.3577 -0.2160  0.9199
 3444TIP3    H110275   0.487   7.670   1.403  1.3743  0.6771  0.8412
 3444TIP3    H210276   0.377   7.773   1.421  0.7241  0.0220  0.6543
 3445TIP3   OH210277   2.106   4.642   2.651  0.2231 -0.1206  0.2338
 3445TIP3    H110278   2.107   4.548   2.633  2.5248  0.1935 -1.8863
 3445TIP3    H210279   2.197   4.663   2.671  0.1665  1.9333 -1.3393
 3446TIP3   OH210280   5.786   0.240   6.760 -0.0224  0.1604 -0.7713
 3446TIP3    H110281   5.800   0.170   6.823  1.3311  0.0383 -1.1861
 3446TIP3    H210282   5.735   0.199   6.690 -0.5314 -0.0003 -0.3198
 3447TIP3   OH210283   0.256   0.239   2.941  0.0796 -0.0800 -0.0756
 3447TIP3    H110284   0.320   0.253   2.872 -0.5789  1.4047 -0.4367
 3447TIP3    H210285   0.214   0.325   2.952  1.3056  0.2734  3.3332
 3448TIP3   OH210286   0.597   1.049   6.396 -0.4200  0.1857 -0.3990
 3448TIP3    H110287   0.596   1.137   6.359 -0.9098 -1.2502 -4.3058
 3448TIP3    H210288   0.513   1.041   6.441  0.5395  2.3031  2.0032
 3449TIP3   OH210289   4.144   1.931   2.651  0.4280  0.0627  0.3489
 3449TIP3    H110290   4.145   1.836   2.654 -0.3866  0.0614  1.9527
 3449TIP3    H210291   4.124   1.953   2.560  1.8286 -1.2472 -0.3141
 3450TIP3   OH210292   7.720   5.315   5.285  0.8150 -0.2695 -0.5196
 3450TIP3    H110293   7.755   5.383   5.227  0.2200 -0.6695 -1.3737
 3450TIP3    H210294   7.795   5.257   5.301  0.9541 -0.2329 -1.0066
 3451TIP3   OH210295   5.317   7.457   0.107 -0.0973  0.5656 -0.4862
 3451TIP3    H110296   5.331   7.362   0.112  3.0316  0.8582 -1.4478
 3451TIP3    H210297   5.244   7.467   0.046 -0.5993 -1.2099 -0.2329
 3452TIP3   OH210298   0.026   5.435   0.823  0.6061 -0.2462  0.0871
 3452TIP3    H110299   0.026   5.525   0.790 -0.0378 -0.6203 -0.9645
 3452TIP3    H210300   0.012   5.444   0.917  0.7562  0.7616  0.0226
 3453TIP3   OH210301   4.965   3.297   6.475 -0.4241  0.1894  0.0841
 3453TIP3    H110302   4.903   3.230   6.444 -1.6299  1.1501  0.3389
 3453TIP3    H210303   4.925   3.380   6.449  0.7768  0.8343  0.2568
 3454TIP3   OH210304   7.178   0.759   0.189 -0.3781  0.1251  0.1388
 3454TIP3    H110305   7.270   0.783   0.190 -0.6494  1.2723 -0.8145
 3454TIP3    H210306   7.177   0.671   0.152  0.1524  1.2120 -2.7284
 3455TIP3   OH210307   3.908   3.240   5.877 -0.2564 -0.2456  0.3802
 3455TIP3    H110308   3.886   3.149   5.893  0.9305 -0.6214 -0.0595
 3455TIP3    H210309   3.974   3.261   5.943 -0.1030  0.1273  0.1128
 3456TIP3   OH210310   1.896   3.461   5.014  0.0340  0.2975  0.1818
 3456TIP3    H110311   1.839   3.399   4.968 -0.2026  1.7062 -1.5148
 3456TIP3    H210312   1.968   3.408   5.048  0.6528 -0.7277 -2.5342
 3457TIP3   OH210313   6.477   2.762   1.484  0.1430  0.0408  0.0603
 3457TIP3    H110314   6.438   2.715   1.411  0.2692  1.0904 -0.7125
 3457TIP3    H210315   6.406   2.816   1.519  0.4968  0.8474 -0.4167
 3458TIP3   OH210316   7.463   0.068   4.335  0.3808  0.1082  0.0253
 3458TIP3    H110317   7.433   0.064   4.245  0.5664 -1.0346  0.0039
 3458TIP3    H210318   7.464  -0.023   4.365  1.1320  0.3880  0.9117
 3459TIP3   OH210319   2.440   2.725   3.907  0.3751 -0.0806 -1.0203
 3459TIP3    H110320   2.383   2.735   3.831 -0.1836 -2.2084 -0.9576
 3459TIP3    H210321   2.383   2.741   3.983  0.2193 -0.6799 -1.0020
 3460TIP3   OH210322   5.225   6.702   5.574 -0.0603 -0.2089  0.8617
 3460TIP3    H110323   5.255   6.658   5.654 -1.2712 -0.5668  1.1405
 3460TIP3    H210324   5.178   6.779   5.605  0.8595  0.5520  0.4196
 3461TIP3   OH210325   3.022   0.235   5.872 -0.0599 -0.1711 -0.4916
 3461TIP3    H110326   3.074   0.292   5.929 -0.3254 -0.2668 -0.1466
 3461TIP3    H210327   3.082   0.165   5.847  0.3410  0.3939 -1.1254
 3462TIP3   OH210328   2.458   0.414   4.053 -0.3503  0.0014  0.0072
 3462TIP3    H110329   2.400   0.352   4.098 -0.4334 -0.3427 -0.5566
 3462TIP3    H210330   2.540   0.409   4.102 -0.4300 -0.3834  0.1115
 3463TIP3   OH210331   7.109   4.683   1.181  0.1833 -0.2652 -0.3551
 3463TIP3    H110332   7.061   4.608   1.215  0.5274 -0.5715 -0.5353
 3463TIP3    H210333   7.057   4.713   1.107 -1.6901  1.6880  1.6091
 3464TIP3   OH210334   2.509   5.081   1.610  0.6803  0.3058  0.3503
 3464TIP3    H110335   2.532   5.146   1.677  0.6659  0.8910 -0.2029
 3464TIP3    H210336   2.562   5.005   1.631 -0.5163 -0.1432  2.0277
 3465TIP3   OH210337   2.372   0.661   1.167  0.4132  0.6903  0.8822
 3465TIP3    H110338   2.413   0.666   1.253  1.1865  1.1424  0.5075
 3465TIP3    H210339   2.441   0.689   1.107  0.5647 -1.5558 -0.0989
 3466TIP3   OH210340   6.365   7.683   1.963 -0.2483  0.6783 -0.4994
 3466TIP3    H110341   6.327   7.704   2.048  2.5711 -0.5004  1.1524
 3466TIP3    H210342   6.442   7.740   1.956  0.1998 -0.0406 -1.7556
 3467TIP3   OH210343   8.120   2.044   3.422 -0.4268 -0.7905  0.3955
 3467TIP3    H110344   8.091   2.065   3.333 -1.2492 -0.8847  0.6371
 3467TIP3    H210345   8.044   2.002   3.463 -0.6506  0.8281  1.7113
 3468TIP3   OH210346   3.125   2.577   5.189 -0.5229  0.0193 -0.1859
 3468TIP3    H110347   3.108   2.607   5.278  0.5819  0.1496  0.0060
 3468TIP3    H210348   3.079   2.638   5.132  0.2062  1.0073  0.2625
 3469TIP3   OH210349   7.075   6.840   5.343  0.4305 -0.1443  0.0658
 3469TIP3    H110350   7.071   6.754   5.300 -0.3892  0.2678 -0.7310
 3469TIP3    H210351   6.985   6.859   5.366  0.8838 -0.4581  2.2816
 3470TIP3   OH210352   6.088   2.603   4.165  0.6887  0.2300  0.5046
 3470TIP3    H110353   6.079   2.584   4.259  1.5098 -1.0193  0.3475
 3470TIP3    H210354   6.174   2.570   4.142  0.7320  1.0626 -0.5806
 3471TIP3   OH210355   3.891   5.047   3.967  0.1504 -0.7476  0.1403
 3471TIP3    H110356   3.967   5.073   4.019 -1.1309  0.5998  1.4296
 3471TIP3    H210357   3.817   5.061   4.025 -1.0598 -2.7893 -0.8034
 3472TIP3   OH210358   8.046   3.536   0.480 -0.5197 -0.1076 -0.1008
 3472TIP3    H110359   7.983   3.463   0.477 -0.9174  0.2537 -1.0824
 3472TIP3    H210360   8.118   3.503   0.533 -0.5459 -1.3427 -0.7840
 3473TIP3   OH210361   1.246   5.495   6.198  0.4629  0.0653 -0.3444
 3473TIP3    H110362   1.316   5.471   6.259  0.9354  1.7215 -0.2024
 3473TIP3    H210363   1.291   5.529   6.121 -0.1412 -1.6772 -1.5439
 3474TIP3   OH210364   6.463   4.811   0.874 -0.0325 -0.2724 -0.3700
 3474TIP3    H110365   6.431   4.738   0.820 -0.7357 -0.5585  0.4228
 3474TIP3    H210366   6.421   4.799   0.959 -1.4888  2.0010 -0.6913
 3475TIP3   OH210367   5.810   6.196   0.412 -0.0530 -0.3685  0.1380
 3475TIP3    H110368   5.824   6.202   0.506  0.3471 -1.1120  0.1338
 3475TIP3    H210369   5.716   6.212   0.401 -0.4386 -1.9327  0.8441
 3476TIP3   OH210370   3.697   1.314   3.332  0.0706  0.5423 -1.3436
 3476TIP3    H110371   3.615   1.268   3.353 -0.9367  2.5517 -0.6560
 3476TIP3    H210372   3.709   1.298   3.238 -0.7452 -0.3125 -1.3252
 3477TIP3   OH210373   7.450   1.786   4.250  0.5479  0.2236  0.0249
 3477TIP3    H110374   7.389   1.720   4.284  0.5142 -0.3237 -1.0606
 3477TIP3    H210375   7.509   1.804   4.323 -0.2108 -0.0856  0.7317
 3478TIP3   OH210376   2.070   2.412   0.059 -0.1386  0.1043 -0.2795
 3478TIP3    H110377   2.005   2.382   0.122  1.0517 -0.9958  0.5010
 3478TIP3    H210378   2.028   2.484   0.013 -1.5470  0.0470  0.8319
 3479TIP3   OH210379   3.962   0.885   4.942 -0.1072 -0.2318 -0.0031
 3479TIP3    H110380   4.010   0.860   5.021 -0.0837  2.7799  1.0802
 3479TIP3    H210381   4.022   0.865   4.870  1.7066  0.8788  1.1210
 3480TIP3   OH210382   2.261   3.209   1.298 -0.7283 -0.0731 -0.1392
 3480TIP3    H110383   2.179   3.175   1.261 -0.1847 -1.5483 -0.0490
 3480TIP3    H210384   2.314   3.131   1.314  0.9922  0.8967 -0.8636
 3481TIP3   OH210385   0.290   0.596   0.548 -0.0878  0.2118  0.8022
 3481TIP3    H110386   0.326   0.646   0.474 -0.8913 -0.0877  0.1884
 3481TIP3    H210387   0.304   0.652   0.624  1.2216  0.3137  0.5230
 3482TIP3   OH210388   0.502   2.631   5.536 -0.5169 -0.1300  0.0743
 3482TIP3    H110389   0.501   2.677   5.452  2.1603 -1.5836 -0.8773
 3482TIP3    H210390   0.468   2.544   5.516  3.1160 -1.6007 -0.4057
 3483TIP3   OH210391   8.250   2.882   3.305  0.2729  0.1101  0.2235
 3483TIP3    H110392   8.173   2.914   3.258  0.4464  1.8635  1.0204
 3483TIP3    H210393   8.300   2.833   3.240 -1.4049 -0.9303 -0.3496
 3484TIP3   OH210394   4.514   5.209   5.020 -0.0439 -0.2674  0.1149
 3484TIP3    H110395   4.504   5.305   5.019  0.7689 -0.1710  0.8482
 3484TIP3    H210396   4.604   5.194   5.047 -0.3921 -1.2645  0.7691
 3485TIP3   OH210397   2.341   4.444   2.418  0.2306 -0.1276  0.0599
 3485TIP3    H110398   2.412   4.382   2.429  0.0147 -0.2718  0.6603
 3485TIP3    H210399   2.263   4.398   2.450  0.4189  1.2311  2.7941
 3486TIP3   OH210400   0.639   0.802   2.872 -0.0010  0.7469  0.1827
 3486TIP3    H110401   0.688   0.725   2.898  0.2389  0.7048 -0.3877
 3486TIP3    H210402   0.549   0.771   2.858  0.3534  0.3346 -1.2201
 3487TIP3   OH210403   1.339   7.233   6.121 -0.5660  0.2747 -0.0367
 3487TIP3    H110404   1.344   7.231   6.217  0.2003  1.3068 -0.0327
 3487TIP3    H210405   1.263   7.179   6.100 -1.2122  0.6568  1.1939
 3488TIP3   OH210406   7.907   6.419   1.145 -0.1814  0.2227  0.2110
 3488TIP3    H110407   7.987   6.472   1.141 -0.4710  0.6155 -1.5234
 3488TIP3    H210408   7.864   6.445   1.226  1.2474  0.3116  0.9634
 3489TIP3   OH210409   2.130   3.785   4.862 -0.4443  0.1686  0.2426
 3489TIP3    H110410   2.091   3.703   4.832 -0.4864  0.3434 -0.1881
 3489TIP3    H210411   2.063   3.825   4.917  0.1616 -0.8279  1.7707
 3490TIP3   OH210412   6.780   5.353   2.231  0.1926 -0.2549 -0.5759
 3490TIP3    H110413   6.862   5.396   2.257  0.4967 -0.1821 -1.6065
 3490TIP3    H210414   6.804   5.260   2.222 -0.3004 -0.5600  0.9681
 3491TIP3   OH210415   3.130   1.461   0.428  0.3371 -0.6630  0.2512
 3491TIP3    H110416   3.055   1.405   0.448  1.2371 -2.1091 -0.3106
 3491TIP3    H210417   3.142   1.514   0.507 -0.4271 -1.3632  0.8592
 3492TIP3   OH210418   6.822   4.836   4.312  0.4028 -0.3406 -0.3415
 3492TIP3    H110419   6.744   4.780   4.311  0.7640 -0.8521 -0.4509
 3492TIP3    H210420   6.814   4.890   4.233  0.2234 -0.4816 -0.4201
 3493TIP3   OH210421   1.174   0.938   6.678  0.1811  0.7262 -0.4559
 3493TIP3    H110422   1.143   1.002   6.613 -1.7722  0.2444 -0.0685
 3493TIP3    H210423   1.125   0.859   6.658 -0.0256  0.4006  1.2406
 3494TIP3   OH210424   2.395   3.490   5.147  0.0391 -0.0672  0.0352
 3494TIP3    H110425   2.364   3.539   5.222  0.5787  0.1687  0.1086
 3494TIP3    H210426   2.315   3.456   5.105 -0.2523 -0.3377  0.8002
 3495TIP3   OH210427   0.629   2.507   3.552  0.2822 -0.6915  0.2647
 3495TIP3    H110428   0.695   2.527   3.485  0.9958 -2.5822  0.3610
 3495TIP3    H210429   0.546   2.508   3.505  0.5186  0.2603 -0.1574
 3496TIP3   OH210430   7.436   4.982   2.685  0.0493 -0.3527  0.1983
 3496TIP3    H110431   7.343   5.002   2.688 -0.1375 -0.9492 -0.9693
 3496TIP3    H210432   7.479   5.067   2.674 -0.4216 -0.1525 -0.1470
 3497TIP3   OH210433   2.377   7.130   4.277  0.3969  0.2022  0.4306
 3497TIP3    H110434   2.374   7.100   4.186  0.1466 -2.7667  1.2970
 3497TIP3    H210435   2.308   7.196   4.283 -1.0518 -1.0878 -1.0722
 3498TIP3   OH210436   0.679   6.834   5.728  0.4107  0.0665  0.6107
 3498TIP3    H110437   0.726   6.916   5.710  1.6983 -0.8824 -0.5128
 3498TIP3    H210438   0.747   6.774   5.761 -0.4225 -0.6935  0.9744
 3499TIP3   OH210439   6.717   4.255   6.203 -0.2842 -0.0273 -0.4730
 3499TIP3    H110440   6.802   4.212   6.204 -0.1977  0.1400 -0.6370
 3499TIP3    H210441   6.712   4.302   6.286  0.1486  0.6685 -0.8252
 3500TIP3   OH210442   1.140   2.116   1.520  0.4477  0.2008 -0.1896
 3500TIP3    H110443   1.115   2.119   1.613  0.5743  1.0149 -0.1751
 3500TIP3    H210444   1.057   2.125   1.473  0.2666 -1.2006 -0.1736
 3501TIP3   OH210445   7.558   2.985   5.482 -0.3777 -0.4643  0.3721
 3501TIP3    H110446   7.514   2.972   5.398  0.1068 -0.0547  0.0511
 3501TIP3    H210447   7.563   2.897   5.519  0.4804 -0.8415 -0.5796
 3502TIP3   OH210448   7.638   0.433   3.397 -0.0434  0.0750 -0.1969
 3502TIP3    H110449   7.720   0.455   3.352 -0.5693 -0.6843 -1.5435
 3502TIP3    H210450   7.666   0.411   3.486  0.9953  1.6789 -0.0806
 3503TIP3   OH210451   1.611   3.226   5.167 -0.1278 -0.3958  0.6421
 3503TIP3    H110452   1.659   3.282   5.227 -2.6229 -0.1974  2.6478
 3503TIP3    H210453   1.638   3.254   5.080  0.6474  2.1446  1.6247
 3504TIP3   OH210454   5.955   5.636   3.131  0.1682  0.5834  0.0228
 3504TIP3    H110455   6.039   5.680   3.117  1.3337 -1.2765  0.8196
 3504TIP3    H210456   5.923   5.619   3.043  0.2767  1.9053 -0.2943
 3505TIP3   OH210457   5.415   5.290   5.632 -0.3954 -0.0574 -0.4136
 3505TIP3    H110458   5.477   5.336   5.576  0.9814  0.7306  1.6486
 3505TIP3    H210459   5.370   5.359   5.680 -1.5238 -0.7193 -0.4688
 3506TIP3   OH210460   3.463   1.596   2.342  0.0390 -0.4323  0.2797
 3506TIP3    H110461   3.376   1.617   2.376 -0.4354 -1.0430 -0.5288
 3506TIP3    H210462   3.461   1.627   2.251  0.3297 -1.3205 -0.0377
 3507TIP3   OH210463   5.028   2.059   5.422 -0.0793 -0.1799 -0.0879
 3507TIP3    H110464   5.061   2.106   5.346  1.5822 -1.6047 -0.3003
 3507TIP3    H210465   5.010   2.127   5.486  0.8653  0.8637 -0.8930
 3508TIP3   OH210466   6.460   7.715   2.875 -0.1785  0.1839 -0.1420
 3508TIP3    H110467   6.517   7.788   2.851  1.2460 -0.5892  0.7481
 3508TIP3    H210468   6.408   7.748   2.948  0.1335  0.4539 -0.0387
 3509TIP3   OH210469   2.423   3.038   1.959  0.6729 -0.2407 -0.4583
 3509TIP3    H110470   2.458   2.949   1.949 -0.6732 -0.8612  0.0934
 3509TIP3    H210471   2.498   3.091   1.984  1.6597 -1.0571 -1.6009
 3510TIP3   OH210472   2.251   6.952   2.268  0.1037 -0.0050 -0.1862
 3510TIP3    H110473   2.198   6.881   2.231  0.7189  0.7828 -2.7930
 3510TIP3    H210474   2.201   7.031   2.251  0.2974  0.3944  0.9997
 3511TIP3   OH210475   1.325   4.690   0.799  0.0886 -1.1361  0.0341
 3511TIP3    H110476   1.376   4.719   0.875  0.2803  0.1901 -0.5763
 3511TIP3    H210477   1.276   4.614   0.831 -0.4290 -0.1559  1.7233
 3512TIP3   OH210478   5.321   1.904   3.813 -0.6889  0.2670  0.3966
 3512TIP3    H110479   5.272   1.986   3.808  0.3982  0.8716 -1.7107
 3512TIP3    H210480   5.261   1.842   3.854 -2.3155  1.5818  0.1045
 3513TIP3   OH210481   1.571   0.574   5.958  0.3584  0.0169 -0.1688
 3513TIP3    H110482   1.636   0.539   6.019 -0.3616 -2.2546 -0.6256
 3513TIP3    H210483   1.606   0.556   5.871 -0.7185 -0.9980 -0.4192
 3514TIP3   OH210484   5.451   2.774   4.085 -0.1811  0.1346 -0.1753
 3514TIP3    H110485   5.431   2.864   4.060 -1.0026 -0.2233 -0.9053
 3514TIP3    H210486   5.489   2.735   4.006  0.7823  0.0127  0.3369
 3515TIP3   OH210487   7.238   3.435   4.621 -0.1438  0.1540 -0.4060
 3515TIP3    H110488   7.259   3.524   4.593  0.2734 -0.3593 -1.8571
 3515TIP3    H210489   7.320   3.387   4.610 -0.3572 -0.3989  0.4048
 3516TIP3   OH210490   5.085   6.436   5.085  0.0746 -0.5346  0.1398
 3516TIP3    H110491   5.145   6.437   5.160  1.8016 -0.6166 -1.1671
 3516TIP3    H210492   5.047   6.348   5.085  1.8389 -1.3465 -0.3603
 3517TIP3   OH210493   4.055   4.139   2.543  0.1018 -0.5717 -0.4635
 3517TIP3    H110494   4.118   4.108   2.478 -1.6364 -0.4707 -2.2807
 3517TIP3    H210495   4.018   4.219   2.506  2.0745  2.0676  2.6374
 3518TIP3   OH210496   4.387   4.136   2.109  0.4389  0.4191 -0.3554
 3518TIP3    H110497   4.344   4.195   2.047  2.0036  1.2748 -0.6604
 3518TIP3    H210498   4.466   4.106   2.063  0.3736 -0.8466  0.3199
 3519TIP3   OH210499   4.406   0.553   3.797 -0.4413 -0.0592  0.2401
 3519TIP3    H110500   4.347   0.621   3.828  1.1513  1.7331 -0.4107
 3519TIP3    H210501   4.461   0.598   3.732  3.7696 -0.6072  3.0150
 3520TIP3   OH210502   6.252   2.982   1.066  0.3785  0.4752  0.1158
 3520TIP3    H110503   6.218   3.015   1.149 -1.0256 -0.9699  0.1743
 3520TIP3    H210504   6.176   2.984   1.007  0.8416 -0.3921 -0.5319
 3521TIP3   OH210505   5.218   4.929   1.881 -0.0195 -0.1045 -0.6581
 3521TIP3    H110506   5.162   4.862   1.920 -0.2460  1.6140  2.2419
 3521TIP3    H210507   5.306   4.911   1.915  0.4775 -0.4754 -2.0572
 3522TIP3   OH210508   4.250   0.433   1.620 -0.1246  0.3870 -0.1562
 3522TIP3    H110509   4.186   0.409   1.553  0.1453 -0.6446 -0.0671
 3522TIP3    H210510   4.311   0.492   1.576  0.6134 -1.0423 -1.1207
 3523TIP3   OH210511   7.078   7.285   1.027  0.0173  0.3992 -0.0601
 3523TIP3    H110512   7.144   7.333   1.076  0.2757 -1.5573  1.6327
 3523TIP3    H210513   7.120   7.202   1.004 -1.5895 -0.6333  0.5222
 3524TIP3   OH210514   2.189   1.908   0.503  0.2924 -0.7304  0.1675
 3524TIP3    H110515   2.097   1.881   0.499  0.6499 -1.9130 -0.9198
 3524TIP3    H210516   2.199   1.945   0.590 -1.3528 -0.0169  0.1050
 3525TIP3   OH210517   2.864   7.026   4.970 -0.3624 -0.4834 -0.5426
 3525TIP3    H110518   2.943   7.029   5.023 -0.4668  0.3040 -0.4170
 3525TIP3    H210519   2.821   6.945   4.995  0.9038 -1.4444 -1.3561
 3526TIP3   OH210520   2.952   2.896   0.851 -0.8448 -0.6233  0.2884
 3526TIP3    H110521   2.925   2.901   0.759 -1.2507  1.0080  0.4581
 3526TIP3    H210522   2.905   2.821   0.886  1.5084 -3.1310 -1.4804
 3527TIP3   OH210523   4.513   0.466   6.653  0.0400 -0.1758  0.0256
 3527TIP3    H110524   4.550   0.412   6.583 -0.9415 -0.2252 -0.4760
 3527TIP3    H210525   4.422   0.436   6.661 -0.5567  1.4404 -0.3392
 3528TIP3   OH210526   6.628   3.581   2.612 -0.0253 -0.2818  0.2290
 3528TIP3    H110527   6.702   3.526   2.585 -0.1673 -0.2132 -0.3048
 3528TIP3    H210528   6.556   3.519   2.625 -0.8641 -0.0414 -2.6775
 3529TIP3   OH210529   5.092   0.426   4.586  0.0965  0.1752  0.2731
 3529TIP3    H110530   5.163   0.464   4.534  0.8499  0.6647  1.6046
 3529TIP3    H210531   5.039   0.502   4.612  1.1020  0.2753  2.2055
 3530TIP3   OH210532   0.332   1.485   1.439  0.6403  0.0017  0.3977
 3530TIP3    H110533   0.251   1.467   1.487  1.1249 -2.2148  0.4955
 3530TIP3    H210534   0.392   1.518   1.507  0.4328 -0.2972  0.7322
 3531TIP3   OH210535   7.503   5.081   2.398  0.0260  0.2768  0.4380
 3531TIP3    H110536   7.596   5.099   2.387 -0.0586 -0.1010 -1.1575
 3531TIP3    H210537   7.478   5.132   2.475  1.3990  0.9185  0.5005
 3532TIP3   OH210538   7.591   2.619   1.688  0.1379  0.5627 -0.3752
 3532TIP3    H110539   7.578   2.545   1.747 -2.0892  0.3273 -1.0499
 3532TIP3    H210540   7.533   2.687   1.721 -0.2556  0.8426 -1.6018
 3533TIP3   OH210541   5.123   5.375   1.229  0.1633 -0.1255 -0.0527
 3533TIP3    H110542   5.058   5.381   1.299 -0.4936  0.3834 -0.7058
 3533TIP3    H210543   5.155   5.465   1.219 -0.8324  0.0972 -1.4288
 3534TIP3   OH210544   7.266   6.009   0.147  0.2718 -0.2633 -0.4324
 3534TIP3    H110545   7.335   6.045   0.202 -0.2000 -1.3385  0.9382
 3534TIP3    H210546   7.204   6.081   0.134 -0.3291 -0.3258  1.6874
 3535TIP3   OH210547   2.630   3.832   6.236  0.3481 -0.3216 -0.2325
 3535TIP3    H110548   2.722   3.829   6.211  0.9516 -1.7379  1.9059
 3535TIP3    H210549   2.622   3.912   6.287 -0.2082  1.0044 -2.2589
 3536TIP3   OH210550   7.370   4.244   4.403  0.3128  0.3819  0.1489
 3536TIP3    H110551   7.337   4.194   4.478  1.1948  0.1606  0.4044
 3536TIP3    H210552   7.307   4.228   4.333 -1.1197  1.4524  1.1330
 3537TIP3   OH210553   1.610   7.833   4.779  0.2280  0.2829  0.3175
 3537TIP3    H110554   1.610   7.783   4.860 -1.3890  0.8511  0.7135
 3537TIP3    H210555   1.585   7.769   4.712  1.0909 -0.0813  0.3396
 3538TIP3   OH210556   7.854   7.190   3.436 -0.9294 -0.0298  0.1400
 3538TIP3    H110557   7.870   7.099   3.409  0.8924  0.1042  0.6160
 3538TIP3    H210558   7.763   7.191   3.464 -0.6322 -2.0669  1.4094
 3539TIP3   OH210559   1.477   0.271   5.422  0.0293 -0.4168  0.1115
 3539TIP3    H110560   1.420   0.273   5.499 -1.3235  1.3687 -0.8670
 3539TIP3    H210561   1.550   0.329   5.444 -0.7572  0.7116 -0.2307
 3540TIP3   OH210562   4.192   3.604   2.555  0.4730  0.4860 -0.3438
 3540TIP3    H110563   4.112   3.598   2.608  0.9491  0.7104  0.4272
 3540TIP3    H210564   4.166   3.652   2.477 -0.2708  0.0662 -0.3610
 3541TIP3   OH210565   7.684   3.619   0.335  0.1464  0.2537 -0.0492
 3541TIP3    H110566   7.727   3.538   0.307  0.3274 -0.3831  1.9285
 3541TIP3    H210567   7.631   3.594   0.410 -2.5839  1.3385 -1.4765
 3542TIP3   OH210568   1.071   6.704   1.417  0.0394  0.3823 -0.1457
 3542TIP3    H110569   1.089   6.724   1.325 -0.7054  1.6045 -0.0507
 3542TIP3    H210570   0.976   6.716   1.426  0.1686  0.7310  0.8800
 3543TIP3   OH210571   2.650   0.367   4.693  0.2088 -0.7158 -0.7672
 3543TIP3    H110572   2.636   0.317   4.773  0.7949 -1.2413 -0.9746
 3543TIP3    H210573   2.579   0.431   4.690  0.8909  0.1649  0.8180
 3544TIP3   OH210574   6.478   3.387   3.068 -0.5813 -0.2829  0.4957
 3544TIP3    H110575   6.500   3.384   3.162  0.9534  1.6782  0.2527
 3544TIP3    H210576   6.546   3.441   3.029  0.1674 -2.9052 -2.1832
 3545TIP3   OH210577   1.007   2.939   1.445 -0.2034  0.3255 -0.3233
 3545TIP3    H110578   0.996   2.917   1.352 -1.4760  0.0376 -0.1240
 3545TIP3    H210579   0.954   3.017   1.458 -2.3541 -1.2141  0.7324
 3546TIP3   OH210580   6.446   4.686   1.495 -0.2585 -0.3226 -0.2808
 3546TIP3    H110581   6.435   4.766   1.444  0.6748  0.9243  1.3680
 3546TIP3    H210582   6.387   4.623   1.454 -1.0147  1.1974 -1.6410
 3547TIP3   OH210583   7.172   1.590   3.139 -0.5263  0.0050 -0.1012
 3547TIP3    H110584   7.137   1.575   3.227  0.4377  0.1012  0.3138
 3547TIP3    H210585   7.198   1.502   3.109  0.0926  0.0990  0.1362
 3548TIP3   OH210586   1.428   2.063   5.174  0.0436 -0.1535 -0.0720
 3548TIP3    H110587   1.487   2.115   5.120 -0.1017  1.2453  1.0257
 3548TIP3    H210588   1.418   1.980   5.128  1.9916 -0.0174 -0.8279
 3549TIP3   OH210589   6.701   6.279   1.080 -0.0863 -0.2788 -0.1368
 3549TIP3    H110590   6.638   6.290   1.151  1.1901  2.1228  0.7389
 3549TIP3    H210591   6.758   6.208   1.109 -0.9042 -0.7966  0.2080
 3550TIP3   OH210592   2.072   6.590   5.051  0.0173 -0.7041 -0.1003
 3550TIP3    H110593   2.156   6.630   5.027 -0.7852  2.3409  1.6845
 3550TIP3    H210594   2.039   6.554   4.969  1.8618  0.3630 -1.3885
 3551TIP3   OH210595   5.619   0.368   3.117  0.1554 -0.2426  0.0152
 3551TIP3    H110596   5.596   0.416   3.196  1.9251  1.0139 -0.1673
 3551TIP3    H210597   5.653   0.435   3.057  1.5385 -1.5369 -0.7241
 3552TIP3   OH210598   5.470   7.485   0.348 -0.0067  1.0563  0.2682
 3552TIP3    H110599   5.532   7.415   0.365 -0.9909  0.4890  1.6495
 3552TIP3    H210600   5.418   7.454   0.274 -0.6819  0.1304  1.1047
 3553TIP3   OH210601   3.623   5.125   5.580  0.1525 -0.1375 -0.6464
 3553TIP3    H110602   3.608   5.053   5.518 -0.8805 -1.3829  0.9769
 3553TIP3    H210603   3.719   5.130   5.588  0.3796  0.6774 -2.9715
 3554TIP3   OH210604   5.012   5.878   5.842  0.0191 -0.4788 -0.4581
 3554TIP3    H110605   5.057   5.922   5.914  1.3199 -0.4327 -1.2799
 3554TIP3    H210606   5.072   5.884   5.768 -0.8503 -1.4331 -1.2735
 3555TIP3   OH210607   7.077   4.098   0.412  0.6341 -0.2699  0.4379
 3555TIP3    H110608   7.027   4.180   0.399  1.6064  0.6648  2.2044
 3555TIP3    H210609   7.011   4.035   0.442  0.0089  0.0826 -0.1579
 3556TIP3   OH210610   7.786   4.886   0.326 -0.2236  0.3048 -0.2391
 3556TIP3    H110611   7.801   4.792   0.337  1.1038  0.5506  0.3202
 3556TIP3    H210612   7.792   4.922   0.414 -3.3367  0.6360 -0.0611
 3557TIP3   OH210613   0.657   4.152   1.611 -0.1942 -0.2738 -0.3412
 3557TIP3    H110614   0.739   4.108   1.587  0.0324  0.9581 -2.0379
 3557TIP3    H210615   0.680   4.244   1.618 -1.2012 -0.0592  0.4105
 3558TIP3   OH210616   1.170   6.020   1.015 -0.0786  0.1230 -0.1344
 3558TIP3    H110617   1.196   5.947   1.071 -0.4053  0.4153  0.4080
 3558TIP3    H210618   1.126   5.979   0.941  1.1289 -0.3213 -0.6197
 3559TIP3   OH210619   1.051   6.497   0.988  0.1347 -0.2089 -0.0433
 3559TIP3    H110620   1.062   6.534   1.075  0.1088  1.5127 -0.7381
 3559TIP3    H210621   0.958   6.505   0.970 -0.2452 -2.5643  0.5878
 3560TIP3   OH210622   3.128   3.959   0.177 -0.5161 -0.1010 -0.1093
 3560TIP3    H110623   3.135   3.872   0.138 -0.6576  0.5661 -1.6959
 3560TIP3    H210624   3.190   4.013   0.128 -0.9151  0.8473  0.3919
 3561TIP3   OH210625   0.851   5.118   6.743  0.8435 -0.0880  0.0284
 3561TIP3    H110626   0.781   5.054   6.754 -0.4404  1.4225  1.0955
 3561TIP3    H210627   0.807   5.203   6.747  2.6152  0.8882 -0.2883
 3562TIP3   OH210628   6.662   3.797   2.309 -0.0814 -0.0223  0.4466
 3562TIP3    H110629   6.639   3.704   2.307 -0.0002 -0.1065  2.1374
 3562TIP3    H210630   6.590   3.839   2.355  0.0555  0.7102  0.0127
 3563TIP3   OH210631   5.257   0.686   2.718 -0.1715  0.1940  0.4648
 3563TIP3    H110632   5.196   0.727   2.656  0.2559  1.0112  0.5601
 3563TIP3    H210633   5.206   0.675   2.798 -0.8240 -1.1806 -0.1167
 3564TIP3   OH210634   4.010   2.260   6.103 -0.2611  0.0410 -0.1035
 3564TIP3    H110635   3.950   2.275   6.030  1.5366 -1.9483 -2.1296
 3564TIP3    H210636   4.092   2.299   6.076  0.6038 -1.2193  0.5695
 3565TIP3   OH210637   4.530   3.310   4.263  0.6003 -0.4240  0.1415
 3565TIP3    H110638   4.566   3.255   4.193  0.1350  0.8927 -1.2070
 3565TIP3    H210639   4.504   3.249   4.331  0.4112 -1.8414 -1.1470
 3566TIP3   OH210640   6.998   4.020   1.473  0.0974  0.2227 -0.1732
 3566TIP3    H110641   6.910   4.033   1.511  0.3459  0.3500  0.3714
 3566TIP3    H210642   7.012   3.925   1.478  0.3833  0.3002  0.6496
 3567TIP3   OH210643   2.810   2.019   6.178 -1.1914  0.2561 -0.3539
 3567TIP3    H110644   2.792   1.963   6.102  1.0076 -1.2957  0.1634
 3567TIP3    H210645   2.861   1.964   6.237 -0.4098  2.3027  0.9950
 3568TIP3   OH210646   4.170   2.990   0.431  0.2736 -0.6932 -0.2783
 3568TIP3    H110647   4.126   2.983   0.346  0.7832 -0.0608 -0.5974
 3568TIP3    H210648   4.154   2.905   0.473 -2.2980 -0.0938  0.1355
 3569TIP3   OH210649   5.224   3.623   3.823  0.1827 -0.6077  0.1096
 3569TIP3    H110650   5.210   3.697   3.764  0.3733 -0.3064  0.4410
 3569TIP3    H210651   5.182   3.549   3.779 -0.9148 -0.0935  0.2580
 3570TIP3   OH210652   2.906   5.808   1.219  0.2434 -0.3234  0.2536
 3570TIP3    H110653   2.949   5.894   1.223 -0.6880  0.1431  0.5322
 3570TIP3    H210654   2.812   5.828   1.225 -0.0803 -1.2509 -1.3693
 3571TIP3   OH210655   0.555   5.718   4.114 -0.5119  0.2195 -0.0773
 3571TIP3    H110656   0.505   5.647   4.074 -0.5398 -0.1780  0.6484
 3571TIP3    H210657   0.635   5.676   4.145 -0.2799  0.6152 -0.1326
 3572TIP3   OH210658   4.985   4.038   1.768  0.3037  0.3071  0.1528
 3572TIP3    H110659   4.972   4.112   1.827 -1.0651  1.3396 -1.3277
 3572TIP3    H210660   4.898   3.999   1.759  0.1960  0.8930 -1.9997
 3573TIP3   OH210661   1.160   1.514   1.422 -0.4976  0.3723  0.6881
 3573TIP3    H110662   1.140   1.558   1.340  0.9303 -1.7401 -0.8819
 3573TIP3    H210663   1.226   1.570   1.464  1.5003 -0.2869 -1.3931
 3574TIP3   OH210664   0.467   1.746   6.555 -0.4069  0.4550  0.0537
 3574TIP3    H110665   0.382   1.788   6.564  0.1794  2.0384 -1.3468
 3574TIP3    H210666   0.526   1.799   6.609 -0.3347 -0.8217  1.2800
 3575TIP3   OH210667   6.277   5.237   4.078  0.2249  0.1809  0.5494
 3575TIP3    H110668   6.311   5.286   4.003  1.9121 -0.5153  0.8142
 3575TIP3    H210669   6.268   5.148   4.046  0.7698 -0.0808  1.1127
 3576TIP3   OH210670   7.670   0.472   5.464  0.1944 -0.3094 -0.3087
 3576TIP3    H110671   7.734   0.491   5.532  0.4425 -0.2197 -0.5656
 3576TIP3    H210672   7.601   0.537   5.476  0.9174  0.6204 -1.0280
 3577TIP3   OH210673   0.361   3.668   3.158 -0.0217  0.0338 -0.1291
 3577TIP3    H110674   0.325   3.756   3.167  1.0157  0.3270  1.8250
 3577TIP3    H210675   0.445   3.680   3.116 -0.8300 -0.3168 -1.9307
 3578TIP3   OH210676   3.210   3.439   3.599  0.1817 -0.5982  0.3468
 3578TIP3    H110677   3.124   3.409   3.628 -0.0452 -0.2598  0.0383
 3578TIP3    H210678   3.241   3.496   3.669 -0.5836  0.6202 -0.2653
 3579TIP3   OH210679   1.652   1.825   3.671 -0.2321  0.0549 -0.2432
 3579TIP3    H110680   1.604   1.904   3.647 -0.8754 -0.1436  0.3598
 3579TIP3    H210681   1.699   1.800   3.591  1.2497  1.9281 -0.0313
 3580TIP3   OH210682   0.689   2.122   3.428 -0.1067 -0.3166  0.2673
 3580TIP3    H110683   0.666   2.032   3.404 -1.1588 -0.4501  1.6836
 3580TIP3    H210684   0.778   2.133   3.394 -0.3624 -1.5180 -0.8711
 3581TIP3   OH210685   8.280   3.756   1.739 -0.0496  0.1783  0.3244
 3581TIP3    H110686   8.190   3.725   1.747 -0.9872  2.4292 -0.7757
 3581TIP3    H210687   8.287   3.789   1.650  1.3096  1.6475  0.9195
 3582TIP3   OH210688   7.576   6.985   0.356  0.2098  0.2021  0.5137
 3582TIP3    H110689   7.520   7.044   0.407  0.2543  1.1185 -0.4654
 3582TIP3    H210690   7.648   7.040   0.326  0.3994 -0.4168 -0.1948
 3583TIP3   OH210691   5.165   4.350   4.899  0.1584 -0.1271 -0.6422
 3583TIP3    H110692   5.182   4.399   4.980  0.4276  1.0377 -1.3770
 3583TIP3    H210693   5.242   4.294   4.889  0.2541 -0.0739 -0.2364
 3584TIP3   OH210694   0.709   5.021   0.835  0.0779 -0.5427 -0.0939
 3584TIP3    H110695   0.622   5.062   0.835  0.6549  0.7410  0.4830
 3584TIP3    H210696   0.692   4.929   0.819 -1.5937 -0.7250  2.2680
 3585TIP3   OH210697   0.409   3.771   5.084 -0.0654  0.6587  0.4872
 3585TIP3    H110698   0.487   3.720   5.064  0.0583  1.0859 -0.1762
 3585TIP3    H210699   0.435   3.861   5.068 -0.8384  0.7606 -0.2711
 3586TIP3   OH210700   1.351   2.007   2.276 -0.0531  0.0715  0.0117
 3586TIP3    H110701   1.268   2.051   2.255  0.4096  1.1509  0.3707
 3586TIP3    H210702   1.375   2.043   2.361  1.8456  1.3670 -1.0157
 3587TIP3   OH210703   4.732   4.664   3.090  0.0729  0.2335  0.0374
 3587TIP3    H110704   4.797   4.601   3.058 -0.8656 -0.6487 -0.1725
 3587TIP3    H210705   4.707   4.714   3.012 -1.2444 -1.0392 -0.4034
 3588TIP3   OH210706   6.307   4.898   5.808 -0.4971 -0.5416 -0.1011
 3588TIP3    H110707   6.277   4.955   5.737 -0.9202  0.2933  0.7275
 3588TIP3    H210708   6.378   4.847   5.769 -0.6169  0.0029 -1.0806
 3589TIP3   OH210709   1.588   7.060   0.963  0.4743 -0.7743  0.1381
 3589TIP3    H110710   1.579   7.037   1.055 -0.0737 -0.7452  0.0967
 3589TIP3    H210711   1.508   7.026   0.922  0.3517 -0.1143 -0.1864
 3590TIP3   OH210712   3.451   5.316   3.441  0.1597  0.1821  0.2015
 3590TIP3    H110713   3.544   5.301   3.430  0.3656  0.8618  0.9575
 3590TIP3    H210714   3.419   5.238   3.488  0.6975  0.7492  1.5681
 3591TIP3   OH210715   3.254   5.271   0.364 -0.2050 -0.1693 -0.2205
 3591TIP3    H110716   3.212   5.275   0.450 -0.7764  2.0457 -0.5268
 3591TIP3    H210717   3.181   5.271   0.302  0.1986 -1.9150 -0.7374
 3592TIP3   OH210718   0.358   2.023   5.058 -0.5629  0.3130 -0.2016
 3592TIP3    H110719   0.390   2.102   5.015 -0.1433 -0.2135 -0.8717
 3592TIP3    H210720   0.322   2.054   5.141  1.7448  0.9391  0.6331
 3593TIP3   OH210721  -0.011   1.863   0.231 -0.8359 -0.1930  0.7324
 3593TIP3    H110722   0.082   1.869   0.254 -0.4918 -0.0320 -0.6156
 3593TIP3    H210723  -0.052   1.935   0.278 -0.3241 -0.3972  1.5135
 3594TIP3   OH210724   7.628   5.491   1.411  0.3265 -0.0738  0.2717
 3594TIP3    H110725   7.560   5.483   1.477  0.6578  1.1639  0.7831
 3594TIP3    H210726   7.677   5.570   1.435  1.6448 -0.6632 -0.3546
 3595TIP3   OH210727   0.458   7.653   2.644 -0.7500 -0.0991 -0.1346
 3595TIP3    H110728   0.498   7.729   2.686 -0.1279 -0.0494 -0.8003
 3595TIP3    H210729   0.364   7.663   2.660 -0.5583  0.1144  0.9004
 3596TIP3   OH210730   0.540   6.230   3.355  0.0503 -0.4750 -0.2654
 3596TIP3    H110731   0.634   6.218   3.366  0.0378  0.3765  0.9573
 3596TIP3    H210732   0.522   6.195   3.267  1.2417 -1.9461  0.0370
 3597TIP3   OH210733   6.499   3.642   3.326 -0.3371 -0.6281  0.0336
 3597TIP3    H110734   6.468   3.554   3.303 -0.1128 -0.7776  0.2958
 3597TIP3    H210735   6.435   3.674   3.389  0.5733 -1.3371  1.3499
 3598TIP3   OH210736   8.134   4.065   0.378 -0.4862 -0.8288  0.0085
 3598TIP3    H110737   8.121   4.131   0.447 -1.5768 -1.5914  0.5452
 3598TIP3    H210738   8.179   4.113   0.308  0.5244  0.0032  1.1698
 3599TIP3   OH210739   5.616   3.079   6.636 -0.6566 -0.5479 -0.1969
 3599TIP3    H110740   5.583   3.150   6.692 -1.2502 -0.3746 -0.7529
 3599TIP3    H210741   5.616   3.116   6.548  0.6834 -0.6770 -0.2689
 3600TIP3   OH210742   5.516   7.206   2.325 -0.3873 -0.0229  0.1390
 3600TIP3    H110743   5.441   7.250   2.287  0.3653  0.9819 -0.2254
 3600TIP3    H210744   5.560   7.273   2.377  0.0455 -0.6993  0.6668
 3601TIP3   OH210745   4.102   6.307   0.670 -0.3539  0.2196 -0.3589
 3601TIP3    H110746   4.054   6.387   0.692 -0.4194 -0.3512  1.7923
 3601TIP3    H210747   4.156   6.331   0.595 -0.3810  2.2949  0.2299
 3602TIP3   OH210748   4.047   2.541   6.701  1.1595 -0.3452  0.5304
 3602TIP3    H110749   4.007   2.617   6.659 -2.9012 -2.8973 -0.7533
 3602TIP3    H210750   4.054   2.566   6.793 -0.6374  1.3735  0.2677
 3603TIP3   OH210751   2.512   6.537   5.044 -0.0100  0.4434  0.3440
 3603TIP3    H110752   2.481   6.497   5.125 -0.3210  0.2607  0.1375
 3603TIP3    H210753   2.437   6.587   5.012  0.2967  0.9919  0.4698
 3604TIP3   OH210754   4.710   5.110   2.462 -0.9570 -0.0328 -0.4422
 3604TIP3    H110755   4.691   5.169   2.389 -0.1586  0.7025 -0.0639
 3604TIP3    H210756   4.756   5.164   2.526  0.5109 -1.2501 -0.4155
 3605TIP3   OH210757   5.538   4.819   3.308 -0.0164 -0.0510 -0.1031
 3605TIP3    H110758   5.488   4.788   3.384  1.9850  0.8493  1.6984
 3605TIP3    H210759   5.603   4.879   3.345  0.1798  1.5130 -2.7207
 3606TIP3   OH210760   2.953   5.993   6.716 -0.3274  0.0511 -0.5849
 3606TIP3    H110761   2.917   5.905   6.718  0.9084 -0.4688 -0.4830
 3606TIP3    H210762   3.006   5.996   6.637 -2.3478  1.5520 -1.9773
 3607TIP3   OH210763   1.815   0.404   6.397 -0.1734 -0.0381 -0.2360
 3607TIP3    H110764   1.737   0.358   6.427  0.2351 -0.8721 -0.4436
 3607TIP3    H210765   1.786   0.454   6.321 -0.9351  1.1498  0.7798
 3608TIP3   OH210766   6.660   0.237   1.919 -0.5216  0.1450 -0.0463
 3608TIP3    H110767   6.646   0.143   1.908 -0.8742  0.3936 -2.2767
 3608TIP3    H210768   6.613   0.277   1.846  3.0841  1.7438 -1.7579
 3609TIP3   OH210769   2.610   6.996   3.399  0.3275  0.1396  0.3166
 3609TIP3    H110770   2.516   7.013   3.404  0.3046 -0.1532  1.0133
 3609TIP3    H210771   2.630   6.999   3.306 -0.4088  0.0236  0.1474
 3610TIP3   OH210772   7.154   0.424   3.316  0.1956  0.2836  0.0438
 3610TIP3    H110773   7.152   0.345   3.370 -0.0447  0.2651  0.0093
 3610TIP3    H210774   7.063   0.455   3.316 -0.4168 -1.2704 -2.6689
 3611TIP3   OH210775   5.111   3.753   3.593 -0.7489 -0.1779  0.2306
 3611TIP3    H110776   5.027   3.712   3.613 -0.1401 -1.3347  0.5009
 3611TIP3    H210777   5.152   3.694   3.530 -0.5690  0.9164 -0.7181
 3612TIP3   OH210778   7.869   5.104   3.683  0.4079 -0.1800  0.1753
 3612TIP3    H110779   7.928   5.150   3.744  0.0527  0.6269 -0.0769
 3612TIP3    H210780   7.855   5.019   3.724  3.2509 -1.1683 -0.6539
 3613TIP3   OH210781   6.569   2.067   5.435 -0.2386  0.4214  0.1401
 3613TIP3    H110782   6.653   2.047   5.394  0.4206  0.4756  1.4172
 3613TIP3    H210783   6.587   2.141   5.492 -0.9807 -0.0267  0.9817
 3614TIP3   OH210784   4.525   3.250   3.405 -0.0999  0.5300 -0.4389
 3614TIP3    H110785   4.449   3.308   3.395  0.8803  1.7081 -1.3387
 3614TIP3    H210786   4.526   3.228   3.499  0.6639  3.6816  0.4106
 3615TIP3   OH210787   1.952   6.238   3.544 -0.0367  0.2404 -0.2114
 3615TIP3    H110788   1.960   6.301   3.615  1.2608  0.4319 -0.4955
 3615TIP3    H210789   1.858   6.222   3.536 -0.1944 -0.1441  1.8539
 3616TIP3   OH210790   3.914   7.309   1.146  0.4364 -0.1518  0.4170
 3616TIP3    H110791   3.979   7.239   1.139 -2.0325 -2.5312 -0.7495
 3616TIP3    H210792   3.903   7.340   1.056  0.5463  0.8492  0.7401
 3617TIP3   OH210793   1.755   6.519   3.221  0.0037  0.4902  0.4642
 3617TIP3    H110794   1.678   6.573   3.239 -0.5876  0.6904 -2.2738
 3617TIP3    H210795   1.804   6.569   3.155  1.7149 -0.3432  1.0529
 3618TIP3   OH210796   3.532   7.069   5.552  0.4590  0.2307  0.5337
 3618TIP3    H110797   3.578   7.116   5.622 -1.2369  0.9443  1.2246
 3618TIP3    H210798   3.486   6.999   5.598  1.3146 -0.8633 -0.2335
 3619TIP3   OH210799   6.827   4.665   3.050 -0.9627  0.3421  0.1653
 3619TIP3    H110800   6.920   4.659   3.027 -1.1542  2.2425 -1.3831
 3619TIP3    H210801   6.790   4.581   3.022 -0.2147  0.6554 -1.9356
 3620TIP3   OH210802   7.908  -0.028   1.549  0.2871 -0.2000  0.3658
 3620TIP3    H110803   7.900  -0.037   1.644 -1.4707  0.6303  0.3278
 3620TIP3    H210804   7.923   0.065   1.535 -2.2650  0.1824 -0.2659
 3621TIP3   OH210805   3.446   0.083   2.427  0.0970 -0.0466 -0.2345
 3621TIP3    H110806   3.532   0.123   2.414  0.8056 -1.2311  0.6136
 3621TIP3    H210807   3.464  -0.010   2.442 -1.5240 -0.7765 -2.3728
 3622TIP3   OH210808   2.519   7.618   1.317 -0.0018 -0.1526 -0.4746
 3622TIP3    H110809   2.529   7.604   1.411 -0.3080  1.5843 -0.1483
 3622TIP3    H210810   2.440   7.671   1.309  0.5480  0.5393 -1.6211
 3623TIP3   OH210811   0.840   7.686   4.678  0.3432 -0.2824 -0.3957
 3623TIP3    H110812   0.791   7.620   4.727 -1.9778  0.7120 -1.2075
 3623TIP3    H210813   0.801   7.769   4.706  2.4598  0.6894 -0.1877
 3624TIP3   OH210814   7.323   2.628   4.923 -0.4447  0.6350 -0.5725
 3624TIP3    H110815   7.283   2.562   4.866 -2.0176  1.4303 -0.4388
 3624TIP3    H210816   7.406   2.589   4.949 -1.0432 -1.0361 -1.0009
 3625TIP3   OH210817   1.911   2.709   0.815 -0.1889 -0.0104  0.1419
 3625TIP3    H110818   1.867   2.684   0.734  1.5328 -0.7428 -0.6147
 3625TIP3    H210819   1.892   2.637   0.875 -1.1246  0.3370  0.2855
 3626TIP3   OH210820   3.746   1.949   1.466  0.3859 -0.2371 -0.0158
 3626TIP3    H110821   3.701   1.881   1.416 -2.4765  0.3898  1.4563
 3626TIP3    H210822   3.766   2.017   1.401 -1.3157 -0.3418 -0.7185
 3627TIP3   OH210823   6.181   5.803   3.054  0.1552 -0.1534 -0.8483
 3627TIP3    H110824   6.166   5.864   2.982 -1.1734  2.1945  1.2264
 3627TIP3    H210825   6.172   5.857   3.133 -2.1685 -3.2236  1.2282
 3628TIP3   OH210826   8.216   1.589   3.966  0.0778  0.1215 -0.4211
 3628TIP3    H110827   8.285   1.595   4.032 -0.5983  0.6490  0.2607
 3628TIP3    H210828   8.210   1.677   3.929  0.3800 -0.1455 -1.1211
 3629TIP3   OH210829   3.100   4.816   1.132  0.1781 -0.4793  0.2619
 3629TIP3    H110830   3.106   4.791   1.224 -0.9867  0.1783  0.5375
 3629TIP3    H210831   3.087   4.911   1.133 -0.9704 -0.6061 -0.5208
 3630TIP3   OH210832   3.109   5.593   2.165  0.3141  0.2939  0.1998
 3630TIP3    H110833   3.123   5.503   2.195  1.2218  0.6417  0.8616
 3630TIP3    H210834   3.162   5.599   2.086  2.0538  0.8680  1.3484
 3631TIP3   OH210835   5.832   0.073   3.076 -0.3774 -0.0953  0.1207
 3631TIP3    H110836   5.889   0.007   3.116 -2.0620 -0.7125  1.6333
 3631TIP3    H210837   5.772   0.023   3.020 -0.4549  0.3746 -0.2287
 3632TIP3   OH210838   7.631   0.310   3.904 -0.3218 -0.0478 -0.3525
 3632TIP3    H110839   7.661   0.365   3.831  1.9925  0.7314  1.0813
 3632TIP3    H210840   7.694   0.239   3.908 -1.5908 -1.2013 -0.3140
 3633TIP3   OH210841   4.163   6.923   1.627 -0.2272 -0.6774  0.1175
 3633TIP3    H110842   4.113   6.991   1.582 -0.3013 -1.9639 -1.8926
 3633TIP3    H210843   4.248   6.923   1.583 -0.7018 -2.7622 -0.9356
 3634TIP3   OH210844   3.258   6.587   6.190  0.5455 -0.1799 -0.0360
 3634TIP3    H110845   3.210   6.515   6.231 -0.5795  1.0248  0.8426
 3634TIP3    H210846   3.297   6.548   6.112 -1.1250 -1.4207 -0.3089
 3635TIP3   OH210847   7.494   1.907   3.566 -0.8661 -0.0279 -0.0340
 3635TIP3    H110848   7.583   1.925   3.597  0.0322 -2.1057 -1.2230
 3635TIP3    H210849   7.460   1.844   3.629 -1.4016  0.5135  0.2268
 3636TIP3   OH210850   3.962   3.837   5.334  0.3472 -0.1849  0.4734
 3636TIP3    H110851   4.052   3.858   5.308  0.6836  0.7011  2.1662
 3636TIP3    H210852   3.910   3.908   5.296  0.6026  0.2148  0.8571
 3637TIP3   OH210853   0.048   5.087   2.489  0.1969 -0.1763 -0.6619
 3637TIP3    H110854  -0.034   5.137   2.492 -0.6674 -1.5924  0.6328
 3637TIP3    H210855   0.047   5.045   2.404  0.1604  0.7114 -1.1163
 3638TIP3   OH210856   4.050   0.688   1.487  0.1325 -0.2276  0.1534
 3638TIP3    H110857   4.144   0.700   1.501 -0.0341  0.6710  0.6134
 3638TIP3    H210858   4.036   0.712   1.395  0.3211 -0.1104  0.1552
 3639TIP3   OH210859   3.254   2.249   1.027 -0.0594  0.5680 -0.4305
 3639TIP3    H110860   3.190   2.231   1.095  1.2285  0.8092  0.8980
 3639TIP3    H210861   3.225   2.331   0.987 -0.4618  0.7914  0.3109
 3640TIP3   OH210862   5.152   3.346   4.122  0.3126  0.1446  0.1135
 3640TIP3    H110863   5.246   3.349   4.140  0.8308  0.3459 -2.2808
 3640TIP3    H210864   5.124   3.437   4.130  0.4178  0.1488  0.4302
 3641TIP3   OH210865   2.170   1.919   0.954 -0.1825  0.3904  0.7839
 3641TIP3    H110866   2.082   1.944   0.925 -0.4255 -0.4375  0.7732
 3641TIP3    H210867   2.165   1.824   0.966  1.2021  0.0402 -0.9924
 3642TIP3   OH210868   3.578   6.443   0.895  0.2296  0.3858 -0.4759
 3642TIP3    H110869   3.503   6.443   0.955 -0.1143  1.5568 -0.8749
 3642TIP3    H210870   3.541   6.416   0.811 -0.3726  3.3973 -1.3181
 3643TIP3   OH210871   6.802   0.858   4.454  0.1797 -0.3342 -0.0475
 3643TIP3    H110872   6.843   0.924   4.398  1.2578 -1.6573 -0.8777
 3643TIP3    H210873   6.805   0.896   4.542  1.2856  0.4958 -0.4232
 3644TIP3   OH210874   3.617   3.033   6.315  0.1306  0.2953  0.5256
 3644TIP3    H110875   3.560   3.104   6.285 -0.6526 -1.0669 -1.4254
 3644TIP3    H210876   3.705   3.060   6.290  0.1380  1.4535  1.6571
 3645TIP3   OH210877   4.056   3.738   4.593 -0.4871 -0.7299  0.7980
 3645TIP3    H110878   4.145   3.706   4.610 -0.1809 -1.1140 -1.3643
 3645TIP3    H210879   3.999   3.669   4.627  0.0149 -0.6587  1.8493
 3646TIP3   OH210880   3.495   4.151   4.613 -0.0807 -0.0883 -0.1479
 3646TIP3    H110881   3.435   4.225   4.604 -0.1745 -0.1689 -0.2002
 3646TIP3    H210882   3.573   4.176   4.563 -1.6658 -1.6679 -3.8316
 3647TIP3   OH210883   8.271   5.349   1.456  0.4459  0.2161 -0.0668
 3647TIP3    H110884   8.309   5.434   1.433 -1.6452  0.9598 -1.1129
 3647TIP3    H210885   8.178   5.358   1.432  0.1115 -2.2790  0.0796
 3648TIP3   OH210886   1.659   4.225   4.867 -0.6901 -0.3984 -0.1371
 3648TIP3    H110887   1.718   4.193   4.798  1.3068  1.6051  0.5179
 3648TIP3    H210888   1.673   4.165   4.940  0.0852 -0.2970 -0.1972
 3649TIP3   OH210889   4.006   7.416   0.140 -0.0265  0.2942  0.7262
 3649TIP3    H110890   4.094   7.406   0.103 -0.2535 -1.7556  0.6027
 3649TIP3    H210891   3.947   7.404   0.067 -0.4324 -1.7878  1.3196
 3650TIP3   OH210892   7.468   0.570   4.891 -0.2576 -0.5375  0.3059
 3650TIP3    H110893   7.488   0.562   4.984  0.9095 -0.4346  0.0847
 3650TIP3    H210894   7.522   0.502   4.849 -0.6002 -0.4348 -0.3107
 3651TIP3   OH210895   1.463   6.756   6.746 -0.0387  0.3512 -0.3499
 3651TIP3    H110896   1.437   6.679   6.797  1.6337  0.6817  1.1011
 3651TIP3    H210897   1.393   6.819   6.761 -0.0851  0.0677  0.7157
 3652TIP3   OH210898   2.301   3.539   0.503 -0.6623 -0.2719 -0.1679
 3652TIP3    H110899   2.391   3.525   0.533 -0.7466  0.3268  0.3976
 3652TIP3    H210900   2.289   3.475   0.433  0.2882 -0.1782 -0.4335
 3653TIP3   OH210901   2.376   7.239   6.034 -0.2664  0.0693  0.2294
 3653TIP3    H110902   2.422   7.283   5.962 -1.2563  1.6642  0.5368
 3653TIP3    H210903   2.298   7.292   6.049 -1.6109 -1.9021  0.5396
 3654TIP3   OH210904   4.710   0.681   2.489  0.4411 -0.0338  0.1520
 3654TIP3    H110905   4.617   0.656   2.490  0.0559  1.2888 -0.2752
 3654TIP3    H210906   4.716   0.749   2.557  0.6173  1.4199 -1.2594
 3655TIP3   OH210907   2.749   7.718   3.766 -0.0301  0.0344 -0.2347
 3655TIP3    H110908   2.659   7.688   3.780  0.2654  0.0131  1.9426
 3655TIP3    H210909   2.798   7.638   3.747 -0.1192 -0.2561  0.6983
 3656TIP3   OH210910   2.276   2.364   2.746 -0.0741 -0.0969 -0.5418
 3656TIP3    H110911   2.325   2.300   2.799  2.9477  1.4119 -1.2678
 3656TIP3    H210912   2.217   2.406   2.808  2.2899  0.5904  1.4153
 3657TIP3   OH210913   8.272   5.450   3.221  0.0271  0.0786 -0.3445
 3657TIP3    H110914   8.348   5.394   3.234  0.9014  1.6424  2.0394
 3657TIP3    H210915   8.231   5.417   3.141  2.6218 -1.4618 -1.1686
 3658TIP3   OH210916   7.677   6.609   2.631 -0.0893 -0.0844 -0.7341
 3658TIP3    H110917   7.752   6.565   2.590  0.3603  0.9810 -1.0862
 3658TIP3    H210918   7.692   6.599   2.725  1.2802  1.3593 -0.7688
 3659TIP3   OH210919   5.586   6.497   2.041  0.1074 -0.3406 -0.3815
 3659TIP3    H110920   5.582   6.569   2.104 -0.9926 -0.0561 -0.7409
 3659TIP3    H210921   5.631   6.533   1.965 -2.2374  0.7083 -1.3960
 3660TIP3   OH210922   6.864   2.674   0.875 -0.2621 -0.8619 -0.1332
 3660TIP3    H110923   6.872   2.636   0.787 -0.9734 -1.8353  0.1975
 3660TIP3    H210924   6.949   2.659   0.915  0.8017  1.5185 -1.3536
 3661TIP3   OH210925   3.452   5.028   6.752 -0.0945  0.0929 -0.0044
 3661TIP3    H110926   3.529   5.055   6.702  0.3733 -1.1684 -0.0065
 3661TIP3    H210927   3.382   5.087   6.722  0.5704  0.4334 -0.9247
 3662TIP3   OH210928   4.784   2.987   3.211 -0.4779 -0.3051 -0.0385
 3662TIP3    H110929   4.760   2.907   3.259 -1.5488  0.7881  1.3663
 3662TIP3    H210930   4.720   2.991   3.139 -0.8662 -0.3714  0.2953
 3663TIP3   OH210931   3.827   2.319   5.728 -0.0547 -0.0348  0.0317
 3663TIP3    H110932   3.862   2.397   5.769  0.8093 -0.9446  1.0780
 3663TIP3    H210933   3.781   2.272   5.798  0.5032 -1.0709 -0.2720
 3664TIP3   OH210934   4.494   5.390   4.260 -0.6960 -0.6095 -0.2994
 3664TIP3    H110935   4.570   5.447   4.270 -0.5564 -0.6174 -1.2206
 3664TIP3    H210936   4.473   5.394   4.166 -1.4734 -1.0586 -0.1522
 3665TIP3   OH210937   7.390   3.102   2.953 -0.1342 -0.0726 -0.4606
 3665TIP3    H110938   7.412   3.025   2.900 -1.2479 -0.8991  0.2155
 3665TIP3    H210939   7.334   3.067   3.022  0.5770  1.1262  0.7483
 3666TIP3   OH210940   0.333   3.911   3.068 -0.4809  0.0117  0.2045
 3666TIP3    H110941   0.399   3.972   3.036  0.8794 -0.9682  1.0144
 3666TIP3    H210942   0.280   3.962   3.129  1.4633  0.1365  1.9196
 3667TIP3   OH210943   5.226   6.411   3.114  0.1962 -0.0330 -0.1893
 3667TIP3    H110944   5.159   6.344   3.124  0.3847 -0.4418 -1.5152
 3667TIP3    H210945   5.273   6.387   3.034  1.1801  0.8889  0.0802
 3668TIP3   OH210946   4.802   7.258   2.522  0.2730  0.1851  0.1742
 3668TIP3    H110947   4.872   7.211   2.477  1.2528  1.0214  0.7668
 3668TIP3    H210948   4.845   7.335   2.560 -1.0249  0.8737  0.3226
 3669TIP3   OH210949   4.439   1.515   2.804  0.0714 -0.0334  0.5270
 3669TIP3    H110950   4.505   1.500   2.736 -0.2936 -0.0453  0.1724
 3669TIP3    H210951   4.399   1.430   2.818 -0.2378  0.0842  0.3568
 3670TIP3   OH210952   6.715   1.683   2.123 -0.2866 -0.0255  0.2152
 3670TIP3    H110953   6.747   1.594   2.140  2.0397  0.7743  0.3696
 3670TIP3    H210954   6.724   1.728   2.207  0.3998  0.8655 -0.3158
 3671TIP3   OH210955   2.380   1.007   5.365 -0.4270  0.0782  0.3022
 3671TIP3    H110956   2.414   1.096   5.369  0.0376 -0.0926  0.2926
 3671TIP3    H210957   2.289   1.017   5.336 -1.6572  0.8135  3.9030
 3672TIP3   OH210958   4.826   0.493   6.087  0.1123  0.5829 -0.3179
 3672TIP3    H110959   4.829   0.567   6.149  0.9267  0.1122  0.2299
 3672TIP3    H210960   4.734   0.485   6.064  0.2427  3.5799 -2.6079
 3673TIP3   OH210961   3.228   2.943   6.498 -0.2437 -0.0296  0.1766
 3673TIP3    H110962   3.222   2.849   6.484  2.0172 -0.2245  0.1203
 3673TIP3    H210963   3.177   2.959   6.578  1.9972 -1.8872  2.1571
 3674TIP3   OH210964   1.163   2.989   2.871 -0.1200 -0.4534  0.0010
 3674TIP3    H110965   1.083   2.999   2.819 -0.3425  0.8181  0.5459
 3674TIP3    H210966   1.136   2.939   2.948 -0.6257  0.7296  0.6225
 3675TIP3   OH210967   4.538   2.711   3.700  0.0275 -0.4516 -0.2651
 3675TIP3    H110968   4.465   2.662   3.737  0.1929 -1.1363 -0.8296
 3675TIP3    H210969   4.530   2.699   3.606 -1.1538  2.3475 -0.6219
 3676TIP3   OH210970   0.726   1.692   0.881  0.2244 -0.0050 -0.7677
 3676TIP3    H110971   0.819   1.695   0.862  0.4414 -2.2839 -0.4058
 3676TIP3    H210972   0.684   1.693   0.795  0.8291 -2.7865 -1.1881
 3677TIP3   OH210973   0.415   4.938   4.324  0.2626 -0.6292 -0.3301
 3677TIP3    H110974   0.418   4.901   4.236  0.5694 -0.5212 -0.3685
 3677TIP3    H210975   0.387   4.865   4.379 -0.7572 -0.4678 -0.6275
 3678TIP3   OH210976   2.953   3.305   3.657  0.0803 -0.0227  0.6262
 3678TIP3    H110977   3.012   3.233   3.676  0.3279 -0.5545 -1.8696
 3678TIP3    H210978   2.876   3.263   3.619  0.1538  0.9796 -0.6931
 3679TIP3   OH210979   3.975   7.617   1.153  0.1277 -0.3014  0.3241
 3679TIP3    H110980   3.914   7.547   1.129  0.4041 -0.4990  0.1989
 3679TIP3    H210981   3.939   7.651   1.235 -1.4295  1.1073 -0.8768
 3680TIP3   OH210982   3.700   5.813   5.236  0.2915  0.5727  0.0088
 3680TIP3    H110983   3.768   5.881   5.232 -0.9742  1.9117  0.4559
 3680TIP3    H210984   3.715   5.760   5.158  0.4866  2.1878 -1.0981
 3681TIP3   OH210985   1.604   0.162   3.891 -0.1622  0.3271 -0.3726
 3681TIP3    H110986   1.656   0.141   3.968  0.3228  0.1355 -0.7428
 3681TIP3    H210987   1.525   0.109   3.901  1.4457 -2.6008 -1.7526
 3682TIP3   OH210988   0.554   1.419   2.574 -0.2550 -0.2245  0.9179
 3682TIP3    H110989   0.596   1.347   2.621 -0.5155  0.6785  2.6328
 3682TIP3    H210990   0.619   1.489   2.575 -0.9211  0.4023  1.5332
 3683TIP3   OH210991   0.061   0.838   4.277 -0.0224  0.1784 -0.1777
 3683TIP3    H110992   0.072   0.856   4.370  1.2034 -0.9189 -0.0745
 3683TIP3    H210993   0.145   0.863   4.238 -0.2445 -0.1005 -0.8522
 3684TIP3   OH210994   2.968   7.615   0.451  0.6488 -0.0840 -0.2517
 3684TIP3    H110995   2.916   7.544   0.488  1.1581 -1.1200 -1.4791
 3684TIP3    H210996   2.915   7.694   0.468  0.8446 -0.4599  2.6224
 3685TIP3   OH210997   6.974   7.513   0.910 -0.1993 -0.6716 -0.2955
 3685TIP3    H110998   7.001   7.491   0.821 -2.0928 -1.4291 -0.7292
 3685TIP3    H210999   7.000   7.438   0.963 -0.8337 -1.1033 -0.5870
 3686TIP3   OH211000   5.157   2.088   1.719  0.0462  0.0302  0.1602
 3686TIP3    H111001   5.171   2.179   1.692 -0.8246  0.0431 -0.2692
 3686TIP3    H211002   5.204   2.036   1.654  1.3714  0.1793  0.9483
 3687TIP3   OH211003   2.510   0.136   5.242  0.4953 -0.5583  0.0184
 3687TIP3    H111004   2.564   0.205   5.205  0.0138  0.0021  0.3460
 3687TIP3    H211005   2.572   0.069   5.270  0.8838 -1.0630 -1.8764
 3688TIP3   OH211006   1.965   3.591   6.432 -0.0237  0.2374 -0.1259
 3688TIP3    H111007   2.055   3.565   6.449  0.2874  1.0765 -0.4157
 3688TIP3    H211008   1.960   3.600   6.337 -0.9724 -1.7098 -0.3007
 3689TIP3   OH211009   8.152   5.284   5.063  0.1273  0.3721  0.4480
 3689TIP3    H111010   8.093   5.325   4.999 -1.8317 -1.2081  1.1636
 3689TIP3    H211011   8.188   5.208   5.016 -0.0719  0.1208  0.7020
 3690TIP3   OH211012   1.594   6.301   2.511  0.2379  0.0854  0.1298
 3690TIP3    H111013   1.551   6.386   2.521  0.6830  0.2919  0.2979
 3690TIP3    H211014   1.607   6.291   2.417  2.0260  1.1371  0.2218
 3691TIP3   OH211015   3.042   7.370   4.155  0.2410 -0.2196  0.4911
 3691TIP3    H111016   3.129   7.399   4.126  0.2228  0.9405  1.5188
 3691TIP3    H211017   2.988   7.448   4.151 -0.8059 -0.9644 -0.2433
 3692TIP3   OH211018   3.716   5.273   3.413 -0.0980  0.5517 -0.1874
 3692TIP3    H111019   3.741   5.363   3.394  0.2258  0.8683  1.5593
 3692TIP3    H211020   3.717   5.229   3.328  1.9714  1.6458 -0.8020
 3693TIP3   OH211021   0.184   4.743   3.143 -0.1830  0.3878  0.1159
 3693TIP3    H111022   0.134   4.825   3.143  2.7734  2.3568  0.8860
 3693TIP3    H211023   0.209   4.730   3.234  2.2680  0.6321 -0.4315
 3694TIP3   OH211024   8.116   2.638   3.637 -0.8880 -0.2327  0.1172
 3694TIP3    H111025   8.191   2.617   3.692  0.1664  1.1680 -0.7079
 3694TIP3    H211026   8.099   2.557   3.588 -0.0536 -0.6398  0.4760
 3695TIP3   OH211027   6.952   6.473   0.943  0.7133 -0.3463  0.5401
 3695TIP3    H111028   6.972   6.507   1.030  1.4032  1.1547 -0.1737
 3695TIP3    H211029   6.867   6.428   0.954  0.4584  0.3990  1.8312
 3696TIP3   OH211030   6.046   4.556   6.304  0.2952  0.5866  0.0451
 3696TIP3    H111031   5.953   4.574   6.297 -0.0938 -0.5622  1.6978
 3696TIP3    H211032   6.066   4.503   6.227 -0.7077 -0.2331  0.3353
 3697TIP3   OH211033   5.831   2.752   1.028 -0.4324 -0.0611  0.3244
 3697TIP3    H111034   5.893   2.753   1.101  1.8222  0.0515 -1.4770
 3697TIP3    H211035   5.745   2.746   1.070  0.8371 -2.8963  2.9373
 3698TIP3   OH211036   5.884   3.597   0.225 -0.2668 -0.6600  0.1791
 3698TIP3    H111037   5.826   3.639   0.160 -1.2321 -0.8113  0.9206
 3698TIP3    H211038   5.893   3.662   0.294  1.6778 -0.0518 -0.5667
 3699TIP3   OH211039   4.209   3.192   3.701 -0.1354 -0.1153 -0.1779
 3699TIP3    H111040   4.154   3.132   3.651  0.3974  2.1409 -3.8620
 3699TIP3    H211041   4.150   3.231   3.766 -1.7290 -0.9979 -1.0292
 3700TIP3   OH211042   7.953   3.273   3.706 -0.0407  0.0583 -0.6440
 3700TIP3    H111043   7.917   3.272   3.794  1.2489  1.0655 -0.0855
 3700TIP3    H211044   7.877   3.257   3.649 -1.1465  0.8238  0.5649
 3701TIP3   OH211045   5.737   5.327   6.739  0.3980 -0.2176 -0.5231
 3701TIP3    H111046   5.724   5.291   6.827  0.1469  1.0037 -0.0482
 3701TIP3    H211047   5.649   5.349   6.710  0.5783  0.3175 -0.6681
 3702TIP3   OH211048   5.279   4.476   5.363  0.2439 -0.2990 -0.1666
 3702TIP3    H111049   5.320   4.562   5.363 -1.6422  0.6557 -0.7574
 3702TIP3    H211050   5.206   4.484   5.302 -0.5956 -2.0169  0.5326
 3703TIP3   OH211051   0.863   4.339   4.807 -0.2218  0.0682  0.7058
 3703TIP3    H111052   0.836   4.387   4.729 -0.4090 -0.2310  0.5839
 3703TIP3    H211053   0.820   4.383   4.880  0.8756  1.0760  0.7789
 3704TIP3   OH211054   7.576   6.397   3.545  0.2368 -0.0373 -0.6154
 3704TIP3    H111055   7.530   6.454   3.484 -0.2988  0.4747  0.2475
 3704TIP3    H211056   7.601   6.454   3.618  1.1831 -0.5572 -0.5084
 3705TIP3   OH211057   0.471   3.915   3.719  0.2014 -0.4191  0.0817
 3705TIP3    H111058   0.492   3.874   3.803 -3.1065  0.8746  1.7553
 3705TIP3    H211059   0.503   4.005   3.727 -0.5662 -0.1468  0.2220
 3706TIP3   OH211060   1.324   7.535   6.491 -0.2606  0.2683 -0.1414
 3706TIP3    H111061   1.409   7.504   6.522 -0.2974  0.6792  0.3823
 3706TIP3    H211062   1.345   7.613   6.438 -0.2059 -0.3727 -1.0955
 3707TIP3   OH211063   2.526   3.773   4.200 -0.2888  0.2243 -0.2194
 3707TIP3    H111064   2.582   3.827   4.255 -2.4751  1.3119  1.0926
 3707TIP3    H211065   2.529   3.813   4.113  0.0260  0.9807  0.1389
 3708TIP3   OH211066   5.457   6.257   4.961  0.0782 -0.1273  0.2930
 3708TIP3    H111067   5.436   6.220   5.046 -0.8718 -0.9344 -0.2737
 3708TIP3    H211068   5.533   6.313   4.977 -0.5664  0.3672  1.8175
 3709TIP3   OH211069   7.538   0.554   2.131 -0.0403 -0.0483 -0.5858
 3709TIP3    H111070   7.483   0.629   2.151  0.5634  0.2815 -0.1425
 3709TIP3    H211071   7.481   0.478   2.145 -1.0217  0.3449 -2.2018
 3710TIP3   OH211072   3.262   2.399   0.007  0.4464 -0.1218  0.3586
 3710TIP3    H111073   3.221   2.324  -0.035  0.7735 -0.0217 -0.1500
 3710TIP3    H211074   3.196   2.432   0.068 -1.5887  1.9935 -2.6760
 3711TIP3   OH211075   7.073   0.525   5.847  0.0281 -0.6509 -0.8254
 3711TIP3    H111076   7.039   0.515   5.936  0.6185  0.3186 -0.4640
 3711TIP3    H211077   6.996   0.520   5.790 -0.2308 -2.4486 -0.3834
 3712TIP3   OH211078   0.453   2.937   5.621  0.2226  0.0826 -0.5290
 3712TIP3    H111079   0.514   2.865   5.639  0.5607  0.1993 -1.1785
 3712TIP3    H211080   0.419   2.918   5.534 -0.9956 -0.1978 -0.0123
 3713TIP3   OH211081   5.234   7.188   5.574  0.1415  0.2307  0.3552
 3713TIP3    H111082   5.173   7.147   5.636  0.1629  0.5661  0.6009
 3713TIP3    H211083   5.269   7.115   5.523  0.1403 -0.0540  0.7569
 3714TIP3   OH211084   2.843   1.291   5.176  0.3783 -0.5058  0.1427
 3714TIP3    H111085   2.915   1.340   5.136 -0.6511 -0.5378 -1.8592
 3714TIP3    H211086   2.764   1.331   5.141 -0.5290 -3.3013 -1.3465
 3715TIP3   OH211087   6.389   5.214   3.419 -0.1800 -0.1734 -0.8221
 3715TIP3    H111088   6.424   5.160   3.489 -0.4644 -0.0125 -0.5540
 3715TIP3    H211089   6.463   5.266   3.388 -0.1566  0.0868 -0.3331
 3716TIP3   OH211090   8.252   6.618   1.966  0.1049  0.0721  0.7748
 3716TIP3    H111091   8.247   6.668   1.884 -1.1961 -1.8668 -0.4272
 3716TIP3    H211092   8.175   6.644   2.015 -0.6961 -0.8363  0.0486
 3717TIP3   OH211093   1.924   5.236   6.715  0.0066 -0.6617  0.1244
 3717TIP3    H111094   1.993   5.169   6.718  0.4232 -0.1976  2.4760
 3717TIP3    H211095   1.972   5.319   6.710 -0.3391 -0.3364  1.7261
 3718TIP3   OH211096   7.603   6.032   6.753  0.5334 -0.1462 -0.0654
 3718TIP3    H111097   7.673   6.076   6.705 -0.5562  0.6966 -0.9356
 3718TIP3    H211098   7.566   6.101   6.809  1.4950 -1.0024  1.7214
 3719TIP3   OH211099   6.060   5.247   2.059  0.0286 -0.5760 -0.0642
 3719TIP3    H111100   6.149   5.248   2.093  0.2256  1.1305 -0.5515
 3719TIP3    H211101   6.071   5.237   1.964  0.0053  3.4810 -0.6614
 3720TIP3   OH211102   1.804   5.533   3.806 -0.0592  0.4326  0.3919
 3720TIP3    H111103   1.722   5.528   3.757 -0.4932  0.9361  1.0404
 3720TIP3    H211104   1.843   5.447   3.797 -0.6038  0.2221 -0.0205
 3721TIP3   OH211105   0.496   4.408   1.970 -0.0061  1.1790 -0.7809
 3721TIP3    H111106   0.488   4.324   1.924  1.4816 -0.1423  1.1904
 3721TIP3    H211107   0.409   4.447   1.963 -1.4701 -1.5992  0.1533
 3722TIP3   OH211108   2.175   6.635   1.832 -0.0073 -0.2400 -0.3334
 3722TIP3    H111109   2.217   6.604   1.912  0.7643  3.2821  0.7575
 3722TIP3    H211110   2.082   6.641   1.854  0.0317 -0.3828 -0.1295
 3723TIP3   OH211111   2.444   0.991   0.579 -0.0880 -0.6761 -0.7720
 3723TIP3    H111112   2.533   0.994   0.613  0.2922  0.1990 -1.7731
 3723TIP3    H211113   2.417   1.083   0.574 -0.6123 -0.8573 -1.5347
 3724TIP3   OH211114   7.653   4.495   0.881  0.1905  0.2202 -0.3112
 3724TIP3    H111115   7.579   4.490   0.820  0.3637  0.1296 -0.5156
 3724TIP3    H211116   7.612   4.502   0.967 -0.1486 -2.6391 -0.1196
 3725TIP3   OH211117   5.064   7.804   6.444  0.1811 -0.2545  0.5291
 3725TIP3    H111118   5.108   7.815   6.528 -0.1422 -0.0350  0.6689
 3725TIP3    H211119   5.135   7.786   6.382  0.4956  0.3930  0.6991
 3726TIP3   OH211120   4.677   5.199   2.191 -0.3831  0.1771 -0.6756
 3726TIP3    H111121   4.661   5.153   2.109  1.0734 -0.4888 -0.6058
 3726TIP3    H211122   4.644   5.288   2.176  3.1024  1.2209 -3.2984
 3727TIP3   OH211123   6.873   5.182   1.828  0.6812 -0.4577  0.5930
 3727TIP3    H111124   6.828   5.266   1.842  0.5581 -0.0237 -2.0349
 3727TIP3    H211125   6.944   5.182   1.892  0.4827  1.5044  0.8686
 3728TIP3   OH211126   0.244   5.087   4.592 -0.1977  0.1161 -0.8693
 3728TIP3    H111127   0.242   5.169   4.543 -0.9476  0.1934 -0.7289
 3728TIP3    H211128   0.337   5.067   4.603 -0.0111  0.8599 -1.0514
 3729TIP3   OH211129   5.320   6.412   3.841  0.1520  0.1345 -0.1231
 3729TIP3    H111130   5.258   6.340   3.833  0.3817 -0.2721  1.3673
 3729TIP3    H211131   5.276   6.487   3.802 -1.8991  0.2081  2.0598
 3730TIP3   OH211132   5.074   6.846   0.192 -0.2705 -0.3770  0.1047
 3730TIP3    H111133   5.019   6.767   0.189 -0.0534 -0.5049 -1.6949
 3730TIP3    H211134   5.097   6.863   0.101  2.1651  0.0634  0.7256
 3731TIP3   OH211135   2.830   2.071   4.683  0.3925 -0.1701  0.0636
 3731TIP3    H111136   2.892   2.138   4.709 -0.9247  1.3574 -0.5657
 3731TIP3    H211137   2.882   2.010   4.630  1.5290  0.5937  0.2592
 3732TIP3   OH211138   2.282   0.073   1.057  0.4330  0.4180 -0.3744
 3732TIP3    H111139   2.339   0.106   0.987  1.1612  2.1906  0.9703
 3732TIP3    H211140   2.201   0.123   1.046  0.7958  1.2080  0.4218
 3733TIP3   OH211141   8.240   1.368   2.924  0.1191  0.3372 -0.0336
 3733TIP3    H111142   8.280   1.455   2.915  0.1418  0.3649  0.3182
 3733TIP3    H211143   8.167   1.382   2.984 -0.7024  0.3775 -1.0196
 3734TIP3   OH211144   2.655   7.503   0.274 -0.3376 -0.1941 -0.2668
 3734TIP3    H111145   2.688   7.587   0.306 -0.4217  0.8553 -2.7003
 3734TIP3    H211146   2.568   7.495   0.313  0.1621  0.2039  0.9800
 3735TIP3   OH211147   3.158   1.586   3.080 -0.1792  0.7370  0.2573
 3735TIP3    H111148   3.064   1.597   3.096 -0.9109 -2.9502 -0.6137
 3735TIP3    H211149   3.184   1.515   3.139  1.3553 -0.3270 -1.6033
 3736TIP3   OH211150   4.071   5.291   0.186 -0.4199 -0.5914 -0.6177
 3736TIP3    H111151   4.054   5.374   0.142 -2.5879 -0.2957  0.6041
 3736TIP3    H211152   4.115   5.237   0.120  0.1720  1.1833 -1.7370
 3737TIP3   OH211153   1.598   1.743   2.896  0.8879 -0.5873  0.1738
 3737TIP3    H111154   1.628   1.834   2.893  2.4390 -0.9685  2.1599
 3737TIP3    H211155   1.544   1.738   2.975  1.7655 -1.6289  0.7347
 3738TIP3   OH211156   5.104   2.159   2.822  0.2977  0.5261 -0.0140
 3738TIP3    H111157   5.152   2.220   2.765 -0.1277  1.0198  0.1473
 3738TIP3    H211158   5.081   2.086   2.765  2.0125 -0.1498  0.1027
 3739TIP3   OH211159   7.385   0.915   2.848 -0.5253 -0.1035  0.9076
 3739TIP3    H111160   7.475   0.917   2.880 -0.0300  0.1392 -0.4503
 3739TIP3    H211161   7.366   1.006   2.825 -1.4373  0.0006  2.0139
 3740TIP3   OH211162   3.479   0.945   0.663 -0.0309 -0.0129  0.1564
 3740TIP3    H111163   3.570   0.947   0.635  0.0778  1.0125  0.5179
 3740TIP3    H211164   3.483   0.920   0.755 -0.1075  0.0032  0.1642
 3741TIP3   OH211165   3.022   3.196   3.094  0.4870  0.6642 -0.4595
 3741TIP3    H111166   2.944   3.208   3.148 -0.2338  0.8476 -1.4951
 3741TIP3    H211167   3.095   3.193   3.156 -0.5070 -1.5775  0.7249
 3742TIP3   OH211168   2.842   6.067   0.637 -0.2887  0.4647 -0.8334
 3742TIP3    H111169   2.866   6.135   0.700 -0.7149  0.2666 -0.4527
 3742TIP3    H211170   2.907   5.999   0.649 -0.3583  0.4354 -0.6140
 3743TIP3   OH211171   2.117   7.677   3.552  0.2286 -0.0896  0.4657
 3743TIP3    H111172   2.101   7.643   3.464  1.1710 -1.7381  0.8988
 3743TIP3    H211173   2.114   7.600   3.608  1.8821  0.5997  1.5732
 3744TIP3   OH211174   5.212   3.575   2.209 -0.4410  0.2555  0.0159
 3744TIP3    H111175   5.286   3.552   2.265 -0.2067 -2.2982 -1.1992
 3744TIP3    H211176   5.250   3.627   2.139 -0.0423  0.1309  0.1352
 3745TIP3   OH211177   1.047   1.894   2.124 -0.5791 -0.6460  0.4690
 3745TIP3    H111178   1.050   1.850   2.209  3.3285 -1.3672  0.1173
 3745TIP3    H211179   1.072   1.984   2.143  1.6119 -1.1116  0.0262
 3746TIP3   OH211180   2.006   2.329   4.596  0.2238 -0.7347 -0.5371
 3746TIP3    H111181   2.086   2.358   4.553 -0.0134  0.2249 -0.3565
 3746TIP3    H211182   1.968   2.409   4.633  0.6344 -1.5707  1.8365
 3747TIP3   OH211183   0.731   6.787   3.273  0.1710 -0.1906 -0.5818
 3747TIP3    H111184   0.807   6.821   3.321  0.3010 -1.5094  0.1983
 3747TIP3    H211185   0.664   6.855   3.283  0.8925  0.5001 -0.3347
 3748TIP3   OH211186   2.461   0.815   0.097  0.0341 -0.1679 -0.7503
 3748TIP3    H111187   2.443   0.754   0.025 -0.8072 -0.1360 -0.5803
 3748TIP3    H211188   2.376   0.825   0.141  0.1188  1.2453 -0.8733
 3749TIP3   OH211189   5.921   1.839   2.458 -0.4462  0.1538  0.7772
 3749TIP3    H111190   5.961   1.767   2.506 -1.3078 -0.9070 -0.0640
 3749TIP3    H211191   5.850   1.869   2.515 -1.6021 -1.2427  0.1220
 3750TIP3   OH211192   2.043   2.981   5.938 -0.2353 -0.3197 -0.0962
 3750TIP3    H111193   2.059   2.982   5.844 -0.3200  1.4931 -0.1324
 3750TIP3    H211194   2.128   2.998   5.977 -0.5972  1.4921  0.0134
 3751TIP3   OH211195   0.489   1.360   6.743  0.1975  0.0657 -0.5475
 3751TIP3    H111196   0.462   1.341   6.653 -2.1570  0.2011  0.0899
 3751TIP3    H211197   0.585   1.353   6.740  0.1139 -1.1406 -2.7724
 3752TIP3   OH211198   5.917   4.343   1.190  0.4584  0.1623  0.2843
 3752TIP3    H111199   5.887   4.342   1.281  1.1403 -0.3810  0.5047
 3752TIP3    H211200   5.892   4.430   1.158 -0.8314 -0.0677  0.6302
 3753TIP3   OH211201   1.537   4.255   5.484  0.3261  0.1086  0.2724
 3753TIP3    H111202   1.457   4.266   5.535  0.6847  3.2174  0.3185
 3753TIP3    H211203   1.509   4.260   5.392  0.3232 -0.2948  0.2463
 3754TIP3   OH211204   4.484   2.716   3.422 -0.3650 -0.5217 -0.0484
 3754TIP3    H111205   4.554   2.654   3.401 -0.2029 -0.4003  0.1276
 3754TIP3    H211206   4.507   2.795   3.373  0.0631 -0.2069  0.6461
 3755TIP3   OH211207   0.802   1.823   3.613  0.2648 -0.2496  0.5775
 3755TIP3    H111208   0.850   1.756   3.565  0.6923  0.7615 -0.4559
 3755TIP3    H211209   0.741   1.860   3.549  0.9370  1.2166  0.7389
 3756TIP3   OH211210   2.032   7.234   5.460  0.1694  0.4070 -0.2581
 3756TIP3    H111211   2.036   7.232   5.364  2.2853 -0.3400 -0.1956
 3756TIP3    H211212   2.044   7.143   5.487  1.3367  0.8271  0.7277
 3757TIP3   OH211213   1.758   0.549   1.959  0.3176  0.1842 -0.4631
 3757TIP3    H111214   1.844   0.565   1.998  0.4999  1.1534 -1.2237
 3757TIP3    H211215   1.699   0.537   2.034  1.2484 -1.3306  0.0533
 3758TIP3   OH211216   5.378   7.336   4.477  0.3659  0.1491 -0.3111
 3758TIP3    H111217   5.381   7.242   4.496  2.1631  0.6877  2.9682
 3758TIP3    H211218   5.304   7.369   4.529 -1.7188  0.3838 -3.1925
 3759TIP3   OH211219   1.385   0.506   5.235 -0.1105  0.2990 -0.2768
 3759TIP3    H111220   1.393   0.500   5.140  0.4383 -1.6741 -0.1549
 3759TIP3    H211221   1.475   0.492   5.267 -0.5664 -0.9382  0.5536
 3760TIP3   OH211222   2.889   4.060   0.246  0.2703  0.3344  0.4440
 3760TIP3    H111223   2.883   4.144   0.291  1.7284 -0.1412  1.6223
 3760TIP3    H211224   2.983   4.047   0.233  0.0498 -0.9799  0.0339
 3761TIP3   OH211225   0.323   0.758   6.153  0.3834 -1.0947 -0.1541
 3761TIP3    H111226   0.415   0.785   6.153  0.4729 -1.3774 -0.9436
 3761TIP3    H211227   0.277   0.833   6.117  0.2126 -0.6989  0.8487
 3762TIP3   OH211228   8.105   5.471   1.858  0.2000 -0.5327  0.3062
 3762TIP3    H111229   8.119   5.539   1.792  1.0346 -0.3001  0.7100
 3762TIP3    H211230   8.013   5.483   1.885 -0.0220 -0.3641 -0.5034
 3763TIP3   OH211231   3.527   6.083   3.928 -0.1446  0.4341 -0.6713
 3763TIP3    H111232   3.512   6.075   4.022  1.9224  0.9273 -0.2482
 3763TIP3    H211233   3.591   6.154   3.919  0.1828 -0.0089 -2.3927
 3764TIP3   OH211234   2.725   0.589   4.119 -0.7252  0.7482  0.5839
 3764TIP3    H111235   2.812   0.575   4.157 -0.3455 -2.6199 -1.0718
 3764TIP3    H211236   2.733   0.671   4.070  1.8288  0.1959 -0.1045
 3765TIP3   OH211237   4.118   3.507   3.614  0.4540 -0.4967  0.2958
 3765TIP3    H111238   4.060   3.482   3.686  0.0145 -0.0082  0.1188
 3765TIP3    H211239   4.194   3.449   3.623  0.5864 -0.1766  1.3925
 3766TIP3   OH211240   4.744   5.148   5.164 -0.0110 -0.1241  0.3182
 3766TIP3    H111241   4.743   5.085   5.236 -1.0961  1.2308  1.5422
 3766TIP3    H211242   4.789   5.225   5.200  2.2293 -0.4903 -1.4676
 3767TIP3   OH211243   1.861   1.698   5.970  0.5196  0.7098  0.2565
 3767TIP3    H111244   1.853   1.631   5.902  1.2572 -0.1855  1.0242
 3767TIP3    H211245   1.953   1.695   5.996 -0.0327 -0.0280  2.3221
 3768TIP3   OH211246   6.461   6.427   1.745 -0.4497 -0.1020 -0.1568
 3768TIP3    H111247   6.439   6.510   1.704 -0.3812  1.8907  3.5025
 3768TIP3    H211248   6.556   6.431   1.759 -0.6196 -0.1905  1.1559
 3769TIP3   OH211249   6.042   4.903   2.435  0.4217 -0.0304 -0.3407
 3769TIP3    H111250   6.072   4.974   2.492 -0.3676 -0.1601  0.2603
 3769TIP3    H211251   6.120   4.875   2.389  1.0813  0.1064  0.6577
 3770TIP3   OH211252   1.409   6.706   1.106  0.4808 -0.3216  0.3192
 3770TIP3    H111253   1.446   6.628   1.064  2.4397  0.0906  1.1512
 3770TIP3    H211254   1.472   6.728   1.175 -1.1370  0.7423  1.5390
 3771TIP3   OH211255   0.412   7.513   1.184 -0.2136  0.0403  0.1734
 3771TIP3    H111256   0.326   7.473   1.196 -0.6201  1.1109  1.0049
 3771TIP3    H211257   0.461   7.451   1.130 -2.1891  0.3556 -2.1718
 3772TIP3   OH211258   3.761   5.757   0.627 -0.1642  0.0079 -0.1604
 3772TIP3    H111259   3.749   5.814   0.704 -0.9616 -0.8911  0.4080
 3772TIP3    H211260   3.730   5.671   0.657  0.6967 -0.6417 -1.1093
 3773TIP3   OH211261   0.640   5.044   5.049 -0.0354 -0.0577  0.3889
 3773TIP3    H111262   0.653   5.131   5.088 -1.0242  0.2914 -0.0185
 3773TIP3    H211263   0.558   5.053   4.999  0.2130 -1.0346 -0.2071
 3774TIP3   OH211264   0.877   4.887   0.293 -0.6090 -0.5851 -0.4742
 3774TIP3    H111265   0.935   4.820   0.330  2.0098  1.4040 -0.7444
 3774TIP3    H211266   0.852   4.941   0.368  1.7657  1.2907 -0.9176
 3775TIP3   OH211267   5.952   5.569   4.243 -0.4027  0.0895  0.0347
 3775TIP3    H111268   6.008   5.645   4.229  1.7316 -1.0597  1.6405
 3775TIP3    H211269   6.012   5.495   4.249 -2.4152 -1.8707 -1.9329
 3776TIP3   OH211270   5.184   1.366   6.180  0.0356 -0.6549  0.0963
 3776TIP3    H111271   5.160   1.366   6.273 -0.3589 -0.2209  0.0017
 3776TIP3    H211272   5.165   1.277   6.150 -0.6693 -0.5592  0.2307
 3777TIP3   OH211273   3.228   6.563   4.330  0.5125  0.6456  0.1701
 3777TIP3    H111274   3.310   6.541   4.286  0.7593  2.1030 -0.1614
 3777TIP3    H211275   3.162   6.509   4.287  1.0219  0.7789 -0.8077
 3778TIP3   OH211276   7.473   6.575   3.374  0.0345  0.1096 -0.4271
 3778TIP3    H111277   7.444   6.644   3.434 -1.4731 -1.2284  0.4684
 3778TIP3    H211278   7.394   6.546   3.330  0.5297 -1.3842 -0.4014
 3779TIP3   OH211279   8.114   1.421   3.176 -0.0752  0.4900 -0.2467
 3779TIP3    H111280   8.029   1.457   3.151  0.5427  1.7763 -0.5992
 3779TIP3    H211281   8.157   1.492   3.224  0.2838 -0.6065  1.1452
 3780TIP3   OH211282   6.745   1.766   0.896  0.3462 -0.1333  0.1196
 3780TIP3    H111283   6.788   1.755   0.812 -1.5455 -0.2612 -0.8809
 3780TIP3    H211284   6.782   1.846   0.933 -0.3475  1.1543 -1.8495
 3781TIP3   OH211285   3.357   0.861   4.380  0.2261 -0.6203 -0.8124
 3781TIP3    H111286   3.325   0.779   4.419  1.8070 -1.1812 -0.5995
 3781TIP3    H211287   3.365   0.921   4.454  1.4009 -1.0785 -0.5434
 3782TIP3   OH211288   6.486   7.026   5.050 -0.2067 -0.1317 -0.6246
 3782TIP3    H111289   6.560   7.004   5.107  0.9122 -0.2184 -2.0356
 3782TIP3    H211290   6.522   7.089   4.988 -2.0201  1.7942  0.1846
 3783TIP3   OH211291   1.557   0.648   3.725  0.0842  0.5863  0.4446
 3783TIP3    H111292   1.529   0.558   3.709 -0.7425  1.0068 -0.6372
 3783TIP3    H211293   1.652   0.643   3.733 -0.0335 -0.4956  1.3361
 3784TIP3   OH211294   2.637   2.219   3.918 -0.1976 -0.2296 -0.4600
 3784TIP3    H111295   2.589   2.146   3.878 -0.4814  0.2944 -1.0816
 3784TIP3    H211296   2.581   2.295   3.904 -0.5862 -0.1059  1.4338
 3785TIP3   OH211297   4.239   0.480   2.349 -0.2874 -0.1702  0.5039
 3785TIP3    H111298   4.237   0.384   2.342  0.4437 -0.1721  0.2603
 3785TIP3    H211299   4.150   0.504   2.373 -0.9462 -0.7580 -1.2245
 3786TIP3   OH211300   7.275   6.519   0.046 -0.1627 -0.0934  0.0056
 3786TIP3    H111301   7.198   6.573   0.060 -0.4079 -0.8528  1.8417
 3786TIP3    H211302   7.344   6.561   0.099 -0.2229 -1.2262  1.0405
 3787TIP3   OH211303   0.370   3.933   0.126 -0.1526 -0.6237 -0.0148
 3787TIP3    H111304   0.412   3.850   0.148 -0.3063 -0.8011 -0.3802
 3787TIP3    H211305   0.335   3.965   0.209  1.1198 -0.2369  0.3880
 3788TIP3   OH211306   2.633   3.183   3.856  0.1713 -0.0775  0.0978
 3788TIP3    H111307   2.668   3.253   3.801  1.4075 -0.5602  0.2416
 3788TIP3    H211308   2.679   3.193   3.939 -0.0388 -0.7426  0.2966
 3789TIP3   OH211309   4.319   1.661   5.165  0.6170  0.9635  0.3340
 3789TIP3    H111310   4.358   1.574   5.171  0.3813  0.6025 -2.1048
 3789TIP3    H211311   4.339   1.690   5.076  1.2282  3.7107  1.2883
 3790TIP3   OH211312   0.137   4.448   1.199 -0.0467 -0.7166 -0.0383
 3790TIP3    H111313   0.107   4.500   1.124 -0.2615  0.5880  0.9026
 3790TIP3    H211314   0.139   4.358   1.167  0.6318 -0.1060 -1.8378
 3791TIP3   OH211315   6.048   3.211   5.892 -0.0454 -0.4579  0.0847
 3791TIP3    H111316   5.979   3.190   5.955  0.2825 -0.8984  0.3046
 3791TIP3    H211317   6.011   3.184   5.807 -0.7311  0.7232 -0.0065
 3792TIP3   OH211318   2.024   0.088   6.348 -0.3430  0.0653  0.4501
 3792TIP3    H111319   1.941   0.135   6.336  0.0445  1.1485  1.6848
 3792TIP3    H211320   2.071   0.100   6.266 -0.5693  1.2483  0.4782
 3793TIP3   OH211321   4.949   2.657   5.199  0.3438  0.4141 -0.1209
 3793TIP3    H111322   4.970   2.749   5.182  0.0887  0.4456 -0.2704
 3793TIP3    H211323   5.034   2.617   5.220  0.4292  0.7233  0.1399
 3794TIP3   OH211324   0.420   5.916   5.678  0.2064  0.2128 -0.0972
 3794TIP3    H111325   0.382   5.848   5.623  0.4441 -0.0818  0.0979
 3794TIP3    H211326   0.460   5.978   5.616  3.6750 -1.9257 -0.2945
 3795TIP3   OH211327   3.418   6.887   2.484  0.0122  0.2881 -0.1334
 3795TIP3    H111328   3.371   6.897   2.567  0.9342 -0.6378  0.5386
 3795TIP3    H211329   3.509   6.906   2.507  0.1297  0.9793 -1.1563
 3796TIP3   OH211330   2.208   0.506   0.005  0.6180  0.0034 -0.0619
 3796TIP3    H111331   2.259   0.487  -0.074  1.2892  0.1749  0.3223
 3796TIP3    H211332   2.263   0.476   0.077  0.1199  0.0865  0.3556
 3797TIP3   OH211333   5.005   3.781   4.352  0.2488 -0.9050  0.0760
 3797TIP3    H111334   4.968   3.755   4.436 -1.0754  0.6935  0.0274
 3797TIP3    H211335   5.077   3.840   4.374 -1.4002  1.1989  0.1416
 3798TIP3   OH211336   4.000   4.386   0.930 -0.3197 -0.1758  0.2782
 3798TIP3    H111337   4.004   4.361   1.023 -0.7911 -0.9586  0.1001
 3798TIP3    H211338   3.908   4.402   0.914 -0.1463  0.6962  0.1195
 3799TIP3   OH211339   3.290   2.981   6.051  0.2745  0.6816  0.5643
 3799TIP3    H111340   3.351   2.913   6.081  0.0459  0.9627  1.7218
 3799TIP3    H211341   3.261   3.024   6.131  1.4463  3.0486 -0.1898
 3800TIP3   OH211342   1.313   1.506   6.712 -0.8368  0.2942 -0.3980
 3800TIP3    H111343   1.302   1.462   6.628 -2.2767  1.4004 -0.8295
 3800TIP3    H211344   1.394   1.557   6.703 -0.9248  0.3162 -1.0728
 3801TIP3   OH211345   3.041   6.515   2.118 -0.2197 -0.7989  0.1840
 3801TIP3    H111346   3.067   6.572   2.046  1.0779 -0.4299  0.9054
 3801TIP3    H211347   3.110   6.525   2.183 -2.7977  1.2588  2.8848
 3802TIP3   OH211348   6.118   3.486   6.709 -0.3936 -0.1480 -0.4134
 3802TIP3    H111349   6.126   3.492   6.614 -0.1792 -1.1254 -0.4657
 3802TIP3    H211350   6.024   3.476   6.725 -0.5304  0.9675 -0.4546
 3803TIP3   OH211351   6.376   2.962   6.344 -0.1522 -0.3621  0.7891
 3803TIP3    H111352   6.378   2.982   6.438  0.6042 -0.3937  0.7829
 3803TIP3    H211353   6.283   2.953   6.324 -0.2735 -1.4640  1.7701
 3804TIP3   OH211354   7.812   5.895   5.561 -0.0558  0.1719  0.2358
 3804TIP3    H111355   7.868   5.963   5.597 -1.9345  2.0673 -0.2118
 3804TIP3    H211356   7.724   5.932   5.567 -0.8168 -0.7939 -3.1657
 3805TIP3   OH211357   0.866   1.524   1.427 -0.3149 -0.0338 -0.1716
 3805TIP3    H111358   0.838   1.494   1.340  0.1756  0.8148 -0.6416
 3805TIP3    H211359   0.960   1.537   1.418 -0.6301  2.7051 -0.3752
 3806TIP3   OH211360   6.976   0.364   4.802  0.2382 -0.2689 -0.5436
 3806TIP3    H111361   6.881   0.366   4.812  0.4423  1.0515  1.6836
 3806TIP3    H211362   6.995   0.273   4.776 -1.4335 -1.3048  1.5691
 3807TIP3   OH211363   0.565   3.339   5.448  0.2695 -0.0379  0.3429
 3807TIP3    H111364   0.536   3.295   5.528 -0.8049  1.9641  1.1094
 3807TIP3    H211365   0.575   3.431   5.472 -1.3064  0.8816 -2.0730
 3808TIP3   OH211366   5.308   0.388   6.282  0.3380  0.0788 -0.1036
 3808TIP3    H111367   5.282   0.385   6.374  1.6419 -0.2387  0.2766
 3808TIP3    H211368   5.395   0.429   6.283  0.4458 -0.0970 -1.1699
 3809TIP3   OH211369   0.512   0.619   3.586  0.2148  0.8816 -0.3334
 3809TIP3    H111370   0.489   0.668   3.666 -0.0855  0.1105  0.0634
 3809TIP3    H211371   0.607   0.632   3.576  0.5228 -0.1623  0.9578
 3810TIP3   OH211372   5.350   2.238   6.431  0.2966 -0.1887 -0.1319
 3810TIP3    H111373   5.435   2.200   6.452 -0.3780 -1.2213  0.8678
 3810TIP3    H211374   5.314   2.180   6.364 -0.6666 -1.3079  1.2805
 3811TIP3   OH211375   1.613   4.420   0.912 -0.4415 -0.0004 -0.6240
 3811TIP3    H111376   1.520   4.444   0.914 -0.2136  1.1179 -1.8617
 3811TIP3    H211377   1.630   4.381   0.997 -1.9052  0.3374 -0.1539
 3812TIP3   OH211378   1.990   1.719   1.373  0.0109  0.2402 -0.2385
 3812TIP3    H111379   1.924   1.763   1.426 -0.4938  0.1261 -0.7562
 3812TIP3    H211380   2.018   1.645   1.426  0.8108  1.1344  0.6033
 3813TIP3   OH211381   1.722   1.267   3.679  0.1538 -0.1099  0.1618
 3813TIP3    H111382   1.798   1.303   3.725  0.3519 -0.0446 -0.2121
 3813TIP3    H211383   1.727   1.173   3.696  1.3886 -0.3653 -1.3927
 3814TIP3   OH211384   2.241   1.701   3.696 -0.1353 -0.5002 -0.5922
 3814TIP3    H111385   2.146   1.713   3.696 -0.0095  1.2303 -2.9371
 3814TIP3    H211386   2.267   1.721   3.606  2.2646 -2.8649 -0.5420
 3815TIP3   OH211387   0.052   7.132   4.000 -0.2244  0.3029 -0.1160
 3815TIP3    H111388   0.006   7.136   3.916 -0.6809  0.4961  0.1425
 3815TIP3    H211389   0.087   7.043   4.004  0.3468  0.4857 -0.7943
 3816TIP3   OH211390   6.150   0.646   4.836 -0.6672  0.1676  0.1203
 3816TIP3    H111391   6.191   0.693   4.763  0.8004 -1.6705 -0.3418
 3816TIP3    H211392   6.104   0.573   4.794  0.1874 -0.9112  0.9691
 3817TIP3   OH211393   0.087   7.420   5.931 -0.0503  0.1678 -0.4022
 3817TIP3    H111394   0.037   7.417   5.849  0.8021  0.8344 -0.9520
 3817TIP3    H211395   0.136   7.502   5.927  1.1773 -0.5187  0.0810
 3818TIP3   OH211396   8.071   3.654   0.771 -0.2437 -0.1775  0.2838
 3818TIP3    H111397   8.162   3.625   0.764  0.0430  1.0127 -1.2808
 3818TIP3    H211398   8.057   3.709   0.694 -2.2100 -0.1022  0.6490
 3819TIP3   OH211399   6.786   0.968   2.794 -0.2614 -0.3269  0.5584
 3819TIP3    H111400   6.865   1.018   2.817 -1.3553  3.1145 -2.2277
 3819TIP3    H211401   6.815   0.911   2.723  0.4965 -2.2413  2.2908
 3820TIP3   OH211402   7.970   7.676   5.404 -0.5677 -0.3381  0.1150
 3820TIP3    H111403   7.887   7.629   5.392 -1.7837  1.3953  1.4254
 3820TIP3    H211404   7.945   7.763   5.432  1.7108  0.5157 -0.2893
 3821TIP3   OH211405   3.940   6.402   1.991 -0.3671  0.2471 -0.0808
 3821TIP3    H111406   3.917   6.445   2.074  0.4453  3.1127 -1.2309
 3821TIP3    H211407   4.033   6.421   1.979 -0.3119 -0.6948 -1.3599
 3822TIP3   OH211408   5.772   2.771   4.715  0.0055  0.8169 -0.3968
 3822TIP3    H111409   5.747   2.862   4.697  1.5274  1.3840  0.1612
 3822TIP3    H211410   5.769   2.728   4.630 -0.1106  1.5696 -0.7842
 3823TIP3   OH211411   3.938   0.898   6.158 -0.2822 -0.7862  0.0273
 3823TIP3    H111412   3.849   0.868   6.175 -1.6517  2.7760  0.1225
 3823TIP3    H211413   3.953   0.967   6.223  1.2082  0.9313 -1.9761
 3824TIP3   OH211414   0.955   2.379   4.937  0.4289 -0.3178  0.1543
 3824TIP3    H111415   0.927   2.318   4.868  1.1154 -1.1840  0.6175
 3824TIP3    H211416   0.920   2.464   4.910 -1.2834 -1.0561 -0.0951
 3825TIP3   OH211417   7.022   6.232   6.401  0.0660  0.2171 -0.1591
 3825TIP3    H111418   7.109   6.252   6.365  0.6399 -2.5606 -0.6002
 3825TIP3    H211419   6.968   6.214   6.324  0.0772 -1.3717  0.1632
 3826TIP3   OH211420   3.153   2.058   0.796 -0.2103  0.3317  0.2768
 3826TIP3    H111421   3.184   1.989   0.854  1.1355 -0.5051 -1.3628
 3826TIP3    H211422   3.200   2.136   0.825  0.4684 -0.0814  0.3009
 3827TIP3   OH211423   8.033   0.039   4.813 -0.2222  0.3732 -0.8374
 3827TIP3    H111424   8.019   0.085   4.895 -0.2005  1.1957 -1.2862
 3827TIP3    H211425   7.949   0.045   4.767 -0.8101 -1.6335 -0.1473
 3828TIP3   OH211426   5.151   1.596   0.130 -0.1256  0.0814 -0.2115
 3828TIP3    H111427   5.121   1.664   0.189  0.4012 -1.0183  1.3933
 3828TIP3    H211428   5.228   1.634   0.086 -0.4019  0.8395 -0.0508
 3829TIP3   OH211429   4.496   1.266   6.439  0.7017 -0.1068 -0.0356
 3829TIP3    H111430   4.519   1.227   6.523 -0.0878  1.4825  0.9690
 3829TIP3    H211431   4.432   1.205   6.401 -0.3374  0.0470  1.3895
 3830TIP3   OH211432   3.207   5.456   1.228  0.1361  0.3974  0.0743
 3830TIP3    H111433   3.233   5.500   1.147  1.2111 -1.9373 -0.9571
 3830TIP3    H211434   3.123   5.414   1.206  1.5526 -2.2525 -0.7774
 3831TIP3   OH211435   8.037   2.002   6.563  0.4098 -0.1258  0.1254
 3831TIP3    H111436   8.109   2.065   6.566  0.5179 -0.0916 -1.9344
 3831TIP3    H211437   8.060   1.936   6.628  1.1959  0.9963  1.0297
 3832TIP3   OH211438   6.975   3.534   2.050 -0.2033  0.1190 -0.2695
 3832TIP3    H111439   6.881   3.535   2.035 -0.1357  0.1715 -0.7230
 3832TIP3    H211440   6.985   3.526   2.145 -0.6844  2.3545  0.0234
 3833TIP3   OH211441   5.417   5.393   3.657 -0.0866  0.0740 -0.3458
 3833TIP3    H111442   5.416   5.324   3.591  0.1525  0.0082 -0.2811
 3833TIP3    H211443   5.326   5.420   3.664 -0.0593  0.3277 -0.9559
 3834TIP3   OH211444   7.736   6.878   3.175 -0.0625  0.0768  0.1967
 3834TIP3    H111445   7.795   6.922   3.237  2.1856  0.1316 -1.8396
 3834TIP3    H211446   7.769   6.788   3.171 -0.2353  0.0430 -0.7982
 3835TIP3   OH211447   5.161   1.872   6.089 -0.5432  0.7210 -0.7601
 3835TIP3    H111448   5.195   1.824   6.014  0.1064  0.8284 -0.5451
 3835TIP3    H211449   5.094   1.814   6.127 -1.5269  1.0546 -1.9317
 3836TIP3   OH211450   1.570   0.494   2.537  0.1427  0.0090  0.2926
 3836TIP3    H111451   1.594   0.553   2.609  0.2834 -0.9222  1.0370
 3836TIP3    H211452   1.476   0.507   2.524  0.5242  1.9099 -0.9893
 3837TIP3   OH211453   3.085   6.112   0.085 -0.1582 -0.0366  0.0790
 3837TIP3    H111454   3.017   6.112   0.152 -0.6596  3.5074 -0.2191
 3837TIP3    H211455   3.161   6.152   0.127  0.4145 -0.2840 -0.6907
 3838TIP3   OH211456   1.621   3.700   1.339 -0.5427 -0.4318 -0.1282
 3838TIP3    H111457   1.573   3.679   1.259  0.6193 -1.0678 -0.6813
 3838TIP3    H211458   1.555   3.696   1.408 -1.7734  1.0663 -1.1486
 3839TIP3   OH211459   3.833   4.336   1.852 -0.0691 -0.3532 -0.3732
 3839TIP3    H111460   3.759   4.316   1.910  0.2271  0.6095  0.3784
 3839TIP3    H211461   3.899   4.374   1.910  0.6013 -0.2081 -1.2074
 3840TIP3   OH211462   5.068   3.720   0.299  0.0365 -0.1190 -0.1424
 3840TIP3    H111463   4.992   3.771   0.327  1.3795  1.1546  1.4110
 3840TIP3    H211464   5.031   3.647   0.249 -2.0794  1.2986 -0.7681
 3841TIP3   OH211465   5.895   3.892   5.079 -0.2912  0.4914 -0.5587
 3841TIP3    H111466   5.895   3.904   4.984 -1.3043 -0.4004 -0.6843
 3841TIP3    H211467   5.865   3.976   5.114 -2.1343  0.1122 -1.1520
 3842TIP3   OH211468   0.263   0.565   0.916  0.6722  0.7838  0.1026
 3842TIP3    H111469   0.316   0.576   0.995 -0.2692  0.9789  0.7230
 3842TIP3    H211470   0.230   0.476   0.921  0.5691  0.8127 -0.0447
 3843TIP3   OH211471   4.189   5.048   2.815 -0.2465  0.3269 -0.5728
 3843TIP3    H111472   4.100   5.045   2.779 -1.0611 -0.4038  1.3075
 3843TIP3    H211473   4.176   5.039   2.910  1.8854 -0.7062 -0.3142
 3844TIP3   OH211474   6.961   4.255   0.816  0.2023  0.5026 -0.2359
 3844TIP3    H111475   6.906   4.332   0.800 -0.6147 -0.2769 -1.3461
 3844TIP3    H211476   7.038   4.289   0.860 -0.4514  1.8625 -0.0961
 3845TIP3   OH211477   2.797   6.464   1.467 -0.2848 -0.5537  0.2192
 3845TIP3    H111478   2.728   6.522   1.499 -1.4450 -0.2146 -2.5922
 3845TIP3    H211479   2.750   6.388   1.431  0.8027 -0.6033 -1.2223
 3846TIP3   OH211480   3.920   6.208   3.296 -0.1458 -0.4687  0.5499
 3846TIP3    H111481   3.831   6.232   3.270  0.8246  0.8628 -1.8558
 3846TIP3    H211482   3.909   6.131   3.352 -2.8174 -0.0247  0.7461
 3847TIP3   OH211483   2.604   2.374   6.612  0.0890  0.0597  0.6773
 3847TIP3    H111484   2.558   2.433   6.552  0.3027  0.8370  1.2554
 3847TIP3    H211485   2.688   2.417   6.628  0.2614 -0.4187  1.0789
 3848TIP3   OH211486   1.666   7.493   4.902 -0.2933 -0.5484  0.4540
 3848TIP3    H111487   1.704   7.501   4.989  0.2489 -0.4272  0.2061
 3848TIP3    H211488   1.738   7.463   4.846  0.0310  1.7139 -0.4421
 3849TIP3   OH211489   3.288   0.395   5.219 -0.6991 -0.2690  0.2498
 3849TIP3    H111490   3.268   0.387   5.126 -0.4935 -1.7136  0.3037
 3849TIP3    H211491   3.246   0.477   5.246 -0.8200  0.1315 -1.0871
 3850TIP3   OH211492   4.568   5.082   1.944 -0.8969  0.1807  0.6775
 3850TIP3    H111493   4.651   5.041   1.921 -0.4998 -0.1765  2.6011
 3850TIP3    H211494   4.528   5.105   1.860  1.0736  0.2385 -0.2850
 3851TIP3   OH211495   0.251   4.156   5.654 -0.0673  0.1207 -0.3123
 3851TIP3    H111496   0.228   4.203   5.734  0.8265 -0.0451  0.0516
 3851TIP3    H211497   0.321   4.097   5.679  1.4726  1.3129 -1.5665
 3852TIP3   OH211498   5.620   3.048   2.390 -0.1629  0.1820 -0.1770
 3852TIP3    H111499   5.629   2.959   2.355  0.5908 -0.2648  1.1050
 3852TIP3    H211500   5.611   3.103   2.312  2.6053 -0.6484 -1.2180
 3853TIP3   OH211501   1.649   3.963   0.721  0.0723  0.3583  0.4084
 3853TIP3    H111502   1.632   4.035   0.661 -0.1924 -0.6355 -0.7310
 3853TIP3    H211503   1.739   3.937   0.702 -0.3379 -0.5970 -0.2536
 3854TIP3   OH211504   1.214   2.729   5.346  0.3800 -0.0918  0.1263
 3854TIP3    H111505   1.154   2.803   5.359 -1.2384 -1.3975  0.4958
 3854TIP3    H211506   1.167   2.654   5.383  2.2418 -1.2040  0.3605
 3855TIP3   OH211507   0.076   4.120   5.396 -0.1108 -0.6425  0.0213
 3855TIP3    H111508   0.142   4.074   5.448 -1.2540 -1.2514  0.9677
 3855TIP3    H211509   0.016   4.158   5.461 -0.2813  0.5608 -0.7967
 3856TIP3   OH211510   2.673   4.389   5.735 -0.1395  0.6213 -0.3719
 3856TIP3    H111511   2.768   4.380   5.734 -0.0072  1.8591 -1.2461
 3856TIP3    H211512   2.641   4.302   5.759  1.2085  0.2751  0.2926
 3857TIP3   OH211513   4.966   2.676   2.174 -0.3364 -0.1026 -0.0635
 3857TIP3    H111514   5.054   2.695   2.145 -0.1160 -0.9157  0.0551
 3857TIP3    H211515   4.977   2.636   2.261 -0.7769 -0.7488 -0.2955
 3858TIP3   OH211516   6.668   5.610   3.450 -0.0233 -0.1024 -0.3041
 3858TIP3    H111517   6.635   5.545   3.388  1.2109  2.0173 -3.4489
 3858TIP3    H211518   6.589   5.650   3.486 -0.8063 -1.0263 -0.9120
 3859TIP3   OH211519   1.196   3.605   5.351  0.3137  0.0857 -0.3018
 3859TIP3    H111520   1.254   3.593   5.275  0.8069  0.1866  0.0524
 3859TIP3    H211521   1.112   3.568   5.323  0.7495 -0.7316 -0.5744
 3860TIP3   OH211522   8.015   2.853   3.484  0.4267 -0.1273 -0.6302
 3860TIP3    H111523   8.049   2.807   3.561  2.6578  1.4265 -0.5936
 3860TIP3    H211524   8.057   2.811   3.409  1.0602  0.6248 -0.7153
 3861TIP3   OH211525   6.070   0.260   5.983  0.1839 -0.0254  0.1677
 3861TIP3    H111526   6.087   0.343   6.027 -0.6036 -0.0634  0.5722
 3861TIP3    H211527   5.977   0.264   5.961  0.0393 -0.9648  0.5639
 3862TIP3   OH211528   2.052   5.521   3.122  0.3008 -0.3054 -0.0203
 3862TIP3    H111529   1.973   5.575   3.114 -0.0639 -0.5025  1.7525
 3862TIP3    H211530   2.039   5.450   3.059 -1.4766 -0.9147  0.9505
 3863TIP3   OH211531   6.621   6.858   3.955 -0.7261  0.2380 -0.3414
 3863TIP3    H111532   6.663   6.911   4.023  1.1177  0.6957 -1.7356
 3863TIP3    H211533   6.531   6.892   3.949 -0.1676  1.8707  0.1762
 3864TIP3   OH211534   1.812   7.271   0.651  0.4388  0.0725 -0.4852
 3864TIP3    H111535   1.904   7.246   0.660  0.6286 -0.5908 -3.3218
 3864TIP3    H211536   1.809   7.362   0.682  1.3667 -0.7743  2.4546
 3865TIP3   OH211537   0.888   3.801   6.589  0.5386  0.4574  0.2409
 3865TIP3    H111538   0.922   3.854   6.517  2.1716 -1.4449 -0.4868
 3865TIP3    H211539   0.964   3.783   6.644 -0.1459 -0.3557  0.9682
 3866TIP3   OH211540   4.520   3.634   3.273  0.2200 -0.1867 -0.1794
 3866TIP3    H111541   4.606   3.624   3.233  0.0268  0.9198 -0.9105
 3866TIP3    H211542   4.522   3.576   3.349  1.4530 -0.4957 -0.4277
 3867TIP3   OH211543   2.043   7.458   3.679  0.6757  0.2556  0.1794
 3867TIP3    H111544   1.949   7.446   3.669  0.3639  1.9123  0.7314
 3867TIP3    H211545   2.080   7.371   3.663 -0.7631 -0.0614 -1.9003
 3868TIP3   OH211546   7.047   4.239   3.995  0.3186  0.6984 -0.1846
 3868TIP3    H111547   7.025   4.318   3.947  1.6288  1.8251  0.9711
 3868TIP3    H211548   7.028   4.167   3.934 -1.7983  1.8086 -0.9104
 3869TIP3   OH211549   0.383   2.915   5.359  0.3137  0.3670  0.3188
 3869TIP3    H111550   0.300   2.910   5.312  0.4236  0.7052  0.0896
 3869TIP3    H211551   0.444   2.865   5.305  0.2153 -0.0543  0.5898
 3870TIP3   OH211552   5.445   3.003   1.002  0.0262 -0.0909 -0.4865
 3870TIP3    H111553   5.356   3.038   1.008 -0.0728 -0.5492  1.7926
 3870TIP3    H211554   5.501   3.074   1.034  0.0344 -1.0820  1.9424
 3871TIP3   OH211555   2.986   6.937   2.680 -0.6436 -0.0582 -0.4417
 3871TIP3    H111556   3.011   6.914   2.591  1.9255  0.4560  0.0596
 3871TIP3    H211557   2.932   6.865   2.710 -0.0410 -1.1176 -1.8229
 3872TIP3   OH211558   5.060   1.733   0.487  0.1510  0.0702 -0.2379
 3872TIP3    H111559   5.100   1.650   0.514 -0.0352  0.3756  1.0422
 3872TIP3    H211560   5.089   1.796   0.554  0.7137  1.1611 -1.4670
 3873TIP3   OH211561   7.786   2.694   4.289  0.2457 -0.5569  0.1713
 3873TIP3    H111562   7.841   2.772   4.281  0.3778 -0.6119  0.5044
 3873TIP3    H211563   7.728   2.714   4.363 -0.7027 -0.1886 -0.6514
 3874TIP3   OH211564   4.328   5.388   2.100  0.5418 -0.4734 -0.0793
 3874TIP3    H111565   4.302   5.356   2.187  0.0743 -1.1492 -0.4514
 3874TIP3    H211566   4.423   5.379   2.099  0.5030 -0.9817  0.1728
 3875TIP3   OH211567   1.583   0.370   4.171 -0.2049 -0.0018  0.0969
 3875TIP3    H111568   1.516   0.385   4.239  0.6226  0.3914  0.8464
 3875TIP3    H211569   1.537   0.320   4.103 -0.9497 -0.7900  1.1376
 3876TIP3   OH211570   8.248   5.688   5.053 -0.4804  0.1810  0.0144
 3876TIP3    H111571   8.191   5.733   4.991 -1.6056 -2.0564 -0.6621
 3876TIP3    H211572   8.189   5.658   5.122 -0.1112 -1.8903 -0.5251
 3877TIP3   OH211573   5.648   5.808   4.907  0.1605  0.7129 -0.0690
 3877TIP3    H111574   5.704   5.882   4.925 -0.8605  1.5229 -0.1194
 3877TIP3    H211575   5.572   5.845   4.861 -0.1466 -0.4208 -0.5295
 3878TIP3   OH211576   2.743   0.174   1.744 -0.9070  0.4915  0.3683
 3878TIP3    H111577   2.648   0.166   1.734 -0.7373 -0.2904 -0.9639
 3878TIP3    H211578   2.777   0.091   1.709  0.2862  1.0100  0.2611
 3879TIP3   OH211579   3.381   7.699   5.173 -0.0508 -0.0986 -0.2483
 3879TIP3    H111580   3.287   7.708   5.162 -0.0233  1.3839  0.5028
 3879TIP3    H211581   3.419   7.773   5.125  0.7049 -0.4019 -0.1434
 3880TIP3   OH211582   3.361   0.501   4.040  0.0810 -0.5493 -0.5576
 3880TIP3    H111583   3.314   0.560   3.980 -2.4514 -1.1905  0.6527
 3880TIP3    H211584   3.374   0.553   4.120 -0.1592 -0.9215 -0.2713
 3881TIP3   OH211585   3.946   7.340   4.623  0.2475  0.4084 -0.1377
 3881TIP3    H111586   3.880   7.277   4.654 -0.8162  0.8404 -1.4171
 3881TIP3    H211587   3.990   7.295   4.552  1.8797 -0.1456  1.1689
 3882TIP3   OH211588   2.634   3.094   4.217 -0.2035 -0.5443  0.7222
 3882TIP3    H111589   2.712   3.081   4.164 -0.5822 -0.8727  0.2339
 3882TIP3    H211590   2.628   3.189   4.227 -0.7305 -0.3939 -0.7700
 3883TIP3   OH211591   2.649   2.956   0.776  0.0081 -0.1757 -0.0677
 3883TIP3    H111592   2.556   2.963   0.756 -0.3532 -0.6414  1.3639
 3883TIP3    H211593   2.653   2.903   0.856  1.5329 -0.6321 -0.4133
 3884TIP3   OH211594   5.250   3.180   5.131 -0.1515  0.5962 -0.2663
 3884TIP3    H111595   5.201   3.123   5.071  1.5496 -1.1723 -0.0392
 3884TIP3    H211596   5.304   3.234   5.073  0.1935  0.1128 -0.4020
 3885TIP3   OH211597   3.449   7.793   0.273  0.0407  0.3553 -0.4052
 3885TIP3    H111598   3.355   7.777   0.276 -0.0268  0.1723 -2.1624
 3885TIP3    H211599   3.470   7.791   0.180  1.8967 -0.2171 -0.0107
 3886TIP3   OH211600   4.119   7.007   5.232 -0.0220  0.0825  0.1152
 3886TIP3    H111601   4.180   6.990   5.304  0.5350 -0.5018 -0.4868
 3886TIP3    H211602   4.032   6.992   5.270  0.2472  0.1279  0.7589
 3887TIP3   OH211603   7.391   3.188   3.643  0.1879 -0.2528  0.1108
 3887TIP3    H111604   7.443   3.256   3.686 -1.9775 -0.3010  3.1119
 3887TIP3    H211605   7.327   3.236   3.590  0.7269 -0.0767 -0.3859
 3888TIP3   OH211606   6.966   1.463   2.091 -0.3920  0.0083  0.1974
 3888TIP3    H111607   6.905   1.416   2.148 -1.9919  0.6106 -0.9636
 3888TIP3    H211608   6.976   1.549   2.133 -3.1589  1.2054 -1.3531
 3889TIP3   OH211609   5.069   3.257   4.436  0.3125 -0.3234 -0.1821
 3889TIP3    H111610   5.130   3.215   4.374  1.9102  0.6739  0.6368
 3889TIP3    H211611   4.992   3.201   4.435  0.6570 -0.8407 -2.3635
 3890TIP3   OH211612   0.380   3.292   0.503  0.0989 -0.0018  0.2499
 3890TIP3    H111613   0.467   3.325   0.525  0.6788 -0.5825 -1.0554
 3890TIP3    H211614   0.363   3.325   0.415 -0.8986 -0.1143  0.3894
 3891TIP3   OH211615   3.241   4.921   3.276 -0.0153  0.0417  0.5740
 3891TIP3    H111616   3.293   4.968   3.341 -0.2877 -0.3829  1.0996
 3891TIP3    H211617   3.153   4.917   3.313 -0.3406  0.4069 -0.1334
 3892TIP3   OH211618   1.884   4.051   0.103 -0.1875  0.2805  0.0069
 3892TIP3    H111619   1.958   4.087   0.152  1.2209 -2.4218  0.0077
 3892TIP3    H211620   1.834   4.001   0.168  0.5374 -1.6027 -0.8198
 3893TIP3   OH211621   2.588   1.526   5.046  0.6209  0.1601 -0.2620
 3893TIP3    H111622   2.613   1.564   5.130 -0.0793  1.5508 -0.6431
 3893TIP3    H211623   2.644   1.571   4.982 -0.2328  0.6143 -0.7234
 3894TIP3   OH211624   7.367   2.032   5.996  0.6140  0.0896  0.2032
 3894TIP3    H111625   7.301   2.095   5.968  1.1224  0.5595  0.0555
 3894TIP3    H211626   7.319   1.949   6.003 -0.0690  0.5016  0.4660
 3895TIP3   OH211627   5.495   0.701   5.251  0.1529 -0.5340  0.1931
 3895TIP3    H111628   5.583   0.665   5.267  1.0127  1.6546  0.8414
 3895TIP3    H211629   5.488   0.773   5.314 -1.8198 -0.1802 -0.3857
 3896TIP3   OH211630   3.362   6.746   5.319  0.3715 -0.0586 -0.3765
 3896TIP3    H111631   3.286   6.756   5.377  0.0268  2.0168 -1.0975
 3896TIP3    H211632   3.327   6.703   5.241  0.2839 -0.5222 -0.0864
 3897TIP3   OH211633   1.145   3.895   1.597 -0.1463 -0.2139 -0.1956
 3897TIP3    H111634   1.184   3.901   1.510  0.1862  1.7114  0.0434
 3897TIP3    H211635   1.212   3.931   1.656 -1.5615  1.5672  0.4262
 3898TIP3   OH211636   2.040   5.781   1.452  0.4017 -0.2179  0.1293
 3898TIP3    H111637   2.049   5.697   1.497 -0.2777  0.6153  1.9068
 3898TIP3    H211638   2.037   5.846   1.523  0.2385  1.2471 -1.1720
 3899TIP3   OH211639   4.564   7.041   1.487 -0.0513 -0.5369 -0.8407
 3899TIP3    H111640   4.533   7.059   1.398  1.1747 -1.5025 -1.4905
 3899TIP3    H211641   4.536   6.950   1.504 -1.5659  0.1038  0.3580
 3900TIP3   OH211642   7.486   7.349   3.963  0.4443 -0.8118 -0.0946
 3900TIP3    H111643   7.440   7.266   3.957  0.3350 -0.6435 -2.4067
 3900TIP3    H211644   7.418   7.416   3.952  0.9619 -0.5354 -2.0113
 3901TIP3   OH211645   2.610   3.629   5.043  0.1067  0.0342  0.0259
 3901TIP3    H111646   2.540   3.574   5.079 -1.1263  1.3125 -0.3260
 3901TIP3    H211647   2.630   3.588   4.958  0.2604 -0.7089  0.4076
 3902TIP3   OH211648   3.520   7.387   3.644 -0.0617 -0.6583  0.3336
 3902TIP3    H111649   3.469   7.467   3.639 -0.6066 -0.9982  0.3180
 3902TIP3    H211650   3.606   7.414   3.675 -0.3709 -0.1263  0.7282
 3903TIP3   OH211651   6.731   6.754   4.928 -0.0749 -0.3500  0.0122
 3903TIP3    H111652   6.723   6.660   4.944 -1.9865 -0.1755  0.4123
 3903TIP3    H211653   6.815   6.765   4.885  1.5658 -1.8929  2.5815
 3904TIP3   OH211654   7.516   5.174   3.710 -0.5112  0.6567 -0.4062
 3904TIP3    H111655   7.456   5.247   3.723  0.7707  1.5720  0.6867
 3904TIP3    H211656   7.514   5.126   3.793  0.2276  0.6855 -0.3615
 3905TIP3   OH211657   6.196   4.571   0.201 -0.0256  0.1405  0.5026
 3905TIP3    H111658   6.200   4.618   0.118  0.1417 -0.2523  0.2864
 3905TIP3    H211659   6.105   4.577   0.228 -0.0723  0.3015  0.3077
 3906TIP3   OH211660   0.287   3.124   1.397 -0.2615 -0.2972  0.3280
 3906TIP3    H111661   0.228   3.089   1.330 -0.3458 -0.4048  0.4553
 3906TIP3    H211662   0.246   3.097   1.480 -1.1215  1.3601  0.4787
 3907TIP3   OH211663   5.877   6.526   0.448  0.2650  0.4845  0.0321
 3907TIP3    H111664   5.869   6.554   0.356 -0.3865  0.2144 -0.0041
 3907TIP3    H211665   5.828   6.593   0.497 -1.0132 -0.3655 -0.0210
 3908TIP3   OH211666   3.618   0.672   2.403 -0.4312 -0.0177 -0.6183
 3908TIP3    H111667   3.621   0.595   2.346 -0.8976  1.0591 -2.1729
 3908TIP3    H211668   3.635   0.745   2.344  1.1278  1.0137  1.0045
 3909TIP3   OH211669   5.925   2.647   6.039 -0.1458  0.2552  0.6971
 3909TIP3    H111670   5.972   2.610   6.114 -1.4938 -0.9228  1.0119
 3909TIP3    H211671   5.834   2.649   6.066 -0.4907  1.0581 -0.4459
 3910TIP3   OH211672   5.493   4.980   6.739 -0.3082 -0.2014  0.4541
 3910TIP3    H111673   5.541   5.061   6.724 -0.3420 -0.1046  0.8367
 3910TIP3    H211674   5.559   4.918   6.770 -0.6281  0.3325  2.3424
 3911TIP3   OH211675   8.058   6.406   2.089  0.1946  0.2406 -0.0914
 3911TIP3    H111676   8.122   6.427   2.157 -1.2468  0.0685  1.3759
 3911TIP3    H211677   8.014   6.490   2.072 -0.8948 -0.1227  0.7885
 3912TIP3   OH211678   4.273   7.405   5.475 -0.0720 -0.0947  0.3262
 3912TIP3    H111679   4.196   7.427   5.421 -1.2199 -2.3075  0.9463
 3912TIP3    H211680   4.252   7.320   5.513  2.8082 -0.8966  0.3560
 3913TIP3   OH211681   1.903   0.913   1.406 -0.4711 -0.1029  0.1716
 3913TIP3    H111682   1.866   0.997   1.376  1.0232  1.3797  2.1685
 3913TIP3    H211683   1.984   0.904   1.355  0.7637  1.1384  1.7737
 3914TIP3   OH211684   6.574   7.656   1.705 -0.1714 -0.1012 -0.2854
 3914TIP3    H111685   6.489   7.614   1.711 -1.1177  1.6147 -1.0284
 3914TIP3    H211686   6.608   7.655   1.795 -0.6899 -1.3218 -0.0894
 3915TIP3   OH211687   0.146   7.134   6.727 -0.1674  0.5579 -0.2479
 3915TIP3    H111688   0.130   7.199   6.796 -0.2359  1.2873 -0.9370
 3915TIP3    H211689   0.229   7.161   6.688  0.1994 -0.2321 -0.0414
 3916TIP3   OH211690   0.633   7.503   2.245  0.1308  0.1689  0.4178
 3916TIP3    H111691   0.655   7.493   2.152 -0.8079 -0.8011  0.2730
 3916TIP3    H211692   0.597   7.418   2.270 -0.1802  0.6041  1.5226
 3917TIP3   OH211693   6.453   2.835   3.994 -0.5036  0.6257 -0.0058
 3917TIP3    H111694   6.464   2.861   3.902 -0.3864 -0.2460 -0.2487
 3917TIP3    H211695   6.541   2.810   4.022 -0.5229  0.9889  0.3801
 3918TIP3   OH211696   6.224   7.477   6.075  0.2715 -0.4237 -0.3298
 3918TIP3    H111697   6.194   7.516   5.994 -1.1102  0.0439  0.3809
 3918TIP3    H211698   6.152   7.489   6.136  0.1335 -3.2496  0.1986
 3919TIP3   OH211699   4.211   2.302   2.084  0.2818 -0.1775  0.4741
 3919TIP3    H111700   4.157   2.314   2.005 -0.3718  0.0887  0.9543
 3919TIP3    H211701   4.295   2.344   2.061  0.0395  0.0590 -0.0170
 3920TIP3   OH211702   5.761   0.808   3.378  0.0423  0.2333 -0.3213
 3920TIP3    H111703   5.837   0.770   3.334 -0.3934 -1.6809  0.4494
 3920TIP3    H211704   5.792   0.827   3.467 -0.7737 -2.3195  0.5949
 3921TIP3   OH211705   7.534   4.957   5.261 -0.3493  0.1101  0.2095
 3921TIP3    H111706   7.547   5.034   5.205  0.7408  0.1063  0.4283
 3921TIP3    H211707   7.567   4.884   5.209 -0.8963 -0.1459  0.2131
 3922TIP3   OH211708   1.818   0.685   3.703 -0.0991 -0.4037  0.2584
 3922TIP3    H111709   1.888   0.750   3.708  2.1647 -2.7093  0.9091
 3922TIP3    H211710   1.839   0.635   3.623 -2.0273 -0.1231 -0.4695
 3923TIP3   OH211711   0.020   7.394   3.908  0.8026 -0.8501 -0.8254
 3923TIP3    H111712   0.113   7.403   3.887  0.6969 -0.2126 -1.0397
 3923TIP3    H211713   0.010   7.301   3.930  1.7443 -0.6905  0.4468
 3924TIP3   OH211714   3.742   3.779   2.060  0.5346  0.2944 -0.0335
 3924TIP3    H111715   3.793   3.772   1.979  0.1103  1.8394 -0.4679
 3924TIP3    H211716   3.799   3.826   2.120 -0.1663  1.6512 -0.3817
 3925TIP3   OH211717   6.743   0.806   6.268  0.1368  0.3277  0.1680
 3925TIP3    H111718   6.750   0.711   6.275  1.7076  0.0312 -3.1139
 3925TIP3    H211719   6.828   0.839   6.295  0.4086  0.5369 -0.8732
 3926TIP3   OH211720   0.989   5.841   6.579 -0.1487  0.2301  0.0056
 3926TIP3    H111721   0.952   5.918   6.622 -0.9898  0.3557 -0.9105
 3926TIP3    H211722   1.081   5.840   6.605 -0.6709  0.1750  1.9554
 3927TIP3   OH211723   4.614   1.503   4.471  0.3103  0.2826 -0.1929
 3927TIP3    H111724   4.536   1.453   4.446  0.0788  0.7474 -0.4130
 3927TIP3    H211725   4.676   1.487   4.400  1.5218 -2.3906  1.2885
 3928TIP3   OH211726   4.413   0.602   2.507  0.1160 -0.2825 -0.2053
 3928TIP3    H111727   4.392   0.688   2.543  1.0322 -0.6105  1.2069
 3928TIP3    H211728   4.336   0.577   2.456 -0.6936  0.8035  0.4565
 3929TIP3   OH211729   0.907   5.366   4.213 -0.0616  0.8368  0.1945
 3929TIP3    H111730   0.954   5.303   4.268 -0.4422 -1.6747 -2.1184
 3929TIP3    H211731   0.967   5.387   4.142 -0.1323  2.7913  0.6589
 3930TIP3   OH211732   7.833   5.613   5.597  0.3301 -0.2057  0.1027
 3930TIP3    H111733   7.841   5.632   5.691 -0.2175 -0.6572  0.2458
 3930TIP3    H211734   7.875   5.687   5.554  0.5432  0.0301  0.7070
 3931TIP3   OH211735   3.301   7.036   3.910  0.3178 -0.3065  0.4849
 3931TIP3    H111736   3.334   7.103   3.851 -0.1211 -1.1452 -0.7482
 3931TIP3    H211737   3.208   7.054   3.918  0.0025 -1.3344 -0.6512
 3932TIP3   OH211738   6.526   7.282   4.056 -0.0835 -0.7627 -0.4752
 3932TIP3    H111739   6.617   7.306   4.039 -0.1150 -0.5334 -0.3381
 3932TIP3    H211740   6.485   7.365   4.082 -0.1192 -1.0256  0.3503
 3933TIP3   OH211741   0.107   3.012   0.713  0.2775  0.3749  0.0346
 3933TIP3    H111742   0.191   2.971   0.732  0.3992 -0.5319 -2.1448
 3933TIP3    H211743   0.042   2.950   0.747  0.4732  0.2960  0.2664
 3934TIP3   OH211744   6.403   6.378   4.857  0.0025 -0.0352  0.2848
 3934TIP3    H111745   6.350   6.320   4.802 -0.1894  0.8074 -0.4592
 3934TIP3    H211746   6.453   6.319   4.913 -0.4354 -0.9038 -0.2071
 3935TIP3   OH211747   1.416   7.720   2.862  0.4772  0.1253  0.1102
 3935TIP3    H111748   1.364   7.643   2.841  2.0594 -1.0238  0.1774
 3935TIP3    H211749   1.373   7.759   2.938 -0.1667 -0.8809  0.2815
 3936TIP3   OH211750   1.927   0.685   0.971 -0.2379 -0.0775  0.2673
 3936TIP3    H111751   2.018   0.716   0.970 -0.4579  0.5935  0.7188
 3936TIP3    H211752   1.928   0.610   1.031  0.8236 -2.7038 -2.7316
 3937TIP3   OH211753   6.623   1.945   3.183  0.0201 -0.2608 -0.5627
 3937TIP3    H111754   6.550   2.001   3.208 -0.4793 -0.8317 -0.7152
 3937TIP3    H211755   6.683   1.949   3.258 -1.0564 -1.2683  0.4049
 3938TIP3   OH211756   5.459   0.707   6.506  0.6217 -0.4178 -0.5958
 3938TIP3    H111757   5.478   0.621   6.544 -0.6919 -0.0991  0.8939
 3938TIP3    H211758   5.366   0.705   6.486  0.9676  0.0061 -2.3993
 3939TIP3   OH211759   5.872   3.053   2.066  0.2693 -0.3097 -0.4221
 3939TIP3    H111760   5.855   3.125   2.005  0.3554 -0.9243 -1.1754
 3939TIP3    H211761   5.794   3.050   2.121  1.0676  1.6369  0.9465
 3940TIP3   OH211762   3.656   6.801   3.894 -0.1015 -0.1281 -0.1664
 3940TIP3    H111763   3.715   6.748   3.948 -0.4680 -0.1506  0.2149
 3940TIP3    H211764   3.570   6.790   3.934 -0.7359 -1.6019 -1.8029
 3941TIP3   OH211765   1.515   3.666   1.058 -0.1784 -0.0465  0.1308
 3941TIP3    H111766   1.537   3.573   1.063 -0.8738 -0.2194  0.0870
 3941TIP3    H211767   1.436   3.670   1.004 -0.3024  0.5483  0.3407
 3942TIP3   OH211768   5.340   7.097   0.993  0.0252 -0.1613  0.2600
 3942TIP3    H111769   5.314   7.144   0.914  0.8106  0.0943  0.1496
 3942TIP3    H211770   5.416   7.045   0.968  1.3244  1.1939  1.2331
 3943TIP3   OH211771   1.491   7.391   0.238 -0.0867 -0.0322 -0.0357
 3943TIP3    H111772   1.585   7.379   0.225 -0.0025 -0.6293  1.0091
 3943TIP3    H211773   1.479   7.381   0.332 -1.2776 -0.5371 -0.2268
 3944TIP3   OH211774   7.947   6.034   3.671 -0.7049 -0.0426  0.2733
 3944TIP3    H111775   8.033   6.028   3.630 -0.4983  0.6349  0.6025
 3944TIP3    H211776   7.888   5.995   3.607  0.0298 -1.8952  0.6691
 3945TIP3   OH211777   5.363   4.259   0.962 -0.1027  0.3932 -0.1525
 3945TIP3    H111778   5.436   4.197   0.961  0.3010  0.8301  0.8573
 3945TIP3    H211779   5.405   4.345   0.964 -0.5446  0.6444  2.4929
 3946TIP3   OH211780   3.333   1.286   5.454  0.1512 -0.4607 -0.1858
 3946TIP3    H111781   3.396   1.359   5.449  0.2933 -0.6072 -0.6102
 3946TIP3    H211782   3.382   1.211   5.420  0.4930 -1.0966  1.6017
 3947TIP3   OH211783   1.621   2.851   1.304 -0.4466  0.2511 -0.5729
 3947TIP3    H111784   1.675   2.870   1.228  1.5376 -0.8529  0.4999
 3947TIP3    H211785   1.652   2.767   1.336 -0.3978  1.2136  2.1540
 3948TIP3   OH211786   2.992   0.596   4.289 -0.8578 -0.3342 -0.1635
 3948TIP3    H111787   2.930   0.654   4.332  0.3127  0.0541  1.0845
 3948TIP3    H211788   3.038   0.651   4.226 -0.5002 -0.1601  0.2453
 3949TIP3   OH211789   0.084   4.627   2.835  0.6346  0.4108  0.3141
 3949TIP3    H111790   0.114   4.717   2.828  0.6808  0.3511 -0.2463
 3949TIP3    H211791   0.142   4.577   2.778 -0.8343  0.3730 -1.2173
 3950TIP3   OH211792   3.912   6.938   0.344  0.0398  0.0781 -0.1691
 3950TIP3    H111793   3.887   7.007   0.284  0.5366  0.1537 -0.2950
 3950TIP3    H211794   3.829   6.906   0.380 -0.1289  1.8429  1.1403
 3951TIP3   OH211795   7.765   3.847   0.581  0.2989 -0.0219  0.2841
 3951TIP3    H111796   7.818   3.907   0.634  0.0867  0.1642  0.2930
 3951TIP3    H211797   7.756   3.769   0.635 -0.1056  0.2518  0.6316
 3952TIP3   OH211798   7.552   3.682   2.869 -0.2961  0.5813 -0.2236
 3952TIP3    H111799   7.544   3.607   2.810 -2.1495  0.2639  0.3473
 3952TIP3    H211800   7.564   3.757   2.810 -0.4636  0.0808 -0.9135
 3953TIP3   OH211801   1.613   2.299   1.866  0.0571 -0.0768  0.2583
 3953TIP3    H111802   1.700   2.299   1.827  0.4420  0.0044  1.1106
 3953TIP3    H211803   1.628   2.302   1.960 -0.8515 -0.7716  0.4422
 3954TIP3   OH211804   0.924   4.975   1.408  0.0139 -0.3764 -0.2406
 3954TIP3    H111805   0.959   5.027   1.481  0.9044 -0.5949 -0.5015
 3954TIP3    H211806   0.953   4.885   1.427 -0.6733 -0.6216 -0.3093
 3955TIP3   OH211807   3.683   4.879   0.861  0.1329  0.1242 -0.0859
 3955TIP3    H111808   3.741   4.814   0.901  0.9722  2.1633  2.3179
 3955TIP3    H211809   3.743   4.940   0.817 -0.5166  0.1596 -0.9345
 3956TIP3   OH211810   5.376   0.241   2.063 -0.7083  0.4679 -0.8528
 3956TIP3    H111811   5.322   0.320   2.075 -2.2796 -0.4168 -1.7186
 3956TIP3    H211812   5.313   0.173   2.041  0.5609 -1.1945  0.4545
 3957TIP3   OH211813   1.379   1.774   3.065  0.1565 -0.6264  0.1464
 3957TIP3    H111814   1.453   1.750   3.120  0.1734  0.6710  0.7299
 3957TIP3    H211815   1.380   1.870   3.063  0.4542 -0.6025 -2.5499
 3958TIP3   OH211816   7.849   1.636  -0.001 -0.4991  0.5772 -0.4394
 3958TIP3    H111817   7.931   1.680   0.019  0.2136 -1.5880  1.8863
 3958TIP3    H211818   7.821   1.598   0.082 -2.6530 -0.7217 -1.6643
 3959TIP3   OH211819   2.299   1.613   5.125  0.0493  0.5634  0.1832
 3959TIP3    H111820   2.325   1.592   5.035 -0.1390  2.0358 -0.2362
 3959TIP3    H211821   2.335   1.542   5.177  0.0202 -0.4065 -1.0727
 3960TIP3   OH211822   5.918   4.144   5.377  0.2178  0.7496  0.2452
 3960TIP3    H111823   5.952   4.061   5.412 -0.4870  1.0942  1.8458
 3960TIP3    H211824   5.996   4.190   5.346  0.8972  0.3652  1.2977
 3961TIP3   OH211825   5.252   6.058   3.854 -0.5245 -0.5698 -0.3033
 3961TIP3    H111826   5.174   6.036   3.802 -0.1424 -1.0521 -0.6825
 3961TIP3    H211827   5.316   6.089   3.789 -1.7640  4.1222  0.3527
 3962TIP3   OH211828   4.174   1.830   6.711  0.0277 -0.3070  0.0990
 3962TIP3    H111829   4.182   1.924   6.732  1.4573  0.3194 -2.7487
 3962TIP3    H211830   4.254   1.810   6.662 -0.4074 -2.9813  0.3505
 3963TIP3   OH211831   5.117   6.948   1.500 -0.1280 -0.5644  0.3416
 3963TIP3    H111832   5.120   6.952   1.596 -0.2822  1.6729  0.2982
 3963TIP3    H211833   5.151   7.033   1.472  0.5388 -1.4321 -1.6234
 3964TIP3   OH211834   0.556   4.342   2.467  0.0664  0.5344  0.1876
 3964TIP3    H111835   0.566   4.301   2.381  2.6345  1.6844 -0.1572
 3964TIP3    H211836   0.532   4.433   2.448 -1.1617  0.3581  0.7866
 3965TIP3   OH211837   1.364   0.787   3.040 -0.3631 -0.4865  0.3958
 3965TIP3    H111838   1.337   0.842   2.966  2.1743 -0.3390 -0.5284
 3965TIP3    H211839   1.356   0.844   3.116  0.6174  0.6679 -0.3240
 3966TIP3   OH211840   0.098   0.175   2.090 -0.1072 -0.4051  0.3417
 3966TIP3    H111841   0.165   0.114   2.061 -0.7284 -1.2974  0.7368
 3966TIP3    H211842   0.063   0.213   2.010  0.4568 -0.3662  0.1101
 3967TIP3   OH211843   1.187   2.196   3.144  0.4253 -0.3164  0.0641
 3967TIP3    H111844   1.140   2.183   3.062 -2.6178 -2.1978  1.9123
 3967TIP3    H211845   1.178   2.289   3.163  1.0553  0.1174 -1.6023
 3968TIP3   OH211846   6.583   3.263   4.640  0.1496 -0.7387 -0.2398
 3968TIP3    H111847   6.669   3.260   4.598 -0.0358 -0.7252 -0.6210
 3968TIP3    H211848   6.525   3.300   4.574 -0.1744 -0.8488 -0.0195
 3969TIP3   OH211849   3.902   3.602   6.686  0.2109  0.8059  0.0850
 3969TIP3    H111850   3.971   3.539   6.665 -1.5317 -1.2837  0.2740
 3969TIP3    H211851   3.904   3.609   6.782 -0.3200  0.1730  0.1419
 3970TIP3   OH211852   6.675   5.642   2.297  1.0258 -0.2737 -0.4148
 3970TIP3    H111853   6.661   5.558   2.253 -1.2898 -0.2017  0.0083
 3970TIP3    H211854   6.751   5.680   2.255  0.2753 -1.2249 -2.7745
 3971TIP3   OH211855   6.017   4.980   5.132  0.0052 -0.0676 -0.4014
 3971TIP3    H111856   5.939   4.969   5.185  0.4631 -1.6705 -0.0001
 3971TIP3    H211857   5.985   5.012   5.048 -1.1616 -1.1543 -0.4040
 3972TIP3   OH211858   5.887   4.416   4.680 -0.4291  0.5348 -0.0444
 3972TIP3    H111859   5.899   4.417   4.585 -0.2122  0.1449 -0.0239
 3972TIP3    H211860   5.802   4.458   4.694 -0.6779  0.1786 -0.4484
 3973TIP3   OH211861   4.997   0.679   2.818 -0.3831  0.7099 -0.1440
 3973TIP3    H111862   4.954   0.720   2.894 -0.9594  2.9518 -1.5636
 3973TIP3    H211863   4.932   0.618   2.783 -0.0075 -0.5491  1.2762
 3974TIP3   OH211864   7.379   6.139   2.464  0.3895 -0.2216 -0.2051
 3974TIP3    H111865   7.342   6.080   2.530 -1.7221  0.6033 -0.5814
 3974TIP3    H211866   7.473   6.138   2.482 -0.0067 -0.7638  2.1976
 3975TIP3   OH211867   1.955   3.581   2.246  0.2734  0.0606  0.5404
 3975TIP3    H111868   1.914   3.558   2.329  1.0227 -1.2201  0.5798
 3975TIP3    H211869   2.030   3.521   2.238  0.1131  0.0212 -1.1323
 3976TIP3   OH211870   5.856   3.621   2.064  0.0403 -0.5737 -0.1423
 3976TIP3    H111871   5.797   3.547   2.050  0.5061 -0.7820 -1.0415
 3976TIP3    H211872   5.896   3.603   2.149 -0.4074 -0.9686 -0.0097
 3977TIP3   OH211873   4.101   0.534   6.723 -0.4275  0.3683 -0.0791
 3977TIP3    H111874   4.034   0.519   6.656  0.0001 -0.8812 -0.2723
 3977TIP3    H211875   4.095   0.627   6.743 -1.2050  0.5812 -1.1784
 3978TIP3   OH211876   0.778   6.300   4.321 -0.2578 -0.2186  0.4278
 3978TIP3    H111877   0.743   6.320   4.234  0.6118  2.7984  0.6911
 3978TIP3    H211878   0.715   6.338   4.382 -0.4408 -1.6078  1.1528
 3979TIP3   OH211879   8.066   1.302   3.743 -0.0913  0.3327  0.0420
 3979TIP3    H111880   8.135   1.367   3.735 -0.1426  0.3996  0.1301
 3979TIP3    H211881   8.018   1.329   3.822  0.4626 -0.3560  0.6269
 3980TIP3   OH211882   6.929   7.253   0.115 -0.0645 -0.8704  0.0073
 3980TIP3    H111883   7.020   7.223   0.110 -0.1407 -1.3788  1.4158
 3980TIP3    H211884   6.878   7.173   0.124 -0.4961 -0.4923  1.0325
 3981TIP3   OH211885   1.556   1.991   4.200 -0.0217  0.5035  0.0571
 3981TIP3    H111886   1.598   1.913   4.164  1.0486  0.3458  1.5432
 3981TIP3    H211887   1.476   1.959   4.241  1.4372 -0.2728  2.5518
 3982TIP3   OH211888   1.991   6.880   6.614  0.1035  0.6263  0.5681
 3982TIP3    H111889   2.025   6.934   6.542 -1.3048 -1.0404 -1.4998
 3982TIP3    H211890   1.897   6.875   6.597 -0.1649 -0.4185  2.1447
 3983TIP3   OH211891   2.355   0.956   5.689 -0.0832  0.0665  0.4517
 3983TIP3    H111892   2.262   0.935   5.703 -0.1299  0.9881  1.7133
 3983TIP3    H211893   2.363   0.965   5.595 -1.0395 -1.0705  0.2352
 3984TIP3   OH211894   4.184   6.700   1.425 -0.0416 -0.7244  0.4689
 3984TIP3    H111895   4.116   6.765   1.408  1.3592  1.1293  1.6454
 3984TIP3    H211896   4.185   6.646   1.346 -0.0943  1.7593 -1.3587
 3985TIP3   OH211897   7.363   4.943   4.149 -0.0180 -0.2663  0.0246
 3985TIP3    H111898   7.437   4.900   4.191  0.4455 -0.3397 -0.8596
 3985TIP3    H211899   7.335   4.882   4.081  0.8868  0.9427 -1.5082
 3986TIP3   OH211900   1.240   3.936   3.467  0.0346  0.8089  0.1300
 3986TIP3    H111901   1.300   4.009   3.481  0.4689  0.8788 -1.8612
 3986TIP3    H211902   1.264   3.872   3.534  1.3943  1.4171  0.2515
 3987TIP3   OH211903   8.256   4.777   5.941  0.2746  0.4238 -0.4311
 3987TIP3    H111904   8.255   4.776   5.846 -1.1676 -0.6796 -0.4371
 3987TIP3    H211905   8.185   4.836   5.966 -0.7861 -0.9426 -0.0826
 3988TIP3   OH211906   7.745   3.228   3.523 -0.6963 -0.4783 -0.3515
 3988TIP3    H111907   7.771   3.278   3.445  1.3416 -0.5884  0.1798
 3988TIP3    H211908   7.670   3.276   3.558  1.6588  2.9249  0.6346
 3989TIP3   OH211909   2.848   6.543   0.022 -0.1007  0.3983 -0.9211
 3989TIP3    H111910   2.874   6.629   0.055 -0.3748 -0.1325  0.7848
 3989TIP3    H211911   2.908   6.482   0.065 -2.2297 -0.5855  0.8884
 3990TIP3   OH211912   5.731   7.390   6.513  0.0895  0.0824 -0.0637
 3990TIP3    H111913   5.770   7.336   6.444  1.1463 -0.9498  1.2776
 3990TIP3    H211914   5.692   7.463   6.467 -0.5817 -1.3446 -1.8937
 3991TIP3   OH211915   1.775   4.306   0.103 -0.0994 -0.2768  0.1279
 3991TIP3    H111916   1.805   4.219   0.129 -0.3806 -0.3642  0.1669
 3991TIP3    H211917   1.746   4.295   0.012 -2.0884 -0.7259  0.7670
 3992TIP3   OH211918   6.109   4.299   6.367 -0.4193  0.4787  0.0660
 3992TIP3    H111919   6.149   4.284   6.282 -0.9202  1.1441 -0.2989
 3992TIP3    H211920   6.106   4.395   6.375  0.3914  0.4222  1.1994
 3993TIP3   OH211921   0.204   7.669   1.042  0.1590  0.3882  0.0454
 3993TIP3    H111922   0.292   7.669   1.004  0.3561  1.1022  0.4793
 3993TIP3    H211923   0.146   7.697   0.971  0.2903  0.0206 -0.2104
 3994TIP3   OH211924   0.416   3.384   5.905 -0.0563 -0.4705  0.4119
 3994TIP3    H111925   0.484   3.319   5.888 -1.5928 -2.1481  0.3191
 3994TIP3    H211926   0.440   3.424   5.988  1.7639  0.0157 -0.3058
 3995TIP3   OH211927   1.799   5.187   2.081 -1.1622 -0.4773 -0.3057
 3995TIP3    H111928   1.734   5.203   2.012 -1.1040  0.3364 -0.1773
 3995TIP3    H211929   1.747   5.182   2.161 -0.9828  1.1840 -0.0655
 3996TIP3   OH211930   2.977   3.669   0.933  0.8315 -0.2789 -0.1541
 3996TIP3    H111931   3.063   3.658   0.974  1.2571  0.4382 -0.8308
 3996TIP3    H211932   2.994   3.724   0.857 -0.4710  1.1444  0.5476
 3997TIP3   OH211933   3.382   3.390   1.590 -0.4824 -0.5829 -0.3696
 3997TIP3    H111934   3.298   3.377   1.547 -0.9571  0.2952  0.2744
 3997TIP3    H211935   3.370   3.355   1.678 -0.7620  1.1625  0.3248
 3998TIP3   OH211936   7.379   7.660   1.057  0.4385  0.2576 -1.1319
 3998TIP3    H111937   7.335   7.741   1.029 -0.7355  0.7598  1.8238
 3998TIP3    H211938   7.311   7.611   1.104  1.9559 -0.9955 -0.1714
 3999TIP3   OH211939   4.462   4.002   6.724  0.0108  0.0920  0.4537
 3999TIP3    H111940   4.491   3.935   6.786  1.5785 -0.1977 -0.5434
 3999TIP3    H211941   4.443   3.953   6.643 -1.5310  0.5264  0.5138
 4000TIP3   OH211942   5.569   0.223   5.310  0.2873 -0.0144  0.4421
 4000TIP3    H111943   5.503   0.279   5.270 -0.3561 -1.8564 -1.2614
 4000TIP3    H211944   5.652   0.256   5.274  0.0980  0.9172  0.8389
 4001TIP3   OH211945   0.677   4.645   5.803  0.1874 -0.3279  0.3209
 4001TIP3    H111946   0.728   4.640   5.884  0.5455 -0.0075  0.1225
 4001TIP3    H211947   0.704   4.567   5.753 -0.2698 -0.6945  0.6402
 4002TIP3   OH211948   0.823   6.962   0.838 -0.2639  0.3347  0.1040
 4002TIP3    H111949   0.837   7.002   0.752  0.9740 -0.3031 -0.0090
 4002TIP3    H211950   0.739   6.916   0.829 -0.8630  1.4601 -0.2884
 4003TIP3   OH211951   3.204   3.945   4.844  0.1439  0.5377 -0.7197
 4003TIP3    H111952   3.192   4.028   4.797  1.0618  1.4623  0.6309
 4003TIP3    H211953   3.128   3.940   4.902 -0.0532  0.2778 -0.9938
 4004TIP3   OH211954   7.524   4.354   4.207  0.0679  0.6616 -0.1628
 4004TIP3    H111955   7.606   4.378   4.250 -0.3356  1.5312  0.1348
 4004TIP3    H211956   7.464   4.335   4.279  0.2455 -0.8764 -0.3809
 4005TIP3   OH211957   6.446   6.572   2.624  0.0555 -0.1805  0.0126
 4005TIP3    H111958   6.502   6.542   2.695  0.0205  1.5189  0.8025
 4005TIP3    H211959   6.507   6.587   2.550  0.6311  1.1920  0.7174
 4006TIP3   OH211960   2.677   3.307   2.254  0.0227  0.1118 -0.1377
 4006TIP3    H111961   2.643   3.391   2.286 -2.3876 -1.0958  0.7829
 4006TIP3    H211962   2.600   3.250   2.251  1.5688 -2.0880 -0.7299
 4007TIP3   OH211963   0.166   1.519   5.427 -0.4409 -0.3684  0.2501
 4007TIP3    H111964   0.256   1.520   5.394 -0.5850 -1.2097 -0.2154
 4007TIP3    H211965   0.116   1.567   5.361 -0.6866 -1.8364 -0.6935
 4008TIP3   OH211966   3.398   1.963   1.197 -0.1246  0.1472  0.2729
 4008TIP3    H111967   3.356   1.948   1.282  0.5923 -0.4936  0.5261
 4008TIP3    H211968   3.454   2.039   1.211  1.2141 -0.8983  0.8544
 4009TIP3   OH211969   1.548   7.640   0.409  0.1046 -0.3224  0.7214
 4009TIP3    H111970   1.563   7.622   0.316  1.0536 -0.1805  0.8408
 4009TIP3    H211971   1.487   7.571   0.437 -0.9575  0.2066 -0.2238
 4010TIP3   OH211972   3.086   5.520   3.899 -0.0409 -0.3839  0.5177
 4010TIP3    H111973   3.156   5.487   3.955  0.0908 -0.0193  0.5689
 4010TIP3    H211974   3.006   5.503   3.949  0.1105  0.3251  1.0042
 4011TIP3   OH211975   1.479   1.306   0.748 -0.6021  0.6833  0.4273
 4011TIP3    H111976   1.387   1.290   0.727 -0.8387 -1.6697  2.6675
 4011TIP3    H211977   1.487   1.277   0.839  2.4138  0.6018  0.2159
 4012TIP3   OH211978   3.099   0.246   4.490  0.0144  0.1478 -0.4111
 4012TIP3    H111979   3.147   0.265   4.570 -2.1295 -4.4709  2.4159
 4012TIP3    H211980   3.166   0.215   4.428  1.4558  1.6076  0.3518
 4013TIP3   OH211981   5.753   0.227   1.680 -0.5438 -0.6082  0.1051
 4013TIP3    H111982   5.689   0.248   1.747  0.8216 -1.0380  1.6082
 4013TIP3    H211983   5.701   0.207   1.602 -2.3295 -2.7076  1.7066
 4014TIP3   OH211984   1.528   0.384   0.860 -0.0939 -0.2433  0.5403
 4014TIP3    H111985   1.495   0.296   0.841  1.3450 -0.6655 -0.1035
 4014TIP3    H211986   1.517   0.394   0.955 -0.9420 -0.8219  0.5120
 4015TIP3   OH211987   0.382   3.948   5.789 -0.1976 -0.1749  0.2025
 4015TIP3    H111988   0.372   3.853   5.790  0.9358 -0.3615 -1.7073
 4015TIP3    H211989   0.475   3.963   5.774 -0.3218  1.2434  0.6981
 4016TIP3   OH211990   7.899   2.885   1.533  0.1953 -0.4084 -0.1804
 4016TIP3    H111991   7.963   2.942   1.491  0.0889 -0.2466 -0.1262
 4016TIP3    H211992   7.814   2.920   1.507  0.1279 -0.7266 -0.3904
 4017TIP3   OH211993   0.433   5.458   2.661  0.0731  0.5986 -0.1707
 4017TIP3    H111994   0.466   5.427   2.577  0.5998 -0.0887  0.2824
 4017TIP3    H211995   0.511   5.479   2.711 -0.2225  0.4252  0.3643
 4018TIP3   OH211996   4.513   6.544   6.499  0.3588 -0.3907 -0.1981
 4018TIP3    H111997   4.559   6.580   6.422  0.0038  1.6878  0.5064
 4018TIP3    H211998   4.422   6.569   6.486  0.0438 -1.3210  0.1921
 4019TIP3   OH211999   3.578   6.720   5.499  0.0975 -0.4247 -0.0933
 4019TIP3    H112000   3.522   6.705   5.422 -0.0412  2.0875 -0.5606
 4019TIP3    H212001   3.518   6.752   5.566  0.4407 -1.2646  0.6320
 4020TIP3   OH212002  -0.010   3.302   4.079  0.5605 -0.1514  0.0309
 4020TIP3    H112003   0.035   3.278   3.997 -0.8403  1.6898 -1.3463
 4020TIP3    H212004   0.044   3.372   4.116  1.7258 -1.6150  1.2900
 4021TIP3   OH212005   3.449   0.975   4.937  0.3173 -0.3535  0.3905
 4021TIP3    H112006   3.463   0.880   4.942  2.8480  0.0031  1.2244
 4021TIP3    H212007   3.461   1.006   5.027 -1.3272  0.6907  0.2849
 4022TIP3   OH212008   0.267   4.910   0.998  0.1616 -0.2940  0.4817
 4022TIP3    H112009   0.298   4.893   0.909  3.1662  2.1799  0.9067
 4022TIP3    H212010   0.332   4.868   1.055  0.5266  1.4881  1.4474
 4023TIP3   OH212011   6.437   6.441   5.471  0.4056  0.1792  0.1997
 4023TIP3    H112012   6.419   6.351   5.446 -2.1120  1.0988 -1.7798
 4023TIP3    H212013   6.432   6.442   5.566 -0.7920 -1.5492  0.1902
 4024TIP3   OH212014   6.733   4.600   3.595 -0.0147 -0.3186  0.4285
 4024TIP3    H112015   6.740   4.633   3.505 -1.1420  1.7720  1.0343
 4024TIP3    H212016   6.762   4.509   3.590  1.2230  0.1210 -1.8014
 4025TIP3   OH212017   3.010   5.708   5.228  0.7572  0.0707 -0.6021
 4025TIP3    H112018   2.958   5.685   5.305 -0.6879 -0.2624 -1.6333
 4025TIP3    H212019   3.031   5.801   5.241 -1.4082  0.6559 -0.8191
 4026TIP3   OH212020   5.470   6.661   3.559 -0.3451  0.2610  0.0901
 4026TIP3    H112021   5.496   6.722   3.490  0.1923 -2.2475 -2.1027
 4026TIP3    H212022   5.551   6.617   3.583 -1.0189 -1.0514  0.0408
 4027TIP3   OH212023   1.309   5.970   6.194  0.0825 -0.6061 -0.0378
 4027TIP3    H112024   1.261   6.052   6.181  1.5024  0.3141  0.2527
 4027TIP3    H212025   1.241   5.905   6.211 -1.2426  0.0663 -2.2970
 4028TIP3   OH212026   2.933   4.645   0.997 -0.3981 -0.4124  0.4329
 4028TIP3    H112027   2.968   4.702   1.065 -0.8824  0.8161 -0.3292
 4028TIP3    H212028   2.887   4.703   0.937 -1.0359 -1.6190 -0.2929
 4029TIP3   OH212029   4.609   6.634   3.757  0.4661 -0.8611  0.0695
 4029TIP3    H112030   4.648   6.571   3.817  1.1560 -1.1981 -0.7108
 4029TIP3    H212031   4.682   6.688   3.728 -0.2196  0.7665  1.2415
 4030TIP3   OH212032   1.720   6.862   6.604  0.2807 -0.2611  0.1113
 4030TIP3    H112033   1.715   6.953   6.634 -0.2677 -0.0248 -0.6679
 4030TIP3    H212034   1.642   6.821   6.641 -0.4057  0.0345 -0.9557
 4031TIP3   OH212035   7.749   5.376   0.244 -0.2531 -0.3677 -0.0866
 4031TIP3    H112036   7.772   5.438   0.313  0.8069 -0.6705 -0.1487
 4031TIP3    H212037   7.717   5.430   0.172  0.1043  0.0642  0.0762
 4032TIP3   OH212038   0.492   4.511   2.966 -0.2842  0.4386 -0.0460
 4032TIP3    H112039   0.437   4.474   3.036 -0.3624  1.6232  0.5406
 4032TIP3    H212040   0.436   4.576   2.923 -0.8850 -1.5040 -2.4526
 4033TIP3   OH212041   3.630   0.259   0.068 -0.0814  0.3980  0.5548
 4033TIP3    H112042   3.660   0.170   0.081 -1.0950 -0.4933 -2.3095
 4033TIP3    H212043   3.573   0.277   0.143  0.0147 -1.4314  1.1104
 4034TIP3   OH212044   6.023   0.379   6.385 -0.4123  0.4149 -0.0871
 4034TIP3    H112045   6.107   0.351   6.420  0.8334  2.9967 -0.7784
 4034TIP3    H212046   6.044   0.413   6.298 -1.7970  2.8573  0.4533
 4035TIP3   OH212047   1.845   4.636   0.475  0.4261  0.0054  0.0241
 4035TIP3    H112048   1.938   4.640   0.454  0.6365 -0.1602  0.8808
 4035TIP3    H212049   1.820   4.545   0.458  0.2478  0.2196 -0.8843
 4036TIP3   OH212050   8.219   3.088   6.032  0.1442 -0.0426  0.0694
 4036TIP3    H112051   8.242   2.997   6.053  0.7006 -0.0628 -0.5853
 4036TIP3    H212052   8.298   3.123   5.991 -0.1960  0.6295 -0.0184
 4037TIP3   OH212053   5.845   7.383   5.002 -0.9114  0.2798  0.1133
 4037TIP3    H112054   5.935   7.368   4.975 -0.8927  1.9632 -0.9521
 4037TIP3    H212055   5.828   7.318   5.070  0.5203 -1.2002 -0.8983
 4038TIP3   OH212056   3.928   5.153   5.595  0.0036 -0.2510  0.0551
 4038TIP3    H112057   4.023   5.163   5.583  0.1111 -2.2030 -1.1181
 4038TIP3    H212058   3.893   5.241   5.580  1.6598  0.6810  1.2463
 4039TIP3   OH212059   2.901   4.730   0.045  0.1485 -0.3398  0.3459
 4039TIP3    H112060   2.835   4.675   0.087  0.7900 -2.5907 -1.4090
 4039TIP3    H212061   2.859   4.763  -0.034  0.4824 -0.1217  0.2560
 4040TIP3   OH212062   1.578   4.760   1.842 -0.1457 -0.0701 -0.1227
 4040TIP3    H112063   1.645   4.715   1.894 -1.1448 -0.6485  0.6914
 4040TIP3    H212064   1.619   4.843   1.818  1.4151 -1.0171 -0.9284
 4041TIP3   OH212065   0.149   3.942   6.181  0.0445  0.2359 -0.2095
 4041TIP3    H112066   0.112   4.026   6.206 -0.8001  0.5346 -2.2707
 4041TIP3    H212067   0.081   3.901   6.126  1.1935 -0.9527 -0.8069
 4042TIP3   OH212068   7.349   5.767   1.826 -0.0717 -0.0893  0.3656
 4042TIP3    H112069   7.385   5.748   1.913  1.1495  1.0562  0.1242
 4042TIP3    H212070   7.418   5.814   1.781 -0.6699 -0.7274 -1.2757
 4043TIP3   OH212071   4.733   6.306   4.654 -0.0712 -0.1634  0.3044
 4043TIP3    H112072   4.727   6.210   4.653  0.4805 -0.2206  1.0616
 4043TIP3    H212073   4.692   6.331   4.737 -0.9782  0.3315 -0.2766
 4044TIP3   OH212074   2.152   2.284   5.009 -0.0983 -0.2994 -0.2245
 4044TIP3    H112075   2.157   2.379   4.996  1.7618  0.1118  2.4754
 4044TIP3    H212076   2.067   2.271   5.052 -0.9599 -0.0901 -1.8033
 4045TIP3   OH212077   4.986   6.621   1.226  0.1461 -0.2895  0.3087
 4045TIP3    H112078   4.972   6.567   1.148  0.2245 -0.2350  0.2568
 4045TIP3    H212079   5.076   6.604   1.252  1.0900  1.7964 -1.2696
 4046TIP3   OH212080   2.433   7.553   1.567 -0.1279 -0.3311  0.0359
 4046TIP3    H112081   2.362   7.608   1.598  0.5089  0.1919  0.6031
 4046TIP3    H212082   2.454   7.495   1.640 -0.2712 -0.7965 -0.2851
 4047TIP3   OH212083   1.788   5.903   3.366  0.1577 -0.1357 -0.1645
 4047TIP3    H112084   1.704   5.867   3.336  0.1778 -0.9180  0.6626
 4047TIP3    H212085   1.854   5.853   3.317  0.1707 -0.8853  0.5832
 4048TIP3   OH212086   7.853   4.252   6.399 -0.2585 -0.0053  0.1746
 4048TIP3    H112087   7.874   4.267   6.491 -0.9355 -0.9141  0.4918
 4048TIP3    H212088   7.821   4.162   6.396 -1.8993  0.5670 -0.6732
 4049TIP3   OH212089   7.409   3.503   1.829 -0.3315 -0.3053  0.3717
 4049TIP3    H112090   7.336   3.561   1.807 -0.8496 -0.3759  1.7875
 4049TIP3    H212091   7.476   3.561   1.866 -0.5050 -0.4749  0.9763
 4050TIP3   OH212092   2.361   3.563   3.665  0.2258  0.6891 -0.4144
 4050TIP3    H112093   2.302   3.525   3.600  0.4730 -0.2843 -0.0873
 4050TIP3    H212094   2.341   3.516   3.746  1.2997  0.4885 -0.2504
 4051TIP3   OH212095   3.852   4.680   0.883 -0.2899  0.5475 -0.0351
 4051TIP3    H112096   3.871   4.646   0.970  0.1013 -0.9262 -0.6578
 4051TIP3    H212097   3.811   4.607   0.837  1.2254  0.6362 -1.6627
 4052TIP3   OH212098   0.179   3.434   1.617  0.9506 -0.0053  0.7965
 4052TIP3    H112099   0.194   3.505   1.680  3.7171  1.2735 -1.1567
 4052TIP3    H212100   0.266   3.404   1.593  0.0899 -0.0180 -2.8457
 4053TIP3   OH212101   5.215   6.744   0.848 -0.2907  0.0234  0.1151
 4053TIP3    H112102   5.303   6.761   0.815 -0.0540 -1.4409 -0.1026
 4053TIP3    H212103   5.200   6.651   0.828 -1.4320 -0.0448  1.1868
 4054TIP3   OH212104   4.331   2.575   5.404  0.2041  0.8280 -0.8069
 4054TIP3    H112105   4.312   2.659   5.446 -0.0135  0.2954  0.2057
 4054TIP3    H212106   4.421   2.584   5.371  1.3564  0.4940  1.9191
 4055TIP3   OH212107   6.505   1.781   0.180  0.2922 -0.1567 -0.0396
 4055TIP3    H112108   6.413   1.793   0.155  0.2895  1.1640  0.5200
 4055TIP3    H212109   6.521   1.687   0.169 -1.5657 -0.6994  1.3169
 4056TIP3   OH212110   3.957   3.886   4.989 -0.0218  0.1924  0.0071
 4056TIP3    H112111   3.875   3.907   4.943  0.5498  1.2011 -0.5845
 4056TIP3    H212112   3.939   3.908   5.081 -1.3698 -2.4005  0.4742
 4057TIP3   OH212113   4.443   4.299   5.322  0.4327 -0.3082 -0.1093
 4057TIP3    H112114   4.402   4.300   5.408  1.3252  0.9532  0.3289
 4057TIP3    H212115   4.372   4.274   5.262 -0.1026 -1.5442  1.0041
 4058TIP3   OH212116   8.236   7.408   1.887 -0.3162 -0.0167  0.7340
 4058TIP3    H112117   8.292   7.451   1.822 -0.5550  0.3302  0.7549
 4058TIP3    H212118   8.296   7.354   1.939 -0.0965 -0.1542  0.3443
 4059TIP3   OH212119   3.292   5.075   3.510  0.3242 -0.1990  0.5856
 4059TIP3    H112120   3.318   5.009   3.575  2.1589 -0.3501 -0.2344
 4059TIP3    H212121   3.200   5.094   3.530  0.5821 -0.8928  2.6421
 4060TIP3   OH212122   3.980   4.229   3.446  0.5326 -0.4582 -0.1834
 4060TIP3    H112123   3.933   4.157   3.489  0.7892 -1.1871 -1.0799
 4060TIP3    H212124   4.037   4.185   3.383  0.9260  0.5259 -0.5268
 4061TIP3   OH212125   3.047   1.736   4.265 -0.8217  0.3912  0.7025
 4061TIP3    H112126   3.036   1.738   4.170 -1.2346 -0.5377  0.7216
 4061TIP3    H212127   3.097   1.815   4.285  2.0040 -0.9230 -0.6388
 4062TIP3   OH212128   3.281   4.540   3.703 -0.0779 -0.1396 -0.1874
 4062TIP3    H112129   3.296   4.471   3.768 -0.4981  0.2887  0.3756
 4062TIP3    H212130   3.189   4.531   3.679 -0.5269  1.0699  0.9218
 4063TIP3   OH212131   4.812   5.765   5.666 -0.2440  0.1874 -0.0542
 4063TIP3    H112132   4.733   5.748   5.718 -0.5204  1.0401 -0.1685
 4063TIP3    H212133   4.883   5.767   5.731 -0.3956 -0.0593  0.1206
 4064TIP3   OH212134   5.739   4.484   5.983 -0.2694 -0.7986 -0.2860
 4064TIP3    H112135   5.765   4.564   5.938 -1.3495 -0.4700 -0.3605
 4064TIP3    H212136   5.789   4.415   5.940 -0.5524 -0.3709 -1.3426
 4065TIP3   OH212137   1.462   3.290   2.652  0.1985 -0.2373  0.5258
 4065TIP3    H112138   1.405   3.219   2.621  0.1844  0.4913 -1.1834
 4065TIP3    H212139   1.408   3.336   2.717 -0.8521 -0.1044 -0.4039
 4066TIP3   OH212140   4.531   1.220   1.387  0.2150 -0.1001 -0.0286
 4066TIP3    H112141   4.479   1.279   1.442 -0.9700 -1.7212  0.6579
 4066TIP3    H212142   4.599   1.277   1.349  1.5025  1.0324  3.5344
 4067TIP3   OH212143   7.174   3.629   5.911  0.2146 -0.0022 -1.5697
 4067TIP3    H112144   7.129   3.698   5.961 -0.2244 -2.1762  1.2810
 4067TIP3    H212145   7.103   3.576   5.875  0.5247 -0.4927 -1.4582
 4068TIP3   OH212146   7.192   0.404   5.227 -0.2707  0.2388 -0.3220
 4068TIP3    H112147   7.140   0.400   5.307 -2.4242  0.5630 -1.6206
 4068TIP3    H212148   7.205   0.497   5.210  0.7605  0.1630 -0.0223
 4069TIP3   OH212149   2.335   0.948   2.227  0.6983  0.1357 -0.5849
 4069TIP3    H112150   2.283   0.892   2.284  2.3799 -1.1886 -0.2725
 4069TIP3    H212151   2.400   0.989   2.285 -0.3406  2.2667 -0.8509
 4070TIP3   OH212152   0.883   4.546   3.659 -0.5266 -0.1709 -0.7403
 4070TIP3    H112153   0.904   4.452   3.652  0.8860 -0.1275  1.7856
 4070TIP3    H212154   0.967   4.590   3.645 -0.3059  0.4397  1.9694
 4071TIP3   OH212155   6.496   1.460   6.567 -0.2969 -0.2490  0.2849
 4071TIP3    H112156   6.431   1.504   6.622  0.3222 -0.9001  1.5828
 4071TIP3    H212157   6.534   1.529   6.514 -0.4724  0.5098  1.1294
 4072TIP3   OH212158   7.740   3.271   3.216 -0.5973  0.0785  0.3479
 4072TIP3    H112159   7.657   3.313   3.197  0.2404  1.5599 -0.2351
 4072TIP3    H212160   7.743   3.193   3.160 -2.0659 -0.6547  1.2430
 4073TIP3   OH212161   3.499   6.967   5.208  0.3695 -0.1975 -0.7322
 4073TIP3    H112162   3.451   7.044   5.239 -0.8776  0.2326 -3.4848
 4073TIP3    H212163   3.453   6.893   5.249 -0.7135  0.3566 -0.8983
 4074TIP3   OH212164   0.931   5.501   3.033  0.0217  0.1594  0.5704
 4074TIP3    H112165   0.839   5.474   3.038  0.1294 -0.2022  0.5792
 4074TIP3    H212166   0.932   5.567   2.964 -0.1545 -0.2083  0.2159
 4075TIP3   OH212167   3.990   5.747   4.320 -0.6565 -0.2404  0.2163
 4075TIP3    H112168   4.039   5.816   4.276 -1.2067  0.9681  1.4271
 4075TIP3    H212169   3.973   5.782   4.408 -0.4124 -2.1703  1.0838
 4076TIP3   OH212170   4.894   2.158   5.920  0.2616  0.0714 -0.0415
 4076TIP3    H112171   4.985   2.135   5.905  0.7105  1.0915  0.9516
 4076TIP3    H212172   4.845   2.104   5.859  1.3288 -2.4013  1.1616
 4077TIP3   OH212173   4.375   0.034   5.769  0.4196 -0.1700 -0.0886
 4077TIP3    H112174   4.462   0.014   5.803  0.9420 -1.2611 -1.9324
 4077TIP3    H212175   4.321  -0.040   5.798  0.6604 -0.6525 -0.8394
 4078TIP3   OH212176   3.939   0.780   1.791 -0.7879  0.8373 -1.0452
 4078TIP3    H112177   3.860   0.731   1.810 -0.4823  1.4975  2.6320
 4078TIP3    H212178   4.008   0.714   1.784 -1.3716  0.3721 -2.8273
 4079TIP3   OH212179   4.445   6.098   1.301 -0.3212  0.2203 -0.1421
 4079TIP3    H112180   4.514   6.130   1.243 -1.3252  0.7380 -1.0960
 4079TIP3    H212181   4.392   6.040   1.246  0.4256 -1.7144  1.0860
 4080TIP3   OH212182   0.336   4.601   1.703 -0.4270  0.4190 -0.4104
 4080TIP3    H112183   0.306   4.535   1.640  0.5423  0.6335 -1.1129
 4080TIP3    H212184   0.261   4.616   1.760 -0.7970 -1.0054 -0.4827
 4081TIP3   OH212185   1.838   4.676   6.437  0.1210 -0.5478 -0.0056
 4081TIP3    H112186   1.830   4.725   6.354  0.0406 -0.7419 -0.1140
 4081TIP3    H212187   1.905   4.723   6.486  1.0794 -1.1559 -0.6953
 4082TIP3   OH212188   1.855   4.042   2.997  0.2354 -0.4175  0.1216
 4082TIP3    H112189   1.901   4.107   2.944  0.0460 -0.6247 -0.3071
 4082TIP3    H212190   1.782   4.091   3.036 -0.6520 -0.6150 -1.1956
 4083TIP3   OH212191   5.343   3.647   5.981 -0.1047  0.1450  0.3429
 4083TIP3    H112192   5.398   3.570   5.966 -0.5203  0.1749 -1.7646
 4083TIP3    H212193   5.399   3.721   5.957 -0.2904  0.3669  0.5915
 4084TIP3   OH212194   0.855   2.288   0.795 -0.2018 -0.5352 -0.1637
 4084TIP3    H112195   0.872   2.239   0.714  3.9101  1.1772 -0.5620
 4084TIP3    H212196   0.804   2.364   0.767 -4.3063 -2.8602  0.0714
 4085TIP3   OH212197   1.127   3.884   6.723 -0.0061 -0.5277 -0.7550
 4085TIP3    H112198   1.104   3.969   6.759  0.6325 -0.6300 -0.0954
 4085TIP3    H212199   1.217   3.894   6.693  0.6093 -1.3847  0.7017
 4086TIP3   OH212200   6.334   0.731   3.401 -0.8713 -0.1711 -0.0484
 4086TIP3    H112201   6.301   0.788   3.331 -1.2026 -1.1347 -0.6861
 4086TIP3    H212202   6.412   0.691   3.365  0.6483  1.4897  1.1782
 4087TIP3   OH212203   2.459   1.968   4.912  0.2227 -0.9124  0.4756
 4087TIP3    H112204   2.411   1.995   4.991  1.3264  0.6545  0.6712
 4087TIP3    H212205   2.397   1.983   4.841 -0.3766 -1.1660  0.9319
 4088TIP3   OH212206   7.578   2.348   1.211 -0.0400 -0.3241  0.0653
 4088TIP3    H112207   7.549   2.402   1.285  4.2959  2.0668  0.3367
 4088TIP3    H212208   7.632   2.280   1.251 -0.6451 -1.2921 -0.7242
 4089TIP3   OH212209   2.261   2.506   1.342  0.2008  0.4446  0.4786
 4089TIP3    H112210   2.172   2.530   1.368  0.9941  2.1795  1.8248
 4089TIP3    H212211   2.259   2.411   1.334 -2.0278  0.5199 -0.6342
 4090TIP3   OH212212   0.228   3.897   5.459  0.3038 -0.0485 -0.2950
 4090TIP3    H112213   0.232   3.830   5.527 -0.6230 -0.1279 -0.3175
 4090TIP3    H212214   0.320   3.919   5.443  0.5261  0.9196  1.9048
 4091TIP3   OH212215   3.169   2.222   3.482  0.0311  0.7023  0.4062
 4091TIP3    H112216   3.153   2.280   3.408 -1.0000  1.9726  1.5510
 4091TIP3    H212217   3.168   2.281   3.558 -1.8855 -0.9064  1.7084
 4092TIP3   OH212218   3.910   0.691   3.052  0.3232 -0.3282 -0.5347
 4092TIP3    H112219   3.953   0.759   3.103  0.4727  0.0244 -1.1238
 4092TIP3    H212220   3.942   0.704   2.962  0.1814 -1.0331 -0.6907
 4093TIP3   OH212221   4.327   0.761   1.524 -0.7097 -0.5310 -0.2613
 4093TIP3    H112222   4.353   0.822   1.593 -0.8690 -0.5149 -0.2139
 4093TIP3    H212223   4.404   0.753   1.468  0.1897 -2.2185  1.0961
 4094TIP3   OH212224   4.514   2.254   3.244  0.1197  0.8985  0.2046
 4094TIP3    H112225   4.460   2.256   3.165 -0.5408 -1.3787  0.5283
 4094TIP3    H212226   4.595   2.209   3.218  0.3258  1.0348  0.5886
 4095TIP3   OH212227   0.286   7.241   5.919 -0.7082  0.1714 -0.4520
 4095TIP3    H112228   0.208   7.293   5.936 -1.3785 -0.6101 -1.0661
 4095TIP3    H212229   0.285   7.227   5.824  0.7785  1.0751 -0.6336
 4096TIP3   OH212230   7.819   3.733   6.379  0.3619 -0.3302 -0.0545
 4096TIP3    H112231   7.792   3.732   6.287 -0.0329 -1.5835  0.0624
 4096TIP3    H212232   7.890   3.669   6.384  0.9011  0.2891  0.3751
 4097TIP3   OH212233   7.022   2.704   5.923 -0.1348 -0.2781 -0.7921
 4097TIP3    H112234   6.959   2.712   5.851 -0.6673  0.3844 -0.2585
 4097TIP3    H212235   7.011   2.784   5.974 -0.0327 -0.9130  0.2484
 4098TIP3   OH212236   6.671   4.114   2.383 -0.5930  0.1377  0.5827
 4098TIP3    H112237   6.597   4.160   2.421 -1.6331 -0.0317 -1.1444
 4098TIP3    H212238   6.635   4.030   2.354 -0.3673  1.0158 -2.5036
 4099TIP3   OH212239   7.130   3.964   5.677 -0.5737  0.9938  0.1610
 4099TIP3    H112240   7.063   3.904   5.711  0.5856  0.4691  1.6567
 4099TIP3    H212241   7.088   4.009   5.604 -2.1419 -0.1918  0.2909
 4100TIP3   OH212242   7.939   6.738   0.791 -0.0435  0.2241 -0.0640
 4100TIP3    H112243   7.868   6.754   0.852 -0.0875  0.9885 -0.3019
 4100TIP3    H212244   8.009   6.797   0.819  0.5395 -0.5695  0.2147
 4101TIP3   OH212245   5.693   6.999   4.792  0.2327  0.0025 -0.2890
 4101TIP3    H112246   5.599   7.012   4.782  0.1993 -0.7727 -1.0717
 4101TIP3    H212247   5.729   7.088   4.798 -0.3930  0.3590 -1.4677
 4102TIP3   OH212248   2.638   6.703   3.229 -0.1287  0.1576 -0.1086
 4102TIP3    H112249   2.653   6.609   3.226  1.3962  0.3935 -0.8064
 4102TIP3    H212250   2.548   6.714   3.197 -0.1555 -1.0201 -0.4970
 4103TIP3   OH212251   3.268   2.603   3.826 -0.5027  0.0397 -0.2175
 4103TIP3    H112252   3.228   2.605   3.912 -2.2331 -0.8772 -0.9465
 4103TIP3    H212253   3.271   2.510   3.802  0.9836  0.1777 -0.7148
 4104TIP3   OH212254   5.248   2.899   2.618 -1.1048  0.1758  0.6257
 4104TIP3    H112255   5.276   2.809   2.603 -1.5196 -0.2448  2.1869
 4104TIP3    H212256   5.327   2.951   2.609 -1.1381 -0.0720 -1.9883
 4105TIP3   OH212257   5.014   6.253   4.715  0.1692  0.4324 -0.0917
 4105TIP3    H112258   4.989   6.248   4.623  1.1497 -1.2439 -0.3277
 4105TIP3    H212259   5.003   6.345   4.739 -1.0752  0.7152 -1.5826
 4106TIP3   OH212260   0.757   7.187   2.648 -0.1359  0.1112 -0.4510
 4106TIP3    H112261   0.737   7.114   2.707 -0.5650  1.0473  0.5939
 4106TIP3    H212262   0.825   7.237   2.694  0.1779  0.3546 -1.1673
 4107TIP3   OH212263   4.952   2.796   3.020 -0.1024  0.2066 -0.3562
 4107TIP3    H112264   4.867   2.781   2.979  0.4434 -0.7976 -1.1762
 4107TIP3    H212265   4.999   2.852   2.957  0.0651  0.2518 -0.1919
 4108TIP3   OH212266   6.450   1.854   1.718 -0.0123  0.2194 -0.1837
 4108TIP3    H112267   6.509   1.837   1.792 -0.0018 -2.0358 -0.6316
 4108TIP3    H212268   6.496   1.920   1.666  0.8059  0.5406  0.8901
 4109TIP3   OH212269   8.206   3.562   3.437  0.2633 -0.0073  0.0678
 4109TIP3    H112270   8.264   3.487   3.421  1.0680  0.0622  2.3452
 4109TIP3    H212271   8.208   3.611   3.355  3.0933 -0.2619 -0.1414
 4110TIP3   OH212272   5.118   1.344   0.238 -0.3365  0.3711 -0.3812
 4110TIP3    H112273   5.038   1.358   0.289 -0.3345  2.1286 -0.7961
 4110TIP3    H212274   5.135   1.428   0.196  2.0391  0.2277  0.1169
 4111TIP3   OH212275   1.034   2.761   2.627  0.2176  0.1586 -0.3563
 4111TIP3    H112276   1.025   2.855   2.616 -1.0236  0.1749  0.5162
 4111TIP3    H212277   0.963   2.723   2.575 -0.1705 -0.2046  0.4180
 4112TIP3   OH212278   3.033   5.122   3.584 -0.2014  0.1157 -0.5860
 4112TIP3    H112279   3.024   5.058   3.655  0.5934  1.1132  0.4467
 4112TIP3    H212280   3.003   5.205   3.621 -0.2448  0.5667 -1.5826
 4113TIP3   OH212281  -0.008   4.361   1.625  0.0309  0.1307  0.2413
 4113TIP3    H112282  -0.036   4.361   1.533  0.0863  0.8759  0.2169
 4113TIP3    H212283   0.086   4.348   1.622 -0.1755 -1.5533  0.2837
 4114TIP3   OH212284   6.651   1.124   6.402 -0.3112 -0.6964  0.1691
 4114TIP3    H112285   6.628   1.212   6.372 -1.5776 -1.2168 -0.4703
 4114TIP3    H212286   6.728   1.137   6.457  0.3808  0.6482 -1.0363
 4115TIP3   OH212287   0.527   1.132   0.467  0.5344  0.6699 -0.3568
 4115TIP3    H112288   0.559   1.051   0.426 -2.2402 -0.1281 -1.1483
 4115TIP3    H212289   0.519   1.109   0.560  0.0726  0.1258 -0.5231
 4116TIP3   OH212290   2.600   4.586   1.519 -0.0017 -0.0322  0.4053
 4116TIP3    H112291   2.687   4.588   1.558  0.4946  0.7436 -0.6775
 4116TIP3    H212292   2.601   4.657   1.455 -1.5171  0.1365  0.5343
 4117TIP3   OH212293   7.542   0.842   0.890 -0.0716  0.6445 -0.4754
 4117TIP3    H112294   7.615   0.897   0.861  1.5819 -1.0388  0.2640
 4117TIP3    H212295   7.499   0.816   0.809  2.3248 -1.1129 -1.3293
 4118TIP3   OH212296   5.256   1.519   5.785  0.2835  0.0989 -0.1908
 4118TIP3    H112297   5.226   1.548   5.871  0.1157  0.5847 -0.4119
 4118TIP3    H212298   5.347   1.547   5.781  0.2976  0.0578 -0.1657
 4119TIP3   OH212299   0.794   5.629   6.047  0.3989 -0.1518  0.8477
 4119TIP3    H112300   0.824   5.693   6.111  0.6880 -0.9849  1.5674
 4119TIP3    H212301   0.699   5.629   6.055  0.3435  0.7387  0.2887
 4120TIP3   OH212302   4.461   4.836   4.435 -0.1790  0.3406  0.2225
 4120TIP3    H112303   4.396   4.880   4.380  2.5866  1.8640 -2.1094
 4120TIP3    H212304   4.444   4.869   4.523 -2.4848  0.7198 -0.3134
 4121TIP3   OH212305   4.456   3.693   1.836  0.6447  0.2259  0.2765
 4121TIP3    H112306   4.437   3.727   1.923  0.3700 -0.9407  0.6903
 4121TIP3    H212307   4.414   3.607   1.834 -0.9108  0.9611 -1.6358
 4122TIP3   OH212308   2.080   6.288   2.083  0.8179  0.8251 -0.3246
 4122TIP3    H112309   2.167   6.321   2.107  0.1532  1.8118  0.8688
 4122TIP3    H212310   2.063   6.326   1.997  1.5848  0.5686 -0.6011
 4123TIP3   OH212311   2.817   7.247   4.810 -0.4124 -0.0352  0.2195
 4123TIP3    H112312   2.830   7.171   4.867 -0.2102  0.0131  0.2395
 4123TIP3    H212313   2.905   7.270   4.780 -0.4565  0.2816  0.3307
 4124TIP3   OH212314   1.930   7.622   1.953  0.8185  0.1376  0.2256
 4124TIP3    H112315   1.913   7.712   1.925  1.9818  0.1629 -0.4164
 4124TIP3    H212316   1.842   7.586   1.969  0.0635  0.3164 -2.8313
 4125TIP3   OH212317   6.040   7.575   5.888 -0.1106 -0.1252 -0.1651
 4125TIP3    H112318   6.002   7.487   5.882  1.3790 -1.0404  2.4721
 4125TIP3    H212319   5.969   7.630   5.920 -0.7236 -0.5940 -0.6840
 4126TIP3   OH212320   1.039   6.664   2.447 -0.2855 -0.0233  0.3982
 4126TIP3    H112321   0.953   6.682   2.410 -0.7180  1.7622  2.1196
 4126TIP3    H212322   1.098   6.721   2.399 -0.0862 -0.9695 -0.5201
 4127TIP3   OH212323   4.683   3.380   4.515  0.2764 -0.4525 -0.1324
 4127TIP3    H112324   4.609   3.326   4.544  0.8686 -0.5100  1.3841
 4127TIP3    H212325   4.743   3.318   4.474 -1.4238 -0.0995 -3.4491
 4128TIP3   OH212326   7.698   2.989   2.788  0.0550  0.0395  0.1709
 4128TIP3    H112327   7.604   2.973   2.784  0.0560  0.2969 -1.8519
 4128TIP3    H212328   7.736   2.925   2.728  1.2754 -0.5503  1.5125
 4129TIP3   OH212329   7.148   6.391   0.294  0.3628 -0.3105  0.2032
 4129TIP3    H112330   7.144   6.321   0.230 -0.0096 -0.2347  0.1441
 4129TIP3    H212331   7.084   6.367   0.361 -2.2451  1.5992 -1.4448
 4130TIP3   OH212332   4.613   6.864   6.191  0.3138 -0.0712 -0.0610
 4130TIP3    H112333   4.618   6.899   6.280  0.7096 -1.9995  0.7392
 4130TIP3    H212334   4.521   6.840   6.180 -0.3708  2.7382 -1.3034
 4131TIP3   OH212335   0.002   2.111   6.549 -0.2967  0.2371 -0.4025
 4131TIP3    H112336   0.035   2.181   6.605 -1.3895  0.1641  0.3701
 4131TIP3    H212337   0.062   2.038   6.563 -1.5909 -0.4557  2.2286
 4132TIP3   OH212338   2.444   7.226   3.637 -0.1583  0.1584  0.3240
 4132TIP3    H112339   2.525   7.252   3.593  0.5033 -1.0431  0.7828
 4132TIP3    H212340   2.438   7.283   3.713  0.2434  0.2639  0.2780
 4133TIP3   OH212341   5.480   7.120   6.124  0.2967 -0.4111  0.1408
 4133TIP3    H112342   5.454   7.132   6.215 -0.5632 -0.0459 -0.1385
 4133TIP3    H212343   5.557   7.063   6.128 -0.5282 -1.5145  1.0206
 4134TIP3   OH212344   6.010   6.988   5.139 -0.5401 -0.1595 -0.4478
 4134TIP3    H112345   6.071   6.970   5.211 -0.9767  0.6463  0.1312
 4134TIP3    H212346   6.063   7.031   5.072 -0.0352 -1.2991 -0.8134
 4135TIP3   OH212347   1.474   5.265   1.208  0.4258  0.1889  0.4757
 4135TIP3    H112348   1.521   5.285   1.127 -0.2277 -0.4420 -0.0653
 4135TIP3    H212349   1.432   5.348   1.232 -0.0950  0.1639 -0.3149
 4136TIP3   OH212350   0.057   1.073   5.807 -0.4628 -0.8131 -0.1369
 4136TIP3    H112351   0.058   1.049   5.714 -2.2809 -0.3783 -0.3256
 4136TIP3    H212352  -0.026   1.120   5.818  0.3730  0.3959  1.4180
 4137TIP3   OH212353   7.235   2.493   2.338 -0.0723 -0.0487  0.3095
 4137TIP3    H112354   7.167   2.482   2.404  1.8260 -0.7444  2.2844
 4137TIP3    H212355   7.219   2.580   2.300 -1.6293  0.0729  1.1830
 4138TIP3   OH212356   0.818   3.849   3.238  0.0805  0.0407 -0.4400
 4138TIP3    H112357   0.887   3.892   3.289 -0.8823 -1.3807  2.3247
 4138TIP3    H212358   0.744   3.910   3.242  0.9516  1.4315 -3.1533
 4139TIP3   OH212359   8.283   5.380   2.900  0.5055  0.8806  0.5794
 4139TIP3    H112360   8.194   5.400   2.869  0.4234 -0.9800 -0.5237
 4139TIP3    H212361   8.340   5.424   2.837  0.3621  0.6293  0.2742
 4140TIP3   OH212362   3.759   1.144   4.542 -0.2950  0.1942 -0.3262
 4140TIP3    H112363   3.809   1.225   4.555 -0.4787  0.3169 -0.3652
 4140TIP3    H212364   3.746   1.110   4.630 -0.1381  0.1610 -0.3171
 4141TIP3   OH212365   3.987   2.871   0.664 -0.2359 -0.1728 -0.3878
 4141TIP3    H112366   3.986   2.780   0.634 -2.1303 -0.9558  1.7145
 4141TIP3    H212367   3.895   2.897   0.665  0.0674  0.9962  1.1049
 4142TIP3   OH212368   7.390   5.406   3.880 -0.4346 -0.8315  0.4157
 4142TIP3    H112369   7.447   5.465   3.930 -1.0153 -0.3784  0.5517
 4142TIP3    H212370   7.374   5.333   3.940 -0.8143 -0.4762  0.7489
 4143TIP3   OH212371   0.265   1.103   1.090  0.3380 -0.1327  0.2159
 4143TIP3    H112372   0.284   1.014   1.060 -0.3454  0.1753 -1.2666
 4143TIP3    H212373   0.184   1.126   1.044  1.5897  2.0032 -1.0654
 4144TIP3   OH212374   1.493   1.130   3.408 -0.2108 -0.4595 -0.3999
 4144TIP3    H112375   1.515   1.153   3.498  1.3317 -1.6398 -0.4326
 4144TIP3    H212376   1.472   1.213   3.366  1.9465  0.4869  0.2967
 4145TIP3   OH212377   5.928   2.766   0.254 -0.8358  0.7433  0.8123
 4145TIP3    H112378   5.838   2.794   0.238 -0.8351  1.2189  1.5746
 4145TIP3    H212379   5.968   2.764   0.168 -1.7541 -0.1262  0.3782
 4146TIP3   OH212380   3.441   6.520   6.464 -0.2698 -0.4322 -0.2452
 4146TIP3    H112381   3.451   6.569   6.383  0.1850 -0.7995 -0.4106
 4146TIP3    H212382   3.530   6.508   6.497 -0.5411  1.1332  1.1604
 4147TIP3   OH212383   7.982   5.087   1.121  0.2258 -0.2326  0.0290
 4147TIP3    H112384   8.008   5.026   1.189  1.1259  0.6330  0.4796
 4147TIP3    H212385   7.887   5.095   1.131  0.1983 -0.9851  0.4258
 4148TIP3   OH212386   7.864   3.042   0.842 -0.6725 -0.7220 -0.2057
 4148TIP3    H112387   7.874   2.967   0.901 -1.0236 -1.5074 -1.1217
 4148TIP3    H212388   7.866   3.003   0.754  2.4477  0.6421 -0.8863
 4149TIP3   OH212389   2.726   3.591   0.024 -0.4816  0.7065 -0.5366
 4149TIP3    H112390   2.711   3.666  -0.033 -0.9059  0.8135 -0.2915
 4149TIP3    H212391   2.747   3.630   0.109  1.3719  0.5679 -0.8848
 4150TIP3   OH212392   2.099   4.480   5.810 -0.2040 -0.8810 -0.1047
 4150TIP3    H112393   2.186   4.482   5.849 -0.4618 -0.7681  0.4737
 4150TIP3    H212394   2.113   4.507   5.719  0.1848  0.4944  0.3327
 4151TIP3   OH212395   1.806   3.156   5.898  0.5748 -0.5279  0.2006
 4151TIP3    H112396   1.877   3.110   5.944  0.6841  0.4324  1.0418
 4151TIP3    H212397   1.751   3.086   5.863  1.6024 -1.2911  0.0504
 4152TIP3   OH212398   2.927   1.912   1.982  0.1199 -0.5633 -0.5710
 4152TIP3    H112399   2.874   1.987   1.954 -0.5014 -0.8422 -0.1605
 4152TIP3    H212400   3.017   1.945   1.980 -0.2692  0.7992  1.3920
 4153TIP3   OH212401   7.039   1.835   4.334 -0.2547  0.0775  0.1180
 4153TIP3    H112402   6.965   1.788   4.372  0.0733  0.0823  0.7873
 4153TIP3    H212403   7.085   1.872   4.410  0.5105 -0.0551 -0.2724
 4154TIP3   OH212404   4.684   6.294   5.528  0.0639 -0.5051  0.5477
 4154TIP3    H112405   4.687   6.277   5.434  0.6160 -1.9641  0.7979
 4154TIP3    H212406   4.680   6.207   5.568 -0.4908  0.0975  1.8667
 4155TIP3   OH212407   5.841   3.660   4.877 -0.2511 -0.0930  0.0464
 4155TIP3    H112408   5.844   3.569   4.847 -0.8971  0.1256 -0.7224
 4155TIP3    H212409   5.929   3.693   4.858  0.6507 -1.0820  2.1698
 4156TIP3   OH212410   4.096   0.249   2.291  0.0600  0.4851 -0.4765
 4156TIP3    H112411   4.066   0.165   2.324  0.2331  1.4097  2.2621
 4156TIP3    H212412   4.036   0.269   2.218  0.8019 -2.4928 -2.0445
 4157TIP3   OH212413   4.654   0.785   4.914 -0.1858 -0.3058  0.0216
 4157TIP3    H112414   4.703   0.813   4.837 -1.0312 -1.4692 -0.9726
 4157TIP3    H212415   4.707   0.715   4.952  0.5160  0.6503  0.8636
 4158TIP3   OH212416   7.245   7.613   6.608 -0.8600  0.4596  0.3239
 4158TIP3    H112417   7.255   7.576   6.521 -1.7441  2.7207 -0.8389
 4158TIP3    H212418   7.201   7.545   6.659  0.0007 -1.0457 -0.8736
 4159TIP3   OH212419   2.922   3.867   1.206 -0.0446  0.0516  0.1607
 4159TIP3    H112420   3.002   3.916   1.186 -0.6785  0.6070 -1.1018
 4159TIP3    H212421   2.866   3.931   1.251 -0.7749  0.4612 -1.2695
 4160TIP3   OH212422   6.936   0.289   1.888  0.1051 -0.0593  0.2737
 4160TIP3    H112423   6.855   0.302   1.936 -0.2414 -1.0297 -0.0163
 4160TIP3    H212424   6.937   0.195   1.868  0.4712  0.2230 -1.1791
 4161TIP3   OH212425   7.200   4.798   3.978 -0.0591  0.1039 -0.0773
 4161TIP3    H112426   7.115   4.801   3.933  1.2260 -1.5996 -2.9023
 4161TIP3    H212427   7.218   4.704   3.987  2.6532  0.3020 -2.0639
 4162TIP3   OH212428   1.238   6.831   4.273 -0.8291 -0.6097  0.1892
 4162TIP3    H112429   1.282   6.875   4.200 -2.6967 -1.8912 -1.8311
 4162TIP3    H212430   1.298   6.760   4.297 -0.2694 -0.2795 -0.1934
 4163TIP3   OH212431   2.052   3.687   1.829  0.4947 -0.1875 -0.6391
 4163TIP3    H112432   2.127   3.727   1.785 -0.0455  3.6227  1.5084
 4163TIP3    H212433   1.981   3.750   1.817 -1.2298 -1.7144  0.8745
 4164TIP3   OH212434   0.244   5.577   3.826 -0.6819  0.2056 -0.2063
 4164TIP3    H112435   0.273   5.654   3.875  0.2598 -1.0579  1.2801
 4164TIP3    H212436   0.289   5.503   3.866 -2.3151 -1.2821 -0.9411
 4165TIP3   OH212437   6.219   2.525   2.721  0.5471 -0.4500 -0.5611
 4165TIP3    H112438   6.127   2.549   2.723  0.6226 -0.1175  1.6501
 4165TIP3    H212439   6.220   2.430   2.729  0.4021 -0.5458 -1.5583
 4166TIP3   OH212440   2.714   5.472   0.385 -0.1833  0.4730 -0.8080
 4166TIP3    H112441   2.768   5.536   0.339 -1.0522  0.4902 -1.8654
 4166TIP3    H212442   2.642   5.523   0.423  0.0316  0.3353 -0.2031
 4167TIP3   OH212443   7.736   1.176   2.581 -0.1716  0.4828  0.2053
 4167TIP3    H112444   7.769   1.224   2.657 -0.8382  0.5367  0.4649
 4167TIP3    H212445   7.792   1.205   2.509 -1.5752  2.9739 -0.0000
 4168TIP3   OH212446   1.028   1.517   5.283  0.2830  0.2955  0.3208
 4168TIP3    H112447   0.988   1.523   5.369  2.8587  0.6117  1.5726
 4168TIP3    H212448   1.065   1.604   5.267  0.8458 -0.0915 -0.5749
 4169TIP3   OH212449   0.775   4.137   5.272 -0.4123  0.3898  0.0164
 4169TIP3    H112450   0.726   4.079   5.212 -0.2963  1.7422 -1.4501
 4169TIP3    H212451   0.865   4.134   5.239 -0.2727  0.8852  0.3524
 4170TIP3   OH212452   4.954   4.274   4.086 -0.1954  0.0336 -0.1819
 4170TIP3    H112453   5.048   4.268   4.066  0.1365 -1.5068  1.6649
 4170TIP3    H212454   4.920   4.187   4.068 -1.5438  0.8260 -1.7786
 4171TIP3   OH212455   5.144   1.128   1.940  0.2231  0.9948 -0.2389
 4171TIP3    H112456   5.155   1.193   1.870 -1.7485 -0.2035 -1.7977
 4171TIP3    H212457   5.231   1.091   1.952  1.1033  2.9545 -0.2774
 4172TIP3   OH212458   7.681   2.216   4.656  0.3528 -0.3432  0.1599
 4172TIP3    H112459   7.675   2.297   4.604 -0.2613 -0.6156 -0.2105
 4172TIP3    H212460   7.686   2.146   4.591 -0.7212 -0.7112  0.4414
 4173TIP3   OH212461   1.047   1.919   3.747  0.2098 -0.0350 -0.1939
 4173TIP3    H112462   1.118   1.860   3.720  0.3345 -1.0532  2.0884
 4173TIP3    H212463   0.971   1.889   3.697  1.0339  0.1107 -1.5883
 4174TIP3   OH212464   3.269   4.236   1.639  0.0071  0.3416 -0.1055
 4174TIP3    H112465   3.174   4.234   1.631 -0.0001 -2.3986 -0.2284
 4174TIP3    H212466   3.290   4.164   1.698  2.0408  0.5175 -0.5369
 4175TIP3   OH212467   7.394   5.199   6.275 -0.0032 -0.2400  0.0010
 4175TIP3    H112468   7.371   5.279   6.322  0.0573  0.1382 -0.5934
 4175TIP3    H212469   7.487   5.209   6.254  0.3051 -1.0178  0.9694
 4176TIP3   OH212470   8.015   4.373   6.619 -0.0574  0.4953 -0.5694
 4176TIP3    H112471   7.999   4.439   6.687  1.1401 -0.7400  0.9772
 4176TIP3    H212472   7.965   4.296   6.647  2.3599 -0.8604  0.3241
 4177TIP3   OH212473   7.812   4.620   5.012 -0.4029 -0.0788  0.4681
 4177TIP3    H112474   7.784   4.699   5.058 -0.7526 -0.0633  0.2335
 4177TIP3    H212475   7.901   4.604   5.043 -0.6062 -0.0262  1.0920
 4178TIP3   OH212476   5.042   3.089   2.130 -0.0610 -0.0534  0.1850
 4178TIP3    H112477   5.117   3.038   2.161  1.3336  1.4504 -0.6019
 4178TIP3    H212478   5.021   3.052   2.044 -0.5635 -0.7748  0.5990
 4179TIP3   OH212479   7.927   1.826   0.290  0.3456 -0.2828  0.0144
 4179TIP3    H112480   7.905   1.734   0.275 -0.5201 -0.2280  0.8629
 4179TIP3    H212481   7.982   1.850   0.215  0.3740 -1.4161 -0.3434
 4180TIP3   OH212482   0.335   4.583   3.708  0.7145  0.2752  0.8975
 4180TIP3    H112483   0.322   4.646   3.638 -2.4973 -1.0931  0.0787
 4180TIP3    H212484   0.378   4.509   3.666 -2.0983 -0.9558 -0.0422
 4181TIP3   OH212485   7.932   5.837   0.983 -0.1677 -0.1809 -0.2787
 4181TIP3    H112486   7.874   5.821   0.908  1.3309  0.8678 -1.7097
 4181TIP3    H212487   7.900   5.918   1.022 -0.0123  0.0861 -0.7100
 4182TIP3   OH212488   3.175   7.464   2.368 -0.5734  0.4033 -0.5582
 4182TIP3    H112489   3.148   7.381   2.407 -1.0080  0.4313 -0.7873
 4182TIP3    H212490   3.113   7.528   2.401  0.8213  0.9977  1.0407
 4183TIP3   OH212491   0.291   6.782   4.558 -0.0989  0.2935  0.1272
 4183TIP3    H112492   0.331   6.765   4.473 -0.8332  0.2957 -0.2203
 4183TIP3    H212493   0.299   6.699   4.605  0.9184  0.4865  0.3175
 4184TIP3   OH212494   1.169   4.950   4.864  0.0381  0.1765  0.4222
 4184TIP3    H112495   1.087   4.902   4.868  1.5923 -2.6312  0.8241
 4184TIP3    H212496   1.201   4.936   4.775  0.9459 -0.3227  0.8183
 4185TIP3   OH212497   0.482   3.475   0.037 -0.4389 -0.5068  0.5126
 4185TIP3    H112498   0.522   3.388   0.031 -0.2248 -0.3298 -0.7107
 4185TIP3    H212499   0.414   3.475  -0.030 -0.3721  0.3184  0.4408
 4186TIP3   OH212500   2.008   6.396   5.850 -0.0163  0.0219 -0.4265
 4186TIP3    H112501   1.941   6.435   5.794 -0.7082  1.2433  1.1591
 4186TIP3    H212502   1.990   6.302   5.846 -1.6367  0.2906 -0.3236
 4187TIP3   OH212503   4.233   7.626   5.776  0.4031  0.6064 -0.0400
 4187TIP3    H112504   4.179   7.693   5.817  0.9889  0.7081  0.5845
 4187TIP3    H212505   4.171   7.564   5.739 -0.1596  2.0548 -1.5990
 4188TIP3   OH212506   5.007   5.381   2.274 -0.0633 -0.0673 -0.4129
 4188TIP3    H112507   4.972   5.465   2.303 -1.3585 -0.1260 -1.6745
 4188TIP3    H212508   5.071   5.404   2.207  0.7617 -0.0422  0.3714
 4189TIP3   OH212509   3.508   1.052   3.588  0.0023 -0.1806 -0.3004
 4189TIP3    H112510   3.550   1.029   3.671  0.7040 -1.1548 -0.9006
 4189TIP3    H212511   3.423   1.088   3.613  1.8125  3.6662  1.1160
 4190TIP3   OH212512   3.339   7.283   2.208 -0.1690  0.2080  0.4813
 4190TIP3    H112513   3.276   7.225   2.251  0.4222  0.0545  1.1622
 4190TIP3    H212514   3.322   7.369   2.246 -2.0210  0.8355 -1.5694
 4191TIP3   OH212515   7.548   2.876   1.859 -0.3055  0.7562 -0.1448
 4191TIP3    H112516   7.529   2.966   1.887 -0.0688  0.5016  0.8894
 4191TIP3    H212517   7.632   2.856   1.900 -0.2971  0.1060 -0.4756
 4192TIP3   OH212518   4.017   4.481   0.374  0.1412  0.5488  0.5182
 4192TIP3    H112519   4.024   4.569   0.337 -1.4016  0.7017  0.5076
 4192TIP3    H212520   4.097   4.436   0.345  1.4648  2.2312  1.3967
 4193TIP3   OH212521   5.900   4.968   0.270 -0.1811  0.0726 -1.0961
 4193TIP3    H112522   5.923   5.061   0.268 -0.2687  0.1119 -0.4863
 4193TIP3    H212523   5.981   4.924   0.296 -0.8454  0.2588  1.5869
 4194TIP3   OH212524   8.163   5.979   6.277 -0.2145  0.8368  0.0953
 4194TIP3    H112525   8.087   6.028   6.246 -0.5201  0.5791  0.4333
 4194TIP3    H212526   8.217   6.045   6.322 -0.4926  0.9141  0.3147
 4195TIP3   OH212527   3.202   0.120   2.514 -0.3275  1.2347 -0.1020
 4195TIP3    H112528   3.192   0.129   2.609 -0.2310 -2.4435  0.4179
 4195TIP3    H212529   3.296   0.116   2.499 -0.3498  0.1892 -0.0716
 4196TIP3   OH212530   7.357   1.515   0.192 -0.2929 -0.0228  0.5606
 4196TIP3    H112531   7.421   1.461   0.238 -0.4813 -0.5960  0.1697
 4196TIP3    H212532   7.359   1.482   0.102 -0.9363  0.1355  0.4831
 4197TIP3   OH212533   6.936   4.063   0.029 -0.0348  0.3135 -0.7569
 4197TIP3    H112534   7.001   3.993   0.021  1.9507  2.1599 -1.7814
 4197TIP3    H212535   6.951   4.119  -0.047 -2.3070  1.2890 -0.5644
 4198TIP3   OH212536   7.967   6.684   5.169  0.2111  0.2273  0.2073
 4198TIP3    H112537   7.973   6.694   5.264 -0.8417 -0.8839  0.4235
 4198TIP3    H212538   7.921   6.600   5.157  1.7522 -0.4585 -1.2898
 4199TIP3   OH212539   1.898   1.487   4.587  0.5367 -0.3884 -0.5803
 4199TIP3    H112540   1.840   1.472   4.513 -0.6631  0.1582  0.2261
 4199TIP3    H212541   1.926   1.578   4.577 -1.0054  0.2565  0.5316
 4200TIP3   OH212542   3.381   6.792   0.753  0.6922  0.1919 -0.3857
 4200TIP3    H112543   3.357   6.822   0.840  2.6187  0.0130  0.2489
 4200TIP3    H212544   3.381   6.696   0.760  1.9195  0.1896 -0.2454
 4201TIP3   OH212545   6.597   2.013   6.446 -0.0822  0.1195  0.4781
 4201TIP3    H112546   6.547   2.057   6.514  0.2576  2.3737 -0.6318
 4201TIP3    H212547   6.653   2.081   6.409  3.6006 -2.1421  1.3433
 4202TIP3   OH212548   1.210   0.326   1.725 -0.1277 -0.2587 -0.0493
 4202TIP3    H112549   1.295   0.351   1.689  0.0355 -0.9017 -0.1281
 4202TIP3    H212550   1.169   0.274   1.656  0.8909 -2.9638  1.2469
 4203TIP3   OH212551   5.499   6.802   2.162  0.0204 -0.1405  0.1892
 4203TIP3    H112552   5.425   6.788   2.221 -0.2487 -0.8730 -0.3076
 4203TIP3    H212553   5.460   6.844   2.084  0.2401  0.0924  0.2038
 4204TIP3   OH212554   0.312   2.320   2.082 -0.1911  0.1837 -0.2807
 4204TIP3    H112555   0.259   2.240   2.076 -2.9038  1.9559 -2.1006
 4204TIP3    H212556   0.294   2.354   2.170  1.8710 -1.6313  0.9597
 4205TIP3   OH212557   2.446   1.785   6.568  0.3544  0.0550  0.1677
 4205TIP3    H112558   2.539   1.792   6.591  0.5232 -0.2416 -0.4027
 4205TIP3    H212559   2.410   1.722   6.631  0.0399  1.7696  1.7917
 4206TIP3   OH212560   6.984   4.961   5.897  0.2871  0.4265  0.1589
 4206TIP3    H112561   6.975   4.917   5.982  3.3456 -0.1536  0.3156
 4206TIP3    H212562   7.037   5.038   5.916  0.6524  0.5148 -1.1626
 4207TIP3   OH212563   0.966   4.015   1.075 -0.0506  0.0035  0.2018
 4207TIP3    H112564   0.926   3.965   1.146 -0.7333  0.8473  0.4210
 4207TIP3    H212565   0.923   4.100   1.077  0.3268  0.2419 -0.8644
 4208TIP3   OH212566   8.325   1.336   6.321 -0.2694 -0.4143  0.2217
 4208TIP3    H112567   8.283   1.392   6.385 -0.2583 -0.7892  0.5663
 4208TIP3    H212568   8.253   1.289   6.278 -0.3397  0.4881 -0.6757
 4209TIP3   OH212569   6.982   2.435   5.951 -0.1966 -0.1597  0.6035
 4209TIP3    H112570   6.943   2.411   5.867  3.2571 -1.7724 -0.7406
 4209TIP3    H212571   7.014   2.524   5.939  0.3046 -0.3932  0.1628
 4210TIP3   OH212572   6.538   4.850   2.658  0.4404  0.7109 -0.0262
 4210TIP3    H112573   6.444   4.850   2.642  0.8222 -0.1167 -3.0646
 4210TIP3    H212574   6.552   4.785   2.726 -1.1920  1.0840  0.7003
 4211TIP3   OH212575   2.987   7.620   0.879  0.2812 -0.5719  0.5327
 4211TIP3    H112576   3.046   7.548   0.901 -1.0536 -1.8560  0.1160
 4211TIP3    H212577   2.932   7.585   0.809 -1.4115  0.3116  1.3415
 4212TIP3   OH212578   4.239   0.253   5.059 -0.2855 -0.4150 -0.0769
 4212TIP3    H112579   4.304   0.284   5.122 -0.7879  2.3129 -0.7693
 4212TIP3    H212580   4.227   0.161   5.081  1.0209 -0.0790  2.5034
 4213TIP3   OH212581   0.545   1.290   0.250 -0.0001 -0.5720  0.0070
 4213TIP3    H112582   0.536   1.249   0.336  0.6582  1.1615  0.9571
 4213TIP3    H212583   0.639   1.292   0.234 -0.0065  0.5190  0.0038
 4214TIP3   OH212584   3.787   5.310   0.050  0.3028 -0.1159  0.5535
 4214TIP3    H112585   3.832   5.333  -0.031  1.3503 -0.8875  0.8916
 4214TIP3    H212586   3.842   5.346   0.119 -1.9070  2.8837  0.9604
 4215TIP3   OH212587   2.316   6.806   6.456 -0.3323 -0.2183 -0.3196
 4215TIP3    H112588   2.373   6.759   6.395 -0.2206 -0.8000  0.2210
 4215TIP3    H212589   2.299   6.743   6.526 -0.1085  0.5739  0.4674
 4216TIP3   OH212590   2.770   7.040   5.373 -0.3156 -0.3651  0.1699
 4216TIP3    H112591   2.762   7.134   5.357 -0.2546 -0.1089  1.5637
 4216TIP3    H212592   2.694   7.017   5.426  0.6192 -0.7285  1.3918
 4217TIP3   OH212593   7.394   3.447   5.398  0.7808 -0.0362 -0.5863
 4217TIP3    H112594   7.399   3.395   5.478  0.9147  1.4037  0.3774
 4217TIP3    H212595   7.311   3.422   5.358  0.8387 -0.9728 -0.1578
 4218TIP3   OH212596   6.838   6.165   3.913 -0.4670 -0.1287 -0.4631
 4218TIP3    H112597   6.788   6.114   3.849 -0.0894 -1.6945  0.4293
 4218TIP3    H212598   6.926   6.169   3.877  0.0351 -1.9840  0.3913
 4219TIP3   OH212599   6.012   1.424   0.114 -0.0848 -0.0201  0.0764
 4219TIP3    H112600   5.962   1.438   0.034 -1.9181 -1.4313  0.9154
 4219TIP3    H212601   6.057   1.340   0.101  0.0839  0.0305  0.3085
 4220TIP3   OH212602   6.388   5.464   0.171 -0.2638 -0.1738 -0.2970
 4220TIP3    H112603   6.303   5.477   0.213  0.6561 -0.6963  1.8742
 4220TIP3    H212604   6.385   5.374   0.138 -0.3921 -0.3699  0.2347
 4221TIP3   OH212605   4.964   7.241   6.005 -0.0297  0.2364 -0.1362
 4221TIP3    H112606   5.046   7.265   6.050 -0.0840  0.3232 -0.0829
 4221TIP3    H212607   4.962   7.297   5.928  0.2425 -0.1694 -0.4387
 4222TIP3   OH212608   5.583   0.550   6.192 -0.2095  0.5416 -0.1790
 4222TIP3    H112609   5.616   0.592   6.112  1.1401  2.1451  1.1268
 4222TIP3    H212610   5.656   0.557   6.253 -1.6420  0.5122  1.5941
 4223TIP3   OH212611   2.040   0.675   3.919  1.1194 -0.2190  0.2739
 4223TIP3    H112612   1.955   0.693   3.961 -0.7434  0.2655 -3.3537
 4223TIP3    H212613   2.085   0.618   3.982 -1.3257  0.5063  2.9305
 4224TIP3   OH212614   3.070   3.327   5.663 -0.5829 -0.1299  0.6263
 4224TIP3    H112615   3.145   3.341   5.720  0.6866  0.7244 -1.1920
 4224TIP3    H212616   3.060   3.231   5.659  1.7343 -0.3624 -0.7482
 4225TIP3   OH212617   7.315   3.908   2.047 -0.6424 -0.2551  0.2625
 4225TIP3    H112618   7.242   3.847   2.060  0.5503 -1.3117  2.9659
 4225TIP3    H212619   7.393   3.851   2.044  0.2336  0.9523 -0.4908
 4226TIP3   OH212620   4.409   7.587   0.731  0.3738  0.0027 -0.4650
 4226TIP3    H112621   4.318   7.582   0.701 -0.5792  2.6982  1.5015
 4226TIP3    H212622   4.453   7.641   0.666 -0.1710  0.8913 -0.1277
 4227TIP3   OH212623   3.707   3.932   4.900 -0.0399  0.4194  0.2702
 4227TIP3    H112624   3.685   3.951   4.991  2.0373 -1.4927  1.2637
 4227TIP3    H212625   3.637   3.873   4.871  1.0382 -1.7439  1.8155
 4228TIP3   OH212626   3.058   7.475   2.760 -0.4925  0.4798  0.0015
 4228TIP3    H112627   3.113   7.544   2.724  2.0034 -1.5065 -0.2456
 4228TIP3    H212628   3.058   7.407   2.693 -0.8047 -0.7837  1.2467
 4229TIP3   OH212629   3.974   0.682   2.107 -0.4362  0.2611  0.3164
 4229TIP3    H112630   3.964   0.597   2.150 -0.8009 -0.1089 -0.4812
 4229TIP3    H212631   3.885   0.710   2.090 -0.3013 -0.2106 -1.3553
 4230TIP3   OH212632   5.538   2.253   5.378 -0.0742  0.2373  0.4370
 4230TIP3    H112633   5.553   2.182   5.441 -0.4432 -0.5091 -0.3018
 4230TIP3    H212634   5.554   2.213   5.293 -0.7657  0.9154 -0.0215
 4231TIP3   OH212635   6.324   3.562   3.867  0.0878 -0.8975 -0.5023
 4231TIP3    H112636   6.404   3.611   3.882 -0.5003  0.3903 -1.4344
 4231TIP3    H212637   6.337   3.480   3.915  0.8906  0.3289  1.4945
 4232TIP3   OH212638   0.070   2.010   2.640 -0.2750  0.1583  0.5761
 4232TIP3    H112639  -0.001   2.073   2.626  0.0745  0.1785 -1.4624
 4232TIP3    H212640   0.046   1.936   2.585  1.5890  0.4433 -0.6892
 4233TIP3   OH212641   6.620   4.971   1.045 -0.4520 -0.1177 -0.0876
 4233TIP3    H112642   6.626   4.924   0.962 -1.5701  0.5813 -0.5935
 4233TIP3    H212643   6.678   5.046   1.034 -0.6543  0.0139 -0.2733
 4234TIP3   OH212644   1.303   0.496   5.911 -0.3222 -0.4083  0.0911
 4234TIP3    H112645   1.310   0.401   5.923  1.4089 -0.2725  0.4911
 4234TIP3    H212646   1.388   0.530   5.941  0.3332  0.9679 -2.9151
 4235TIP3   OH212647   6.090   3.137   4.403 -0.0518  0.1555 -0.2068
 4235TIP3    H112648   6.037   3.060   4.385  0.6258 -1.4632  3.8308
 4235TIP3    H212649   6.028   3.206   4.425 -0.7154 -1.2321  2.7339
 4236TIP3   OH212650   5.109   5.148   6.097 -0.1850  0.5516  0.2369
 4236TIP3    H112651   5.110   5.227   6.152  2.0404  0.7741 -0.0354
 4236TIP3    H212652   5.072   5.081   6.154 -2.2671  1.7643  0.4286
 4237TIP3   OH212653   6.876   3.044   4.003 -0.0673  0.5456 -0.0601
 4237TIP3    H112654   6.845   2.954   4.003  0.5484  0.3284  0.6225
 4237TIP3    H212655   6.970   3.037   4.019  0.4228  1.1636 -2.2510
 4238TIP3   OH212656   6.459   1.549   1.639 -0.0706  0.0663  0.0236
 4238TIP3    H112657   6.447   1.625   1.697  2.1217  0.8081 -0.4162
 4238TIP3    H212658   6.508   1.583   1.565  1.2664 -1.8476 -0.0284
 4239TIP3   OH212659   5.259   0.145   6.497  0.3070  0.3689 -0.9476
 4239TIP3    H112660   5.330   0.084   6.518  0.2350  1.0512  1.5515
 4239TIP3    H212661   5.213   0.104   6.424  1.5651 -1.4882 -0.7557
 4240TIP3   OH212662   2.102   5.464   6.648 -0.4708 -0.6197 -0.2987
 4240TIP3    H112663   2.050   5.541   6.670 -1.7330 -1.3133 -0.6792
 4240TIP3    H212664   2.190   5.483   6.680 -0.8431  0.8145 -0.0745
 4241TIP3   OH212665   2.454   1.466   1.594  0.8572  0.2182 -0.5297
 4241TIP3    H112666   2.477   1.491   1.684 -1.4581  0.9231 -0.0792
 4241TIP3    H212667   2.435   1.373   1.599 -2.9403  0.8858  0.6657
 4242TIP3   OH212668   5.457   3.070   2.604 -0.0922 -0.6971  0.0009
 4242TIP3    H112669   5.399   3.128   2.556  1.4482  0.7801 -0.1488
 4242TIP3    H212670   5.533   3.057   2.547  0.1273 -1.9304  0.5197
 4243TIP3   OH212671   3.650   6.750   6.400  0.0438 -0.4381 -0.0860
 4243TIP3    H112672   3.703   6.814   6.449  0.8868 -1.1818 -0.0008
 4243TIP3    H212673   3.581   6.802   6.360  1.4136  0.7243 -1.0248
 4244TIP3   OH212674   6.051   0.771   5.387  0.2501  0.4634  0.1577
 4244TIP3    H112675   6.009   0.761   5.473  1.4035  3.3304  1.1817
 4244TIP3    H212676   6.115   0.701   5.384  0.1272  0.2456  1.6243
 4245TIP3   OH212677   8.232   0.043   6.096 -0.2686 -0.6465 -0.3258
 4245TIP3    H112678   8.242   0.101   6.172 -0.9968 -0.2780 -0.4940
 4245TIP3    H212679   8.281   0.085   6.026 -3.0273  1.3326 -1.2541
 4246TIP3   OH212680   2.407   6.449   1.238 -0.1719  0.6088 -0.3634
 4246TIP3    H112681   2.335   6.511   1.244 -0.7359 -0.0319 -0.4717
 4246TIP3    H212682   2.424   6.422   1.329 -0.1691  0.6411 -0.3544
 4247TIP3   OH212683   6.622   0.866   2.489 -0.3416 -0.7134  0.1598
 4247TIP3    H112684   6.545   0.899   2.534  0.6758 -0.0803  1.5173
 4247TIP3    H212685   6.683   0.843   2.560  1.5991  0.9746 -0.8459
 4248TIP3   OH212686   5.233   2.530   0.498  0.4058  0.4227  0.2162
 4248TIP3    H112687   5.228   2.625   0.496  1.2868  0.4915  0.6680
 4248TIP3    H212688   5.153   2.500   0.455  0.2554  1.3653 -0.1667
 4249TIP3   OH212689   8.265   6.063   4.814  0.3770  0.7186 -0.4134
 4249TIP3    H112690   8.206   6.132   4.846  0.3095  0.9965 -1.1026
 4249TIP3    H212691   8.287   6.012   4.892  0.7565  1.7650  0.1863
 4250TIP3   OH212692   6.487   1.398   5.735  0.0052 -0.7573  0.0272
 4250TIP3    H112693   6.510   1.472   5.790 -3.9364  0.8561 -0.1860
 4250TIP3    H212694   6.467   1.327   5.796 -0.5369 -0.2273  0.4661
 4251TIP3   OH212695   2.519   4.581   6.503 -0.2855  0.2200  0.4379
 4251TIP3    H112696   2.514   4.666   6.547 -0.8752  0.4669 -0.0968
 4251TIP3    H212697   2.605   4.579   6.463 -0.8246  1.2246 -0.8390
 4252TIP3   OH212698   8.228   5.018   3.753 -0.1282  0.6227 -0.3878
 4252TIP3    H112699   8.160   5.085   3.748 -0.2158  0.6641  0.8714
 4252TIP3    H212700   8.294   5.045   3.689 -0.8761  1.0595 -0.9915
 4253TIP3   OH212701   4.132   2.918   2.310 -0.0164  0.2512  0.1216
 4253TIP3    H112702   4.097   2.951   2.392 -0.2573 -0.2983  0.2431
 4253TIP3    H212703   4.214   2.874   2.335  0.9514  1.7727 -0.1948
 4254TIP3   OH212704   0.299   0.043   3.460  0.1165 -0.6840 -0.5164
 4254TIP3    H112705   0.309   0.074   3.369  0.7911  0.8682  0.0471
 4254TIP3    H212706   0.345  -0.041   3.461  1.0842 -0.2020 -1.3680
 4255TIP3   OH212707   4.416   2.402   0.044  0.0654  0.1907  0.5829
 4255TIP3    H112708   4.441   2.365   0.129  1.7466 -0.9762 -0.3597
 4255TIP3    H212709   4.342   2.348   0.016 -0.2745  0.3557  1.1417
 4256TIP3   OH212710   2.109   2.604   2.066  0.1597 -0.0143 -0.5318
 4256TIP3    H112711   2.025   2.613   2.020  0.2090  0.2267 -0.5784
 4256TIP3    H212712   2.144   2.521   2.035 -0.9159 -1.0400  0.8825
 4257TIP3   OH212713   5.552   0.218   1.873 -0.4618  0.5865  0.1525
 4257TIP3    H112714   5.479   0.228   1.934 -0.8685 -2.4087  0.2585
 4257TIP3    H212715   5.564   0.124   1.864  0.3948  0.8992 -3.4636
 4258TIP3   OH212716   7.599   1.333   1.318 -0.2264  0.0732 -0.2797
 4258TIP3    H112717   7.504   1.336   1.330 -0.0403 -0.6316  1.6668
 4258TIP3    H212718   7.635   1.367   1.399  1.2491  3.1765 -2.0702
 4259TIP3   OH212719   5.129   5.012   4.180 -0.6371 -0.1279  0.2924
 4259TIP3    H112720   5.043   5.054   4.181 -0.7770 -0.2240 -2.3718
 4259TIP3    H212721   5.140   4.981   4.091  1.7465 -1.0628  0.8373
 4260TIP3   OH212722   2.409   0.709   1.684  0.0081 -0.2234  1.2269
 4260TIP3    H112723   2.423   0.711   1.779  0.1867 -0.7140  1.2121
 4260TIP3    H212724   2.343   0.642   1.671  2.2264 -2.4910  0.7482
 4261TIP3   OH212725   1.851   4.944   0.380  0.5081 -0.1223  0.4698
 4261TIP3    H112726   1.802   4.991   0.448 -0.2400  1.4213 -1.0862
 4261TIP3    H212727   1.834   4.851   0.400 -3.5582  0.2841 -0.2404
 4262TIP3   OH212728   0.560   6.649   0.397  0.0270  0.5075  0.0412
 4262TIP3    H112729   0.472   6.687   0.396 -0.4057 -0.4059 -1.8398
 4262TIP3    H212730   0.551   6.566   0.444 -0.1146  0.4474 -0.0916
 4263TIP3   OH212731   5.906   3.167   5.670  0.2332 -0.1186 -0.3659
 4263TIP3    H112732   5.924   3.140   5.580  1.5835 -1.1819  0.1791
 4263TIP3    H212733   5.827   3.119   5.694  0.4612 -0.6650 -0.6656
 4264TIP3   OH212734   3.480   2.508   0.859  0.2046  0.0827  0.1810
 4264TIP3    H112735   3.457   2.446   0.790  1.5611 -0.9951  0.6545
 4264TIP3    H212736   3.408   2.571   0.859 -0.8778 -1.0924 -0.7832
 4265TIP3   OH212737   1.178   3.338   1.510 -0.3481  0.5545 -0.8625
 4265TIP3    H112738   1.211   3.422   1.543  0.3471 -0.2234  0.5214
 4265TIP3    H212739   1.162   3.354   1.417  1.2176  1.8014 -0.9735
 4266TIP3   OH212740   2.043   3.546   3.092  0.6560  0.0215  0.1962
 4266TIP3    H112741   2.051   3.637   3.065  0.4351  0.1294  0.4815
 4266TIP3    H212742   2.129   3.508   3.077  0.0357 -0.4833 -2.6361
 4267TIP3   OH212743   5.479   3.205   6.098 -0.1083 -0.2214 -0.5915
 4267TIP3    H112744   5.407   3.144   6.081 -1.3044  1.1481 -0.6606
 4267TIP3    H212745   5.481   3.262   6.020  1.2480 -0.4043 -0.7164
 4268TIP3   OH212746   5.568   2.116   4.735 -0.1657 -0.7770 -0.3227
 4268TIP3    H112747   5.646   2.063   4.719 -0.4511 -0.9441 -1.2348
 4268TIP3    H212748   5.554   2.111   4.830  2.7071  1.8052  0.3770
 4269TIP3   OH212749   7.770   1.530   2.698 -0.3137 -0.5962  0.0590
 4269TIP3    H112750   7.748   1.457   2.755  0.6969 -1.8728 -1.1312
 4269TIP3    H212751   7.732   1.607   2.742 -0.7113 -1.7014  1.7344
 4270TIP3   OH212752   2.865   5.408   3.285  0.1285 -0.5800  0.2099
 4270TIP3    H112753   2.960   5.413   3.295  0.0626 -2.3055  2.3599
 4270TIP3    H212754   2.846   5.314   3.281 -1.6228 -0.3903  2.1988
 4271TIP3   OH212755   6.698   2.386   1.714  0.0807 -0.0219 -0.1317
 4271TIP3    H112756   6.762   2.341   1.659 -1.2243 -0.7220 -1.1631
 4271TIP3    H212757   6.677   2.324   1.783  1.3617  0.6725  0.9291
 4272TIP3   OH212758   4.481   5.788   1.552 -0.0165 -0.2379 -0.6172
 4272TIP3    H112759   4.386   5.796   1.551  0.0095  0.1530 -2.5948
 4272TIP3    H212760   4.505   5.805   1.643 -1.8062 -0.0432 -0.1471
 4273TIP3   OH212761   5.319   0.531   4.437 -0.1834  0.8359  0.0367
 4273TIP3    H112762   5.357   0.614   4.465  0.1864  0.8725 -0.5683
 4273TIP3    H212763   5.389   0.486   4.390  0.0195 -0.3648  1.4087
 4274TIP3   OH212764   6.542   3.538   5.574 -0.2694 -0.0942  0.1191
 4274TIP3    H112765   6.487   3.461   5.587 -0.1537  0.1750  2.7769
 4274TIP3    H212766   6.482   3.606   5.544 -0.6365 -0.8002 -0.7812
 4275TIP3   OH212767   4.623   4.141   1.681 -0.2435  0.2433 -0.1543
 4275TIP3    H112768   4.578   4.066   1.643  1.6314 -0.2937 -1.4992
 4275TIP3    H212769   4.595   4.215   1.628  1.0002 -0.2257 -1.5619
 4276TIP3   OH212770   6.463   0.774   0.034  0.5032 -0.1935  0.5773
 4276TIP3    H112771   6.404   0.829   0.086 -0.4403  0.4345 -1.0630
 4276TIP3    H212772   6.516   0.837  -0.016 -0.2596 -0.7213 -0.9651
 4277TIP3   OH212773   0.818   4.110   6.505 -0.0525 -0.0247  0.0025
 4277TIP3    H112774   0.777   4.159   6.434 -0.5834  0.6087  0.7363
 4277TIP3    H212775   0.894   4.068   6.464 -1.0729 -0.7437 -1.2411
 4278TIP3   OH212776   0.824   6.045   0.986  0.5625  0.1127  0.2554
 4278TIP3    H112777   0.878   6.115   1.022  2.2788  0.0266 -1.9088
 4278TIP3    H212778   0.736   6.082   0.982  0.4486  0.4292  3.4646
 4279TIP3   OH212779   2.002   5.528   5.387 -1.4592 -0.5872 -0.0716
 4279TIP3    H112780   2.009   5.621   5.366 -1.6027 -0.8103 -1.1470
 4279TIP3    H212781   1.989   5.526   5.482 -1.0867  0.4680  0.0149
 4280TIP3   OH212782   6.898   3.802   5.766 -0.2478 -0.3388  0.1210
 4280TIP3    H112783   6.868   3.755   5.688  0.2444  0.1048 -0.3460
 4280TIP3    H212784   6.879   3.894   5.747  1.3136 -0.0495 -0.1649
 4281TIP3   OH212785   7.706   3.449   2.009 -0.2295  0.1115  0.4768
 4281TIP3    H112786   7.660   3.531   2.027 -1.5524 -0.8443  1.6974
 4281TIP3    H212787   7.721   3.449   1.915  0.3704  2.0218  0.5363
 4282TIP3   OH212788   0.503   7.613   0.926 -0.6883  0.4610  0.6278
 4282TIP3    H112789   0.598   7.611   0.915 -0.5123  0.9812  1.9144
 4282TIP3    H212790   0.487   7.575   1.012 -1.8264 -1.4098 -0.3422
 4283TIP3   OH212791   6.316   2.842   5.855 -0.3892 -0.2796  0.1889
 4283TIP3    H112792   6.361   2.878   5.779 -0.4682 -0.0535  0.2495
 4283TIP3    H212793   6.288   2.918   5.906 -1.2158 -0.3997 -0.0691
 4284TIP3   OH212794   1.122   6.515   5.770  0.2731  0.5124  0.1352
 4284TIP3    H112795   1.213   6.528   5.744  0.0404 -0.0412 -1.0364
 4284TIP3    H212796   1.080   6.480   5.692 -1.2250  1.9059  0.2628
 4285TIP3   OH212797   6.943   0.221   6.043  0.2695 -1.4577  0.0044
 4285TIP3    H112798   7.017   0.205   5.984  0.5052 -0.0168 -0.1299
 4285TIP3    H212799   6.959   0.309   6.078 -2.3359 -0.2891 -1.4623
 4286TIP3   OH212800   6.169   3.313   2.226 -0.4172 -0.6343 -0.6258
 4286TIP3    H112801   6.076   3.328   2.210 -0.0440 -0.8371 -3.3418
 4286TIP3    H212802   6.214   3.367   2.161  1.3031 -2.2746 -0.8714
 4287TIP3   OH212803   2.192   6.744   5.463 -0.2222 -0.2288  0.1583
 4287TIP3    H112804   2.288   6.742   5.466 -0.2136 -2.2442 -0.0618
 4287TIP3    H212805   2.171   6.821   5.409  1.2629  0.2179  0.1728
 4288TIP3   OH212806   2.218   1.989   5.513  0.2728  0.1091  0.1154
 4288TIP3    H112807   2.126   2.004   5.491 -0.2762 -0.9667  1.4687
 4288TIP3    H212808   2.229   2.029   5.599  1.2565  0.7691 -0.2990
 4289TIP3   OH212809   1.161   3.594   3.863  0.1197 -0.2403  0.0469
 4289TIP3    H112810   1.076   3.638   3.864  0.4798  0.4709  0.0281
 4289TIP3    H212811   1.155   3.534   3.789 -0.1032  0.3461 -0.4274
 4290TIP3   OH212812   5.190   1.392   1.808  0.5631 -0.4420  0.9162
 4290TIP3    H112813   5.237   1.476   1.801 -0.2268 -0.0783 -0.6283
 4290TIP3    H212814   5.241   1.332   1.754 -0.8082  0.0403 -1.0529
 4291TIP3   OH212815   0.360   1.548   1.160 -0.5442  0.5391 -0.0388
 4291TIP3    H112816   0.338   1.548   1.253  0.6776  1.1135  0.2811
 4291TIP3    H212817   0.451   1.578   1.157 -0.5908  0.6289 -1.4317
 4292TIP3   OH212818   1.896   1.809   6.587  0.1183 -0.2510  0.1330
 4292TIP3    H112819   1.912   1.798   6.681  1.0510 -2.5157 -0.2313
 4292TIP3    H212820   1.879   1.720   6.555  0.9550  0.3151 -2.0426
 4293TIP3   OH212821   4.340   3.121   6.695 -0.1769 -0.7112  0.1907
 4293TIP3    H112822   4.309   3.047   6.644  0.6209 -0.7971 -0.1871
 4293TIP3    H212823   4.277   3.130   6.766  0.1444 -2.2615  0.7122
 4294TIP3   OH212824   2.557   0.087   2.557 -0.1450  0.4676  0.0088
 4294TIP3    H112825   2.556   0.164   2.500  2.5876  1.4217  1.0774
 4294TIP3    H212826   2.645   0.051   2.547  0.7357  1.0622  3.9684
 4295TIP3   OH212827   2.654   4.319   3.964  0.3262  0.0149 -0.5284
 4295TIP3    H112828   2.561   4.324   3.943  0.9700  0.4848 -3.8697
 4295TIP3    H212829   2.674   4.402   4.007 -0.8262 -0.2988  0.6952
 4296TIP3   OH212830   0.186   0.812   1.187 -0.1577 -0.0677  0.0837
 4296TIP3    H112831   0.093   0.804   1.210 -0.5088 -1.2060 -1.5455
 4296TIP3    H212832   0.232   0.768   1.259 -0.7973  1.0295  1.2085
 4297TIP3   OH212833   1.784   2.260   3.434 -0.1868  0.2503  0.0763
 4297TIP3    H112834   1.860   2.211   3.401 -0.5263  1.2347 -2.3894
 4297TIP3    H212835   1.819   2.347   3.455 -0.0897 -0.1986  1.9479
 4298TIP3   OH212836   5.736   7.628   1.426  0.2519  0.4432  0.8009
 4298TIP3    H112837   5.763   7.667   1.343 -1.2800 -0.4278 -0.1535
 4298TIP3    H212838   5.778   7.542   1.427 -0.6187 -0.0059  0.3617
 4299TIP3   OH212839   3.551   7.115   2.753  0.1530 -0.3631  0.0368
 4299TIP3    H112840   3.537   7.080   2.840 -1.2510  0.5605  0.2049
 4299TIP3    H212841   3.570   7.208   2.766  1.7545 -0.5634 -0.5443
 4300TIP3   OH212842   0.609   0.254   0.790 -0.0040  0.1184  0.1297
 4300TIP3    H112843   0.558   0.333   0.773 -1.7461 -1.1683 -1.1353
 4300TIP3    H212844   0.655   0.238   0.708 -1.5185 -1.3707 -0.5090
 4301TIP3   OH212845   5.020   5.893   0.079  0.2800 -0.2839  0.6782
 4301TIP3    H112846   4.999   5.901   0.172  0.7054  2.5083  0.6177
 4301TIP3    H212847   5.060   5.977   0.056  0.7471 -1.1221 -1.8986
 4302TIP3   OH212848   5.843   3.499   6.662  0.3909 -0.3765 -0.0365
 4302TIP3    H112849   5.837   3.412   6.624 -1.2064 -0.4668  0.3277
 4302TIP3    H212850   5.859   3.557   6.588 -2.3164 -0.5832 -0.9036
 4303TIP3   OH212851   7.209   5.516   1.693 -0.4807  0.5707  0.3166
 4303TIP3    H112852   7.251   5.576   1.754 -0.4791  0.5166  0.3688
 4303TIP3    H212853   7.116   5.517   1.718 -0.6615  1.3476 -0.3414
 4304TIP3   OH212854   5.750   5.736   3.794  0.1216 -0.1092 -0.2776
 4304TIP3    H112855   5.773   5.661   3.849  0.3008  1.8020  2.4661
 4304TIP3    H212856   5.832   5.758   3.749  0.6334 -0.3141  0.5209
 4305TIP3   OH212857   5.431   1.014   6.488 -0.3782 -0.2023 -0.5643
 4305TIP3    H112858   5.393   0.929   6.468  0.0017 -0.3475 -0.6637
 4305TIP3    H212859   5.522   0.996   6.509  0.0543  0.3333 -1.8765
 4306TIP3   OH212860   1.725   4.905   2.554 -0.2322 -0.4678  0.2784
 4306TIP3    H112861   1.796   4.943   2.605 -0.9317  1.4508 -0.0948
 4306TIP3    H212862   1.766   4.834   2.505  1.1897 -0.0753  0.8572
 4307TIP3   OH212863   8.046   2.084   0.163 -0.2741 -0.3434  0.4605
 4307TIP3    H112864   7.999   2.075   0.080 -2.7050  0.3093  1.6589
 4307TIP3    H212865   8.126   2.132   0.141  0.4502 -2.4450 -1.8709
 4308TIP3   OH212866   1.995   1.232   6.228  0.0775  0.0270 -0.1730
 4308TIP3    H112867   2.035   1.174   6.164 -2.7380 -3.3007  0.7659
 4308TIP3    H212868   1.916   1.265   6.186 -1.1642 -1.2392  1.0233
 4309TIP3   OH212869   0.162   7.540   5.228 -0.2764  0.7984 -0.4477
 4309TIP3    H112870   0.235   7.594   5.200  0.1011  0.9874  0.8321
 4309TIP3    H212871   0.155   7.556   5.322 -0.4903 -0.9599 -0.1304
 4310TIP3   OH212872   1.427   3.578   3.444 -0.9197  0.9038 -0.4079
 4310TIP3    H112873   1.430   3.494   3.490 -0.6045  1.5023  0.6765
 4310TIP3    H212874   1.422   3.644   3.513  1.1341  1.9232 -1.1615
 4311TIP3   OH212875   5.290   7.130   1.796 -0.3986  0.5528  0.2829
 4311TIP3    H112876   5.292   7.187   1.873 -1.0799 -0.8750  1.4199
 4311TIP3    H212877   5.199   7.133   1.767  0.1366  2.1467 -1.3392
 4312TIP3   OH212878   4.598   1.946   3.337 -1.1217 -0.5407  0.4489
 4312TIP3    H112879   4.565   1.934   3.248 -1.0360 -0.6115  0.4263
 4312TIP3    H212880   4.630   1.860   3.363 -1.8370 -0.6919  0.8352
 4313TIP3   OH212881   3.002   5.413   1.976  0.0040 -0.0185  0.5597
 4313TIP3    H112882   2.926   5.461   1.943  0.1533  0.8240  1.4110
 4313TIP3    H212883   2.964   5.340   2.026 -0.2519  0.3144  0.8606
 4314TIP3   OH212884   3.006   6.903   3.426 -0.1875  0.4756  0.5195
 4314TIP3    H112885   2.948   6.844   3.474 -0.7013  0.1871 -0.4236
 4314TIP3    H212886   2.975   6.991   3.448 -1.2646  0.3107 -0.3140
 4315TIP3   OH212887   5.260   5.487   3.078  0.3643 -0.7907  0.5246
 4315TIP3    H112888   5.293   5.540   3.151  1.0049 -0.0717 -0.2533
 4315TIP3    H212889   5.182   5.444   3.112 -0.3373  0.8746  1.1283
 4316TIP3   OH212890   2.291   7.087   3.187  0.2416  0.3187  0.2825
 4316TIP3    H112891   2.292   7.052   3.276 -1.2723  0.1498  0.2492
 4316TIP3    H212892   2.346   7.165   3.191 -0.4312  0.7418  1.5354
 4317TIP3   OH212893   3.286   3.103   1.430 -0.3566  0.3072 -0.0958
 4317TIP3    H112894   3.244   3.049   1.497  0.7074  0.1955  0.5113
 4317TIP3    H212895   3.336   3.040   1.377  0.3406  0.6075  0.1940
 4318TIP3   OH212896   7.699   2.403   3.551  0.1465  0.0076 -0.1748
 4318TIP3    H112897   7.645   2.376   3.477 -1.0951 -0.2533  0.7936
 4318TIP3    H212898   7.660   2.484   3.582  0.7161  0.1683  0.1424
 4319TIP3   OH212899   2.843   5.079   4.372  0.4307  0.2059 -0.1861
 4319TIP3    H112900   2.774   5.042   4.426 -0.8294  0.4275 -1.5818
 4319TIP3    H212901   2.827   5.173   4.373  0.8991  0.2882 -0.2793
 4320TIP3   OH212902   6.105   5.527   5.185 -0.2597 -0.0641 -0.1989
 4320TIP3    H112903   6.059   5.447   5.211 -0.1012  0.0372  0.3887
 4320TIP3    H212904   6.043   5.572   5.128 -1.4466  0.7186  1.6269
 4321TIP3   OH212905   1.221   6.051   4.397  0.1961  0.0298  0.6152
 4321TIP3    H112906   1.284   6.089   4.335 -0.7032  0.9881  0.2545
 4321TIP3    H212907   1.269   5.980   4.439  0.7879 -0.8233 -1.3545
 4322TIP3   OH212908   1.628   5.636   6.730 -0.8819 -0.2723  0.5666
 4322TIP3    H112909   1.646   5.584   6.652 -0.6123  0.8616 -0.1568
 4322TIP3    H212910   1.535   5.659   6.723 -0.0353  3.1127 -1.5654
 4323TIP3   OH212911   6.282   1.022   0.358 -0.3130 -0.2320 -0.6905
 4323TIP3    H112912   6.224   1.004   0.284  0.3809 -0.1337 -1.2677
 4323TIP3    H212913   6.354   0.960   0.348 -0.3791 -0.4431  0.0969
 4324TIP3   OH212914   4.565   3.164   4.735 -0.3392  0.4810 -0.0669
 4324TIP3    H112915   4.481   3.159   4.780 -0.8641 -2.9563 -1.0995
 4324TIP3    H212916   4.630   3.147   4.804 -0.7059  0.4866  0.2832
 4325TIP3   OH212917   2.535   6.119   3.335  0.0455  0.1455  0.2684
 4325TIP3    H112918   2.540   6.026   3.312 -1.4263  0.0425  0.2755
 4325TIP3    H212919   2.446   6.131   3.368  0.0934  1.6370 -0.0752
 4326TIP3   OH212920   4.264   0.223   2.968  0.0079  0.1788  0.2548
 4326TIP3    H112921   4.346   0.270   2.954  0.7224 -1.7902 -3.3590
 4326TIP3    H212922   4.290   0.144   3.017  0.4658 -0.7556 -1.4327
 4327TIP3   OH212923   6.293   6.158   5.591  0.3811 -0.1190  0.5271
 4327TIP3    H112924   6.351   6.116   5.527 -0.2145 -1.2746  0.7256
 4327TIP3    H212925   6.353   6.196   5.655  0.9666  0.5327 -0.3684
 4328TIP3   OH212926   6.851   2.648   4.640 -0.2682  0.3292 -0.8417
 4328TIP3    H112927   6.855   2.662   4.545  1.7892 -0.4903 -0.9193
 4328TIP3    H212928   6.942   2.639   4.667 -0.8245  0.3594  1.2070
 4329TIP3   OH212929   4.039   3.793   1.351 -0.0319 -0.0712  0.5369
 4329TIP3    H112930   4.055   3.704   1.319 -1.3965  0.1564 -0.9201
 4329TIP3    H212931   3.989   3.780   1.432  0.9837 -0.6134  1.1110
 4330TIP3   OH212932   6.945   2.232   1.233 -0.4358  0.2544 -0.1531
 4330TIP3    H112933   6.909   2.186   1.309  3.0323 -0.6421  1.1275
 4330TIP3    H212934   7.007   2.170   1.194  0.1882  1.8331 -1.8293
 4331TIP3   OH212935   4.527   5.223   6.418  0.2059 -0.2694 -0.2960
 4331TIP3    H112936   4.438   5.248   6.443  0.1463 -0.8214  0.0562
 4331TIP3    H212937   4.576   5.223   6.501  0.3249 -0.8136 -0.3649
 4332TIP3   OH212938   0.795   4.177   0.692  0.0776 -0.3088 -0.3441
 4332TIP3    H112939   0.775   4.212   0.606  3.0105 -1.5182 -1.6492
 4332TIP3    H212940   0.879   4.217   0.715 -1.0873  0.7933  2.5119
 4333TIP3   OH212941   0.344   5.487   3.493 -0.3849 -0.8329  0.2104
 4333TIP3    H112942   0.395   5.550   3.442 -1.0145 -0.8124 -0.4024
 4333TIP3    H212943   0.339   5.410   3.437 -2.5141 -0.2353 -0.5246
 4334TIP3   OH212944   2.846   5.144   2.042 -0.2495  0.5156  0.3644
 4334TIP3    H112945   2.910   5.107   1.981  1.0496  1.1663  1.2661
 4334TIP3    H212946   2.794   5.070   2.070 -0.4384  0.0980 -1.0154
 4335TIP3   OH212947   3.495   1.513   5.068 -0.6294  0.5473  0.1391
 4335TIP3    H112948   3.442   1.587   5.098 -2.9194 -0.2144 -1.7185
 4335TIP3    H212949   3.514   1.533   4.977  0.0909 -0.4283  0.0648
 4336TIP3   OH212950   1.849   5.215   5.114 -0.4235 -0.1459 -0.7102
 4336TIP3    H112951   1.852   5.158   5.037 -0.5237  0.0564 -0.8632
 4336TIP3    H212952   1.852   5.154   5.188  1.9285 -0.2871 -0.8195
 4337TIP3   OH212953   5.685   2.440   2.832 -0.4256  0.2382 -0.2085
 4337TIP3    H112954   5.598   2.478   2.840 -0.7632 -0.3028 -1.1465
 4337TIP3    H212955   5.677   2.353   2.872 -0.4842 -0.0426 -0.8158
 4338TIP3   OH212956   0.254   6.375   4.455  0.0361 -0.2295  0.4902
 4338TIP3    H112957   0.188   6.406   4.517 -0.3148 -0.1304  0.0645
 4338TIP3    H212958   0.269   6.283   4.480 -1.0888 -0.5898 -0.1291
 4339TIP3   OH212959   1.423   6.571   1.770 -0.1814  0.5700  0.0305
 4339TIP3    H112960   1.493   6.508   1.783 -1.6399 -1.1314 -0.0737
 4339TIP3    H212961   1.408   6.572   1.675 -0.3546  0.8654  0.0583
 4340TIP3   OH212962   1.973   0.369   1.528 -0.1514  0.1907 -0.3801
 4340TIP3    H112963   1.971   0.318   1.609 -1.2187 -0.1979 -0.6229
 4340TIP3    H212964   2.028   0.318   1.469  0.8273  0.5961  0.1611
 4341TIP3   OH212965   4.849   3.200   2.359  0.1064  0.2763 -0.4448
 4341TIP3    H112966   4.933   3.227   2.324  0.4691 -0.9660 -0.5837
 4341TIP3    H212967   4.870   3.127   2.417 -0.6224  1.4351  1.3662
 4342TIP3   OH212968   0.658   6.469   3.905 -0.0828 -0.5950 -0.0465
 4342TIP3    H112969   0.698   6.476   3.991 -0.7253 -1.1744  0.3036
 4342TIP3    H212970   0.732   6.471   3.844  0.3523  0.2184  0.4822
 4343TIP3   OH212971   4.361   2.543   3.232  0.8025  0.2582  0.0788
 4343TIP3    H112972   4.333   2.452   3.244 -2.3746  1.0292 -0.6361
 4343TIP3    H212973   4.363   2.579   3.320 -2.1713  0.5238  0.1318
 4344TIP3   OH212974   1.537   3.488   4.745 -0.0355  0.3144 -0.8261
 4344TIP3    H112975   1.458   3.532   4.774  0.5233  1.8090 -1.4769
 4344TIP3    H212976   1.608   3.547   4.769  0.8580 -0.7566 -0.7239
 4345TIP3   OH212977   2.906   5.937   5.671 -0.1855 -0.1140  0.3408
 4345TIP3    H112978   2.843   5.934   5.599  1.9871  2.8318 -1.9711
 4345TIP3    H212979   2.985   5.894   5.637  1.1954  2.1383  0.4549
 4346TIP3   OH212980   6.828   6.114   5.069 -0.3412  0.4291  0.0689
 4346TIP3    H112981   6.921   6.133   5.051  0.2732 -0.6055  1.8962
 4346TIP3    H212982   6.801   6.058   4.997  0.8425 -0.3331  0.1922
 4347TIP3   OH212983   7.028   7.660   2.051 -0.5250  0.0668 -0.2553
 4347TIP3    H112984   7.108   7.644   2.100 -1.6237 -1.1632  1.2494
 4347TIP3    H212985   7.019   7.755   2.049  1.6135  0.2898 -1.6113
 4348TIP3   OH212986   6.554   4.675   3.097 -0.0528  0.1321  0.0703
 4348TIP3    H112987   6.637   4.701   3.138  0.3116  2.3346 -1.8500
 4348TIP3    H212988   6.488   4.726   3.144 -0.1768 -0.6518  0.7570
 4349TIP3   OH212989   3.234   5.533   5.819 -0.0825  0.0191  0.0961
 4349TIP3    H112990   3.151   5.486   5.812  0.1709 -0.8171  2.0300
 4349TIP3    H212991   3.272   5.528   5.732 -1.3635 -0.9022 -0.4430
 4350TIP3   OH212992   7.601   0.205   1.468 -0.3308  0.0445 -0.4339
 4350TIP3    H112993   7.637   0.126   1.427  1.1962  0.7724 -0.5858
 4350TIP3    H212994   7.538   0.238   1.404 -1.1508 -1.1559 -0.2694
 4351TIP3   OH212995   5.812   2.323   0.231 -0.9708  0.0681 -0.2058
 4351TIP3    H112996   5.828   2.261   0.303 -0.1262  0.7409  0.1927
 4351TIP3    H212997   5.717   2.317   0.217 -0.9117 -1.3488 -0.2115
 4352TIP3   OH212998   6.893   1.318   1.871 -0.4437 -0.4125 -0.5058
 4352TIP3    H112999   6.925   1.238   1.912 -0.7214 -0.5343 -0.5258
 4352TIP3    H213000   6.920   1.388   1.930 -1.4983 -0.6481  0.2774
 4353TIP3   OH213001   0.231   4.736   1.408  0.1040  0.6383  0.3996
 4353TIP3    H113002   0.169   4.769   1.342 -0.1843  1.6418  1.1460
 4353TIP3    H213003   0.252   4.648   1.379 -0.2545  0.9506 -0.8766
 4354TIP3   OH213004   0.635   7.401   3.685  0.5789  0.3427 -0.1045
 4354TIP3    H113005   0.701   7.372   3.623 -0.7910 -1.6545 -0.7184
 4354TIP3    H213006   0.683   7.414   3.767  1.7793 -0.7182 -0.6118
 4355TIP3   OH213007   4.584   5.937   4.182  0.4001  0.1843 -0.1106
 4355TIP3    H113008   4.640   5.954   4.107 -2.1027  1.5736 -1.7881
 4355TIP3    H213009   4.496   5.927   4.145 -0.4574 -2.7894  2.2800
 4356TIP3   OH213010   6.136   1.649   4.787  0.2698  0.4994  0.2126
 4356TIP3    H113011   6.131   1.730   4.737  0.7564 -0.2622 -1.1184
 4356TIP3    H213012   6.047   1.614   4.784  0.5523 -0.1543 -1.2181
 4357TIP3   OH213013   2.840   3.509   2.832 -0.0833 -0.2193 -0.2983
 4357TIP3    H113014   2.899   3.530   2.759  0.6260 -0.0900  0.3029
 4357TIP3    H213015   2.860   3.419   2.854 -0.4492 -0.3255 -0.3965
 4358TIP3   OH213016   5.400   1.514   6.404  0.2484  0.9665  0.2801
 4358TIP3    H113017   5.421   1.420   6.409  0.6940  1.0216 -0.3934
 4358TIP3    H213018   5.352   1.532   6.484 -1.7859 -0.3195 -0.5747
 4359TIP3   OH213019   3.708   7.083   0.983 -0.3192  0.3372  0.3476
 4359TIP3    H113020   3.697   7.163   1.035 -1.8253  0.7643 -0.5910
 4359TIP3    H213021   3.620   7.045   0.978  0.2963 -1.2045  0.4460
 4360TIP3   OH213022   4.816   2.929   2.744  0.0617  0.6420 -0.7020
 4360TIP3    H113023   4.765   2.913   2.823 -2.0724 -0.7717 -2.2495
 4360TIP3    H213024   4.777   3.006   2.704 -0.3520  0.0607 -1.4584
 4361TIP3   OH213025   1.076   6.106   2.309  0.3857 -0.2433  0.0331
 4361TIP3    H113026   1.089   6.186   2.361  0.4806 -1.2639  1.6719
 4361TIP3    H213027   1.073   6.036   2.375  0.0105 -1.5545 -1.3389
 4362TIP3   OH213028   3.651   5.899   5.846  0.4209  0.3070 -0.0993
 4362TIP3    H113029   3.709   5.863   5.779 -0.5013  1.0006 -1.3184
 4362TIP3    H213030   3.635   5.826   5.906  1.3009 -0.3222 -0.6141
 4363TIP3   OH213031   7.228   2.285   0.061  0.6770 -0.0666 -0.2914
 4363TIP3    H113032   7.201   2.222  -0.006 -0.6489  0.3863 -0.2118
 4363TIP3    H213033   7.252   2.231   0.136  0.8372 -0.5282 -0.6678
 4364TIP3   OH213034   1.745   3.659   4.877  0.1291 -0.1082 -0.2892
 4364TIP3    H113035   1.785   3.605   4.945  1.0017  0.3293 -0.4318
 4364TIP3    H213036   1.812   3.666   4.809 -0.2040  0.6096 -0.5627
 4365TIP3   OH213037   0.694   0.550   6.626  0.3961 -0.1531  0.0078
 4365TIP3    H113038   0.600   0.543   6.612  0.6479 -0.1641 -2.0634
 4365TIP3    H213039   0.705   0.628   6.679 -0.6955  0.9362 -1.3018
 4366TIP3   OH213040   7.269   5.262   0.217  0.4089  0.0874 -0.1514
 4366TIP3    H113041   7.356   5.261   0.256  0.1384  0.9448  0.5022
 4366TIP3    H213042   7.226   5.184   0.250  0.3294  0.5796  0.9587
 4367TIP3   OH213043   5.124   3.884   6.355 -0.9858  0.0610 -0.5066
 4367TIP3    H113044   5.107   3.821   6.285 -0.6146  1.2359 -1.6932
 4367TIP3    H213045   5.214   3.865   6.382 -0.4202  0.8911 -1.7501
 4368TIP3   OH213046   7.746   4.065   4.644  0.1287  0.2262  0.2866
 4368TIP3    H113047   7.702   4.050   4.560  0.1452 -0.3677  0.3767
 4368TIP3    H213048   7.697   4.136   4.685 -0.4730 -0.1273  0.1912
 4369TIP3   OH213049   5.096   2.859   1.067 -0.0262 -0.2072  0.4704
 4369TIP3    H113050   5.125   2.777   1.108  1.2265  0.1307  0.3253
 4369TIP3    H213051   5.123   2.927   1.129  0.5119  0.2019 -0.1944
 4370TIP3   OH213052   7.140   2.481   5.299  0.0558 -0.5060 -0.4318
 4370TIP3    H113053   7.226   2.449   5.327  0.1134 -1.0264 -1.1643
 4370TIP3    H213054   7.116   2.546   5.365  1.3621  0.2197 -0.6373
 4371TIP3   OH213055   5.913   2.913   2.431  0.3267  0.3632  0.4679
 4371TIP3    H113056   5.891   2.876   2.345 -0.3863 -2.4451  1.7380
 4371TIP3    H213057   5.980   2.853   2.466  1.0885  1.8275  1.6417
 4372TIP3   OH213058   4.280   4.043   5.657  1.1271  0.0590  0.2100
 4372TIP3    H113059   4.191   4.008   5.653  1.5965 -1.2243  0.6014
 4372TIP3    H213060   4.272   4.133   5.624 -0.5977  0.5408  1.7724
 4373TIP3   OH213061   2.081   4.370   2.519  0.0268  0.1685  0.5679
 4373TIP3    H113062   2.027   4.413   2.453 -1.0533 -0.2833  1.1155
 4373TIP3    H213063   2.032   4.290   2.541  1.9474 -1.3515 -0.4058
 4374TIP3   OH213064   0.292   1.678   2.710  0.4246 -0.5071 -0.1494
 4374TIP3    H113065   0.274   1.585   2.700  0.5154 -0.4420 -0.9190
 4374TIP3    H213066   0.385   1.687   2.686  0.9013 -0.4801  1.5542
 4375TIP3   OH213067   5.514   1.321   6.034  0.6213  0.0253  0.1713
 4375TIP3    H113068   5.505   1.249   6.097 -0.8254  0.7537  0.8314
 4375TIP3    H213069   5.448   1.303   5.968  2.0605 -0.6733 -1.1411
 4376TIP3   OH213070   3.165   0.060   4.776  0.3194 -0.6226  0.0600
 4376TIP3    H113071   3.093  -0.002   4.764  0.3649 -0.6443 -0.1043
 4376TIP3    H213072   3.219   0.050   4.697 -0.9467  1.3232 -1.1591
 4377TIP3   OH213073   2.876   2.315   3.934  0.5396 -0.1975 -0.3776
 4377TIP3    H113074   2.789   2.282   3.910  1.1307 -0.2812 -2.6493
 4377TIP3    H213075   2.860   2.400   3.975 -0.5282  1.5597 -4.0747
 4378TIP3   OH213076   2.111   6.741   3.278  0.3208 -0.2059  0.3485
 4378TIP3    H113077   2.028   6.788   3.284  0.7282  0.6720 -0.5365
 4378TIP3    H213078   2.087   6.648   3.277 -0.5053 -0.0679  2.1311
 4379TIP3   OH213079   3.961   5.845   1.026  0.2555  0.1908 -0.9005
 4379TIP3    H113080   3.955   5.931   1.068  1.5485 -0.5114  0.7840
 4379TIP3    H213081   3.991   5.786   1.094  0.5277 -1.4050 -2.3304
 4380TIP3   OH213082   2.609   2.732   6.270  0.0348  0.3517 -0.2280
 4380TIP3    H113083   2.596   2.638   6.262 -4.6071  0.7963 -0.4114
 4380TIP3    H213084   2.631   2.761   6.182  0.8422 -0.4608 -0.3068
 4381TIP3   OH213085   3.824   1.250   2.868 -0.2392  0.1494  0.5160
 4381TIP3    H113086   3.859   1.339   2.870 -1.8481  0.8250  0.1695
 4381TIP3    H213087   3.755   1.253   2.802  0.1122 -1.5429  0.0117
 4382TIP3   OH213088   4.329   4.872   4.040  0.6112 -0.4849 -0.1551
 4382TIP3    H113089   4.292   4.878   4.128 -1.0245  0.9825 -0.9107
 4382TIP3    H213090   4.390   4.946   4.034  1.5169 -1.1857  0.0602
 4383TIP3   OH213091   0.169   6.745   1.073  0.3620 -0.0738  0.1992
 4383TIP3    H113092   0.075   6.735   1.088  0.4072 -0.2479  0.3727
 4383TIP3    H213093   0.194   6.668   1.023  0.3935  0.0248  0.0624
 4384TIP3   OH213094   8.234   2.045   4.295 -0.0380 -0.2727 -0.9051
 4384TIP3    H113095   8.271   2.017   4.212  0.6913  0.7320 -0.9448
 4384TIP3    H213096   8.170   2.113   4.271 -0.0307 -0.1784 -0.6598
 4385TIP3   OH213097   7.490   3.374   6.466  0.0044 -0.2781  0.9606
 4385TIP3    H113098   7.471   3.466   6.444 -1.0670 -0.3163  1.6558
 4385TIP3    H213099   7.584   3.364   6.448 -0.3326  0.2713 -1.4633
 4386TIP3   OH213100   3.065   2.288   3.743  0.1682 -0.1347  0.6332
 4386TIP3    H113101   3.140   2.317   3.796  0.0922  1.5139 -0.1065
 4386TIP3    H213102   2.999   2.263   3.808  0.4553  0.8455  1.3350
 4387TIP3   OH213103   3.156   0.012   5.789 -0.1833 -0.0218 -0.1733
 4387TIP3    H113104   3.245   0.033   5.819  0.5542 -1.8403 -0.9216
 4387TIP3    H213105   3.165   0.002   5.694 -1.3045  0.2168 -0.3176
 4388TIP3   OH213106   1.760   0.132   5.691 -0.1091  0.3598  0.9115
 4388TIP3    H113107   1.764   0.079   5.771  0.6657  0.3654  0.8862
 4388TIP3    H213108   1.690   0.092   5.639 -0.8162  0.5397  1.7206
 4389TIP3   OH213109   3.676   4.773   2.176  0.2961  0.2137  0.2252
 4389TIP3    H113110   3.661   4.729   2.093  1.9125 -0.7366  0.3943
 4389TIP3    H213111   3.589   4.802   2.204 -0.5098 -0.9386 -0.9692
 4390TIP3   OH213112   0.721   3.989   5.032  0.3586  0.1035  0.3086
 4390TIP3    H113113   0.675   4.011   4.951 -0.6749 -1.6974  0.3603
 4390TIP3    H213114   0.764   3.905   5.013  1.6557  0.5769  1.0503
 4391TIP3   OH213115   2.563   5.850   3.254  0.1431  0.5817  0.4300
 4391TIP3    H113116   2.630   5.785   3.275  0.1844  0.3493 -0.4011
 4391TIP3    H213117   2.588   5.883   3.167 -1.1463  0.0575 -0.1612
 4392TIP3   OH213118   3.102   0.617   1.056 -0.2379 -0.5084 -0.0461
 4392TIP3    H113119   3.084   0.525   1.075  0.3393 -0.7145 -0.4843
 4392TIP3    H213120   3.040   0.665   1.112 -2.0943 -1.1799 -1.4299
 4393TIP3   OH213121   7.749   5.506   1.656  0.1185  0.1922 -0.3064
 4393TIP3    H113122   7.664   5.462   1.654  0.2640 -0.0989 -2.6351
 4393TIP3    H213123   7.777   5.500   1.748 -1.9074 -0.5647  0.3143
 4394TIP3   OH213124   0.464   6.112   5.033 -0.2317  0.6686 -0.1459
 4394TIP3    H113125   0.558   6.102   5.019 -0.1035  0.1689  0.9996
 4394TIP3    H213126   0.451   6.205   5.048  0.3011  0.5512  1.1456
 4395TIP3   OH213127   6.888   5.400   1.456 -0.1397  0.5803 -0.1447
 4395TIP3    H113128   6.875   5.440   1.542 -0.1646  1.4983 -0.5589
 4395TIP3    H213129   6.878   5.473   1.394  1.2007  0.2135 -0.8388
 4396TIP3   OH213130   1.132   5.786   4.368  0.1116 -0.2073 -0.0870
 4396TIP3    H113131   1.186   5.864   4.372 -0.3925  0.0899  1.1915
 4396TIP3    H213132   1.082   5.796   4.287 -0.2762  1.0180  0.2918
 4397TIP3   OH213133   4.556   5.764   5.329 -0.1031 -0.3176  0.5322
 4397TIP3    H113134   4.632   5.713   5.357  0.4848  0.4275  0.3126
 4397TIP3    H213135   4.513   5.790   5.410  1.9810  2.4354  0.8632
 4398TIP3   OH213136   3.411   6.811   6.586  0.2801  0.5199  0.2523
 4398TIP3    H113137   3.477   6.743   6.576 -0.6456 -0.3338 -0.1765
 4398TIP3    H213138   3.346   6.792   6.518 -0.6520  1.0513  0.9664
 4399TIP3   OH213139   3.470   4.668   5.466 -0.0263 -0.0888  0.1949
 4399TIP3    H113140   3.564   4.653   5.456  0.3500  1.7951  0.5440
 4399TIP3    H213141   3.448   4.627   5.550  0.7912  0.6016  0.7723
 4400TIP3   OH213142   2.757   5.645   3.354 -0.0917  0.0255 -0.3894
 4400TIP3    H113143   2.785   5.561   3.320 -0.4626 -0.9018  1.4446
 4400TIP3    H213144   2.837   5.685   3.389 -0.5038 -1.5757  2.7011
 4401TIP3   OH213145   6.351   0.569   4.419 -0.1633 -0.0698 -0.0558
 4401TIP3    H113146   6.400   0.648   4.396 -0.3023 -0.1666 -0.7172
 4401TIP3    H213147   6.364   0.511   4.344 -1.3290 -0.0798 -0.2585
 4402TIP3   OH213148   2.263   3.039   4.278 -0.0295  0.0502 -0.1177
 4402TIP3    H113149   2.246   3.132   4.291 -0.6777 -0.0089 -0.5230
 4402TIP3    H213150   2.332   3.018   4.342 -0.1014  0.7320  0.1894
 4403TIP3   OH213151   0.019   6.020   3.720  0.8782  0.4545  0.7064
 4403TIP3    H113152   0.036   5.977   3.804  0.0459 -0.2431  0.5371
 4403TIP3    H213153   0.105   6.047   3.688  1.3951 -0.8691  0.9375
 4404TIP3   OH213154   7.184   6.494   1.524 -0.1281 -0.2442 -0.4445
 4404TIP3    H113155   7.117   6.457   1.582 -1.2929  1.5461 -0.5562
 4404TIP3    H213156   7.248   6.423   1.513  0.5054 -0.4960  3.4935
 4405TIP3   OH213157   0.797   0.432   6.267  0.6589 -0.3540  0.1934
 4405TIP3    H113158   0.757   0.483   6.197  2.1375 -1.6333 -1.7169
 4405TIP3    H213159   0.804   0.343   6.230  1.1184 -1.1734  2.1449
 4406TIP3   OH213160   7.162   2.698   1.807 -0.3335 -0.0028 -0.1826
 4406TIP3    H113161   7.085   2.726   1.857  0.2571 -0.7287  1.1869
 4406TIP3    H213162   7.139   2.611   1.775 -0.4222  0.1485 -0.5305
 4407TIP3   OH213163   8.134   2.784   5.979 -0.8837  0.2761  0.0890
 4407TIP3    H113164   8.102   2.694   5.979 -0.7755  0.1934 -1.5173
 4407TIP3    H213165   8.212   2.781   5.923  0.1002  1.0613  1.3853
 4408TIP3   OH213166   4.437   4.254   2.685 -0.6021  0.0717 -0.3601
 4408TIP3    H113167   4.497   4.182   2.706 -1.2077 -0.7814 -1.4630
 4408TIP3    H213168   4.434   4.256   2.590 -0.6720  1.5236 -0.3537
 4409TIP3   OH213169   5.070   3.011   1.861  0.0544  0.0460 -0.1584
 4409TIP3    H113170   5.119   3.084   1.821  0.2885 -0.0444 -0.0340
 4409TIP3    H213171   4.993   3.001   1.805  0.3316 -0.0124 -0.5333
 4410TIP3   OH213172   2.489   4.243   4.939 -0.0222  0.6406  0.0206
 4410TIP3    H113173   2.507   4.156   4.903  0.4585  0.3749  0.8477
 4410TIP3    H213174   2.558   4.298   4.903 -0.8416  0.8978 -1.2080
 4411TIP3   OH213175   2.132   6.100   5.695  0.1520 -0.2392 -0.0300
 4411TIP3    H113176   2.184   6.169   5.653 -0.6765  1.0082  0.8928
 4411TIP3    H213177   2.050   6.098   5.646  0.1971 -0.6370 -0.0951
 4412TIP3   OH213178   5.961   6.394   4.500  0.2664  0.1708 -0.1311
 4412TIP3    H113179   5.905   6.422   4.427 -1.1562 -0.6862  0.6093
 4412TIP3    H213180   5.939   6.454   4.571 -0.9170 -1.1624  0.6607
 4413TIP3   OH213181   2.173   7.465   3.942  0.2367 -0.2415 -0.4527
 4413TIP3    H113182   2.260   7.502   3.930 -1.1634  3.9960  0.5773
 4413TIP3    H213183   2.132   7.472   3.856 -0.0309  0.8099 -0.2571
 4414TIP3   OH213184   6.457   2.756   0.586 -0.3614  0.5255  0.5072
 4414TIP3    H113185   6.494   2.673   0.616 -1.7981  0.2780  1.6695
 4414TIP3    H213186   6.533   2.806   0.556  0.3682 -2.3591 -3.3701
 4415TIP3   OH213187   5.216   1.553   6.665  0.3043  0.4978  0.1619
 4415TIP3    H113188   5.213   1.475   6.720  2.0310  0.2363 -0.0596
 4415TIP3    H213189   5.142   1.542   6.604  0.3931 -0.8646  0.2721
 4416TIP3   OH213190   4.516   7.246   6.764 -0.4121 -0.3959  0.3579
 4416TIP3    H113191   4.560   7.165   6.792 -0.2770  0.0629  1.5341
 4416TIP3    H213192   4.585   7.311   6.760 -0.2619 -0.6237 -1.9963
 4417TIP3   OH213193   0.250   6.399   2.481  0.3489  0.1237 -0.5878
 4417TIP3    H113194   0.327   6.342   2.485  0.4398  0.1788 -1.4494
 4417TIP3    H213195   0.256   6.441   2.396  0.1077  1.1855 -0.1010
 4418TIP3   OH213196   5.899   1.129   5.255  0.2250  0.1886 -0.0005
 4418TIP3    H113197   5.843   1.183   5.199  1.9821  0.4636 -1.5683
 4418TIP3    H213198   5.878   1.158   5.344  1.4890  3.9478 -0.7736
 4419TIP3   OH213199   5.944   0.096   4.746  0.2668 -0.8717 -0.0478
 4419TIP3    H113200   5.879   0.167   4.748 -1.0309 -2.0051 -0.4478
 4419TIP3    H213201   5.966   0.087   4.653  0.4909 -0.9388  0.0127
 4420TIP3   OH213202   0.639   1.068   4.649 -0.4540 -0.1222  0.0570
 4420TIP3    H113203   0.702   1.059   4.578 -0.0933  1.3464  0.1520
 4420TIP3    H213204   0.627   1.163   4.658 -0.1117 -0.2339  2.2639
 4421TIP3   OH213205   7.396   0.139   6.476 -0.0399  0.0599  0.0125
 4421TIP3    H113206   7.476   0.090   6.460  0.4402  0.5748  0.7336
 4421TIP3    H213207   7.326   0.080   6.449  0.6068  0.1221 -1.9606
 4422TIP3   OH213208   2.754   0.602   3.634 -0.1619  0.5736  0.8764
 4422TIP3    H113209   2.829   0.650   3.600 -0.0630 -1.0045 -1.3257
 4422TIP3    H213210   2.781   0.510   3.633 -1.2481  0.1933  2.5028
 4423TIP3   OH213211   1.833   2.470   5.895  0.0818  0.0400  0.0345
 4423TIP3    H113212   1.778   2.543   5.924 -0.6287  0.2645 -1.7392
 4423TIP3    H213213   1.922   2.498   5.914 -0.1329  1.6482 -1.0814
 4424TIP3   OH213214   0.734   2.862   4.981  0.4725 -0.4323  0.3203
 4424TIP3    H113215   0.639   2.860   4.970  0.6077 -2.8591 -1.2116
 4424TIP3    H213216   0.748   2.867   5.075 -1.1726 -0.8651  0.6143
 4425TIP3   OH213217   4.916   0.354   5.671 -0.0034  0.5689  0.2515
 4425TIP3    H113218   4.948   0.368   5.760  1.1866  0.6709 -0.1693
 4425TIP3    H213219   4.971   0.283   5.637  0.0987  1.0704 -0.6680
 4426TIP3   OH213220   7.609   4.582   1.171 -0.2091  0.3832  0.0355
 4426TIP3    H113221   7.520   4.593   1.204 -0.1699  0.7575  0.0192
 4426TIP3    H213222   7.636   4.496   1.202 -0.6059  0.2351 -0.0284
 4427TIP3   OH213223   4.879   6.165   2.491 -0.0471  0.4240 -0.0424
 4427TIP3    H113224   4.919   6.235   2.440 -1.7992  1.1872 -0.4322
 4427TIP3    H213225   4.863   6.204   2.577  0.6812 -0.0977  0.3363
 4428TIP3   OH213226   2.570   6.837   4.406 -0.0327  0.1207  0.2250
 4428TIP3    H113227   2.576   6.922   4.362 -2.8382 -0.5366 -1.7627
 4428TIP3    H213228   2.490   6.843   4.458  1.3922 -0.3294  2.5693
 4429TIP3   OH213229   7.823   0.906   5.962  1.1835 -0.8065  0.4291
 4429TIP3    H113230   7.831   0.972   6.032  2.1151 -1.5072  1.0011
 4429TIP3    H213231   7.826   0.822   6.008 -0.3011 -1.2746 -0.2648
 4430TIP3   OH213232   1.670   7.116   4.961  0.1698  0.0546  0.2042
 4430TIP3    H113233   1.761   7.139   4.942 -0.0424 -0.2923 -1.3953
 4430TIP3    H213234   1.627   7.115   4.875 -1.4031  0.4178  0.9501
 4431TIP3   OH213235   0.493   6.458   6.346 -0.0806 -1.0535 -0.3410
 4431TIP3    H113236   0.514   6.469   6.253  2.2936  1.9945  0.3935
 4431TIP3    H213237   0.572   6.488   6.392 -2.3250  0.7591  2.6724
 4432TIP3   OH213238   1.440   0.712   3.991 -0.2836 -0.6524 -0.6745
 4432TIP3    H113239   1.459   0.805   3.978 -2.0946 -0.1013  0.3047
 4432TIP3    H213240   1.460   0.671   3.907  0.6591  0.5893 -1.0762
 4433TIP3   OH213241   5.572   6.074   0.596  0.2212  0.1020  0.0124
 4433TIP3    H113242   5.556   6.167   0.577  0.5638  0.1423 -0.0809
 4433TIP3    H213243   5.515   6.027   0.536  0.3320  0.2480 -0.2063
 4434TIP3   OH213244   4.467   0.140   5.513  0.3483 -0.0030  0.1501
 4434TIP3    H113245   4.523   0.211   5.545  1.2911 -0.5176 -0.3114
 4434TIP3    H213246   4.441   0.093   5.592 -2.7643  2.5402  0.8281
 4435TIP3   OH213247   2.844   0.201   2.908 -0.6440 -0.2585 -0.9151
 4435TIP3    H113248   2.865   0.288   2.875 -1.3397 -0.3313 -1.6010
 4435TIP3    H213249   2.761   0.213   2.955 -0.0289 -0.2956  0.2099
 4436TIP3   OH213250   3.034   2.448   0.464  0.0839  0.3022  0.2927
 4436TIP3    H113251   3.033   2.355   0.487  1.7953  0.3044  0.5338
 4436TIP3    H213252   3.070   2.491   0.541  4.5084  0.4917 -1.5909
 4437TIP3   OH213253   2.566   4.382   1.304  0.4843 -0.2444 -0.4525
 4437TIP3    H113254   2.656   4.352   1.293  1.5502  2.3426  0.6571
 4437TIP3    H213255   2.572   4.459   1.360 -2.5021 -0.3292  0.1491
 4438TIP3   OH213256   6.598   7.035   3.188 -0.0606  0.4109 -0.2207
 4438TIP3    H113257   6.520   7.088   3.208  0.0243  0.4901 -0.0999
 4438TIP3    H213258   6.600   7.032   3.092  0.4957  1.4619 -0.2532
 4439TIP3   OH213259   2.474   1.563   5.943 -0.1605  0.0377 -0.3354
 4439TIP3    H113260   2.444   1.481   5.903  1.8799 -1.3060  0.7390
 4439TIP3    H213261   2.440   1.631   5.884 -3.3219 -1.3877 -0.3947
 4440TIP3   OH213262   6.662   4.218   0.928 -0.2964  0.2494  0.0854
 4440TIP3    H113263   6.634   4.144   0.874  0.6076 -0.5594  0.6958
 4440TIP3    H213264   6.738   4.253   0.882  1.3443 -1.3028  1.4656
 4441TIP3   OH213265   7.496   7.385   2.044 -0.3650  0.7826 -0.5195
 4441TIP3    H113266   7.584   7.407   2.076 -0.7475  0.6334  0.6635
 4441TIP3    H213267   7.483   7.445   1.970  0.5844  1.0687 -0.4748
 4442TIP3   OH213268   5.826   4.719   6.200 -0.0693  0.3427 -0.7589
 4442TIP3    H113269   5.810   4.777   6.126  0.5795  0.0069 -1.1780
 4442TIP3    H213270   5.914   4.743   6.231 -0.3018  0.4215 -0.1499
 4443TIP3   OH213271   2.907   6.778   3.198 -0.5572  0.3791  0.3717
 4443TIP3    H113272   2.961   6.813   3.270  0.4665 -1.1023  0.3653
 4443TIP3    H213273   2.821   6.763   3.238 -0.2099  0.2605  1.0927
 4444TIP3   OH213274   4.778   3.833   5.462  0.1400  0.4314  0.3387
 4444TIP3    H113275   4.786   3.929   5.464  1.2341  0.3547  0.2471
 4444TIP3    H213276   4.824   3.807   5.382  0.2705 -0.2028  0.6135
 4445TIP3   OH213277   8.108   2.796   2.261 -0.0441 -0.1919  0.0141
 4445TIP3    H113278   8.201   2.814   2.268 -0.0470 -0.5100  0.9729
 4445TIP3    H213279   8.069   2.835   2.339 -0.5989 -0.7599  0.0366
 4446TIP3   OH213280   4.831   5.052   3.638  0.4619 -0.0514  0.0784
 4446TIP3    H113281   4.864   5.046   3.548  2.2145 -1.2923  0.7524
 4446TIP3    H213282   4.787   4.968   3.653  1.0090 -0.2411  0.6699
 4447TIP3   OH213283   1.607   2.854   0.702  0.6548  0.3563  0.2011
 4447TIP3    H113284   1.662   2.932   0.711 -1.7519  2.0988  0.6920
 4447TIP3    H213285   1.602   2.839   0.607 -0.8749  2.4099 -0.1115
 4448TIP3   OH213286   3.465   6.480   4.679 -0.3110  0.0398 -0.0511
 4448TIP3    H113287   3.383   6.459   4.723  0.3273  2.0367  2.3098
 4448TIP3    H213288   3.512   6.397   4.673 -0.1185 -0.3205  3.9156
 4449TIP3   OH213289   8.041   4.587   6.408 -0.2914  0.3151  0.3746
 4449TIP3    H113290   8.051   4.509   6.462  0.4390 -0.2788 -0.5707
 4449TIP3    H213291   7.956   4.624   6.432 -0.9738 -1.1736  0.3401
 4450TIP3   OH213292   4.078   0.307   2.788  0.1218 -0.8187  0.8153
 4450TIP3    H113293   4.127   0.254   2.851  2.5975 -0.3090 -0.5204
 4450TIP3    H213294   4.127   0.296   2.706 -2.1790 -0.3739 -0.6923
 4451TIP3   OH213295   6.521   4.440   1.646  0.6058 -0.4181 -0.8658
 4451TIP3    H113296   6.426   4.442   1.633  0.3722 -1.8187  0.3754
 4451TIP3    H213297   6.545   4.532   1.657 -0.9615 -0.1509  0.8851
 4452TIP3   OH213298   2.020   3.251   5.149 -0.0600 -0.2298  0.1946
 4452TIP3    H113299   1.942   3.234   5.201  0.6928  0.7026  1.7000
 4452TIP3    H213300   2.081   3.181   5.172  0.1071 -0.0821  0.2036
 4453TIP3   OH213301   1.600   5.111   4.895 -0.0895 -0.2127  0.5823
 4453TIP3    H113302   1.562   5.044   4.838  0.0233 -0.5251  0.8695
 4453TIP3    H213303   1.526   5.140   4.949 -0.4683  0.9238 -0.5050
 4454TIP3   OH213304   3.692   2.058   5.605 -1.1183 -0.2548 -0.0410
 4454TIP3    H113305   3.610   2.092   5.639 -0.0714  0.4917  1.8986
 4454TIP3    H213306   3.757   2.125   5.628  0.2489 -1.4319 -0.3229
 4455TIP3   OH213307   2.296   2.734   1.770  0.5103  0.3622  0.1724
 4455TIP3    H113308   2.315   2.667   1.836  1.4124 -0.2293 -0.6718
 4455TIP3    H213309   2.354   2.714   1.697 -0.1065  1.3170 -0.6114
 4456TIP3   OH213310   6.428   3.318   5.889  0.2437 -0.1419  0.4404
 4456TIP3    H113311   6.376   3.393   5.919  0.5723 -0.4461  1.8157
 4456TIP3    H213312   6.419   3.253   5.958  2.4202 -0.2206  0.7145
 4457TIP3   OH213313   3.151   5.429   6.212  0.2487  0.0169 -0.6810
 4457TIP3    H113314   3.194   5.395   6.291  0.7257 -1.0553 -1.3789
 4457TIP3    H213315   3.072   5.472   6.244  0.8106  0.2392  0.4491
 4458TIP3   OH213316   7.179   6.438   4.678  0.3261  0.0434 -0.1445
 4458TIP3    H113317   7.254   6.384   4.653  0.1858 -0.6972  0.9353
 4458TIP3    H213318   7.125   6.443   4.600  1.0526 -0.1764 -0.6704
 4459TIP3   OH213319   6.805   7.770   6.332 -0.1950  0.0096 -0.4037
 4459TIP3    H113320   6.785   7.697   6.391  0.1511 -0.7612 -1.2097
 4459TIP3    H213321   6.769   7.743   6.247  2.7437 -0.7374 -1.5292
 4460TIP3   OH213322   4.470   6.521   2.298  0.5909  0.0520 -0.0578
 4460TIP3    H113323   4.489   6.582   2.226  1.2132  1.2193  1.0637
 4460TIP3    H213324   4.377   6.533   2.315  0.9445  1.6424  0.9600
 4461TIP3   OH213325   0.590   2.806   3.584  0.6887 -0.2350  0.3471
 4461TIP3    H113326   0.620   2.718   3.562 -0.1666 -0.0645 -1.7219
 4461TIP3    H213327   0.639   2.829   3.663  1.3252 -2.3393  0.6173
 4462TIP3   OH213328   4.407   6.129   0.038  0.3734  0.7045 -0.3834
 4462TIP3    H113329   4.344   6.067   0.004 -1.2748  1.1199  1.7103
 4462TIP3    H213330   4.441   6.088   0.118  0.9350  1.5441 -0.1698
 4463TIP3   OH213331   5.147   2.919   4.533 -0.1116 -0.0702  0.4396
 4463TIP3    H113332   5.062   2.958   4.512  0.0212 -0.2025 -0.3679
 4463TIP3    H213333   5.210   2.983   4.501  0.1042  0.7046  2.3302
 4464TIP3   OH213334   4.611   5.342   6.653 -0.9607  0.0275  0.2861
 4464TIP3    H113335   4.549   5.326   6.724 -1.0539 -1.3646 -0.0885
 4464TIP3    H213336   4.697   5.342   6.696 -1.1346  1.3767  0.7101
 4465TIP3   OH213337   0.126   0.184   5.951  0.3820  0.6051  0.1143
 4465TIP3    H113338   0.169   0.199   6.035  0.2518 -0.3914  0.3623
 4465TIP3    H213339   0.195   0.146   5.896  0.3802  0.9675 -0.1468
 4466TIP3   OH213340   0.221   2.259   3.774  0.3029  0.1955  0.1379
 4466TIP3    H113341   0.309   2.222   3.787  0.2744 -0.6930 -1.7978
 4466TIP3    H213342   0.185   2.209   3.701 -2.3962 -0.4103  1.7570
 4467TIP3   OH213343   1.110   1.774   5.409  0.1006 -0.1326  0.4792
 4467TIP3    H113344   1.027   1.780   5.456  0.8352  2.4499  1.6123
 4467TIP3    H213345   1.167   1.725   5.469 -0.0778 -0.3014  0.5135
 4468TIP3   OH213346   6.059   1.100   1.054 -0.3535  0.1332 -0.4339
 4468TIP3    H113347   6.091   1.148   0.978 -0.8501 -0.0262 -0.7445
 4468TIP3    H213348   6.030   1.016   1.019 -0.4019 -0.0182 -0.0367
 4469TIP3   OH213349   7.978   2.911   3.179 -0.3729  0.0880 -0.1239
 4469TIP3    H113350   7.950   2.948   3.263 -0.4315  0.1260 -0.1605
 4469TIP3    H213351   7.939   2.968   3.113 -0.2739  0.0953 -0.1764
 4470TIP3   OH213352   0.877   5.549   1.713  0.2058  0.1013 -0.1784
 4470TIP3    H113353   0.937   5.533   1.786  0.9660  0.0999 -0.7903
 4470TIP3    H213354   0.835   5.465   1.698  2.3643 -0.8035 -1.7610
 4471TIP3   OH213355   1.499   4.026   2.584  0.7520 -0.2921  0.5144
 4471TIP3    H113356   1.404   4.031   2.573  0.7863 -1.3717 -0.5603
 4471TIP3    H213357   1.514   3.942   2.627  1.2753 -0.7866 -0.5833
 4472TIP3   OH213358   1.015   7.542   5.558  0.4312 -0.1650 -0.1298
 4472TIP3    H113359   0.976   7.595   5.488 -1.8687 -0.7397  0.6109
 4472TIP3    H213360   1.109   7.549   5.544  0.1046  1.4415 -2.0016
 4473TIP3   OH213361   0.491   5.478   1.825  0.1283  0.3543  0.1885
 4473TIP3    H113362   0.518   5.397   1.784 -1.6011 -1.6786  2.7059
 4473TIP3    H213363   0.522   5.470   1.916  0.6435  2.9299  0.3175
 4474TIP3   OH213364   0.328   5.443   0.468 -0.2861  0.2175 -0.1477
 4474TIP3    H113365   0.395   5.500   0.431  1.0220 -0.9873  0.3087
 4474TIP3    H213366   0.263   5.434   0.398  1.6913 -1.2908 -1.9033
 4475TIP3   OH213367   2.012   2.902   4.377 -0.1903 -0.3496  0.5143
 4475TIP3    H113368   2.088   2.955   4.352  0.9455 -1.3164  1.7541
 4475TIP3    H213369   1.953   2.907   4.302  1.2744  0.1075 -0.6447
 4476TIP3   OH213370   0.681   3.830   6.359 -0.0342  0.1830 -0.0961
 4476TIP3    H113371   0.724   3.778   6.291  0.5375 -0.4841  0.7496
 4476TIP3    H213372   0.748   3.892   6.387  0.6374 -1.1829  1.5759
 4477TIP3   OH213373   3.422   4.331   4.268  0.5160 -0.0157  0.3485
 4477TIP3    H113374   3.505   4.377   4.278  1.9718 -2.3815 -0.0838
 4477TIP3    H213375   3.380   4.372   4.193  1.2888  1.2015  0.5565
 4478TIP3   OH213376   0.539   3.729   0.159 -0.0103  0.3099 -0.3137
 4478TIP3    H113377   0.523   3.693   0.247 -0.9815  0.7822 -0.2833
 4478TIP3    H213378   0.537   3.653   0.101 -0.1243  0.0837 -0.0153
 4479TIP3   OH213379   0.473   5.997   2.363 -0.5594  0.4249 -0.3765
 4479TIP3    H113380   0.540   5.932   2.342  0.2999  1.3397 -0.5410
 4479TIP3    H213381   0.400   5.975   2.305 -0.0846 -0.0797 -0.8006
 4480TIP3   OH213382   7.471   6.151   2.074  0.2665  0.4966  0.4214
 4480TIP3    H113383   7.510   6.085   2.131 -1.0054 -0.0535  0.6826
 4480TIP3    H213384   7.524   6.229   2.088  1.6774 -0.3897  0.2653
 4481TIP3   OH213385   4.288   3.818   3.775 -0.3507  0.1881 -0.2155
 4481TIP3    H113386   4.325   3.894   3.820  1.2597 -0.1871 -0.8233
 4481TIP3    H213387   4.268   3.851   3.687  1.3962 -0.3078 -0.8427
 4482TIP3   OH213388   2.499   5.768   4.212  0.2600 -0.0696 -0.7195
 4482TIP3    H113389   2.594   5.764   4.215  0.2848  0.8676  1.1024
 4482TIP3    H213390   2.471   5.745   4.301 -1.2390 -0.5965 -1.2908
 4483TIP3   OH213391   5.613   2.736   2.644 -0.1222  0.8720 -0.3857
 4483TIP3    H113392   5.665   2.667   2.603 -1.2526 -0.8307  0.8949
 4483TIP3    H213393   5.525   2.700   2.649 -0.9714  2.8210 -0.5236
 4484TIP3   OH213394   3.982   1.787   4.055  0.0408  0.3499 -0.1434
 4484TIP3    H113395   3.991   1.882   4.043  1.2820  0.2260 -0.3298
 4484TIP3    H213396   3.943   1.756   3.974 -0.8421  0.7511  0.1126
 4485TIP3   OH213397   3.236   7.383   5.034 -0.3805 -0.4608  0.1849
 4485TIP3    H113398   3.242   7.298   5.077  2.1368 -0.4807 -0.0694
 4485TIP3    H213399   3.178   7.435   5.090 -1.2899 -2.0746  0.7824
 4486TIP3   OH213400   7.936   1.724   1.020 -0.4130  0.1258  0.3048
 4486TIP3    H113401   8.007   1.665   1.044  1.1520  2.2815  1.2875
 4486TIP3    H213402   7.917   1.703   0.928  0.6846 -1.2924  0.3779
 4487TIP3   OH213403   3.819   1.202   1.232 -0.1580  0.2323 -0.1213
 4487TIP3    H113404   3.875   1.266   1.276  1.0915 -1.0928  0.3196
 4487TIP3    H213405   3.737   1.205   1.281  0.2090  0.8383  0.4763
 4488TIP3   OH213406   2.524   6.039   4.628 -0.1126  0.1345  0.4490
 4488TIP3    H113407   2.522   5.944   4.628 -1.7098  0.1292  1.5131
 4488TIP3    H213408   2.593   6.062   4.689  2.6716 -0.2471 -2.2958
 4489TIP3   OH213409   3.790   6.698   4.422  0.1110  0.3179 -0.0699
 4489TIP3    H113410   3.795   6.615   4.471 -1.0777  0.1352 -0.2117
 4489TIP3    H213411   3.833   6.679   4.339  1.0756  0.2658  0.4333
 4490TIP3   OH213412   3.252   4.832   1.859 -0.2303  0.0809 -0.1033
 4490TIP3    H113413   3.305   4.912   1.855  0.6507 -0.4578  0.2661
 4490TIP3    H213414   3.226   4.825   1.951 -1.2230  0.5073 -0.3454
 4491TIP3   OH213415   0.444   1.184   5.091 -0.1097  0.8036 -0.6628
 4491TIP3    H113416   0.478   1.230   5.168  0.3142  0.5306 -0.6858
 4491TIP3    H213417   0.522   1.160   5.041 -0.3555  0.4725 -0.8892
 4492TIP3   OH213418   6.330   4.872   5.403  0.4213 -0.0148  0.3351
 4492TIP3    H113419   6.374   4.788   5.397  1.1945  0.1283  2.7047
 4492TIP3    H213420   6.251   4.854   5.454 -0.2908  0.4037 -0.6095
 4493TIP3   OH213421   6.283   5.786   3.749 -0.4393  0.3112  0.4049
 4493TIP3    H113422   6.235   5.769   3.830 -0.6548  0.4975  0.3163
 4493TIP3    H213423   6.257   5.874   3.723  0.7758  0.8465  0.9239
 4494TIP3   OH213424   2.601   2.434   0.103  0.2596  0.0526  0.1439
 4494TIP3    H113425   2.595   2.433   0.198  1.0821  1.0347  0.2234
 4494TIP3    H213426   2.528   2.379   0.074  1.9959 -3.1614  1.3915
 4495TIP3   OH213427   1.557   6.815   1.741 -0.0714  0.1765  0.4020
 4495TIP3    H113428   1.518   6.899   1.764 -0.7650  0.6092 -2.0861
 4495TIP3    H213429   1.484   6.754   1.740  0.3610 -0.4062  1.7510
 4496TIP3   OH213430   8.078   6.285   2.371 -0.4130  0.2023 -0.1610
 4496TIP3    H113431   8.088   6.216   2.306 -0.5851  0.3094 -0.3030
 4496TIP3    H213432   8.140   6.352   2.345 -1.9680  1.2034 -1.4868
 4497TIP3   OH213433   1.556   1.189   0.494 -0.6093 -0.1416  0.6246
 4497TIP3    H113434   1.546   1.218   0.585 -1.4784 -1.4953  0.9911
 4497TIP3    H213435   1.584   1.098   0.501 -1.2980 -0.4483 -0.4666
 4498TIP3   OH213436   6.787   5.743   2.674  0.2725 -0.3200  0.0354
 4498TIP3    H113437   6.803   5.721   2.766 -0.5736 -0.1440  0.2351
 4498TIP3    H213438   6.704   5.700   2.653 -1.1123  2.0803  0.2527
 4499TIP3   OH213439   3.957   0.493   3.686 -0.3661 -0.6198 -0.4019
 4499TIP3    H113440   4.006   0.456   3.613 -0.3873  1.8289 -1.7480
 4499TIP3    H213441   4.016   0.556   3.727 -1.0418 -0.4973  0.4377
 4500TIP3   OH213442   2.289   1.040   4.830 -0.3331  0.0814 -0.1632
 4500TIP3    H113443   2.266   1.016   4.741  0.2006 -0.8758 -0.0680
 4500TIP3    H213444   2.209   1.029   4.880 -0.3006 -0.7705 -0.2805
 4501TIP3   OH213445   0.396   7.502   1.944  0.0705 -0.6016  0.3951
 4501TIP3    H113446   0.369   7.494   1.852  2.3114  0.4068 -0.4131
 4501TIP3    H213447   0.365   7.590   1.969  2.1153  0.4297 -0.4391
 4502TIP3   OH213448   5.475   2.764   3.286  0.3002 -0.2599  0.0025
 4502TIP3    H113449   5.411   2.812   3.233 -1.0342 -1.3796  0.5297
 4502TIP3    H213450   5.548   2.825   3.297 -0.3924  0.8203 -1.1742
 4503TIP3   OH213451   0.688   0.174   5.163 -0.8463 -0.5271 -0.0373
 4503TIP3    H113452   0.777   0.187   5.194 -0.8042  0.4294 -0.5104
 4503TIP3    H213453   0.633   0.198   5.237 -0.7220 -1.7452  0.4743
 4504TIP3   OH213454   2.478   3.814   6.579  0.4988  0.2589 -0.6946
 4504TIP3    H113455   2.508   3.825   6.489 -1.0620  1.2956 -1.1138
 4504TIP3    H213456   2.386   3.790   6.572  0.7461 -1.2869  0.6087
 4505TIP3   OH213457   0.126   0.799   2.310  0.8167 -0.0939  0.0067
 4505TIP3    H113458   0.081   0.721   2.277  2.5816 -1.5122  0.7681
 4505TIP3    H213459   0.195   0.816   2.245  2.9896 -1.6666  1.7378
 4506TIP3   OH213460   5.084   0.747   4.474 -0.1675  0.2400 -0.2109
 4506TIP3    H113461   5.074   0.693   4.396 -0.0839  1.6746 -1.2516
 4506TIP3    H213462   5.178   0.764   4.480 -0.2825  0.9456 -0.3658
 4507TIP3   OH213463   1.088   6.709   0.763  0.3928  0.8964 -0.4849
 4507TIP3    H113464   1.111   6.768   0.836 -0.4169  0.4881  0.1221
 4507TIP3    H213465   1.084   6.623   0.803 -0.4112  0.7151 -0.9435
 4508TIP3   OH213466   4.811   7.256   3.653  0.3443  0.0408  0.1500
 4508TIP3    H113467   4.802   7.311   3.575  0.2228 -2.3138 -1.5719
 4508TIP3    H213468   4.879   7.193   3.631 -0.6404 -1.5371  1.4204
 4509TIP3   OH213469   3.286   7.473   4.098  0.0423  0.3203 -0.1496
 4509TIP3    H113470   3.308   7.430   4.181 -0.6570 -1.1854 -0.7019
 4509TIP3    H213471   3.363   7.458   4.042  0.4894  1.2838  0.1938
 4510TIP3   OH213472   5.009   3.151   3.146 -0.0232 -0.4512  0.2928
 4510TIP3    H113473   5.022   3.059   3.170  0.4912 -0.2975  0.6242
 4510TIP3    H213474   4.917   3.156   3.122  0.0642 -1.1700 -0.2395
 4511TIP3   OH213475   7.705   6.340   4.669  0.3769  0.7449  0.2617
 4511TIP3    H113476   7.746   6.425   4.682  0.2748  0.6520  1.2671
 4511TIP3    H213477   7.771   6.289   4.621  1.7532  0.4090  2.3672
 4512TIP3   OH213478   3.337   5.799   5.012 -0.0273 -0.1830  0.1237
 4512TIP3    H113479   3.313   5.709   4.991  1.2414 -0.4203 -0.4387
 4512TIP3    H213480   3.341   5.801   5.108 -0.6081 -0.5620  0.1612
 4513TIP3   OH213481   5.535   4.256   2.385 -0.9808  0.1676  1.1102
 4513TIP3    H113482   5.522   4.338   2.433 -1.0247  2.2361 -2.0585
 4513TIP3    H213483   5.587   4.282   2.309 -1.5722 -2.6348 -0.3839
 4514TIP3   OH213484   3.632   7.420   3.123 -0.1582  0.4884 -0.1052
 4514TIP3    H113485   3.589   7.506   3.119 -1.7293 -0.2760 -0.3904
 4514TIP3    H213486   3.560   7.358   3.138  0.9520 -0.7773  0.1345
 4515TIP3   OH213487   3.512   1.282   1.904 -0.0493  0.3984 -0.0384
 4515TIP3    H113488   3.594   1.305   1.949 -0.0171 -1.3095  0.8706
 4515TIP3    H213489   3.444   1.329   1.952  0.1829  0.0341  0.6674
 4516TIP3   OH213490   1.342   1.694   1.499 -0.8022  0.1138  0.0370
 4516TIP3    H113491   1.284   1.765   1.471 -2.9775 -0.9576  1.5091
 4516TIP3    H213492   1.387   1.667   1.419 -3.8379 -0.2827 -1.6835
 4517TIP3   OH213493   1.265   7.566   0.237 -0.2534  0.4390  0.1858
 4517TIP3    H113494   1.334   7.514   0.196 -0.7618  0.0860 -0.2338
 4517TIP3    H213495   1.199   7.575   0.169  0.3237  2.6416 -0.1705
 4518TIP3   OH213496   4.696   6.286   0.468 -0.4212 -0.0557 -0.4387
 4518TIP3    H113497   4.626   6.235   0.509  0.0953 -0.2541  0.2246
 4518TIP3    H213498   4.709   6.360   0.529 -1.9371  1.5452 -1.9307
 4519TIP3   OH213499   3.589   1.360   0.601 -0.5032  0.2942  0.3599
 4519TIP3    H113500   3.515   1.306   0.574  0.7216 -1.2444 -0.0713
 4519TIP3    H213501   3.644   1.367   0.523 -0.7441  2.4345  0.3266
 4520TIP3   OH213502   6.277   7.660   3.533  0.8135  0.0851  0.4026
 4520TIP3    H113503   6.337   7.587   3.516 -0.3018 -0.5905 -0.8096
 4520TIP3    H213504   6.329   7.738   3.512  1.3035 -0.4810 -0.5882
 4521TIP3   OH213505   4.208   5.580   1.923  0.2537  0.0648  0.0113
 4521TIP3    H113506   4.270   5.510   1.938 -1.5284 -1.6174 -0.0752
 4521TIP3    H213507   4.169   5.559   1.838  0.4530  1.7902 -0.5441
 4522TIP3   OH213508   5.049   1.179   2.654  0.2794  0.2459  0.0377
 4522TIP3    H113509   5.139   1.151   2.673  0.0602 -1.0196 -0.6919
 4522TIP3    H213510   4.997   1.100   2.662 -0.9307  1.1213  1.2637
 4523TIP3   OH213511   7.701   4.059   3.176  0.3274 -0.4084  0.5204
 4523TIP3    H113512   7.733   4.091   3.092  0.2067 -0.3240  0.5076
 4523TIP3    H213513   7.618   4.015   3.156 -0.1701  0.4169  0.7277
 4524TIP3   OH213514   2.880   7.319   3.060  0.0227 -0.3013  0.2577
 4524TIP3    H113515   2.901   7.244   3.004  0.9684  1.8267 -2.4641
 4524TIP3    H213516   2.786   7.311   3.076 -0.1743 -1.3263 -1.1888
 4525TIP3   OH213517   0.633   6.101   6.646  0.7349 -0.4742 -0.0066
 4525TIP3    H113518   0.604   6.125   6.734  4.5036 -0.6364  1.4444
 4525TIP3    H213519   0.614   6.007   6.639 -2.3822  0.1052 -0.7044
 4526TIP3   OH213520   2.214   0.798   3.530 -0.3799 -0.0376 -0.1777
 4526TIP3    H113521   2.134   0.755   3.561  0.0206 -0.6207  0.0600
 4526TIP3    H213522   2.283   0.733   3.542  0.3966  0.9411  0.9780
 4527TIP3   OH213523   3.733   4.495   2.709 -0.0946  0.0355  0.1714
 4527TIP3    H113524   3.640   4.485   2.687  0.1859 -2.5592 -0.1666
 4527TIP3    H213525   3.762   4.569   2.656 -1.3290 -0.9182 -1.9545
 4528TIP3   OH213526   0.378   7.693   0.665 -0.0930  0.1966  0.0586
 4528TIP3    H113527   0.377   7.782   0.699  2.3022  0.1492  0.4338
 4528TIP3    H213528   0.397   7.638   0.741 -1.7005 -0.7043 -0.1352
 4529TIP3   OH213529   1.191   2.426   2.434 -0.3972 -0.2453 -0.2616
 4529TIP3    H113530   1.162   2.348   2.387 -1.2120 -0.1298  0.0342
 4529TIP3    H213531   1.133   2.432   2.509 -0.4697  0.7572 -0.3806
 4530TIP3   OH213532   6.718   6.413   3.975 -0.4158  0.2837  0.7127
 4530TIP3    H113533   6.682   6.402   4.063  0.3218  1.4780  1.1841
 4530TIP3    H213534   6.759   6.328   3.955 -3.1705 -1.0396  0.2566
 4531TIP3   OH213535   1.100   3.612   4.280  0.1334  0.4271 -0.7007
 4531TIP3    H113536   1.022   3.657   4.246 -0.2185  1.2185  1.0466
 4531TIP3    H213537   1.072   3.521   4.291  0.4065  0.0307 -2.8958
 4532TIP3   OH213538   7.698   2.634   4.032  0.2561 -0.4086 -0.3043
 4532TIP3    H113539   7.774   2.656   3.978 -0.4826  1.6377 -0.5771
 4532TIP3    H213540   7.725   2.656   4.121 -0.3642  1.4924 -0.5373
 4533TIP3   OH213541   1.663   1.849   4.563  0.5585  0.3516 -0.1312
 4533TIP3    H113542   1.611   1.775   4.531 -1.2878  1.3990  0.3374
 4533TIP3    H213543   1.739   1.851   4.505 -0.1479 -0.9435 -1.1633
 4534TIP3   OH213544   8.289   5.024   4.966  0.0810  0.7500  0.4358
 4534TIP3    H113545   8.315   4.945   4.919  1.0441  1.0053  0.5269
 4534TIP3    H213546   8.272   4.994   5.055 -0.5876  0.4749  0.2258
 4535TIP3   OH213547   0.338   2.465   6.135 -0.5264  0.0094 -0.0318
 4535TIP3    H113548   0.246   2.469   6.162 -1.1240 -0.7381 -1.7674
 4535TIP3    H213549   0.340   2.511   6.052  0.3690 -1.1583 -0.6891
 4536TIP3   OH213550   6.498   4.504   6.466  0.0150 -0.3149 -0.3053
 4536TIP3    H113551   6.425   4.512   6.405 -0.4715 -0.7951  0.2012
 4536TIP3    H213552   6.459   4.466   6.545  0.5940  0.4764  0.3787
 4537TIP3   OH213553   7.535   4.237   6.343  0.0064 -0.4496  0.4655
 4537TIP3    H113554   7.600   4.196   6.401 -0.1552 -0.2443  0.7941
 4537TIP3    H213555   7.451   4.213   6.380 -0.0915  1.2345  1.4335
 4538TIP3   OH213556   3.251   5.542   3.648 -0.3707  0.1850  0.4019
 4538TIP3    H113557   3.193   5.537   3.724 -2.7453  1.1307 -1.2248
 4538TIP3    H213558   3.197   5.511   3.575  0.7774  2.2205 -1.4072
 4539TIP3   OH213559   7.386   6.153   5.249  0.1316  0.5717 -0.0400
 4539TIP3    H113560   7.474   6.117   5.234  0.1828  0.8987 -0.5591
 4539TIP3    H213561   7.350   6.165   5.161 -0.7773 -0.3843  0.1840
 4540TIP3   OH213562   4.254   5.465   0.718  0.2483 -0.3301  0.6256
 4540TIP3    H113563   4.209   5.385   0.689 -1.0328  1.0620 -1.4780
 4540TIP3    H213564   4.241   5.527   0.646 -1.0902  2.6832  3.2488
 4541TIP3   OH213565   6.421   3.691   0.490  0.1034 -0.0619  0.1199
 4541TIP3    H113566   6.455   3.760   0.546  0.2301  0.2237 -0.3015
 4541TIP3    H213567   6.330   3.681   0.516  1.0625 -2.6022  3.0400
 4542TIP3   OH213568   3.068   0.039   2.796 -0.0158  0.1498  0.1771
 4542TIP3    H113569   2.989   0.085   2.821 -0.7977  0.0418 -1.8523
 4542TIP3    H213570   3.108   0.011   2.878 -1.9462  0.4404  1.2600
 4543TIP3   OH213571   7.229   1.443   0.463  0.2740  0.0990  0.9623
 4543TIP3    H113572   7.193   1.361   0.428  0.2414  0.5620 -0.1336
 4543TIP3    H213573   7.259   1.491   0.386 -0.4921  1.4987  1.5008
 4544TIP3   OH213574   7.054   7.238   5.236 -0.2910 -0.3633  0.0801
 4544TIP3    H113575   6.965   7.226   5.201 -0.2608 -1.3086  0.2841
 4544TIP3    H213576   7.080   7.325   5.206 -0.9347 -0.4455 -0.7717
 4545TIP3   OH213577   6.786   1.368   2.313 -0.1553 -0.6068  0.2707
 4545TIP3    H113578   6.842   1.361   2.391  0.3102 -0.1861 -0.0172
 4545TIP3    H213579   6.730   1.291   2.316  0.2335 -0.8735  0.7307
 4546TIP3   OH213580   6.337   1.760   0.579  0.0433  0.1033  0.1361
 4546TIP3    H113581   6.310   1.848   0.552  0.6235  0.3047  0.1928
 4546TIP3    H213582   6.330   1.707   0.500 -0.6855  0.1027  0.1901
 4547TIP3   OH213583   2.829   2.816   2.449  0.7285 -0.5371 -1.3770
 4547TIP3    H113584   2.872   2.843   2.367  0.0999  2.5351 -0.8241
 4547TIP3    H213585   2.837   2.893   2.506  1.4504 -2.6873  1.6409
 4548TIP3   OH213586   3.379   1.260   6.373 -0.2237  0.1235  0.2768
 4548TIP3    H113587   3.436   1.335   6.354  0.9916 -0.4046  1.6543
 4548TIP3    H213588   3.431   1.183   6.349 -0.1536 -0.3775  1.8841
 4549TIP3   OH213589   0.863   5.866   1.327  0.0537 -0.1156 -0.3742
 4549TIP3    H113590   0.811   5.804   1.378  0.6511  0.3471  0.8453
 4549TIP3    H213591   0.814   5.948   1.332 -0.0733 -0.1616 -0.8652
 4550TIP3   OH213592   1.977   2.793   5.530 -0.3408 -0.1833  0.0110
 4550TIP3    H113593   1.905   2.742   5.568 -0.6621  0.2025 -0.0774
 4550TIP3    H213594   1.978   2.767   5.438 -1.9869  1.6156 -0.5868
 4551TIP3   OH213595   3.865   3.667   1.094 -0.3086  0.0140 -0.0279
 4551TIP3    H113596   3.956   3.642   1.110  0.0452  0.9322 -0.4681
 4551TIP3    H213597   3.814   3.591   1.120  0.4257  0.2440  2.2687
 4552TIP3   OH213598   4.606   3.872   4.358  0.0111  0.4174  0.2221
 4552TIP3    H113599   4.573   3.831   4.437  2.9243 -2.2362  0.2631
 4552TIP3    H213600   4.614   3.801   4.294 -0.3620  2.0953 -1.8371
 4553TIP3   OH213601   4.932   1.542   5.798 -0.0472 -0.1172  0.6907
 4553TIP3    H113602   5.015   1.522   5.756  0.1686  0.1590  0.9799
 4553TIP3    H213603   4.921   1.473   5.864 -0.8535 -1.1094 -0.4514
 4554TIP3   OH213604   6.673   4.886   6.350  0.1639 -0.6218 -0.6549
 4554TIP3    H113605   6.622   4.852   6.277 -0.8610 -0.6744  0.0656
 4554TIP3    H213606   6.738   4.943   6.309 -0.5751 -0.4190 -1.5883
 4555TIP3   OH213607   6.054   0.440   4.687 -0.0026  0.2941  0.1625
 4555TIP3    H113608   6.125   0.380   4.664  0.6475  0.6139  1.2105
 4555TIP3    H213609   5.982   0.417   4.629  0.8027 -0.3627 -0.6030
 4556TIP3   OH213610   2.798   7.643   4.438  0.4958 -0.3237  0.4233
 4556TIP3    H113611   2.722   7.695   4.464 -0.1591 -0.4483 -1.1318
 4556TIP3    H213612   2.826   7.600   4.519 -0.0857  0.9781  1.3520
 4557TIP3   OH213613   3.746   3.863   4.200 -0.2142  0.1583  0.0949
 4557TIP3    H113614   3.667   3.916   4.188 -0.7470  0.1586  2.8750
 4557TIP3    H213615   3.767   3.873   4.293  1.0674 -2.6201  0.1905
 4558TIP3   OH213616   3.787   1.035   1.966  0.0400  0.7683 -0.1252
 4558TIP3    H113617   3.881   1.051   1.970 -0.0263  1.4871 -1.2583
 4558TIP3    H213618   3.747   1.115   2.001 -0.1551  0.3205  0.7086
 4559TIP3   OH213619   0.814   2.752   0.734 -0.1760 -0.0819 -0.0369
 4559TIP3    H113620   0.892   2.741   0.680  0.6988 -2.1941  1.5316
 4559TIP3    H213621   0.758   2.811   0.683  0.7593 -1.5698 -2.9963
 4560TIP3   OH213622   5.549   7.026   4.301  0.2504 -0.6984  0.1188
 4560TIP3    H113623   5.567   7.060   4.388 -0.4777  0.1079 -0.0332
 4560TIP3    H213624   5.454   7.028   4.293  0.3439  0.3237 -1.0961
 4561TIP3   OH213625   0.335   1.312   4.045 -0.2828  0.1831  0.5633
 4561TIP3    H113626   0.427   1.335   4.032 -0.1527 -0.6469 -0.0973
 4561TIP3    H213627   0.338   1.233   4.101 -0.6490  0.8384  1.5335
 4562TIP3   OH213628   8.304   5.627   4.122  0.2866 -0.2654 -0.6088
 4562TIP3    H113629   8.313   5.559   4.189  0.2080  0.2918 -0.0217
 4562TIP3    H213630   8.249   5.587   4.055  0.0299 -0.6934 -0.1525
 4563TIP3   OH213631   0.599   7.122   3.088 -0.1084  0.7586  0.3125
 4563TIP3    H113632   0.658   7.092   3.019 -0.1792 -2.6043  1.5466
 4563TIP3    H213633   0.657   7.161   3.154  0.4987 -0.4279  0.4942
 4564TIP3   OH213634   4.094   3.274   6.068 -0.3787 -0.6123  0.7528
 4564TIP3    H113635   4.172   3.223   6.091 -0.6398 -0.7646  1.3082
 4564TIP3    H213636   4.096   3.348   6.128 -0.0950 -0.0579  0.0628
 4565TIP3   OH213637   6.147   2.628   3.078  0.2967  0.2891 -0.3878
 4565TIP3    H113638   6.187   2.691   3.018  0.6746  1.7954  1.3394
 4565TIP3    H213639   6.137   2.676   3.160 -2.6961 -0.8334  0.0337
 4566TIP3   OH213640   7.378   3.614   1.479 -0.4265 -0.0756 -0.1512
 4566TIP3    H113641   7.455   3.638   1.427 -0.5458  0.3860 -0.1165
 4566TIP3    H213642   7.371   3.683   1.546 -2.1388  1.1353 -1.4763
 4567TIP3   OH213643   0.390   6.714   4.314 -0.0546 -0.2934  0.0241
 4567TIP3    H113644   0.474   6.709   4.359 -0.8848  2.3016  2.1307
 4567TIP3    H213645   0.403   6.781   4.247  0.1808 -1.6734 -1.3777
 4568TIP3   OH213646   2.326   1.078   3.141 -0.5343 -0.3853  0.5040
 4568TIP3    H113647   2.277   1.016   3.195 -1.1047 -1.8575 -1.5660
 4568TIP3    H213648   2.396   1.025   3.102 -0.7855  0.3367 -0.9978
 4569TIP3   OH213649   4.168   2.631   4.001 -0.1448  0.6534  0.5120
 4569TIP3    H113650   4.190   2.673   4.084  0.0058 -0.7307  1.1914
 4569TIP3    H213651   4.084   2.588   4.017 -0.3243  0.7337 -0.1855
 4570TIP3   OH213652   5.898   0.508   4.050 -0.1441  0.5912  0.1225
 4570TIP3    H113653   5.953   0.580   4.081 -0.0175  0.5272  0.0467
 4570TIP3    H213654   5.886   0.451   4.126  1.1611 -0.2021 -0.2286
 4571TIP3   OH213655   5.065   0.267   3.764  0.0035 -0.5039  0.4803
 4571TIP3    H113656   5.092   0.333   3.827 -1.5492  0.3052  0.3463
 4571TIP3    H213657   5.067   0.184   3.813  1.6333 -0.3484  0.7384
 4572TIP3   OH213658   3.236   2.893   3.294  0.8321  0.5587  0.4597
 4572TIP3    H113659   3.214   2.970   3.242  0.2327  0.2122  0.1843
 4572TIP3    H213660   3.194   2.907   3.379 -2.5825 -1.0974 -0.7509
 4573TIP3   OH213661   0.053   1.556   5.179  0.2542 -0.1365 -0.9529
 4573TIP3    H113662   0.071   1.590   5.091 -0.6006 -0.0262 -1.0890
 4573TIP3    H213663   0.112   1.481   5.188 -0.1927 -0.6251 -1.9253
 4574TIP3   OH213664   0.701   3.315   0.094  0.1693  0.4330 -0.0297
 4574TIP3    H113665   0.686   3.333   0.187  0.3062 -0.2151  0.1231
 4574TIP3    H213666   0.701   3.220   0.088  0.1304  0.4736 -0.7031
 4575TIP3   OH213667   1.015   1.577   6.601  0.6654  0.1543 -0.1535
 4575TIP3    H113668   0.997   1.540   6.515 -0.0147 -0.3218  0.1860
 4575TIP3    H213669   1.101   1.618   6.592  0.9011 -0.4740 -0.8691
 4576TIP3   OH213670   6.555   2.059   0.971 -0.0827 -0.1721  0.0126
 4576TIP3    H113671   6.503   2.026   1.043  0.5386 -0.4322  0.3499
 4576TIP3    H213672   6.533   2.002   0.897  0.1359 -0.6251  0.2962
 4577TIP3   OH213673   2.589   3.269   6.273  0.5694  0.4831  0.1015
 4577TIP3    H113674   2.525   3.300   6.336  0.3687 -0.4918  0.3909
 4577TIP3    H213675   2.549   3.286   6.188 -0.2912 -0.5140  0.2839
 4578TIP3   OH213676   8.212   4.136   4.405 -0.1738  0.1586  0.0849
 4578TIP3    H113677   8.179   4.048   4.384 -0.6311  0.3329  0.0647
 4578TIP3    H213678   8.171   4.193   4.340 -2.2578  0.8289  1.8705
 4579TIP3   OH213679   5.948   7.285   1.134  0.4141 -0.3511 -0.1238
 4579TIP3    H113680   5.908   7.254   1.052 -0.4424  1.3774 -0.4018
 4579TIP3    H213681   5.931   7.379   1.135  1.2484 -0.1797  1.6025
 4580TIP3   OH213682   5.055   1.725   2.823  0.4770  0.3090 -0.3150
 4580TIP3    H113683   5.106   1.739   2.742  0.9458  3.6086  0.3856
 4580TIP3    H213684   5.120   1.698   2.887  0.6724  0.6772 -0.3513
 4581TIP3   OH213685   1.789   2.671   3.997 -0.0930 -0.4787 -0.9082
 4581TIP3    H113686   1.799   2.763   3.972 -0.7927 -0.6845 -1.9901
 4581TIP3    H213687   1.873   2.631   3.977  0.1478 -0.1136 -0.6225
 4582TIP3   OH213688   5.161   6.368   2.289 -0.8497 -0.1028 -0.2858
 4582TIP3    H113689   5.127   6.295   2.238  1.4887 -1.6713  0.2355
 4582TIP3    H213690   5.228   6.329   2.345 -0.6158  2.1982  1.1821
 4583TIP3   OH213691   6.838   5.197   5.335 -0.5320  0.6691 -0.8152
 4583TIP3    H113692   6.812   5.175   5.246  1.1630 -0.1216 -1.1507
 4583TIP3    H213693   6.923   5.155   5.347 -0.9043  0.3986  1.3305
 4584TIP3   OH213694   0.349   3.577   1.231 -0.1724  0.0957 -0.1566
 4584TIP3    H113695   0.379   3.582   1.140 -1.1277 -0.0533 -0.4978
 4584TIP3    H213696   0.342   3.668   1.259 -2.0649  0.2600 -1.0109
 4585TIP3   OH213697   1.014   7.325   1.336 -0.4970 -0.0460 -0.2153
 4585TIP3    H113698   0.999   7.392   1.403  0.5010  2.1828 -2.1151
 4585TIP3    H213699   0.927   7.291   1.317 -0.8135 -0.7552  2.1499
 4586TIP3   OH213700   3.639   1.020   3.831  0.1305 -0.0393 -0.4459
 4586TIP3    H113701   3.617   1.016   3.924 -0.5474  0.4884 -0.5760
 4586TIP3    H213702   3.698   0.946   3.817 -1.9301 -1.8159 -0.1612
 4587TIP3   OH213703   2.400   0.393   1.508  0.2613  0.2257  0.4863
 4587TIP3    H113704   2.363   0.476   1.539  1.0946  1.3057 -1.2458
 4587TIP3    H213705   2.326   0.347   1.468  0.0671  0.7994  0.1718
 4588TIP3   OH213706   5.680   6.069   4.446 -0.7964  0.2049 -0.6006
 4588TIP3    H113707   5.631   6.011   4.388 -1.6554  0.8681 -0.5626
 4588TIP3    H213708   5.632   6.152   4.442 -1.0241  0.1903  1.2456
 4589TIP3   OH213709   2.154   5.785   5.871 -0.4496  0.3725 -0.0509
 4589TIP3    H113710   2.079   5.842   5.854 -1.5095 -1.3191 -1.3303
 4589TIP3    H213711   2.214   5.803   5.798 -1.4043 -1.0979 -1.2343
 4590TIP3   OH213712   6.765   1.659   2.916 -0.0618 -0.6001  0.3982
 4590TIP3    H113713   6.697   1.674   2.981 -0.0813 -0.7312  0.4080
 4590TIP3    H213714   6.845   1.690   2.958  0.2161 -2.2601  1.1632
 4591TIP3   OH213715   5.093   0.881   1.860  0.1922  0.3171  0.5347
 4591TIP3    H113716   5.168   0.890   1.802 -1.0034  1.0457 -0.9777
 4591TIP3    H213717   5.081   0.968   1.899  1.6458 -0.4199  2.8243
 4592TIP3   OH213718   0.493   0.915   2.373 -0.3132 -0.1773 -0.0762
 4592TIP3    H113719   0.439   0.898   2.296 -1.1294  0.3182  0.3755
 4592TIP3    H213720   0.522   1.006   2.363  0.4973 -0.4527 -0.3412
 4593TIP3   OH213721   5.822   3.690   6.403 -0.6333 -0.3115  0.4499
 4593TIP3    H113722   5.759   3.759   6.421 -0.0336  0.0776  1.0742
 4593TIP3    H213723   5.901   3.735   6.375 -0.3938 -0.7665  0.3730
 4594TIP3   OH213724   1.967   1.108   4.444 -0.3182  0.2370  0.1949
 4594TIP3    H113725   1.902   1.081   4.509  1.5765 -0.3941  1.9354
 4594TIP3    H213726   1.954   1.048   4.371 -1.5377 -0.0091  0.5870
 4595TIP3   OH213727   0.954   2.815   0.218  0.0815 -0.0102  0.0194
 4595TIP3    H113728   1.002   2.767   0.150  1.5729  0.3104  0.7908
 4595TIP3    H213729   0.873   2.766   0.230 -0.4237  0.1924 -2.2927
 4596TIP3   OH213730   6.450   7.115   2.552  0.0382  0.7327  0.3395
 4596TIP3    H113731   6.543   7.110   2.571  0.2044  0.4773 -0.5019
 4596TIP3    H213732   6.411   7.042   2.600  0.2233  1.0327  0.9492
 4597TIP3   OH213733   1.220   1.794   6.331 -0.3123 -0.0320  0.5261
 4597TIP3    H113734   1.260   1.850   6.264  0.5242  1.1026  1.9024
 4597TIP3    H213735   1.127   1.817   6.329  0.2722  2.9281  2.3470
 4598TIP3   OH213736   7.227   0.123   1.734 -0.5788  0.3266 -0.1525
 4598TIP3    H113737   7.279   0.176   1.795 -0.1617  0.5598 -0.6945
 4598TIP3    H213738   7.157   0.086   1.787 -0.1251  0.3893  0.5012
 4599TIP3   OH213739   6.693   7.266   2.419  0.3061  0.1212  0.1881
 4599TIP3    H113740   6.683   7.270   2.324  0.6240 -0.4076  0.1334
 4599TIP3    H213741   6.604   7.273   2.453  0.0198 -1.3564 -0.2026
 4600TIP3   OH213742   3.763   2.306   3.035  0.5635  0.1192 -0.7094
 4600TIP3    H113743   3.798   2.323   3.122  1.9498  2.1800 -1.5982
 4600TIP3    H213744   3.725   2.389   3.007 -0.6726 -0.7487 -1.7611
 4601TIP3   OH213745   7.797   0.546   2.047 -0.4637  0.7967  0.0537
 4601TIP3    H113746   7.704   0.522   2.042 -0.9609  2.6707 -0.3988
 4601TIP3    H213747   7.806   0.622   1.989  0.6568  2.6429  2.4468
 4602TIP3   OH213748   3.880   1.012   2.642 -0.3178  0.0414  0.0419
 4602TIP3    H113749   3.948   1.038   2.704  0.8970 -0.3987 -1.0567
 4602TIP3    H213750   3.798   1.023   2.690  0.3619  2.5727  0.7452
 4603TIP3   OH213751   7.500   4.437   1.982  0.5106 -0.5357  0.2894
 4603TIP3    H113752   7.488   4.356   2.032  0.5936 -1.2620 -0.8527
 4603TIP3    H213753   7.466   4.418   1.895  1.5013  0.3161 -0.3170
 4604TIP3   OH213754   2.484   0.992   6.620  0.4708 -0.4351 -0.1741
 4604TIP3    H113755   2.481   0.969   6.527  1.8843  1.7970 -0.8425
 4604TIP3    H213756   2.394   0.984   6.650  0.1356 -2.1080 -1.4727
 4605TIP3   OH213757   0.678   5.303   4.750 -0.0646 -0.0695 -0.3604
 4605TIP3    H113758   0.583   5.302   4.758  0.0719 -1.6328  2.1023
 4605TIP3    H213759   0.696   5.374   4.688 -2.7245  1.8143  0.8115
 4606TIP3   OH213760   4.969   4.628   4.513  0.2755 -0.2806  0.1462
 4606TIP3    H113761   4.968   4.533   4.500  1.1201 -0.4206  0.9885
 4606TIP3    H213762   5.040   4.659   4.457  0.2420 -0.1911  0.1526
 4607TIP3   OH213763   0.386   0.426   5.585 -0.2510 -0.0068 -0.3531
 4607TIP3    H113764   0.367   0.466   5.669 -0.2247 -1.6103  0.4610
 4607TIP3    H213765   0.320   0.356   5.576  0.4534 -0.6013 -1.1109
 4608TIP3   OH213766   4.297   4.330   4.094  0.4335 -0.0584 -0.1907
 4608TIP3    H113767   4.371   4.295   4.143  0.1837  0.3440  0.4821
 4608TIP3    H213768   4.237   4.363   4.161 -0.5426 -0.7400 -0.6969
 4609TIP3   OH213769   2.237   6.534   4.303 -0.2113 -0.4546 -0.0791
 4609TIP3    H113770   2.254   6.549   4.396  1.4485 -1.0383 -0.2520
 4609TIP3    H213771   2.178   6.458   4.301 -0.0277 -0.6165  0.4995
 4610TIP3   OH213772   6.825   6.923   1.588  0.1939  0.4531  0.6774
 4610TIP3    H113773   6.788   6.998   1.541  1.8316  0.8528 -0.0439
 4610TIP3    H213774   6.914   6.914   1.554  0.6903 -0.6470  2.1251
 4611TIP3   OH213775   1.601   6.932   3.837 -0.1365 -0.2361 -0.3215
 4611TIP3    H113776   1.611   7.006   3.777  1.1751 -0.1819 -0.0522
 4611TIP3    H213777   1.556   6.969   3.913  0.3760  0.2545 -0.2518
 4612TIP3   OH213778   3.335   2.351   0.391 -0.1130 -0.3039 -0.7580
 4612TIP3    H113779   3.247   2.367   0.425  0.3939 -0.6977  0.8378
 4612TIP3    H213780   3.337   2.257   0.373  0.5647 -0.6918  1.1205
 4613TIP3   OH213781   7.728   7.530   4.900  0.0418 -0.0750 -0.1534
 4613TIP3    H113782   7.772   7.593   4.844 -0.3015  0.0570 -0.2819
 4613TIP3    H213783   7.682   7.584   4.965  0.3406 -0.2211  0.1844
 4614TIP3   OH213784   5.312   5.085   3.191 -0.1491 -0.1972  0.1880
 4614TIP3    H113785   5.366   5.061   3.116  0.4627  2.1598 -0.2113
 4614TIP3    H213786   5.365   5.148   3.240 -2.0699  1.3358  0.4171
 4615TIP3   OH213787   2.752   7.782   5.394  0.4392 -0.1876 -0.4589
 4615TIP3    H113788   2.783   7.868   5.366  1.1042 -0.1759  0.2903
 4615TIP3    H213789   2.663   7.797   5.426  0.2489  0.0675 -1.0925
 4616TIP3   OH213790   8.045   4.194   4.849  0.0164  0.6683  0.3221
 4616TIP3    H113791   8.045   4.100   4.864  1.0385  0.5902 -0.0756
 4616TIP3    H213792   7.993   4.230   4.920  0.9115 -0.0782  1.3943
 4617TIP3   OH213793   2.220   1.939   6.583 -0.3634  0.2470 -0.9398
 4617TIP3    H113794   2.296   1.890   6.552 -1.6563 -1.3931 -1.6658
 4617TIP3    H213795   2.240   1.961   6.673  0.7492 -0.6251 -0.9553
 4618TIP3   OH213796   1.320   1.988   3.650  0.2834 -0.3935  0.7746
 4618TIP3    H113797   1.310   2.048   3.725 -0.8165 -1.5166  1.5561
 4618TIP3    H213798   1.268   2.028   3.580  1.2194  0.6041  0.6178
 4619TIP3   OH213799   7.399   7.125   0.849 -0.4876  0.3059  0.1527
 4619TIP3    H113800   7.458   7.065   0.804 -0.1336  0.6971  0.0923
 4619TIP3    H213801   7.399   7.204   0.795 -0.2417  0.6908  0.7127
 4620TIP3   OH213802   6.063   7.441   2.406 -0.3344 -0.3778  0.3308
 4620TIP3    H113803   6.045   7.515   2.464 -2.7704 -2.1451  2.0142
 4620TIP3    H213804   6.105   7.480   2.329 -1.9959  2.8012  0.8974
 4621TIP3   OH213805   4.776   4.404   4.273  0.9618 -0.2287 -0.2122
 4621TIP3    H113806   4.819   4.384   4.356 -0.5619 -1.2573  0.3872
 4621TIP3    H213807   4.841   4.383   4.206  2.3111  0.8868  0.7112
 4622TIP3   OH213808   0.864   3.348   0.894 -0.1532 -0.2774 -0.3908
 4622TIP3    H113809   0.898   3.383   0.812 -0.6313 -0.4451 -0.6642
 4622TIP3    H213810   0.774   3.320   0.874 -0.9174  1.3020  0.6085
 4623TIP3   OH213811   2.215   3.229   5.428  0.3068  0.6314 -0.5709
 4623TIP3    H113812   2.239   3.166   5.496 -1.6635  1.3487  0.8659
 4623TIP3    H213813   2.224   3.180   5.346 -0.9897 -1.4794  0.4622
 4624TIP3   OH213814   5.690   5.770   3.031  0.3679  0.3294  0.1116
 4624TIP3    H113815   5.657   5.699   2.976 -0.1487  1.0098 -0.4896
 4624TIP3    H213816   5.611   5.810   3.068  0.3383  2.6339 -2.1660
 4625TIP3   OH213817   2.138   5.335   2.553  0.4528  0.5362  0.0639
 4625TIP3    H113818   2.123   5.321   2.646 -0.7624  0.0694 -0.1732
 4625TIP3    H213819   2.083   5.269   2.510 -0.5252  1.9660 -1.0014
 4626TIP3   OH213820   6.549   6.267   5.716  0.2648 -0.2907 -0.7751
 4626TIP3    H113821   6.492   6.257   5.793 -2.4120  1.4682 -2.3615
 4626TIP3    H213822   6.607   6.340   5.739 -0.1412 -0.1381 -0.2093
 4627TIP3   OH213823   4.100   7.050   0.522  0.3759  0.5581  0.2720
 4627TIP3    H113824   4.036   6.989   0.487 -0.6981  2.0428 -0.4998
 4627TIP3    H213825   4.148   7.080   0.444  0.6966  0.8930  0.5974
 4628TIP3   OH213826   8.197   0.861   3.520  0.7461 -0.0148  0.2009
 4628TIP3    H113827   8.252   0.858   3.442  3.3903 -0.2331  1.9667
 4628TIP3    H213828   8.163   0.772   3.529 -0.3623  0.2294 -1.1402
 4629TIP3   OH213829   0.139   7.688   3.055 -0.8128 -0.1799 -0.0964
 4629TIP3    H113830   0.118   7.720   2.967 -1.6784  0.9777  0.5086
 4629TIP3    H213831   0.107   7.756   3.114 -2.4262 -1.9962  1.2376
 4630TIP3   OH213832   4.637   1.976   4.601 -0.5653 -0.1130  0.2694
 4630TIP3    H113833   4.640   1.883   4.620 -0.6303 -0.0255  0.7163
 4630TIP3    H213834   4.545   1.995   4.587 -0.7034  0.1247  1.4240
 4631TIP3   OH213835   0.941   7.779   0.784  0.1394  0.1457  0.4625
 4631TIP3    H113836   0.998   7.785   0.861  0.8682 -2.2492  0.2038
 4631TIP3    H213837   0.992   7.818   0.713  0.3867  0.3582  0.7560
 4632TIP3   OH213838   0.731   7.345   2.938  0.6169  0.0119 -0.0215
 4632TIP3    H113839   0.766   7.266   2.897 -1.1373 -0.1329 -1.3498
 4632TIP3    H213840   0.727   7.324   3.032 -1.1285 -2.0432 -0.4842
 4633TIP3   OH213841   6.843   6.304   5.588 -0.3965  0.5844  0.3917
 4633TIP3    H113842   6.899   6.276   5.660 -0.1437  3.0505  1.2604
 4633TIP3    H213843   6.754   6.282   5.616 -0.0709 -1.9401 -0.3098
 4634TIP3   OH213844   5.540   5.925   0.819 -0.1547 -0.4787 -0.4127
 4634TIP3    H113845   5.544   5.958   0.729 -1.8319 -1.2850 -0.8247
 4634TIP3    H213846   5.628   5.889   0.835  0.4632  0.5377 -1.3681
 4635TIP3   OH213847   6.312   6.199   4.128  0.1319  0.1685  0.0116
 4635TIP3    H113848   6.266   6.229   4.206 -0.7164  1.4904 -0.9577
 4635TIP3    H213849   6.400   6.236   4.136 -1.1136  3.9743 -1.5728
 4636TIP3   OH213850   6.902   7.098   4.987 -0.1899 -0.0698  0.0911
 4636TIP3    H113851   6.986   7.054   4.980  0.9742  1.9879  0.2192
 4636TIP3    H213852   6.857   7.077   4.905  0.9335 -0.2795 -0.4904
 4637TIP3   OH213853   5.616   0.194   1.194  0.1628  0.3858  0.6465
 4637TIP3    H113854   5.677   0.122   1.176  1.4228  1.3664  0.8420
 4637TIP3    H213855   5.589   0.225   1.108  1.4441  1.1624  0.5006
 4638TIP3   OH213856   6.967   2.932   0.420 -0.2061 -0.4385 -0.4323
 4638TIP3    H113857   6.994   2.925   0.512 -0.3503  0.4557 -0.3152
 4638TIP3    H213858   6.904   3.004   0.419 -1.4015 -1.4501 -0.9666
 4639TIP3   OH213859   5.845   5.206   2.222 -0.0115 -0.3404 -0.3995
 4639TIP3    H113860   5.789   5.188   2.146  0.9565  1.5472 -1.6260
 4639TIP3    H213861   5.927   5.238   2.185  1.3207 -1.4881  1.4137
 4640TIP3   OH213862   6.836   5.705   6.256  0.1293  0.0605  0.9367
 4640TIP3    H113863   6.833   5.624   6.306 -2.1516 -1.2945 -1.1650
 4640TIP3    H213864   6.902   5.689   6.188 -1.1840 -0.6083 -0.2380
 4641TIP3   OH213865   0.801   7.041   1.776  0.1396 -0.0011  0.0564
 4641TIP3    H113866   0.761   6.962   1.740 -0.7211 -0.9789  2.8758
 4641TIP3    H213867   0.748   7.061   1.853  1.8070  1.9381  0.7708
 4642TIP3   OH213868   0.543   2.023   0.825  0.1481 -0.0374  0.0223
 4642TIP3    H113869   0.523   2.075   0.746 -2.1094 -1.1049 -0.1896
 4642TIP3    H213870   0.553   1.933   0.792 -0.1340 -0.3848  0.8760
 4643TIP3   OH213871   5.649   1.099   2.721 -0.2626 -0.0608  0.2327
 4643TIP3    H113872   5.729   1.047   2.715 -0.2248 -0.2712  1.9818
 4643TIP3    H213873   5.587   1.054   2.664  1.3197  1.1593 -2.6810
 4644TIP3   OH213874   5.714   5.288   1.544 -0.0637 -0.3156  0.7903
 4644TIP3    H113875   5.780   5.354   1.566  0.2653  0.5815 -2.3623
 4644TIP3    H213876   5.633   5.323   1.581  0.3422  1.2198  0.3208
 4645TIP3   OH213877   5.321   0.391   1.453  0.1368  0.2620 -0.2050
 4645TIP3    H113878   5.236   0.429   1.429 -0.6229 -1.1990  0.0459
 4645TIP3    H213879   5.324   0.397   1.548  0.6356  0.9316 -0.2558
 4646TIP3   OH213880   8.225   6.778   4.440 -0.5012  0.5545  0.1767
 4646TIP3    H113881   8.159   6.720   4.477  0.8104 -0.6539  0.7045
 4646TIP3    H213882   8.274   6.810   4.516 -0.1977  1.0922 -0.2375
 4647TIP3   OH213883   8.093   7.807   0.105  0.0345  0.6601  0.8227
 4647TIP3    H113884   8.169   7.804   0.047 -0.9930  1.1961 -0.5941
 4647TIP3    H213885   8.020   7.830   0.048 -1.1955  0.2215  2.1636
 4648TIP3   OH213886   4.006   6.537   0.801 -0.3371 -0.1032 -0.3281
 4648TIP3    H113887   3.946   6.479   0.847 -1.3691  0.2142 -1.2203
 4648TIP3    H213888   4.076   6.556   0.864 -0.3973 -1.6573  0.2344
 4649TIP3   OH213889   6.434   0.451   4.802  0.2148 -0.0163 -0.0625
 4649TIP3    H113890   6.423   0.369   4.849  0.3977 -0.5190 -0.8604
 4649TIP3    H213891   6.369   0.447   4.731  0.9825 -0.0062 -0.7902
 4650TIP3   OH213892   6.987   6.569   1.206 -0.2556 -0.2134  0.1817
 4650TIP3    H113893   7.059   6.608   1.256  1.1259 -0.3728 -1.5522
 4650TIP3    H213894   6.933   6.525   1.271  1.1289  0.0530  1.5730
 4651TIP3   OH213895   5.147   4.742   5.012 -0.1657 -0.1728  0.2662
 4651TIP3    H113896   5.073   4.683   5.028 -0.5781  0.0171 -0.8647
 4651TIP3    H213897   5.223   4.692   5.043 -0.6142 -0.8986  0.2422
 4652TIP3   OH213898   6.796   1.406   6.740 -0.2968 -0.3429 -0.2616
 4652TIP3    H113899   6.863   1.351   6.700  0.4975  0.6322 -0.3124
 4652TIP3    H213900   6.822   1.496   6.719 -2.2277  0.0483 -1.2351
 4653TIP3   OH213901   6.988   7.696   2.345 -0.4501  0.1259  0.2792
 4653TIP3    H113902   6.949   7.639   2.411 -1.2440  0.8084  0.4191
 4653TIP3    H213903   7.019   7.637   2.277  1.2146 -0.6606  1.6593
 4654TIP3   OH213904   7.081   7.398   6.709  0.0903 -0.0101  0.0578
 4654TIP3    H113905   7.041   7.423   6.793  2.1097  2.5595  0.4138
 4654TIP3    H213906   7.138   7.325   6.730  0.8097  0.8053  1.0626
 4655TIP3   OH213907   0.215   0.282   4.245 -0.3027  0.2002  0.7241
 4655TIP3    H113908   0.192   0.221   4.174  1.1693 -1.3736  1.5216
 4655TIP3    H213909   0.304   0.310   4.224 -0.4546  0.9980  1.1186
 4656TIP3   OH213910   2.363   3.297   4.416  0.1665 -0.5284 -0.0382
 4656TIP3    H113911   2.393   3.386   4.397  0.7909 -0.4965  1.0223
 4656TIP3    H213912   2.442   3.243   4.415  0.0250 -0.7787  0.8938
 4657TIP3   OH213913   1.473   2.821   3.190 -0.2193 -0.1904 -0.0104
 4657TIP3    H113914   1.538   2.827   3.120 -0.4340  1.1871 -0.1184
 4657TIP3    H213915   1.453   2.912   3.212 -0.7259 -0.6038  1.3170
 4658TIP3   OH213916   6.296   5.582   2.915  0.2542  0.0954 -0.1035
 4658TIP3    H113917   6.254   5.647   2.971  1.4632 -0.2310  1.2286
 4658TIP3    H213918   6.328   5.514   2.975  1.6534 -0.2407 -1.1650
 4659TIP3   OH213919   1.024   6.402   6.015  0.5163 -0.1475 -0.0903
 4659TIP3    H113920   0.969   6.404   5.937 -0.5001  0.8134  0.6276
 4659TIP3    H213921   0.964   6.418   6.087  1.5739 -0.1870  0.8184
 4660TIP3   OH213922   1.089   4.320   2.455 -0.0723  0.1724  0.0632
 4660TIP3    H113923   1.040   4.245   2.489 -3.0731  2.0839  0.3467
 4660TIP3    H213924   1.150   4.282   2.392 -0.7842 -2.5743  0.8986
 4661TIP3   OH213925   3.440   3.676   3.708 -0.7706  0.1874 -0.2164
 4661TIP3    H113926   3.406   3.632   3.786 -0.0838 -2.8229 -1.5058
 4661TIP3    H213927   3.527   3.640   3.696 -0.0179  2.1984 -1.2407
 4662TIP3   OH213928   2.611   4.034   0.419  0.3319  0.7751  0.1458
 4662TIP3    H113929   2.616   4.118   0.374 -2.2284  1.0090  0.1502
 4662TIP3    H213930   2.527   4.036   0.465  1.0906 -1.0344  1.7438
 4663TIP3   OH213931   4.336   0.359   5.345  0.3854 -0.1126  0.7965
 4663TIP3    H113932   4.309   0.427   5.408  1.3591  0.8731  0.1841
 4663TIP3    H213933   4.359   0.284   5.399 -0.9235 -0.0610  1.4825
 4664TIP3   OH213934   4.595   1.950   1.666  0.1253 -0.3990 -0.3632
 4664TIP3    H113935   4.505   1.915   1.663  0.5096 -1.4709 -0.0279
 4664TIP3    H213936   4.584   2.045   1.666 -1.0507 -0.5091  0.6234
 4665TIP3   OH213937   0.565   4.342   0.513 -0.3486  0.0823 -0.2814
 4665TIP3    H113938   0.617   4.327   0.434  0.9828 -1.0520  0.7508
 4665TIP3    H213939   0.584   4.433   0.537  0.2456  0.0420 -0.5695
 4666TIP3   OH213940   1.330   6.915   0.907 -0.7471  0.0911 -0.2360
 4666TIP3    H113941   1.364   6.850   0.969  0.3665  1.5970  0.8243
 4666TIP3    H213942   1.235   6.909   0.915 -0.6846 -1.5133 -0.3189
 4667TIP3   OH213943   0.489   6.363   4.837  0.0075  0.6583  0.0983
 4667TIP3    H113944   0.509   6.452   4.807 -1.0475  0.5824 -0.9025
 4667TIP3    H213945   0.567   6.337   4.887  0.3095  2.1592  0.4788
 4668TIP3   OH213946   4.626   5.742   0.851 -0.2934 -0.1485 -0.1077
 4668TIP3    H113947   4.654   5.689   0.925  0.3254  0.6893  0.2822
 4668TIP3    H213948   4.534   5.764   0.870 -0.0543  0.3092  0.5766
 4669TIP3   OH213949   0.192   2.244   0.298 -0.1609  0.6916 -0.1553
 4669TIP3    H113950   0.254   2.289   0.241 -0.9166  1.3700 -0.4613
 4669TIP3    H213951   0.245   2.181   0.347  0.2219 -1.5467 -3.1704
 4670TIP3   OH213952   6.791   4.108   6.567 -0.0529  0.5708  0.3012
 4670TIP3    H113953   6.759   4.176   6.508  0.4664  0.2071 -0.4282
 4670TIP3    H213954   6.727   4.105   6.638 -0.1454  1.7201  0.2765
 4671TIP3   OH213955   2.761   1.138   5.845 -0.2459  0.1292  0.2258
 4671TIP3    H113956   2.816   1.188   5.906  1.1313 -1.4234  0.3122
 4671TIP3    H213957   2.796   1.049   5.847 -0.0963  0.0026 -2.8628
 4672TIP3   OH213958   3.660   6.914   3.238  0.0396 -0.0061 -0.0932
 4672TIP3    H113959   3.583   6.861   3.253  1.8570 -2.9731 -0.5214
 4672TIP3    H213960   3.722   6.856   3.194  1.7433  2.8660 -1.8408
 4673TIP3   OH213961   2.966   2.918   6.348  0.6520  0.6528 -0.3485
 4673TIP3    H113962   2.887   2.912   6.402  1.6835  1.5625  1.3376
 4673TIP3    H213963   3.036   2.938   6.410  2.6259 -2.1580 -1.4682
 4674TIP3   OH213964   3.992   0.633   0.288  0.0904  0.0649 -0.2599
 4674TIP3    H113965   3.909   0.659   0.249 -0.7806 -0.0669  1.4422
 4674TIP3    H213966   4.024   0.712   0.332  0.2656 -0.1985  0.0891
 4675TIP3   OH213967   2.367   7.240   0.137  0.1304  0.0739  0.5194
 4675TIP3    H113968   2.314   7.161   0.136  0.7072 -0.3119  0.1547
 4675TIP3    H213969   2.315   7.305   0.089 -0.8681  0.2831  1.8034
 4676TIP3   OH213970   7.516   0.540   5.160 -0.0383  0.0890  0.0331
 4676TIP3    H113971   7.555   0.613   5.208  0.2702  0.8542 -1.3462
 4676TIP3    H213972   7.518   0.467   5.222 -1.0471  1.4126  1.7185
 4677TIP3   OH213973   7.919   3.608   3.867  0.7036 -0.3537 -0.1379
 4677TIP3    H113974   7.947   3.605   3.775 -0.3910  2.6119 -0.6865
 4677TIP3    H213975   7.916   3.702   3.888 -1.5743 -0.8285  2.1323
 4678TIP3   OH213976   1.158   3.929   4.680  0.1297  0.0299  0.2564
 4678TIP3    H113977   1.157   4.017   4.641 -0.0416  0.3562  0.9744
 4678TIP3    H213978   1.135   3.871   4.608  1.0956  0.4818 -0.4437
 4679TIP3   OH213979   4.700   1.595   1.076  0.1752 -0.0939 -0.0890
 4679TIP3    H113980   4.644   1.621   1.003 -0.2471 -0.5615  0.0668
 4679TIP3    H213981   4.743   1.676   1.103 -1.1765  0.4609  0.4406
 4680TIP3   OH213982   8.016   0.244   1.404 -0.6051 -0.1954 -0.4165
 4680TIP3    H113983   8.084   0.261   1.339  0.1737  2.7401  0.9625
 4680TIP3    H213984   7.937   0.284   1.367 -0.8435 -0.9474 -0.7255
 4681TIP3   OH213985   5.897   5.004   4.624 -0.4052  0.4085  0.3634
 4681TIP3    H113986   5.886   4.910   4.604  0.7982  0.6745 -1.9479
 4681TIP3    H213987   5.813   5.030   4.661 -1.3968 -1.2406 -0.5678
 4682TIP3   OH213988   6.155   6.650   0.412  0.5131 -0.1635 -0.2039
 4682TIP3    H113989   6.149   6.726   0.471  0.6345  1.2417 -1.9251
 4682TIP3    H213990   6.070   6.607   0.421  0.8648 -0.5748  1.6998
 4683TIP3   OH213991   1.687   3.352   3.191 -0.1643 -0.0530 -0.4398
 4683TIP3    H113992   1.737   3.336   3.111 -1.9825 -1.0217 -1.4606
 4683TIP3    H213993   1.659   3.443   3.185  1.5469  0.5418  0.2186
 4684TIP3   OH213994   3.118   5.930   4.646  0.8345  0.6346 -0.1703
 4684TIP3    H113995   3.145   5.839   4.656  1.1660  0.5151 -1.7797
 4684TIP3    H213996   3.098   5.960   4.735  0.5902 -1.0353  0.3670
 4685TIP3   OH213997   2.993   3.085   0.021  0.0058  0.2289 -0.3244
 4685TIP3    H113998   3.083   3.094   0.054 -0.0243 -2.1572  0.5808
 4685TIP3    H213999   2.946   3.157   0.064  1.2726  0.9645 -0.0821
 4686TIP3   OH214000   6.498   1.882   5.638  0.5229  0.4446 -0.2419
 4686TIP3    H114001   6.528   1.956   5.584  0.0601  1.1461  0.4383
 4686TIP3    H214002   6.423   1.846   5.591  1.3125 -0.1922 -1.0474
 4687TIP3   OH214003   1.130   5.289   6.504 -0.0616 -0.0568  0.6336
 4687TIP3    H114004   1.193   5.355   6.534  1.4384 -0.4846 -1.3661
 4687TIP3    H214005   1.097   5.324   6.421  0.2112 -1.4829 -0.0997
 4688TIP3   OH214006   0.368   2.802   1.339 -0.3837 -0.2412  0.4357
 4688TIP3    H114007   0.388   2.789   1.246 -1.5489  0.4347  0.0725
 4688TIP3    H214008   0.417   2.881   1.363  1.3844 -1.4217  0.9088
 4689TIP3   OH214009   3.150   1.059   1.192 -0.1648 -0.2761  0.2062
 4689TIP3    H114010   3.136   1.058   1.287  0.8038 -0.3953  0.3593
 4689TIP3    H214011   3.066   1.086   1.156 -0.6327 -0.5218  1.0826
 4690TIP3   OH214012   7.163   5.122   1.759 -0.1679 -0.0563  0.1033
 4690TIP3    H114013   7.147   5.177   1.835  1.8602 -0.7239  1.0942
 4690TIP3    H214014   7.170   5.033   1.796 -1.0755 -0.6650 -1.1366
 4691TIP3   OH214015   6.589   0.882   1.198  0.2104 -0.4035  0.4148
 4691TIP3    H114016   6.670   0.887   1.250  0.5556 -0.3009 -0.1293
 4691TIP3    H214017   6.523   0.927   1.252  0.6157 -0.1122  0.6752
 4692TIP3   OH214018   2.237   2.837   5.119  0.1121  0.2232  0.3139
 4692TIP3    H114019   2.220   2.810   5.209 -0.2217  1.2929  0.5941
 4692TIP3    H214020   2.311   2.783   5.091  1.4207  1.1115  1.8575
 4693TIP3   OH214021   2.809   2.056   6.674 -0.6245 -0.0109 -0.1298
 4693TIP3    H114022   2.820   2.083   6.766 -1.5298  0.0171 -0.0175
 4693TIP3    H214023   2.846   2.128   6.624  2.0441 -1.0453  0.2000
 4694TIP3   OH214024   7.217   6.127   1.587 -0.3828  0.1368 -0.2251
 4694TIP3    H114025   7.231   6.143   1.680 -0.7149 -0.3089 -0.0893
 4694TIP3    H214026   7.185   6.037   1.584  0.7412 -0.2495 -0.8814
 4695TIP3   OH214027   6.675   6.069   0.422 -0.9629 -0.0670  0.6746
 4695TIP3    H114028   6.626   6.081   0.340  1.1711 -0.3273 -0.7170
 4695TIP3    H214029   6.647   5.983   0.454  0.4816 -1.4677 -1.5580
 4696TIP3   OH214030   5.611   4.529   0.118 -0.2923  0.2302 -0.1401
 4696TIP3    H114031   5.572   4.529   0.031 -1.7555 -1.3547  0.4646
 4696TIP3    H214032   5.544   4.569   0.174  1.7991  4.1901 -0.0982
 4697TIP3   OH214033   7.501   5.456   3.619 -0.1363  0.2214  0.4729
 4697TIP3    H114034   7.481   5.402   3.542 -1.4248  0.6835  0.4603
 4697TIP3    H214035   7.474   5.401   3.693 -1.8772  0.9610  0.4447
 4698TIP3   OH214036   8.050   5.233   3.835  0.5463 -0.4380 -0.3077
 4698TIP3    H114037   8.087   5.275   3.912  0.1399  0.3831 -0.5483
 4698TIP3    H214038   8.067   5.294   3.764 -0.3654 -0.5094 -0.6059
 4699TIP3   OH214039   1.483   3.675   5.285  0.2146 -0.3507 -0.0049
 4699TIP3    H114040   1.470   3.748   5.346  1.4320  0.8741 -1.1643
 4699TIP3    H214041   1.554   3.704   5.228  0.9689 -2.5961 -0.2868
 4700TIP3   OH214042   3.949   0.485   6.484 -0.5278  0.5059  0.5447
 4700TIP3    H114043   3.987   0.398   6.471  0.2785  0.7477  1.2770
 4700TIP3    H214044   3.855   0.471   6.469 -0.3862 -0.4432  0.4414
 4701TIP3   OH214045   3.445   1.168   1.637  0.0896 -0.0810 -0.0825
 4701TIP3    H114046   3.440   1.228   1.712  0.8850  1.7545 -1.4142
 4701TIP3    H214047   3.364   1.118   1.641  0.3428 -0.4431  2.2811
 4702TIP3   OH214048   1.340   1.687   2.618  0.2680  0.0240  0.2744
 4702TIP3    H114049   1.363   1.779   2.603  1.0157 -0.0293  1.0339
 4702TIP3    H214050   1.424   1.642   2.626  0.0174 -0.1150  3.4958
 4703TIP3   OH214051   1.310   0.539   3.504 -0.4386  0.0412 -0.0959
 4703TIP3    H114052   1.223   0.569   3.478 -0.7575  0.0616  0.9674
 4703TIP3    H214053   1.298   0.500   3.590  0.4362 -0.8253 -0.3402
 4704TIP3   OH214054   0.445   5.309   1.335  0.1920  0.0967 -0.0917
 4704TIP3    H114055   0.366   5.355   1.363 -2.5212 -2.3189 -2.9593
 4704TIP3    H214056   0.507   5.378   1.311 -0.7236  2.0918  2.8348
 4705TIP3   OH214057   6.770   2.744   3.917  0.2736  0.2913  0.3213
 4705TIP3    H114058   6.743   2.707   3.833 -1.6901  3.1974 -0.4677
 4705TIP3    H214059   6.866   2.751   3.911  0.2870 -0.7853 -1.0734
 4706TIP3   OH214060   1.310   2.459   0.648  0.1116 -0.2097 -0.4604
 4706TIP3    H114061   1.236   2.479   0.705  1.3358 -0.6656  1.3773
 4706TIP3    H214062   1.377   2.523   0.672  0.6713 -0.4243 -1.3928
 4707TIP3   OH214063   0.535   5.736   0.808 -0.2151  0.3024  0.1738
 4707TIP3    H114064   0.595   5.662   0.799 -0.7516 -0.9266  4.4770
 4707TIP3    H214065   0.480   5.732   0.730  1.6837 -1.9576 -1.1786
 4708TIP3   OH214066   6.813   0.726   0.510 -0.0004  0.4543 -0.2281
 4708TIP3    H114067   6.751   0.733   0.582 -0.2853 -1.7889 -0.2135
 4708TIP3    H214068   6.760   0.698   0.435  0.7058  0.3263 -0.6869
 4709TIP3   OH214069   3.966   6.561   2.593 -0.2584  0.4230 -0.1693
 4709TIP3    H114070   4.009   6.497   2.650 -0.1204  0.9457  0.3205
 4709TIP3    H214071   3.878   6.525   2.578  0.2403 -0.5312 -0.9761
 4710TIP3   OH214072   3.870   6.692   5.480  0.1410  0.7957 -0.6177
 4710TIP3    H114073   3.883   6.786   5.464 -0.0807  1.0069  0.4003
 4710TIP3    H214074   3.795   6.669   5.425  1.9511  0.5268 -3.1758
 4711TIP3   OH214075   3.965   0.171   1.190 -0.1310 -0.3389  0.1412
 4711TIP3    H114076   4.033   0.234   1.216 -0.6736  0.3838 -0.1714
 4711TIP3    H214077   4.009   0.115   1.126  0.3744 -0.3102  0.4557
 4712TIP3   OH214078   4.601   7.449   2.269  0.0745 -0.3390 -0.1175
 4712TIP3    H114079   4.681   7.477   2.314  0.3987 -1.8987  0.3362
 4712TIP3    H214080   4.573   7.372   2.317 -1.0511 -0.5090 -1.0148
 4713TIP3   OH214081   0.042   4.436   5.547 -0.3831  0.3739 -0.5497
 4713TIP3    H114082   0.132   4.429   5.514  0.2492  2.7592  0.4607
 4713TIP3    H214083   0.011   4.520   5.512 -2.4638 -0.6441 -1.3283
 4714TIP3   OH214084   3.166   7.069   6.260  0.3758  0.1948 -0.0413
 4714TIP3    H114085   3.110   7.110   6.327 -0.2646 -1.3323  0.3939
 4714TIP3    H214086   3.157   7.127   6.184 -0.1790  1.0809  0.6684
 4715TIP3   OH214087   3.958   6.455   5.027 -0.2371 -0.0764 -0.1767
 4715TIP3    H114088   3.995   6.537   5.058 -0.9009  0.5475 -0.9833
 4715TIP3    H214089   3.876   6.446   5.075 -1.8873  1.5173 -2.4935
 4716TIP3   OH214090   2.376   1.281   0.219 -0.4747  0.0712  0.1003
 4716TIP3    H114091   2.400   1.191   0.240 -0.8715 -0.0501  0.0358
 4716TIP3    H214092   2.289   1.293   0.257 -0.6059  0.2897 -0.2577
 4717TIP3   OH214093   1.096   1.100   3.367 -0.0481 -0.3580 -0.1934
 4717TIP3    H114094   1.166   1.041   3.338 -0.8223 -0.3914 -2.1732
 4717TIP3    H214095   1.142   1.180   3.392  0.7375 -0.2576 -1.7906
 4718TIP3   OH214096   0.436   3.144   2.350 -0.5723 -0.2293 -0.0396
 4718TIP3    H114097   0.456   3.212   2.285  1.1001 -0.8608 -0.2222
 4718TIP3    H214098   0.364   3.094   2.311  0.6364 -0.8318 -1.6160
 4719TIP3   OH214099   4.577   0.879   5.984 -0.2315  0.3939 -0.3594
 4719TIP3    H114100   4.595   0.967   6.016 -1.0879  0.5557 -0.2807
 4719TIP3    H214101   4.485   0.883   5.954 -0.3993 -0.5697 -0.0048
 4720TIP3   OH214102   3.205   2.039   6.264  0.3406 -0.1297  0.2361
 4720TIP3    H114103   3.121   2.010   6.300 -0.5243  0.1259 -1.4887
 4720TIP3    H214104   3.258   2.060   6.341 -1.4242  0.4061  1.3585
 4721TIP3   OH214105   6.553   4.967   0.051 -0.1820  0.3817 -0.0594
 4721TIP3    H114106   6.634   5.008   0.081  0.7649 -1.7106  0.4440
 4721TIP3    H214107   6.581   4.885   0.011 -1.8410  0.9517 -2.6414
 4722TIP3   OH214108   1.970   7.220   3.438 -0.1023  0.8671 -0.1471
 4722TIP3    H114109   2.043   7.196   3.495  0.4004  0.1086 -1.0754
 4722TIP3    H214110   1.902   7.156   3.459  1.2207 -1.5660 -2.5837
 4723TIP3   OH214111   4.655   1.239   4.127 -0.3040  0.2564 -0.3897
 4723TIP3    H114112   4.576   1.290   4.144 -1.6217 -1.7306 -0.2639
 4723TIP3    H214113   4.675   1.197   4.211  0.3804  0.0653 -0.6374
 4724TIP3   OH214114   2.187   5.050   2.684  0.1370 -0.0967  0.1293
 4724TIP3    H114115   2.246   5.112   2.642 -1.0755 -0.0436 -1.5863
 4724TIP3    H214116   2.125   5.025   2.615 -0.5753 -1.7338  1.3030
 4725TIP3   OH214117   6.096   7.640   1.664  0.4325 -0.0051  0.1500
 4725TIP3    H114118   6.150   7.570   1.703 -0.4238 -0.3499  0.7518
 4725TIP3    H214119   6.121   7.641   1.572  1.8839  0.2367  0.5300
 4726TIP3   OH214120   5.493   0.852   1.940 -0.1734  0.0145  0.5365
 4726TIP3    H114121   5.441   0.927   1.970 -0.2927 -0.3128  1.1588
 4726TIP3    H214122   5.554   0.890   1.877 -0.0606  0.6839  1.0282
 4727TIP3   OH214123   7.865   2.669   1.699 -0.0163 -0.4991 -0.1761
 4727TIP3    H114124   7.771   2.650   1.697 -0.0992 -0.1328  0.1047
 4727TIP3    H214125   7.873   2.755   1.658 -0.0479  0.3850  1.5482
 4728TIP3   OH214126   3.250   4.196   3.207 -0.0148 -0.1675 -0.1831
 4728TIP3    H114127   3.240   4.203   3.302  0.9056 -1.2597  0.0132
 4728TIP3    H214128   3.268   4.103   3.191  2.7357  0.4131 -1.1074
 4729TIP3   OH214129   1.379   4.553   4.668 -0.3857 -0.4916 -0.3817
 4729TIP3    H114130   1.316   4.572   4.737  1.4414 -0.8437  1.4835
 4729TIP3    H214131   1.401   4.638   4.631  1.1927  0.1833  1.9123
 4730TIP3   OH214132   7.471   2.007   2.853  0.2055  0.7714  0.1505
 4730TIP3    H114133   7.387   2.046   2.876  0.3283  1.1162  0.0340
 4730TIP3    H214134   7.536   2.060   2.899  0.2867 -0.4799  1.5363
 4731TIP3   OH214135   6.270   7.529   2.687  0.0090 -0.2136  0.2626
 4731TIP3    H114136   6.306   7.611   2.720  1.9286 -0.8552 -0.1358
 4731TIP3    H214137   6.193   7.513   2.742 -1.8573  2.9694 -1.0799
 4732TIP3   OH214138   5.812   4.336   3.983  0.6117 -0.0769  0.0122
 4732TIP3    H114139   5.779   4.254   4.021 -0.4484  0.5209  0.4178
 4732TIP3    H214140   5.899   4.346   4.021  0.2736 -0.4109  0.9194
 4733TIP3   OH214141   0.810   5.815   0.260 -0.1148 -0.0665  0.3065
 4733TIP3    H114142   0.803   5.732   0.214 -3.8349 -0.8638  1.9050
 4733TIP3    H214143   0.884   5.804   0.319 -0.6127 -2.3736  0.5847
 4734TIP3   OH214144   6.061   3.610   3.822  0.2673 -0.2180 -1.1594
 4734TIP3    H114145   6.062   3.548   3.895 -0.0572  1.3085  0.1969
 4734TIP3    H214146   6.153   3.631   3.807  0.2428  2.0739  1.2122
 4735TIP3   OH214147   7.739   6.818   0.101  0.3860 -0.3670 -0.3400
 4735TIP3    H114148   7.647   6.811   0.127  0.8818 -0.9877  1.3549
 4735TIP3    H214149   7.740   6.786   0.010 -1.0442 -0.4549 -0.3469
 4736TIP3   OH214150   5.479   3.083   5.677  0.2052  0.4326 -0.0774
 4736TIP3    H114151   5.542   3.069   5.748  0.5026  0.1363 -0.3936
 4736TIP3    H214152   5.470   3.178   5.671  1.8044  0.5702 -1.0418
 4737TIP3   OH214153   8.081   6.219   5.411 -0.6517  0.7695  0.0247
 4737TIP3    H114154   8.034   6.159   5.354 -1.0449  0.5911  0.5268
 4737TIP3    H214155   8.174   6.202   5.392 -0.7668  0.2576 -0.0940
 4738TIP3   OH214156   4.061   7.563   5.082 -0.4392 -0.1649  0.3702
 4738TIP3    H114157   3.983   7.582   5.029 -0.6207 -0.5933  0.4812
 4738TIP3    H214158   4.087   7.648   5.117 -0.2081  0.1638 -0.5467
 4739TIP3   OH214159   4.172   6.694   3.292 -0.3238 -0.2301  0.3544
 4739TIP3    H114160   4.107   6.750   3.334 -0.9995 -1.6943  1.3436
 4739TIP3    H214161   4.124   6.613   3.271 -0.3329  0.7027 -4.2477
 4740TIP3   OH214162   7.955   6.393   0.064  0.1122  0.1803  0.1848
 4740TIP3    H114163   8.021   6.425   0.126  0.5940  0.4554 -0.4537
 4740TIP3    H214164   8.003   6.329   0.010 -0.7599 -1.4711  1.2737
 4741TIP3   OH214165   4.216   0.273   2.567  0.4644 -0.5391  0.2270
 4741TIP3    H114166   4.173   0.235   2.491  0.1357  2.5567 -1.3053
 4741TIP3    H214167   4.286   0.328   2.531 -0.0124  1.4118  2.0372
 4742TIP3   OH214168   5.188   6.122   2.992 -0.8706 -0.0147  0.0665
 4742TIP3    H114169   5.094   6.136   2.981 -0.6942  0.1630 -1.3686
 4742TIP3    H214170   5.226   6.141   2.906  0.5680  0.6712  0.8102
 4743TIP3   OH214171   0.268   5.095   6.196 -0.1263  0.5266 -0.0131
 4743TIP3    H114172   0.178   5.094   6.229  0.6207 -1.7101  2.3749
 4743TIP3    H214173   0.260   5.078   6.103 -2.1554 -1.3525  0.4155
 4744TIP3   OH214174   7.952   0.397   3.282  0.7131 -0.3188  0.8649
 4744TIP3    H114175   7.946   0.301   3.291  1.4609 -0.5254 -0.4999
 4744TIP3    H214176   8.040   0.412   3.247  0.7981  0.9210  1.5703
 4745TIP3   OH214177   4.732   5.664   6.433 -0.0733  0.0790 -0.0787
 4745TIP3    H114178   4.699   5.597   6.373 -1.0037  0.7133 -0.3098
 4745TIP3    H214179   4.757   5.737   6.377 -2.9197  1.5234  0.3091
 4746TIP3   OH214180   0.706   6.398   3.552 -0.6860 -0.3127 -0.1884
 4746TIP3    H114181   0.721   6.435   3.464  0.9198 -0.0540  0.1571
 4746TIP3    H214182   0.761   6.452   3.609  0.0011 -1.8498  0.6541
 4747TIP3   OH214183   2.214   7.800   4.847  0.0314 -0.7897  0.5113
 4747TIP3    H114184   2.253   7.750   4.775  1.6637  0.6671  0.3158
 4747TIP3    H214185   2.284   7.805   4.913 -1.0385 -1.0819  1.7082
 4748TIP3   OH214186   3.368   3.814   2.223 -0.2293 -0.3783 -0.2610
 4748TIP3    H114187   3.301   3.845   2.284 -0.1555  0.5730 -0.6480
 4748TIP3    H214188   3.430   3.765   2.278  0.3366  1.2521  0.6132
 4749TIP3   OH214189   3.011   4.647   6.619 -0.5988  0.3981  0.2801
 4749TIP3    H114190   3.067   4.723   6.600  0.4638  0.0211  1.7148
 4749TIP3    H214191   2.967   4.628   6.536  1.2225  0.8657 -0.8441
 4750TIP3   OH214192   7.513   5.059   1.939 -0.1747  0.5634  0.5420
 4750TIP3    H114193   7.605   5.076   1.915 -0.4462  0.8532 -0.3372
 4750TIP3    H214194   7.475   5.146   1.948 -0.1547  0.4553  1.7986
 4751TIP3   OH214195   7.015   4.867   6.135 -0.0049 -0.1399 -0.3073
 4751TIP3    H114196   7.108   4.858   6.115  0.0604 -0.2733  0.0486
 4751TIP3    H214197   7.002   4.815   6.214  0.0673  1.6458  0.9217
 4752TIP3   OH214198   6.482   0.905   6.254 -0.0248  0.0035  0.0833
 4752TIP3    H114199   6.529   0.982   6.223  1.9396 -1.4042 -0.6600
 4752TIP3    H214200   6.550   0.848   6.290 -1.4484 -1.2753  0.8894
 4753TIP3   OH214201   2.129   4.294   3.172 -0.0128  0.0536  0.2960
 4753TIP3    H114202   2.197   4.335   3.225  2.4510 -0.0071 -2.5986
 4753TIP3    H214203   2.112   4.357   3.102 -2.1739 -0.4523  0.2764
 4754TIP3   OH214204   7.608   2.104   4.186  0.1331 -0.8415 -0.2235
 4754TIP3    H114205   7.603   2.195   4.213 -0.9466 -0.0856 -2.7016
 4754TIP3    H214206   7.519   2.081   4.161  0.7913 -1.8110 -1.8458
 4755TIP3   OH214207   0.761   1.021   1.582 -0.1747 -0.2554  0.7245
 4755TIP3    H114208   0.688   1.079   1.604  0.1938  0.5622 -0.2019
 4755TIP3    H214209   0.819   1.026   1.658  0.2679  1.2533  0.3029
 4756TIP3   OH214210   4.813   0.717   6.255 -0.0920 -0.2747  0.2205
 4756TIP3    H114211   4.899   0.743   6.222  0.5560  0.7046  2.4574
 4756TIP3    H214212   4.818   0.735   6.349 -2.6053 -0.6278  0.4710
 4757TIP3   OH214213   0.244   6.097   4.516 -0.3784 -0.0781  0.8787
 4757TIP3    H114214   0.271   6.112   4.607 -2.9345  1.4727  1.4751
 4757TIP3    H214215   0.325   6.072   4.471  1.0453 -0.4957  3.4691
 4758TIP3   OH214216   2.717   2.885   4.589  0.3563 -0.4673  0.7182
 4758TIP3    H114217   2.786   2.951   4.581 -1.3352  1.2486 -1.1064
 4758TIP3    H214218   2.726   2.851   4.678  1.6097  1.9307  1.6051
 4759TIP3   OH214219   5.394   3.930   2.257  0.8255  0.0434  0.5040
 4759TIP3    H114220   5.368   3.876   2.182 -0.5983  2.2816 -0.7659
 4759TIP3    H214221   5.384   4.020   2.225  1.8679  1.0771  2.8776
 4760TIP3   OH214222   0.554   0.138   4.559 -0.0940 -0.1387 -0.4815
 4760TIP3    H114223   0.499   0.176   4.627  0.1543 -0.7901  0.1038
 4760TIP3    H214224   0.612   0.078   4.607  0.0650 -0.6277 -1.2700
 4761TIP3   OH214225   3.398   0.212   1.827  0.1894 -0.2617  0.1017
 4761TIP3    H114226   3.475   0.252   1.786 -1.2958  0.8058 -1.8266
 4761TIP3    H214227   3.378   0.136   1.772 -0.2526 -0.4268  0.4806
 4762TIP3   OH214228   1.529   1.189   4.584 -0.0881 -0.0638 -0.3826
 4762TIP3    H114229   1.492   1.205   4.497 -0.3683  2.0163  0.0652
 4762TIP3    H214230   1.453   1.165   4.638  0.1600 -1.9012 -0.7809
 4763TIP3   OH214231   5.726   6.864   3.044 -0.3929  0.8675  0.4101
 4763TIP3    H114232   5.633   6.883   3.034 -0.1692  2.2306  0.7142
 4763TIP3    H214233   5.769   6.949   3.036  0.8980  0.1829 -0.4189
 4764TIP3   OH214234   3.056   6.624   4.527  0.0728 -0.1428  0.0125
 4764TIP3    H114235   3.115   6.622   4.452 -0.3560  1.6533 -0.4182
 4764TIP3    H214236   3.113   6.610   4.603  0.7334 -0.4352 -0.5264
 4765TIP3   OH214237   7.907   5.704   3.241 -0.0279  0.3033  0.9983
 4765TIP3    H114238   7.872   5.653   3.167 -1.1420  1.6050  0.5943
 4765TIP3    H214239   8.001   5.689   3.237 -0.3008 -1.6592  0.8644
 4766TIP3   OH214240   6.195   7.716   5.131  0.1126 -0.8828 -0.1038
 4766TIP3    H114241   6.196   7.808   5.104  1.8349 -0.9114 -0.2184
 4766TIP3    H214242   6.147   7.716   5.213 -2.0680 -0.2717 -1.2848
 4767TIP3   OH214243   5.983   6.579   5.327 -0.2830 -0.4532  0.2457
 4767TIP3    H114244   5.899   6.558   5.368  1.0771 -2.4054  2.2583
 4767TIP3    H214245   6.001   6.504   5.271  0.6343 -0.5997  0.7227
 4768TIP3   OH214246   8.047   7.485   0.647 -0.4452 -0.3721 -0.4881
 4768TIP3    H114247   8.014   7.404   0.609  1.7025 -1.1044 -0.9309
 4768TIP3    H214248   8.135   7.496   0.609 -0.5627  2.0280 -0.2360
 4769TIP3   OH214249   6.602   3.984   5.580 -0.4266 -0.3264  0.2415
 4769TIP3    H114250   6.685   3.979   5.627  0.5605  1.3148 -1.2008
 4769TIP3    H214251   6.564   4.068   5.607 -0.6188 -0.1290 -0.6038
 4770TIP3   OH214252   7.173   1.831   4.742  0.0469  0.1651  0.2045
 4770TIP3    H114253   7.233   1.840   4.816  0.0424 -0.9930  0.3594
 4770TIP3    H214254   7.195   1.747   4.703 -0.1675  0.6232 -0.9280
 4771TIP3   OH214255   7.313   1.811   6.393  0.0947  0.3540 -0.1682
 4771TIP3    H114256   7.275   1.842   6.310 -0.1971 -0.2969 -0.2790
 4771TIP3    H214257   7.408   1.816   6.378  0.0575 -1.2241 -1.1106
 4772TIP3   OH214258   2.887   1.386   3.862 -0.1800 -0.4231 -0.1423
 4772TIP3    H114259   2.861   1.325   3.930  1.2250  0.0779  0.9057
 4772TIP3    H214260   2.814   1.387   3.800 -0.6079 -2.4408  0.2788
 4773TIP3   OH214261   2.066   0.974   2.999 -0.1905 -0.0129 -0.2725
 4773TIP3    H114262   2.152   1.014   3.010 -0.3996  0.7331 -1.2723
 4773TIP3    H214263   2.010   1.020   3.062 -0.1800  0.5141 -0.6418
 4774TIP3   OH214264   5.010   2.720   4.183 -0.1641  0.2375  0.2780
 4774TIP3    H114265   4.964   2.637   4.170 -1.5893  1.0236  0.0339
 4774TIP3    H214266   5.051   2.738   4.098 -0.0285 -0.1124  0.2676
 4775TIP3   OH214267   2.512   2.241   3.198  0.2478 -0.3267 -0.1328
 4775TIP3    H114268   2.448   2.240   3.127 -2.2686 -0.5798  1.9934
 4775TIP3    H214269   2.567   2.164   3.182 -0.5745 -0.6638 -1.4993
 4776TIP3   OH214270   0.535   1.027   0.733 -0.2350 -0.9466 -0.1388
 4776TIP3    H114271   0.621   1.055   0.766 -0.5741  0.4025 -0.3166
 4776TIP3    H214272   0.473   1.088   0.775 -0.9064 -0.6940 -1.4457
 4777TIP3   OH214273   5.466   4.647   3.125  0.8035  0.1164  0.5308
 4777TIP3    H114274   5.410   4.586   3.173  1.4769 -0.7036  0.3006
 4777TIP3    H214275   5.473   4.723   3.182  1.1520 -0.6269  1.5052
 4778TIP3   OH214276   2.160   7.637   2.094 -0.0401 -0.5133 -0.2103
 4778TIP3    H114277   2.079   7.645   2.044 -0.2702 -0.3298  0.1853
 4778TIP3    H214278   2.183   7.544   2.086  0.2489 -0.3661 -1.1412
 4779TIP3   OH214279   7.895   1.407   4.293  0.0087 -0.4495 -0.5259
 4779TIP3    H114280   7.946   1.370   4.221  0.5534 -0.0419 -0.3611
 4779TIP3    H214281   7.951   1.396   4.370 -0.8276 -1.4455 -0.0370
 4780TIP3   OH214282   8.262   2.219   0.033  0.7960 -0.2465 -0.0314
 4780TIP3    H114283   8.354   2.198   0.017  0.3121 -2.6727 -0.0842
 4780TIP3    H214284   8.219   2.201  -0.050  0.3444  1.7744 -0.2920
 4781TIP3   OH214285   6.783   3.971   4.369  0.4604 -0.0984 -0.5073
 4781TIP3    H114286   6.810   4.038   4.305  2.8663  0.9390  1.3990
 4781TIP3    H214287   6.729   4.019   4.431  1.5270 -0.0470  0.4220
 4782TIP3   OH214288   6.770   7.360   3.995 -0.7794 -0.3698 -0.1031
 4782TIP3    H114289   6.716   7.380   3.919 -0.2074 -0.1112 -0.4499
 4782TIP3    H214290   6.854   7.402   3.976 -0.3561 -1.0253  0.2899
 4783TIP3   OH214291   6.377   6.165   6.176  0.5348  0.6565 -0.0073
 4783TIP3    H114292   6.433   6.101   6.220 -0.3757 -1.3593 -1.6488
 4783TIP3    H214293   6.300   6.173   6.232 -0.2866 -1.3412 -0.7607
 4784TIP3   OH214294   7.027   2.692   4.180 -0.5529  1.0941  0.1403
 4784TIP3    H114295   6.969   2.750   4.229  1.1169  1.8860  1.2713
 4784TIP3    H214296   7.097   2.670   4.241  0.4105  0.2538 -1.1895
 4785TIP3   OH214297   8.105   1.859   0.781  0.0237 -0.2624  0.3144
 4785TIP3    H114298   8.044   1.785   0.783  2.6808 -2.6294 -0.4808
 4785TIP3    H214299   8.071   1.915   0.712 -1.0882 -1.6710 -0.3366
 4786TIP3   OH214300   7.955   3.722   0.309  0.4076  0.4931  0.4283
 4786TIP3    H114301   7.973   3.649   0.369 -0.5040  0.8728  1.1744
 4786TIP3    H214302   7.863   3.743   0.324  0.2799  0.8673 -0.8193
 4787TIP3   OH214303   2.346   5.383   4.100  0.0104 -0.1436 -0.2461
 4787TIP3    H114304   2.258   5.417   4.117 -1.1278 -2.2768 -1.3919
 4787TIP3    H214305   2.351   5.378   4.005  1.8845  1.0687 -0.2528
 4788TIP3   OH214306   3.008   0.668   1.787 -0.1261 -0.1999 -0.3105
 4788TIP3    H114307   3.067   0.688   1.715 -0.8372  0.0380 -0.8424
 4788TIP3    H214308   2.966   0.586   1.761 -0.7316  0.1337 -0.3982
 4789TIP3   OH214309   3.935   4.871   1.318  0.1946  0.6643 -0.4694
 4789TIP3    H114310   3.996   4.801   1.298 -0.6711 -0.1328 -0.4199
 4789TIP3    H214311   3.887   4.841   1.396 -2.3435 -0.1752 -2.2149
 4790TIP3   OH214312   5.116   6.823   2.541  0.1249 -0.7836  0.0761
 4790TIP3    H114313   5.068   6.765   2.601 -1.3572 -0.8483 -1.1266
 4790TIP3    H214314   5.154   6.890   2.598  1.0938 -2.3581  1.3942
 4791TIP3   OH214315   2.028   3.438   4.225 -0.1912  0.7250 -0.1112
 4791TIP3    H114316   1.990   3.477   4.146 -1.0509 -1.3427 -0.8076
 4791TIP3    H214317   2.107   3.394   4.194  1.1485  2.3963  0.7779
 4792TIP3   OH214318   7.234   0.597   4.103 -0.1603  0.2129 -0.2893
 4792TIP3    H114319   7.313   0.544   4.090 -0.9692 -0.6115 -2.2955
 4792TIP3    H214320   7.239   0.663   4.034 -2.1703 -1.1088 -1.7957
 4793TIP3   OH214321   7.190   1.922   6.611  0.2292 -0.0508  0.4275
 4793TIP3    H114322   7.245   1.886   6.680 -0.8083 -2.1106  0.2528
 4793TIP3    H214323   7.228   1.890   6.529 -1.0605 -1.3610  0.2972
 4794TIP3   OH214324   0.572   2.572   3.076 -0.3726 -0.3152  0.4759
 4794TIP3    H114325   0.660   2.545   3.053 -0.8893 -1.0311 -0.7545
 4794TIP3    H214326   0.539   2.501   3.132 -0.5705 -0.6245 -0.0283
 4795TIP3   OH214327   6.036   7.795   0.453 -0.1731  0.8990 -0.1555
 4795TIP3    H114328   5.959   7.806   0.398  0.6145  0.2222 -1.4488
 4795TIP3    H214329   6.021   7.713   0.500  0.1402  0.2875 -1.0968
 4796TIP3   OH214330   1.086   4.494   3.387 -0.3118  0.7211 -0.0889
 4796TIP3    H114331   0.999   4.529   3.371 -1.2019 -1.0305  0.6347
 4796TIP3    H214332   1.118   4.543   3.463 -1.2896  0.3885  0.5555
 4797TIP3   OH214333   2.113   1.432   5.514  0.8536 -0.1479  0.0315
 4797TIP3    H114334   2.021   1.450   5.498  1.2858  0.1367 -2.5212
 4797TIP3    H214335   2.151   1.516   5.540  0.5041 -0.1685  0.6227
 4798TIP3   OH214336   6.395   7.028   6.677 -0.0840 -0.2485  0.7997
 4798TIP3    H114337   6.316   7.034   6.731 -0.9513 -0.3306 -0.4405
 4798TIP3    H214338   6.369   6.978   6.600  0.3080  2.3018 -1.1144
 4799TIP3   OH214339   2.103   3.699   1.151  0.3144 -1.0008  0.0419
 4799TIP3    H114340   2.088   3.695   1.245  0.6858  0.3421  0.1792
 4799TIP3    H214341   2.068   3.616   1.118 -0.8143 -1.0311  1.2241
 4800TIP3   OH214342   7.288   3.765   3.911  0.3893  0.2743 -0.4823
 4800TIP3    H114343   7.380   3.761   3.888  0.2999 -0.3835 -0.7545
 4800TIP3    H214344   7.281   3.711   3.990  0.1590 -0.0915 -0.7478
 4801TIP3   OH214345   4.472   6.698   1.094  0.0738  0.1710  0.4227
 4801TIP3    H114346   4.491   6.789   1.074 -0.3487  0.6576  2.0800
 4801TIP3    H214347   4.544   6.669   1.150  0.6565 -0.8020 -0.7814
 4802TIP3   OH214348   7.114   3.037   0.196 -0.3967 -0.0536 -0.3634
 4802TIP3    H114349   7.148   2.968   0.139 -0.8807  1.3078 -2.4040
 4802TIP3    H214350   7.043   2.996   0.245 -0.0773 -1.2164 -0.8571
 4803TIP3   OH214351   6.111   2.406   1.346  0.4753 -0.8240 -0.1893
 4803TIP3    H114352   6.163   2.375   1.421 -1.4979  1.1668  2.1977
 4803TIP3    H214353   6.076   2.326   1.306  2.6975 -2.0235  0.0939
 4804TIP3   OH214354   0.098   6.264   3.179  0.1469  0.2037  0.2384
 4804TIP3    H114355   0.184   6.287   3.145 -0.2392  0.4017 -0.6365
 4804TIP3    H214356   0.115   6.229   3.266  1.1781 -0.3829 -0.1799
 4805TIP3   OH214357   2.295   6.875   5.703  0.5655  0.3203  0.1071
 4805TIP3    H114358   2.226   6.909   5.761  1.4990 -0.1622  1.5725
 4805TIP3    H214359   2.265   6.788   5.678  1.1628 -0.4332  1.8071
 4806TIP3   OH214360   4.237   2.539   1.153 -0.3345 -0.0366  0.5627
 4806TIP3    H114361   4.263   2.622   1.114 -2.0786 -0.0685 -0.7914
 4806TIP3    H214362   4.187   2.564   1.231 -2.1712  0.3108 -0.6620
 4807TIP3   OH214363   5.329   3.603   3.506  0.0812  0.5157  0.0320
 4807TIP3    H114364   5.307   3.531   3.565 -0.7481  1.7371  1.2759
 4807TIP3    H214365   5.424   3.602   3.501  0.1284  0.0526  0.9534
 4808TIP3   OH214366   2.177   7.180   3.644  0.0009  0.1487  0.1761
 4808TIP3    H114367   2.176   7.085   3.636 -1.0501  0.2432 -1.1200
 4808TIP3    H214368   2.266   7.205   3.621  0.0411 -0.4604 -0.3519
 4809TIP3   OH214369   7.108   5.497   5.185 -0.0571  0.3631 -0.4350
 4809TIP3    H114370   7.012   5.505   5.186 -0.0505  0.8654 -1.7946
 4809TIP3    H214371   7.139   5.582   5.214 -0.0134  0.3119 -0.3296
 4810TIP3   OH214372   1.352   5.280   4.130 -0.3000  0.0431 -0.3562
 4810TIP3    H114373   1.434   5.293   4.176 -1.2916  0.8467  1.2918
 4810TIP3    H214374   1.323   5.193   4.156 -0.3698  0.0965 -0.2526
 4811TIP3   OH214375   1.171   2.659   4.778  0.1548  0.1257 -0.6061
 4811TIP3    H114376   1.255   2.696   4.807 -0.8518  0.8252  1.6701
 4811TIP3    H214377   1.195   2.599   4.707  2.8119 -0.9884  1.0549
 4812TIP3   OH214378   1.779   2.886   4.210  0.3480 -0.3193  0.0742
 4812TIP3    H114379   1.760   2.798   4.176  1.1294 -0.1088 -0.9838
 4812TIP3    H214380   1.695   2.920   4.238  0.2355 -2.0055  2.0268
 4813TIP3   OH214381   2.183   6.260   3.320 -0.3278 -0.8056  0.1056
 4813TIP3    H114382   2.263   6.211   3.302 -0.2499 -0.4673 -0.4902
 4813TIP3    H214383   2.113   6.208   3.281 -0.1877 -0.2011 -0.9860
 4814TIP3   OH214384   5.558   3.053   4.318 -0.1976 -1.0000  0.4833
 4814TIP3    H114385   5.617   2.981   4.295  0.3227 -0.4909  0.2288
 4814TIP3    H214386   5.614   3.130   4.325 -1.1941  0.2207 -2.9687
 4815TIP3   OH214387   6.502   0.620   2.974  0.0441 -0.8738 -0.2093
 4815TIP3    H114388   6.577   0.653   3.023 -0.0083 -1.5536  0.3412
 4815TIP3    H214389   6.520   0.645   2.883  1.4664 -1.9332 -0.2571
 4816TIP3   OH214390   5.334   3.284   5.840 -0.0586  0.3081  0.5648
 4816TIP3    H114391   5.259   3.330   5.877 -0.5591 -1.7604  2.3096
 4816TIP3    H214392   5.297   3.206   5.799  1.0128  0.0561  0.0301
 4817TIP3   OH214393   2.704   1.816   6.730 -0.1252  0.6200  0.3735
 4817TIP3    H114394   2.754   1.893   6.703  0.1388  0.7873  1.3332
 4817TIP3    H214395   2.750   1.742   6.689  0.2170  0.8775  0.2926
 4818TIP3   OH214396   7.011   0.254   2.194  0.1143 -0.5641  0.1269
 4818TIP3    H114397   7.022   0.164   2.165 -0.8563 -0.6670  0.0419
 4818TIP3    H214398   7.055   0.306   2.127  0.7015 -0.9707  0.1906
 4819TIP3   OH214399   4.306   0.842   4.948  0.3315 -0.1114 -0.4397
 4819TIP3    H114400   4.322   0.834   5.042 -2.5087 -0.4989  0.1073
 4819TIP3    H214401   4.309   0.753   4.915  0.7977 -0.0306 -0.6199
 4820TIP3   OH214402   2.806   2.275   2.640 -0.0591 -0.2129 -0.4126
 4820TIP3    H114403   2.765   2.315   2.563  1.5487 -1.1456 -1.8341
 4820TIP3    H214404   2.880   2.226   2.604  0.5518 -0.9444  1.7238
 4821TIP3   OH214405   1.629   1.805   1.623  0.4873 -0.1829  0.4389
 4821TIP3    H114406   1.582   1.805   1.707  0.8966 -2.8673  0.7634
 4821TIP3    H214407   1.686   1.728   1.628 -0.3158 -1.1143 -2.7452
 4822TIP3   OH214408   6.055   7.513   3.554  0.0821  0.0396 -0.1454
 4822TIP3    H114409   6.120   7.582   3.564  0.8134 -0.6199 -0.2664
 4822TIP3    H214410   5.996   7.524   3.629  1.7462 -0.8438  1.3581
 4823TIP3   OH214411   5.017   0.126   1.508  0.0722 -0.4161 -0.4661
 4823TIP3    H114412   5.002   0.205   1.560 -0.6983 -1.3509  0.8010
 4823TIP3    H214413   4.961   0.060   1.549  0.9609 -1.7142 -1.2747
 4824TIP3   OH214414   7.575   6.842   6.569 -0.0869  0.3047  0.1717
 4824TIP3    H114415   7.604   6.846   6.660  0.7122  0.2404 -0.0712
 4824TIP3    H214416   7.481   6.856   6.573 -0.1623 -0.3831  1.0668
 4825TIP3   OH214417   1.282   1.615   5.579 -0.3892 -0.1988 -0.3024
 4825TIP3    H114418   1.342   1.555   5.534  0.6039  0.3004  0.3140
 4825TIP3    H214419   1.274   1.580   5.667 -0.6552 -0.0105 -0.2485
 4826TIP3   OH214420   6.154   0.193   1.579 -0.4910 -0.2517 -0.2024
 4826TIP3    H114421   6.131   0.110   1.622 -0.1366  0.4403  1.3966
 4826TIP3    H214422   6.102   0.193   1.498 -1.3094 -1.5429  0.2866
 4827TIP3   OH214423   5.606   1.363   4.638  0.5843  0.5093 -0.3228
 4827TIP3    H114424   5.613   1.455   4.615  1.9756  0.1548 -1.4112
 4827TIP3    H214425   5.696   1.335   4.655  0.0541 -0.3561  1.2697
 4828TIP3   OH214426   0.364   4.414   4.680  0.0242  0.5281  0.4260
 4828TIP3    H114427   0.295   4.468   4.641  0.3835  0.4310 -0.3663
 4828TIP3    H214428   0.384   4.457   4.763  0.0194  1.4023 -0.0091
 4829TIP3   OH214429   5.734   5.885   1.242  0.0474 -0.1107  0.1834
 4829TIP3    H114430   5.682   5.946   1.293 -0.9514  0.5508 -1.5284
 4829TIP3    H214431   5.783   5.834   1.307 -0.6244  1.1323  1.7259
 4830TIP3   OH214432   1.473   3.526   3.912  0.0307 -0.3632 -0.0305
 4830TIP3    H114433   1.461   3.500   4.004  1.1370 -0.0900  0.2064
 4830TIP3    H214434   1.397   3.581   3.893  0.3264  0.4530  1.0577
 4831TIP3   OH214435   5.918   4.161   0.014 -0.4663  0.2315 -0.2636
 4831TIP3    H114436   5.969   4.240   0.026 -0.9403  0.3213  1.5185
 4831TIP3    H214437   5.982   4.090   0.009 -0.1007  0.4899  0.5777
 4832TIP3   OH214438   7.085   0.065   4.994  0.2510 -0.2149  0.0880
 4832TIP3    H114439   7.074   0.064   4.899  1.5693 -1.7289 -0.0741
 4832TIP3    H214440   7.121  -0.021   5.015 -0.2923 -0.0023  2.0001
 4833TIP3   OH214441   3.953   0.219   1.717 -0.8783  0.0991  0.4032
 4833TIP3    H114442   3.950   0.313   1.700  0.4576  0.1422  0.3180
 4833TIP3    H214443   4.003   0.211   1.798 -1.1714 -0.5292  0.5280
 4834TIP3   OH214444   6.176   3.538   0.930 -0.0781 -0.2283 -0.0249
 4834TIP3    H114445   6.226   3.478   0.875  0.3959  0.8400 -0.8036
 4834TIP3    H214446   6.085   3.508   0.922  0.1366 -0.7544 -0.5079
 4835TIP3   OH214447   2.126   3.250   6.218  0.0817 -0.5139  0.4510
 4835TIP3    H114448   2.106   3.305   6.142  0.0781  0.9554  1.4689
 4835TIP3    H214449   2.046   3.199   6.232 -1.5360  2.1559  1.8419
 4836TIP3   OH214450   5.603   7.243   6.682  0.6080  0.0430 -0.0961
 4836TIP3    H114451   5.642   7.193   6.612  1.8476  1.1690 -0.2449
 4836TIP3    H214452   5.614   7.335   6.656  1.6956  0.5198  1.8379
 4837TIP3   OH214453   0.337   4.188   1.829 -0.2477  0.4952 -0.3494
 4837TIP3    H114454   0.333   4.102   1.787  0.2438 -1.4005  3.1002
 4837TIP3    H214455   0.262   4.189   1.888  1.0772  1.3846  1.3968
 4838TIP3   OH214456   5.353   3.513   5.713 -0.1528 -0.0145  0.7304
 4838TIP3    H114457   5.297   3.488   5.639  0.7602 -0.6182  0.2235
 4838TIP3    H214458   5.381   3.430   5.751  2.7832  0.1164 -0.8542
 4839TIP3   OH214459   0.466   0.938   2.634  0.3677 -0.0711  0.7254
 4839TIP3    H114460   0.508   0.865   2.680  1.0798 -0.2078 -0.1118
 4839TIP3    H214461   0.465   0.910   2.542  0.1349  0.7401  0.4800
 4840TIP3   OH214462   5.068   2.371   2.398 -0.4262 -0.0837  0.2132
 4840TIP3    H114463   5.020   2.370   2.481  0.7549 -0.4698  0.9248
 4840TIP3    H214464   5.094   2.462   2.386 -3.3198  0.6354 -1.4235
 4841TIP3   OH214465   6.349   6.861   5.960 -0.3808 -0.3956 -0.0812
 4841TIP3    H114466   6.344   6.882   5.866  2.8822 -3.9042 -1.3044
 4841TIP3    H214467   6.408   6.928   5.996 -0.2268 -0.0318 -0.9675
 4842TIP3   OH214468   2.027   1.525   2.766 -0.3400 -0.3043 -0.4974
 4842TIP3    H114469   2.116   1.556   2.749 -0.2471  0.1698  0.7307
 4842TIP3    H214470   1.971   1.599   2.744 -0.2334  0.2415  0.9456
 4843TIP3   OH214471   3.682   0.957   2.244  0.3428  0.2168  0.4513
 4843TIP3    H114472   3.627   1.036   2.246 -0.0362 -0.0244 -0.2065
 4843TIP3    H214473   3.652   0.909   2.167  2.9284  1.1273 -1.2653
 4844TIP3   OH214474   6.540   6.261   3.178 -0.3765 -0.2636 -0.3109
 4844TIP3    H114475   6.524   6.355   3.181 -1.8101 -0.5205  0.7479
 4844TIP3    H214476   6.636   6.253   3.179 -0.2335  1.1709 -0.6194
 4845TIP3   OH214477   5.172   4.094   2.744 -0.0743  0.6899 -0.3001
 4845TIP3    H114478   5.246   4.078   2.685 -1.0433 -0.3343 -1.2781
 4845TIP3    H214479   5.139   4.180   2.717  0.8511  1.2434  0.2706
 4846TIP3   OH214480   3.287   4.732   4.611  0.2004 -0.2717  0.2159
 4846TIP3    H114481   3.224   4.660   4.602  0.4837 -0.5386  0.3764
 4846TIP3    H214482   3.340   4.727   4.531  1.3514 -1.3354  1.0109
 4847TIP3   OH214483   2.691   0.693   5.870  0.2063  0.1401  0.4368
 4847TIP3    H114484   2.656   0.661   5.787  0.5454  0.6129  0.1075
 4847TIP3    H214485   2.770   0.642   5.885  0.9325  1.0212 -0.2565
 4848TIP3   OH214486   3.492   7.641   3.915  0.0539  0.3082 -0.3711
 4848TIP3    H114487   3.439   7.655   3.837 -0.8192 -0.1316  0.1314
 4848TIP3    H214488   3.499   7.546   3.924 -0.6968  0.3307  0.6296
 4849TIP3   OH214489   1.576   3.210   3.403 -0.3130 -0.0723  0.1485
 4849TIP3    H114490   1.623   3.218   3.320 -0.1251 -0.1424  0.2460
 4849TIP3    H214491   1.490   3.175   3.379  0.3827 -1.9156  0.1539
 4850TIP3   OH214492   2.857   3.044   1.813  0.4466 -0.4155 -0.4087
 4850TIP3    H114493   2.896   2.956   1.818  1.1400 -0.1195 -0.5622
 4850TIP3    H214494   2.882   3.086   1.895 -2.2611 -1.2973  0.9984
 4851TIP3   OH214495   2.502   2.428   0.667  0.0634 -0.1742 -0.6198
 4851TIP3    H114496   2.409   2.409   0.682 -0.1281  1.0651 -0.1394
 4851TIP3    H214497   2.513   2.519   0.695  2.0883 -1.1673  2.3132
 4852TIP3   OH214498   6.084   3.398   1.884  0.1241  0.1220  0.5492
 4852TIP3    H114499   6.094   3.479   1.935 -0.7544  0.9549 -0.5522
 4852TIP3    H214500   5.991   3.377   1.891  0.4430 -1.1360  1.2934
 4853TIP3   OH214501   3.292   5.670   1.022  0.9606  0.4553  0.1291
 4853TIP3    H114502   3.324   5.706   0.940 -0.1912  2.6229  0.5529
 4853TIP3    H214503   3.369   5.633   1.064  1.8001  0.4740 -1.3365
 4854TIP3   OH214504   3.390   7.214   0.925  0.6144 -0.1005 -0.1646
 4854TIP3    H114505   3.432   7.131   0.947  1.9968  0.3455 -1.0192
 4854TIP3    H214506   3.363   7.204   0.834 -0.2513 -0.0174  0.0752
 4855TIP3   OH214507   7.131   5.872   5.280  0.4574 -0.0459  0.1506
 4855TIP3    H114508   7.118   5.958   5.239  0.5267  0.6964  1.6322
 4855TIP3    H214509   7.186   5.889   5.356  1.4792 -1.6029 -0.1907
 4856TIP3   OH214510   8.003   4.730   4.610  0.3769 -0.1536 -0.2703
 4856TIP3    H114511   8.078   4.724   4.551 -0.0616  0.2537 -0.8804
 4856TIP3    H214512   8.032   4.685   4.690  1.3849  0.2969 -0.3652
 4857TIP3   OH214513   7.238   1.342   6.468 -0.3778 -0.1894  0.2931
 4857TIP3    H114514   7.324   1.382   6.482 -0.6524  0.0050  1.4622
 4857TIP3    H214515   7.251   1.249   6.486  0.0820 -0.5723 -1.6998
 4858TIP3   OH214516   8.047   5.147   0.853  0.0608 -0.2017  0.0500
 4858TIP3    H114517   8.142   5.140   0.847  0.5550  2.4438  2.4658
 4858TIP3    H214518   8.024   5.103   0.934 -0.8391 -0.9560 -0.5884
 4859TIP3   OH214519   4.057   5.138   1.384 -0.0547 -0.2721  0.0569
 4859TIP3    H114520   4.004   5.079   1.329  1.1725 -0.3607 -1.0704
 4859TIP3    H214521   4.137   5.152   1.334  1.2350 -0.5536  1.9463
 4860TIP3   OH214522   5.734   3.226   6.408  0.5645  0.0898  0.1722
 4860TIP3    H114523   5.734   3.149   6.351  0.3686 -0.1041  0.4281
 4860TIP3    H214524   5.827   3.251   6.415  0.5503  0.3392 -0.5211
 4861TIP3   OH214525   0.149   0.489   2.945 -0.3676 -0.1347  0.4291
 4861TIP3    H114526   0.058   0.511   2.924  0.0383  1.6437  0.3842
 4861TIP3    H214527   0.171   0.546   3.019 -0.3524 -3.0554  2.8214
 4862TIP3   OH214528   1.161   2.693   3.519 -0.3211 -0.1749  0.4678
 4862TIP3    H114529   1.151   2.599   3.504 -1.4009  0.0041 -0.0128
 4862TIP3    H214530   1.252   2.711   3.497 -0.3717 -0.9345 -0.4425
 4863TIP3   OH214531   7.827   0.573   1.527  1.1501 -0.3150 -0.4248
 4863TIP3    H114532   7.819   0.480   1.550  1.9188 -0.3793 -0.3985
 4863TIP3    H214533   7.919   0.583   1.502  1.0460  0.4221 -0.5049
 4864TIP3   OH214534   0.236   0.789   3.973  0.4443  0.0198 -0.5898
 4864TIP3    H114535   0.184   0.712   3.949  1.5414 -0.9546 -0.0170
 4864TIP3    H214536   0.291   0.805   3.897  0.0621  0.3718 -0.7907
 4865TIP3   OH214537   6.025   4.646   5.209 -0.2191  0.3424 -0.1590
 4865TIP3    H114538   5.993   4.585   5.275  0.5946 -1.1772 -1.1043
 4865TIP3    H214539   6.120   4.640   5.214 -0.0351  2.8536  0.8578
 4866TIP3   OH214540   5.198   1.181   5.350 -0.1104  0.3824 -0.6745
 4866TIP3    H114541   5.266   1.185   5.417 -1.6681 -0.2256  1.0606
 4866TIP3    H214542   5.212   1.259   5.296  0.5618  1.5217  1.0483
 4867TIP3   OH214543   0.397   5.069   4.910  0.6453  0.0230 -0.0542
 4867TIP3    H114544   0.334   5.127   4.951  0.5900 -0.5938  0.7506
 4867TIP3    H214545   0.398   5.095   4.818  0.4947  1.1698  0.2634
 4868TIP3   OH214546   3.221   6.735   3.425  0.1513 -0.2012  0.1902
 4868TIP3    H114547   3.242   6.734   3.518  1.5251 -1.1689 -0.0983
 4868TIP3    H214548   3.156   6.805   3.415  1.9224  1.7206  1.4597
 4869TIP3   OH214549   4.290   6.896   3.599 -0.2044 -0.5019 -0.4428
 4869TIP3    H114550   4.358   6.876   3.535  0.4917 -0.5123  0.2857
 4869TIP3    H214551   4.282   6.992   3.596  1.2670 -0.2992  0.8607
 4870TIP3   OH214552   7.129   1.522   4.634  0.2033  0.2226  0.9271
 4870TIP3    H114553   7.054   1.560   4.679 -0.0763 -0.6942  1.2641
 4870TIP3    H214554   7.144   1.438   4.678  1.0141  0.0903  0.4358
 4871TIP3   OH214555   5.072   2.623   2.444 -0.6663  0.8507 -0.3765
 4871TIP3    H114556   5.141   2.689   2.448 -0.7109  0.8471  1.5872
 4871TIP3    H214557   5.023   2.636   2.526 -0.9167 -1.3352 -0.1347
 4872TIP3   OH214558   3.993   1.623   2.580  0.3434  0.5121 -0.0108
 4872TIP3    H114559   4.024   1.589   2.496 -1.7259 -0.7298 -0.3537
 4872TIP3    H214560   4.071   1.631   2.634  1.5228 -0.1509 -1.5526
 4873TIP3   OH214561   3.263   0.722   4.746  0.4464 -0.7251  0.1986
 4873TIP3    H114562   3.293   0.710   4.656  0.7907  0.0211  0.2047
 4873TIP3    H214563   3.169   0.706   4.742  0.1752  0.8492 -0.6152
 4874TIP3   OH214564   7.408   2.281   1.608  0.5551  0.8178 -0.1331
 4874TIP3    H114565   7.450   2.311   1.689  0.9912  1.0520 -0.4429
 4874TIP3    H214566   7.330   2.335   1.600  0.0373  0.2053  0.5821
 4875TIP3   OH214567   2.044   7.516   1.734  0.2005 -0.4019 -0.5447
 4875TIP3    H114568   1.996   7.541   1.813  0.5082 -0.5101 -0.3229
 4875TIP3    H214569   2.047   7.596   1.681 -1.4568 -0.7318 -1.2111
 4876TIP3   OH214570   5.116   7.547   2.425  0.2996  0.3396  0.3953
 4876TIP3    H114571   5.113   7.619   2.362  1.0767 -0.3241 -0.4256
 4876TIP3    H214572   5.118   7.591   2.511  2.1743  1.3708 -0.1072
 4877TIP3   OH214573   4.317   7.391   5.058  0.6520  0.2016 -0.1261
 4877TIP3    H114574   4.241   7.407   5.115  0.6991 -0.8699  0.2612
 4877TIP3    H214575   4.295   7.436   4.976 -0.7463 -0.7200 -0.2888
 4878TIP3   OH214576   1.873   6.545   1.307 -0.0595  0.3541 -0.4526
 4878TIP3    H114577   1.911   6.532   1.394 -0.0265  1.4961 -0.2822
 4878TIP3    H214578   1.857   6.457   1.274  0.4572 -0.0981  0.4804
 4879TIP3   OH214579   5.687   0.314   3.883  0.8629  0.5286 -0.0784
 4879TIP3    H114580   5.771   0.292   3.922  0.6210 -0.2396  0.0429
 4879TIP3    H214581   5.655   0.230   3.848 -0.2485  0.6295  0.6554
 4880TIP3   OH214582   5.347   1.876   0.810 -0.4372  0.2865  0.4367
 4880TIP3    H114583   5.289   1.800   0.819  0.8079 -0.9236 -1.1671
 4880TIP3    H214584   5.360   1.885   0.715  2.4234  0.1273  0.7296
 4881TIP3   OH214585   5.421   1.045   2.482 -0.6819 -0.4221  0.1849
 4881TIP3    H114586   5.421   0.958   2.523  0.7962 -0.5743 -0.0753
 4881TIP3    H214587   5.394   1.029   2.391 -0.4887 -0.6007  0.1584
 4882TIP3   OH214588   1.777   3.490   2.046 -0.6433 -0.2305 -0.0019
 4882TIP3    H114589   1.708   3.554   2.033  0.3911  1.2445  1.3679
 4882TIP3    H214590   1.835   3.529   2.112  0.2187 -2.4308  0.6590
 4883TIP3   OH214591   0.291   5.458   3.018  0.1415  0.0649  0.2584
 4883TIP3    H114592   0.197   5.444   3.029  0.4389 -0.2851  3.3106
 4883TIP3    H214593   0.330   5.415   3.094  2.9278 -1.0321 -1.6477
 4884TIP3   OH214594   0.231   6.687   1.717  0.1120 -0.1030 -0.2906
 4884TIP3    H114595   0.282   6.766   1.737 -1.7478  0.9219  0.7698
 4884TIP3    H214596   0.210   6.650   1.803  0.3892 -1.3979 -0.7629
 4885TIP3   OH214597   1.926   3.760   5.637 -0.6045  0.2299  0.3484
 4885TIP3    H114598   1.962   3.758   5.548 -1.4781 -1.8221 -0.0070
 4885TIP3    H214599   1.978   3.696   5.686 -0.9194  0.4673  1.0127
 4886TIP3   OH214600   1.766   1.928   0.277  0.0867  0.4004 -0.0431
 4886TIP3    H114601   1.684   1.925   0.327 -0.0415  1.8872 -0.1165
 4886TIP3    H214602   1.753   1.865   0.206 -0.9931  0.5843 -0.0289
 4887TIP3   OH214603   7.900   4.244   6.133  0.5415 -0.0848  0.4397
 4887TIP3    H114604   7.893   4.240   6.228  0.0271  0.9423  0.4535
 4887TIP3    H214605   7.852   4.323   6.108 -0.2336 -0.8881 -0.7624
 4888TIP3   OH214606   2.686   6.340   2.042 -0.3766 -0.1553  0.2102
 4888TIP3    H114607   2.729   6.308   1.963  0.9532 -0.2923  0.9591
 4888TIP3    H214608   2.619   6.275   2.061 -0.7019 -0.1304 -0.7806
 4889TIP3   OH214609   0.213   2.394   2.508 -0.0316  0.0357  0.3281
 4889TIP3    H114610   0.155   2.367   2.437  0.5205 -1.8547  0.5438
 4889TIP3    H214611   0.158   2.391   2.586 -0.1541  0.2986  0.2562
 4890TIP3   OH214612   0.199   1.826   4.543  0.9336 -0.0724 -0.4749
 4890TIP3    H114613   0.148   1.871   4.476 -1.3837 -0.0498  1.1455
 4890TIP3    H214614   0.200   1.887   4.617  3.2920 -0.1387 -0.3749
 4891TIP3   OH214615   5.036   5.381   3.178 -0.0687 -0.0187  0.0730
 4891TIP3    H114616   5.033   5.292   3.142  1.4197 -0.2020  0.3277
 4891TIP3    H214617   5.001   5.372   3.267 -0.6418 -0.1970 -0.1661
 4892TIP3   OH214618   3.771   0.780   3.411 -0.9503 -0.0152 -0.3751
 4892TIP3    H114619   3.682   0.814   3.416 -0.5585  0.8496  1.2558
 4892TIP3    H214620   3.768   0.715   3.340 -2.5650  0.8746 -1.1713
 4893TIP3   OH214621   4.567   4.993   6.579 -0.3352  0.1944 -0.3900
 4893TIP3    H114622   4.598   4.902   6.585  0.2420  0.4278  0.4315
 4893TIP3    H214623   4.635   5.043   6.625 -1.1111  0.9279 -0.0280
 4894TIP3   OH214624   0.997   4.101   5.075  0.0515 -0.0096  0.5307
 4894TIP3    H114625   0.923   4.083   5.017  0.3317  1.7773 -0.4437
 4894TIP3    H214626   1.060   4.031   5.057  1.2393  1.7894 -3.3086
 4895TIP3   OH214627   5.246   7.155   3.906 -0.0414 -0.8907  0.1190
 4895TIP3    H114628   5.178   7.094   3.934 -0.9513 -0.2258 -0.5608
 4895TIP3    H214629   5.208   7.242   3.921  0.7426 -0.5014 -0.0807
 4896TIP3   OH214630   4.609   6.371   1.569  0.2816 -0.3090 -0.0873
 4896TIP3    H114631   4.526   6.417   1.555  0.8275  1.2068  1.3489
 4896TIP3    H214632   4.583   6.280   1.588 -0.9833 -0.0485 -0.4679
 4897TIP3   OH214633   0.201   7.646   5.867  0.0863 -0.1592 -0.2351
 4897TIP3    H114634   0.154   7.723   5.900  2.5066  1.1007  0.5354
 4897TIP3    H214635   0.283   7.682   5.832  0.9872 -2.3366 -0.4915
 4898TIP3   OH214636   3.671   7.712   2.208  0.0061  0.6502 -0.3554
 4898TIP3    H114637   3.728   7.745   2.277  0.4476  0.8735 -0.8247
 4898TIP3    H214638   3.730   7.675   2.143 -0.3528  1.2665 -1.0424
 4899TIP3   OH214639   0.505   1.217   3.562  0.4284 -0.0030  0.1677
 4899TIP3    H114640   0.582   1.274   3.570  0.3470  0.0449  0.6596
 4899TIP3    H214641   0.472   1.210   3.652 -0.9898  1.1501 -0.2351
 4900TIP3   OH214642   1.053   5.290   0.792  0.1442  0.2439  0.2219
 4900TIP3    H114643   0.988   5.320   0.728 -0.1888  0.5894  0.7139
 4900TIP3    H214644   1.003   5.237   0.854  0.8694 -2.2451 -1.1635
 4901TIP3   OH214645   6.278   3.088   6.004  0.4407 -0.1915 -0.5702
 4901TIP3    H114646   6.226   3.050   6.075  1.2641 -1.1360 -0.4538
 4901TIP3    H214647   6.214   3.138   5.953 -0.6390 -1.4650 -0.5329
 4902TIP3   OH214648   1.853   6.251   0.132  0.5932 -0.7010 -0.4602
 4902TIP3    H114649   1.946   6.234   0.141  0.4900 -0.4678  1.2699
 4902TIP3    H214650   1.814   6.225   0.215 -0.7435  0.1587 -0.7727
 4903TIP3   OH214651   2.047   4.054   0.846  0.2203  0.3591  0.1727
 4903TIP3    H114652   1.983   4.006   0.898  0.2207  2.1935  2.0085
 4903TIP3    H214653   2.033   4.146   0.870  2.2259  0.9931 -0.8667
 4904TIP3   OH214654   4.188   3.006   3.284  0.1231  0.1192 -0.2043
 4904TIP3    H114655   4.126   2.970   3.220 -0.0547  0.9244 -0.5006
 4904TIP3    H214656   4.189   2.942   3.355 -1.9099  0.5928  0.3311
 4905TIP3   OH214657   4.475   4.067   3.392 -0.0448 -0.0678 -0.0349
 4905TIP3    H114658   4.425   4.145   3.365  0.8493  0.9105  1.0205
 4905TIP3    H214659   4.527   4.097   3.467  2.3706 -0.9259 -1.2664
 4906TIP3   OH214660   4.463   4.820   0.698 -0.3969 -0.1332  0.5920
 4906TIP3    H114661   4.518   4.807   0.776 -2.1680  1.9614  2.3257
 4906TIP3    H214662   4.521   4.864   0.636  0.2832  0.8795  1.8901
 4907TIP3   OH214663   3.352   0.406   1.422  0.1577 -0.4106 -0.5149
 4907TIP3    H114664   3.377   0.321   1.386  0.6740 -0.4291 -0.1241
 4907TIP3    H214665   3.384   0.469   1.358  0.1473 -0.4920 -0.6011
 4908TIP3   OH214666   3.416   1.682   0.211 -0.0749  0.3119 -0.1522
 4908TIP3    H114667   3.323   1.665   0.201 -0.0238 -0.0967  0.0386
 4908TIP3    H214668   3.421   1.766   0.256 -0.3667 -0.0745  0.6200
 4909TIP3   OH214669   2.827   1.091   6.456 -0.2484  0.1963 -0.0679
 4909TIP3    H114670   2.889   1.017   6.458 -1.6748 -1.0383 -0.1381
 4909TIP3    H214671   2.746   1.055   6.491  0.0075  2.7735  3.7966
 4910TIP3   OH214672   4.711   2.153   3.477 -0.1596 -0.0230  0.6136
 4910TIP3    H114673   4.760   2.072   3.489 -0.4243 -0.3201 -0.2477
 4910TIP3    H214674   4.624   2.124   3.448  0.1809  0.6120 -1.1034
 4911TIP3   OH214675   6.511   6.759   1.279 -0.3827  0.5974 -0.2778
 4911TIP3    H114676   6.593   6.737   1.323  0.0564  1.1685 -0.7931
 4911TIP3    H214677   6.493   6.684   1.223 -0.3566  0.3545  0.0324
 4912TIP3   OH214678   3.599   2.345   3.938 -0.5005  0.0627 -0.0497
 4912TIP3    H114679   3.597   2.433   3.902 -0.2920 -0.3681 -1.1659
 4912TIP3    H214680   3.541   2.349   4.015 -1.6628  0.8123 -0.9209
 4913TIP3   OH214681   1.758   5.377   0.307  0.3829  0.1934 -0.2412
 4913TIP3    H114682   1.665   5.390   0.291  0.6180 -0.5155 -2.4698
 4913TIP3    H214683   1.792   5.465   0.325 -0.6875  0.4577  0.5772
 4914TIP3   OH214684   4.321   2.241   1.081 -0.1270 -0.0266 -0.0645
 4914TIP3    H114685   4.231   2.227   1.110 -0.6428 -0.4940 -1.7937
 4914TIP3    H214686   4.322   2.330   1.046  0.0647 -0.0574 -0.1400
 4915TIP3   OH214687   7.253   5.611   2.389 -0.4968 -0.3356 -0.5890
 4915TIP3    H114688   7.339   5.595   2.352  0.0063  0.1224  0.3418
 4915TIP3    H214689   7.269   5.626   2.482 -1.7129 -1.4013 -0.1746
 4916TIP3   OH214690   1.474   3.458   4.207 -0.1485  0.0634  0.3641
 4916TIP3    H114691   1.442   3.372   4.180 -0.9882  0.1003  1.1992
 4916TIP3    H214692   1.488   3.450   4.301  0.9569  0.4790  0.2463
 4917TIP3   OH214693   4.441   4.711   2.300 -0.0709 -0.3786 -0.4495
 4917TIP3    H114694   4.501   4.760   2.243  0.2068 -0.1693  0.0124
 4917TIP3    H214695   4.442   4.622   2.266 -0.7081 -0.0412 -1.4094
 4918TIP3   OH214696   4.939   2.521   0.695  0.0483 -0.4152 -0.2640
 4918TIP3    H114697   4.882   2.557   0.627 -0.7907 -0.7009  0.2640
 4918TIP3    H214698   4.982   2.597   0.734  1.4718 -0.3361 -1.9001
 4919TIP3   OH214699   4.957   2.184   6.193  0.4127 -0.0707 -0.5089
 4919TIP3    H114700   4.904   2.172   6.272  2.4133  0.4368  0.9655
 4919TIP3    H214701   4.900   2.154   6.122 -1.4108 -0.6456  1.1055
 4920TIP3   OH214702   3.738   1.957   6.215  0.0415 -0.3816 -0.2641
 4920TIP3    H114703   3.658   1.919   6.252  1.0303 -1.6050  0.7016
 4920TIP3    H214704   3.714   1.982   6.126 -0.2361 -5.1777 -1.8201
 4921TIP3   OH214705   0.974   7.666   2.920  0.0189 -0.0685 -0.1224
 4921TIP3    H114706   1.061   7.628   2.912  0.3617  0.6341  0.1447
 4921TIP3    H214707   0.930   7.611   2.985  1.4139  1.4866  2.3044
 4922TIP3   OH214708   4.597   6.598   3.480 -0.0649  0.1224 -0.5768
 4922TIP3    H114709   4.602   6.687   3.445  1.9924  0.4474  0.3974
 4922TIP3    H214710   4.596   6.609   3.575 -1.6861 -0.8755 -0.4389
 4923TIP3   OH214711   2.652   0.748   1.064  0.0159 -0.4719 -0.0761
 4923TIP3    H114712   2.724   0.722   1.120 -2.2051  0.7887  3.7645
 4923TIP3    H214713   2.658   0.843   1.060 -0.5679 -0.4620 -0.9908
 4924TIP3   OH214714   2.025   2.811   1.607 -0.4374 -0.5104 -0.0235
 4924TIP3    H114715   2.093   2.808   1.675  1.3806 -1.5694 -1.7842
 4924TIP3    H214716   1.943   2.807   1.655  0.7078  0.7777  2.2137
 4925TIP3   OH214717   1.105   3.200   4.992 -0.3080 -0.5376 -0.0909
 4925TIP3    H114718   1.020   3.215   5.035 -0.5132 -0.0596 -0.6488
 4925TIP3    H214719   1.125   3.284   4.950  0.8179 -0.4064  0.6780
 4926TIP3   OH214720   7.042   7.726   6.741  0.3697 -0.4649  0.2538
 4926TIP3    H114721   7.048   7.756   6.650  1.5822  0.4428  0.6022
 4926TIP3    H214722   7.017   7.804   6.790  0.5071 -0.7529  0.7922
 4927TIP3   OH214723   5.783   7.491   0.189  0.0309 -0.2275  0.3737
 4927TIP3    H114724   5.729   7.523   0.118  0.8027  0.0020 -0.1238
 4927TIP3    H214725   5.807   7.570   0.238  0.5019 -0.2372  0.1662
 4928TIP3   OH214726   6.231   4.770   6.367  0.2490  0.5009  0.3389
 4928TIP3    H114727   6.203   4.813   6.286 -1.8298 -0.0376  0.7172
 4928TIP3    H214728   6.166   4.701   6.382  1.4160 -0.3624  1.7041
 4929TIP3   OH214729   1.911   0.368   3.994 -0.2599  0.4745 -0.0709
 4929TIP3    H114730   1.899   0.275   3.975  0.6935  0.3216  0.0490
 4929TIP3    H214731   1.838   0.391   4.051  0.5099 -0.6487  1.4100
 4930TIP3   OH214732   7.304   2.112   5.648  0.3523 -0.0997  0.1815
 4930TIP3    H114733   7.339   2.127   5.560 -1.0209  0.3370 -0.3146
 4930TIP3    H214734   7.382   2.101   5.703  1.2449  0.2027 -0.9797
 4931TIP3   OH214735   6.307   4.129   3.357  0.6011  0.0765  0.1156
 4931TIP3    H114736   6.302   4.176   3.273 -0.5462  0.2797  0.2743
 4931TIP3    H214737   6.397   4.096   3.361  1.1172  1.3361 -0.5067
 4932TIP3   OH214738   1.226   4.985   1.549 -0.6983 -0.1695 -0.4855
 4932TIP3    H114739   1.228   4.902   1.597 -2.1878 -1.1733 -2.0559
 4932TIP3    H214740   1.247   4.961   1.458 -1.3247  1.1316 -1.0048
 4933TIP3   OH214741   1.412   2.749   3.458  0.2242  0.5207  0.3387
 4933TIP3    H114742   1.456   2.677   3.503  1.8370  2.3141  1.7841
 4933TIP3    H214743   1.467   2.768   3.382  0.8526  1.4227  1.0040
 4934TIP3   OH214744   1.452   0.922   0.895  0.0031 -0.3334 -0.0198
 4934TIP3    H114745   1.500   0.846   0.928  0.7609  0.3946  0.5949
 4934TIP3    H214746   1.401   0.954   0.969 -0.3607 -0.2716 -0.2909
 4935TIP3   OH214747   0.568   6.600   5.133 -1.0101 -0.0615 -0.2078
 4935TIP3    H114748   0.485   6.645   5.149 -0.1475  0.6932  2.7789
 4935TIP3    H214749   0.552   6.509   5.158 -0.7703  0.2604  1.2041
 4936TIP3   OH214750   5.808   1.843   1.266 -0.4886  0.1248 -0.3809
 4936TIP3    H114751   5.846   1.838   1.178 -1.4627  0.0928 -0.8110
 4936TIP3    H214752   5.829   1.759   1.306  1.7593  0.8989  0.1959
 4937TIP3   OH214753   1.694   1.994   2.865 -0.4987  0.1043 -0.2887
 4937TIP3    H114754   1.784   2.015   2.891 -0.0923 -0.6828 -1.0186
 4937TIP3    H214755   1.650   2.078   2.861  0.8066  0.7718 -2.1389
 4938TIP3   OH214756   7.208   4.035   4.830  0.0810  0.3032  0.2632
 4938TIP3    H114757   7.229   4.124   4.800 -2.0117  0.4463 -0.9947
 4938TIP3    H214758   7.247   3.977   4.765 -1.2988  0.4810 -0.7822
 4939TIP3   OH214759   2.288   5.055   2.933 -0.4001  0.3419 -0.0604
 4939TIP3    H114760   2.242   5.074   2.852 -0.6809 -2.2464 -0.5770
 4939TIP3    H214761   2.293   4.960   2.937  1.7119  0.4403  1.7960
 4940TIP3   OH214762   7.376   2.600   4.075 -0.1537  0.8876  0.1618
 4940TIP3    H114763   7.316   2.554   4.016  2.0250 -1.4505 -0.3811
 4940TIP3    H214764   7.410   2.673   4.023  1.1930 -0.7183 -1.2834
 4941TIP3   OH214765   3.381   3.809   5.540 -0.2812  0.6406 -0.8267
 4941TIP3    H114766   3.425   3.852   5.614 -0.2723  0.0189 -0.4701
 4941TIP3    H214767   3.299   3.858   5.530 -1.1493 -0.4289  0.7994
 4942TIP3   OH214768   6.347   1.978   6.754 -0.3820  0.1066  0.8109
 4942TIP3    H114769   6.322   2.000   6.844  0.5024  0.8907  0.8768
 4942TIP3    H214770   6.274   1.924   6.722 -0.5851 -0.4277  2.0843
 4943TIP3   OH214771   6.774   5.609   5.491  0.0856 -0.1661  0.3400
 4943TIP3    H114772   6.847   5.558   5.456 -0.4641 -0.3782 -0.5494
 4943TIP3    H214773   6.758   5.676   5.424  1.6672  2.0956  2.0679
 4944TIP3   OH214774   7.942   1.109   4.690 -0.0760 -0.1993 -0.2241
 4944TIP3    H114775   7.939   1.081   4.782 -2.1016  1.7626  0.4160
 4944TIP3    H214776   7.872   1.060   4.648  1.2264 -1.5242 -0.9007
 4945TIP3   OH214777   7.140   0.120   6.730 -0.6981  0.3357  0.5823
 4945TIP3    H114778   7.118   0.083   6.644 -1.9544  2.1920  0.0146
 4945TIP3    H214779   7.217   0.072   6.759 -1.4182 -1.7013 -0.6669
 4946TIP3   OH214780   2.220   5.685   3.334 -0.4186 -0.3807  0.5099
 4946TIP3    H114781   2.302   5.636   3.332  0.1318  0.5035  0.7674
 4946TIP3    H214782   2.165   5.642   3.269 -0.2114 -1.7668  1.2262
 4947TIP3   OH214783   0.635   5.112   4.317  0.1904 -0.1281  0.0446
 4947TIP3    H114784   0.573   5.038   4.320 -1.0534  0.9025  0.7294
 4947TIP3    H214785   0.681   5.108   4.400  0.0954 -0.1117  0.0983
 4948TIP3   OH214786   7.853   4.902   5.151 -0.7404 -0.0309  0.6671
 4948TIP3    H114787   7.817   4.914   5.063 -1.6153 -0.2190  0.9848
 4948TIP3    H214788   7.946   4.887   5.137 -0.9283 -0.4215 -0.2615
 4949TIP3   OH214789   4.393   0.087   2.667  0.0730  0.1358 -0.6827
 4949TIP3    H114790   4.323   0.135   2.623 -0.6581 -1.3710 -1.2127
 4949TIP3    H214791   4.425   0.148   2.734  0.3921  2.0337 -2.4400
 4950TIP3   OH214792   0.337   4.347   0.353  0.5635 -0.0856 -0.0588
 4950TIP3    H114793   0.415   4.342   0.408  1.1792  0.7827 -0.8225
 4950TIP3    H214794   0.280   4.410   0.397  0.4154 -0.5026  0.3477
 4951TIP3   OH214795   6.418   6.619   6.511 -0.0624  0.1037 -0.1434
 4951TIP3    H114796   6.370   6.646   6.590 -2.3035 -0.0462 -1.3599
 4951TIP3    H214797   6.479   6.691   6.495 -1.9049  1.7826 -0.0971
 4952TIP3   OH214798   3.709   1.270   2.627 -0.2170  1.2195 -0.3060
 4952TIP3    H114799   3.616   1.255   2.641  0.0040  2.1984  2.8593
 4952TIP3    H214800   3.744   1.183   2.605 -1.8277  0.8871 -1.7985
 4953TIP3   OH214801   1.722   7.058   0.111 -0.0696 -0.9406  0.2068
 4953TIP3    H114802   1.817   7.047   0.114  0.0765  0.3907  1.2700
 4953TIP3    H214803   1.688   6.994   0.173  0.2137 -0.6034  0.7064
 4954TIP3   OH214804   5.836   5.394   3.652 -0.1798  0.1641 -0.4862
 4954TIP3    H114805   5.778   5.396   3.576  0.2264 -0.2162 -0.8147
 4954TIP3    H214806   5.909   5.338   3.625  0.6947  1.1983 -0.3450
 4955TIP3   OH214807   2.380   1.768   5.799 -0.2503  0.1348  0.3054
 4955TIP3    H114808   2.449   1.806   5.745 -1.5705  0.5534 -1.1464
 4955TIP3    H214809   2.302   1.819   5.777 -1.3890 -1.4028  0.6589
 4956TIP3   OH214810   0.734   5.998   2.592  0.6161 -0.0327  0.4121
 4956TIP3    H114811   0.805   5.971   2.650  1.1098 -0.6938 -0.4822
 4956TIP3    H214812   0.750   6.091   2.576  1.2911 -0.1724  0.2253
 4957TIP3   OH214813   6.893   6.500   0.680  0.4541  0.1252  0.0064
 4957TIP3    H114814   6.802   6.502   0.710  0.2275  0.7067 -0.6813
 4957TIP3    H214815   6.944   6.526   0.756 -0.0955  1.5177 -0.0732
 4958TIP3   OH214816   7.200   4.807   4.994 -0.1711  0.3093 -0.0375
 4958TIP3    H114817   7.189   4.728   4.942 -0.3766 -0.3038  0.9019
 4958TIP3    H214818   7.114   4.825   5.031  0.0555  0.4720  0.4385
 4959TIP3   OH214819   6.015   1.976   0.629 -0.1468  0.0243 -0.2014
 4959TIP3    H114820   6.102   1.994   0.594 -0.6678  2.2672 -0.4590
 4959TIP3    H214821   6.011   1.880   0.632  1.6438 -0.1824 -1.8737
 4960TIP3   OH214822   4.954   4.787   2.012  0.7806  0.0357 -0.0076
 4960TIP3    H114823   4.933   4.712   1.958 -1.1609  0.0314  0.6695
 4960TIP3    H214824   5.002   4.750   2.087 -0.7670 -0.6840  0.6789
 4961TIP3   OH214825   8.047   2.590   4.127 -0.0827  0.0420  0.3522
 4961TIP3    H114826   7.977   2.527   4.142 -1.1998  0.9525 -0.7614
 4961TIP3    H214827   8.011   2.651   4.062  0.9187  1.8601  1.4098
 4962TIP3   OH214828   7.008   1.912   5.169  0.2427  0.6308 -0.5211
 4962TIP3    H114829   6.998   1.831   5.219  2.1697  1.7838  1.9617
 4962TIP3    H214830   7.092   1.902   5.124  1.4594  1.8506  1.3032
 4963TIP3   OH214831   7.838   4.208   6.707  0.0969  0.1111 -0.1263
 4963TIP3    H114832   7.785   4.137   6.671 -1.0672  1.2678 -0.7656
 4963TIP3    H214833   7.843   4.188   6.801 -0.0756 -0.8855 -0.3152
 4964TIP3   OH214834   1.797   3.642   6.752  0.5154  0.3033  0.2049
 4964TIP3    H114835   1.730   3.633   6.684  1.5124 -1.3570 -0.6093
 4964TIP3    H214836   1.751   3.623   6.833 -0.3480  0.7652 -0.1581
 4965TIP3   OH214837   1.974   4.143   2.101 -0.4430 -0.4354  0.0199
 4965TIP3    H114838   1.885   4.107   2.093 -0.3262 -0.4050 -1.9361
 4965TIP3    H214839   2.009   4.140   2.011  1.6550 -0.7570  0.7956
 4966TIP3   OH214840   3.654   1.508   6.662 -0.1134 -0.6167  0.3515
 4966TIP3    H114841   3.720   1.443   6.636 -0.3002 -1.2571  1.4233
 4966TIP3    H214842   3.692   1.551   6.739  0.3001  1.0449 -0.7111
 4967TIP3   OH214843   2.831   4.643   1.655  0.2999 -0.5619  0.4634
 4967TIP3    H114844   2.921   4.674   1.650  0.7121 -1.0374  3.4775
 4967TIP3    H214845   2.834   4.569   1.716 -1.6957 -2.5238 -1.5743
 4968TIP3   OH214846   0.057   4.477   0.929 -0.4734  0.4172 -0.0326
 4968TIP3    H114847  -0.026   4.524   0.919 -0.5882  0.1476 -0.3780
 4968TIP3    H214848   0.033   4.385   0.919 -0.2746  0.2693  0.7562
 4969TIP3   OH214849   3.154   4.078   0.734 -0.8378 -0.6517 -0.3360
 4969TIP3    H114850   3.121   4.143   0.672  1.0996 -0.4367 -1.2141
 4969TIP3    H214851   3.135   4.115   0.820 -2.2318 -0.2591 -0.7778
 4970TIP3   OH214852   1.718   0.236   2.606  0.2188 -0.5379 -0.2177
 4970TIP3    H114853   1.659   0.302   2.569 -0.0088 -0.0031  1.0579
 4970TIP3    H214854   1.801   0.282   2.618  0.3312 -0.7481 -0.1755
 4971TIP3   OH214855   3.850   6.366   5.698  0.0742  0.3706  0.2239
 4971TIP3    H114856   3.886   6.423   5.766  0.1595 -0.5990  1.0333
 4971TIP3    H214857   3.774   6.413   5.664 -0.3445  0.6167  1.4475
 4972TIP3   OH214858   6.515   7.010   1.413 -0.2560 -0.1452 -0.5109
 4972TIP3    H114859   6.508   6.935   1.353 -0.0390  0.8900 -1.8958
 4972TIP3    H214860   6.512   6.971   1.500  2.3534 -2.0427 -1.1307
 4973TIP3   OH214861   2.192   2.724   2.280  0.2269 -0.0620 -1.0815
 4973TIP3    H114862   2.283   2.705   2.302  0.1500  0.3017 -0.4275
 4973TIP3    H214863   2.176   2.675   2.199  1.0378 -0.0265 -1.2703
 4974TIP3   OH214864   8.207   2.432   4.859 -0.3031 -0.5466  0.3133
 4974TIP3    H114865   8.213   2.336   4.851  1.6834 -0.4233 -0.1240
 4974TIP3    H214866   8.125   2.454   4.815 -0.2167 -1.9520 -0.6359
 4975TIP3   OH214867   5.843   2.299   6.123  0.1874  0.5815  1.1740
 4975TIP3    H114868   5.753   2.325   6.142 -0.0962  1.6533 -1.1900
 4975TIP3    H214869   5.897   2.368   6.162 -0.2699  1.7942 -0.2205
 4976TIP3   OH214870   2.291   1.964   1.736 -0.4916  0.2091  0.2619
 4976TIP3    H114871   2.363   2.017   1.703  0.3755 -0.9353  0.2715
 4976TIP3    H214872   2.258   2.013   1.811 -0.5415  1.3527 -0.4848
 4977TIP3   OH214873   3.887   7.189   2.808  0.1125  0.2912  0.1804
 4977TIP3    H114874   3.831   7.266   2.809  1.9930  1.7335  0.3234
 4977TIP3    H214875   3.867   7.143   2.890 -1.8753 -0.0847 -0.4602
 4978TIP3   OH214876   6.105   0.658   4.175 -0.0706 -0.3405  0.4598
 4978TIP3    H114877   6.047   0.700   4.239  0.4202 -0.5872  1.0792
 4978TIP3    H214878   6.155   0.730   4.137  0.5255 -0.3109  1.2704
 4979TIP3   OH214879   6.165   3.284   5.424  0.2240 -0.1057  0.5265
 4979TIP3    H114880   6.070   3.289   5.438 -0.2349 -3.7687 -0.2610
 4979TIP3    H214881   6.174   3.242   5.339  2.6500  1.3046 -0.0023
 4980TIP3   OH214882   0.639   2.435   4.337 -0.0781  0.0378 -0.2110
 4980TIP3    H114883   0.646   2.529   4.358  1.9100  0.1061 -1.0273
 4980TIP3    H214884   0.572   2.432   4.268 -0.3638  0.8105  0.0133
 4981TIP3   OH214885   4.869   5.870   0.297 -0.2690 -0.0980  0.1374
 4981TIP3    H114886   4.798   5.841   0.354 -1.2768  1.9642  0.0525
 4981TIP3    H214887   4.834   5.948   0.254  2.4353  1.6853  0.9279
 4982TIP3   OH214888   0.190   3.035   0.235  0.0559  0.3483  0.2024
 4982TIP3    H114889   0.282   3.023   0.258  0.5248  1.3683 -1.0227
 4982TIP3    H214890   0.151   3.076   0.313  1.0025  1.3368  0.1819
 4983TIP3   OH214891   0.653   0.422   4.400 -0.3225  0.5598 -0.2540
 4983TIP3    H114892   0.583   0.392   4.458 -1.7259  0.3421 -1.9488
 4983TIP3    H214893   0.656   0.356   4.331  1.5064  0.6481 -0.2935
 4984TIP3   OH214894   0.205   6.843   1.975  0.2095 -0.1246 -0.0250
 4984TIP3    H114895   0.285   6.805   2.011  0.0973  0.4245  0.8291
 4984TIP3    H214896   0.151   6.863   2.051 -1.6648 -2.3737 -0.6436
 4985TIP3   OH214897   7.061   1.844   0.189 -0.0449  0.1317 -0.5900
 4985TIP3    H114898   7.111   1.807   0.116 -3.0559 -3.2379 -1.2343
 4985TIP3    H214899   7.024   1.925   0.153  0.0739 -0.4713 -2.1801
 4986TIP3   OH214900   4.543   7.218   2.458  0.2184 -0.7502  0.0743
 4986TIP3    H114901   4.514   7.193   2.545 -1.6814 -2.1018 -0.8731
 4986TIP3    H214902   4.636   7.237   2.468 -0.1331 -0.0791  2.5173
 4987TIP3   OH214903   3.043   1.051   4.094  0.0886 -0.4807  0.5697
 4987TIP3    H114904   3.013   1.130   4.140  0.5446 -0.3426  0.6324
 4987TIP3    H214905   3.001   1.056   4.008  0.8388  0.3080  0.2365
 4988TIP3   OH214906   7.626   6.176   0.932 -0.0323  0.0009 -0.2445
 4988TIP3    H114907   7.564   6.161   0.861 -0.9746 -0.2233  0.5994
 4988TIP3    H214908   7.650   6.269   0.924 -2.7510  0.9275  1.1211
 4989TIP3   OH214909   7.773   1.930   2.247 -1.1763  0.1508 -0.4511
 4989TIP3    H114910   7.795   1.881   2.327 -1.3690  0.6339 -0.0954
 4989TIP3    H214911   7.678   1.938   2.249 -1.0716  1.4670  0.0635
 4990TIP3   OH214912   1.384   3.709   2.924 -0.0731  0.1125 -0.3104
 4990TIP3    H114913   1.330   3.743   2.853 -1.2772 -0.7603  0.1434
 4990TIP3    H214914   1.353   3.754   3.003 -0.2019 -0.4321 -0.0376
 4991TIP3   OH214915   3.392   5.413   1.452 -0.5484  0.4685 -0.0655
 4991TIP3    H114916   3.338   5.401   1.374 -0.3250  1.2695 -0.3564
 4991TIP3    H214917   3.468   5.463   1.421 -0.0827  0.1440  0.5164
 4992TIP3   OH214918   6.436   7.753   5.382  0.2619 -0.2368 -0.1070
 4992TIP3    H114919   6.499   7.705   5.435 -0.6631 -0.6054  0.6785
 4992TIP3    H214920   6.431   7.703   5.300  1.5877  0.2572 -0.5094
 4993TIP3   OH214921   6.708   6.747   0.180 -1.1849 -0.2066  0.7554
 4993TIP3    H114922   6.696   6.771   0.272 -1.3618 -0.2779  0.7511
 4993TIP3    H214923   6.733   6.654   0.183  0.6885  0.2592  0.8485
 4994TIP3   OH214924   2.014   7.636   5.236 -0.2380  0.2057  0.5271
 4994TIP3    H114925   1.992   7.724   5.267 -0.9866  0.1280  0.2516
 4994TIP3    H214926   2.041   7.589   5.314  2.7622  1.3892  0.3446
 4995TIP3   OH214927   6.920   1.612   4.803 -0.2524  0.1059  0.3604
 4995TIP3    H114928   6.966   1.696   4.809 -2.0336  1.0386  2.4216
 4995TIP3    H214929   6.842   1.631   4.751 -0.7287 -0.2297  0.9450
 4996TIP3   OH214930   5.828   3.338   1.923  0.8403 -0.2969 -0.0881
 4996TIP3    H114931   5.751   3.358   1.977  0.0045 -0.6576 -1.1294
 4996TIP3    H214932   5.794   3.283   1.853  2.4325 -2.3090  0.6321
 4997TIP3   OH214933   3.160   1.715   6.206 -0.3005  0.3370 -0.2332
 4997TIP3    H114934   3.204   1.715   6.291 -0.3808  0.9128 -0.1875
 4997TIP3    H214935   3.201   1.643   6.158 -0.5947 -0.3219  0.4660
 4998TIP3   OH214936   6.389   0.655   6.138  0.4443 -0.3009 -0.1745
 4998TIP3    H114937   6.466   0.711   6.132  0.3781  0.0613  1.8185
 4998TIP3    H214938   6.389   0.623   6.228 -1.6678 -0.3809 -0.1566
 4999TIP3   OH214939   7.713   3.724   1.676 -0.0433  0.3366  0.1677
 4999TIP3    H114940   7.690   3.731   1.768 -1.8307  0.6572 -0.2656
 4999TIP3    H214941   7.649   3.778   1.630  1.0278  0.4817 -1.2449
 5000TIP3   OH214942   5.447   3.837   2.705  0.7438  0.3647  0.3828
 5000TIP3    H114943   5.381   3.850   2.637 -0.1839  3.3303  1.6627
 5000TIP3    H214944   5.397   3.810   2.782  1.3601  0.1538  0.7190
 5001TIP3   OH214945   4.241   4.155   1.076 -0.5057  0.5870 -0.7426
 5001TIP3    H114946   4.187   4.088   1.035  0.3075 -1.2429  0.9844
 5001TIP3    H214947   4.187   4.188   1.148 -0.3409  0.7131 -0.6766
 5002TIP3   OH214948   1.632   5.668   2.628 -0.2996  0.9625 -0.6634
 5002TIP3    H114949   1.541   5.686   2.607 -0.1038  2.7033 -0.2124
 5002TIP3    H214950   1.630   5.623   2.712 -0.8098 -1.0860 -1.7030
 5003TIP3   OH214951   8.189   1.698   6.045 -0.5848 -0.0278 -0.0072
 5003TIP3    H114952   8.173   1.780   5.999  0.5050 -0.6906 -1.6663
 5003TIP3    H214953   8.115   1.642   6.020 -0.5308 -0.0470 -0.1246
 5004TIP3   OH214954   6.681   2.326   0.940  0.2744  0.6501  0.3421
 5004TIP3    H114955   6.629   2.246   0.932  0.7386  0.4892 -1.4954
 5004TIP3    H214956   6.616   2.395   0.955 -0.4466  0.3329 -1.0925
 5005TIP3   OH214957   4.380   3.699   5.175 -0.3558  0.1471 -0.0170
 5005TIP3    H114958   4.404   3.620   5.224  0.9022  0.1922 -0.5414
 5005TIP3    H214959   4.287   3.687   5.155 -1.1832  0.4602  3.0153
 5006TIP3   OH214960   4.564   6.390   6.006 -0.0416  0.6967  0.6209
 5006TIP3    H114961   4.603   6.312   5.965  1.3447  1.4913  0.3714
 5006TIP3    H214962   4.496   6.418   5.944 -1.3885 -0.9436  1.2541
 5007TIP3   OH214963   2.619   5.760   2.107 -0.4345 -0.1010 -0.3985
 5007TIP3    H114964   2.670   5.695   2.155  0.4198  1.3335  0.7263
 5007TIP3    H214965   2.681   5.798   2.044 -0.6279  0.3273 -0.3378
 5008TIP3   OH214966   7.015   3.255   4.831 -0.0385  0.5754 -0.1902
 5008TIP3    H114967   7.013   3.349   4.817  1.3256  0.9863  1.9557
 5008TIP3    H214968   7.106   3.230   4.814 -0.5030 -0.4862 -1.2802
 5009TIP3   OH214969   5.862   3.443   5.621 -0.0847 -0.1216 -1.0958
 5009TIP3    H114970   5.857   3.351   5.647  0.1653  0.1858  0.1536
 5009TIP3    H214971   5.905   3.442   5.536  1.2617 -1.0909 -0.4451
 5010TIP3   OH214972   6.070   1.377   4.850 -0.2762  0.1939 -0.1806
 5010TIP3    H114973   6.041   1.429   4.775  2.0787  0.2958 -1.1353
 5010TIP3    H214974   6.025   1.414   4.925 -2.5117  0.2723 -1.4725
 5011TIP3   OH214975   3.818   5.274   3.146 -0.3646  0.2813  0.5924
 5011TIP3    H114976   3.772   5.209   3.093  0.3157  0.3005 -0.0263
 5011TIP3    H214977   3.788   5.359   3.112  1.3364  0.3264 -0.9474
 5012TIP3   OH214978   6.254   5.374   1.155  0.3677  0.0851 -0.2045
 5012TIP3    H114979   6.344   5.404   1.168  0.2042  0.9379 -0.9333
 5012TIP3    H214980   6.263   5.293   1.105  0.8662 -1.8061  2.6880
 5013TIP3   OH214981   1.820   7.783   6.448  0.6048  0.1389  0.0020
 5013TIP3    H114982   1.881   7.803   6.377  0.0628 -0.4635 -0.6444
 5013TIP3    H214983   1.820   7.687   6.454  1.1578  0.1945  1.2813
 5014TIP3   OH214984   0.727   3.253   1.176 -0.5437  0.3771 -0.2979
 5014TIP3    H114985   0.641   3.277   1.210 -0.1635  1.1854  0.1048
 5014TIP3    H214986   0.743   3.165   1.212 -0.5558  0.8329  0.8831
 5015TIP3   OH214987   8.139   0.352   3.089  0.5066 -0.4748 -0.1895
 5015TIP3    H114988   8.170   0.261   3.085  0.2702 -0.5236 -0.9763
 5015TIP3    H214989   8.163   0.390   3.005 -0.6500 -0.2165 -0.4164
 5016TIP3   OH214990   6.461   6.656   3.551 -0.7093  0.8658  0.1891
 5016TIP3    H114991   6.512   6.722   3.505  0.7683  0.5926  1.3483
 5016TIP3    H214992   6.472   6.677   3.644 -2.2222  0.4136  0.5075
 5017TIP3   OH214993   4.365   0.924   2.146 -0.2732  0.0012 -0.4795
 5017TIP3    H114994   4.327   0.866   2.213  0.4466  0.6660  0.5328
 5017TIP3    H214995   4.317   0.903   2.066 -0.2489 -1.7628 -0.0696
 5018TIP3   OH214996   4.051   2.415   2.786 -0.0982 -0.3955  0.0454
 5018TIP3    H114997   4.074   2.334   2.741  0.3103 -0.9228  1.1521
 5018TIP3    H214998   4.051   2.391   2.879 -0.7563  0.6844  0.3398
 5019TIP3   OH214999   4.262   3.733   5.525  0.1553  0.4038  0.1710
 5019TIP3    H115000   4.229   3.772   5.444 -0.5580  2.0968  1.2223
 5019TIP3    H215001   4.352   3.708   5.505 -0.1712  0.3121 -1.2911
 5020TIP3   OH215002   1.504   4.822   5.862 -0.1561 -0.5110 -0.7239
 5020TIP3    H115003   1.506   4.752   5.796 -1.6070  0.7261 -2.1640
 5020TIP3    H215004   1.595   4.849   5.871  0.2323 -1.5652 -1.2644
 5021TIP3   OH215005   4.021   0.503   5.398  0.0891  0.3588 -0.2751
 5021TIP3    H115006   4.108   0.513   5.437  0.0406  2.9882 -0.7180
 5021TIP3    H215007   3.965   0.561   5.450 -0.8322  0.7646 -1.6806
 5022TIP3   OH215008   6.796   0.899   3.905 -0.6284 -0.2233 -0.0228
 5022TIP3    H115009   6.838   0.952   3.972 -0.3378 -0.6537  0.1350
 5022TIP3    H215010   6.867   0.850   3.864 -0.6354  0.8281 -1.3762
 5023TIP3   OH215011   1.955   4.865   4.810  0.0774 -0.1154  0.1845
 5023TIP3    H115012   1.913   4.888   4.727 -1.4077 -0.5278  0.7758
 5023TIP3    H215013   1.887   4.881   4.876  1.4813  0.9640  1.4312
 5024TIP3   OH215014   8.024   4.927   4.332  0.2602 -0.8473 -0.0902
 5024TIP3    H115015   7.976   4.959   4.409 -0.2443 -1.3385 -0.2023
 5024TIP3    H215016   8.114   4.917   4.363  0.7914  2.0532 -0.4067
 5025TIP3   OH215017   7.222   5.803   2.144  0.2150 -0.3897  0.3008
 5025TIP3    H115018   7.231   5.707   2.145  1.3053 -0.3022 -0.4281
 5025TIP3    H215019   7.191   5.823   2.056  0.9562 -0.0026  0.1192
 5026TIP3   OH215020   2.279   6.533   0.409 -0.0087  0.3798 -0.7715
 5026TIP3    H115021   2.336   6.582   0.349  1.4230  0.2746  0.4403
 5026TIP3    H215022   2.229   6.599   0.455  1.8761  0.7862  0.8224
 5027TIP3   OH215023   6.319   6.895   4.024 -0.4563 -0.1348 -0.0168
 5027TIP3    H115024   6.230   6.860   4.033  0.0910 -1.1836  1.6871
 5027TIP3    H215025   6.326   6.959   4.095  0.1324  0.0247 -0.2161
 5028TIP3   OH215026   0.081   0.845   6.554  0.1401  0.2205 -0.4308
 5028TIP3    H115027   0.155   0.899   6.526  0.2280  0.4630  0.2510
 5028TIP3    H215028   0.008   0.876   6.501  0.7416 -0.7697 -1.9134
 5029TIP3   OH215029   2.285   5.566   0.759  0.0360  0.0206  0.4744
 5029TIP3    H115030   2.318   5.650   0.729 -0.3115 -0.6574 -2.0746
 5029TIP3    H215031   2.218   5.588   0.823 -0.7202  1.7722 -0.8245
 5030TIP3   OH215032   5.991   2.378   2.997  0.0484 -0.1463  0.0863
 5030TIP3    H115033   5.973   2.370   2.904 -0.4170  1.5965 -0.0159
 5030TIP3    H215034   6.047   2.455   3.004  1.7050 -1.3615  1.0943
 5031TIP3   OH215035   3.243   3.414   4.990  0.1579 -0.2366  0.1881
 5031TIP3    H115036   3.172   3.478   4.999 -1.5272 -1.9798 -0.0074
 5031TIP3    H215037   3.252   3.376   5.078 -0.4641 -1.2808 -0.1693
 5032TIP3   OH215038   7.724   7.113   2.506  0.5250  0.1188 -0.3350
 5032TIP3    H115039   7.719   7.153   2.594 -1.6183 -1.0863  0.1627
 5032TIP3    H215040   7.728   7.019   2.523  2.2238 -0.0810 -1.5538
 5033TIP3   OH215041   4.964   2.632   4.691 -0.5777  0.1853 -0.4061
 5033TIP3    H115042   4.903   2.653   4.761 -0.8672  2.3133 -1.2284
 5033TIP3    H215043   4.989   2.717   4.654  1.6355 -0.7112 -1.1570
 5034TIP3   OH215044   2.561   6.534   6.475  0.0111 -0.8764 -0.0023
 5034TIP3    H115045   2.541   6.576   6.559 -1.7232 -0.8731 -0.4010
 5034TIP3    H215046   2.583   6.607   6.417  1.4103 -0.8905  0.4577
 5035TIP3   OH215047   6.992   1.508   2.601  0.7846  0.3978  0.0429
 5035TIP3    H115048   7.028   1.428   2.561 -0.2997 -0.2835  0.3810
 5035TIP3    H215049   7.044   1.579   2.563  1.5119 -0.4345 -0.5750
 5036TIP3   OH215050   5.881   4.142   4.185  0.0118 -0.6335  0.0439
 5036TIP3    H115051   5.793   4.159   4.219 -0.8100 -2.2140 -1.1356
 5036TIP3    H215052   5.902   4.054   4.218  1.5037  0.0286  0.9493
 5037TIP3   OH215053   7.667   3.647   3.141  0.0900  0.5237  0.1428
 5037TIP3    H115054   7.741   3.689   3.183  0.8529 -0.0795 -0.5671
 5037TIP3    H215055   7.615   3.720   3.107  1.5334  0.9396 -1.3129
 5038TIP3   OH215056   1.181   7.672   1.843 -0.7043  0.3407  0.2093
 5038TIP3    H115057   1.121   7.599   1.827  1.6149 -1.2050 -2.4335
 5038TIP3    H215058   1.166   7.732   1.771  0.0646  0.5352  0.1977
 5039TIP3   OH215059   5.520   0.726   2.414 -0.7641 -0.5044 -1.2543
 5039TIP3    H115060   5.444   0.780   2.391 -1.1811 -1.3824 -2.0014
 5039TIP3    H215061   5.492   0.636   2.398 -0.7383 -1.1688  1.7717
 5040TIP3   OH215062   4.010   1.667   1.168 -0.0372  0.0006  0.7698
 5040TIP3    H115063   3.946   1.737   1.155 -0.0022 -0.1271 -0.1846
 5040TIP3    H215064   4.075   1.704   1.228  0.5252  1.1602 -0.4964
 5041TIP3   OH215065   2.664   4.207   6.218  0.0070  0.3243  0.0592
 5041TIP3    H115066   2.749   4.188   6.177  0.9736  0.8220  1.7162
 5041TIP3    H215067   2.622   4.269   6.159 -0.1837 -1.5719 -1.8852
 5042TIP3   OH215068   6.876   0.800   5.590  0.0534  0.2826 -0.4856
 5042TIP3    H115069   6.862   0.720   5.640  2.2558  0.7333  1.0008
 5042TIP3    H215070   6.867   0.774   5.498 -0.9322 -1.2636  0.0243
 5043TIP3   OH215071   0.175   1.533   4.572  0.4526  0.1814  0.7667
 5043TIP3    H115072   0.182   1.627   4.555 -1.1070 -0.1204 -2.3045
 5043TIP3    H215073   0.081   1.515   4.575  0.6470 -1.5446 -0.9734
 5044TIP3   OH215074   6.287   1.967   5.427  0.6217  0.2300  0.3631
 5044TIP3    H115075   6.243   2.008   5.354  0.2276  0.9725  1.0038
 5044TIP3    H215076   6.379   1.960   5.400  0.6148  1.1454  0.0690
 5045TIP3   OH215077   7.021   6.666   3.429 -0.4114 -0.1865  0.1479
 5045TIP3    H115078   7.003   6.739   3.370 -0.6493  0.0171  0.4725
 5045TIP3    H215079   6.935   6.632   3.452 -0.3045 -0.5113  0.0737
 5046TIP3   OH215080   2.915   5.012   6.728  0.3988 -0.3251  0.0431
 5046TIP3    H115081   2.981   5.077   6.752 -1.3207  1.3465  0.4464
 5046TIP3    H215082   2.909   4.954   6.803 -0.3812  1.0684  1.1041
 5047TIP3   OH215083   3.233   3.809   1.375  0.2432  0.3924 -0.5115
 5047TIP3    H115084   3.266   3.897   1.390 -0.0017  0.3778  0.1419
 5047TIP3    H215085   3.163   3.821   1.311  1.4658  0.4220 -1.8923
 5048TIP3   OH215086   4.759   6.078   1.513 -0.0684 -0.0727 -0.2295
 5048TIP3    H115087   4.665   6.097   1.522  0.4394  2.9486 -0.3591
 5048TIP3    H215088   4.788   6.063   1.603 -0.4545  0.1864 -0.0553
 5049TIP3   OH215089   6.048   5.215   2.821 -1.2817  0.1897 -0.0116
 5049TIP3    H115090   6.096   5.246   2.898  0.0056  0.6532 -0.9770
 5049TIP3    H215091   6.019   5.126   2.846 -1.4931  0.5796  1.2401
 5050TIP3   OH215092   2.811   2.205   0.312  0.4595 -0.0008  0.0670
 5050TIP3    H115093   2.877   2.192   0.380  0.3784 -2.1658 -0.2042
 5050TIP3    H215094   2.756   2.276   0.346  1.2274 -0.0984  1.6197
 5051TIP3   OH215095   4.077   3.251   0.497  0.1136  0.1024 -0.4986
 5051TIP3    H115096   3.999   3.222   0.450  0.1157 -0.6999 -0.0243
 5051TIP3    H215097   4.119   3.170   0.526  1.0506  0.5291 -0.6244
 5052TIP3   OH215098   2.178   0.870   4.140  0.5231  0.3380 -0.1186
 5052TIP3    H115099   2.231   0.836   4.212 -2.7783  0.0437  2.3865
 5052TIP3    H215100   2.212   0.825   4.062  1.7938 -2.2572  1.7908
 5053TIP3   OH215101   3.282   0.930   0.994 -0.2702 -0.0554 -0.0473
 5053TIP3    H115102   3.233   0.952   1.073  0.9914  1.6071  0.3151
 5053TIP3    H215103   3.372   0.959   1.012  0.1763 -0.1777 -1.8701
 5054TIP3   OH215104   4.253   1.027   3.137 -0.6187  1.0696 -0.6226
 5054TIP3    H115105   4.314   0.954   3.142 -2.1692 -0.3285 -1.2042
 5054TIP3    H215106   4.305   1.099   3.102  0.2874 -0.6124 -2.9883
 5055TIP3   OH215107   4.941   6.309   2.721  0.1740  0.0751 -0.2260
 5055TIP3    H115108   4.912   6.399   2.738  0.8030  0.2531 -0.0611
 5055TIP3    H215109   4.937   6.266   2.807 -1.2526 -0.3983 -0.5093
 5056TIP3   OH215110   7.430   1.725   3.743 -0.3637 -0.1491  0.0177
 5056TIP3    H115111   7.493   1.704   3.813 -0.4711  0.3665  0.2694
 5056TIP3    H215112   7.357   1.665   3.759  0.2922 -1.1630 -0.6206
 5057TIP3   OH215113   4.589   5.928   3.575 -0.3900 -0.4254 -0.1332
 5057TIP3    H115114   4.677   5.962   3.585 -0.1956 -0.3800 -1.6421
 5057TIP3    H215115   4.537   5.972   3.642  0.3102  1.1315 -0.5838
 5058TIP3   OH215116   0.485   4.130   6.231 -0.5557  0.1170  0.1049
 5058TIP3    H115117   0.435   4.157   6.154  1.7428  0.8742 -1.2116
 5058TIP3    H215118   0.567   4.179   6.224  1.1928 -2.4884  1.1049
 5059TIP3   OH215119   2.752   5.554   2.270  0.5994 -0.5037  0.0760
 5059TIP3    H115120   2.815   5.487   2.245  1.2286  0.2036 -0.2810
 5059TIP3    H215121   2.742   5.544   2.365 -1.2292 -2.7157 -0.2862
 5060TIP3   OH215122   5.034   5.407   6.528 -0.0386 -0.0219  0.4808
 5060TIP3    H115123   5.086   5.485   6.547  1.7915 -1.2840  0.9676
 5060TIP3    H215124   5.096   5.334   6.537 -1.4223 -1.4680 -0.9689
 5061TIP3   OH215125   5.804   2.332   5.840 -0.7189  0.2654 -0.0200
 5061TIP3    H115126   5.848   2.258   5.797 -2.2072 -1.2424  0.9375
 5061TIP3    H215127   5.812   2.313   5.933 -0.4228  1.7734  0.2786
 5062TIP3   OH215128   0.299   5.456   6.208  0.3287  0.4523  0.5350
 5062TIP3    H115129   0.307   5.364   6.231 -1.3866  0.3533  0.8606
 5062TIP3    H215130   0.237   5.491   6.273 -1.2744  1.1663 -1.2985
 5063TIP3   OH215131   6.229   0.732   4.580  0.0977 -0.1815  0.1206
 5063TIP3    H115132   6.268   0.657   4.534 -1.0029 -0.3837 -0.5150
 5063TIP3    H215133   6.243   0.806   4.521 -0.4350 -0.2506 -0.1001
 5064TIP3   OH215134   4.550   6.708   2.096  0.9431  0.3674  0.2132
 5064TIP3    H115135   4.542   6.778   2.160  0.8088 -0.8995  1.6479
 5064TIP3    H215136   4.504   6.741   2.019 -0.7769  1.1231  1.4904
 5065TIP3   OH215137   4.361   1.649   3.067 -0.2397 -0.1324 -0.3339
 5065TIP3    H115138   4.400   1.584   3.008  0.8728  2.2297 -2.4140
 5065TIP3    H215139   4.273   1.664   3.031 -0.2465 -0.0107 -0.2674
 5066TIP3   OH215140   2.195   4.361   0.026  0.4559  0.8339 -0.1596
 5066TIP3    H115141   2.138   4.289  -0.002 -1.2796  2.7131 -1.7445
 5066TIP3    H215142   2.178   4.370   0.120  1.7517 -1.6313  0.4014
 5067TIP3   OH215143   3.146   5.240   1.540 -0.0511 -0.0840  0.0663
 5067TIP3    H115144   3.144   5.223   1.634  0.2096 -2.9997 -0.3586
 5067TIP3    H215145   3.238   5.229   1.515 -0.2003  0.1629 -0.6242
 5068TIP3   OH215146   5.043   1.629   3.735 -0.3463  0.1622  0.3060
 5068TIP3    H115147   5.054   1.677   3.653 -0.5149 -0.8515 -0.3295
 5068TIP3    H215148   5.000   1.691   3.794 -0.5930  0.7693 -0.5008
 5069TIP3   OH215149   4.294   6.875   1.968 -0.4395  0.3368  0.4498
 5069TIP3    H115150   4.201   6.879   1.947 -0.4819  0.5445  0.6798
 5069TIP3    H215151   4.334   6.944   1.913 -0.8078  2.2368  2.4369
 5070TIP3   OH215152   1.991   1.011   1.979  0.7212  0.1694 -0.2262
 5070TIP3    H115153   2.073   0.990   1.934  1.5799  0.7732  0.9834
 5070TIP3    H215154   1.992   1.107   1.987 -0.4132  0.2416 -0.7408
 5071TIP3   OH215155   6.689   6.469   4.980 -0.1812 -0.1674  0.4112
 5071TIP3    H115156   6.645   6.392   5.018  0.0517 -0.8291 -0.6345
 5071TIP3    H215157   6.754   6.432   4.921 -0.1210  0.8428 -0.1613
 5072TIP3   OH215158   2.704   1.140   4.895  0.2134 -0.6565 -0.0037
 5072TIP3    H115159   2.791   1.137   4.855  0.1479 -0.0162 -0.1998
 5072TIP3    H215160   2.716   1.100   4.981  0.4239 -1.7356 -0.5213
 5073TIP3   OH215161   6.882   4.016   3.671  0.4251 -0.1889  0.1508
 5073TIP3    H115162   6.978   4.021   3.668  0.3919  0.5943 -2.3483
 5073TIP3    H215163   6.860   3.944   3.613 -0.5116  0.4935 -0.3765
 5074TIP3   OH215164   2.340   6.967   2.937 -0.3107  0.2976 -0.1280
 5074TIP3    H115165   2.424   7.008   2.916  0.8175 -1.8416 -0.1836
 5074TIP3    H215166   2.303   7.021   3.007  0.8125  1.6503 -0.5396
 5075TIP3   OH215167   5.087   6.394   0.076 -0.8542  0.1266  0.1504
 5075TIP3    H115168   5.077   6.377   0.170  2.3041  2.0419  1.0030
 5075TIP3    H215169   5.093   6.306   0.037  0.2852 -0.7838  2.1603
 5076TIP3   OH215170   2.911   0.493   0.576 -0.2527 -0.1403  0.1870
 5076TIP3    H115171   2.954   0.506   0.660 -0.7495 -0.2681  0.4706
 5076TIP3    H215172   2.968   0.432   0.529  0.5857  0.7734 -0.0050
 5077TIP3   OH215173   2.795   3.478   0.361  0.4093 -0.4721  0.4061
 5077TIP3    H115174   2.848   3.546   0.319  0.9482 -0.5598  0.9224
 5077TIP3    H215175   2.786   3.508   0.451  0.2127 -0.8322  0.5071
 5078TIP3   OH215176   6.398   3.526   6.059  0.0180 -0.5612  0.0750
 5078TIP3    H115177   6.420   3.616   6.036  1.0567 -1.0258 -0.8475
 5078TIP3    H215178   6.438   3.513   6.145 -0.9663  0.1417  0.6542
 5079TIP3   OH215179   3.811   4.812   4.592 -0.1446 -0.0862 -0.1800
 5079TIP3    H115180   3.773   4.737   4.637 -2.4467  0.5890 -0.8357
 5079TIP3    H215181   3.777   4.888   4.639 -0.1550  0.5799 -1.2204
 5080TIP3   OH215182   1.572   2.516   2.988 -0.1412 -0.4924 -0.0382
 5080TIP3    H115183   1.623   2.597   2.977 -2.1105  0.5369 -3.0917
 5080TIP3    H215184   1.637   2.446   2.986  1.3439  0.8064 -2.6494
 5081TIP3   OH215185   6.429   6.564   0.520 -1.2765  0.1599  0.5299
 5081TIP3    H115186   6.462   6.502   0.454 -0.4002  0.7763  0.3667
 5081TIP3    H215187   6.367   6.620   0.472  0.8839  1.9506 -0.3672
 5082TIP3   OH215188   5.157   0.438   2.337  0.2278 -0.0247  0.0847
 5082TIP3    H115189   5.133   0.356   2.380  2.5422 -0.0154  1.5244
 5082TIP3    H215190   5.082   0.496   2.352 -0.6847 -1.3009  0.6080
 5083TIP3   OH215191   1.001   5.115   1.985 -0.2476 -0.3720  0.5778
 5083TIP3    H115192   0.971   5.187   2.040 -1.6772 -0.1255 -0.4789
 5083TIP3    H215193   0.968   5.037   2.028 -0.1300 -0.2849  0.8310
 5084TIP3   OH215194   7.230   0.166   0.545  0.2678 -0.1058 -0.0423
 5084TIP3    H115195   7.182   0.179   0.463 -1.2065 -0.3169  0.7517
 5084TIP3    H215196   7.162   0.159   0.612  1.3604 -1.5598  0.9923
 5085TIP3   OH215197   1.005   2.886   3.998 -0.2426 -0.8589  0.3048
 5085TIP3    H115198   0.993   2.861   3.906 -0.1255 -0.3960  0.1579
 5085TIP3    H215199   1.022   2.981   3.995  0.2949 -0.9348  0.7594
 5086TIP3   OH215200   3.743   0.961   0.582  0.1224  0.3031  0.1095
 5086TIP3    H115201   3.758   0.986   0.491 -1.4575 -0.9071 -0.5214
 5086TIP3    H215202   3.815   1.002   0.630  1.3701  0.4057 -1.7607
 5087TIP3   OH215203   3.322   5.794   4.102 -0.4545 -0.3572 -0.6830
 5087TIP3    H115204   3.381   5.727   4.136 -1.4570 -1.2577 -0.6979
 5087TIP3    H215205   3.364   5.877   4.126  1.8154 -0.9157 -2.3546
 5088TIP3   OH215206   1.831   4.105   4.523  0.2696 -0.1323  0.2593
 5088TIP3    H115207   1.890   4.160   4.575  1.2159 -0.1040 -0.8160
 5088TIP3    H215208   1.881   4.083   4.444 -0.4831 -1.6636  0.1708
 5089TIP3   OH215209   3.620   0.823   4.543 -0.0819 -0.2581 -0.2181
 5089TIP3    H115210   3.544   0.882   4.547  0.0497  0.0282 -1.6398
 5089TIP3    H215211   3.669   0.844   4.622 -1.2671 -0.1597  0.5257
 5090TIP3   OH215212   3.565   7.267   4.439 -0.2012 -0.0248 -0.2529
 5090TIP3    H115213   3.640   7.256   4.381  0.7917  2.4357  0.4413
 5090TIP3    H215214   3.527   7.179   4.447  1.6731 -1.0431 -1.8338
 5091TIP3   OH215215   0.450   5.295   5.183 -0.2463 -0.3876  0.4088
 5091TIP3    H115216   0.374   5.240   5.165  0.2157 -0.9011 -0.0151
 5091TIP3    H215217   0.457   5.295   5.279 -0.7731 -0.3304  0.4547
 5092TIP3   OH215218   6.481   5.891   4.638  0.3360 -0.4584 -0.0342
 5092TIP3    H115219   6.535   5.952   4.587  0.0696  0.1948  0.4387
 5092TIP3    H215220   6.458   5.822   4.577 -0.3177  0.5132 -0.9147
 5093TIP3   OH215221   5.750   0.925  -0.003  0.2363 -0.2924  0.1170
 5093TIP3    H115222   5.738   0.915   0.092 -0.1536 -1.9814 -0.0773
 5093TIP3    H215223   5.816   0.860  -0.026  0.0577 -0.1530 -0.8308
 5094TIP3   OH215224   4.550   4.248   4.264 -0.2967 -0.6338 -0.1894
 5094TIP3    H115225   4.487   4.261   4.334 -0.0043 -0.1965 -0.0033
 5094TIP3    H215226   4.616   4.316   4.278  0.5627 -1.4811  0.0112
 5095TIP3   OH215227   5.689   0.665   4.863 -0.1132  0.8951 -0.2975
 5095TIP3    H115228   5.682   0.760   4.867  0.7939  0.9559 -0.0098
 5095TIP3    H215229   5.710   0.646   4.771  3.5068  1.2852  0.3107
 5096TIP3   OH215230   7.830   0.667   4.976 -0.3469 -0.6009 -0.2540
 5096TIP3    H115231   7.772   0.743   4.977  0.5678  0.1424  1.5257
 5096TIP3    H215232   7.838   0.642   5.068  0.7123 -1.8008 -0.6470
 5097TIP3   OH215233   0.983   2.381   4.246 -0.2777  0.3543 -0.0079
 5097TIP3    H115234   1.073   2.406   4.266  0.6563 -1.2483 -1.8121
 5097TIP3    H215235   0.947   2.455   4.197  0.6047  0.3738 -0.6379
 5098TIP3   OH215236   0.728   0.782   2.367  0.4429 -0.0833  0.6420
 5098TIP3    H115237   0.659   0.844   2.344  3.0924  2.8663 -0.1355
 5098TIP3    H215238   0.748   0.802   2.459  2.2444  1.3603  0.0021
 5099TIP3   OH215239   3.659   1.804   0.067 -0.5610  0.4025  0.7818
 5099TIP3    H115240   3.586   1.866   0.070 -1.4131 -0.4146 -1.3934
 5099TIP3    H215241   3.722   1.844   0.006 -0.6260 -0.3168  0.2190
 5100TIP3   OH215242   2.003   3.065   0.956 -0.1963  0.3103  0.3693
 5100TIP3    H115243   2.088   3.025   0.939 -0.6193 -0.0579 -1.0349
 5100TIP3    H215244   2.005   3.088   1.049  1.3521  0.1379  0.3993
 5101TIP3   OH215245   5.690   1.853   2.113 -0.3637  0.7729  0.1968
 5101TIP3    H115246   5.606   1.813   2.090  0.7079 -0.1993 -2.5059
 5101TIP3    H215247   5.668   1.941   2.141 -2.4006 -0.0365  1.3402
 5102TIP3   OH215248   8.218   5.616   4.725 -0.5658  0.5374  0.0047
 5102TIP3    H115249   8.145   5.562   4.695 -0.5180  0.0685  0.7112
 5102TIP3    H215250   8.239   5.670   4.650  0.7064 -1.8227 -1.4711
 5103TIP3   OH215251   1.857   4.613   1.629  0.3308 -0.2961  0.1810
 5103TIP3    H115252   1.878   4.521   1.646 -0.9092 -0.5075  0.6555
 5103TIP3    H215253   1.939   4.660   1.648  1.0558 -1.3124 -0.3257
 5104TIP3   OH215254   7.309   5.684   3.899 -0.2959  0.4897  0.6965
 5104TIP3    H115255   7.369   5.686   3.974 -0.5964  1.7271  0.9311
 5104TIP3    H215256   7.324   5.599   3.858 -0.3309 -0.3489  2.3371
 5105TIP3   OH215257   8.192   2.978   0.494 -0.2426 -0.2605 -0.1324
 5105TIP3    H115258   8.161   3.067   0.474 -0.5304 -0.3634 -0.1523
 5105TIP3    H215259   8.283   2.990   0.522 -0.2230  0.0206 -0.3078
 5106TIP3   OH215260   2.277   7.436   6.724 -0.2716  0.9400  0.2910
 5106TIP3    H115261   2.283   7.343   6.746  0.5711  1.5949  3.2706
 5106TIP3    H215262   2.185   7.450   6.702 -0.7926 -0.2567  1.6290
 5107TIP3   OH215263   1.907   2.848   3.086  0.0059  0.5957 -0.3434
 5107TIP3    H115264   1.816   2.825   3.068 -0.9770  1.9735  2.4292
 5107TIP3    H215265   1.939   2.882   3.002 -2.2295  0.6959 -1.2415
 5108TIP3   OH215266   3.145   1.032   4.739  0.1777 -0.0171 -0.3392
 5108TIP3    H115267   3.087   1.082   4.796  0.6552  0.9106 -0.6506
 5108TIP3    H215268   3.153   0.946   4.782 -0.2790  0.3280  0.4477
 5109TIP3   OH215269   4.553   1.829   2.757  0.6894  0.0941  0.1343
 5109TIP3    H115270   4.578   1.739   2.778  1.6749  0.4756  0.6862
 5109TIP3    H215271   4.531   1.827   2.664  1.8504 -0.4891 -0.1435
 5110TIP3   OH215272   3.535   5.429   5.043  0.7823  0.4215  0.0654
 5110TIP3    H115273   3.606   5.365   5.038 -1.1417 -1.8034 -0.7650
 5110TIP3    H215274   3.460   5.378   5.073 -1.0891  2.0854 -1.5142
 5111TIP3   OH215275   7.849   0.803   3.589 -0.1619 -0.7160  0.4102
 5111TIP3    H115276   7.756   0.781   3.590 -0.0804 -1.0783  1.2386
 5111TIP3    H215277   7.851   0.898   3.575 -0.6211 -0.8369 -0.4968
 5112TIP3   OH215278   6.061   5.819   6.696  0.2293 -0.4994  0.2487
 5112TIP3    H115279   5.988   5.778   6.741 -0.2584  0.1763  0.0958
 5112TIP3    H215280   6.122   5.748   6.678 -0.2107 -1.0023  0.7311
 5113TIP3   OH215281   6.447   1.655   6.238  0.2325  0.0346 -0.4231
 5113TIP3    H115282   6.354   1.672   6.248  0.0258 -0.3678 -1.4574
 5113TIP3    H215283   6.451   1.584   6.174  1.3031  1.1902 -1.6958
 5114TIP3   OH215284   3.903   5.779   2.562 -0.4125 -0.0525  0.7546
 5114TIP3    H115285   3.950   5.837   2.502 -1.5144  0.7996  0.7005
 5114TIP3    H215286   3.901   5.695   2.515 -0.5481  0.3862 -0.0521
 5115TIP3   OH215287   2.853   3.468   6.538  0.0350 -0.1897  0.5508
 5115TIP3    H115288   2.936   3.509   6.515 -0.2895 -0.0358 -0.4058
 5115TIP3    H215289   2.801   3.539   6.577 -0.0265 -0.0134  0.1604
 5116TIP3   OH215290   5.026   6.835   3.647  0.0653  0.7572  0.0212
 5116TIP3    H115291   5.085   6.771   3.687 -1.0017 -0.4962 -0.3368
 5116TIP3    H215292   5.039   6.823   3.553 -0.6568  0.5490 -0.0584
 5117TIP3   OH215293   6.892   4.886   5.307 -0.5148 -0.1640 -0.0886
 5117TIP3    H115294   6.915   4.838   5.387  1.2125  0.0630 -0.4003
 5117TIP3    H215295   6.963   4.949   5.296 -1.2936  0.5441 -1.2196
 5118TIP3   OH215296   2.296   6.158   4.705 -0.4728  0.5000  0.2315
 5118TIP3    H115297   2.248   6.092   4.655 -0.4092  0.3149  0.4153
 5118TIP3    H215298   2.388   6.144   4.680 -0.7233  3.2017 -3.0200
 5119TIP3   OH215299   5.056   7.782   0.393  0.2425  0.0531 -0.0352
 5119TIP3    H115300   5.108   7.830   0.329  0.5418 -1.2361 -0.8109
 5119TIP3    H215301   5.114   7.774   0.469  0.2743  0.6887  0.0116
 5120TIP3   OH215302   3.795   2.229   6.382  0.2841 -0.0176  0.1203
 5120TIP3    H115303   3.807   2.214   6.288  1.4882 -0.3207  0.3095
 5120TIP3    H215304   3.771   2.144   6.418  1.0686 -0.1795  0.2715
 5121TIP3   OH215305   0.121   4.817   3.402 -0.0103  0.3143  0.8884
 5121TIP3    H115306   0.091   4.886   3.343  0.2227 -0.9027 -0.7138
 5121TIP3    H215307   0.098   4.849   3.489  0.0452  2.3786  0.2043
 5122TIP3   OH215308   5.817   7.303   0.891 -0.5955 -0.0478 -0.4642
 5122TIP3    H115309   5.800   7.347   0.808  0.9517  1.8089  0.1176
 5122TIP3    H215310   5.743   7.328   0.947  0.5460  2.4805  0.0476
 5123TIP3   OH215311   6.820   1.978   4.099 -0.0215  0.0814 -0.1589
 5123TIP3    H115312   6.751   2.005   4.159 -0.4724  0.7018 -0.9355
 5123TIP3    H215313   6.775   1.933   4.028  0.2788  1.0965 -1.0221
 5124TIP3   OH215314   2.522   3.312   1.937 -0.2499 -0.2300  0.2619
 5124TIP3    H115315   2.504   3.319   1.843  0.4046 -0.0006  0.1461
 5124TIP3    H215316   2.618   3.304   1.943 -0.2546  0.1011  0.9226
 5125TIP3   OH215317   3.536   1.489   6.386  0.0617 -0.1884 -0.3338
 5125TIP3    H115318   3.577   1.490   6.473 -0.5097  1.2708 -0.0590
 5125TIP3    H215319   3.484   1.569   6.383  0.8361  0.3019 -2.3915
 5126TIP3   OH215320   5.233   3.145   0.972 -0.3517  0.2710  0.3726
 5126TIP3    H115321   5.190   3.225   1.003 -0.3540  0.4371 -0.0537
 5126TIP3    H215322   5.196   3.131   0.885  1.1014  0.9130 -0.3761
 5127TIP3   OH215323   2.648   2.838   6.015  0.3393  0.0640  0.3465
 5127TIP3    H115324   2.743   2.851   6.007  0.2927 -0.0332 -0.4126
 5127TIP3    H215325   2.615   2.846   5.926 -0.7616  2.9221  0.9326
 5128TIP3   OH215326   7.850   1.558   3.582 -0.0643 -0.1072 -0.2164
 5128TIP3    H115327   7.930   1.604   3.558  0.6280 -1.0764  0.1467
 5128TIP3    H215328   7.856   1.548   3.677 -0.6893 -0.0473 -0.1715
 5129TIP3   OH215329   7.050   2.319   2.540  0.0760  0.5835  0.1251
 5129TIP3    H115330   6.958   2.304   2.564  0.0744  0.6295  0.1506
 5129TIP3    H215331   7.098   2.252   2.587 -0.0377 -0.0650 -0.6735
 5130TIP3   OH215332   7.346   1.295   3.856 -0.6213  0.3200  0.2251
 5130TIP3    H115333   7.289   1.218   3.863 -0.3277  0.0792  0.0035
 5130TIP3    H215334   7.289   1.364   3.823 -1.4623  0.8443  2.5639
 5131TIP3   OH215335   5.766   6.205   5.379  1.0605 -0.7003 -0.2078
 5131TIP3    H115336   5.766   6.187   5.285 -0.2160  1.2486 -0.6340
 5131TIP3    H215337   5.854   6.181   5.408  1.9978  0.0946 -2.1906
 5132TIP3   OH215338   4.469   5.127   4.035  0.1599  0.2447 -0.0998
 5132TIP3    H115339   4.456   5.167   3.950  0.6213  0.0619 -0.2605
 5132TIP3    H215340   4.475   5.200   4.096  1.1519  0.4372 -0.4116
 5133TIP3   OH215341   0.996   3.041   3.254  0.0363  0.2214 -0.0692
 5133TIP3    H115342   1.053   3.115   3.233  0.9150 -0.8275 -1.6164
 5133TIP3    H215343   0.910   3.066   3.221  0.1432  0.8757  0.1422
 5134TIP3   OH215344   0.597   5.173   5.890 -0.6265  0.2586 -0.3453
 5134TIP3    H115345   0.668   5.111   5.874 -1.5243 -0.8651 -0.0733
 5134TIP3    H215346   0.641   5.258   5.898  0.7672 -0.5119  0.5745
 5135TIP3   OH215347   5.855   6.261   5.093 -0.1497  0.0954  0.3224
 5135TIP3    H115348   5.895   6.344   5.120 -3.0596  0.9397  2.5710
 5135TIP3    H215349   5.790   6.287   5.027  1.4025 -0.9632 -1.7270
 5136TIP3   OH215350   4.436   2.125   5.334  0.1824 -0.8647 -0.0200
 5136TIP3    H115351   4.399   2.053   5.384 -0.9186  0.4394  1.0961
 5136TIP3    H215352   4.509   2.157   5.388 -0.5120  0.0328  0.4224
 5137TIP3   OH215353   1.635   6.345   5.860 -0.4407 -0.1733  0.0636
 5137TIP3    H115354   1.701   6.371   5.795 -0.9444  0.0398 -0.3713
 5137TIP3    H215355   1.551   6.361   5.816 -0.7821 -0.3596  0.6434
 5138TIP3   OH215356   4.627   6.774   5.839 -0.0010 -0.3127  0.3649
 5138TIP3    H115357   4.553   6.771   5.900 -0.4883 -0.4996 -0.2353
 5138TIP3    H215358   4.650   6.867   5.835 -0.6449 -0.1667  0.0230
 5139TIP3   OH215359   5.273   2.220   0.377 -0.5849 -0.4887  0.1448
 5139TIP3    H115360   5.209   2.274   0.330  1.4548 -0.1807 -2.4958
 5139TIP3    H215361   5.348   2.278   0.391  0.9960 -2.1007 -1.2385
 5140TIP3   OH215362   1.427   7.262   5.033 -0.1648  0.8651  0.5019
 5140TIP3    H115363   1.450   7.339   4.982  0.2130 -0.1937 -0.9941
 5140TIP3    H215364   1.501   7.202   5.021 -1.2945 -0.4896  0.0055
 5141TIP3   OH215365   1.587   5.012   6.568  0.3465 -0.1909 -0.1450
 5141TIP3    H115366   1.570   4.925   6.604 -1.9806  1.0559  2.0724
 5141TIP3    H215367   1.500   5.047   6.547  0.9881  2.3326  0.9838
 5142TIP3   OH215368   3.090   1.938   6.580  0.0119 -0.8198 -0.4285
 5142TIP3    H115369   3.046   1.927   6.496  1.4708  1.2717 -1.5660
 5142TIP3    H215370   3.022   1.925   6.645 -1.7893  0.1681 -2.0342
 5143TIP3   OH215371   5.539   4.420   1.321  0.1849  0.4551  0.1679
 5143TIP3    H115372   5.603   4.349   1.323  0.1432  0.4335  0.6754
 5143TIP3    H215373   5.523   4.434   1.227 -0.4768 -0.8075  0.0667
 5144TIP3   OH215374   6.260   4.235   4.241  0.4524 -0.6446 -0.1747
 5144TIP3    H115375   6.279   4.257   4.333 -0.8230 -1.1504  0.2455
 5144TIP3    H215376   6.272   4.141   4.236 -1.4541 -0.9564  0.0499
 5145TIP3   OH215377   3.910   4.410   3.913 -0.1205 -0.4288 -0.4593
 5145TIP3    H115378   3.930   4.347   3.982 -0.4266 -0.7908 -0.7010
 5145TIP3    H215379   3.858   4.478   3.957  1.6828  0.6054  0.2149
 5146TIP3   OH215380   4.902   1.954   3.547  0.1161  0.1111 -0.0773
 5146TIP3    H115381   4.943   2.040   3.559  0.4238 -0.1161  0.5516
 5146TIP3    H215382   4.965   1.905   3.493  0.1335  0.1403 -0.0835
 5147TIP3   OH215383   4.423   4.320   4.491  0.1188  0.1387  0.0972
 5147TIP3    H115384   4.411   4.411   4.517  1.4573  0.5003 -0.4601
 5147TIP3    H215385   4.476   4.282   4.562  2.4983  0.7322 -1.2823
 5148TIP3   OH215386   0.117   5.500   6.398  0.2109 -0.0964 -0.1766
 5148TIP3    H115387   0.090   5.534   6.484 -1.6722 -1.3431 -0.2316
 5148TIP3    H215388   0.046   5.524   6.339  2.5109  2.8289 -2.0432
 5149TIP3   OH215389   3.347   0.717   5.860  0.1175  0.3715  0.1795
 5149TIP3    H115390   3.271   0.771   5.838 -1.3962 -1.4323  0.6715
 5149TIP3    H215391   3.391   0.701   5.777 -0.3672  0.9842 -0.1962
 5150TIP3   OH215392   7.413   6.196   3.233 -0.0093  0.3772 -0.2600
 5150TIP3    H115393   7.457   6.148   3.163 -1.1636  0.6666 -1.2122
 5150TIP3    H215394   7.345   6.247   3.189  0.1456  1.6587  0.9148
 5151TIP3   OH215395   8.087   0.735   0.340 -0.4010  0.4336  0.0113
 5151TIP3    H115396   8.092   0.691   0.256 -0.4188  1.1948 -0.3950
 5151TIP3    H215397   8.177   0.761   0.359 -0.1404 -1.0405  0.9529
 5152TIP3   OH215398   0.061   0.812   0.406  0.0699  0.2878 -0.5211
 5152TIP3    H115399   0.087   0.839   0.318 -1.2330  0.9893 -0.7182
 5152TIP3    H215400   0.118   0.863   0.465 -0.7272  1.7193 -0.9370
 5153TIP3   OH215401   5.514   5.329   6.594 -0.1845 -0.4994 -0.2109
 5153TIP3    H115402   5.432   5.360   6.632 -0.3639 -2.3048  0.9815
 5153TIP3    H215403   5.487   5.270   6.524  0.1098 -0.6797 -0.1701
 5154TIP3   OH215404   1.223   5.052   4.187  0.2868 -0.0150  0.9073
 5154TIP3    H115405   1.137   5.081   4.220  0.2397 -0.9619  1.6817
 5154TIP3    H215406   1.203   4.973   4.137  0.5876  0.3841  0.1487
 5155TIP3   OH215407   7.362   4.687   6.670 -0.4896  0.3450  0.0457
 5155TIP3    H115408   7.365   4.783   6.672  0.1758  0.3609 -0.8389
 5155TIP3    H215409   7.270   4.665   6.683 -0.8558  1.1582 -1.0816
 5156TIP3   OH215410   1.584   1.982   0.058  0.1879 -0.2617 -0.1882
 5156TIP3    H115411   1.555   2.040  -0.013  1.8500  1.2435  0.2966
 5156TIP3    H215412   1.664   1.942   0.025 -0.7017 -2.0058 -0.3366
 5157TIP3   OH215413   1.924   6.881   2.691  0.1640 -0.2972  0.0940
 5157TIP3    H115414   2.012   6.862   2.725  0.0771 -1.4510 -0.3065
 5157TIP3    H215415   1.872   6.804   2.713 -1.4725  1.3381  2.6230
 5158TIP3   OH215416   7.452   3.240   0.629  0.2585  0.2829 -0.0935
 5158TIP3    H115417   7.391   3.267   0.560 -0.9328 -0.3543  0.6768
 5158TIP3    H215418   7.494   3.321   0.657 -0.8071  0.8611 -0.1155
 5159TIP3   OH215419   5.150   6.547   2.680 -0.0148 -0.0867 -0.6612
 5159TIP3    H115420   5.193   6.535   2.596  0.2492 -0.7271 -0.4420
 5159TIP3    H215421   5.064   6.506   2.669 -0.1520  0.2272 -0.7592
 5160TIP3   OH215422   5.979   4.170   6.576 -0.0030 -0.1641 -0.0438
 5160TIP3    H115423   6.033   4.225   6.519  0.5311 -0.8213 -0.1741
 5160TIP3    H215424   5.967   4.223   6.656 -1.0320  0.9018 -0.8584
 5161TIP3   OH215425   3.379   4.950   3.041  0.6154  0.1187 -0.3745
 5161TIP3    H115426   3.303   4.939   3.099  0.7058 -1.8266 -0.5556
 5161TIP3    H215427   3.453   4.956   3.101  0.5582 -0.4139 -0.2454
 5162TIP3   OH215428   1.810   5.760   4.467 -0.3300  0.0976  0.2140
 5162TIP3    H115429   1.820   5.701   4.542  0.6398  0.4015  0.3389
 5162TIP3    H215430   1.715   5.770   4.457 -0.4856  0.5658  1.8142
 5163TIP3   OH215431   6.806   0.770   3.639 -1.2171 -0.1352 -0.7850
 5163TIP3    H115432   6.844   0.725   3.715 -1.6603  0.9703  0.1138
 5163TIP3    H215433   6.712   0.749   3.645 -1.4221  0.8604 -0.3731
 5164TIP3   OH215434   0.548   7.553   6.399 -0.2071  0.1058 -0.5183
 5164TIP3    H115435   0.508   7.530   6.483  1.5048  1.1402  0.6345
 5164TIP3    H215436   0.599   7.475   6.375 -2.5523 -1.1417 -1.8965
 5165TIP3   OH215437   4.211   3.187   5.303 -0.0873  0.2497 -0.1617
 5165TIP3    H115438   4.253   3.268   5.276  0.5106 -0.4532 -1.4821
 5165TIP3    H215439   4.117   3.206   5.301  0.0244  0.7350 -1.0876
 5166TIP3   OH215440   1.025   2.380   3.937  0.1695 -0.4492 -0.2466
 5166TIP3    H115441   1.077   2.362   4.015 -1.4592  0.3378  1.0599
 5166TIP3    H215442   0.935   2.362   3.962 -0.4210 -0.0273 -1.8993
 5167TIP3   OH215443   2.387   6.778   0.914  0.4828 -0.1090 -0.1630
 5167TIP3    H115444   2.481   6.799   0.914  0.6593 -0.8675  0.2246
 5167TIP3    H215445   2.344   6.863   0.905  1.2194  0.1379 -1.7885
 5168TIP3   OH215446   0.073   5.073   3.501  0.2577 -0.3164 -0.2055
 5168TIP3    H115447  -0.022   5.080   3.489  0.1204 -0.8063  0.5673
 5168TIP3    H215448   0.109   5.142   3.444 -0.6094  0.5986  0.3279
 5169TIP3   OH215449   4.255   0.576   2.067 -0.0290 -0.3929  0.5663
 5169TIP3    H115450   4.203   0.655   2.079  0.1994 -0.0139 -0.8238
 5169TIP3    H215451   4.279   0.550   2.156  0.2685  1.3528  1.0281
 5170TIP3   OH215452   6.779   6.594   3.542  0.2114  0.2898 -0.0162
 5170TIP3    H115453   6.713   6.615   3.475 -1.8490 -2.3417  0.9862
 5170TIP3    H215454   6.772   6.665   3.606 -2.8661 -0.5598  0.7913
 5171TIP3   OH215455   1.567   4.029   4.539  0.0199 -0.3543  0.5471
 5171TIP3    H115456   1.658   4.059   4.536  0.4556 -1.6896  0.0566
 5171TIP3    H215457   1.516   4.110   4.544  1.1400  0.5154 -1.2118
 5172TIP3   OH215458   1.375   3.543   5.536 -0.5665  0.2007  0.2844
 5172TIP3    H115459   1.394   3.450   5.524  0.6785  0.2093  1.8099
 5172TIP3    H215460   1.324   3.567   5.459 -0.1920 -1.5428 -0.5709
 5173TIP3   OH215461  -0.011   6.128   2.668 -0.1759  0.1251  0.1060
 5173TIP3    H115462   0.052   6.169   2.727 -1.0387  0.4134  0.8502
 5173TIP3    H215463   0.034   6.126   2.583  0.7347  0.5391  0.5587
 5174TIP3   OH215464   3.945   2.979   6.377 -0.0385  0.3375 -0.1534
 5174TIP3    H115465   3.969   3.045   6.442  1.5602  0.0843 -0.4406
 5174TIP3    H215466   3.955   3.024   6.293  0.5201 -0.0919 -0.3241
 5175TIP3   OH215467   6.948   2.084   0.080  0.5302  0.1738 -0.1264
 5175TIP3    H115468   6.922   2.095  -0.011  2.9422 -0.6733 -1.0191
 5175TIP3    H215469   6.925   2.167   0.123 -0.2389  0.7489 -1.6016
 5176TIP3   OH215470   5.405   0.946   0.383 -0.2169 -0.0387 -0.1592
 5176TIP3    H115471   5.457   0.910   0.456  0.9807  1.5547 -0.1726
 5176TIP3    H215472   5.330   0.987   0.425 -0.3183 -0.4353  0.0510
 5177TIP3   OH215473   2.969   6.027   5.193  0.0427 -0.2726  0.3525
 5177TIP3    H115474   2.938   6.115   5.172 -1.4674 -1.2060 -1.6204
 5177TIP3    H215475   3.053   6.041   5.238  0.0856  2.1312 -0.3668
 5178TIP3   OH215476   1.650   5.835   0.514 -0.5694 -0.2395  0.0520
 5178TIP3    H115477   1.705   5.863   0.440 -1.6907 -0.5017 -0.9045
 5178TIP3    H215478   1.564   5.872   0.495 -1.5189 -2.4142 -0.0792
 5179TIP3   OH215479   3.608   7.152   1.338  0.1866 -0.6803  0.0499
 5179TIP3    H115480   3.633   7.237   1.301  2.7384 -2.0662 -1.7767
 5179TIP3    H215481   3.610   7.166   1.433 -0.7912  1.5958 -0.2081
 5180TIP3   OH215482   7.280   1.455   1.029  0.2961  0.2478  0.1193
 5180TIP3    H115483   7.317   1.419   0.949 -1.2833 -1.2962  0.0363
 5180TIP3    H215484   7.339   1.527   1.052  2.4526 -1.1281 -0.7971
 5181TIP3   OH215485   6.644   6.633   4.252  0.4490  0.0226 -0.3445
 5181TIP3    H115486   6.596   6.711   4.280 -1.9228 -1.8002  1.0750
 5181TIP3    H215487   6.576   6.573   4.221  1.5578 -3.0247  2.4977
 5182TIP3   OH215488   7.648   2.676   1.203  0.0205 -0.2038  0.0051
 5182TIP3    H115489   7.730   2.648   1.243  0.5706  1.2092 -0.0747
 5182TIP3    H215490   7.580   2.644   1.263  0.6296 -1.2345  0.1614
 5183TIP3   OH215491   3.717   3.673   3.743  0.2933 -0.4631  0.4453
 5183TIP3    H115492   3.713   3.665   3.838  0.9065  1.6424  0.6901
 5183TIP3    H215493   3.808   3.692   3.723  0.1650 -0.8084 -0.5745
 5184TIP3   OH215494   4.625   0.925   0.172  0.2298 -0.9202  0.1562
 5184TIP3    H115495   4.720   0.920   0.163  0.6260  2.8991  0.5703
 5184TIP3    H215496   4.595   0.963   0.090 -0.6336  0.0023  0.8789
 5185TIP3   OH215497   3.309   1.734   3.485  0.1721 -0.7618  0.4325
 5185TIP3    H115498   3.292   1.654   3.534  0.0616 -0.8461  0.2583
 5185TIP3    H215499   3.377   1.710   3.422 -0.1530 -0.8260  0.1062
 5186TIP3   OH215500   5.662   7.116   2.882  0.7003  0.1856 -0.2042
 5186TIP3    H115501   5.649   7.183   2.815 -0.3146  0.9512  0.7192
 5186TIP3    H215502   5.615   7.040   2.849  0.1820  0.5688 -0.3627
 5187TIP3   OH215503   6.385   5.656   5.943 -0.1870 -0.2389  0.1449
 5187TIP3    H115504   6.290   5.646   5.931  0.0360 -1.1473 -1.0067
 5187TIP3    H215505   6.419   5.567   5.939  0.9120  0.2006 -1.5258
 5188TIP3   OH215506   2.633   7.453   2.744 -0.3328  0.6087 -0.4910
 5188TIP3    H115507   2.625   7.435   2.838 -0.7428  0.5872 -0.5261
 5188TIP3    H215508   2.545   7.478   2.717 -0.1554  0.8938 -0.8148
 5189TIP3   OH215509   7.512   3.448   2.721  0.7316  0.2633  0.3836
 5189TIP3    H115510   7.577   3.384   2.750 -0.6003 -1.7328 -0.8193
 5189TIP3    H215511   7.535   3.465   2.630 -0.7624 -0.9952 -0.2692
 5190TIP3   OH215512   1.339   4.448   0.583 -0.2547  0.6990  0.7543
 5190TIP3    H115513   1.376   4.464   0.497 -1.3949 -0.8279 -0.0827
 5190TIP3    H215514   1.350   4.530   0.631  0.1941  1.6474 -0.9158
 5191TIP3   OH215515   7.627   6.588   3.818 -0.0933 -0.1772  0.2141
 5191TIP3    H115516   7.658   6.630   3.899  0.6981 -1.8281  0.8183
 5191TIP3    H215517   7.569   6.652   3.778 -0.4671  0.7108  2.0816
 5192TIP3   OH215518   2.058   1.938   2.766 -0.3291  0.1844  0.2943
 5192TIP3    H115519   2.139   1.933   2.715  0.3748 -1.7158  1.4707
 5192TIP3    H215520   2.015   2.018   2.736  2.1452  1.4320 -0.1166
 5193TIP3   OH215521   1.442   6.068   1.642  0.1743  0.1159 -0.2153
 5193TIP3    H115522   1.351   6.091   1.621  0.3974  0.7310 -0.5386
 5193TIP3    H215523   1.455   6.101   1.731  0.1448  0.2220 -0.2502
 5194TIP3   OH215524   3.217   3.719   2.819  0.2318 -0.0300 -0.1755
 5194TIP3    H115525   3.137   3.689   2.775  0.5067 -0.0670 -0.6588
 5194TIP3    H215526   3.283   3.721   2.750  2.1372 -5.2405  1.0177
 5195TIP3   OH215527   3.217   6.456   0.425 -0.0569  0.1538 -0.0881
 5195TIP3    H115528   3.131   6.463   0.382 -0.0606 -0.7366 -0.2510
 5195TIP3    H215529   3.208   6.382   0.484  0.9273 -0.6650 -0.9215
 5196TIP3   OH215530   1.574   7.072   6.006 -0.8373 -0.1530 -0.1352
 5196TIP3    H115531   1.520   6.993   6.012 -0.8882 -0.0356  1.7211
 5196TIP3    H215532   1.514   7.143   6.028 -0.1397  0.0588  1.1952
 5197TIP3   OH215533   6.879   5.653   1.301  0.2991 -0.2244  0.1039
 5197TIP3    H115534   6.971   5.678   1.301  0.2775 -0.1459 -0.0304
 5197TIP3    H215535   6.860   5.629   1.210  0.8410 -2.6425  0.5619
 5198TIP3   OH215536   5.037   4.401   1.833  0.9514 -0.0448  0.4220
 5198TIP3    H115537   5.055   4.494   1.848  0.5337  0.3426 -1.2578
 5198TIP3    H215538   5.111   4.370   1.782  0.4019 -0.2529 -0.2662
 5199TIP3   OH215539   3.717   2.263   0.306 -0.0159  0.1622  0.8323
 5199TIP3    H115540   3.783   2.197   0.283  0.1508 -0.4710  2.8968
 5199TIP3    H215541   3.644   2.212   0.342 -1.7149  0.8486 -1.4650
 5200TIP3   OH215542   7.062   3.949   3.320 -0.7191 -0.0159  0.2673
 5200TIP3    H115543   7.149   3.962   3.283 -0.4667 -0.1137  0.8081
 5200TIP3    H215544   7.011   4.025   3.291  0.1680  1.2097  1.7561
 5201TIP3   OH215545   6.808   6.062   4.174 -0.0469  0.0014  0.1818
 5201TIP3    H115546   6.835   5.971   4.176  0.8159  0.2517  0.1670
 5201TIP3    H215547   6.821   6.089   4.083  0.4231  0.3438  0.3428
 5202TIP3   OH215548   7.279   6.726   0.976  1.0228  0.3507  0.1363
 5202TIP3    H115549   7.268   6.759   1.065  0.9783  0.3072  0.1473
 5202TIP3    H215550   7.340   6.653   0.986  0.5614 -0.0262  0.2154
 5203TIP3   OH215551   1.532   1.005   6.007 -0.1856  0.1697  0.9081
 5203TIP3    H115552   1.553   0.963   5.923  0.9833  1.5887  0.4624
 5203TIP3    H215553   1.611   0.995   6.059 -0.6233  0.0318  1.5587
 5204TIP3   OH215554   6.020   6.364   3.603  0.2062  0.2639  0.4075
 5204TIP3    H115555   6.037   6.403   3.688 -1.6553  1.6131  0.2077
 5204TIP3    H215556   6.074   6.414   3.542  2.9651 -1.8453  0.8855
 5205TIP3   OH215557   6.937   0.959   2.553 -0.4721 -0.3705  0.2830
 5205TIP3    H115558   6.975   0.969   2.466  0.8532 -1.1535  0.7421
 5205TIP3    H215559   6.893   1.042   2.570 -1.3003 -0.4415 -1.3771
 5206TIP3   OH215560   6.404   2.506   1.283  0.1416  0.4238 -0.2369
 5206TIP3    H115561   6.315   2.493   1.315 -0.0843 -1.2940 -1.4519
 5206TIP3    H215562   6.395   2.520   1.189  1.0321  2.3355 -0.0826
 5207TIP3   OH215563   1.997   5.466   1.439 -0.0460  0.2304 -0.2217
 5207TIP3    H115564   2.014   5.470   1.344  1.7847 -0.3375  0.0371
 5207TIP3    H215565   1.936   5.393   1.449  0.1485 -0.0427 -0.9242
 5208TIP3   OH215566   1.131   1.995   4.383 -0.4961  0.0259  0.3962
 5208TIP3    H115567   1.076   1.986   4.305  0.5694  1.3036 -0.5499
 5208TIP3    H215568   1.087   2.062   4.435 -0.8397 -0.3314  0.5737
 5209TIP3   OH215569   4.819   5.917   6.370 -0.7448  0.1454  0.7019
 5209TIP3    H115570   4.910   5.947   6.365  0.3656 -2.9350  0.1119
 5209TIP3    H215571   4.769   5.982   6.321  1.3232  1.2737 -0.0283
 5210TIP3   OH215572   4.742   4.448   5.429  0.3433 -0.8092 -0.1379
 5210TIP3    H115573   4.775   4.496   5.505 -1.2742 -1.4049  0.9891
 5210TIP3    H215574   4.674   4.391   5.464  0.7239 -2.3815 -1.7747
 5211TIP3   OH215575   5.154   6.487   0.775  0.1661  0.2304 -0.3468
 5211TIP3    H115576   5.178   6.417   0.835  0.0177  0.4389 -0.0405
 5211TIP3    H215577   5.137   6.443   0.691 -1.8234 -0.3558  0.3089
 5212TIP3   OH215578   5.882   6.097   3.818  0.1351 -0.0768 -1.0674
 5212TIP3    H115579   5.830   6.032   3.771  1.0361 -1.0670 -0.7421
 5212TIP3    H215580   5.905   6.053   3.901 -0.4260  1.1805 -0.2110
 5213TIP3   OH215581   3.804   3.207   3.757 -0.6457  0.0862  0.4313
 5213TIP3    H115582   3.880   3.224   3.812 -0.6646 -1.6026  1.0296
 5213TIP3    H215583   3.792   3.288   3.707  1.1410  0.6096  0.7816
 5214TIP3   OH215584   1.223   5.638   2.107  0.0209  0.6426 -0.0886
 5214TIP3    H115585   1.227   5.639   2.012  0.6687  0.3824 -0.0707
 5214TIP3    H215586   1.148   5.693   2.129 -1.6041 -1.1766 -0.8207
 5215TIP3   OH215587   5.562   3.679   4.729  0.1869 -1.0822  0.0977
 5215TIP3    H115588   5.508   3.609   4.767  1.2566 -3.7224 -2.7562
 5215TIP3    H215589   5.591   3.730   4.804 -4.4408 -0.7224  2.0086
 5216TIP3   OH215590   3.860   4.723   2.597  0.1805 -0.4662  0.4801
 5216TIP3    H115591   3.911   4.701   2.519  1.3427  0.4211  0.9621
 5216TIP3    H215592   3.921   4.771   2.653 -0.8511 -0.4288  1.6118
 5217TIP3   OH215593   0.887   1.404   4.563  0.3217  0.3747  0.5866
 5217TIP3    H115594   0.909   1.485   4.610  2.0914 -0.4420  1.2474
 5217TIP3    H215595   0.955   1.396   4.496 -0.2604 -0.1926  0.0509
 5218TIP3   OH215596   7.822   0.957   3.083  0.0847  0.0702  0.1482
 5218TIP3    H115597   7.877   0.972   3.160  0.5849  0.0331 -0.1920
 5218TIP3    H215598   7.795   0.865   3.090 -2.4601  0.8398  1.9008
 5219TIP3   OH215599   1.920   6.660   4.344 -0.5929  0.9153 -0.1181
 5219TIP3    H115600   1.920   6.754   4.327  0.8092  0.7947 -0.9768
 5219TIP3    H215601   1.987   6.625   4.285 -0.3020 -0.4659  0.9683
 5220TIP3   OH215602   1.097   5.302   3.492 -0.8835 -0.2029 -0.2561
 5220TIP3    H115603   1.020   5.290   3.549  0.2715 -2.2183  0.9988
 5220TIP3    H215604   1.105   5.220   3.445  1.6137 -0.8507  1.1260
 5221TIP3   OH215605   7.004   4.764   2.632 -0.2215  0.5373 -0.1261
 5221TIP3    H115606   7.016   4.687   2.688  0.4431 -0.9069 -2.1285
 5221TIP3    H215607   6.918   4.751   2.593 -0.6849  1.5450  0.5065
 5222TIP3   OH215608   7.098   4.468   3.527 -0.2480 -0.4820  0.5611
 5222TIP3    H115609   7.131   4.404   3.464 -0.2096 -1.4709  1.5452
 5222TIP3    H215610   7.033   4.518   3.479 -2.2385 -3.0181  0.4197
 5223TIP3   OH215611   6.659   5.340   1.133 -0.1858  0.7799 -0.1749
 5223TIP3    H115612   6.747   5.365   1.107 -0.3791  2.3478  0.5546
 5223TIP3    H215613   6.606   5.353   1.055 -0.1787  2.2577  0.0305
 5224TIP3   OH215614   3.483   3.570   4.945 -0.0753 -0.3319 -0.1638
 5224TIP3    H115615   3.548   3.545   5.011 -0.1203 -1.2726 -0.4676
 5224TIP3    H215616   3.407   3.516   4.964 -0.5996  0.4018 -0.1266
 5225TIP3   OH215617   5.701   1.325   5.763 -0.0256  0.4483 -0.1761
 5225TIP3    H115618   5.771   1.372   5.807  1.7581 -2.7558  0.7443
 5225TIP3    H215619   5.625   1.335   5.820  1.0581  0.0025  1.4053
 5226TIP3   OH215620   5.496   7.686   1.523 -0.0442 -0.2123  0.1451
 5226TIP3    H115621   5.492   7.768   1.474  2.1335  1.0336  1.8994
 5226TIP3    H215622   5.583   7.651   1.506 -1.2863 -2.8406 -1.4507
 5227TIP3   OH215623   4.392   1.041   4.292  0.4593  0.0379 -0.4598
 5227TIP3    H115624   4.424   1.131   4.303 -0.0942  0.3696 -1.4285
 5227TIP3    H215625   4.411   1.020   4.200  1.1616 -1.0816 -0.0815
 5228TIP3   OH215626   4.623   1.650   1.622  0.2436  0.2704  1.0239
 5228TIP3    H115627   4.531   1.668   1.642  0.1770  2.0772 -0.5810
 5228TIP3    H215628   4.631   1.555   1.628 -2.0593 -0.0615 -0.0477
 5229TIP3   OH215629   5.303   1.869   4.713  0.4144 -0.4701 -0.6091
 5229TIP3    H115630   5.246   1.848   4.639  1.6808 -0.8027 -1.5312
 5229TIP3    H215631   5.271   1.813   4.784 -1.5332  0.6705 -0.5209
 5230TIP3   OH215632   5.483   0.847   2.669  0.3431 -0.0505  1.0424
 5230TIP3    H115633   5.553   0.782   2.674  0.5184 -0.0854 -1.2084
 5230TIP3    H215634   5.403   0.795   2.679  0.5591 -0.1137  2.7792
 5231TIP3   OH215635   1.674   7.564   1.415  0.5294  0.2547 -0.5873
 5231TIP3    H115636   1.754   7.521   1.386  1.1488  0.8373  0.1952
 5231TIP3    H215637   1.668   7.643   1.361  0.6639  0.3777 -0.4241
 5232TIP3   OH215638   0.526   3.942   5.459 -0.2831 -1.0705  0.2489
 5232TIP3    H115639   0.553   3.871   5.401  1.2283 -0.6371  0.3963
 5232TIP3    H215640   0.586   3.937   5.533  0.0725  0.5838  0.1054
 5233TIP3   OH215641   1.454   5.771   5.606  0.1525  0.1549 -0.1334
 5233TIP3    H115642   1.521   5.815   5.658  0.9394 -0.8637 -0.2427
 5233TIP3    H215643   1.498   5.749   5.524  0.8914 -3.6045  1.0385
 5234TIP3   OH215644   0.017   3.568   0.754 -0.3575 -0.6891 -0.1679
 5234TIP3    H115645   0.061   3.539   0.833  0.7140 -0.6238 -0.7273
 5234TIP3    H215646   0.083   3.619   0.707 -1.3077  0.2076 -0.5865
 5235TIP3   OH215647   6.530   3.606   1.021 -0.3096 -0.3028  0.1144
 5235TIP3    H115648   6.500   3.517   1.037  1.2519 -0.5129  2.4126
 5235TIP3    H215649   6.626   3.599   1.018 -0.0296  1.5021  2.3548
 5236TIP3   OH215650   0.889   2.355   1.397 -0.2093  0.1555 -0.3947
 5236TIP3    H115651   0.801   2.382   1.373 -0.8125 -1.0815  0.3819
 5236TIP3    H215652   0.900   2.268   1.358  0.2494 -0.1754  0.4481
 5237TIP3   OH215653   2.211   5.018   4.097  0.4740 -0.1894  0.0789
 5237TIP3    H115654   2.263   5.061   4.029 -0.7299 -2.1023 -2.1986
 5237TIP3    H215655   2.177   5.090   4.150  1.5397  1.3954 -1.2761
 5238TIP3   OH215656   2.447   4.928   4.933  0.0719  0.0744 -0.2302
 5238TIP3    H115657   2.374   4.925   4.872  0.7069  0.5103 -1.0218
 5238TIP3    H215658   2.428   4.859   4.996  0.8651 -2.4838 -2.5963
 5239TIP3   OH215659   4.092   5.830   5.035  0.1653  0.0697 -0.1475
 5239TIP3    H115660   4.043   5.754   5.068  1.3416 -0.5584  0.2083
 5239TIP3    H215661   4.025   5.885   4.993 -0.6813 -1.2612 -0.6093
 5240TIP3   OH215662   6.267   7.758   6.790 -0.7136  0.9608  0.0862
 5240TIP3    H115663   6.186   7.733   6.744 -0.3296  0.4103 -0.3052
 5240TIP3    H215664   6.332   7.694   6.760 -0.9418 -0.8276  3.0946
 5241TIP3   OH215665   7.279   0.264   3.759 -0.2168  0.1760 -0.3102
 5241TIP3    H115666   7.207   0.258   3.821  1.5308  2.4011  2.1568
 5241TIP3    H215667   7.331   0.185   3.775  0.2630  0.7675  1.2290
 5242TIP3   OH215668   6.193   0.816   1.490  0.2947 -0.0652 -0.3836
 5242TIP3    H115669   6.119   0.795   1.546 -0.9413 -0.5360 -2.1139
 5242TIP3    H215670   6.161   0.889   1.435  2.1860  1.8605  0.9016
 5243TIP3   OH215671   2.438   5.606   3.167  0.0193  0.0024  0.0513
 5243TIP3    H115672   2.511   5.557   3.130 -0.5647  0.1751 -1.3893
 5243TIP3    H215673   2.469   5.697   3.169 -0.0276  0.0262 -0.2439
 5244TIP3   OH215674   8.024   1.063   5.800  0.2016  0.2388  0.3878
 5244TIP3    H115675   7.959   1.132   5.786  0.7919  0.8477  0.6287
 5244TIP3    H215676   7.980   1.000   5.857 -0.7245 -0.1344 -0.6890
 5245TIP3   OH215677   2.740   3.883   0.986 -0.5232 -0.1510 -0.1731
 5245TIP3    H115678   2.658   3.856   1.028 -0.2246 -1.5389 -0.4203
 5245TIP3    H215679   2.804   3.884   1.058 -0.4569 -0.4805 -0.2256
 5246TIP3   OH215680   2.576   5.693   5.955 -0.3811 -0.1764  0.2321
 5246TIP3    H115681   2.552   5.713   6.046 -0.2240  1.9289 -0.1319
 5246TIP3    H215682   2.519   5.621   5.931 -0.5030 -0.7161  1.9621
 5247TIP3   OH215683   1.157   2.808   0.775 -0.1583  0.1238 -0.3099
 5247TIP3    H115684   1.107   2.816   0.694 -0.1048  0.2725 -0.3279
 5247TIP3    H215685   1.164   2.713   0.789 -0.0345  0.0916 -0.5616
 5248TIP3   OH215686   3.959   7.046   2.548  0.5016 -0.2783 -0.3733
 5248TIP3    H115687   3.951   7.085   2.635  0.4621 -1.4822  0.1835
 5248TIP3    H215688   4.046   7.006   2.547 -0.3425 -2.2341 -0.0213
 5249TIP3   OH215689   2.388   0.962   3.793  0.1704  0.0067  0.2948
 5249TIP3    H115690   2.438   0.913   3.727 -0.6512 -0.6373  0.1301
 5249TIP3    H215691   2.435   1.045   3.802  1.1264 -0.4892 -0.0214
 5250TIP3   OH215692   5.148   1.712   2.572 -0.1061  0.3002 -0.6065
 5250TIP3    H115693   5.134   1.658   2.495 -1.5291 -1.5551  0.8706
 5250TIP3    H215694   5.243   1.708   2.587 -0.2396 -2.4891 -0.1189
 5251TIP3   OH215695   7.771   6.189   0.304 -0.3089 -0.4188  0.0851
 5251TIP3    H115696   7.809   6.135   0.234  0.8579  1.3881 -0.7863
 5251TIP3    H215697   7.760   6.275   0.263  0.1916  0.6404  2.0631
 5252TIP3   OH215698   1.655   1.954   6.603 -0.1792  0.1063  0.0101
 5252TIP3    H115699   1.736   1.905   6.620 -0.2468 -0.4731 -1.2148
 5252TIP3    H215700   1.682   2.045   6.594  0.1326  0.1201  1.0332
 5253TIP3   OH215701   2.124   6.639   5.773 -0.0224 -0.2572  0.2364
 5253TIP3    H115702   2.045   6.689   5.792  0.0526 -0.2589  0.5594
 5253TIP3    H215703   2.105   6.550   5.803  0.7718  0.1546  2.1153
 5254TIP3   OH215704   5.222   6.792   4.882  0.3544  0.2131 -0.0285
 5254TIP3    H115705   5.285   6.769   4.951 -0.9721 -0.5264  0.9712
 5254TIP3    H215706   5.161   6.851   4.924 -0.6337 -0.4568 -0.4949
 5255TIP3   OH215707   7.770   0.026   2.258  0.3065  0.0443 -0.3363
 5255TIP3    H115708   7.778  -0.041   2.191  1.1382  2.5464 -2.9294
 5255TIP3    H215709   7.854   0.025   2.304  0.0411 -1.1321  0.1439
 5256TIP3   OH215710   1.572   2.480   4.062 -0.0847 -0.2251 -0.0255
 5256TIP3    H115711   1.619   2.564   4.066 -0.9905  0.2682  1.6212
 5256TIP3    H215712   1.616   2.425   4.127 -1.9486  0.4009  1.8869
 5257TIP3   OH215713   1.609   0.169   0.577  0.1453  0.0910 -0.2967
 5257TIP3    H115714   1.647   0.104   0.635 -0.0562 -0.9600 -1.2950
 5257TIP3    H215715   1.529   0.197   0.620  0.9757  0.7779  0.8349
 5258TIP3   OH215716   6.707   7.498   0.875 -0.6604  0.3933  0.1034
 5258TIP3    H115717   6.785   7.551   0.892  0.8326 -1.4077 -0.8099
 5258TIP3    H215718   6.663   7.494   0.960  0.6008  0.9125  0.8150
 5259TIP3   OH215719   3.169   0.900   5.800 -0.1225 -0.0271  0.3606
 5259TIP3    H115720   3.188   0.958   5.874 -1.0295  0.1660  0.4456
 5259TIP3    H215721   3.080   0.921   5.774 -0.3303 -1.1174  0.1340
 5260TIP3   OH215722   0.591   7.039   0.429 -0.0699 -0.0764 -0.2142
 5260TIP3    H115723   0.671   6.988   0.421  0.5558  0.5134  1.7681
 5260TIP3    H215724   0.605   7.114   0.370  1.6423  0.9364  1.3570
 5261TIP3   OH215725   6.933   6.071   0.482  0.3580 -0.0956 -0.4322
 5261TIP3    H115726   6.838   6.082   0.478  0.1076 -1.6795  0.2331
 5261TIP3    H215727   6.957   6.108   0.567  0.3928  0.6414 -0.7615
 5262TIP3   OH215728   6.697   1.362   5.308  0.2808  0.0803  0.0593
 5262TIP3    H115729   6.632   1.363   5.238  1.7787  2.4791 -1.4330
 5262TIP3    H215730   6.646   1.345   5.387 -1.5324 -2.3424 -1.4690
 5263TIP3   OH215731   6.971   6.025  -0.017  0.1467 -0.2428  0.2538
 5263TIP3    H115732   6.991   6.111  -0.056 -0.4517 -1.0730 -2.0465
 5263TIP3    H215733   6.958   6.044   0.076  0.9718  1.9974 -0.0112
 5264TIP3   OH215734   0.387   5.778   4.315 -0.0487  0.2619  0.0829
 5264TIP3    H115735   0.459   5.755   4.257 -0.1346  1.3188 -0.4537
 5264TIP3    H215736   0.403   5.868   4.340 -1.6119  0.8163 -0.7375
 5265TIP3   OH215737   4.093   0.667   5.753  0.3198 -0.1108 -0.0063
 5265TIP3    H115738   4.114   0.593   5.810 -0.0634  0.5551  1.0430
 5265TIP3    H215739   4.063   0.735   5.814 -0.5574  0.4689 -1.0604
 5266TIP3   OH215740   0.721   6.224   1.963  0.2572 -0.2717 -0.5562
 5266TIP3    H115741   0.674   6.141   1.974 -0.3251  0.1426  0.1691
 5266TIP3    H215742   0.795   6.217   2.024 -1.0523  0.6297  1.2232
 5267TIP3   OH215743   0.913   7.105   4.306 -0.7458 -0.4981 -0.0444
 5267TIP3    H115744   0.971   7.079   4.378  0.2378 -0.2738 -0.7363
 5267TIP3    H215745   0.953   7.185   4.271 -2.0342  0.2356  0.0991
 5268TIP3   OH215746   8.053   3.831   0.549 -0.1319 -0.6380 -0.3228
 5268TIP3    H115747   7.992   3.769   0.509 -2.8824  2.3011 -1.1709
 5268TIP3    H215748   8.069   3.896   0.480  1.5802  0.2766  0.8724
 5269TIP3   OH215749   3.467   6.987   0.268 -0.2135 -0.5647  0.4041
 5269TIP3    H115750   3.500   7.077   0.259 -0.4083 -0.5112  0.2236
 5269TIP3    H215751   3.439   6.982   0.359  0.0604 -0.5315  0.4916
 5270TIP3   OH215752   0.385   2.781   3.185  0.2889  0.4886 -0.3428
 5270TIP3    H115753   0.478   2.758   3.180  0.2718  0.2146  0.4262
 5270TIP3    H215754   0.341   2.717   3.129  0.6419  1.1451 -1.3901
 5271TIP3   OH215755   6.555   3.460   0.394  0.3943 -0.1551 -0.0666
 5271TIP3    H115756   6.521   3.547   0.415  0.5175  0.9084 -3.6234
 5271TIP3    H215757   6.646   3.462   0.422  1.0930  1.8413 -2.1397
 5272TIP3   OH215758   5.734   0.058   3.821  0.8142 -0.2693  0.0540
 5272TIP3    H115759   5.792  -0.018   3.827  1.2142  0.1228  1.4882
 5272TIP3    H215760   5.648   0.021   3.800  1.1234 -1.0592  0.1447
 5273TIP3   OH215761   1.986   2.368   1.167  1.0251 -0.4237  0.6176
 5273TIP3    H115762   1.966   2.460   1.181 -0.7805 -0.8760  1.2883
 5273TIP3    H215763   1.931   2.322   1.230  2.7601 -1.9278  1.1173
 5274TIP3   OH215764   4.187   0.396   4.570 -0.2695  0.0136  0.0182
 5274TIP3    H115765   4.219   0.455   4.638  0.2983 -0.5687  0.2621
 5274TIP3    H215766   4.171   0.313   4.615  0.9062 -0.6219 -0.6965
 5275TIP3   OH215767   3.219   3.113   6.276 -0.1929  0.2678 -0.2260
 5275TIP3    H115768   3.297   3.168   6.276  1.3293 -1.7382 -1.6307
 5275TIP3    H215769   3.224   3.064   6.358 -0.6709  0.9863  0.2499
 5276TIP3   OH215770   1.702   5.635   2.359 -0.0191  0.3520 -0.3959
 5276TIP3    H115771   1.684   5.617   2.451  3.2366  2.3942  0.8192
 5276TIP3    H215772   1.761   5.565   2.332 -1.2866 -0.4742 -1.1367
 5277TIP3   OH215773   6.582   6.248   5.067 -0.1387 -0.8654  0.0664
 5277TIP3    H115774   6.506   6.197   5.092  0.4952 -0.7045  2.5474
 5277TIP3    H215775   6.656   6.188   5.077  0.3372 -0.2322  0.4716
 5278TIP3   OH215776   5.092   3.707   1.545 -0.1906 -0.2976 -0.1017
 5278TIP3    H115777   5.073   3.792   1.505  3.1324  1.0186  0.7462
 5278TIP3    H215778   5.049   3.711   1.631 -2.1295 -0.5846 -1.0046
 5279TIP3   OH215779   1.854   6.567   6.600 -0.2473 -0.2040  0.9577
 5279TIP3    H115780   1.779   6.527   6.556  1.0007 -0.7083 -0.8184
 5279TIP3    H215781   1.846   6.660   6.580  0.2283 -0.4098 -0.2833
 5280TIP3   OH215782   4.278   1.265   2.864 -0.7833  0.0393 -0.0255
 5280TIP3    H115783   4.232   1.214   2.798 -0.3585 -0.3599 -0.0118
 5280TIP3    H215784   4.345   1.207   2.898 -1.2936  0.0819  1.0904
 5281TIP3   OH215785   1.817   6.574   1.058  0.2823  0.1435 -1.0514
 5281TIP3    H115786   1.865   6.584   1.141 -1.6897  2.7255 -0.1054
 5281TIP3    H215787   1.753   6.505   1.075 -0.1019  0.6517 -0.3903
 5282TIP3   OH215788   3.923   2.534   1.227  0.1876  0.0864  0.0094
 5282TIP3    H115789   3.883   2.620   1.220 -0.3307 -0.2446 -1.6406
 5282TIP3    H215790   3.859   2.482   1.276  0.1572  0.4304  0.3405
 5283TIP3   OH215791   4.631   2.197   1.929 -0.4000 -0.3739 -0.5268
 5283TIP3    H115792   4.712   2.224   1.886 -0.2403  2.1350  1.1325
 5283TIP3    H215793   4.657   2.174   2.018 -1.3551 -0.6364 -0.3021
 5284TIP3   OH215794   3.765   2.782   1.269  0.4280  0.3261 -0.0762
 5284TIP3    H115795   3.748   2.793   1.362 -2.1056 -0.1710 -0.4200
 5284TIP3    H215796   3.727   2.860   1.228 -0.5548 -0.5279 -0.8523
 5285TIP3   OH215797   5.567   2.743   6.417 -0.6592  0.5218  0.0422
 5285TIP3    H115798   5.562   2.755   6.322 -0.7703 -1.2294 -0.2000
 5285TIP3    H215799   5.511   2.813   6.452 -1.2822  0.6863 -1.2126
 5286TIP3   OH215800   5.176   0.406   3.978  0.1787  0.4520  0.5253
 5286TIP3    H115801   5.266   0.431   3.958  0.2585  1.0175  1.5196
 5286TIP3    H215802   5.182   0.353   4.057 -0.1138 -1.8852 -0.9396
 5287TIP3   OH215803   6.091   0.491   2.602  0.2820  0.2137 -0.1293
 5287TIP3    H115804   6.146   0.545   2.545 -1.5280  1.3542 -0.8733
 5287TIP3    H215805   6.007   0.485   2.556 -0.6506 -0.3772  1.5564
 5288TIP3   OH215806   6.236   2.815   3.256  0.5829 -0.0189  0.0387
 5288TIP3    H115807   6.214   2.776   3.340  1.1180  0.5723  0.4701
 5288TIP3    H215808   6.228   2.909   3.271  2.6802  0.2085  0.0551
 5289TIP3   OH215809   2.646   5.766   1.771  0.3200 -0.3373 -0.2408
 5289TIP3    H115810   2.614   5.850   1.805  2.5603  0.2074  0.6728
 5289TIP3    H215811   2.571   5.730   1.723 -0.5773  2.3981 -1.0865
 5290TIP3   OH215812   1.473   4.184   2.152 -0.2892 -0.3139  0.6067
 5290TIP3    H115813   1.467   4.279   2.146 -0.4552 -0.4244 -1.3991
 5290TIP3    H215814   1.553   4.169   2.203 -0.0944  0.8832  0.6929
 5291TIP3   OH215815   3.601   2.840   3.696  0.5432  0.3409  0.6566
 5291TIP3    H115816   3.517   2.879   3.669 -0.5105 -1.7858  0.6558
 5291TIP3    H215817   3.667   2.889   3.646 -0.6091  2.3509  0.9568
 5292TIP3   OH215818   2.527   6.839   6.065  0.2151 -0.5052 -0.4656
 5292TIP3    H115819   2.617   6.855   6.035  0.8622 -1.0665  1.0424
 5292TIP3    H215820   2.503   6.755   6.028 -0.0640  0.0711 -1.6399
 5293TIP3   OH215821   7.733   3.639   0.749 -0.4982 -0.4399 -0.7060
 5293TIP3    H115822   7.790   3.603   0.816 -1.3855  0.3628  0.5219
 5293TIP3    H215823   7.668   3.571   0.734 -1.2105 -0.0309  0.4099
 5294TIP3   OH215824   1.584   2.584   4.514 -0.3065 -0.2018  0.1298
 5294TIP3    H115825   1.558   2.676   4.505  0.1452 -0.0296  0.5277
 5294TIP3    H215826   1.522   2.536   4.460  0.5343  0.5043 -1.5304
 5295TIP3   OH215827   5.504   3.442   0.475  0.0347  0.5339 -0.0000
 5295TIP3    H115828   5.563   3.404   0.410  0.9745  1.5936  0.2207
 5295TIP3    H215829   5.438   3.374   0.489  0.9254 -0.4864 -0.5934
 5296TIP3   OH215830   3.737   3.616   0.460 -0.2975 -0.0226 -0.1405
 5296TIP3    H115831   3.689   3.651   0.385  0.3759 -0.9889 -1.0465
 5296TIP3    H215832   3.826   3.603   0.428  0.3930  0.9502  1.2640
 5297TIP3   OH215833   7.301   1.175   0.317  0.4061 -0.1140 -0.3720
 5297TIP3    H115834   7.278   1.221   0.237  0.3433  1.4738  0.5316
 5297TIP3    H215835   7.388   1.209   0.340 -0.0773  0.3464  0.8590
 5298TIP3   OH215836   7.326   3.607   4.141  0.1338  0.9087 -0.8238
 5298TIP3    H115837   7.328   3.644   4.230 -1.5584 -1.8013  0.4614
 5298TIP3    H215838   7.399   3.546   4.139 -0.7536 -0.1794 -0.7131
 5299TIP3   OH215839   2.715   7.763   4.079 -0.3731 -0.2023  0.1321
 5299TIP3    H115840   2.653   7.713   4.132 -2.4764  0.0445 -1.9348
 5299TIP3    H215841   2.696   7.854   4.099 -0.4157 -0.1331 -0.2167
 5300TIP3   OH215842   7.071   5.795   4.860 -0.3261  0.0034 -0.2073
 5300TIP3    H115843   7.071   5.888   4.883 -2.1421  0.4083 -1.5568
 5300TIP3    H215844   7.124   5.790   4.781 -0.7468  0.0194 -0.4952
 5301TIP3   OH215845   4.293   6.532   0.947  0.2782 -0.4062 -0.5722
 5301TIP3    H115846   4.358   6.587   0.990 -0.4347  0.2208 -0.2715
 5301TIP3    H215847   4.296   6.559   0.855  0.4440 -0.3822 -0.5597
 5302TIP3   OH215848   8.103   2.751   4.785  0.1466 -0.1498  0.1492
 5302TIP3    H115849   8.061   2.668   4.810  0.4959 -0.9290 -1.6981
 5302TIP3    H215850   8.092   2.755   4.690  0.6769  1.6445  0.1376
 5303TIP3   OH215851   3.804   6.282   1.202  0.0106 -0.2183 -0.0482
 5303TIP3    H115852   3.785   6.254   1.292 -2.1688  1.1203 -0.0348
 5303TIP3    H215853   3.810   6.378   1.207  0.4401 -0.1577 -1.2568
 5304TIP3   OH215854   7.306   5.461   4.814  0.6851 -0.3314 -0.4717
 5304TIP3    H115855   7.285   5.398   4.746  0.3365  0.9939 -1.6352
 5304TIP3    H215856   7.221   5.498   4.839  0.9408  0.0960 -0.2188
 5305TIP3   OH215857   5.732   4.373   2.650  0.3148  0.0648  0.0881
 5305TIP3    H115858   5.681   4.293   2.666 -0.8624  1.1646  2.3168
 5305TIP3    H215859   5.723   4.423   2.731  1.3407  2.3002 -1.1065
 5306TIP3   OH215860   6.934   5.934   6.379 -0.8191  0.4077 -0.2798
 5306TIP3    H115861   6.880   5.860   6.353 -0.3343  0.2088 -0.7528
 5306TIP3    H215862   6.907   6.005   6.320 -0.6786  0.3571 -0.4046
 5307TIP3   OH215863   2.275   4.388   3.459  0.0346  0.0932  0.0424
 5307TIP3    H115864   2.323   4.394   3.377  1.6302  0.4558  0.9724
 5307TIP3    H215865   2.259   4.479   3.485 -0.0401 -0.0062  0.3603
 5308TIP3   OH215866   0.831   3.203   1.829  0.0555 -0.0903  0.1795
 5308TIP3    H115867   0.813   3.176   1.919 -1.4097 -1.7546 -0.5654
 5308TIP3    H215868   0.881   3.131   1.791 -1.7489 -0.6995 -1.1293
 5309TIP3   OH215869   2.076   1.653   5.727 -0.6084 -0.2278 -0.6689
 5309TIP3    H115870   2.005   1.684   5.671 -2.7166  0.3223  2.0955
 5309TIP3    H215871   2.077   1.558   5.715 -1.8812 -0.2430 -0.7064
 5310TIP3   OH215872   6.824   7.240   4.630 -0.5128  0.5206  0.2325
 5310TIP3    H115873   6.915   7.223   4.655 -0.2892  2.0837  0.5545
 5310TIP3    H215874   6.822   7.228   4.535  0.4985  2.3083 -0.0597
 5311TIP3   OH215875   5.851   0.555   2.470  0.3815 -0.0523  0.3320
 5311TIP3    H115876   5.805   0.553   2.553 -0.6002  0.4035 -0.1840
 5311TIP3    H215877   5.861   0.648   2.450  0.3833 -0.1547 -0.1748
 5312TIP3   OH215878   6.051   6.134   4.696 -0.1783  0.6023 -0.1011
 5312TIP3    H115879   6.045   6.051   4.649  0.5376  0.8671 -0.6744
 5312TIP3    H215880   5.960   6.155   4.717 -0.8070  1.4720 -3.1588
 5313TIP3   OH215881   3.712   2.966   1.512 -0.8952  0.0628  0.0722
 5313TIP3    H115882   3.674   3.048   1.541  2.3047  1.8435 -0.2192
 5313TIP3    H215883   3.806   2.984   1.507 -0.0045 -3.6845  0.1091
 5314TIP3   OH215884   0.633   0.419   3.435  0.0014  0.3463 -0.1150
 5314TIP3    H115885   0.674   0.455   3.357 -0.4522 -0.1168 -0.5728
 5314TIP3    H215886   0.589   0.493   3.476  0.9073  0.7621  0.1508
 5315TIP3   OH215887   2.770   3.906   2.476  0.0965 -0.1350 -0.3928
 5315TIP3    H115888   2.807   3.850   2.408  2.1075 -1.3639  1.5923
 5315TIP3    H215889   2.717   3.847   2.530  0.3772  0.3220  0.4067
 5316TIP3   OH215890   1.148   0.688   2.492  0.1779  0.3418  0.0186
 5316TIP3    H115891   1.154   0.764   2.434 -0.0972  0.3270 -0.0296
 5316TIP3    H215892   1.106   0.722   2.571  1.6343  0.6377  0.6874
 5317TIP3   OH215893   3.646   5.185   3.749 -0.3265 -0.5390 -0.3331
 5317TIP3    H115894   3.717   5.243   3.777  0.0765 -0.3783 -1.6477
 5317TIP3    H215895   3.570   5.242   3.740 -0.5001 -0.6154  0.5190
 5318TIP3   OH215896   6.763   2.718   6.581 -0.3718  0.1308 -0.5472
 5318TIP3    H115897   6.755   2.770   6.661 -1.5826 -0.5546 -0.2054
 5318TIP3    H215898   6.736   2.630   6.606  1.2966 -0.6241 -1.2110
 5319TIP3   OH215899   2.154   3.619   5.156  0.0503 -0.8044  0.0739
 5319TIP3    H115900   2.153   3.579   5.069  0.8849  0.4036 -0.5200
 5319TIP3    H215901   2.211   3.695   5.147 -1.2113  0.3441  1.2314
 5320TIP3   OH215902   0.934   6.587   1.949  0.0951  0.4880  0.1571
 5320TIP3    H115903   0.954   6.493   1.951  0.1620  0.4836 -0.3681
 5320TIP3    H215904   1.015   6.628   1.919 -0.4825  0.5181 -1.5025
 5321TIP3   OH215905   5.383   5.924   0.477 -0.6945  0.3202  0.2853
 5321TIP3    H115906   5.371   5.965   0.391 -1.2103  1.5895  0.9336
 5321TIP3    H215907   5.299   5.882   0.495 -0.7294  0.4079  0.3329
 5322TIP3   OH215908   4.849   1.396   6.043  0.1289  0.1596 -0.3735
 5322TIP3    H115909   4.784   1.417   6.110  1.5096  3.4772  0.1616
 5322TIP3    H215910   4.853   1.301   6.042 -1.5210 -0.0759  2.7054
 5323TIP3   OH215911   2.398   2.186   2.919 -0.3423  0.3758  0.3115
 5323TIP3    H115912   2.493   2.186   2.905  0.0168  1.3049  2.3248
 5323TIP3    H215913   2.376   2.094   2.933  0.5100  0.2896  1.1588
 5324TIP3   OH215914   5.521   7.819   0.001  0.4557 -0.0256 -0.3098
 5324TIP3    H115915   5.504   7.740  -0.051  0.3891 -0.0539 -0.2457
 5324TIP3    H215916   5.508   7.790   0.092  1.5683 -0.2470 -0.2034
 5325TIP3   OH215917   0.852   6.584   5.104  0.0451 -0.2213 -0.2851
 5325TIP3    H115918   0.878   6.674   5.083  2.2060 -0.6559  0.2860
 5325TIP3    H215919   0.763   6.593   5.139  0.0880  1.6435 -0.5173
 5326TIP3   OH215920   3.514   5.167   2.616  0.0803 -0.4373 -0.0234
 5326TIP3    H115921   3.575   5.093   2.618  0.6716  0.0054 -1.0154
 5326TIP3    H215922   3.482   5.174   2.705  1.7860 -0.4253  0.6243
 5327TIP3   OH215923   5.422   5.256   0.626  0.3297  0.3212  0.4690
 5327TIP3    H115924   5.512   5.278   0.600 -0.0988  1.5587 -0.0647
 5327TIP3    H215925   5.411   5.165   0.598  1.0116  0.5539 -0.6298
 5328TIP3   OH215926   2.286   2.202   0.720 -0.0968  0.0188 -0.0908
 5328TIP3    H115927   2.294   2.232   0.811  1.6978 -0.5491 -0.0103
 5328TIP3    H215928   2.192   2.198   0.704 -0.4469  2.5725  0.8925
 5329TIP3   OH215929   3.094   7.253   3.196  0.2206  0.2760  0.2640
 5329TIP3    H115930   3.067   7.207   3.275 -0.2399  2.0428  1.1914
 5329TIP3    H215931   3.012   7.283   3.157  0.5210  0.5192 -0.1848
 5330TIP3   OH215932   8.094   2.597   1.351  0.2091  0.4982  0.2228
 5330TIP3    H115933   8.048   2.608   1.268  0.7960  0.7346 -0.0804
 5330TIP3    H215934   8.142   2.679   1.363  0.5674  0.2496  0.5193
 5331TIP3   OH215935   7.545   3.010   0.250  0.2070 -0.5981  0.1692
 5331TIP3    H115936   7.616   3.030   0.312  0.9838  0.0557 -0.8983
 5331TIP3    H215937   7.492   2.945   0.296  1.5650 -1.1989  0.9654
 5332TIP3   OH215938   1.856   7.391   4.700  0.0929  0.0897  0.5269
 5332TIP3    H115939   1.912   7.452   4.653  2.4875 -0.8367  2.0185
 5332TIP3    H215940   1.781   7.378   4.641 -0.1511  3.7170 -0.1978
 5333TIP3   OH215941   1.012   1.675   0.858 -0.3858 -0.0328 -1.4964
 5333TIP3    H115942   1.016   1.633   0.772  0.2452 -1.5839 -0.7499
 5333TIP3    H215943   1.104   1.682   0.886 -0.6155 -0.1394 -0.6835
 5334TIP3   OH215944   1.772   2.823   5.114  0.1949  0.5156  0.0605
 5334TIP3    H115945   1.789   2.757   5.182 -0.5234 -0.0317 -0.2843
 5334TIP3    H215946   1.788   2.777   5.031 -4.1638 -0.5387 -0.4112
 5335TIP3   OH215947   5.633   5.371   5.444 -0.1277  0.1769  0.6579
 5335TIP3    H115948   5.634   5.277   5.428  0.9051  0.2206  0.3383
 5335TIP3    H215949   5.721   5.400   5.418 -0.4375  1.2274  0.7341
 5336TIP3   OH215950   1.580   1.834   1.078  0.1136  0.4059  0.3167
 5336TIP3    H115951   1.605   1.821   1.169 -0.4699  1.8185  0.7014
 5336TIP3    H215952   1.485   1.833   1.078  0.0500 -2.3321 -0.7456
 5337TIP3   OH215953   1.414   5.517   3.389 -0.5349  0.1692 -0.3241
 5337TIP3    H115954   1.406   5.484   3.479 -0.1150 -0.6840 -0.5933
 5337TIP3    H215955   1.504   5.549   3.384  0.1330 -1.7152 -1.0578
 5338TIP3   OH215956   5.251   1.392   2.767 -0.1512  0.0842  0.1518
 5338TIP3    H115957   5.186   1.322   2.776 -0.1445  0.0506 -0.0429
 5338TIP3    H215958   5.270   1.394   2.673  0.8791 -0.5991  0.3281
 5339TIP3   OH215959   4.186   5.707   2.869 -0.4540  0.0569  0.7536
 5339TIP3    H115960   4.229   5.730   2.951 -0.7914  2.5768  0.3069
 5339TIP3    H215961   4.259   5.692   2.808 -0.2114 -0.5192  1.1760
 5340TIP3   OH215962   2.887   0.226   0.877 -0.6553 -0.0644  0.2551
 5340TIP3    H115963   2.884   0.260   0.966  0.1463 -1.8489  1.0047
 5340TIP3    H215964   2.811   0.265   0.834 -1.3879  0.3634  1.8812
 5341TIP3   OH215965   2.190   2.263   4.216 -0.3189 -0.1291  0.5328
 5341TIP3    H115966   2.275   2.228   4.188  0.2908  1.1329  0.7253
 5341TIP3    H215967   2.139   2.269   4.136  0.2922  0.4614  0.1765
 5342TIP3   OH215968   5.085   5.902   2.653 -0.2937 -0.1276 -0.2120
 5342TIP3    H115969   5.032   5.879   2.729  1.1162  0.9190  1.1374
 5342TIP3    H215970   5.140   5.825   2.638  0.5291  0.2324  0.8402
 5343TIP3   OH215971   7.889   4.448   4.413  0.0210 -0.1113 -0.2612
 5343TIP3    H115972   7.962   4.451   4.352  1.3334  1.3292  1.2877
 5343TIP3    H215973   7.924   4.403   4.490 -0.4620  1.2624  0.7950
 5344TIP3   OH215974   5.657   7.625   0.578  0.0248  0.0994 -0.3732
 5344TIP3    H115975   5.649   7.704   0.523 -1.4318 -0.1064 -0.5079
 5344TIP3    H215976   5.639   7.553   0.518  3.8651 -0.6509 -0.8846
 5345TIP3   OH215977   7.199   1.076   6.284  0.5842 -0.2334  0.7343
 5345TIP3    H115978   7.195   1.166   6.253  0.0639 -0.4118  0.2656
 5345TIP3    H215979   7.269   1.035   6.233 -0.4515 -0.6018 -0.4441
 5346TIP3   OH215980   4.160   3.020   0.821  0.0612 -0.0138  1.0687
 5346TIP3    H115981   4.108   2.952   0.779  1.2463 -0.5749  0.4714
 5346TIP3    H215982   4.119   3.102   0.793 -0.6130 -0.4429  0.7737
 5347TIP3   OH215983   4.977   1.169   4.407  0.0025  0.3130  0.3628
 5347TIP3    H115984   4.955   1.259   4.431 -2.1229  0.1412 -0.6985
 5347TIP3    H215985   5.020   1.176   4.322 -1.3523  0.2801 -0.3526
 5348TIP3   OH215986   5.144   6.470   6.360  0.2759 -0.4670 -0.0106
 5348TIP3    H115987   5.131   6.444   6.451 -0.8613 -1.0143 -0.3190
 5348TIP3    H215988   5.238   6.487   6.354  0.1698  1.0662  1.6362
 5349TIP3   OH215989   4.264   1.248   3.616  0.2026  0.6267  0.3335
 5349TIP3    H115990   4.198   1.271   3.681 -0.2588 -0.9371  0.4484
 5349TIP3    H215991   4.216   1.201   3.548  1.2575 -1.1499  0.7397
 5350TIP3   OH215992   0.588   0.195   4.897  0.7132  0.1558  0.1433
 5350TIP3    H115993   0.621   0.187   4.987 -1.3011  0.1496  0.9376
 5350TIP3    H215994   0.665   0.184   4.842  2.1127  0.8284  1.8858
 5351TIP3   OH215995   0.850   0.645   1.406 -0.2570  0.1923  0.0497
 5351TIP3    H115996   0.875   0.561   1.367 -0.2310  1.2510 -2.4507
 5351TIP3    H215997   0.764   0.629   1.445 -0.8841 -0.7104 -1.5933
 5352TIP3   OH215998   7.300   3.191  -0.001 -0.2037 -0.1582 -0.6282
 5352TIP3    H115999   7.269   3.186   0.089  0.7544  0.3568 -0.2509
 5352TIP3    H216000   7.395   3.175   0.005  0.6440  3.6245 -0.9802
 5353TIP3   OH216001   3.842   4.406   2.141 -0.2055  0.6087  0.3003
 5353TIP3    H116002   3.933   4.375   2.144 -0.1906  0.7008  1.2666
 5353TIP3    H216003   3.846   4.490   2.096  0.0028  0.0501 -0.7730
 5354TIP3   OH216004   6.326   7.517   6.576 -0.0699  0.1742 -0.8037
 5354TIP3    H116005   6.281   7.446   6.531 -0.1040  0.8112 -1.8270
 5354TIP3    H216006   6.340   7.583   6.507 -2.7937  2.5287  0.6610
 5355TIP3   OH216007   1.785   3.383   5.304  0.6652 -0.2184 -0.0182
 5355TIP3    H116008   1.824   3.391   5.391  1.2936  0.4564 -0.3467
 5355TIP3    H216009   1.819   3.459   5.256 -2.4205  1.4225  0.1939
 5356TIP3   OH216010   4.312   3.441   5.278 -0.2557  0.4821  0.0211
 5356TIP3    H116011   4.242   3.479   5.332 -1.2377  1.1816 -1.6605
 5356TIP3    H216012   4.393   3.474   5.318 -0.7341 -1.1499  2.6220
 5357TIP3   OH216013   1.675   0.505   0.666 -0.3184  0.1565 -0.1153
 5357TIP3    H116014   1.612   0.571   0.637 -1.1402  0.2153  1.6907
 5357TIP3    H216015   1.626   0.448   0.724  1.3356  0.4472  1.6964
 5358TIP3   OH216016   5.228   1.178   3.214 -0.1274  0.5866  0.0532
 5358TIP3    H116017   5.215   1.141   3.127 -0.3405 -0.2451  0.4245
 5358TIP3    H216018   5.166   1.131   3.269 -1.9572  2.9813  0.1848
 5359TIP3   OH216019   5.161   7.575   5.364  0.1074 -0.1887  0.8370
 5359TIP3    H116020   5.213   7.655   5.377  0.9511 -0.8492  1.6468
 5359TIP3    H216021   5.224   7.504   5.370 -0.9624 -1.0502  2.4045
 5360TIP3   OH216022   3.188   0.336   2.732  0.4615 -0.2648  0.2418
 5360TIP3    H116023   3.094   0.353   2.727  0.3416 -0.0815  2.2472
 5360TIP3    H216024   3.229   0.422   2.720  0.1856  0.2584  2.5830
 5361TIP3   OH216025   6.467   3.112   2.023  0.0307 -0.0631 -0.0286
 5361TIP3    H116026   6.484   3.034   1.970 -0.2811  0.2722 -0.6349
 5361TIP3    H216027   6.382   3.144   1.992 -0.6766 -0.4593  1.4188
 5362TIP3   OH216028   6.913   3.524   5.809  0.3818 -0.0777 -0.3832
 5362TIP3    H116029   6.825   3.494   5.833  1.0192 -1.2113  0.6285
 5362TIP3    H216030   6.899   3.612   5.775 -1.1284 -0.1738 -0.0942
 5363TIP3   OH216031   4.317   3.838   2.799 -0.0362  0.0924  0.2675
 5363TIP3    H116032   4.366   3.827   2.881  0.1360  0.4416  0.2139
 5363TIP3    H216033   4.362   3.909   2.754 -0.2260  0.0047 -0.0615
 5364TIP3   OH216034   5.038   1.001   3.354 -0.3894 -0.1731  0.2912
 5364TIP3    H116035   4.955   1.001   3.306  0.7109 -1.2872 -1.7596
 5364TIP3    H216036   5.016   0.964   3.439 -1.6271 -2.8538 -1.0640
 5365TIP3   OH216037   5.118   5.686   2.322 -0.8969 -0.3154 -0.0276
 5365TIP3    H116038   5.039   5.706   2.273 -0.2930  0.2398 -0.7979
 5365TIP3    H216039   5.186   5.739   2.281 -0.3928  0.2721  1.4856
 5366TIP3   OH216040   0.978   4.672   0.405  0.7472 -0.5733  0.3241
 5366TIP3    H116041   1.026   4.608   0.353 -0.1852 -1.0544  0.0391
 5366TIP3    H216042   1.037   4.694   0.477  1.2001 -1.5065  0.2452
 5367TIP3   OH216043   1.842   1.170   1.333 -0.1898  0.1229  0.2027
 5367TIP3    H116044   1.926   1.201   1.367 -0.5251  0.3139  0.8679
 5367TIP3    H216045   1.864   1.130   1.249  0.4227  1.0674 -0.1042
 5368TIP3   OH216046   1.137   7.197   3.339 -0.5368 -0.5189  0.1865
 5368TIP3    H116047   1.182   7.276   3.367 -1.0449  0.0581 -0.5961
 5368TIP3    H216048   1.050   7.227   3.311 -0.0311 -1.0064 -2.1473
 5369TIP3   OH216049   5.976   7.326   3.096  0.0148  0.3157 -0.3880
 5369TIP3    H116050   5.891   7.290   3.121 -0.9354  1.3237 -1.9600
 5369TIP3    H216051   6.003   7.380   3.170 -1.0955  0.6020 -0.1779
 5370TIP3   OH216052   3.369   0.989   1.423 -0.1601 -0.5101 -0.3884
 5370TIP3    H116053   3.391   0.991   1.330 -0.0295  1.9146 -0.3895
 5370TIP3    H216054   3.453   0.987   1.468 -0.0652  1.5086 -0.3818
 5371TIP3   OH216055   5.736   4.507   1.989 -0.4729  0.5477 -0.0104
 5371TIP3    H116056   5.796   4.445   2.029  0.4742  2.4824  1.7675
 5371TIP3    H216057   5.738   4.583   2.047 -3.1355  1.4722 -0.9851
 5372TIP3   OH216058   3.104   0.600   5.288 -0.2853 -0.5685 -0.1229
 5372TIP3    H116059   3.022   0.648   5.303 -0.3981  0.3454 -3.0715
 5372TIP3    H216060   3.161   0.664   5.245  1.3640 -1.7226  0.2737
 5373TIP3   OH216061   7.595   1.473   3.382  0.5093  0.0984 -0.1062
 5373TIP3    H116062   7.681   1.510   3.402  0.0822  1.8076 -1.1665
 5373TIP3    H216063   7.549   1.544   3.337 -1.2936 -0.9417  0.0174
 5374TIP3   OH216064   2.690   2.797   4.856 -0.2828 -1.1300  0.0194
 5374TIP3    H116065   2.750   2.851   4.908 -0.1958 -0.5167 -0.6969
 5374TIP3    H216066   2.620   2.774   4.917 -0.0226 -0.6898  0.4979
 5375TIP3   OH216067   5.785   6.026   4.942 -0.0266  0.2700  0.7327
 5375TIP3    H116068   5.799   6.082   4.866 -0.3092 -0.0874  0.4141
 5375TIP3    H216069   5.796   6.084   5.017 -1.7299  1.0736  0.3884
 5376TIP3   OH216070   7.526   3.943   4.955 -0.2047  0.0183 -0.2322
 5376TIP3    H116071   7.620   3.941   4.936 -0.2193 -1.6845 -0.2868
 5376TIP3    H216072   7.509   4.033   4.980  1.4750  0.3356 -0.0903
 5377TIP3   OH216073   8.214   4.496   6.072 -1.1275 -0.1787 -0.3750
 5377TIP3    H116074   8.237   4.576   6.024 -0.7645  0.7243  1.2173
 5377TIP3    H216075   8.121   4.484   6.056 -0.8486 -0.4219 -1.9964
 5378TIP3   OH216076   3.581   1.802   5.695  0.0783 -0.3569 -0.2303
 5378TIP3    H116077   3.639   1.876   5.676 -0.0641  0.7209  2.9427
 5378TIP3    H216078   3.494   1.841   5.704 -0.2321 -1.1186  0.1865
 5379TIP3   OH216079   6.716   4.016   1.564 -0.5240  0.2417 -0.2070
 5379TIP3    H116080   6.696   4.102   1.527  1.0489  0.9482  0.5080
 5379TIP3    H216081   6.701   4.027   1.658  0.5433  0.0217  0.0047
 5380TIP3   OH216082   6.018   1.721   1.874 -0.2989 -0.5397  0.5516
 5380TIP3    H116083   6.071   1.787   1.831 -1.4477  0.8627  1.1897
 5380TIP3    H216084   6.075   1.644   1.881 -0.1578 -1.0888 -3.8244
 5381TIP3   OH216085   1.854   7.078   0.883  0.0524 -0.7681 -0.2131
 5381TIP3    H116086   1.843   7.116   0.796  0.6147 -0.0001  0.0421
 5381TIP3    H216087   1.765   7.053   0.909  0.1338 -3.4934 -2.0656
 5382TIP3   OH216088   2.211   5.926   0.427  0.3193 -0.3760  0.9746
 5382TIP3    H116089   2.307   5.934   0.421  0.3182  1.1689  2.1772
 5382TIP3    H216090   2.181   6.015   0.444 -1.3139 -0.9064  1.0270
 5383TIP3   OH216091   5.991   0.295   1.367 -0.0900 -0.0431 -0.0525
 5383TIP3    H116092   5.941   0.344   1.432 -0.8184  0.9885 -1.3174
 5383TIP3    H216093   5.939   0.216   1.351 -1.1309  0.8051 -1.0259
 5384TIP3   OH216094   8.053   0.230   0.168 -0.1755 -0.3358 -0.8193
 5384TIP3    H116095   7.960   0.236   0.147 -0.5140  1.0101  0.8103
 5384TIP3    H216096   8.072   0.136   0.164 -1.8713 -0.7571 -0.1639
 5385TIP3   OH216097   6.549   6.369   0.352  0.4744  0.1484 -0.1634
 5385TIP3    H116098   6.513   6.392   0.266 -1.6531 -0.6987  0.4116
 5385TIP3    H216099   6.593   6.285   0.339 -0.8741 -0.5813 -0.2588
 5386TIP3   OH216100   6.841   7.672   3.124 -0.0285  0.0576  0.1040
 5386TIP3    H116101   6.819   7.722   3.045  0.1857 -1.4045 -0.9235
 5386TIP3    H216102   6.932   7.644   3.111 -0.1291 -0.5718  0.6572
 5387TIP3   OH216103   5.706   5.383   0.583 -0.1253 -0.0471  0.1013
 5387TIP3    H116104   5.728   5.467   0.624 -0.2498  0.2979 -0.5288
 5387TIP3    H216105   5.744   5.318   0.641  0.3114  0.4579  0.3919
 5388TIP3   OH216106   2.332   3.593   4.709 -0.0508  0.2270 -0.0116
 5388TIP3    H116107   2.272   3.600   4.783 -0.7128 -1.6748 -0.3090
 5388TIP3    H216108   2.286   3.635   4.636 -0.8707 -0.8514 -0.1336
 5389TIP3   OH216109   2.057   4.693   3.272 -0.1976  0.0511  0.0852
 5389TIP3    H116110   2.068   4.764   3.209 -0.4051 -2.4476 -3.0448
 5389TIP3    H216111   1.983   4.720   3.326 -1.3600  1.5445 -2.0652
 5390TIP3   OH216112   3.544   6.308   5.856  0.5376  0.5242  0.2934
 5390TIP3    H116113   3.559   6.309   5.761  0.6990  1.9493  0.3083
 5390TIP3    H216114   3.632   6.299   5.894  0.3642 -1.3534  0.3216
 5391TIP3   OH216115   4.311   7.088   4.010 -0.1458  0.3775  0.0902
 5391TIP3    H116116   4.328   7.077   4.104 -0.0023 -2.1895 -0.1517
 5391TIP3    H216117   4.397   7.079   3.969 -0.5014 -0.9906 -0.4103
 5392TIP3   OH216118   1.869   0.691   6.749 -0.3820  0.1590 -0.4059
 5392TIP3    H116119   1.822   0.608   6.740 -0.9694  0.0738  2.4993
 5392TIP3    H216120   1.801   0.755   6.768  0.2357  0.9842 -0.9168
 5393TIP3   OH216121   7.111   7.763   0.770  0.0053 -0.4698 -0.6039
 5393TIP3    H116122   7.038   7.774   0.831 -0.6321  0.2594 -1.4538
 5393TIP3    H216123   7.080   7.697   0.708  1.1111 -2.0911  0.5000
 5394TIP3   OH216124   2.129   6.068   5.346 -0.2204  0.3508 -0.5239
 5394TIP3    H116125   2.202   6.124   5.320  1.3721 -0.7063  1.3444
 5394TIP3    H216126   2.057   6.128   5.366  1.3849  1.7645  1.3233
 5395TIP3   OH216127   1.913   5.685   6.702  0.2075 -0.1695  0.2496
 5395TIP3    H116128   1.825   5.648   6.711  0.0919  0.3419  1.4444
 5395TIP3    H216129   1.906   5.772   6.740  0.7960  0.6139 -1.3375
 5396TIP3   OH216130   1.950   5.459   1.993 -0.2131 -0.1055 -0.1267
 5396TIP3    H116131   1.889   5.386   1.998 -0.0897 -0.2427 -0.5910
 5396TIP3    H216132   2.025   5.432   2.046  0.7218 -1.1896 -1.9192
 5397TIP3   OH216133   1.150   0.580   3.096  0.1391 -0.0671  0.0121
 5397TIP3    H116134   1.087   0.652   3.094  0.2799  0.0446 -0.8434
 5397TIP3    H216135   1.222   0.610   3.041  0.9327 -0.2114  0.9462
 5398TIP3   OH216136   7.211   5.018   0.415 -0.2428 -0.0334 -0.0931
 5398TIP3    H116137   7.208   4.998   0.321 -1.7264 -0.7652  0.0630
 5398TIP3    H216138   7.215   4.932   0.457 -0.4906  0.2478  0.5169
 5399TIP3   OH216139   1.929   2.256   5.163 -0.0130  0.0736 -0.3610
 5399TIP3    H116140   1.879   2.177   5.144 -0.5854  0.4862 -0.5704
 5399TIP3    H216141   1.912   2.274   5.256 -0.2335  0.2003 -0.4260
 5400TIP3   OH216142   2.313   7.147   0.910  0.1732 -0.1699 -0.3778
 5400TIP3    H116143   2.381   7.206   0.942  1.3374 -2.7409  2.3226
 5400TIP3    H216144   2.352   7.105   0.833  0.4196  0.5460 -0.6508
 5401TIP3   OH216145   7.128   2.665   5.544  0.0223  0.1969 -0.3111
 5401TIP3    H116146   7.154   2.641   5.632 -1.6546 -0.7909 -0.0379
 5401TIP3    H216147   7.117   2.761   5.547  1.2228  0.3261  0.1725
 5402TIP3   OH216148   1.322   6.769   3.135 -0.0340  0.3894 -0.3963
 5402TIP3    H116149   1.292   6.819   3.211  0.7653  1.2128 -0.6062
 5402TIP3    H216150   1.346   6.836   3.071  0.3044 -0.2878 -0.9853
 5403TIP3   OH216151   7.395   2.248   2.395 -0.0493  0.2680 -0.3010
 5403TIP3    H116152   7.370   2.339   2.382  0.5597  0.7478  1.5332
 5403TIP3    H216153   7.312   2.202   2.406 -0.3504  0.6547 -0.9291
 5404TIP3   OH216154   4.315   3.054   3.917 -0.0239 -0.1754  0.3412
 5404TIP3    H116155   4.279   3.095   3.839 -1.1647 -2.5410 -0.4595
 5404TIP3    H216156   4.244   2.999   3.951  1.0330 -0.6012  2.0148
 5405TIP3   OH216157   7.012   2.426   0.194 -0.5791 -0.3327  0.1910
 5405TIP3    H116158   7.067   2.389   0.125 -0.3239  1.7304 -0.7946
 5405TIP3    H216159   7.064   2.417   0.274  0.0213 -0.8710 -0.2518
 5406TIP3   OH216160   0.898   0.934   5.741 -0.2152  0.5113 -0.2295
 5406TIP3    H116161   0.838   0.908   5.810  0.4725 -0.4255  0.0336
 5406TIP3    H216162   0.918   0.853   5.695  2.4368  0.3862  0.9728
 5407TIP3   OH216163   5.866   2.460   2.262  0.2499 -0.7451  0.1648
 5407TIP3    H116164   5.843   2.411   2.341  1.8561 -0.6808  0.7099
 5407TIP3    H216165   5.961   2.468   2.266  0.1893  0.8569 -0.8426
 5408TIP3   OH216166   5.488   5.321   4.223 -0.3124  0.0223 -0.0231
 5408TIP3    H116167   5.576   5.344   4.255 -0.0322 -0.5122 -0.4055
 5408TIP3    H216168   5.436   5.400   4.239 -0.0034  0.0186  1.0925
 5409TIP3   OH216169   5.423   2.330   1.378  0.1124  0.2069  0.1324
 5409TIP3    H116170   5.489   2.283   1.327  0.2708  1.4880 -0.9108
 5409TIP3    H216171   5.473   2.369   1.451  0.3903  0.5388 -0.2256
 5410TIP3   OH216172   1.412   7.212   2.749 -0.2952  0.3200  0.0737
 5410TIP3    H116173   1.456   7.130   2.726  0.3683  0.7131 -0.0922
 5410TIP3    H216174   1.440   7.229   2.839  0.7077  1.0724 -0.3550
 5411TIP3   OH216175   8.139   4.246   2.548  0.1195 -0.0364  0.3185
 5411TIP3    H116176   8.141   4.313   2.481 -0.2712 -2.1214 -1.9344
 5411TIP3    H216177   8.150   4.293   2.631  0.9146  2.6085 -1.2025
 5412TIP3   OH216178   7.633   0.647   1.108 -0.4920 -0.1902 -0.4023
 5412TIP3    H116179   7.587   0.697   1.041  0.5281 -0.0310 -0.9977
 5412TIP3    H216180   7.688   0.711   1.153  0.5881 -0.6909 -0.9638
 5413TIP3   OH216181   4.493   7.580   2.837 -0.6801 -0.4957 -0.4474
 5413TIP3    H116182   4.438   7.602   2.762 -2.8939  0.2648  1.2750
 5413TIP3    H216183   4.431   7.558   2.906  1.1266  1.2068  1.8786
 5414TIP3   OH216184   7.521   0.248  -0.014 -0.2311  0.2766  0.3859
 5414TIP3    H116185   7.542   0.336   0.018 -0.2131  0.0699  0.9412
 5414TIP3    H216186   7.484   0.203   0.061  0.1035 -0.3131  0.2043
 5415TIP3   OH216187   0.486   1.810   1.323 -0.5356  0.0654 -0.1770
 5415TIP3    H116188   0.415   1.819   1.260 -0.0019 -0.5683 -0.8863
 5415TIP3    H216189   0.559   1.773   1.273 -0.9393 -3.1640  1.3693
 5416TIP3   OH216190   7.322   3.659   3.580  0.0259  0.1850 -0.2794
 5416TIP3    H116191   7.319   3.611   3.663 -0.8444 -0.4558 -0.6720
 5416TIP3    H216192   7.388   3.614   3.528  1.9816  1.7364  0.7327
 5417TIP3   OH216193   6.823   3.167   0.447 -0.1324 -0.1735 -0.6015
 5417TIP3    H116194   6.844   3.259   0.435  1.5163 -0.2249  1.4417
 5417TIP3    H216195   6.743   3.167   0.500 -0.2630  0.0596 -0.7946
 5418TIP3   OH216196   2.704   2.004   3.469 -0.0006  0.4429  0.2345
 5418TIP3    H116197   2.751   2.085   3.490 -2.3266  1.8167  0.5402
 5418TIP3    H216198   2.704   1.954   3.551 -1.0002  1.4901  0.9055
 5419TIP3   OH216199   2.632   1.507   3.135 -0.5015  0.4821 -0.3553
 5419TIP3    H116200   2.604   1.416   3.120 -2.4464  1.1275 -0.9321
 5419TIP3    H216201   2.601   1.555   3.058 -0.6685  1.8678  0.5387
 5420TIP3   OH216202   4.104   1.340   1.534  0.1690 -0.2076 -0.2123
 5420TIP3    H116203   4.037   1.353   1.600  0.5982 -0.2378  0.2329
 5420TIP3    H216204   4.122   1.246   1.537 -0.2021 -0.3013 -0.7589
 5421TIP3   OH216205   7.071   5.489   1.960 -0.4127  0.1251  0.7367
 5421TIP3    H116206   7.156   5.505   2.001 -0.7173 -0.2212  1.5092
 5421TIP3    H216207   7.047   5.400   1.986 -1.3525  0.4801  1.1520
 5422TIP3   OH216208   5.176   1.138   0.415 -0.1087 -0.1055 -0.1665
 5422TIP3    H116209   5.156   1.210   0.356  1.6457  0.8246  0.2988
 5422TIP3    H216210   5.229   1.178   0.484  0.9581 -1.8332  0.0790
 5423TIP3   OH216211   4.903   7.387   4.456 -0.1577 -0.0515 -0.1821
 5423TIP3    H116212   4.882   7.296   4.478 -2.4144  0.2236 -0.9612
 5423TIP3    H216213   4.944   7.383   4.370  2.1848 -0.4948  0.8673
 5424TIP3   OH216214   6.616   0.459   0.588  0.2207  0.1347 -0.4263
 5424TIP3    H116215   6.682   0.391   0.599  0.2553 -0.2024 -2.3263
 5424TIP3    H216216   6.552   0.443   0.657  0.5456 -1.4542 -0.4689
 5425TIP3   OH216217   4.395   7.180   2.763  0.4467  0.0589  0.1373
 5425TIP3    H116218   4.439   7.264   2.754 -0.0420  0.1766 -1.5896
 5425TIP3    H216219   4.306   7.202   2.791  0.2212  0.1723 -0.6304
 5426TIP3   OH216220   6.812   1.999   1.021 -0.2832  0.6445  0.2089
 5426TIP3    H116221   6.733   2.052   1.008 -0.0811  1.2030  1.0722
 5426TIP3    H216222   6.873   2.060   1.063  1.1314  0.6425 -1.7481
 5427TIP3   OH216223   4.713   5.891   3.219 -0.5051 -0.6057 -0.2057
 5427TIP3    H116224   4.707   5.796   3.217 -0.1470 -0.6189 -1.0139
 5427TIP3    H216225   4.788   5.909   3.275 -1.6274 -0.7322  1.4053
 5428TIP3   OH216226   6.247   7.172   4.949 -0.3222  0.1151  0.1867
 5428TIP3    H116227   6.340   7.185   4.964 -0.5320  0.4669  1.2796
 5428TIP3    H216228   6.207   7.256   4.973 -0.8890  0.1031 -0.6537
 5429TIP3   OH216229   6.287   2.098   6.310  0.1346  0.2753 -1.2554
 5429TIP3    H116230   6.216   2.037   6.326  0.9251  0.0685  2.4788
 5429TIP3    H216231   6.365   2.044   6.303  0.4975  0.6627 -0.4657
 5430TIP3   OH216232   7.751   3.615   4.569  1.1495 -0.6678 -0.2940
 5430TIP3    H116233   7.700   3.620   4.488  1.6478 -1.2608 -0.6602
 5430TIP3    H216234   7.779   3.705   4.585  1.5543 -0.6244 -1.1376
 5431TIP3   OH216235   1.398   5.559   5.963  0.9020  0.4047 -0.4283
 5431TIP3    H116236   1.453   5.634   5.940 -1.3187  2.7474  1.3549
 5431TIP3    H216237   1.348   5.542   5.884 -1.0744  3.2377  0.0597
 5432TIP3   OH216238   3.161   6.272   1.938  0.0588 -0.5296 -0.2685
 5432TIP3    H116239   3.237   6.247   1.991  1.0861  1.9901 -0.4108
 5432TIP3    H216240   3.095   6.297   2.002  0.8065  1.1368 -0.0857
 5433TIP3   OH216241   5.874   7.178   3.944 -0.6592  0.6578  0.3584
 5433TIP3    H116242   5.900   7.160   3.854 -3.2385  2.7427 -0.9393
 5433TIP3    H216243   5.828   7.100   3.972 -0.5496  0.3001 -0.4251
 5434TIP3   OH216244   5.263   6.927   6.061  0.0167  0.1838 -0.1636
 5434TIP3    H116245   5.292   7.017   6.050 -0.3676  0.7242  2.7165
 5434TIP3    H216246   5.345   6.876   6.064  0.2887  0.6061 -0.3170
 5435TIP3   OH216247   6.105   7.193   3.749 -0.1417 -0.1868  0.9568
 5435TIP3    H116248   6.113   7.191   3.845 -0.0715 -0.3108  0.9488
 5435TIP3    H216249   6.077   7.282   3.729 -1.0761 -0.4170  1.1658
 5436TIP3   OH216250   0.101   0.541   4.097 -0.7794  0.7826 -0.0208
 5436TIP3    H116251   0.101   0.472   4.163 -1.3123  1.5629  0.8100
 5436TIP3    H216252   0.165   0.604   4.127  1.5972 -0.4793 -2.0542
 5437TIP3   OH216253   1.926   7.011   3.961 -0.5154 -0.4026  0.0173
 5437TIP3    H116254   1.905   7.027   4.053 -0.0210  0.1355  0.0438
 5437TIP3    H216255   1.989   7.079   3.939 -0.2455 -0.8384 -0.5817
 5438TIP3   OH216256   1.433   7.615   4.881  0.2096  0.2588 -0.0835
 5438TIP3    H116257   1.515   7.566   4.890 -0.1448 -0.0631  1.8464
 5438TIP3    H216258   1.383   7.565   4.816  0.8035 -0.6020  0.1009
 5439TIP3   OH216259   1.951   2.851   0.140 -0.0198  0.0372  0.2313
 5439TIP3    H116260   2.039   2.854   0.178 -0.0387  0.2060  0.2657
 5439TIP3    H216261   1.956   2.783   0.073  0.2373  0.2877 -0.0090
 5440TIP3   OH216262   5.251   6.661   3.715 -0.0518  0.1593 -0.1589
 5440TIP3    H116263   5.337   6.687   3.684  1.3043 -2.2265  1.2864
 5440TIP3    H216264   5.239   6.708   3.798  0.3291 -0.2680  0.1427
 5441TIP3   OH216265   4.145   0.464   0.433 -0.2385 -0.4747 -0.1093
 5441TIP3    H116266   4.064   0.509   0.409 -0.3134 -0.2160  0.5916
 5441TIP3    H216267   4.215   0.523   0.406 -0.3436  0.2120  1.0623
 5442TIP3   OH216268   4.530   2.230   1.618 -0.0469 -0.1994  0.2222
 5442TIP3    H116269   4.467   2.268   1.557 -0.1231 -1.4671 -0.5286
 5442TIP3    H216270   4.591   2.301   1.637 -1.6954  1.0709  0.9919
 5443TIP3   OH216271   2.492   6.893   3.672 -0.3778 -0.0502 -0.3754
 5443TIP3    H116272   2.523   6.859   3.756  3.5834 -0.5259 -1.8242
 5443TIP3    H216273   2.487   6.816   3.615 -1.0060  0.5263 -1.1255
 5444TIP3   OH216274   6.403   1.284   1.013 -0.5691 -0.1341 -0.0934
 5444TIP3    H116275   6.417   1.370   1.052  0.4438  0.3567 -1.4335
 5444TIP3    H216276   6.313   1.286   0.981 -0.5229  0.4580 -0.1876
 5445TIP3   OH216277   5.730   5.809   1.692 -0.4371  0.2210  0.7633
 5445TIP3    H116278   5.773   5.894   1.692 -0.7299  0.3688  1.5677
 5445TIP3    H216279   5.761   5.766   1.772 -1.1397  0.0065  0.9249
 5446TIP3   OH216280   1.230   6.264   5.836  0.1301 -0.5895  0.2320
 5446TIP3    H116281   1.224   6.346   5.885  3.2028 -0.6020  0.7693
 5446TIP3    H216282   1.219   6.196   5.902 -1.4122 -0.6883 -0.0693
 5447TIP3   OH216283   1.219   0.693   4.830  0.1486  0.1017  1.0228
 5447TIP3    H116284   1.244   0.746   4.754 -1.5516 -3.0320 -2.0593
 5447TIP3    H216285   1.135   0.730   4.858 -1.0613 -0.7990 -1.1292
 5448TIP3   OH216286   2.790   7.252   0.225 -0.3189  0.7920  0.3809
 5448TIP3    H116287   2.854   7.278   0.159 -3.5774  2.6591 -2.4454
 5448TIP3    H216288   2.754   7.334   0.258 -0.7239 -0.1541  2.4717
 5449TIP3   OH216289   4.946   0.925   2.686  0.4351 -0.0872  0.0787
 5449TIP3    H116290   4.970   0.910   2.777 -0.6175 -0.8253  0.2534
 5449TIP3    H216291   4.854   0.901   2.681  0.3552  0.3841 -1.0836
 5450TIP3   OH216292   7.894   1.260   2.367 -0.6312  0.2894  0.1254
 5450TIP3    H116293   7.969   1.211   2.333  1.9407  1.7717  3.2037
 5450TIP3    H216294   7.878   1.328   2.301  1.9847  1.0707  0.2184
 5451TIP3   OH216295   0.960   7.543   5.024 -0.0771  0.3387 -0.7079
 5451TIP3    H116296   1.030   7.571   5.083 -1.3092  1.2108  0.3708
 5451TIP3    H216297   0.956   7.610   4.956  0.2344  0.1910 -0.8762
 5452TIP3   OH216298   2.098   5.712   0.572  0.8761 -0.4902 -0.4802
 5452TIP3    H116299   2.127   5.776   0.506  0.3305 -1.1928 -1.4251
 5452TIP3    H216300   2.179   5.671   0.603  1.2407  0.6842  0.1895
 5453TIP3   OH216301   8.007   0.651   1.168  0.0861  0.0004 -0.4568
 5453TIP3    H116302   7.962   0.734   1.153 -0.9817 -0.8087 -1.9592
 5453TIP3    H216303   8.038   0.625   1.082 -2.5507 -2.7886 -0.7145
 5454TIP3   OH216304   0.640   0.561   0.042 -0.1115  0.2346 -0.4234
 5454TIP3    H116305   0.649   0.645   0.087 -2.0945 -0.6765  1.8590
 5454TIP3    H216306   0.687   0.499   0.097 -1.4921 -0.6945 -0.2365
 5455TIP3   OH216307   1.781   4.743   5.279 -0.0701  0.4441 -0.5329
 5455TIP3    H116308   1.720   4.740   5.353 -1.3141 -0.4475 -1.5557
 5455TIP3    H216309   1.779   4.654   5.243 -0.3772  1.1315 -2.3197
 5456TIP3   OH216310   2.729   2.035   1.065 -0.2044 -0.3593 -0.2370
 5456TIP3    H116311   2.639   2.062   1.042 -0.4864  0.0564  1.2572
 5456TIP3    H216312   2.723   1.940   1.075  0.0857 -0.6713 -2.4307
 5457TIP3   OH216313   4.061   0.745   5.155 -0.2343  0.1313 -0.4170
 5457TIP3    H116314   4.147   0.776   5.186 -0.3652  0.2630 -0.1786
 5457TIP3    H216315   4.058   0.653   5.182  0.0717 -0.0382 -0.9438
 5458TIP3   OH216316   2.260   0.725   0.321  0.2273  0.1914  0.7044
 5458TIP3    H116317   2.211   0.658   0.369 -0.0769  1.6008  2.4603
 5458TIP3    H216318   2.199   0.757   0.255 -1.4319  2.1149  3.0414
 5459TIP3   OH216319   3.600   6.972   6.706  0.8737 -0.0242 -0.1771
 5459TIP3    H116320   3.527   6.920   6.670  1.4717 -1.8086  1.0139
 5459TIP3    H216321   3.581   6.977   6.800  2.8002 -1.5015  0.3503
 5460TIP3   OH216322   4.642   3.539   6.256 -0.3599 -0.2319  0.3240
 5460TIP3    H116323   4.727   3.583   6.249 -1.3470  1.9080  0.7588
 5460TIP3    H216324   4.648   3.466   6.195  1.4743  0.4094 -0.3478
 5461TIP3   OH216325   5.397   3.771   5.637  0.2086  0.7075  0.2149
 5461TIP3    H116326   5.365   3.821   5.712 -0.8018 -0.4009  0.5711
 5461TIP3    H216327   5.367   3.681   5.654  1.9191 -0.0299 -0.3961
 5462TIP3   OH216328   4.455   7.455   5.935 -0.3698 -0.3158  0.0069
 5462TIP3    H116329   4.391   7.518   5.900 -0.4627 -1.4764 -2.1136
 5462TIP3    H216330   4.401   7.380   5.962 -0.2121  0.2350  2.0418
 5463TIP3   OH216331   6.805   5.364   6.644  0.5906 -0.0627  0.1499
 5463TIP3    H116332   6.728   5.377   6.699 -0.0741 -0.6343 -0.6250
 5463TIP3    H216333   6.804   5.270   6.624  2.8760 -0.6138  2.1516
 5464TIP3   OH216334   6.706   7.004   1.835 -0.3504 -0.1212 -0.0788
 5464TIP3    H116335   6.742   6.967   1.755  1.3260  0.6658  0.2813
 5464TIP3    H216336   6.776   7.059   1.871 -0.8062 -0.9218  2.2467
 5465TIP3   OH216337   3.902   1.644   3.571  0.1251  0.0783  0.0398
 5465TIP3    H116338   3.838   1.702   3.612 -0.7263 -1.2206  0.6341
 5465TIP3    H216339   3.950   1.700   3.511  0.7920  1.8649  2.1017
 5466TIP3   OH216340   0.948   6.955   3.346 -0.4661 -0.3312 -0.4459
 5466TIP3    H116341   0.977   7.001   3.425 -1.0430 -0.0338 -0.4010
 5466TIP3    H216342   0.938   7.025   3.281 -1.4248 -0.3741 -0.3570
 5467TIP3   OH216343   2.468   2.144   1.605  0.2296  0.0350  0.0453
 5467TIP3    H116344   2.427   2.198   1.673  1.6551  1.1448  0.0653
 5467TIP3    H216345   2.468   2.200   1.527 -1.2106 -1.1524 -0.8608
 5468TIP3   OH216346   5.191   7.797   1.061 -0.0748  0.2765  0.4528
 5468TIP3    H116347   5.132   7.734   1.103  0.6142 -0.5371  0.2394
 5468TIP3    H216348   5.134   7.867   1.030 -1.1251 -1.1380 -0.9760
 5469TIP3   OH216349   1.846   6.397   2.195 -0.2134  0.7333  0.7896
 5469TIP3    H116350   1.916   6.335   2.179 -0.7822  0.0443  0.9085
 5469TIP3    H216351   1.765   6.346   2.185 -0.8107  1.9830 -1.6420
 5470TIP3   OH216352   7.362   2.511   4.574  0.0882 -0.3251 -0.8585
 5470TIP3    H116353   7.354   2.457   4.495  2.1340 -0.7891 -0.7853
 5470TIP3    H216354   7.312   2.464   4.641 -0.3936 -0.7101 -1.4789
 5471TIP3   OH216355   2.634   6.383   0.121 -0.2110 -0.4413  0.1229
 5471TIP3    H116356   2.716   6.420   0.089 -0.2175  0.3723  0.9973
 5471TIP3    H216357   2.568   6.449   0.100 -0.8068 -1.4428 -1.3106
 5472TIP3   OH216358   7.673   4.655   0.092 -0.5560  0.0853 -0.0981
 5472TIP3    H116359   7.613   4.638   0.020  0.0876 -3.5742  0.0095
 5472TIP3    H216360   7.745   4.593   0.078  0.8371  1.0053  2.3410
 5473TIP3   OH216361   6.768   6.608   3.220 -0.0171  0.0378  0.4010
 5473TIP3    H116362   6.830   6.541   3.247 -0.4872 -1.1400 -1.2468
 5473TIP3    H216363   6.820   6.689   3.218  0.9420 -0.5387  0.9951
 5474TIP3   OH216364   7.615   7.589   0.837  0.1103 -0.8126  0.4634
 5474TIP3    H116365   7.593   7.666   0.889  0.3488 -0.3955 -0.0500
 5474TIP3    H216366   7.703   7.564   0.866 -0.3397 -1.4705  1.3089
 5475TIP3   OH216367   4.926   4.739   5.986  0.5005  0.0702  0.4980
 5475TIP3    H116368   4.949   4.807   5.923  0.0702 -0.0965  0.1500
 5475TIP3    H216369   5.003   4.682   5.990  0.8553  0.5675  0.7802
 5476TIP3   OH216370   6.670   2.899   1.333  0.1916 -0.2421  0.4637
 5476TIP3    H116371   6.693   2.839   1.261  0.7602  1.0689 -0.5005
 5476TIP3    H216372   6.634   2.842   1.401  1.0365 -1.7178 -0.2631
 5477TIP3   OH216373   1.369   0.444   4.358  0.3451 -0.1640 -0.0142
 5477TIP3    H116374   1.345   0.518   4.303  1.1628 -1.5470 -2.3856
 5477TIP3    H216375   1.416   0.482   4.432  0.3791  1.6843 -0.9485
 5478TIP3   OH216376   1.917   3.133   3.187  0.6264 -0.3155 -0.0514
 5478TIP3    H116377   1.824   3.115   3.202  0.0378  1.4175 -1.2461
 5478TIP3    H216378   1.952   3.051   3.150 -0.1276 -1.3536  1.4392
 5479TIP3   OH216379   4.386   7.036   5.798 -0.0992 -0.1483  0.4910
 5479TIP3    H116380   4.479   7.027   5.817 -0.2719 -1.0809  0.9425
 5479TIP3    H216381   4.353   7.094   5.868  0.4186  1.5077 -0.5852
 5480TIP3   OH216382   1.733   5.873   0.896  0.1922  0.5544 -0.3106
 5480TIP3    H116383   1.648   5.917   0.900 -0.6750 -0.8609 -1.7878
 5480TIP3    H216384   1.713   5.786   0.860  2.2943  0.2700 -0.9202
 5481TIP3   OH216385   4.918   4.221   1.989 -0.2749 -0.3935 -0.6714
 5481TIP3    H116386   4.822   4.229   1.996 -0.4483 -1.0417 -1.9893
 5481TIP3    H216387   4.943   4.290   1.927  0.0518 -0.5816 -0.7475
 5482TIP3   OH216388   3.652   4.261   1.029 -0.0668  0.2624 -0.0075
 5482TIP3    H116389   3.694   4.212   0.959 -2.4962 -1.6403 -0.2507
 5482TIP3    H216390   3.709   4.249   1.105  1.2245  0.1071 -0.9804
 5483TIP3   OH216391   5.665   4.088   3.430 -0.7086 -0.4706  0.2818
 5483TIP3    H116392   5.664   4.039   3.512 -2.0957  1.9609  1.8485
 5483TIP3    H216393   5.758   4.106   3.414 -0.3166 -2.1224  0.5441
 5484TIP3   OH216394   6.072   4.966   3.344 -0.9543 -0.0827 -0.2128
 5484TIP3    H116395   6.156   4.995   3.379 -2.0720  1.2153  1.5771
 5484TIP3    H216396   6.095   4.912   3.268  1.4455  0.9573 -0.3262
 5485TIP3   OH216397   5.703   1.714   0.808  0.0136  0.4905 -0.9887
 5485TIP3    H116398   5.623   1.720   0.860 -0.1389 -0.6584 -1.0458
 5485TIP3    H216399   5.772   1.751   0.863 -0.4914  1.1485 -0.7919
 5486TIP3   OH216400   4.843   3.402   4.840 -0.1727 -0.4773 -0.0843
 5486TIP3    H116401   4.847   3.492   4.808  1.8890 -0.5833 -0.2481
 5486TIP3    H216402   4.752   3.391   4.867 -0.3123  1.9252  0.7294
 5487TIP3   OH216403   0.334   2.847   4.703 -0.0404  0.7119  0.5128
 5487TIP3    H116404   0.286   2.870   4.624  0.3926  1.6976  0.5269
 5487TIP3    H216405   0.267   2.811   4.762 -0.5607  1.0066  0.1070
 5488TIP3   OH216406   5.212   5.347   5.881  0.5121 -0.1008  0.2140
 5488TIP3    H116407   5.175   5.266   5.917  1.5507 -0.5762  0.2639
 5488TIP3    H216408   5.289   5.363   5.936  0.9876  0.2621 -0.5543
 5489TIP3   OH216409   3.756   4.620   5.563 -0.1865 -0.1426 -0.3823
 5489TIP3    H116410   3.779   4.559   5.633 -1.6624 -0.5133 -0.1791
 5489TIP3    H216411   3.808   4.698   5.581  0.7380 -0.8546  0.1248
 5490TIP3   OH216412   4.819   2.162   4.654  0.2584  0.6034  0.0184
 5490TIP3    H116413   4.760   2.097   4.615 -1.2540  2.7960 -1.6266
 5490TIP3    H216414   4.799   2.243   4.608  1.7326  2.3792  2.2572
 5491TIP3   OH216415   6.848   0.593   4.587  0.2715 -0.1224 -0.4371
 5491TIP3    H116416   6.902   0.516   4.570 -0.8931 -0.9223 -0.6048
 5491TIP3    H216417   6.835   0.633   4.501 -0.4719 -0.6661 -0.5830
 5492TIP3   OH216418   7.715   6.589   4.397  0.0142  0.9781 -0.4680
 5492TIP3    H116419   7.631   6.553   4.425  0.8125 -0.1429  0.5962
 5492TIP3    H216420   7.692   6.671   4.353 -1.4235  3.2766  3.8972
 5493TIP3   OH216421   1.401   3.071   3.186 -0.2033  0.8577  0.2376
 5493TIP3    H116422   1.320   3.086   3.139  0.1230  0.8568 -0.3415
 5493TIP3    H216423   1.464   3.132   3.147  0.7794 -0.9754 -1.2122
 5494TIP3   OH216424   8.129   3.837   4.145 -0.2998 -0.3039 -0.1771
 5494TIP3    H116425   8.096   3.756   4.105 -1.5460 -0.4271  1.0176
 5494TIP3    H216426   8.219   3.816   4.172 -1.1996 -1.9968  1.8460
 5495TIP3   OH216427   4.612   2.810   2.515  0.5367  0.1693 -0.6025
 5495TIP3    H116428   4.517   2.808   2.525  0.6629 -0.1782  0.7391
 5495TIP3    H216429   4.643   2.852   2.595  1.5281  0.2052 -0.9922
 5496TIP3   OH216430   7.375   4.954   6.689  0.7323  0.3793  0.4675
 5496TIP3    H116431   7.465   4.987   6.685  0.6447  0.6331  0.5999
 5496TIP3    H216432   7.334   4.984   6.608  1.1364 -0.8352 -0.2218
 5497TIP3   OH216433   4.225   3.800   6.247  0.0554 -0.1426 -0.3163
 5497TIP3    H116434   4.261   3.866   6.306 -0.8331  0.0314  0.0321
 5497TIP3    H216435   4.144   3.772   6.288  0.1146 -1.0119 -0.7736
 5498TIP3   OH216436   2.591   6.882   0.264 -0.2356  0.6204  0.0214
 5498TIP3    H116437   2.678   6.915   0.241 -0.6211  2.8720  1.5225
 5498TIP3    H216438   2.530   6.940   0.218 -0.9687 -0.0720  0.0879
 5499TIP3   OH216439   1.603   4.308   2.603  0.1295  0.3714  0.2496
 5499TIP3    H116440   1.584   4.362   2.679 -1.9474 -0.5825  0.4759
 5499TIP3    H216441   1.551   4.229   2.616  0.6327 -0.3195 -1.6035
 5500TIP3   OH216442   7.223   6.553   4.913  0.2623 -0.0401 -0.0879
 5500TIP3    H116443   7.209   6.493   4.840  0.7339 -3.3972  2.3298
 5500TIP3    H216444   7.301   6.519   4.957  0.4515  2.3073  1.5700
 5501TIP3   OH216445   6.057   7.028   0.109 -0.1208 -0.6048  0.3146
 5501TIP3    H116446   6.123   6.997   0.048  1.0686 -0.3397  1.4238
 5501TIP3    H216447   6.050   7.122   0.090  1.1605 -0.2659  1.3662
 5502TIP3   OH216448   7.243   2.278   3.706 -0.4230 -0.1059 -0.3397
 5502TIP3    H116449   7.253   2.224   3.784  0.5832 -0.5846 -0.7764
 5502TIP3    H216450   7.320   2.258   3.653 -1.8019 -0.9635 -2.1468
 5503TIP3   OH216451   2.812   1.594   4.872 -0.0502 -0.1515 -0.2526
 5503TIP3    H116452   2.851   1.670   4.914 -0.6202  0.5804 -1.0191
 5503TIP3    H216453   2.884   1.555   4.821 -0.3241  1.3643 -1.9021
 5504TIP3   OH216454   7.899   7.720   3.597  0.1040 -0.6822 -0.0850
 5504TIP3    H116455   7.947   7.649   3.639  0.5139 -0.0458  0.5393
 5504TIP3    H216456   7.850   7.678   3.526 -0.8520 -1.8355  1.2189
 5505TIP3   OH216457   2.715   2.709   4.117 -0.3496  0.2464  0.2438
 5505TIP3    H116458   2.628   2.687   4.084 -0.2510 -1.3702  0.9913
 5505TIP3    H216459   2.699   2.754   4.200 -0.4757 -0.2537  0.4928
 5506TIP3   OH216460   3.492   2.935   3.431  0.2217 -0.2404 -0.6196
 5506TIP3    H116461   3.518   3.006   3.373  0.1029 -0.6050 -1.1241
 5506TIP3    H216462   3.409   2.904   3.394  0.2981 -0.6712 -0.4254
 5507TIP3   OH216463   3.516   4.742   1.890 -0.3539 -0.0263 -0.1152
 5507TIP3    H116464   3.496   4.657   1.927  0.4500  0.1653  0.7971
 5507TIP3    H216465   3.431   4.778   1.863 -0.6567 -1.2448 -0.8501
 5508TIP3   OH216466   1.283   6.898   1.891  0.5911 -0.1515  0.2205
 5508TIP3    H116467   1.328   6.903   1.975  2.2996 -0.9205 -0.6008
 5508TIP3    H216468   1.200   6.944   1.905  1.3326  0.7306  1.9806
 5509TIP3   OH216469   6.346   2.044   4.286  0.3840  0.3015 -0.2301
 5509TIP3    H116470   6.300   2.007   4.211  0.6806 -0.1260 -0.2056
 5509TIP3    H216471   6.437   2.015   4.276  0.5440  0.7062 -0.0045
 5510TIP3   OH216472   3.474   3.818   6.255 -0.4476  0.0976 -0.6102
 5510TIP3    H116473   3.564   3.796   6.278 -0.4810  0.8665  0.2740
 5510TIP3    H216474   3.467   3.795   6.162  0.3668 -0.8807 -0.4453
 5511TIP3   OH216475   8.122   3.148   4.323 -0.1987  0.0284  0.0635
 5511TIP3    H116476   8.162   3.179   4.242  0.0605 -1.7927 -0.5482
 5511TIP3    H216477   8.045   3.204   4.334  0.0955  0.7100 -1.1076
 5512TIP3   OH216478   2.834   3.146   5.922  0.2051  0.1184 -0.0605
 5512TIP3    H116479   2.864   3.134   6.012  0.1444 -0.2697 -0.0876
 5512TIP3    H216480   2.903   3.106   5.868 -0.1400 -0.3731 -0.1453
 5513TIP3   OH216481   2.029   2.252   6.052  0.4779 -0.2087 -0.1306
 5513TIP3    H116482   1.970   2.197   6.000 -0.4741 -0.8424  1.5240
 5513TIP3    H216483   2.008   2.341   6.025 -0.2468 -0.5071 -0.5908
 5514TIP3   OH216484   0.645   7.390   5.979 -0.0050  0.8137 -0.4765
 5514TIP3    H116485   0.626   7.447   5.905 -0.6384  1.0658 -0.1319
 5514TIP3    H216486   0.711   7.437   6.030  0.4433  0.6326 -0.8774
 5515TIP3   OH216487   3.837   1.663   5.787  0.3313  0.0849  0.6206
 5515TIP3    H116488   3.749   1.624   5.778 -0.0707  1.0699  0.1894
 5515TIP3    H216489   3.883   1.635   5.708  0.4165 -0.4261  0.8424
 5516TIP3   OH216490   7.609   4.026   0.412  0.0543 -0.0290 -0.2275
 5516TIP3    H116491   7.689   4.075   0.395  0.1411 -0.6021 -1.5796
 5516TIP3    H216492   7.635   3.958   0.475  0.2866  0.6696  0.4429
 5517TIP3   OH216493   1.089   5.261   3.015 -0.2925  0.0279  0.1977
 5517TIP3    H116494   1.066   5.182   3.064  0.8361  0.4206  1.4191
 5517TIP3    H216495   1.030   5.328   3.047  1.0752  0.5273  1.8178
 5518TIP3   OH216496   1.682   3.108   5.569 -0.0031  0.3753  0.0731
 5518TIP3    H116497   1.686   3.035   5.631 -0.3336  0.8378  0.6573
 5518TIP3    H216498   1.679   3.067   5.483  1.7599 -0.2789  0.2721
 5519TIP3   OH216499   7.562   1.727   4.009 -0.2210  0.0439 -0.4927
 5519TIP3    H116500   7.534   1.763   4.093  0.7890 -2.4579  1.0323
 5519TIP3    H216501   7.654   1.753   4.001  0.3272 -1.5407  0.3092
 5520TIP3   OH216502   7.844   6.603   5.600  0.1413 -0.0529 -0.3797
 5520TIP3    H116503   7.904   6.574   5.531  1.2507  3.3036 -1.0015
 5520TIP3    H216504   7.864   6.548   5.675  0.4419 -2.3301 -2.0301
 5521TIP3   OH216505   7.285   6.483   3.625  0.0123 -0.5395  0.2825
 5521TIP3    H116506   7.247   6.463   3.711  3.0993 -1.1823  1.6483
 5521TIP3    H216507   7.235   6.429   3.564 -1.0985 -1.4920  1.9381
 5522TIP3   OH216508   3.939   2.657   6.147  0.4650 -0.5747 -0.3572
 5522TIP3    H116509   3.890   2.587   6.191  0.2402 -0.1607  0.0546
 5522TIP3    H216510   3.885   2.680   6.072 -0.2919  0.3112  0.4411
 5523TIP3   OH216511   3.924   4.353   2.445  0.1038 -0.1198 -0.4099
 5523TIP3    H116512   3.997   4.413   2.430  0.6933 -1.0564 -1.4467
 5523TIP3    H216513   3.852   4.388   2.392  0.8776 -1.0501 -2.1617
 5524TIP3   OH216514   4.635   4.483   2.430 -0.0512  0.1717  0.1020
 5524TIP3    H116515   4.590   4.442   2.356 -1.0785  0.9847  0.2577
 5524TIP3    H216516   4.565   4.513   2.487  0.6626  2.1402 -0.0031
 5525TIP3   OH216517   3.370   7.307   2.638  0.0875  0.5725 -0.0635
 5525TIP3    H116518   3.356   7.257   2.718 -0.1441  1.5133  0.5025
 5525TIP3    H216519   3.353   7.245   2.567  1.8654 -0.7263  0.5715
 5526TIP3   OH216520   2.825   1.621   3.638 -0.0251  0.3940 -0.5679
 5526TIP3    H116521   2.822   1.553   3.570 -0.8219 -0.2549  0.0942
 5526TIP3    H216522   2.888   1.588   3.702  1.2720  1.3405 -1.3062
 5527TIP3   OH216523   5.099  -0.006   1.272 -0.3711 -0.1329 -1.0422
 5527TIP3    H116524   5.063   0.040   1.348 -1.6350  0.1454 -1.7897
 5527TIP3    H216525   5.175   0.047   1.246 -1.0177  0.7947 -1.0705
 5528TIP3   OH216526   4.188   4.896   5.099  0.1546  0.0328 -0.1513
 5528TIP3    H116527   4.179   4.989   5.078  0.8192 -0.0600 -0.8852
 5528TIP3    H216528   4.238   4.895   5.180  2.6132  0.2828 -1.5690
 5529TIP3   OH216529   2.830   0.022   2.565  0.6522 -0.5230  0.7616
 5529TIP3    H116530   2.851   0.102   2.518 -0.6927 -2.0032 -2.6940
 5529TIP3    H216531   2.914  -0.013   2.593  1.4345  0.9008  0.2911
 5530TIP3   OH216532   2.110   3.504   1.434 -0.0163  0.4442  0.7345
 5530TIP3    H116533   2.018   3.530   1.429  0.1425  0.8951 -3.7421
 5530TIP3    H216534   2.110   3.427   1.491 -2.8677  1.2774  2.0519
 5531TIP3   OH216535   5.530   0.772   1.240  0.0677 -0.6836  0.3883
 5531TIP3    H116536   5.538   0.712   1.313  0.3409 -0.7331  0.3192
 5531TIP3    H216537   5.563   0.856   1.274  1.1275 -0.9369  0.0426
 5532TIP3   OH216538   1.499   2.425   5.577  0.2828  0.5939  0.7757
 5532TIP3    H116539   1.420   2.432   5.630  0.1280 -0.4430  0.6994
 5532TIP3    H216540   1.475   2.365   5.506  0.6636  1.4887 -0.1366
 5533TIP3   OH216541   4.296   3.268   2.152  0.2537 -0.1956  1.2154
 5533TIP3    H116542   4.201   3.257   2.154  0.2080  0.1827  3.1726
 5533TIP3    H216543   4.318   3.303   2.239  2.0386  0.9092  0.3815
 5534TIP3   OH216544   0.528   3.593   1.577  0.2873 -0.1739 -0.7174
 5534TIP3    H116545   0.559   3.585   1.668  1.1039 -1.4374 -1.0684
 5534TIP3    H216546   0.484   3.510   1.560 -0.8096  0.4816 -1.1543
 5535TIP3   OH216547   7.599   7.328   3.058 -0.2191 -0.1368 -0.3552
 5535TIP3    H116548   7.581   7.393   3.126 -0.0277  0.4478 -0.8613
 5535TIP3    H216549   7.691   7.305   3.071 -0.4634 -0.8277  0.2569
 5536TIP3   OH216550   2.073   4.086   6.521  0.3661 -0.9495 -0.1703
 5536TIP3    H116551   2.024   4.096   6.603  1.0342 -2.0945  0.3917
 5536TIP3    H216552   2.069   4.172   6.480 -2.2486 -1.0220 -0.2342
 5537TIP3   OH216553   7.637   6.229   2.457  0.3354  0.6790  0.3919
 5537TIP3    H116554   7.701   6.247   2.387 -0.2060  2.3048  0.2730
 5537TIP3    H216555   7.672   6.276   2.533 -0.0116  0.4154  0.7142
 5538TIP3   OH216556   0.548   7.732   0.055 -0.0137 -0.2986 -0.3632
 5538TIP3    H116557   0.638   7.701   0.045  0.7630  0.2307  3.3055
 5538TIP3    H216558   0.502   7.657   0.095 -0.7875 -0.0287 -0.7358
 5539TIP3   OH216559   1.342   6.116   5.644 -0.5006 -0.5255 -0.1423
 5539TIP3    H116560   1.292   6.174   5.702  1.4652  0.7115  0.4301
 5539TIP3    H216561   1.316   6.142   5.556 -0.4790  0.5002  0.1355
 5540TIP3   OH216562   5.910   1.443   2.123 -0.2011 -0.1170  0.2123
 5540TIP3    H116563   5.875   1.510   2.063  0.6576  1.1929  1.1153
 5540TIP3    H216564   5.833   1.409   2.168 -0.5658  1.1078  0.5591
 5541TIP3   OH216565   1.387   2.359   1.102 -0.1787  0.0301  0.0100
 5541TIP3    H116566   1.373   2.282   1.157 -0.7806  0.8857  1.0964
 5541TIP3    H216567   1.299   2.384   1.072 -0.2281  1.3443  1.1625
 5542TIP3   OH216568   3.895   7.793   0.360  0.8875  0.3184  0.2074
 5542TIP3    H116569   3.811   7.753   0.337  1.2602 -1.0780  1.0854
 5542TIP3    H216570   3.928   7.738   0.431  2.1442  1.3632  0.4653
 5543TIP3   OH216571   1.810   4.323   6.561  0.1043  0.1333 -0.0231
 5543TIP3    H116572   1.766   4.401   6.529  0.1884  0.0713 -0.2962
 5543TIP3    H216573   1.834   4.344   6.651 -2.3411 -0.5839  0.8833
 5544TIP3   OH216574   0.319   3.191   0.021  0.1450 -0.2521 -0.3931
 5544TIP3    H116575   0.271   3.136   0.082  1.0243 -1.9036 -1.1131
 5544TIP3    H216576   0.253   3.249  -0.017 -1.8254 -3.7383 -2.8509
 5545TIP3   OH216577   6.252   4.610   5.812  0.1205 -0.3412  0.0805
 5545TIP3    H116578   6.166   4.620   5.772 -0.2266 -1.3820  0.5307
 5545TIP3    H216579   6.262   4.688   5.867  0.1742  0.5918 -1.2032
 5546TIP3   OH216580   2.662   0.990   0.769 -0.1938 -0.2828  0.2427
 5546TIP3    H116581   2.631   1.039   0.846  0.5064 -0.9779  0.9913
 5546TIP3    H216582   2.757   0.981   0.783 -0.0876 -0.5664 -0.6166
 5547TIP3   OH216583   2.279   3.983   6.322 -0.1752 -0.1240 -0.3890
 5547TIP3    H116584   2.364   4.013   6.354 -0.8139  1.1150  0.2438
 5547TIP3    H216585   2.227   4.063   6.314 -1.8658 -0.9991  1.0249
 5548TIP3   OH216586   6.278   0.599   2.767  0.6609  0.6624  0.4580
 5548TIP3    H116587   6.240   0.634   2.847 -0.7361  0.5689 -0.1378
 5548TIP3    H216588   6.203   0.567   2.716  1.6541 -0.8884 -0.1214
 5549TIP3   OH216589   7.805   7.439   2.008 -0.2541  0.1709  0.0736
 5549TIP3    H116590   7.739   7.507   2.025 -0.1527 -0.2072  2.3428
 5549TIP3    H216591   7.884   7.488   1.986 -0.1513  0.8613  1.7825
 5550TIP3   OH216592   4.010   6.798   0.950  0.1938 -0.0681 -0.3609
 5550TIP3    H116593   4.062   6.795   0.871  2.1192 -0.7934  0.8694
 5550TIP3    H216594   3.933   6.744   0.931  0.9670 -0.7905 -1.4959
 5551TIP3   OH216595   6.285   1.282   2.244  0.9537 -0.0003  0.4356
 5551TIP3    H116596   6.323   1.225   2.311  1.7786  1.0124  0.8483
 5551TIP3    H216597   6.358   1.305   2.187  0.1021 -1.6575 -1.4888
 5552TIP3   OH216598   2.198   3.464   3.479 -0.4278  0.0514 -0.2290
 5552TIP3    H116599   2.240   3.392   3.432 -1.7321  0.0369 -1.4516
 5552TIP3    H216600   2.105   3.441   3.480 -0.8842  1.7233 -0.6984
 5553TIP3   OH216601   1.256   4.823   4.030  0.3247 -0.1202  0.1895
 5553TIP3    H116602   1.239   4.729   4.029  0.8778 -0.2366  0.9203
 5553TIP3    H216603   1.285   4.843   3.940  0.3389 -0.6724  0.0674
 5554TIP3   OH216604   6.390   7.551   0.684 -0.2709 -0.1803  0.0739
 5554TIP3    H116605   6.388   7.631   0.632 -0.4568  0.2881  0.8025
 5554TIP3    H216606   6.387   7.580   0.775 -0.1532 -1.0050  0.3518
 5555TIP3   OH216607   3.834   5.141   2.437  0.4174 -0.3403  0.4299
 5555TIP3    H116608   3.796   5.228   2.433 -0.3541 -0.7059 -0.5038
 5555TIP3    H216609   3.869   5.125   2.349  0.8221 -0.8589  0.6758
 5556TIP3   OH216610   7.453   3.508   0.777 -0.0266 -0.5598  0.2657
 5556TIP3    H116611   7.403   3.586   0.752  0.9725  0.3626  1.0374
 5556TIP3    H216612   7.460   3.515   0.872  2.7088  0.1056  0.0999
 5557TIP3   OH216613   7.455   2.766   3.266  0.2831  0.3728 -0.0482
 5557TIP3    H116614   7.501   2.837   3.309  0.1794 -0.1072  0.8984
 5557TIP3    H216615   7.388   2.809   3.213 -0.1699  0.9740  0.9715
 5558TIP3   OH216616   2.861   5.845   2.910  0.0774  0.0008  0.3392
 5558TIP3    H116617   2.911   5.778   2.958  2.0497  1.5047  0.4995
 5558TIP3    H216618   2.881   5.828   2.818 -0.7130 -0.5597  0.2501
 5559TIP3   OH216619   7.975   5.491   4.643 -0.2687  0.7130  0.3831
 5559TIP3    H116620   7.904   5.455   4.590 -0.8719  0.2796  1.4382
 5559TIP3    H216621   7.972   5.585   4.628 -0.0078  0.5414 -0.8233
 5560TIP3   OH216622   0.480   2.704   3.936  0.3837 -0.3514  0.0498
 5560TIP3    H116623   0.407   2.657   3.895  0.3325  0.3506 -0.6782
 5560TIP3    H216624   0.556   2.683   3.882  0.1427  1.3136 -0.9901
 5561TIP3   OH216625   5.677   0.919   3.637  0.1121 -0.1947  0.2093
 5561TIP3    H116626   5.614   0.892   3.704  0.7765 -0.3735  0.7818
 5561TIP3    H216627   5.755   0.866   3.656  0.2120 -0.4732 -0.9017
 5562TIP3   OH216628   4.424   4.269   5.833  0.4061 -0.0762 -0.0431
 5562TIP3    H116629   4.474   4.230   5.905  2.2764  1.2624 -0.5456
 5562TIP3    H216630   4.335   4.275   5.867  1.1044 -0.1110  1.9263
 5563TIP3   OH216631   5.442   6.105   1.677  0.2912  0.9353 -0.1103
 5563TIP3    H116632   5.489   6.165   1.619  2.2953 -0.1386  0.3083
 5563TIP3    H216633   5.497   6.101   1.755  0.1014 -1.2694 -0.0514
 5564TIP3   OH216634   4.878   6.538   4.207  0.1866  0.2760  0.7186
 5564TIP3    H116635   4.857   6.609   4.268  0.1378  2.6010 -1.8199
 5564TIP3    H216636   4.973   6.534   4.208  0.4006  2.5413 -1.2393
 5565TIP3   OH216637   0.749   0.375   1.017  0.4178 -0.1732  0.2332
 5565TIP3    H116638   0.765   0.302   0.957 -1.3396  0.6949 -1.4111
 5565TIP3    H216639   0.817   0.439   0.996  0.2147 -0.1557 -0.3815
 5566TIP3   OH216640   3.025   4.327   5.589  0.0944 -0.4012  0.2027
 5566TIP3    H116641   2.940   4.289   5.566 -0.2321  0.2880  0.2481
 5566TIP3    H216642   3.064   4.265   5.650 -0.1543 -0.9719 -0.2112
 5567TIP3   OH216643   1.455   7.015   1.493  0.3556 -0.3138  0.2102
 5567TIP3    H116644   1.494   7.036   1.578  0.1988  0.1088  0.1814
 5567TIP3    H216645   1.369   6.980   1.515 -0.5480  1.7205  0.1773
 5568TIP3   OH216646   8.034   7.718   3.178  0.1707  0.1973  0.3974
 5568TIP3    H116647   7.969   7.705   3.247 -0.0179  1.0932  0.3945
 5568TIP3    H216648   7.990   7.691   3.097  0.0224  0.1831  0.4823
 5569TIP3   OH216649   2.451   2.408   3.400  0.4967  0.0261  0.1388
 5569TIP3    H116650   2.498   2.379   3.478 -0.6676 -0.4554  0.6886
 5569TIP3    H216651   2.472   2.343   3.333 -0.3832 -0.9225  0.7542
 5570TIP3   OH216652   6.900   7.620   3.599  0.1789  0.1983 -0.6320
 5570TIP3    H116653   6.847   7.589   3.526 -0.5577  0.3017 -0.1461
 5570TIP3    H216654   6.962   7.681   3.559 -0.0362  0.0469 -1.2061
 5571TIP3   OH216655  -0.004   1.805   5.614 -0.0952 -0.4213  0.2681
 5571TIP3    H116656   0.085   1.827   5.587 -0.4625  0.2122 -0.4580
 5571TIP3    H216657  -0.045   1.890   5.631 -0.7997 -0.6657 -0.1825
 5572TIP3   OH216658   2.276   4.114   4.427 -0.3899 -0.0425  0.3709
 5572TIP3    H116659   2.205   4.061   4.464 -0.2303 -0.6358 -0.1645
 5572TIP3    H216660   2.232   4.173   4.366 -0.1693 -2.6569 -2.5727
 5573TIP3   OH216661   8.096   5.277   4.460  0.1627  0.7732 -0.3976
 5573TIP3    H116662   8.026   5.248   4.401  0.1630  2.3157 -1.1797
 5573TIP3    H216663   8.053   5.340   4.518  0.4371  0.1301  0.5457
 5574TIP3   OH216664   5.239   0.309   1.066 -0.5196 -0.6821 -0.0062
 5574TIP3    H116665   5.274   0.242   1.125  0.3368 -0.5772 -0.3838
 5574TIP3    H216666   5.215   0.381   1.124 -0.1042 -0.7566  0.2628
 5575TIP3   OH216667   2.072   1.387   1.114 -0.1841  0.2298  0.0676
 5575TIP3    H116668   2.019   1.335   1.053  0.7763 -0.7855  0.0488
 5575TIP3    H216669   2.009   1.425   1.174 -0.9562 -0.7990 -0.0603
 5576TIP3   OH216670   6.847   1.910   5.556 -0.0834 -0.0110 -0.2406
 5576TIP3    H116671   6.903   1.969   5.607 -0.6267  2.0086 -1.8489
 5576TIP3    H216672   6.815   1.847   5.620  2.1463  0.1758  1.1840
 5577TIP3   OH216673   2.651   4.595   0.585 -0.6568  0.3655 -0.1556
 5577TIP3    H116674   2.654   4.500   0.600  0.5486 -0.2064 -3.2395
 5577TIP3    H216675   2.568   4.609   0.541 -1.6193  1.1051  1.7694
 5578TIP3   OH216676   6.380   5.953   2.806 -0.0971 -0.2420 -0.1320
 5578TIP3    H116677   6.420   5.936   2.891 -0.8980  0.8676  0.5039
 5578TIP3    H216678   6.450   5.992   2.753 -0.1155  1.0285  0.7345
 5579TIP3   OH216679   1.955   4.997   1.003 -0.1110 -0.2671 -0.4064
 5579TIP3    H116680   1.985   5.085   1.027  1.9388 -0.8359 -0.7142
 5579TIP3    H216681   2.028   4.959   0.953 -0.8521 -2.2229 -0.0940
 5580TIP3   OH216682   3.775   3.395   6.219  0.5229  0.2522  0.3992
 5580TIP3    H116683   3.784   3.481   6.259 -0.4625  0.0683  1.0540
 5580TIP3    H216684   3.736   3.413   6.133 -0.2376  0.4310  0.7691
 5581TIP3   OH216685   6.837   3.227   5.613 -0.2257  0.5428  0.1015
 5581TIP3    H116686   6.841   3.210   5.519 -1.3950  0.7012  0.0073
 5581TIP3    H216687   6.880   3.312   5.624  0.8961  0.0256 -0.1282
 5582TIP3   OH216688   0.019   7.299   4.215  0.0020  0.2654 -0.6486
 5582TIP3    H116689   0.061   7.380   4.184  1.3135  0.3638  1.1771
 5582TIP3    H216690   0.023   7.240   4.141 -0.1496  1.5777 -1.7433
 5583TIP3   OH216691   5.542   4.361   2.141  0.1996 -0.4408  0.1763
 5583TIP3    H116692   5.493   4.442   2.156 -0.1513 -0.7273  0.6208
 5583TIP3    H216693   5.609   4.384   2.078 -0.5288 -0.0443 -0.4652
 5584TIP3   OH216694   7.025   5.419   0.133 -0.3094  0.0339  0.7397
 5584TIP3    H116695   7.034   5.512   0.155 -1.3515  0.3537 -0.0885
 5584TIP3    H216696   7.096   5.376   0.181 -0.7692  1.0451  2.4434
 5585TIP3   OH216697   8.256   6.897   2.294 -0.5481 -0.4564 -0.1144
 5585TIP3    H116698   8.343   6.861   2.306 -0.1319  1.0435  2.0487
 5585TIP3    H216699   8.203   6.857   2.363 -0.9062  0.5063  0.1892
 5586TIP3   OH216700   4.545   6.444   5.141 -0.0252 -0.4147 -0.5145
 5586TIP3    H116701   4.471   6.443   5.201  0.3389 -1.4308 -0.0543
 5586TIP3    H216702   4.608   6.504   5.181  0.1625 -0.9894  0.0837
 5587TIP3   OH216703   2.967   4.975   3.372  0.1345 -0.2395  0.6727
 5587TIP3    H116704   2.998   5.026   3.446 -1.7267  1.1328  0.5706
 5587TIP3    H216705   2.914   5.036   3.321  0.9702 -1.2690 -1.5677
 5588TIP3   OH216706   5.642   2.942   0.035 -0.4117 -0.0583  0.2744
 5588TIP3    H116707   5.607   3.031   0.038  0.8417  0.4895 -0.5081
 5588TIP3    H216708   5.605   2.904  -0.044 -0.2565  0.0825  0.1323
 5589TIP3   OH216709   5.059   1.119   6.201  0.9252 -0.2152  0.4780
 5589TIP3    H116710   5.099   1.142   6.285  0.1077 -0.4604  0.9521
 5589TIP3    H216711   4.966   1.111   6.221  0.3026  2.3471 -1.0075
 5590TIP3   OH216712   2.347   6.520   3.928 -0.7593 -0.4005  0.2107
 5590TIP3    H116713   2.351   6.429   3.958  2.3576 -0.0906  1.1018
 5590TIP3    H216714   2.295   6.564   3.995  1.2388 -0.8386  2.2142
 5591TIP3   OH216715   7.953   1.983   1.130 -0.6916 -0.0925 -0.4176
 5591TIP3    H116716   7.933   1.903   1.080 -0.2904 -1.4110  1.4311
 5591TIP3    H216717   8.044   1.971   1.157 -0.5896  1.0699 -0.2151
 5592TIP3   OH216718   8.230   3.888   2.047 -0.5735  0.3886  0.1373
 5592TIP3    H116719   8.236   3.887   2.143 -0.5522  0.4461  0.1366
 5592TIP3    H216720   8.225   3.796   2.022  1.0136  0.2782  0.0933
 5593TIP3   OH216721   8.178   1.348   5.928  0.7451  0.2126  0.2874
 5593TIP3    H116722   8.148   1.332   5.838  1.0738  0.1150  0.1950
 5593TIP3    H216723   8.125   1.423   5.957  0.1967 -0.1498  0.2355
 5594TIP3   OH216724   3.713   6.435   2.599 -0.2816  0.4739  0.2990
 5594TIP3    H116725   3.658   6.360   2.576  1.5983 -0.7201 -0.5949
 5594TIP3    H216726   3.688   6.456   2.689 -2.2020  0.0400 -0.0814
 5595TIP3   OH216727   4.713   0.069   3.112  0.8010 -0.2362 -0.1298
 5595TIP3    H116728   4.759  -0.007   3.077 -0.1215 -1.1395  0.5518
 5595TIP3    H216729   4.696   0.046   3.204  0.4797  0.7812  0.0756
 5596TIP3   OH216730   2.498   0.577   0.306  0.3930  0.2603 -0.8286
 5596TIP3    H116731   2.481   0.542   0.219 -0.3268  0.7347 -0.8852
 5596TIP3    H216732   2.431   0.644   0.319 -0.3449 -0.7020  0.6058
 5597TIP3   OH216733   8.287   0.577   0.555  0.2626 -0.2181  0.3721
 5597TIP3    H116734   8.268   0.599   0.646  0.7444  0.1240  0.3882
 5597TIP3    H216735   8.307   0.660   0.513 -2.4947  0.0426 -0.6832
 5598TIP3   OH216736   3.816   7.221   4.273 -0.6110 -0.3863 -0.4693
 5598TIP3    H116737   3.890   7.208   4.214 -0.0713  0.0891  0.0874
 5598TIP3    H216738   3.795   7.134   4.306  1.2594 -0.2626  1.2136
 5599TIP3   OH216739   1.484   3.760   1.589  0.4496 -0.2616 -0.3545
 5599TIP3    H116740   1.478   3.855   1.588 -0.4323 -0.3066 -1.4807
 5599TIP3    H216741   1.561   3.741   1.643  0.4169  1.0649  0.1852
 5600TIP3   OH216742   5.324   5.931   0.980  0.5829 -0.3700  0.1403
 5600TIP3    H116743   5.402   5.898   0.937  0.4983 -0.2467 -0.1101
 5600TIP3    H216744   5.355   6.002   1.036  0.8286 -1.1559  1.0179
 5601TIP3   OH216745   2.918   3.139   4.014  0.0250  0.1663 -0.1848
 5601TIP3    H116746   2.937   3.140   4.108  1.2547 -1.4286 -0.3787
 5601TIP3    H216747   2.944   3.227   3.985 -1.9339  1.2773  1.1923
 5602TIP3   OH216748   5.410   3.893   5.116  0.3281 -0.0335 -0.2125
 5602TIP3    H116749   5.463   3.819   5.087 -3.0048 -2.1740 -1.3989
 5602TIP3    H216750   5.408   3.885   5.211  0.1170 -1.4660 -0.3150
 5603TIP3   OH216751   2.516   7.320   0.998 -0.0296 -0.1483 -0.0255
 5603TIP3    H116752   2.551   7.405   1.025 -0.6072  0.1080 -0.0811
 5603TIP3    H216753   2.592   7.261   1.000  0.7509  0.7318 -1.6373
 5604TIP3   OH216754   4.535   5.713   1.145  0.4299  0.5781  0.0440
 5604TIP3    H116755   4.559   5.622   1.133 -0.6203 -0.1273  2.6165
 5604TIP3    H216756   4.591   5.743   1.217 -0.2020  1.5293  0.1606
 5605TIP3   OH216757   3.971   5.383   0.706  0.1634  0.3684  0.5789
 5605TIP3    H116758   3.914   5.396   0.630  1.6903 -0.0931 -0.7041
 5605TIP3    H216759   3.974   5.288   0.717 -0.4169  0.4527  1.5350
 5606TIP3   OH216760   7.242   2.121   3.203 -0.6131  0.0513  0.3600
 5606TIP3    H116761   7.318   2.178   3.190 -0.2356 -0.7852 -1.4969
 5606TIP3    H216762   7.267   2.063   3.274  0.0121  0.5462  0.5551
 5607TIP3   OH216763   6.310   5.122   1.965  0.3569 -0.2828  0.0337
 5607TIP3    H116764   6.378   5.167   1.915 -0.1086 -2.3411 -2.6622
 5607TIP3    H216765   6.266   5.066   1.901  0.2626 -3.8452  2.8744
 5608TIP3   OH216766   7.660   0.260   1.988  0.3533  0.3761 -0.4336
 5608TIP3    H116767   7.713   0.212   2.051  0.2575 -0.8905 -1.2746
 5608TIP3    H216768   7.723   0.289   1.921 -0.0455 -2.0352 -1.9921
 5609TIP3   OH216769   3.539   5.989   1.748  0.3574  0.2205  0.8045
 5609TIP3    H116770   3.629   5.987   1.714 -0.2163 -0.9772 -0.7351
 5609TIP3    H216771   3.484   5.993   1.671 -0.9529  0.3151  1.7125
 5610TIP3   OH216772   7.816   1.117   1.206  0.0026  0.1684 -0.0530
 5610TIP3    H116773   7.736   1.167   1.218  0.1875  0.2242  0.9699
 5610TIP3    H216774   7.820   1.103   1.111 -1.3779 -0.1112 -0.1006
 5611TIP3   OH216775   3.945   3.634   6.166  0.3252 -0.1037 -0.8542
 5611TIP3    H116776   3.934   3.619   6.260  0.5983  0.3633 -0.7439
 5611TIP3    H216777   3.861   3.672   6.138 -0.7740 -2.6592 -1.3419
 5612TIP3   OH216778   5.240   0.022   2.279 -0.0035 -0.1854  0.4607
 5612TIP3    H116779   5.256   0.028   2.374  0.9740 -0.8444  0.3439
 5612TIP3    H216780   5.176   0.092   2.262 -1.1306 -0.8273  1.7983
 5613TIP3   OH216781   4.662   2.667   6.118 -0.1764  0.3537  0.0199
 5613TIP3    H116782   4.567   2.658   6.125 -0.3390  2.0085  0.2337
 5613TIP3    H216783   4.695   2.579   6.137 -1.7431 -0.9762 -2.6150
 5614TIP3   OH216784   4.732   7.538   4.100  0.2072 -0.1279  0.8406
 5614TIP3    H116785   4.748   7.612   4.042 -1.7055  1.4356  2.1761
 5614TIP3    H216786   4.669   7.483   4.053 -0.2621  0.4106  0.8295
 5615TIP3   OH216787   4.331   3.511   4.265 -0.0742  0.1107 -0.0667
 5615TIP3    H116788   4.383   3.432   4.283  0.0710  0.3096  0.3774
 5615TIP3    H216789   4.275   3.485   4.191  0.4550 -0.1935 -0.3736
 5616TIP3   OH216790   5.123   0.547   3.478  0.3814 -0.2278 -0.0817
 5616TIP3    H116791   5.176   0.590   3.545  0.6068 -0.8343  0.1282
 5616TIP3    H216792   5.162   0.461   3.467 -0.3277 -0.5438 -0.1988
 5617TIP3   OH216793   6.259   1.204   3.124 -0.4299 -0.2305 -0.5486
 5617TIP3    H116794   6.218   1.215   3.210  0.6639  1.1443 -0.1532
 5617TIP3    H216795   6.231   1.281   3.074  0.3847 -0.0779 -0.7907
 5618TIP3   OH216796   0.039   2.794   2.631  0.4228 -0.1729 -0.5445
 5618TIP3    H116797   0.041   2.809   2.725 -2.0521  1.0130 -0.6100
 5618TIP3    H216798  -0.033   2.732   2.618  0.7832 -0.3777 -1.6501
 5619TIP3   OH216799   0.738   6.324   2.577 -0.5128  0.1665  0.1884
 5619TIP3    H116800   0.809   6.360   2.629 -0.6790 -0.7658  1.0709
 5619TIP3    H216801   0.748   6.367   2.491  1.1317  0.0050  0.2668
 5620TIP3   OH216802   7.130   2.098   2.358  0.4578  0.3040 -0.0251
 5620TIP3    H116803   7.083   2.029   2.312  1.9697 -0.2988 -0.7351
 5620TIP3    H216804   7.167   2.054   2.435  0.7366  0.5116 -0.0406
 5621TIP3   OH216805   1.473   3.591   5.860 -0.0228  0.2672  0.0904
 5621TIP3    H116806   1.473   3.593   5.956  2.4960 -1.0350  0.2089
 5621TIP3    H216807   1.451   3.501   5.838 -1.2393  0.7156 -0.6169
 5622TIP3   OH216808   5.203   2.560   1.954 -0.1952 -0.3621  0.1917
 5622TIP3    H116809   5.212   2.571   1.859  0.0616 -1.1955  0.1101
 5622TIP3    H216810   5.210   2.649   1.989 -0.8757  0.0248 -0.6066
 5623TIP3   OH216811   5.419   1.116   0.097  0.2401 -0.3457  0.4652
 5623TIP3    H116812   5.440   1.209   0.104  3.5692 -0.9016 -0.4725
 5623TIP3    H216813   5.419   1.084   0.187 -2.1749  0.7113  0.9076
 5624TIP3   OH216814   3.543   4.952   5.372 -0.3623  0.4281 -0.0908
 5624TIP3    H116815   3.452   4.959   5.401 -0.2920  1.6183 -0.0893
 5624TIP3    H216816   3.562   4.858   5.371 -1.9756  0.0832 -1.2841
 5625TIP3   OH216817   6.481   0.648   6.441  0.2651 -0.2398  1.0300
 5625TIP3    H116818   6.558   0.642   6.498 -0.1183 -0.7034  1.4985
 5625TIP3    H216819   6.433   0.724   6.474  1.6168  1.4470 -0.6325
 5626TIP3   OH216820   0.115   2.522   4.718 -0.2453  0.3600 -0.3023
 5626TIP3    H116821   0.049   2.494   4.781  2.6626 -1.7969  2.0625
 5626TIP3    H216822   0.133   2.613   4.740  0.3821 -0.2142  1.7875
 5627TIP3   OH216823   4.499   1.163   2.149 -0.0922 -1.0070 -0.1084
 5627TIP3    H116824   4.473   1.220   2.222 -1.3525 -0.6793 -0.7854
 5627TIP3    H216825   4.454   1.080   2.167 -1.7478 -0.4300 -1.2983
 5628TIP3   OH216826   6.868   2.334   3.399 -0.5694  0.3493 -0.0669
 5628TIP3    H116827   6.923   2.271   3.444  0.0994 -0.2118 -1.6085
 5628TIP3    H216828   6.885   2.417   3.444 -0.8844 -0.3963  1.4838
 5629TIP3   OH216829   1.811   0.108   4.078 -0.0027 -0.2787  0.3494
 5629TIP3    H116830   1.777   0.066   4.157 -0.5698 -0.3949  0.0500
 5629TIP3    H216831   1.872   0.044   4.041  0.0558 -0.3354  0.5418
 5630TIP3   OH216832   6.538   3.747   3.868  0.4362  1.0449  0.3631
 5630TIP3    H116833   6.623   3.779   3.897  0.4592  1.8641 -0.5374
 5630TIP3    H216834   6.503   3.818   3.814  0.7368 -0.6160 -2.2015
 5631TIP3   OH216835   2.883   6.860   4.704  0.7803 -0.3144 -0.3630
 5631TIP3    H116836   2.851   6.932   4.651  0.6077 -0.0842  0.0502
 5631TIP3    H216837   2.878   6.892   4.794  0.4561 -0.9373 -0.1565
 5632TIP3   OH216838   6.827   4.183   0.532 -0.1793  0.2245 -0.6979
 5632TIP3    H116839   6.733   4.197   0.522 -0.6831 -2.1026  0.2699
 5632TIP3    H216840   6.835   4.112   0.596  2.1428 -1.5125 -2.7018
 5633TIP3   OH216841   6.192   6.623   2.550  0.6074  0.3783 -0.4257
 5633TIP3    H116842   6.271   6.613   2.602  0.2711  0.2195  0.0650
 5633TIP3    H216843   6.185   6.541   2.500 -0.3850 -0.5343  1.1377
 5634TIP3   OH216844   5.512   1.402   0.230 -0.6898 -0.6863 -0.5674
 5634TIP3    H116845   5.439   1.432   0.283  0.9182  1.8178  0.3780
 5634TIP3    H216846   5.522   1.468   0.161  1.9393  0.2692  0.5925
 5635TIP3   OH216847   2.564   1.547  -0.009  0.4355  0.0260  0.1518
 5635TIP3    H116848   2.493   1.604  -0.040 -0.0172 -1.4833 -1.8088
 5635TIP3    H216849   2.552   1.545   0.086 -0.7944  1.5223  0.0846
 5636TIP3   OH216850   7.081   6.098   4.642  0.3106 -0.0733  0.1016
 5636TIP3    H116851   7.000   6.128   4.602 -0.1505 -1.7342 -0.2898
 5636TIP3    H216852   7.148   6.159   4.612 -0.6598  0.8593 -0.1940
 5637TIP3   OH216853   3.138   6.373   6.307  1.1221  0.7645 -0.2198
 5637TIP3    H116854   3.127   6.342   6.216  0.3762  3.4138 -1.1225
 5637TIP3    H216855   3.059   6.342   6.352  1.5181 -0.6158 -0.4188
 5638TIP3   OH216856   7.182   6.024   5.535  0.4298 -0.0570  0.1365
 5638TIP3    H116857   7.255   5.976   5.497  0.7266  0.5488 -0.0604
 5638TIP3    H216858   7.222   6.086   5.596  0.0972  0.4319 -0.1355
 5639TIP3   OH216859   5.727   4.558   3.843 -0.4483 -0.3447  0.0057
 5639TIP3    H116860   5.731   4.491   3.912  0.2530  0.2585  0.5582
 5639TIP3    H216861   5.749   4.640   3.888  1.2395 -0.1100 -1.1665
 5640TIP3   OH216862   6.955   5.575   2.860 -0.2194  0.7403 -0.5442
 5640TIP3    H116863   6.906   5.524   2.795  1.5708  0.0993 -1.4444
 5640TIP3    H216864   6.957   5.520   2.937 -1.4154  1.0430 -0.2663
 5641TIP3   OH216865   0.491   3.828   6.564 -0.2655  0.5242  1.0342
 5641TIP3    H116866   0.435   3.901   6.538 -2.4106 -1.6441 -0.9696
 5641TIP3    H216867   0.543   3.808   6.486 -2.0042 -1.9408  0.3773
 5642TIP3   OH216868   4.199   0.219   4.779  0.6103  0.6584 -0.6683
 5642TIP3    H116869   4.263   0.149   4.768 -1.0769 -0.8959 -0.9546
 5642TIP3    H216870   4.212   0.249   4.869  0.9868 -0.4041 -0.3505
 5643TIP3   OH216871   6.811   0.900   2.065 -0.4762  1.0108  0.3687
 5643TIP3    H116872   6.819   0.868   2.155 -0.7185 -0.2151 -0.0222
 5643TIP3    H216873   6.898   0.889   2.027 -0.8109 -0.2739 -0.0898
 5644TIP3   OH216874   2.276   4.613   4.262 -0.1610 -0.4523 -0.2361
 5644TIP3    H116875   2.351   4.554   4.256  0.4650  0.4453 -1.9622
 5644TIP3    H216876   2.313   4.700   4.251 -1.2942  0.1309  0.3993
 5645TIP3   OH216877   6.471   7.669   0.925 -0.1826 -0.2300 -0.0165
 5645TIP3    H116878   6.464   7.764   0.937 -0.2898 -0.0567 -1.2958
 5645TIP3    H216879   6.558   7.656   0.888 -0.1804 -0.6377  0.1206
 5646TIP3   OH216880   8.031   0.847   5.575 -0.0426 -0.0784 -0.4595
 5646TIP3    H116881   8.050   0.938   5.595  1.1449 -0.2717 -0.6172
 5646TIP3    H216882   7.954   0.825   5.627  0.3649  0.6746  0.4652
 5647TIP3   OH216883   6.627   7.416   5.811 -0.1448 -0.6347 -0.0570
 5647TIP3    H116884   6.670   7.359   5.746  0.2519 -1.3741  0.8317
 5647TIP3    H216885   6.561   7.360   5.852 -2.2987  0.5651 -1.6246
 5648TIP3   OH216886   6.552   2.868   1.898  0.0399 -0.8258 -0.4273
 5648TIP3    H116887   6.520   2.795   1.845  1.2489 -1.4591 -0.3319
 5648TIP3    H216888   6.621   2.830   1.953 -0.7991 -0.0722  1.2272
 5649TIP3   OH216889   5.699   4.606   4.951  0.2790 -0.2323 -0.4546
 5649TIP3    H116890   5.635   4.579   4.886 -1.2660  1.7989  0.1404
 5649TIP3    H216891   5.712   4.528   5.006 -0.1550 -1.2573 -1.7611
 5650TIP3   OH216892   0.103   1.112   3.760  0.0452  0.1243  0.4610
 5650TIP3    H116893   0.057   1.075   3.835 -1.1887  1.0178  0.1809
 5650TIP3    H216894   0.074   1.203   3.756 -0.1643  0.0179 -1.2760
 5651TIP3   OH216895   5.572   2.764   1.075 -0.3660 -0.1649  0.2116
 5651TIP3    H116896   5.514   2.701   1.119 -1.2136  0.4045 -0.0706
 5651TIP3    H216897   5.519   2.843   1.065  0.5820  0.4968  0.2661
 5652TIP3   OH216898   3.982   4.694   5.103 -0.1788 -0.4694  0.1080
 5652TIP3    H116899   4.064   4.743   5.104 -0.5694  0.1910  1.3278
 5652TIP3    H216900   4.005   4.608   5.138  0.2454 -0.7424 -0.8104
 5653TIP3   OH216901   2.563   3.130   5.062 -0.3964  0.1709 -0.4614
 5653TIP3    H116902   2.505   3.130   4.986  0.0584 -0.9385 -0.8240
 5653TIP3    H216903   2.651   3.134   5.024 -0.1658 -0.4111  0.0003
 5654TIP3   OH216904   2.816   4.664   2.500 -0.1313  0.0759 -0.1208
 5654TIP3    H116905   2.811   4.674   2.595 -1.3186 -0.8010 -0.0570
 5654TIP3    H216906   2.747   4.600   2.480 -1.3720  1.8403 -1.7985
 5655TIP3   OH216907   4.771   6.549   5.468  0.1529 -0.0592  0.3941
 5655TIP3    H116908   4.806   6.603   5.539 -0.3081 -1.1376  1.4735
 5655TIP3    H216909   4.746   6.467   5.511 -1.9339 -0.0347 -0.6688
 5656TIP3   OH216910   7.508   7.118   1.103 -0.3976 -0.2565 -0.0600
 5656TIP3    H116911   7.601   7.122   1.081  0.1370 -0.2013  2.0164
 5656TIP3    H216912   7.465   7.092   1.022  1.5020 -0.9685 -0.8820
 5657TIP3   OH216913   1.059   6.333   2.052 -0.6760 -0.4501 -0.1002
 5657TIP3    H116914   1.091   6.262   1.997  0.0809  0.4515 -0.8641
 5657TIP3    H216915   1.129   6.347   2.116 -1.0480 -0.7280  0.3729
 5658TIP3   OH216916   3.256   3.335   5.939 -0.7687  0.3069 -0.0915
 5658TIP3    H116917   3.285   3.372   6.023  1.1202 -0.2322 -0.4422
 5658TIP3    H216918   3.161   3.332   5.945 -0.7050  0.8377  1.7954
 5659TIP3   OH216919   3.773   4.435   0.502 -0.1213 -0.3719  0.2832
 5659TIP3    H116920   3.866   4.448   0.479 -0.2683 -0.8039 -0.6016
 5659TIP3    H216921   3.746   4.360   0.450 -0.9228 -0.3746  0.6937
 5660TIP3   OH216922   2.182   6.814   2.756  0.2381 -0.2301  0.1685
 5660TIP3    H116923   2.222   6.855   2.679  0.6895 -0.4540  0.2806
 5660TIP3    H216924   2.230   6.851   2.830 -1.5196  1.5350  0.5053
 5661TIP3   OH216925   0.534   3.587   5.574  0.5432  0.7066 -0.1270
 5661TIP3    H116926   0.478   3.595   5.651  0.1070 -4.5081  0.4290
 5661TIP3    H216927   0.491   3.641   5.508 -4.3052 -1.4973  0.8000
 5662TIP3   OH216928   2.078   0.318   6.597 -0.1780  0.1377  0.8255
 5662TIP3    H116929   2.090   0.265   6.676 -0.3254 -0.7650  0.2520
 5662TIP3    H216930   1.984   0.315   6.580 -0.0116 -0.5748  0.0037
 5663TIP3   OH216931   4.923   4.686   6.447 -0.0686 -0.8389 -0.2443
 5663TIP3    H116932   5.014   4.657   6.457 -0.9570 -3.7553  0.2459
 5663TIP3    H216933   4.901   4.727   6.531  0.2811 -1.7287  0.2933
 5664TIP3   OH216934   0.693   4.472   0.814 -0.0177  0.5720 -0.3263
 5664TIP3    H116935   0.641   4.503   0.888 -0.0738 -0.2407 -0.0191
 5664TIP3    H216936   0.633   4.415   0.765  0.3323  0.2814 -0.4186
 5665TIP3   OH216937   0.715   5.758   1.848  0.1282 -0.3303 -0.5406
 5665TIP3    H116938   0.628   5.720   1.861  0.3372 -0.1668  1.6896
 5665TIP3    H216939   0.763   5.692   1.798 -1.1190 -0.5967 -1.4567
 5666TIP3   OH216940   7.588   2.516   4.961  0.6697  0.3410  0.2820
 5666TIP3    H116941   7.642   2.445   4.927  0.4123  0.9528 -1.5819
 5666TIP3    H216942   7.569   2.492   5.051  1.6855 -1.2787  0.1062
 5667TIP3   OH216943   6.868   4.158   2.189 -0.3584  0.0701  0.1406
 5667TIP3    H116944   6.798   4.148   2.252 -1.0375  0.8809 -0.4600
 5667TIP3    H216945   6.920   4.077   2.196 -1.7306 -0.8398  0.1204
 5668TIP3   OH216946   2.016   6.386   5.360  0.0909  0.4312 -0.0233
 5668TIP3    H116947   2.007   6.477   5.390  1.8870  0.8098 -0.5141
 5668TIP3    H216948   2.085   6.389   5.294 -1.2266 -0.9913 -1.5603
 5669TIP3   OH216949   4.330   3.668   0.440 -0.0413  0.5114 -0.3865
 5669TIP3    H116950   4.290   3.754   0.454 -2.0084  0.0249 -2.3869
 5669TIP3    H216951   4.382   3.679   0.361 -0.3209 -0.1275 -0.6635
 5670TIP3   OH216952   1.478   0.865   4.436 -0.5693  0.2209 -0.3362
 5670TIP3    H116953   1.411   0.908   4.489 -1.6309 -0.4828 -1.0496
 5670TIP3    H216954   1.501   0.786   4.485  0.1581  0.7376  0.1725
 5671TIP3   OH216955   2.487   3.619   6.344 -0.4923 -0.2844 -0.6007
 5671TIP3    H116956   2.547   3.545   6.351 -0.0949  0.1115  0.3770
 5671TIP3    H216957   2.531   3.678   6.282 -0.9278 -0.9555 -1.5724
 5672TIP3   OH216958   0.392   0.488   6.395  0.7501  0.2971 -0.0926
 5672TIP3    H116959   0.418   0.573   6.430  2.1519  0.1387 -0.6698
 5672TIP3    H216960   0.304   0.503   6.360  1.8274  2.2185 -2.3278
 5673TIP3   OH216961   7.758   2.962   3.427  0.2335 -0.0678 -0.0179
 5673TIP3    H116962   7.750   3.056   3.446 -0.3897  0.1138 -1.1133
 5673TIP3    H216963   7.850   2.942   3.444  0.0806  0.4223  1.5738
 5674TIP3   OH216964   0.229   1.903   1.802 -0.2856 -0.8732  0.0461
 5674TIP3    H116965   0.193   1.816   1.786  1.0221 -1.3151 -0.6176
 5674TIP3    H216966   0.297   1.914   1.736  1.4228 -0.4429  1.7875
 5675TIP3   OH216967   0.310   7.356   6.392  0.0845  0.1140 -0.2995
 5675TIP3    H116968   0.349   7.341   6.306  0.7299 -3.1958  0.4389
 5675TIP3    H216969   0.217   7.335   6.379  0.4876 -2.2425  0.0852
 5676TIP3   OH216970   0.285   3.049   3.624  0.1229 -0.3144  0.5105
 5676TIP3    H116971   0.192   3.026   3.613  0.2592 -0.3857 -0.5741
 5676TIP3    H216972   0.320   3.051   3.535  0.6562  1.8448  0.7046
 5677TIP3   OH216973   7.722   3.170   5.645  0.4133 -0.1741  0.2606
 5677TIP3    H116974   7.687   3.113   5.577 -1.4051 -0.9281  1.7298
 5677TIP3    H216975   7.674   3.253   5.634  1.9814  0.6266 -0.9361
 5678TIP3   OH216976   0.657   2.117   6.559 -0.3407 -0.1595  0.7399
 5678TIP3    H116977   0.667   2.039   6.612 -0.1313 -0.3924  0.3576
 5678TIP3    H216978   0.562   2.131   6.554 -0.5192 -1.5887 -0.9090
 5679TIP3   OH216979   2.086   6.432   6.540 -0.0332  0.1260 -0.2594
 5679TIP3    H116980   2.062   6.342   6.562  2.1988 -0.1776  1.3103
 5679TIP3    H216981   2.004   6.481   6.545 -0.8443 -1.3170  1.7478
 5680TIP3   OH216982   6.401   7.552   5.202  0.5960 -0.0390 -0.0097
 5680TIP3    H116983   6.354   7.615   5.147 -0.6939  0.0976  1.1743
 5680TIP3    H216984   6.333   7.491   5.231  1.1177  0.1857  1.8145
 5681TIP3   OH216985   6.306   5.018   0.525 -0.5129 -0.1369  1.0003
 5681TIP3    H116986   6.255   5.076   0.468 -1.0061  1.2586  2.7797
 5681TIP3    H216987   6.328   4.943   0.469 -0.9778  1.1423 -1.0091
 5682TIP3   OH216988   0.115   7.699   1.532 -0.4219 -0.8464  0.2051
 5682TIP3    H116989   0.020   7.689   1.532 -0.6249  0.7761  1.0889
 5682TIP3    H216990   0.144   7.651   1.454 -1.7909 -2.6188  0.7148
 5683TIP3   OH216991   4.017   1.971   4.991 -0.8260 -0.2256 -1.0005
 5683TIP3    H116992   4.103   1.928   4.992 -0.8695 -0.3631 -1.8980
 5683TIP3    H216993   4.010   2.014   5.076 -0.2352 -0.9347 -0.5835
 5684TIP3   OH216994   5.757   6.867   2.457  0.0276  0.3492  0.0688
 5684TIP3    H116995   5.818   6.793   2.449 -0.4353  0.0297 -0.5872
 5684TIP3    H216996   5.726   6.882   2.367 -0.3281  0.9582  0.2912
 5685TIP3   OH216997   6.618   5.473   5.242  0.0052  0.1638  0.5573
 5685TIP3    H116998   6.540   5.428   5.274 -0.9850  0.5650 -1.1610
 5685TIP3    H216999   6.625   5.550   5.298 -2.7433  1.8283 -1.1572
 5686TIP3   OH217000   0.298   0.088   5.566  0.4189  0.3954  0.0451
 5686TIP3    H117001   0.367   0.127   5.513 -0.6389  0.9186 -1.0102
 5686TIP3    H217002   0.240   0.045   5.503 -2.1687  3.0268  0.3741
 5687TIP3   OH217003   4.790   0.826   4.369  0.2553  0.1142  0.1328
 5687TIP3    H117004   4.738   0.754   4.334  0.2358  0.9924 -1.7815
 5687TIP3    H217005   4.878   0.790   4.379 -0.2912 -0.9076  1.8356
 5688TIP3   OH217006   7.251   6.208   0.523  0.0013 -0.5520  0.2702
 5688TIP3    H117007   7.207   6.290   0.546 -0.2845 -0.4100 -0.7614
 5688TIP3    H217008   7.302   6.228   0.445  0.5087 -1.1738  0.4292
 5689TIP3   OH217009   7.515   2.514   1.414 -0.2684  0.5793  0.2029
 5689TIP3    H117010   7.421   2.519   1.427 -0.3364  1.2556 -0.5038
 5689TIP3    H217011   7.552   2.549   1.496 -0.6335  0.8605  0.2513
 5690TIP3   OH217012   5.724   4.590   0.739  0.0307 -0.1549 -0.4839
 5690TIP3    H117013   5.781   4.593   0.663  0.8443  0.8506  0.1356
 5690TIP3    H217014   5.641   4.555   0.706  0.2677  0.5291 -1.8734
 5691TIP3   OH217015   1.747   7.218   5.263 -0.2252  0.1144  0.0376
 5691TIP3    H117016   1.775   7.301   5.225  1.0154 -0.9607 -1.5087
 5691TIP3    H217017   1.790   7.151   5.210 -1.2524 -1.5382  1.1878
 5692TIP3   OH217018   5.959   4.054   0.322 -0.5166 -0.0923  0.0811
 5692TIP3    H117019   5.886   4.052   0.259 -1.8432 -0.7681  1.5700
 5692TIP3    H217020   5.957   3.968   0.364  0.6761  0.1593  0.6950
 5693TIP3   OH217021   8.282   4.710   6.369  0.1439  0.1867 -0.0298
 5693TIP3    H117022   8.196   4.673   6.350  0.6213 -0.6778 -0.6301
 5693TIP3    H217023   8.329   4.639   6.414  0.3578  0.8478  0.8010
 5694TIP3   OH217024   7.718   3.286   0.816 -0.2386  0.0438  0.0538
 5694TIP3    H117025   7.783   3.345   0.853 -1.1264  1.1765 -0.1292
 5694TIP3    H217026   7.734   3.202   0.859  0.7724  0.5246  0.6458
 5695TIP3   OH217027   5.129   6.251   4.053 -0.1464 -0.1539  0.4152
 5695TIP3    H117028   5.104   6.181   4.113 -1.6889  0.5811  0.6970
 5695TIP3    H217029   5.185   6.209   3.988 -1.0319 -1.6626  0.5785
 5696TIP3   OH217030   4.805   6.371   3.262 -0.6211  0.4298 -0.5517
 5696TIP3    H117031   4.820   6.459   3.227 -0.7553 -0.9470 -4.5348
 5696TIP3    H217032   4.716   6.349   3.235 -0.3794 -1.1345 -0.1667
 5697TIP3   OH217033   4.812   5.260   1.862  0.0064 -0.5726 -0.3158
 5697TIP3    H117034   4.799   5.175   1.904 -0.9509  0.0331  0.6781
 5697TIP3    H217035   4.907   5.272   1.861  0.0917 -0.8770  1.1841
 5698TIP3   OH217036   1.023   6.715   4.135 -0.3851 -0.6452  0.3187
 5698TIP3    H117037   1.100   6.768   4.154 -0.7561 -0.3187  0.9284
 5698TIP3    H217038   1.018   6.654   4.209 -1.1031 -0.2114  0.6373
 5699TIP3   OH217039   2.875   3.560   3.666 -0.5500 -0.0736 -0.5113
 5699TIP3    H117040   2.885   3.584   3.574  1.2853 -1.2334 -0.6598
 5699TIP3    H217041   2.905   3.469   3.671  0.2739  0.2396  1.3768
 5700TIP3   OH217042   4.986   6.152   1.411  0.0486  0.4087 -0.0619
 5700TIP3    H117043   4.936   6.209   1.352 -0.2953  2.0494  1.7078
 5700TIP3    H217044   4.920   6.097   1.454  0.3395 -1.1072 -1.4465
 5701TIP3   OH217045   0.532   0.224   6.249  0.0878  0.8581 -0.9891
 5701TIP3    H117046   0.615   0.269   6.232  0.4971  1.6769  2.4507
 5701TIP3    H217047   0.553   0.131   6.245  0.8268  1.0414 -1.5044
 5702TIP3   OH217048   3.336   1.869   1.447 -0.2499  0.2029  0.4802
 5702TIP3    H117049   3.340   1.925   1.525  1.0447  0.1229  0.4788
 5702TIP3    H217050   3.293   1.789   1.478  1.2274 -0.2715  1.4102
 5703TIP3   OH217051   0.453   6.742   2.074 -0.0067 -0.3248 -0.7787
 5703TIP3    H117052   0.490   6.783   2.152 -1.0653 -0.4475 -0.1759
 5703TIP3    H217053   0.528   6.714   2.022  0.7144  0.4166 -0.1479
 5704TIP3   OH217054   1.166   5.168   0.428  0.1733  0.1331 -0.2386
 5704TIP3    H117055   1.212   5.100   0.379 -1.1385 -1.1665  0.2760
 5704TIP3    H217056   1.200   5.161   0.517  0.6184  0.7076 -0.3561
 5705TIP3   OH217057   0.864   5.093   2.509  0.0643  0.1601 -0.0306
 5705TIP3    H117058   0.821   5.175   2.531 -0.3581  0.1399 -0.7536
 5705TIP3    H217059   0.939   5.088   2.568 -0.0545  0.9421  0.1881
 5706TIP3   OH217060   7.370   5.448   5.365  0.3618  0.4713 -0.1128
 5706TIP3    H117061   7.406   5.500   5.293  0.5999 -0.1872 -0.4776
 5706TIP3    H217062   7.279   5.431   5.340  0.0469  1.3742  0.3831
 5707TIP3   OH217063   1.862   5.559   4.068 -0.1092 -0.2535  0.4377
 5707TIP3    H117064   1.782   5.609   4.086 -1.1126 -0.4160 -2.8137
 5707TIP3    H217065   1.849   5.526   3.979  2.5653 -2.3748  0.7185
 5708TIP3   OH217066   4.168   0.803   2.315 -0.1954 -0.1948  0.3705
 5708TIP3    H117067   4.112   0.726   2.321 -0.0299 -0.5021 -1.6130
 5708TIP3    H217068   4.107   0.877   2.308 -0.3675 -0.4335 -0.7441
 5709TIP3   OH217069   5.569   1.302   5.234 -0.6004  0.1410  0.0031
 5709TIP3    H117070   5.473   1.307   5.229 -0.6867 -0.5637  0.6699
 5709TIP3    H217071   5.590   1.345   5.317 -0.0792  2.7568 -1.3798
 5710TIP3   OH217072   6.814   4.525   0.236 -0.3480 -0.2395 -0.4247
 5710TIP3    H117073   6.827   4.432   0.217 -0.5189 -0.2850 -0.3139
 5710TIP3    H217074   6.851   4.537   0.324 -0.6874 -0.2847 -0.2753
 5711TIP3   OH217075   1.176   2.573   3.845  0.5486 -0.6769 -0.0611
 5711TIP3    H117076   1.120   2.497   3.835  0.1840 -0.6349  1.4527
 5711TIP3    H217077   1.177   2.590   3.939  0.1518  1.5341 -0.4005
 5712TIP3   OH217078   4.213   0.978   1.077 -0.1971 -0.2023  0.0479
 5712TIP3    H117079   4.199   0.981   0.982 -0.6652  0.3570  0.1220
 5712TIP3    H217080   4.208   1.070   1.104 -1.1726 -0.4499  0.7560
 5713TIP3   OH217081   7.215   4.016   2.896  0.0109  0.1448 -0.0668
 5713TIP3    H117082   7.215   3.925   2.867  1.2505 -0.0407  0.4539
 5713TIP3    H217083   7.136   4.054   2.857  0.2156 -0.7767 -1.4361
 5714TIP3   OH217084   4.192   6.162   3.583 -0.3376 -0.1873  0.6655
 5714TIP3    H117085   4.153   6.185   3.668 -1.8535 -1.5188  0.3781
 5714TIP3    H217086   4.195   6.066   3.584  0.1159 -0.1997 -0.5929
 5715TIP3   OH217087   6.948   4.095   2.805  0.2526 -0.2699  0.4978
 5715TIP3    H117088   6.922   4.005   2.784 -1.2152 -0.1281  1.5079
 5715TIP3    H217089   6.927   4.144   2.726 -0.3847 -0.5697  0.4719
 5716TIP3   OH217090   1.220   1.698   4.137 -0.7914 -0.3162  0.2228
 5716TIP3    H117091   1.304   1.723   4.099  0.2182  0.9141  2.9745
 5716TIP3    H217092   1.196   1.772   4.192 -4.4324 -0.0545 -1.4861
 5717TIP3   OH217093   3.289   6.284   4.404 -0.4040 -0.3487 -0.3302
 5717TIP3    H117094   3.276   6.372   4.438  0.0099 -0.6513  0.6544
 5717TIP3    H217095   3.303   6.230   4.482  1.1806 -0.9585 -0.9932
 5718TIP3   OH217096   3.301   5.374   0.794 -0.4619 -0.5236  0.2554
 5718TIP3    H117097   3.290   5.314   0.721 -1.1235 -0.6553  0.4541
 5718TIP3    H217098   3.289   5.320   0.872  2.7796 -0.9604  0.6096
 5719TIP3   OH217099   1.188   4.355   5.307 -0.3079  0.6553  0.3176
 5719TIP3    H117100   1.108   4.388   5.267 -0.0393  1.9511  0.7762
 5719TIP3    H217101   1.257   4.377   5.244 -0.3405 -0.8807 -0.2956
 5720TIP3   OH217102   0.773   1.925   0.408  0.5261  0.3487 -0.0491
 5720TIP3    H117103   0.854   1.884   0.378 -0.4156 -1.0536 -0.7700
 5720TIP3    H217104   0.709   1.906   0.339 -0.4527  1.3368  0.5482
 5721TIP3   OH217105   1.752   7.684   0.024  0.1583 -0.2675 -0.4993
 5721TIP3    H117106   1.821   7.700  -0.041  0.4951 -1.1793 -0.3876
 5721TIP3    H217107   1.800   7.666   0.105 -0.2598  0.9896  0.0542
 5722TIP3   OH217108   2.357   6.500   5.571  0.8598  0.3091 -0.1441
 5722TIP3    H117109   2.264   6.522   5.573  0.9637  0.7135  0.4572
 5722TIP3    H217110   2.401   6.580   5.543  1.0745  0.3135  0.1911
 5723TIP3   OH217111   2.501   2.031   4.241 -0.1905  0.2471  0.3293
 5723TIP3    H117112   2.464   2.119   4.234 -3.7698 -1.1625 -0.8776
 5723TIP3    H217113   2.495   2.009   4.334 -1.2801  0.5450  0.3353
 5724TIP3   OH217114   2.536   5.212   6.128  0.2824 -0.7514 -0.0206
 5724TIP3    H117115   2.611   5.264   6.097 -1.4011  1.0415 -1.3813
 5724TIP3    H217116   2.535   5.227   6.222  0.1877  1.3367 -0.2934
 5725TIP3   OH217117   5.440   2.205   0.695  0.7833 -0.1175  1.1541
 5725TIP3    H117118   5.440   2.252   0.612 -1.1746  1.3019  1.8608
 5725TIP3    H217119   5.455   2.114   0.672 -1.0626  0.0162 -0.9540
 5726TIP3   OH217120   2.978   0.991   0.078 -0.1412 -0.4908  0.5084
 5726TIP3    H117121   2.972   0.962   0.169 -0.2240 -2.7703 -0.1689
 5726TIP3    H217122   3.037   1.067   0.081 -1.1659  0.2800  2.5930
 5727TIP3   OH217123   0.678   6.565   4.848  0.0677 -0.3352  0.4842
 5727TIP3    H117124   0.741   6.577   4.919  0.1466 -2.0124  0.7332
 5727TIP3    H217125   0.600   6.612   4.878  0.5225  0.0521  1.0987
 5728TIP3   OH217126   1.315   4.213   1.464  0.2779 -0.0853  0.1689
 5728TIP3    H117127   1.382   4.274   1.432 -0.7638  1.6827  1.2350
 5728TIP3    H217128   1.266   4.189   1.385  2.7268 -2.2859 -0.8383
 5729TIP3   OH217129   6.353   6.609   2.264  0.5543  0.3687  1.0381
 5729TIP3    H117130   6.362   6.622   2.170 -0.5913 -1.2783  0.6440
 5729TIP3    H217131   6.442   6.621   2.299  1.4679 -1.2076 -0.5749
 5730TIP3   OH217132   0.037   6.231   6.755 -0.1436  0.1913 -0.2825
 5730TIP3    H117133  -0.058   6.217   6.754 -1.2705  4.9518  3.7644
 5730TIP3    H217134   0.071   6.162   6.811 -1.6170 -0.1962  0.1756
 5731TIP3   OH217135   2.151   0.751   5.014  0.1468 -0.1610  0.1582
 5731TIP3    H117136   2.099   0.823   4.977 -1.8457 -0.9309  1.2963
 5731TIP3    H217137   2.156   0.686   4.944 -2.3654 -0.9964  0.6524
 5732TIP3   OH217138   0.600   7.844   2.118  0.0201  0.0207 -0.0535
 5732TIP3    H117139   0.535   7.796   2.067 -0.9768  0.0357  1.1524
 5732TIP3    H217140   0.598   7.803   2.205  0.7899  0.7753  0.3399
 5733TIP3   OH217141   7.685   5.200   3.502 -0.1160  0.3645 -0.1782
 5733TIP3    H117142   7.622   5.184   3.572 -0.4128 -0.6701 -0.6639
 5733TIP3    H217143   7.768   5.165   3.537 -0.3876 -0.6894 -0.5507
 5734TIP3   OH217144   6.809   2.342   5.759 -0.1650 -0.4172  0.0167
 5734TIP3    H117145   6.830   2.332   5.666 -0.1783  1.9115 -0.2944
 5734TIP3    H217146   6.716   2.323   5.764  0.0055 -1.4258 -0.2574
 5735TIP3   OH217147   6.624   4.517   3.339  0.4844 -0.2574 -0.2316
 5735TIP3    H117148   6.677   4.463   3.280  1.3553  1.3117 -0.9455
 5735TIP3    H217149   6.558   4.556   3.282  0.4518  0.1700  0.0988
 5736TIP3   OH217150   7.539   2.188   0.252 -0.3801 -0.5863  0.2336
 5736TIP3    H117151   7.521   2.168   0.344  1.3949 -2.4384  0.2375
 5736TIP3    H217152   7.619   2.140   0.232  0.1299  0.9991 -1.8805
 5737TIP3   OH217153   2.546   6.348   0.592 -0.2814 -0.1206  0.0433
 5737TIP3    H117154   2.575   6.431   0.555  0.6473  0.9244  2.7968
 5737TIP3    H217155   2.453   6.361   0.611 -0.5323 -0.3287 -1.0097
 5738TIP3   OH217156   3.803   0.703   5.441 -0.3660  0.1767 -0.3684
 5738TIP3    H117157   3.735   0.645   5.474  1.0114 -1.6836 -0.6556
 5738TIP3    H217158   3.763   0.747   5.366 -2.4063  1.9135  1.5706
 5739TIP3   OH217159   6.042   1.949   3.923 -0.4666 -0.0514  0.2312
 5739TIP3    H117160   6.125   1.997   3.928 -1.0289  0.9880 -0.1985
 5739TIP3    H217161   6.044   1.891   4.000 -0.3873  1.6507  1.5788
 5740TIP3   OH217162   1.692   2.283   3.064 -0.4997 -0.0507  0.2405
 5740TIP3    H117163   1.769   2.232   3.038 -1.7069 -0.8047 -2.1904
 5740TIP3    H217164   1.657   2.237   3.141  0.7386 -0.4157  0.6058
 5741TIP3   OH217165   8.169   3.649   5.346 -0.0547  0.1057 -0.5725
 5741TIP3    H117166   8.232   3.579   5.360 -0.2795 -0.0863 -0.5167
 5741TIP3    H217167   8.222   3.728   5.340  0.0122  0.4794  2.8718
 5742TIP3   OH217168   1.235   1.315   3.625  0.2419  0.2551  0.2667
 5742TIP3    H117169   1.324   1.351   3.618  0.7295 -1.1772 -1.8906
 5742TIP3    H217170   1.192   1.344   3.545 -0.6778 -0.5031  0.4773
 5743TIP3   OH217171   5.527   1.759   1.209 -0.1526 -0.4615  0.1717
 5743TIP3    H117172   5.584   1.821   1.255 -2.1519  0.0274  2.1763
 5743TIP3    H217173   5.552   1.673   1.243  0.6960 -0.4955 -0.4870
 5744TIP3   OH217174   6.176   2.957   1.600  0.0715  0.2585  0.0658
 5744TIP3    H117175   6.134   3.037   1.631  1.0376  0.9194 -0.2610
 5744TIP3    H217176   6.149   2.890   1.662  0.6551  1.2042  1.4114
 5745TIP3   OH217177   1.789   4.248   0.746 -0.1375  0.2008  0.0318
 5745TIP3    H117178   1.874   4.237   0.788 -1.2809 -3.0016  1.8617
 5745TIP3    H217179   1.745   4.316   0.797  0.6880  0.6479  0.1541
 5746TIP3   OH217180   5.479   3.854   3.303 -0.7782 -0.1107 -0.7367
 5746TIP3    H117181   5.521   3.927   3.348 -0.0422 -1.4741  0.9093
 5746TIP3    H217182   5.387   3.882   3.294 -0.8533  0.4544  1.2077
 5747TIP3   OH217183   7.141   2.049   1.125  0.1521 -0.1019 -0.0352
 5747TIP3    H117184   7.228   2.087   1.112  0.9003 -1.5058  0.5952
 5747TIP3    H217185   7.158   1.963   1.163 -1.5460 -0.0513  0.9660
 5748TIP3   OH217186   2.498   0.538   5.056  0.2631  0.1940  0.6602
 5748TIP3    H117187   2.534   0.621   5.087  0.2758  0.0049  1.1642
 5748TIP3    H217188   2.452   0.502   5.132  1.7065 -1.0880  0.9960
 5749TIP3   OH217189   0.053   4.718   0.644 -0.2299  0.7465  0.2544
 5749TIP3    H117190  -0.024   4.747   0.694 -0.5083  0.5763 -0.0639
 5749TIP3    H217191   0.090   4.799   0.609  0.2149  0.9054  1.0811
 5750TIP3   OH217192   6.403   2.967   4.967 -0.5854 -0.5928 -0.8187
 5750TIP3    H117193   6.373   2.879   4.990  2.6030 -1.9012 -1.1480
 5750TIP3    H217194   6.432   3.005   5.050 -0.5722 -0.4193 -0.9014
 5751TIP3   OH217195   7.347   2.057   4.166  0.0603 -0.5268 -0.1636
 5751TIP3    H117196   7.257   2.089   4.164 -0.1512 -0.8484  2.0344
 5751TIP3    H217197   7.342   1.971   4.208  1.3295 -0.8207 -0.5557
 5752TIP3   OH217198   3.421   6.115   0.476  0.1755 -0.4972  0.0850
 5752TIP3    H117199   3.412   6.080   0.565  1.0568 -2.2146 -0.4621
 5752TIP3    H217200   3.515   6.108   0.457  0.4134  2.1491 -0.1311
 5753TIP3   OH217201   3.268   4.600   2.931 -0.1323 -0.1705 -0.0397
 5753TIP3    H117202   3.246   4.576   3.021 -1.2328 -1.7446 -0.6847
 5753TIP3    H217203   3.354   4.561   2.916 -0.7224 -1.4279 -0.2146
 5754TIP3   OH217204   0.803   7.322   6.517  0.1200  0.4934  0.7512
 5754TIP3    H117205   0.899   7.314   6.516  0.0017 -1.2967  0.0507
 5754TIP3    H217206   0.774   7.255   6.579 -0.6777  1.5143  1.5267
 5755TIP3   OH217207   1.828   6.006   1.207  0.0220 -0.3587  0.0286
 5755TIP3    H117208   1.872   5.943   1.150 -0.9036 -0.9498 -0.0541
 5755TIP3    H217209   1.736   5.979   1.206 -0.9235  2.3611 -1.9532
 5756TIP3   OH217210   4.041   0.225   6.476  0.4130 -0.2410 -0.1260
 5756TIP3    H117211   4.134   0.211   6.494  0.5383  0.4681 -0.1929
 5756TIP3    H217212   3.995   0.172   6.541  0.8648 -0.8117 -0.2750
 5757TIP3   OH217213   4.669   4.721   1.633  0.3269  0.0550 -0.4472
 5757TIP3    H117214   4.630   4.708   1.546  1.0129 -1.1222 -0.5941
 5757TIP3    H217215   4.760   4.695   1.623  0.0395 -1.7269  1.0074
 5758TIP3   OH217216   2.997   6.274   1.448  0.0739 -0.0231 -0.3916
 5758TIP3    H117217   2.935   6.346   1.462  1.1474  0.6456  1.3083
 5758TIP3    H217218   2.988   6.220   1.527  0.7557 -0.6054 -0.7065
 5759TIP3   OH217219   5.998   2.201   1.216 -0.3776 -0.1091 -0.4042
 5759TIP3    H117220   6.043   2.123   1.184  0.1382  0.2869 -0.6444
 5759TIP3    H217221   5.945   2.230   1.142  2.2727  1.9352 -1.6860
 5760TIP3   OH217222   1.504   7.105   1.788 -0.4581 -0.0095 -0.6130
 5760TIP3    H117223   1.427   7.145   1.828  0.6845  2.3930 -0.6851
 5760TIP3    H217224   1.554   7.178   1.752  1.7825 -1.4894 -0.7369
 5761TIP3   OH217225   7.667   4.138   3.729  0.3950 -0.4591 -0.0355
 5761TIP3    H117226   7.654   4.207   3.664 -1.4046  1.2844  1.9922
 5761TIP3    H217227   7.754   4.103   3.711  0.1102  0.1530 -3.0997
 5762TIP3   OH217228   3.572   7.220   2.084 -0.2845  0.4733 -0.0328
 5762TIP3    H117229   3.482   7.208   2.114 -0.6271  0.0432 -1.1806
 5762TIP3    H217230   3.625   7.174   2.149 -1.0170 -0.6851 -0.2207
 5763TIP3   OH217231   2.697   7.394   1.303 -0.4589 -0.0273  0.5167
 5763TIP3    H117232   2.640   7.470   1.318 -0.6420  0.1363 -0.8405
 5763TIP3    H217233   2.649   7.320   1.340 -0.0528  0.5551  2.3192
 5764TIP3   OH217234   4.340   2.762   1.059 -0.1837 -0.3364 -0.1327
 5764TIP3    H117235   4.423   2.807   1.047  0.2241 -0.9745  0.2288
 5764TIP3    H217236   4.275   2.832   1.068  0.4505  0.1812  0.5165
 5765TIP3   OH217237   5.583   0.143   2.932  0.1898  0.8550 -0.0995
 5765TIP3    H117238   5.661   0.134   2.878  0.7453  0.6628  0.7256
 5765TIP3    H217239   5.605   0.209   2.997  0.5418 -0.8584  1.6168
 5766TIP3   OH217240   7.826   2.967   0.078  0.0524  0.2306  0.6257
 5766TIP3    H117241   7.751   2.911   0.058  0.4386  0.8654 -3.1505
 5766TIP3    H217242   7.898   2.906   0.094 -0.3302 -0.3591  0.1184
 5767TIP3   OH217243   4.411  -0.003   1.327  0.0381 -0.1458  0.0871
 5767TIP3    H117244   4.481   0.049   1.366  1.4335 -1.7764 -0.1168
 5767TIP3    H217245   4.332   0.024   1.373  0.9329  1.0952  0.9619
 5768TIP3   OH217246   7.789   3.104   6.624 -0.5837 -0.4266  0.2817
 5768TIP3    H117247   7.826   3.049   6.694 -1.6715  1.1965  2.2412
 5768TIP3    H217248   7.696   3.080   6.622 -0.8150  0.4438  0.3010
 5769TIP3   OH217249   1.339   2.461   6.210  0.1730  0.4480  0.2147
 5769TIP3    H117250   1.346   2.545   6.165  0.6953  0.5176  0.4191
 5769TIP3    H217251   1.416   2.458   6.267  0.4152 -0.3768 -0.1446
 5770TIP3   OH217252   7.837   4.890   3.883  0.3891 -0.1625 -0.0236
 5770TIP3    H117253   7.852   4.956   3.950 -0.4501 -0.6579  0.6852
 5770TIP3    H217254   7.829   4.808   3.932  0.5786 -0.6539 -0.8065
 5771TIP3   OH217255   1.204   5.798   1.216 -0.3830 -0.2745  0.1984
 5771TIP3    H117256   1.235   5.714   1.183 -1.9297 -0.6660 -0.3827
 5771TIP3    H217257   1.150   5.776   1.292 -1.5090  0.0837 -0.4721
 5772TIP3   OH217258   3.804   3.316   4.487 -0.5293 -0.1424  0.0700
 5772TIP3    H117259   3.804   3.225   4.516 -0.1534  0.1195  0.9395
 5772TIP3    H217260   3.721   3.327   4.441 -1.0151 -0.6805  0.7870
 5773TIP3   OH217261   6.978   6.216   6.681 -0.0264  0.4983  0.1738
 5773TIP3    H117262   6.912   6.285   6.681  0.2778  0.8128 -0.7965
 5773TIP3    H217263   7.019   6.222   6.594  2.0906  1.0764  1.1462
 5774TIP3   OH217264   2.203   5.504   1.613 -0.2874  0.2121 -0.4223
 5774TIP3    H117265   2.205   5.411   1.634  0.8475  0.1468 -0.7565
 5774TIP3    H217266   2.141   5.511   1.540 -1.7597 -0.0089  0.7652
 5775TIP3   OH217267   0.259   2.125   0.756 -0.5771  0.4568  0.0426
 5775TIP3    H117268   0.192   2.194   0.751 -0.0812  1.0160  0.9194
 5775TIP3    H217269   0.335   2.169   0.794  0.5281  0.0048 -1.5139
 5776TIP3   OH217270   0.135   0.172   2.368 -0.0093 -0.0084 -0.0823
 5776TIP3    H117271   0.112   0.155   2.277 -3.9677 -0.7837  0.8884
 5776TIP3    H217272   0.090   0.254   2.389  1.0529  0.2941  1.1158
 5777TIP3   OH217273   5.883   0.053   1.366  0.1332 -0.5994  0.2884
 5777TIP3    H117274   5.897  -0.006   1.441 -0.5202 -0.9322  0.1548
 5777TIP3    H217275   5.858  -0.005   1.294  1.7129 -0.3856 -0.4632
 5778TIP3   OH217276   6.697   1.368   4.744 -0.1699  0.0913 -0.1688
 5778TIP3    H117277   6.653   1.294   4.704  1.3229 -1.5468  1.0788
 5778TIP3    H217278   6.786   1.365   4.709  0.9853 -1.0031  2.6183
 5779TIP3   OH217279   6.123   3.968   1.292 -0.1094 -0.3769  0.4286
 5779TIP3    H117280   6.185   4.041   1.282  0.0211 -0.6506 -0.9090
 5779TIP3    H217281   6.107   3.938   1.203  0.0172 -2.1330  0.9642
 5780TIP3   OH217282   4.565   0.951   5.541 -0.2095 -0.2144  0.4253
 5780TIP3    H117283   4.558   1.036   5.498 -0.1949 -0.3887  0.0746
 5780TIP3    H217284   4.644   0.958   5.595  0.3731 -0.3489 -0.3896
 5781TIP3   OH217285   4.069   0.761   1.194 -0.0299  0.2223  0.2315
 5781TIP3    H117286   4.134   0.828   1.174  1.7044 -0.9824  1.5994
 5781TIP3    H217287   4.083   0.694   1.128  1.3232 -0.8131  1.5235
 5782TIP3   OH217288   1.748   2.142   4.025 -0.2983 -0.5971 -0.3368
 5782TIP3    H117289   1.760   2.058   3.981  0.1981 -0.6769 -0.0510
 5782TIP3    H217290   1.735   2.118   4.117  1.3057 -0.2927 -0.0029
 5783TIP3   OH217291   4.201   3.318   2.744  0.2816 -0.3701 -0.2858
 5783TIP3    H117292   4.129   3.284   2.798 -1.4756  1.1819 -1.5371
 5783TIP3    H217293   4.172   3.302   2.654  2.0821 -0.7643 -0.8354
 5784TIP3   OH217294   8.152   6.468   5.108 -0.0403  0.4452  0.0656
 5784TIP3    H117295   8.057   6.459   5.093 -0.4450  1.8864  1.4710
 5784TIP3    H217296   8.171   6.560   5.089  1.5023 -0.2369 -2.0625
 5785TIP3   OH217297   6.068   4.991   0.670  0.1418 -0.0859 -0.2819
 5785TIP3    H117298   6.038   4.903   0.690 -0.9025  0.3454  0.1110
 5785TIP3    H217299   6.159   4.980   0.642  0.0690 -1.2595 -0.0838
 5786TIP3   OH217300   5.732   3.719   4.369  0.0272 -0.3112 -0.7780
 5786TIP3    H117301   5.704   3.653   4.433 -2.0486  1.7491  0.6047
 5786TIP3    H217302   5.651   3.749   4.328  1.2491 -1.3685 -4.3619
 5787TIP3   OH217303   0.792   7.358   4.909 -0.3411  0.1342  0.0948
 5787TIP3    H117304   0.699   7.379   4.898  0.4270  2.8642 -2.3998
 5787TIP3    H217305   0.824   7.422   4.972  0.1251  0.1181 -0.1227
 5788TIP3   OH217306   3.698   2.383   1.344 -0.4351 -0.8458  0.0734
 5788TIP3    H117307   3.699   2.454   1.408 -0.0358 -0.1660 -0.6628
 5788TIP3    H217308   3.635   2.412   1.277 -0.3829 -1.2556 -0.1587
 5789TIP3   OH217309   5.869   1.568   4.781  0.4561  0.2708  0.0892
 5789TIP3    H117310   5.816   1.559   4.701  1.4668 -0.2357 -0.5434
 5789TIP3    H217311   5.806   1.558   4.852 -0.6323  1.6155 -0.6126
 5790TIP3   OH217312   5.654   5.221   2.598  0.1449  0.1701  0.3901
 5790TIP3    H117313   5.621   5.145   2.646  1.2253  0.5096  1.7578
 5790TIP3    H217314   5.591   5.235   2.528 -0.7195 -1.2509  0.8404
 5791TIP3   OH217315   6.265   2.118   0.283  0.6905 -0.3238  0.1055
 5791TIP3    H117316   6.262   2.060   0.207 -3.1192  0.1129 -0.2575
 5791TIP3    H217317   6.215   2.195   0.257  1.0313  0.7551  2.3831
 5792TIP3   OH217318   1.098   4.144   4.508 -0.2716  0.1930  0.0069
 5792TIP3    H117319   1.069   4.213   4.449  0.8172 -1.4756 -2.6543
 5792TIP3    H217320   1.127   4.190   4.587 -0.9798  2.6094 -1.0635
 5793TIP3   OH217321   7.264   1.807   2.146 -0.2608  0.1423 -0.4274
 5793TIP3    H117322   7.201   1.858   2.096 -1.0352 -0.5822 -0.2004
 5793TIP3    H217323   7.298   1.743   2.084 -0.1777  0.1521 -0.3927
 5794TIP3   OH217324   6.782   7.360   5.586 -0.2459  0.4779  0.6936
 5794TIP3    H117325   6.861   7.408   5.559 -0.1854 -0.1279 -0.2767
 5794TIP3    H217326   6.718   7.381   5.518  0.0813 -1.5616 -0.3441
 5795TIP3   OH217327   0.576   6.593   1.356  0.4795  0.6457 -0.0031
 5795TIP3    H117328   0.494   6.638   1.336  1.2009  1.0316 -2.3664
 5795TIP3    H217329   0.576   6.517   1.299  3.0905  2.2827 -2.4306
 5796TIP3   OH217330   1.555   2.499   3.502  0.3193  0.3544  0.1534
 5796TIP3    H117331   1.650   2.510   3.496  0.3973  0.8246  1.7637
 5796TIP3    H217332   1.537   2.493   3.596 -1.1649 -0.5755 -0.1446
 5797TIP3   OH217333   0.741   4.365   3.289 -0.7583  0.0488  0.1981
 5797TIP3    H117334   0.711   4.385   3.201 -2.4507 -0.2940  0.6590
 5797TIP3    H217335   0.680   4.411   3.347  0.1477  0.0420  1.1877
 5798TIP3   OH217336   3.621   0.974   5.934 -0.4340 -0.3559 -0.3510
 5798TIP3    H117337   3.601   0.897   5.880 -1.7181 -0.1484 -0.2050
 5798TIP3    H217338   3.663   1.035   5.874 -1.7474 -0.1727 -1.1250
 5799TIP3   OH217339   3.206   0.889   0.731 -0.0503  0.3637  0.1040
 5799TIP3    H117340   3.241   0.926   0.812 -1.6678 -1.3223  1.6892
 5799TIP3    H217341   3.278   0.892   0.669  1.4870  1.0293  1.8567
 5800TIP3   OH217342   3.150   4.790   2.121 -0.1681  0.1981 -0.1417
 5800TIP3    H117343   3.109   4.860   2.173  0.3901  0.3970  0.0359
 5800TIP3    H217344   3.090   4.716   2.130  0.6077 -0.2615  2.0331
 5801TIP3   OH217345   0.954   4.851   4.102 -0.0764 -0.1487  0.1143
 5801TIP3    H117346   1.025   4.800   4.142 -0.7873  0.4150  2.2140
 5801TIP3    H217347   0.876   4.826   4.151 -0.9477  0.9219 -0.6738
 5802TIP3   OH217348   5.272   7.740   6.244  0.0704  0.4864  0.0664
 5802TIP3    H117349   5.222   7.698   6.174  1.7520 -1.2014 -0.1897
 5802TIP3    H217350   5.342   7.787   6.199 -1.0141  2.5824  0.4428
 5803TIP3   OH217351   1.359   4.425   3.320  0.4074  0.2820  0.3441
 5803TIP3    H117352   1.265   4.412   3.329 -0.5024  4.9775  0.5145
 5803TIP3    H217353   1.371   4.447   3.228  1.2351  0.2465  0.4382
 5804TIP3   OH217354   3.075   1.123   1.467  0.1472 -0.8861  0.7795
 5804TIP3    H117355   3.038   1.177   1.538  0.4282 -1.2791  1.2338
 5804TIP3    H217356   3.150   1.080   1.507  0.5397 -0.8198  0.1237
 5805TIP3   OH217357   0.798   1.285   3.786 -0.1516 -0.0745 -0.2069
 5805TIP3    H117358   0.884   1.326   3.784  0.0704 -0.5612 -1.5303
 5805TIP3    H217359   0.793   1.234   3.705 -1.3201 -0.8083  0.2877
 5806TIP3   OH217360   4.645   7.337   5.793 -0.0227 -0.1928 -0.5408
 5806TIP3    H117361   4.590   7.391   5.849  0.1455  1.6125 -2.0395
 5806TIP3    H217362   4.623   7.363   5.704  2.5556 -0.0850 -1.2388
 5807TIP3   OH217363   5.881   4.473   0.199  0.0133 -0.4179 -0.4557
 5807TIP3    H117364   5.810   4.515   0.150 -0.6302 -0.7258  0.1867
 5807TIP3    H217365   5.939   4.436   0.132  0.6423  1.5349 -1.0463
 5808TIP3   OH217366   6.331   2.810   4.623  0.0469  0.2211 -0.0424
 5808TIP3    H117367   6.417   2.806   4.664  1.2930 -0.5119 -2.5824
 5808TIP3    H217368   6.317   2.902   4.604  1.4823  0.0987 -1.9308
 5809TIP3   OH217369   3.127   4.874   6.550  0.5511  0.0791  0.1054
 5809TIP3    H117370   3.174   4.929   6.487  0.7076 -1.9772 -1.7128
 5809TIP3    H217371   3.048   4.923   6.571  0.1527  0.5862 -2.2643
 5810TIP3   OH217372   3.946   4.795   3.857 -0.0621 -0.0455 -0.3357
 5810TIP3    H117373   3.936   4.885   3.889  0.3210 -0.4746  1.0545
 5810TIP3    H217374   3.924   4.800   3.764 -1.8659  1.1480  0.1076
 5811TIP3   OH217375   5.159   3.019   4.905 -0.0348  0.5613  0.1844
 5811TIP3    H117376   5.080   3.056   4.865 -0.1084  1.5205  1.1559
 5811TIP3    H217377   5.228   3.032   4.839 -0.0072  2.7066  0.5747
 5812TIP3   OH217378   7.753   6.681   5.909  0.9833 -0.3274  0.1252
 5812TIP3    H117379   7.715   6.697   5.823 -1.2818  2.0585  1.4247
 5812TIP3    H217380   7.827   6.742   5.913  0.8402 -0.1426  0.0049
 5813TIP3   OH217381   4.608   3.090   1.848  0.6058 -0.2059  0.0322
 5813TIP3    H117382   4.550   3.150   1.802  1.3072 -0.1373 -0.7910
 5813TIP3    H217383   4.550   3.038   1.904 -0.1962  0.1094 -0.4898
 5814TIP3   OH217384   6.092   7.144   1.576 -0.4213  0.3755  0.2189
 5814TIP3    H117385   6.098   7.070   1.637  0.2840  1.1056  1.0599
 5814TIP3    H217386   6.134   7.112   1.496  0.4418  0.0504  0.7782
 5815TIP3   OH217387   1.912   0.128   5.144 -0.1119 -0.0187  0.8059
 5815TIP3    H117388   1.974   0.200   5.159  2.2993 -1.1553 -2.3871
 5815TIP3    H217389   1.883   0.141   5.054 -0.9281 -2.0972  0.7217
 5816TIP3   OH217390   1.457   4.833   2.342  0.2453  0.1379 -0.3655
 5816TIP3    H117391   1.517   4.898   2.306 -0.2416  0.1153 -1.2626
 5816TIP3    H217392   1.513   4.767   2.382  0.9484 -0.8125 -2.7318
 5817TIP3   OH217393   7.244   3.848   2.646 -0.3357 -0.2681 -0.1947
 5817TIP3    H117394   7.280   3.766   2.611  1.2177 -1.0222  2.8411
 5817TIP3    H217395   7.311   3.913   2.627  0.4358 -0.6467  1.0854
 5818TIP3   OH217396   3.075   3.800   0.698  0.1364  0.2557 -0.2817
 5818TIP3    H117397   2.979   3.810   0.704  0.2058 -0.0767  2.9381
 5818TIP3    H217398   3.107   3.890   0.689 -0.4137  0.7469  1.9366
 5819TIP3   OH217399   2.192   6.717   4.104 -0.4411 -0.2493 -0.2681
 5819TIP3    H117400   2.272   6.767   4.091 -1.1501  0.7072 -1.1540
 5819TIP3    H217401   2.216   6.648   4.166  0.9987  0.1388 -0.3642
 5820TIP3   OH217402   5.876   1.858   4.259 -0.4705 -0.6433  0.4768
 5820TIP3    H117403   5.892   1.946   4.293  1.5305 -0.2451 -1.3187
 5820TIP3    H217404   5.811   1.871   4.189  1.0255 -0.2867 -0.8984
 5821TIP3   OH217405   7.448   3.959   4.175  0.3411  0.0557 -0.1319
 5821TIP3    H117406   7.377   3.922   4.227 -1.3424  0.7868 -1.8059
 5821TIP3    H217407   7.416   4.046   4.149  1.7484  0.3145 -1.1084
 5822TIP3   OH217408   5.087   2.749   3.916 -0.1830 -0.6744 -0.2406
 5822TIP3    H117409   5.014   2.737   3.856 -0.3097  0.7517 -0.4174
 5822TIP3    H217410   5.142   2.816   3.874 -0.5728  0.7852  1.4599
 5823TIP3   OH217411   0.607   0.930   4.181 -0.0495  0.2696  0.3913
 5823TIP3    H117412   0.631   1.003   4.238  0.8364  0.0959  0.2516
 5823TIP3    H217413   0.516   0.911   4.204 -0.2152  1.2633  0.5922
 5824TIP3   OH217414   0.686   4.432   6.108  0.4534  0.3603 -0.3470
 5824TIP3    H117415   0.743   4.492   6.059  1.7454 -0.4980  0.0589
 5824TIP3    H217416   0.647   4.376   6.042  1.3729 -0.1038 -0.5178
 5825TIP3   OH217417   5.199   5.924   4.566  0.6817 -0.2956  0.5079
 5825TIP3    H117418   5.274   5.933   4.506  1.1874 -1.6294  0.9047
 5825TIP3    H217419   5.126   5.965   4.520  1.4122  0.0914 -0.3365
 5826TIP3   OH217420   6.138   0.615   1.160 -0.0664 -0.3203 -0.3975
 5826TIP3    H117421   6.069   0.632   1.224  0.9909  0.2596  0.6281
 5826TIP3    H217422   6.139   0.520   1.151 -0.0615 -0.4366  0.6559
 5827TIP3   OH217423   6.085   4.096   4.000  0.3667  0.2693 -0.4329
 5827TIP3    H117424   6.156   4.156   3.979 -0.7137  1.5250 -0.6570
 5827TIP3    H217425   6.022   4.149   4.047 -0.0025 -1.0513  0.6300
 5828TIP3   OH217426   4.238   4.314   0.377  0.1147 -0.2531 -0.2426
 5828TIP3    H117427   4.240   4.406   0.401  1.0909 -0.3285  0.0022
 5828TIP3    H217428   4.273   4.268   0.453  0.2925 -0.7616 -0.6248
 5829TIP3   OH217429   6.171   6.159   3.075 -0.1302  0.2436  0.5253
 5829TIP3    H117430   6.208   6.246   3.086 -0.3858  0.7258 -1.8946
 5829TIP3    H217431   6.081   6.174   3.046 -0.0775 -0.7994 -0.2346
 5830TIP3   OH217432   0.694   5.172   2.185 -0.3626 -0.4643 -0.5632
 5830TIP3    H117433   0.726   5.097   2.136  1.2840  0.1695 -0.5251
 5830TIP3    H217434   0.672   5.137   2.271  2.0884 -0.6667  0.0528
 5831TIP3   OH217435   1.122   6.581   1.674 -0.1833 -0.4649  0.0994
 5831TIP3    H117436   1.166   6.626   1.746  0.4844 -0.7604 -0.1146
 5831TIP3    H217437   1.112   6.648   1.606  1.7567 -0.8485 -0.6330
 5832TIP3   OH217438   0.984   3.699   5.903  0.0778 -0.3399 -0.2773
 5832TIP3    H117439   0.902   3.665   5.866 -1.2609  1.3238  1.0331
 5832TIP3    H217440   0.973   3.794   5.906  1.0757 -0.2103  2.0786
 5833TIP3   OH217441   4.543   5.821   6.554 -0.1003 -0.0157  0.7284
 5833TIP3    H117442   4.626   5.784   6.524 -0.2916 -0.3098  0.5557
 5833TIP3    H217443   4.568   5.896   6.608  0.3137 -0.5716  1.3345
 5834TIP3   OH217444   7.308   3.177   6.533 -0.2145  0.6315  0.2574
 5834TIP3    H117445   7.271   3.184   6.445  0.0867  0.1524  0.0928
 5834TIP3    H217446   7.373   3.247   6.537 -0.1644  0.5956  0.0695
 5835TIP3   OH217447   6.920   6.823   3.232 -0.6440  0.5886  0.0267
 5835TIP3    H117448   6.879   6.900   3.272  0.6108  0.9425  0.6700
 5835TIP3    H217449   6.915   6.840   3.138  1.1563  2.3147  0.1860
 5836TIP3   OH217450   4.384   3.975   4.176 -0.1024  0.8337  0.7144
 5836TIP3    H117451   4.404   3.882   4.170  0.3729  0.8398  1.8822
 5836TIP3    H217452   4.302   3.979   4.227 -1.8476  0.9362 -1.9008
 5837TIP3   OH217453   6.023   1.542   5.070 -0.8306 -0.2036  0.3084
 5837TIP3    H117454   5.935   1.579   5.079 -0.0030  1.4755  2.4544
 5837TIP3    H217455   6.037   1.494   5.152  0.3449 -0.2077  0.1213
 5838TIP3   OH217456   3.851   3.180   4.186 -0.1371 -0.0712  0.5987
 5838TIP3    H117457   3.944   3.184   4.212  0.0539  0.9398 -0.1837
 5838TIP3    H217458   3.821   3.270   4.193 -0.7422 -0.1951 -0.2897
 5839TIP3   OH217459   6.340   7.325   2.960 -0.7341  0.6718  0.5963
 5839TIP3    H117460   6.333   7.229   2.953 -1.6137  0.6867  1.0402
 5839TIP3    H217461   6.381   7.339   3.045  0.7945  0.6743 -0.1157
 5840TIP3   OH217462   2.517   6.133   2.097 -0.6358  0.7135 -0.4406
 5840TIP3    H117463   2.545   6.069   2.032 -2.0345 -0.2188 -0.1545
 5840TIP3    H217464   2.453   6.087   2.151 -1.5761  2.3037 -0.1299
 5841TIP3   OH217465   5.275   0.997   4.685 -0.2567  0.1407 -0.1501
 5841TIP3    H117466   5.258   1.089   4.701 -0.8809  0.1492 -0.8160
 5841TIP3    H217467   5.334   0.971   4.755 -0.9199  0.7796  0.6621
 5842TIP3   OH217468   7.199   5.250   5.127 -0.1493  0.0726  0.2128
 5842TIP3    H117469   7.160   5.229   5.041  0.2196  0.2241  0.0097
 5842TIP3    H217470   7.191   5.345   5.134 -0.6620  0.0087  0.5838
 5843TIP3   OH217471   2.268   2.391   1.964 -0.4972  0.3835  0.3126
 5843TIP3    H117472   2.333   2.446   2.008  0.7867 -1.1042  0.3847
 5843TIP3    H217473   2.278   2.411   1.871  0.5046 -0.2533  0.2696
 5844TIP3   OH217474   6.353   6.159   1.689 -0.4299  0.5783  0.0105
 5844TIP3    H117475   6.410   6.120   1.755 -0.3078  0.0150 -0.4209
 5844TIP3    H217476   6.363   6.254   1.702 -0.0752  0.4753  0.5120
 5845TIP3   OH217477   1.213   5.471   1.583 -0.0611 -0.2959 -0.4078
 5845TIP3    H117478   1.226   5.388   1.536 -1.7708 -0.7648 -0.1188
 5845TIP3    H217479   1.156   5.522   1.527  1.3430  0.9314 -0.7943
 5846TIP3   OH217480   3.097   0.201   0.454  0.1256  0.1347  0.2766
 5846TIP3    H117481   3.109   0.180   0.547  0.1107 -1.1267  0.0143
 5846TIP3    H217482   3.114   0.118   0.409  0.1664  0.7418 -0.8507
 5847TIP3   OH217483   8.053   6.027   5.188 -0.0955  0.3619  0.2161
 5847TIP3    H117484   8.117   5.980   5.134  1.2998  0.6826  1.5333
 5847TIP3    H217485   8.004   5.958   5.232  1.2150  0.0893  1.3068
 5848TIP3   OH217486   5.377   0.263   0.091  0.1312  0.0803 -0.3232
 5848TIP3    H117487   5.299   0.319   0.083  0.6288  0.6624 -1.1869
 5848TIP3    H217488   5.371   0.203   0.017 -0.0072 -0.5359  0.1791
 5849TIP3   OH217489   2.163   5.665   1.865  0.0534  0.0358 -0.3278
 5849TIP3    H117490   2.089   5.615   1.900 -0.5605  0.7215 -0.6292
 5849TIP3    H217491   2.185   5.621   1.783  1.4627 -1.5464  0.8195
 5850TIP3   OH217492   3.338   1.647   5.690  0.1477  0.4139  0.0039
 5850TIP3    H117493   3.385   1.636   5.607  0.7911  0.9501  0.2819
 5850TIP3    H217494   3.297   1.733   5.682 -0.1386  0.2827  0.0749
 5851TIP3   OH217495   6.729   5.392   1.942 -0.5344  0.1616 -0.7499
 5851TIP3    H117496   6.722   5.403   2.037 -0.1199 -1.4842 -0.5066
 5851TIP3    H217497   6.737   5.481   1.909  0.2233  0.7180  0.8285
 5852TIP3   OH217498   1.109   4.915   2.970  0.3393  0.2042 -0.0603
 5852TIP3    H117499   1.167   4.890   3.042 -0.5826 -1.8078  0.0425
 5852TIP3    H217500   1.028   4.942   3.012  0.1803  0.1157 -0.3052
 5853TIP3   OH217501   5.432   4.576   3.876  0.2873  0.2547 -0.1314
 5853TIP3    H117502   5.498   4.643   3.895 -0.0451  0.4138  0.4648
 5853TIP3    H217503   5.467   4.529   3.800  1.0757  0.3573  0.1595
 5854TIP3   OH217504   4.832   1.671   1.373  0.2475 -0.1434 -0.0687
 5854TIP3    H117505   4.785   1.590   1.352 -1.7960  0.8462  0.4212
 5854TIP3    H217506   4.921   1.656   1.341 -0.1703 -2.4148 -0.3543
 5855TIP3   OH217507   3.354   0.231   4.000  0.0787 -0.0501 -0.0437
 5855TIP3    H117508   3.350   0.326   4.014 -1.6415 -0.1089 -0.0382
 5855TIP3    H217509   3.390   0.221   3.912  0.5732  0.5836  0.0738
 5856TIP3   OH217510   5.697   7.366   5.735  0.1326  0.0583 -0.0264
 5856TIP3    H117511   5.750   7.349   5.813 -0.0017  1.3947  0.3909
 5856TIP3    H217512   5.637   7.436   5.762 -0.7350 -0.2912 -0.9807
 5857TIP3   OH217513   3.267   5.824   2.530 -0.5164 -0.0818 -0.5640
 5857TIP3    H117514   3.353   5.861   2.511 -0.9221  0.7019 -0.9030
 5857TIP3    H217515   3.241   5.781   2.449 -0.8380  0.4659 -0.7528
 5858TIP3   OH217516   2.159   3.246   1.557 -0.3420  0.2040 -0.5486
 5858TIP3    H117517   2.183   3.245   1.464 -0.6223  0.4374 -0.6270
 5858TIP3    H217518   2.216   3.182   1.598  1.4665  1.7792 -0.4778
 5859TIP3   OH217519   0.185   1.004   6.059  0.0046  0.7297 -0.0034
 5859TIP3    H117520   0.171   1.019   5.965 -0.5810 -0.1437 -0.0672
 5859TIP3    H217521   0.233   1.082   6.089  1.4245  0.3887 -1.2955
 5860TIP3   OH217522   6.659   7.700   1.169  0.2184  0.1540  0.6516
 5860TIP3    H117523   6.662   7.605   1.163 -0.3617  0.1632  0.0712
 5860TIP3    H217524   6.583   7.719   1.223  0.6834  0.2763  1.2653
 5861TIP3   OH217525   6.496   7.314   1.736  0.4280  0.1701 -0.1254
 5861TIP3    H117526   6.555   7.310   1.662  0.8174 -2.0938  0.2410
 5861TIP3    H217527   6.527   7.246   1.796 -1.5461  0.0293  0.8299
 5862TIP3   OH217528   2.373   4.867   0.600 -0.4368 -0.0438 -0.5082
 5862TIP3    H117529   2.330   4.948   0.628 -1.9547 -0.4308 -1.5691
 5862TIP3    H217530   2.419   4.891   0.520  0.0309  0.0120 -0.2247
 5863TIP3   OH217531   3.295   6.164   4.674  0.1470  0.3241 -0.1570
 5863TIP3    H117532   3.243   6.233   4.713  1.6234  1.1951  0.3444
 5863TIP3    H217533   3.243   6.084   4.686  0.2403  0.6256  3.0589
 5864TIP3   OH217534   0.061   6.191   2.193  0.2698 -0.4869  0.3359
 5864TIP3    H117535   0.102   6.188   2.106  1.2240  3.2947  0.4306
 5864TIP3    H217536  -0.013   6.132   2.187  1.3287 -1.7269 -2.4617
 5865TIP3   OH217537   1.202   0.723   5.749  0.5783  0.0425  0.0547
 5865TIP3    H117538   1.239   0.641   5.782  0.6402  0.6150  1.4757
 5865TIP3    H217539   1.132   0.744   5.811  1.1095  1.4914  0.1858
 5866TIP3   OH217540   6.237   5.787   5.641  0.0787 -0.9050 -0.0351
 5866TIP3    H117541   6.240   5.824   5.553 -0.5747  0.5227  0.5249
 5866TIP3    H217542   6.319   5.816   5.682 -1.0226  1.1557  0.8460
 5867TIP3   OH217543   5.261   7.482   2.757 -0.0156  0.8466  0.3014
 5867TIP3    H117544   5.342   7.532   2.764  0.2755  0.2111  1.8615
 5867TIP3    H217545   5.288   7.400   2.714 -0.0226  1.0154 -0.0297
 5868TIP3   OH217546   6.523   6.064   0.181 -0.6039 -0.3218  0.2504
 5868TIP3    H117547   6.532   6.057   0.086 -0.1150 -3.0513  0.4179
 5868TIP3    H217548   6.429   6.054   0.198 -0.5391 -1.2779  0.1045
 5869TIP3   OH217549   4.465   6.105   1.938 -0.1852  0.7827 -0.5403
 5869TIP3    H117550   4.514   6.120   2.018 -1.6628  0.6074  0.4381
 5869TIP3    H217551   4.442   6.192   1.906  0.0986  0.8411 -0.5885
 5870TIP3   OH217552   5.680   3.852   5.528  0.0416 -0.7187  0.1163
 5870TIP3    H117553   5.650   3.792   5.459  0.7464 -0.5809 -0.3121
 5870TIP3    H217554   5.666   3.803   5.609  0.4722 -1.4106 -0.2205
 5871TIP3   OH217555   5.249   2.497   6.231  0.0478 -0.0162  0.0176
 5871TIP3    H117556   5.266   2.570   6.290  1.6197  1.6872 -2.3761
 5871TIP3    H217557   5.155   2.501   6.214  0.0471  1.2183  0.2524
 5872TIP3   OH217558   5.247   2.375   2.721 -0.4559  0.1413  0.1108
 5872TIP3    H117559   5.304   2.410   2.789 -0.0516  1.8879 -1.0570
 5872TIP3    H217560   5.185   2.446   2.703 -0.8113 -0.4382 -1.0310
 5873TIP3   OH217561   5.638   2.926   5.532 -0.0297 -0.4066  0.6206
 5873TIP3    H117562   5.595   2.990   5.588 -0.8244  0.6103 -1.0834
 5873TIP3    H217563   5.617   2.841   5.571 -2.3121  0.1441  0.7301
 5874TIP3   OH217564   4.042   6.681   5.177  0.2481 -0.0541 -0.3651
 5874TIP3    H117565   4.038   6.599   5.226 -0.6189  1.7991  2.9786
 5874TIP3    H217566   4.125   6.721   5.204 -0.0558  0.8587 -0.7255
 5875TIP3   OH217567   3.227   3.491   2.983  0.5809 -0.1178  0.3253
 5875TIP3    H117568   3.216   3.586   2.977 -0.6654 -0.2245  0.6172
 5875TIP3    H217569   3.174   3.455   2.912 -0.7560 -0.6670  1.5517
 5876TIP3   OH217570   8.187   4.487   3.676  0.4088  0.5684  0.1552
 5876TIP3    H117571   8.179   4.432   3.754  1.5300 -0.8404 -0.6691
 5876TIP3    H217572   8.211   4.573   3.709 -1.6794  0.7129  1.5053
 5877TIP3   OH217573   4.918   7.778   5.096 -0.2469 -0.2365 -0.9146
 5877TIP3    H117574   4.974   7.815   5.164 -0.3559  1.1088 -1.5169
 5877TIP3    H217575   4.974   7.717   5.048  0.5422  0.6449 -1.1357
 5878TIP3   OH217576   4.893   3.918   0.418  0.6360 -0.1861 -0.4993
 5878TIP3    H117577   4.857   4.006   0.431  1.5724  0.1340 -0.0034
 5878TIP3    H217578   4.944   3.901   0.497  0.4567 -1.1907 -0.5826
 5879TIP3   OH217579   7.440   0.385   3.211  0.8731  0.6728  0.7408
 5879TIP3    H117580   7.351   0.418   3.227  0.1492 -1.2829  1.0672
 5879TIP3    H217581   7.493   0.427   3.278  0.3796  2.5145  0.0276
 5880TIP3   OH217582   7.065   0.398   4.196  0.4596  0.0417  0.2734
 5880TIP3    H117583   7.138   0.458   4.182  1.2864 -0.8681  0.5595
 5880TIP3    H217584   7.047   0.404   4.290 -0.7000  1.2107  0.0034
 5881TIP3   OH217585   0.673   2.120   5.484  0.6133 -0.2723 -0.9815
 5881TIP3    H117586   0.598   2.176   5.467  0.5227 -0.4138 -1.0447
 5881TIP3    H217587   0.691   2.076   5.401  0.1028 -1.0414 -0.6918
 5882TIP3   OH217588   1.179   3.260   2.957 -0.0156  0.5593  0.3819
 5882TIP3    H117589   1.231   3.328   2.914  1.0784 -0.5690 -0.1290
 5882TIP3    H217590   1.197   3.181   2.906 -0.2932 -0.3844  1.7121
 5883TIP3   OH217591   7.766   6.962   5.210 -0.2201  0.3744 -0.0408
 5883TIP3    H117592   7.732   6.995   5.127 -1.4159 -1.0001 -0.1371
 5883TIP3    H217593   7.742   6.869   5.211  0.0602  0.2767  1.6822
 5884TIP3   OH217594   3.605   4.991   6.517 -0.4342  0.1160  0.1047
 5884TIP3    H117595   3.540   5.033   6.460  0.8678 -0.5761 -2.0086
 5884TIP3    H217596   3.601   4.898   6.493  0.3282 -0.1485  0.9687
 5885TIP3   OH217597   4.938   2.324   2.634 -0.0710  0.4432  0.2278
 5885TIP3    H117598   4.857   2.291   2.596  0.4216  0.5745 -1.0006
 5885TIP3    H217599   4.971   2.252   2.688  0.9905 -1.1793 -2.4014
 5886TIP3   OH217600   6.717   7.776   5.258  0.2834  0.0565  0.1970
 5886TIP3    H117601   6.769   7.697   5.265 -0.0602 -0.1161  0.8587
 5886TIP3    H217602   6.773   7.838   5.210  0.4727 -0.6435 -0.5024
 5887TIP3   OH217603   4.241   5.638   0.499  0.2078 -0.3757 -0.2242
 5887TIP3    H117604   4.224   5.577   0.428 -0.4070  0.7247 -1.0653
 5887TIP3    H217605   4.312   5.693   0.466  0.6002 -0.4839  0.4265
 5888TIP3   OH217606   8.127   4.198   1.299  0.8040 -0.4039  0.2760
 5888TIP3    H117607   8.154   4.242   1.219 -1.7560  0.2517 -0.2937
 5888TIP3    H217608   8.138   4.105   1.280  0.8303 -0.2318 -0.5826
 5889TIP3   OH217609   3.741   7.538   0.947  0.3602 -0.5941  0.7259
 5889TIP3    H117610   3.702   7.481   1.012 -1.9325 -0.5063 -0.4653
 5889TIP3    H217611   3.809   7.484   0.905 -0.2593 -1.6826  1.0973
 5890TIP3   OH217612   4.497   1.070   0.593  0.5742 -0.1717  0.1977
 5890TIP3    H117613   4.544   1.143   0.632 -0.2563 -0.5885  2.1155
 5890TIP3    H217614   4.405   1.097   0.596  0.5256  0.1420 -2.3752
 5891TIP3   OH217615   4.745   3.916   3.670  0.3191 -0.3938 -0.0138
 5891TIP3    H117616   4.695   3.996   3.656 -0.2528 -0.7449 -0.0195
 5891TIP3    H217617   4.800   3.934   3.747 -1.0275 -0.5526  1.0215
 5892TIP3   OH217618   3.573   0.296   4.328 -0.4353  0.3046 -0.8995
 5892TIP3    H117619   3.496   0.322   4.378 -0.1088  0.6229 -0.5476
 5892TIP3    H217620   3.620   0.378   4.312  1.3158 -0.1100  1.4090
 5893TIP3   OH217621   7.950   3.077   6.183 -0.0487  0.2655  0.1817
 5893TIP3    H117622   7.886   3.101   6.115 -1.9471  0.3561  1.8853
 5893TIP3    H217623   8.032   3.117   6.154 -0.8754  0.6617 -1.8124
 5894TIP3   OH217624   7.972   7.667   5.850  0.1570  0.4062 -0.1973
 5894TIP3    H117625   8.005   7.628   5.930  2.1012  3.8963  0.8787
 5894TIP3    H217626   8.050   7.685   5.797 -0.9204 -0.0550 -2.0430
 5895TIP3   OH217627   7.050   7.122   6.783 -0.2691 -0.2127  0.1774
 5895TIP3    H117628   7.008   7.199   6.822 -0.4075 -0.1938 -0.0048
 5895TIP3    H217629   6.993   7.099   6.709  0.8975  0.7794 -1.0681
 5896TIP3   OH217630   7.821   5.790   6.543  0.0001  0.1911 -0.0399
 5896TIP3    H117631   7.731   5.804   6.572  0.1121 -0.1544  0.5070
 5896TIP3    H217632   7.873   5.848   6.599  0.1189  0.3719 -0.3381
 5897TIP3   OH217633   8.083   7.053   5.654 -0.4981  0.1280 -0.2208
 5897TIP3    H117634   8.018   7.058   5.725 -0.8007 -0.8192 -0.4172
 5897TIP3    H217635   8.049   6.985   5.595  0.6154 -0.3027 -0.3868
 5898TIP3   OH217636   8.147   4.010   5.880 -0.1781 -0.2791  0.4655
 5898TIP3    H117637   8.126   4.098   5.849 -2.0240 -0.8207  0.0164
 5898TIP3    H217638   8.242   4.006   5.880 -0.0453  0.7735 -2.2684
 5899TIP3   OH217639   1.066   2.480   0.269 -0.2253 -0.9634 -0.5512
 5899TIP3    H117640   1.113   2.436   0.340  0.0415  1.1378  0.6885
 5899TIP3    H217641   1.135   2.516   0.213 -0.3959 -0.7894 -0.6523
 5900TIP3   OH217642   4.719   1.619   2.138 -0.0902  0.0233 -0.6534
 5900TIP3    H117643   4.658   1.641   2.067  0.6256  1.1364 -0.9429
 5900TIP3    H217644   4.722   1.523   2.138 -0.6636 -0.0073 -1.6468
 5901TIP3   OH217645   0.893   7.746   5.377 -0.9540  0.4236 -0.0208
 5901TIP3    H117646   0.908   7.804   5.303 -0.1732  1.5116  0.9531
 5901TIP3    H217647   0.923   7.796   5.453 -0.2113 -1.2718  0.8516
 5902TIP3   OH217648   2.725   6.495   2.823 -0.1149  0.1411 -0.6147
 5902TIP3    H117649   2.709   6.438   2.748 -1.3242  0.6200 -0.7350
 5902TIP3    H217650   2.677   6.576   2.803  0.4855  0.7108  0.1596
 5903TIP3   OH217651   0.876   5.112   4.786 -0.0443  0.4517 -0.2554
 5903TIP3    H117652   0.821   5.188   4.765 -0.2974 -0.2034 -2.2349
 5903TIP3    H217653   0.826   5.062   4.849  0.3217  2.1157  1.4323
 5904TIP3   OH217654   1.958   4.223   2.810 -0.1087 -0.3880  0.7295
 5904TIP3    H117655   1.925   4.221   2.720  0.2597 -1.2905  0.6066
 5904TIP3    H217656   1.947   4.315   2.838 -0.1862 -0.0948 -0.2416
 5905TIP3   OH217657   2.331   5.168   3.882 -0.7267  0.0856  0.1581
 5905TIP3    H117658   2.281   5.222   3.820  0.2425  0.6683 -0.1476
 5905TIP3    H217659   2.401   5.130   3.829 -1.8595 -2.1978  0.1898
 5906TIP3   OH217660   0.126   1.477   1.608 -0.5056  0.6371  0.7115
 5906TIP3    H117661   0.041   1.454   1.571  0.1127  1.9613 -1.7644
 5906TIP3    H217662   0.122   1.571   1.622  0.0577  0.4833  2.0771
 5907TIP3   OH217663   2.313   4.779   2.907  0.1047  0.0891  0.2931
 5907TIP3    H117664   2.335   4.800   2.817  0.5933 -0.4492  0.2815
 5907TIP3    H217665   2.362   4.699   2.926  2.6836  1.9265  2.0652
 5908TIP3   OH217666   5.000   3.593   4.162 -0.2117 -0.5941  0.3498
 5908TIP3    H117667   4.954   3.520   4.204 -0.1962  0.0602  1.5292
 5908TIP3    H217668   5.026   3.650   4.234  0.7760  0.0121 -0.4646
 5909TIP3   OH217669   1.827   0.463   3.526  0.5214 -0.5676 -0.4418
 5909TIP3    H117670   1.736   0.440   3.546  0.4727  0.0922  0.1442
 5909TIP3    H217671   1.844   0.422   3.441  0.0114 -1.5719 -0.0741
 5910TIP3   OH217672   4.284   4.601   0.276 -0.1391  0.1655 -0.4359
 5910TIP3    H117673   4.285   4.693   0.251 -0.2474  0.3714  0.3034
 5910TIP3    H217674   4.221   4.561   0.215  1.0410  0.2703 -1.7654
 5911TIP3   OH217675   3.791   1.044   4.284 -0.4654 -0.0384 -0.1173
 5911TIP3    H117676   3.848   1.115   4.255  1.2919 -1.2865  0.1022
 5911TIP3    H217677   3.760   1.072   4.370  1.9227 -0.3650  0.9545
 5912TIP3   OH217678   6.199   4.709   2.155 -0.1045 -0.2095 -0.2450
 5912TIP3    H117679   6.289   4.717   2.124 -0.3452  0.7913 -0.7528
 5912TIP3    H217680   6.163   4.634   2.108  0.6271 -0.9601  0.3829
 5913TIP3   OH217681   4.318   3.323   0.882  0.2229  0.5734  0.0858
 5913TIP3    H117682   4.312   3.379   0.805  0.6222  1.2254  0.5227
 5913TIP3    H217683   4.349   3.239   0.848 -0.4312  0.5967 -0.5794
 5914TIP3   OH217684   2.501   6.702   4.178 -0.2218 -0.2754 -0.1226
 5914TIP3    H117685   2.523   6.726   4.268 -0.8870  1.1255 -0.3158
 5914TIP3    H217686   2.474   6.784   4.137 -2.2570 -1.2711 -0.9148
 5915TIP3   OH217687   6.360   5.762   4.203 -0.4374  0.0793  0.0106
 5915TIP3    H117688   6.367   5.831   4.137  0.9230 -0.3005 -0.2698
 5915TIP3    H217689   6.364   5.681   4.154 -1.7336 -0.2242  0.3682
 5916TIP3   OH217690   4.696   5.213   0.729 -0.0195  0.2666 -0.2136
 5916TIP3    H117691   4.608   5.187   0.701 -0.0352 -1.0867  0.9572
 5916TIP3    H217692   4.685   5.301   0.764 -0.5535  0.8001 -1.6611
 5917TIP3   OH217693   5.416   5.285   0.954  0.0596  0.6091 -0.2081
 5917TIP3    H117694   5.509   5.294   0.932  0.5521  0.3612  1.5881
 5917TIP3    H217695   5.384   5.375   0.956  0.5005  0.7648  0.0648
 5918TIP3   OH217696   3.077   5.886   4.001  0.3728  0.1477  0.4730
 5918TIP3    H117697   3.166   5.859   4.023  0.4512  1.4906  2.0015
 5918TIP3    H217698   3.023   5.809   4.019  0.9638 -0.0026  1.6564
 5919TIP3   OH217699   2.651   3.744   5.695  0.2020  0.2239  0.3411
 5919TIP3    H117700   2.656   3.801   5.619 -0.2911  0.4926  0.5099
 5919TIP3    H217701   2.623   3.800   5.767 -1.4277 -0.4480  0.2604
 5920TIP3   OH217702   5.038   5.649   6.080 -1.0636 -0.3432  0.1330
 5920TIP3    H117703   5.129   5.620   6.086 -0.4942  1.2252 -0.4975
 5920TIP3    H217704   5.036   5.732   6.128 -1.8113  0.3532 -1.0558
 5921TIP3   OH217705   3.646   7.084   3.540 -0.2512 -0.2082 -0.3554
 5921TIP3    H117706   3.650   7.129   3.456  0.3112 -0.1819 -0.3169
 5921TIP3    H217707   3.687   7.144   3.602  1.1654 -1.0470 -0.4292
 5922TIP3   OH217708   6.401   0.188   6.271  0.1050 -0.2284  0.0788
 5922TIP3    H117709   6.491   0.175   6.242  0.2407  0.7242  0.0534
 5922TIP3    H217710   6.384   0.115   6.331  1.0070 -0.2232  0.3516
 5923TIP3   OH217711   5.655   5.032   1.562 -0.3894  0.6239 -0.2217
 5923TIP3    H117712   5.684   5.121   1.584 -1.2949  0.8957 -0.0774
 5923TIP3    H217713   5.567   5.026   1.600 -0.0974 -0.5480  0.2826
 5924TIP3   OH217714   6.054   5.755   2.612 -0.3661  0.2048  0.7595
 5924TIP3    H117715   5.963   5.759   2.584  0.1350  0.9231 -0.9034
 5924TIP3    H217716   6.055   5.797   2.698 -1.5668  0.3461  0.7148
 5925TIP3   OH217717   3.298   5.957   0.755  0.5007  0.1679 -0.4976
 5925TIP3    H117718   3.310   5.864   0.735 -0.5392  0.0039 -0.4019
 5925TIP3    H217719   3.246   5.958   0.835  2.6824  0.8375  1.0220
 5926TIP3   OH217720   2.756   4.573   3.122  0.0608  0.2406  0.0109
 5926TIP3    H117721   2.809   4.637   3.170 -0.6431  0.1700  0.9028
 5926TIP3    H217722   2.668   4.582   3.159 -0.8401  1.1204 -2.1998
 5927TIP3   OH217723   0.316   1.522   0.291 -0.0957 -0.3478  0.0609
 5927TIP3    H117724   0.296   1.431   0.313  0.6567 -0.8640 -1.3043
 5927TIP3    H217725   0.252   1.545   0.224 -0.6980  0.3619  0.8548
 5928TIP3   OH217726   1.183   7.141   5.708 -0.0172  0.0902  0.3426
 5928TIP3    H117727   1.103   7.178   5.671  0.3317  0.3136 -0.2008
 5928TIP3    H217728   1.253   7.177   5.653  0.2308 -2.7245 -1.3858
 5929TIP3   OH217729   4.567   1.367   4.987  0.2443 -0.0730  0.5281
 5929TIP3    H117730   4.644   1.420   4.967  0.4545 -0.9765 -1.1857
 5929TIP3    H217731   4.592   1.278   4.965 -0.5529 -0.7278  2.1135
 5930TIP3   OH217732   3.615   1.351   3.047 -0.0212  0.3114  0.2121
 5930TIP3    H117733   3.629   1.446   3.038 -0.9800  0.2995 -1.9396
 5930TIP3    H217734   3.695   1.312   3.013 -0.0266  0.3366  0.1706
 5931TIP3   OH217735   1.381   0.192   0.755 -0.2420 -0.0323  0.4552
 5931TIP3    H117736   1.330   0.230   0.684  1.9596  0.5313 -0.9590
 5931TIP3    H217737   1.317   0.156   0.816 -2.2592  1.0305 -0.9500
 5932TIP3   OH217738   7.244   2.941   3.165  0.1168  0.8385 -0.0096
 5932TIP3    H117739   7.199   2.936   3.249  0.3348 -0.5677  0.0474
 5932TIP3    H217740   7.178   2.913   3.101  0.7661 -0.9306  0.0389
 5933TIP3   OH217741   4.624   1.529   3.607 -0.2854 -0.4152  0.0855
 5933TIP3    H117742   4.678   1.483   3.672 -1.0669 -0.6910  0.5639
 5933TIP3    H217743   4.576   1.459   3.563 -0.3522 -0.1640 -0.2449
 5934TIP3   OH217744   3.004   0.496   6.485  0.2818  0.1205  0.3340
 5934TIP3    H117745   3.070   0.565   6.487  0.9888 -0.5540  1.1650
 5934TIP3    H217746   2.943   0.520   6.554 -0.4152  0.7971 -0.5007
 5935TIP3   OH217747   0.349   7.634   3.273 -0.0923 -0.5036  0.3154
 5935TIP3    H117748   0.285   7.624   3.344  0.2147  0.3880  0.7339
 5935TIP3    H217749   0.302   7.683   3.206  0.5278  1.3572  1.1805
 5936TIP3   OH217750   6.681   5.571   5.922  0.4053 -0.4328 -0.0451
 5936TIP3    H117751   6.631   5.509   5.868  0.9669 -1.7574  0.8853
 5936TIP3    H217752   6.704   5.642   5.863 -2.3604  0.1234 -0.5693
 5937TIP3   OH217753   4.529   1.587   0.856 -0.3364  0.1663 -0.2832
 5937TIP3    H117754   4.546   1.602   0.763 -1.9734 -2.3633 -1.1003
 5937TIP3    H217755   4.457   1.647   0.877 -1.2297 -0.5643 -1.1839
 5938TIP3   OH217756   3.247   6.547   3.958  0.2249 -0.1363  0.3527
 5938TIP3    H117757   3.246   6.457   3.925 -0.9020  0.2012 -0.6152
 5938TIP3    H217758   3.157   6.561   3.989 -0.1637  1.2859 -1.3161
 5939TIP3   OH217759   8.248   3.939   2.773 -0.7426  0.3472 -0.3742
 5939TIP3    H117760   8.243   3.918   2.680  1.4030  0.0228 -0.4568
 5939TIP3    H217761   8.255   3.854   2.816 -2.1932  0.4664  0.1691
 5940TIP3   OH217762   4.294   4.362   6.546  0.1440 -0.1181  0.1108
 5940TIP3    H117763   4.294   4.457   6.555  0.1256 -0.1164  0.0914
 5940TIP3    H217764   4.248   4.331   6.625 -1.9708 -0.0031 -0.9942
 5941TIP3   OH217765   2.667   4.153   0.044  0.1028  0.0766 -0.5133
 5941TIP3    H117766   2.743   4.111   0.084  0.5707  1.1090 -0.2897
 5941TIP3    H217767   2.682   4.247   0.056 -1.7141  0.3004  0.4957
 5942TIP3   OH217768   1.842   1.043   0.730  0.0393 -0.3312 -0.0560
 5942TIP3    H117769   1.897   1.102   0.677  0.0544 -0.0609  0.2590
 5942TIP3    H217770   1.807   1.098   0.799 -0.6165 -0.5097 -0.2362
 5943TIP3   OH217771   3.514   3.421   3.974  0.7105 -0.3593 -0.5213
 5943TIP3    H117772   3.525   3.359   4.047 -2.3273 -0.2069  0.2261
 5943TIP3    H217773   3.557   3.501   4.004 -0.2658 -0.3830  1.0738
 5944TIP3   OH217774   7.574   0.834   4.990 -0.1060  0.2000 -1.1160
 5944TIP3    H117775   7.573   0.794   5.077  0.1962  0.8047 -0.8205
 5944TIP3    H217776   7.532   0.770   4.933 -2.4163  0.7057 -0.1156
 5945TIP3   OH217777   2.963   4.873   5.693  0.3800 -0.3693 -0.5577
 5945TIP3    H117778   2.875   4.843   5.715  0.6794  0.3814  1.9806
 5945TIP3    H217779   3.017   4.795   5.701  0.0765 -0.6617 -1.3043
 5946TIP3   OH217780   6.910   6.705   2.471 -0.0152 -0.0381 -0.6074
 5946TIP3    H117781   6.997   6.729   2.440  0.0907  2.0531  1.1025
 5946TIP3    H217782   6.889   6.624   2.424  1.7393  0.7906 -2.9993
 5947TIP3   OH217783   2.747   2.363   5.299 -0.3702 -0.1795  0.5344
 5947TIP3    H117784   2.695   2.284   5.314 -1.6645  0.9761  2.5503
 5947TIP3    H217785   2.808   2.366   5.372  0.9960 -0.2770 -0.5691
 5948TIP3   OH217786   6.848   3.801   2.868 -0.4918  0.1820  0.1398
 5948TIP3    H117787   6.765   3.833   2.834 -1.6275  0.0519  2.5588
 5948TIP3    H217788   6.827   3.765   2.954  2.1165  0.4447  0.9980
 5949TIP3   OH217789   6.578   2.596   5.507  0.6460 -0.0217  0.2397
 5949TIP3    H117790   6.552   2.658   5.439  2.1852 -1.5818 -1.9254
 5949TIP3    H217791   6.501   2.588   5.563  0.4240  3.9072  0.8110
 5950TIP3   OH217792   7.411   6.518   1.265  0.6718 -0.7440 -0.5871
 5950TIP3    H117793   7.456   6.602   1.267 -0.2846 -0.2280  0.7271
 5950TIP3    H217794   7.475   6.457   1.228  2.2157  0.0842  0.6346
 5951TIP3   OH217795   5.964   5.464   2.586  0.2459  0.3041  0.0393
 5951TIP3    H117796   5.883   5.454   2.536  0.3208 -0.6733  0.1111
 5951TIP3    H217797   5.994   5.553   2.564 -0.2473  0.2592 -0.8759
 5952TIP3   OH217798   1.210   4.059   5.871  0.0951  0.2597  0.5343
 5952TIP3    H117799   1.164   4.066   5.788  1.1635  2.8364  0.0711
 5952TIP3    H217800   1.157   4.109   5.933  1.3359  1.8998  0.3589
 5953TIP3   OH217801   1.633   6.572   4.014  0.2304 -0.0474  0.4217
 5953TIP3    H117802   1.575   6.539   3.946  1.0198  0.6898 -0.6332
 5953TIP3    H217803   1.699   6.623   3.967  0.1730  1.3928  1.8192
 5954TIP3   OH217804   7.074   5.824   2.893  0.1441  0.4879 -0.4291
 5954TIP3    H117805   7.060   5.851   2.802  2.5145 -0.6051 -1.2127
 5954TIP3    H217806   7.064   5.729   2.892  0.5346  0.4282  0.3573
 5955TIP3   OH217807   1.365   3.666   6.127 -0.6398  0.5174  0.1347
 5955TIP3    H117808   1.290   3.657   6.185 -1.1063 -1.2659 -0.6607
 5955TIP3    H217809   1.438   3.690   6.184 -0.9580 -1.6969  1.5994
 5956TIP3   OH217810   2.013   4.104   0.549  0.0141  0.1157 -0.5169
 5956TIP3    H117811   2.012   4.058   0.632 -0.2492  0.2256 -0.4592
 5956TIP3    H217812   2.058   4.186   0.567 -1.0447  0.6397 -0.2155
 5957TIP3   OH217813   6.774   2.185   6.748  0.2683 -0.5030 -0.3577
 5957TIP3    H117814   6.822   2.102   6.748 -0.6997 -1.0743 -0.2625
 5957TIP3    H217815   6.687   2.163   6.715  0.2236  0.6128 -1.0212
 5958TIP3   OH217816   5.164   2.917   2.883  0.1226  0.4598  0.3678
 5958TIP3    H117817   5.196   2.917   2.792 -1.6130  1.4766 -0.2952
 5958TIP3    H217818   5.182   3.005   2.914 -1.1764  0.7827  0.2667
 5959TIP3   OH217819   3.560   2.276   3.554  0.1079 -0.3601 -0.6014
 5959TIP3    H117820   3.636   2.269   3.611  0.6613  0.5560 -1.2163
 5959TIP3    H217821   3.595   2.299   3.468 -0.8590  0.1198 -0.8905
 5960TIP3   OH217822   5.039   6.792   4.330 -0.3732 -0.5273  0.0941
 5960TIP3    H117823   5.058   6.715   4.385 -0.6336  0.5488  1.7437
 5960TIP3    H217824   4.956   6.825   4.363 -0.9871 -0.3310 -1.5533
 5961TIP3   OH217825   0.741   6.545   6.462  0.1798  0.3637 -0.6553
 5961TIP3    H117826   0.724   6.633   6.428 -0.1571  0.2281 -0.8347
 5961TIP3    H217827   0.761   6.559   6.555 -2.6872  0.3593  0.0369
 5962TIP3   OH217828   7.485   4.584   5.184 -0.0230  0.6827  0.3426
 5962TIP3    H117829   7.523   4.661   5.142  2.5986 -0.8130 -0.2549
 5962TIP3    H217830   7.544   4.512   5.160 -2.4396 -1.5759  0.7159
 5963TIP3   OH217831   3.642   4.615   6.670 -0.2207 -0.0488 -0.0888
 5963TIP3    H117832   3.707   4.620   6.601  0.7016 -1.9005  0.5745
 5963TIP3    H217833   3.656   4.529   6.710 -2.0385  0.1502  1.1019
 5964TIP3   OH217834   0.120   0.666   3.170  0.1084  0.0289 -0.1981
 5964TIP3    H117835   0.049   0.727   3.192  0.7203 -0.1316  2.7324
 5964TIP3    H217836   0.184   0.720   3.124 -0.8034  0.7910 -0.6065
 5965TIP3   OH217837   4.746   7.041   2.267  0.3535  0.1474 -0.3823
 5965TIP3    H117838   4.814   6.984   2.304 -1.5043  0.7030  4.6260
 5965TIP3    H217839   4.669   6.985   2.261 -0.2519  0.9281 -0.0860
 5966TIP3   OH217840   3.830   4.670   6.469  0.0814  0.1381 -0.5557
 5966TIP3    H117841   3.750   4.680   6.417 -0.5857  2.5994  0.7821
 5966TIP3    H217842   3.900   4.663   6.404 -1.0252 -0.0906 -1.7728
 5967TIP3   OH217843   7.734   6.306   5.821 -0.5922 -0.2596 -0.3255
 5967TIP3    H117844   7.815   6.357   5.829  0.2747 -1.5979 -0.0440
 5967TIP3    H217845   7.672   6.351   5.878 -0.0102  0.7315 -0.4408
 5968TIP3   OH217846   7.318   2.970   3.804  0.1301 -0.1093  0.1983
 5968TIP3    H117847   7.368   3.021   3.740  0.1345 -0.0457  0.2520
 5968TIP3    H217848   7.254   3.032   3.839 -0.7967 -0.4951 -0.7402
 5969TIP3   OH217849   3.087   7.655   5.107 -0.2591  0.2343 -0.8317
 5969TIP3    H117850   3.039   7.583   5.148 -2.3933  1.5888 -0.7951
 5969TIP3    H217851   3.020   7.707   5.062  1.2978  1.7845 -1.5119
 5970TIP3   OH217852   5.563   7.021   0.095 -0.4479  0.9401 -0.3884
 5970TIP3    H117853   5.478   6.977   0.097 -1.9306  3.6507  1.3317
 5970TIP3    H217854   5.558   7.079   0.019 -0.4786  1.6828  0.1739
 5971TIP3   OH217855   5.705   5.175   1.985  0.2802 -0.4011 -0.3626
 5971TIP3    H117856   5.704   5.108   1.916  1.1044  1.5635 -2.4109
 5971TIP3    H217857   5.613   5.197   1.998  0.1066 -0.8072 -0.8521
 5972TIP3   OH217858   0.326   6.676   0.096 -0.3671 -0.3053  0.0183
 5972TIP3    H117859   0.376   6.721   0.163 -0.6857  0.0954 -0.0070
 5972TIP3    H217860   0.278   6.746   0.051 -0.4471 -0.6089 -0.3781
 5973TIP3   OH217861   4.356   6.547   4.429 -0.3994 -0.4041 -0.4263
 5973TIP3    H117862   4.359   6.453   4.416 -0.0147 -0.2455 -1.6544
 5973TIP3    H217863   4.290   6.561   4.497  0.7413 -1.6557  1.0059
 5974TIP3   OH217864   6.756   0.509   3.112  0.3307  0.2532  0.2120
 5974TIP3    H117865   6.771   0.476   3.023 -0.6114  1.1657 -0.3091
 5974TIP3    H217866   6.742   0.603   3.100 -1.1406  0.1737  1.1660
 5975TIP3   OH217867   6.847   6.677   5.685  0.1161 -0.6880  0.4612
 5975TIP3    H117868   6.776   6.734   5.655  0.4545 -0.2298  0.5227
 5975TIP3    H217869   6.922   6.736   5.697  0.2717 -1.0265  1.2078
 5976TIP3   OH217870   4.130   4.685   1.540 -0.3656  0.1832 -0.3783
 5976TIP3    H117871   4.037   4.679   1.560 -0.2908 -0.5388 -0.1989
 5976TIP3    H217872   4.134   4.688   1.444 -0.5171 -1.7558 -0.4930
 5977TIP3   OH217873   6.488   2.199   2.309 -0.1408  0.2631  0.1355
 5977TIP3    H117874   6.472   2.264   2.241 -1.8552 -0.5242 -0.2760
 5977TIP3    H217875   6.492   2.249   2.390  2.8901  1.3458 -0.5245
 5978TIP3   OH217876   2.215   0.383   2.246 -0.1127 -0.1092  0.2919
 5978TIP3    H117877   2.239   0.425   2.329 -0.0745 -1.4122  0.9689
 5978TIP3    H217878   2.206   0.290   2.268  1.2630 -0.6973 -1.4589
 5979TIP3   OH217879   7.750   6.446   0.219 -0.2343 -0.4325 -0.3524
 5979TIP3    H117880   7.828   6.436   0.165 -1.1562  0.2077 -1.8794
 5979TIP3    H217881   7.769   6.521   0.276 -0.6923  1.5859 -2.6513
 5980TIP3   OH217882   4.806   2.986   1.715 -0.0510 -0.5335  0.4135
 5980TIP3    H117883   4.760   3.009   1.634 -1.0523  0.4205  1.2307
 5980TIP3    H217884   4.746   3.013   1.785  2.1363  1.7093  1.5632
 5981TIP3   OH217885   5.758   6.310   3.726  0.3229 -0.2175 -0.1190
 5981TIP3    H117886   5.798   6.237   3.774 -0.6899  0.1303  1.3226
 5981TIP3    H217887   5.830   6.347   3.675  1.0292 -1.7384 -0.2960
 5982TIP3   OH217888   3.217   4.053   6.697  0.2336  0.1251 -0.2059
 5982TIP3    H117889   3.132   4.020   6.668  0.7972 -1.6778  0.0813
 5982TIP3    H217890   3.211   4.148   6.685 -1.6226 -0.0116 -0.6710
 5983TIP3   OH217891   0.703   3.162   0.734 -0.1056 -0.0655  0.0379
 5983TIP3    H117892   0.640   3.218   0.688 -0.8447  0.1697  1.2781
 5983TIP3    H217893   0.708   3.083   0.681 -0.7489  0.2907 -0.5695
 5984TIP3   OH217894   5.591   0.839   2.979  0.0273  0.1298  0.1506
 5984TIP3    H117895   5.637   0.908   3.025  0.2157  0.0134  0.1354
 5984TIP3    H217896   5.518   0.884   2.936  0.3960  0.3895 -0.2108
 5985TIP3   OH217897   0.802   7.243   3.505  0.1598 -0.5904 -0.7830
 5985TIP3    H117898   0.827   7.215   3.417 -0.4380  1.2352 -1.5804
 5985TIP3    H217899   0.884   7.267   3.547  0.1908  2.5550 -2.3569
 5986TIP3   OH217900   0.112   3.945   5.878  0.7153 -0.2763  0.2047
 5986TIP3    H117901   0.195   3.987   5.858  1.1053 -0.8555  0.5794
 5986TIP3    H217902   0.132   3.852   5.881 -0.3811 -0.6637 -1.9164
 5987TIP3   OH217903   1.517   0.612   4.578  0.6009 -0.3898 -0.0988
 5987TIP3    H117904   1.562   0.659   4.649 -0.9476 -0.0277  0.6763
 5987TIP3    H217905   1.500   0.525   4.615  1.4289 -0.8261 -0.7140
 5988TIP3   OH217906   7.301   3.769   5.088  0.2663 -0.1638  0.0265
 5988TIP3    H117907   7.345   3.828   5.026 -0.9164 -1.1818 -1.8892
 5988TIP3    H217908   7.366   3.702   5.107  1.0086  0.7418  0.7925
 5989TIP3   OH217909   1.079   2.107   0.327  0.1376  0.5033 -0.0206
 5989TIP3    H117910   1.060   2.015   0.306  0.7398  0.1611  0.9006
 5989TIP3    H217911   1.163   2.124   0.285 -2.0565  2.1362 -4.4374
 5990TIP3   OH217912   3.337   5.684   5.272 -0.2617 -0.1421  0.7697
 5990TIP3    H117913   3.407   5.659   5.332 -1.0932 -1.4739  1.2284
 5990TIP3    H217914   3.286   5.604   5.261 -0.4342  0.2028 -1.3056
 5991TIP3   OH217915   1.873   1.591   3.026  0.5436 -0.2448 -0.5489
 5991TIP3    H117916   1.919   1.675   3.027 -0.2855  0.2210  0.3688
 5991TIP3    H217917   1.833   1.586   2.939  2.2579 -0.6492 -1.3545
 5992TIP3   OH217918   0.297   3.978   4.334  0.2424  0.0339  0.0748
 5992TIP3    H117919   0.336   4.046   4.389  2.4266 -0.2788 -0.9693
 5992TIP3    H217920   0.366   3.956   4.271 -0.1213 -3.5134  0.6920
 5993TIP3   OH217921   2.164   4.241   5.320 -0.3128 -0.2803  0.2888
 5993TIP3    H117922   2.161   4.335   5.339 -2.4598  0.2296 -2.0905
 5993TIP3    H217923   2.245   4.229   5.271 -0.7299  0.6453 -0.6611
 5994TIP3   OH217924   2.045   7.118   2.527 -0.0770 -0.1720  0.2323
 5994TIP3    H117925   2.027   7.041   2.580  2.9181  0.0910  1.8854
 5994TIP3    H217926   2.138   7.110   2.504  0.2862  2.7999  0.2900
 5995TIP3   OH217927   4.774   1.546   4.971  0.2785  0.1927 -0.5228
 5995TIP3    H117928   4.828   1.516   5.044 -0.4660 -1.3757 -0.5791
 5995TIP3    H217929   4.763   1.640   4.986  2.4647  0.4259 -0.1759
 5996TIP3   OH217930   6.947   3.359   1.160 -0.1520  0.0610 -0.0910
 5996TIP3    H117931   6.956   3.272   1.198 -0.5113  0.3337  0.6318
 5996TIP3    H217932   7.037   3.388   1.143  0.0527  0.1735  1.1154
 5997TIP3   OH217933   8.090   5.580   3.009  0.1785  0.2059  0.5426
 5997TIP3    H117934   8.031   5.637   2.959  1.1525 -0.9100 -2.0283
 5997TIP3    H217935   8.036   5.505   3.034  0.0158  0.1048 -0.0984
 5998TIP3   OH217936   3.829   6.899   6.554  0.3886 -0.1649 -0.0029
 5998TIP3    H117937   3.765   6.928   6.619 -1.4899 -2.5836 -0.6043
 5998TIP3    H217938   3.891   6.845   6.603 -0.2593 -0.9084  0.0134
 5999TIP3   OH217939   2.695   0.338   5.184  0.4400  0.4781  0.5925
 5999TIP3    H117940   2.712   0.387   5.265  0.0188  0.1574  0.8794
 5999TIP3    H217941   2.740   0.388   5.116  2.4333 -0.2770  1.3036
 6000TIP3   OH217942   5.930   4.907   0.005  0.1942  0.0655  0.1068
 6000TIP3    H117943   5.883   4.917   0.088 -1.3680  0.3901 -0.7886
 6000TIP3    H217944   5.949   4.996  -0.022 -0.6853  0.0421 -0.6309
 6001TIP3   OH217945   4.875   1.432   0.945  0.4136 -0.1668 -0.3894
 6001TIP3    H117946   4.811   1.466   1.008 -1.1203 -1.9307 -0.8929
 6001TIP3    H217947   4.851   1.340   0.934  3.4807 -1.1155 -0.1321
 6002TIP3   OH217948   3.083   7.728   1.136  0.6596 -0.1529  0.0322
 6002TIP3    H117949   3.058   7.642   1.169 -2.3432  0.8072  0.4944
 6002TIP3    H217950   3.038   7.736   1.052 -0.7659  1.6978  0.9071
 6003TIP3   OH217951   6.195   7.675   5.693 -0.3079 -0.3379 -0.0273
 6003TIP3    H117952   6.126   7.659   5.757  0.2139 -0.0382  0.6161
 6003TIP3    H217953   6.256   7.734   5.737  0.2956 -0.4947 -0.6330
 6004TIP3   OH217954   8.080   5.293   2.089  0.1243  0.2539 -0.3827
 6004TIP3    H117955   8.063   5.199   2.099 -0.8150  0.4696  0.1527
 6004TIP3    H217956   8.077   5.307   1.995 -0.1069 -0.1899 -0.4478
 6005TIP3   OH217957   6.272   4.948   2.267 -0.1006 -0.1455 -0.0660
 6005TIP3    H117958   6.257   4.876   2.206 -0.1584  0.5030 -0.8286
 6005TIP3    H217959   6.367   4.960   2.268 -0.2208  1.1573 -1.5942
 6006TIP3   OH217960   7.800   0.876   0.460  0.3558 -0.0788 -0.2160
 6006TIP3    H117961   7.875   0.932   0.440  0.7277  0.4383  2.3095
 6006TIP3    H217962   7.826   0.790   0.425  0.7892  0.7430 -2.0339
 6007TIP3   OH217963   6.263   5.466   1.676 -0.0874 -0.4194  0.1658
 6007TIP3    H117964   6.331   5.493   1.737 -0.4447  0.9960 -0.0210
 6007TIP3    H217965   6.310   5.417   1.608  0.5595 -0.5102  0.6683
 6008TIP3   OH217966   8.002   3.959   4.328 -0.4493 -0.0617 -0.5905
 6008TIP3    H117967   7.927   4.015   4.309 -0.2285  0.1969 -0.6970
 6008TIP3    H217968   8.041   3.940   4.243 -1.2829 -1.4546 -0.7053
 6009TIP3   OH217969   1.648   7.695   5.275 -0.1863  0.2732 -0.2916
 6009TIP3    H117970   1.574   7.685   5.335 -0.9200  0.6860 -1.1038
 6009TIP3    H217971   1.613   7.747   5.203 -0.2678 -2.8082 -2.6681
 6010TIP3   OH217972   7.937   4.910   2.513 -0.1238  0.0021 -0.7561
 6010TIP3    H117973   7.955   4.824   2.474 -0.4940  0.0810 -1.1043
 6010TIP3    H217974   7.981   4.907   2.598 -1.7888 -1.2885  0.1307
 6011TIP3   OH217975   7.492   5.938   3.705 -0.3444 -0.0001 -0.0165
 6011TIP3    H117976   7.464   5.920   3.795 -2.3911  0.6996 -0.4686
 6011TIP3    H217977   7.448   5.872   3.652 -0.1257  0.3476 -0.6391
 6012TIP3   OH217978   7.745   5.846   6.076 -0.2943 -0.1038  0.0986
 6012TIP3    H117979   7.762   5.911   6.008 -0.8388 -0.9949 -0.9110
 6012TIP3    H217980   7.664   5.875   6.118 -0.3484  0.0479 -0.1120
 6013TIP3   OH217981   2.034   6.970   5.666 -0.2494 -0.1365 -0.4304
 6013TIP3    H117982   1.995   6.944   5.582 -0.6377  0.7748 -0.5509
 6013TIP3    H217983   1.963   6.959   5.729  0.0001 -0.6865 -0.2439
 6014TIP3   OH217984   3.675   2.857   6.541  0.1338  0.8683  0.3064
 6014TIP3    H117985   3.631   2.776   6.516  3.7987 -1.1457 -0.3149
 6014TIP3    H217986   3.672   2.911   6.462  0.7670 -0.2145 -0.4906
 6015TIP3   OH217987   5.982   7.442   5.408  0.6252  0.5767 -0.1840
 6015TIP3    H117988   5.908   7.493   5.441 -0.1898 -0.7795  0.1607
 6015TIP3    H217989   6.003   7.382   5.479  0.4325 -0.7409 -1.2105
 6016TIP3   OH217990   7.067   7.493   0.291 -0.2810  0.0966  0.2285
 6016TIP3    H117991   6.982   7.452   0.311 -0.2820  0.3974  0.8608
 6016TIP3    H217992   7.111   7.430   0.235 -0.4367 -0.6124  0.8799
 6017TIP3   OH217993   7.985   6.136   4.128 -0.1424  0.0999 -0.0704
 6017TIP3    H117994   8.063   6.171   4.083  0.9258 -1.3727  0.5676
 6017TIP3    H217995   8.009   6.046   4.151 -1.2573  0.2937  2.0393
 6018TIP3   OH217996   3.675   6.829   4.681 -0.1723 -0.3521  0.1218
 6018TIP3    H117997   3.633   6.809   4.597 -0.6030 -1.6090  0.6168
 6018TIP3    H217998   3.604   6.824   4.745  0.3560 -0.4932  0.7043
 6019TIP3   OH217999   4.671   1.642   0.075 -0.4837 -0.0228  0.6358
 6019TIP3    H118000   4.591   1.666   0.123 -2.7483 -3.2751 -1.1202
 6019TIP3    H218001   4.740   1.646   0.141 -2.3358  1.3439  2.6653
 6020TIP3   OH218002   6.718   2.299   3.821  0.0719 -0.3595  0.0421
 6020TIP3    H118003   6.813   2.310   3.815 -0.0032 -0.3568 -1.5746
 6020TIP3    H218004   6.688   2.295   3.730 -1.2151 -2.6301  0.4703
 6021TIP3   OH218005   8.144   5.020   3.290 -0.2138  0.2663  0.3303
 6021TIP3    H118006   8.058   5.062   3.283 -0.4953 -0.5707 -2.1636
 6021TIP3    H218007   8.130   4.950   3.354 -1.4406  0.0913 -0.0835
 6022TIP3   OH218008   8.084   2.810   2.756 -0.1127  0.5193 -0.0766
 6022TIP3    H118009   8.080   2.879   2.822 -0.8938 -0.0670  0.5060
 6022TIP3    H218010   8.118   2.854   2.678 -1.2863  1.7423  0.0621
 6023TIP3   OH218011   3.931   2.227   2.168  0.1501  0.2189 -0.4399
 6023TIP3    H118012   3.904   2.191   2.084 -1.1292  2.0249 -0.8661
 6023TIP3    H218013   4.024   2.248   2.156  0.4020 -1.0398 -0.8213
 6024TIP3   OH218014   4.728   3.796   6.380  0.3694  0.0016  0.4567
 6024TIP3    H118015   4.665   3.806   6.452  0.7891 -0.5405  0.9101
 6024TIP3    H218016   4.733   3.883   6.341 -0.3252  0.1605  0.6934
 6025TIP3   OH218017   5.715   3.274   3.797 -0.5967 -0.6205 -0.3347
 6025TIP3    H118018   5.620   3.282   3.806 -0.2470  2.0432  2.1379
 6025TIP3    H218019   5.748   3.268   3.886  1.5709 -2.9750 -1.1545
 6026TIP3   OH218020   6.531   0.792   5.441 -0.3977  0.8251 -0.4706
 6026TIP3    H118021   6.437   0.788   5.457 -0.6401  0.8409 -1.8482
 6026TIP3    H218022   6.544   0.749   5.357  0.8984  0.3633 -0.0619
 6027TIP3   OH218023   1.491   7.609   3.624  0.1248 -0.2169  0.2012
 6027TIP3    H118024   1.438   7.641   3.551  0.7576 -1.5584 -0.8886
 6027TIP3    H218025   1.534   7.687   3.658 -0.5719  0.5060 -0.5266
 6028TIP3   OH218026   5.919   3.505   4.171 -0.0459 -0.4009 -0.0438
 6028TIP3    H118027   5.903   3.587   4.124 -1.1825 -0.1619  0.7091
 6028TIP3    H218028   5.988   3.462   4.122  0.6311  1.0523 -0.4109
 6029TIP3   OH218029   6.659   1.119   2.335  0.4263  0.0431  0.4767
 6029TIP3    H118030   6.631   1.052   2.398  0.1216  0.2658  0.5798
 6029TIP3    H218031   6.601   1.107   2.260  0.3780  0.1827  0.4909
 6030TIP3   OH218032   3.954   1.690   4.754  0.8202 -0.2988 -0.3140
 6030TIP3    H118033   3.881   1.632   4.772  0.3075  0.2283 -0.6516
 6030TIP3    H218034   3.983   1.720   4.840  0.1244  0.1068 -0.2126
 6031TIP3   OH218035   0.872   4.059   4.702  0.1754  0.2446 -0.1253
 6031TIP3    H118036   0.956   4.043   4.658 -0.2727 -0.2680 -0.8259
 6031TIP3    H218037   0.889   4.132   4.762  1.0625  0.2895 -0.4221
 6032TIP3   OH218038   7.498   1.623   0.846 -0.3921  0.3638 -0.1222
 6032TIP3    H118039   7.451   1.593   0.767  1.1566 -0.2135 -0.8724
 6032TIP3    H218040   7.585   1.585   0.837  0.3292  1.6611  1.0689
 6033TIP3   OH218041   4.632   6.023   5.651 -0.1203  0.3613 -0.0428
 6033TIP3    H118042   4.691   5.977   5.590 -1.8301 -0.6728 -1.0196
 6033TIP3    H218043   4.606   5.956   5.714 -0.5464  0.6880  0.1322
 6034TIP3   OH218044   6.048   0.392   5.416 -0.3583  0.3080 -0.4264
 6034TIP3    H118045   6.052   0.372   5.509  1.6806 -0.8824 -0.7261
 6034TIP3    H218046   6.084   0.315   5.373  0.0770  1.3998 -2.1136
 6035TIP3   OH218047   2.304   3.940   2.608 -0.1497 -0.2092 -0.0061
 6035TIP3    H118048   2.389   3.939   2.652 -0.2441  1.7521  0.3019
 6035TIP3    H218049   2.249   3.997   2.661 -1.8372 -1.7620  0.0293
 6036TIP3   OH218050   1.653   2.701   3.718 -0.1553 -0.6812  0.3161
 6036TIP3    H118051   1.715   2.630   3.706 -0.0837 -0.6645  0.5889
 6036TIP3    H218052   1.573   2.658   3.747 -0.4317 -0.7578 -0.5112
 6037TIP3   OH218053   0.342   1.295   0.083  0.1013  0.0640  0.1094
 6037TIP3    H118054   0.411   1.282   0.148 -1.3894 -2.6277  1.3184
 6037TIP3    H218055   0.262   1.307   0.134 -0.8716 -0.5858 -1.1988
 6038TIP3   OH218056   0.490   0.968   5.707  0.2572  0.0943  0.4763
 6038TIP3    H118057   0.542   0.895   5.672 -0.3142 -0.6253  1.0870
 6038TIP3    H218058   0.401   0.934   5.711 -0.2999  1.3362 -0.6256
 6039TIP3   OH218059   1.636   5.513   1.542  0.0813 -0.2657  0.7426
 6039TIP3    H118060   1.721   5.556   1.528  0.3189  0.1213  3.0722
 6039TIP3    H218061   1.579   5.550   1.475  1.7379 -0.6359 -0.9869
 6040TIP3   OH218062   4.343   2.803   2.452  0.3055 -0.2066  0.0654
 6040TIP3    H118063   4.352   2.711   2.426  0.3965 -0.6267  1.5145
 6040TIP3    H218064   4.280   2.802   2.524  1.4271  0.6601  1.1044
 6041TIP3   OH218065   0.116   7.255   2.017 -0.0408 -0.0607 -0.0258
 6041TIP3    H118066   0.146   7.287   2.102 -3.5333  1.8831  0.6693
 6041TIP3    H218067   0.074   7.171   2.037 -0.1934  0.0355  0.0644
 6042TIP3   OH218068   3.805   0.515   4.968 -0.2483 -0.0300  0.0108
 6042TIP3    H118069   3.889   0.492   5.008 -0.1168 -0.3144 -0.4191
 6042TIP3    H218070   3.825   0.530   4.876 -0.8432 -1.1755 -0.3205
 6043TIP3   OH218071   7.736   7.741   6.450 -0.0963  0.1537 -0.1036
 6043TIP3    H118072   7.817   7.787   6.470 -0.5350  1.0551 -0.3437
 6043TIP3    H218073   7.675   7.809   6.422 -1.0227 -0.4598  0.3174
 6044TIP3   OH218074   2.519   4.447   4.347 -0.0230  0.4384  0.3963
 6044TIP3    H118075   2.540   4.481   4.434  0.1632 -0.0313  0.5347
 6044TIP3    H218076   2.563   4.507   4.287  0.1837  0.5305  0.6377
 6045TIP3   OH218077   5.722   4.803   4.210 -0.2584 -0.5036  0.3990
 6045TIP3    H118078   5.679   4.719   4.194 -0.7676 -0.2043  0.1851
 6045TIP3    H218079   5.655   4.856   4.254 -0.2662  0.1313 -0.3715
 6046TIP3   OH218080   3.628   7.620   0.371 -0.5063  0.1592 -0.5137
 6046TIP3    H118081   3.625   7.565   0.293 -0.1742  1.0298 -1.1602
 6046TIP3    H218082   3.552   7.677   0.363  0.3867  1.3188 -1.0304
 6047TIP3   OH218083   4.493   0.639   5.890 -0.2081  0.7914  0.3948
 6047TIP3    H118084   4.541   0.624   5.808 -1.0453  0.9057 -0.1225
 6047TIP3    H218085   4.537   0.715   5.929  2.0921 -1.0035  1.5374
 6048TIP3   OH218086   0.783   7.549   1.600 -0.2735  0.1547  0.3290
 6048TIP3    H118087   0.771   7.526   1.508  1.4786  0.0591  0.0790
 6048TIP3    H218088   0.764   7.468   1.647 -0.9332  0.1330  0.0304
 6049TIP3   OH218089   4.238   4.375   3.834 -0.9814 -0.3073  0.6431
 6049TIP3    H118090   4.254   4.345   3.923  0.7946  1.9741  1.1940
 6049TIP3    H218091   4.174   4.446   3.844 -0.6722  0.0544  0.1482
 6050TIP3   OH218092   2.659   2.266   4.620  1.1377 -0.6248 -0.4058
 6050TIP3    H118093   2.663   2.322   4.698 -1.3384  0.2371 -0.7973
 6050TIP3    H218094   2.708   2.188   4.643  1.7593  0.2664  1.4422
 6051TIP3   OH218095   1.323   5.704   0.596 -0.0513 -0.1538  0.2625
 6051TIP3    H118096   1.262   5.641   0.633  0.2302 -0.8980 -0.5141
 6051TIP3    H218097   1.291   5.721   0.508  0.4629 -0.0134  0.0964
 6052TIP3   OH218098   0.004   6.442   2.567  0.1409  0.0853  0.4095
 6052TIP3    H118099   0.020   6.394   2.648  0.6800 -0.1705  0.1516
 6052TIP3    H218100   0.087   6.440   2.520 -0.0973  0.4473 -0.0382
 6053TIP3   OH218101   4.658   3.704   2.445  0.1469 -0.4020  0.3421
 6053TIP3    H118102   4.629   3.641   2.379 -0.2462 -0.1504  0.2754
 6053TIP3    H218103   4.752   3.715   2.428 -0.3428  1.3146 -1.5676
 6054TIP3   OH218104   2.537   0.139   1.555 -0.1194 -0.1429 -0.1109
 6054TIP3    H118105   2.524   0.232   1.536  1.1856 -0.4896 -3.4035
 6054TIP3    H218106   2.514   0.094   1.474  2.2181 -2.3723  0.3124
 6055TIP3   OH218107   3.989   0.969   4.513  0.1465 -0.0661 -0.3574
 6055TIP3    H118108   3.920   1.034   4.525  0.3409 -0.0026  0.4626
 6055TIP3    H218109   3.979   0.909   4.587  1.2647  0.2112  0.0269
 6056TIP3   OH218110   1.678   3.152   6.493 -0.2773  0.4825  1.0547
 6056TIP3    H118111   1.749   3.193   6.443 -0.3893 -1.0414 -0.4681
 6056TIP3    H218112   1.603   3.152   6.433 -1.0152  0.4078  1.9605
 6057TIP3   OH218113   3.757   4.714   0.516  0.1745  0.7979 -0.5029
 6057TIP3    H118114   3.850   4.737   0.525  0.5170 -0.7045  0.0542
 6057TIP3    H218115   3.757   4.623   0.488 -1.1315  0.5141  0.3273
 6058TIP3   OH218116   2.813   5.241   2.760 -0.0687 -0.2545 -0.2764
 6058TIP3    H118117   2.805   5.228   2.665  1.7731 -1.5365 -0.3149
 6058TIP3    H218118   2.894   5.292   2.770 -0.7279  0.6413  0.5804
 6059TIP3   OH218119   1.431   2.401   4.331 -0.2236  0.3488  0.2417
 6059TIP3    H118120   1.372   2.371   4.263 -1.0205  0.6419  0.7819
 6059TIP3    H218121   1.494   2.330   4.343  0.8409  0.8806 -1.7995
 6060TIP3   OH218122   1.188   3.448   4.890  0.2612 -0.0632 -0.1320
 6060TIP3    H118123   1.226   3.500   4.961 -1.7506  0.6956  0.4574
 6060TIP3    H218124   1.227   3.485   4.810  0.8049  0.6155  0.4327
 6061TIP3   OH218125   1.411   4.076   3.263 -0.3231  0.2871  0.5297
 6061TIP3    H118126   1.326   4.069   3.221 -0.0702  0.1803  0.0287
 6061TIP3    H218127   1.396   4.134   3.337 -0.6219  1.0388 -0.1109
 6062TIP3   OH218128   0.620   2.300   2.767  0.2914 -0.3206 -0.2633
 6062TIP3    H118129   0.529   2.310   2.795  0.7566  0.3926  1.1010
 6062TIP3    H218130   0.638   2.379   2.716  1.0475  1.1903  2.1826
 6063TIP3   OH218131   2.902   3.242   2.851 -0.0805  0.3203  0.3608
 6063TIP3    H118132   2.954   3.243   2.931 -0.3119 -0.4806  0.5238
 6063TIP3    H218133   2.886   3.150   2.833 -0.5823  0.5174 -0.2509
 6064TIP3   OH218134   1.036   3.993   3.775 -0.4289 -0.3060 -0.3778
 6064TIP3    H118135   1.105   4.005   3.710  0.3460  1.2902  0.7036
 6064TIP3    H218136   1.017   3.899   3.772  1.2625 -0.6518 -1.1980
 6065TIP3   OH218137   5.751   0.957   4.524 -0.3341 -0.2293 -0.3958
 6065TIP3    H118138   5.719   0.981   4.437  1.3278 -0.6356 -1.1556
 6065TIP3    H218139   5.839   0.995   4.529  0.2071 -1.5070  0.4935
 6066TIP3   OH218140   7.776   0.739   0.112  0.3391 -0.5064 -0.5970
 6066TIP3    H118141   7.836   0.805   0.148 -0.0584 -0.2226 -0.4520
 6066TIP3    H218142   7.710   0.790   0.066  0.1421 -0.8154 -0.6521
 6067TIP3   OH218143   4.452   5.897   2.920 -0.1860  0.4751  0.1170
 6067TIP3    H118144   4.461   5.867   3.010 -3.0762 -1.4726 -0.0772
 6067TIP3    H218145   4.506   5.837   2.869  0.0628  0.4466  0.4152
 6068TIP3   OH218146   3.820   7.324   0.504 -0.2252  0.1815  1.3073
 6068TIP3    H118147   3.834   7.231   0.491  0.4391  0.2996  1.1395
 6068TIP3    H218148   3.726   7.333   0.516 -0.6943 -0.1612 -1.5568
 6069TIP3   OH218149   7.869   6.407   5.118 -0.2701  0.1618  0.0871
 6069TIP3    H118150   7.853   6.324   5.163 -1.4487 -0.1813 -0.9130
 6069TIP3    H218151   7.787   6.426   5.073  0.5233  1.0101 -1.0528
 6070TIP3   OH218152   1.567   7.386   1.747  0.4574  0.7778 -0.0411
 6070TIP3    H118153   1.529   7.406   1.661  0.9526 -0.6909 -0.6212
 6070TIP3    H218154   1.555   7.467   1.797  0.0878  1.6385 -1.4579
 6071TIP3   OH218155   0.384   7.152   0.207 -0.0658  0.1279  0.4417
 6071TIP3    H118156   0.453   7.217   0.199 -0.2710  0.3043  0.0466
 6071TIP3    H218157   0.416   7.090   0.272  2.1382 -1.8922 -2.3248
 6072TIP3   OH218158   6.126   0.417   6.670 -0.0562 -0.2570  0.3769
 6072TIP3    H118159   6.201   0.370   6.633 -0.5594 -0.7159 -0.0835
 6072TIP3    H218160   6.148   0.509   6.661 -0.1265 -0.3568 -1.0011
 6073TIP3   OH218161   0.343   7.749   2.048 -0.2379  0.4547 -0.0123
 6073TIP3    H118162   0.269   7.788   2.000 -1.9288 -1.0546  1.2335
 6073TIP3    H218163   0.320   7.760   2.140  0.7691 -0.6425  0.3941
 6074TIP3   OH218164   7.158   4.823   4.299  0.1094 -0.3879 -0.2059
 6074TIP3    H118165   7.151   4.910   4.338  1.9196 -0.6017  0.7166
 6074TIP3    H218166   7.229   4.830   4.235 -2.3842 -0.2182 -3.1408
 6075TIP3   OH218167   5.450   1.877   5.774 -0.5375 -0.6134 -0.3812
 6075TIP3    H118168   5.366   1.922   5.777 -0.0313  0.4671 -1.4065
 6075TIP3    H218169   5.493   1.901   5.856 -0.7417 -0.1852 -0.3972
 6076TIP3   OH218170   7.647   2.189   5.709  0.3519 -0.2593  0.3402
 6076TIP3    H118171   7.733   2.183   5.669 -0.7387  0.5694 -2.3491
 6076TIP3    H218172   7.617   2.099   5.717  1.6970 -0.6050  2.0015
 6077TIP3   OH218173   0.533   6.689   0.992 -0.4831 -0.4944  0.1852
 6077TIP3    H118174   0.487   6.771   0.972 -0.1087  0.0287  1.3984
 6077TIP3    H218175   0.476   6.620   0.957 -1.5935  0.2039  0.5898
 6078TIP3   OH218176   4.944   0.184   6.546  0.0627 -0.0476  0.4739
 6078TIP3    H118177   4.977   0.234   6.471  1.1738 -0.3432  0.7428
 6078TIP3    H218178   4.953   0.093   6.520 -3.0352 -0.1925 -0.4722
 6079TIP3   OH218179   5.083   4.267   6.547  0.1016  0.2770 -0.3976
 6079TIP3    H118180   5.134   4.268   6.466  0.2464 -0.2812 -0.3173
 6079TIP3    H218181   5.148   4.253   6.616 -0.4134 -4.4468 -0.5505
 6080TIP3   OH218182   0.544   4.180   4.175 -0.0314  0.1470  0.1853
 6080TIP3    H118183   0.504   4.215   4.095  0.5506  1.3125  0.3830
 6080TIP3    H218184   0.535   4.251   4.239  0.4214 -0.3915  0.8554
 6081TIP3   OH218185   1.935   2.010   5.489  0.0932 -0.0783 -0.1330
 6081TIP3    H118186   1.907   2.099   5.464  1.2765  1.1610  2.5733
 6081TIP3    H218187   1.856   1.968   5.521  0.0077  1.0310  1.1989
 6082TIP3   OH218188   4.879   0.503   4.025  0.1010 -0.1466  0.0168
 6082TIP3    H118189   4.798   0.488   4.075 -0.1410  0.9889  0.0011
 6082TIP3    H218190   4.924   0.419   4.027 -0.0988 -0.2629  1.7928
 6083TIP3   OH218191   1.730   3.471   3.468 -0.2969  0.4772  0.1643
 6083TIP3    H118192   1.820   3.462   3.435  0.5821  2.6601  1.7166
 6083TIP3    H218193   1.694   3.383   3.464  1.6295 -0.3251 -1.2504
 6084TIP3   OH218194   8.155   2.548   1.659  0.3542 -0.1005  0.4625
 6084TIP3    H118195   8.071   2.583   1.687  0.0950 -1.3669  1.3067
 6084TIP3    H218196   8.153   2.557   1.563 -0.7137 -0.0849  0.4737
 6085TIP3   OH218197   1.084   3.974   2.126  0.0784  0.1342 -0.0905
 6085TIP3    H118198   1.033   4.050   2.100 -1.6869 -0.5673  1.1327
 6085TIP3    H218199   1.099   3.926   2.045 -1.7857  0.0358 -0.4219
 6086TIP3   OH218200   7.048   6.884   5.729 -0.2350 -0.1633 -0.2284
 6086TIP3    H118201   7.000   6.965   5.711  1.6515  1.1927  0.5394
 6086TIP3    H218202   7.112   6.878   5.658  0.8841  0.0584  0.7406
 6087TIP3   OH218203   3.982   4.251   4.625 -0.1169 -0.7184  0.0400
 6087TIP3    H118204   3.978   4.315   4.696 -1.3872 -0.3407 -0.3448
 6087TIP3    H218205   3.943   4.172   4.661  0.3301 -0.9050  0.1250
 6088TIP3   OH218206   2.403   5.861   1.995 -0.5373  0.3390 -0.3065
 6088TIP3    H118207   2.317   5.857   2.037 -0.9945  0.9491 -1.1454
 6088TIP3    H218208   2.464   5.828   2.061 -1.4236 -0.1779  0.2737
 6089TIP3   OH218209   4.622   7.289   3.970  0.7758  0.2251  0.1858
 6089TIP3    H118210   4.610   7.344   3.893  1.0805  2.3393  1.5579
 6089TIP3    H218211   4.578   7.207   3.948 -3.2577  2.3101 -0.5503
 6090TIP3   OH218212   7.144   3.322   6.709  0.2415 -0.1798  0.2575
 6090TIP3    H118213   7.205   3.250   6.691  1.7157  0.7023  1.4771
 6090TIP3    H218214   7.159   3.343   6.801 -0.4902  1.4016  0.0476
 6091TIP3   OH218215   1.042   0.453   4.998 -0.0501 -0.0471 -0.0679
 6091TIP3    H118216   1.037   0.539   4.956 -1.4162  0.4791  1.1058
 6091TIP3    H218217   0.951   0.429   5.013  0.3493 -1.3019  0.4476
 6092TIP3   OH218218   0.787   0.698   5.102  0.0080  0.5293  0.5154
 6092TIP3    H118219   0.852   0.651   5.154 -2.3315 -1.6403  1.7001
 6092TIP3    H218220   0.827   0.706   5.015  1.5768 -1.3436  0.9836
 6093TIP3   OH218221   5.012   5.125   2.127 -0.1701 -0.1675 -0.6065
 6093TIP3    H118222   4.981   5.199   2.180 -0.1395 -0.5967  0.0273
 6093TIP3    H218223   4.965   5.050   2.163  0.0033 -0.4949 -1.0664
 6094TIP3   OH218224   4.449   0.949   4.020  0.2003 -0.3706  0.3700
 6094TIP3    H118225   4.473   0.973   3.930  0.0763  0.1155  0.4645
 6094TIP3    H218226   4.517   0.887   4.047  0.7994  0.2303  0.2767
 6095TIP3   OH218227   7.948   4.360   3.628 -0.3488 -0.1428  0.2060
 6095TIP3    H118228   8.015   4.428   3.629 -0.5685  0.0776  0.9572
 6095TIP3    H218229   7.909   4.364   3.715  0.1393 -1.7267  0.5385
 6096TIP3   OH218230   5.787   1.353   6.070 -0.0610  0.1285  0.2998
 6096TIP3    H118231   5.693   1.356   6.052 -0.3581  1.8345  1.8509
 6096TIP3    H218232   5.821   1.434   6.032  1.1285 -1.2126 -1.6825
 6097TIP3   OH218233   4.577   5.161   4.602  0.1460  0.0117 -0.3526
 6097TIP3    H118234   4.622   5.203   4.528 -0.0851  0.3430 -0.3112
 6097TIP3    H218235   4.639   5.097   4.636  0.9926  1.1754  0.3543
 6098TIP3   OH218236   7.517   5.879   6.233  0.3238  0.8103 -0.2008
 6098TIP3    H118237   7.442   5.893   6.175 -0.2283  0.7369  0.4877
 6098TIP3    H218238   7.480   5.835   6.310  0.7930  2.1235  0.8170
 6099TIP3   OH218239   0.113   2.204   1.572  0.2343  0.3455 -0.5596
 6099TIP3    H118240   0.101   2.109   1.573 -0.4771  0.4036 -1.5102
 6099TIP3    H218241   0.094   2.233   1.661  2.6202 -0.6233  0.3464
 6100TIP3   OH218242   5.076   1.219   0.761 -0.1792  1.1045 -0.2340
 6100TIP3    H118243   5.011   1.178   0.817 -0.5219  0.0847 -1.3521
 6100TIP3    H218244   5.160   1.195   0.801 -0.3973 -0.1285 -0.4754
 6101TIP3   OH218245   3.706   0.154   1.403  0.0622 -0.0500  1.1140
 6101TIP3    H118246   3.672   0.239   1.373  0.3084 -0.1747  0.4745
 6101TIP3    H218247   3.697   0.096   1.327  0.2183 -0.5055  1.4399
 6102TIP3   OH218248   5.761   3.824   5.869  0.5545 -0.0632 -0.2504
 6102TIP3    H118249   5.825   3.888   5.838  1.5963 -0.4970  0.9273
 6102TIP3    H218250   5.747   3.766   5.795  2.3083 -0.5534 -0.2349
 6103TIP3   OH218251   3.511   2.794   1.493  0.4736  0.2620 -0.3067
 6103TIP3    H118252   3.583   2.853   1.513  1.2399 -1.2065  1.5132
 6103TIP3    H218253   3.463   2.786   1.575 -0.1700 -0.8896 -0.7813
 6104TIP3   OH218254   6.942   0.869   0.711  0.1478  0.2028  0.4784
 6104TIP3    H118255   6.912   0.812   0.782 -0.5653  0.9312  0.7811
 6104TIP3    H218256   6.900   0.833   0.632  0.4043 -0.2098  0.5317
 6105TIP3   OH218257   3.120   6.003   3.762 -0.2778 -0.2268 -0.3400
 6105TIP3    H118258   3.093   5.956   3.841 -0.9620  0.3302 -0.2305
 6105TIP3    H218259   3.087   6.092   3.774  1.2232  0.3595 -0.4403
 6106TIP3   OH218260   1.638   6.543   5.209  0.1798  0.1185  0.2739
 6106TIP3    H118261   1.673   6.601   5.278 -2.0476  1.4899  0.3552
 6106TIP3    H218262   1.669   6.583   5.127  0.5540  0.0646  0.3832
 6107TIP3   OH218263   0.161   0.062   1.665 -0.3175 -0.1353 -0.0470
 6107TIP3    H118264   0.131   0.092   1.579  0.1531 -0.5313 -0.3524
 6107TIP3    H218265   0.175  -0.032   1.654  1.1167  0.0403  0.0489
 6108TIP3   OH218266   7.777   2.943   4.762  0.1480  0.4653  0.8579
 6108TIP3    H118267   7.869   2.932   4.786 -0.0752  0.2053  1.6279
 6108TIP3    H218268   7.730   2.885   4.822 -0.5691  1.0804  0.8995
 6109TIP3   OH218269   2.629   4.661   4.884 -0.5204 -0.5393 -0.3902
 6109TIP3    H118270   2.678   4.733   4.924 -0.8085 -0.0403 -0.9267
 6109TIP3    H218271   2.547   4.658   4.933 -0.2649 -0.9140  0.0355
 6110TIP3   OH218272   3.612   1.225   0.832  0.1857  0.3417 -0.1403
 6110TIP3    H118273   3.580   1.265   0.751  0.7887  0.2920 -0.4124
 6110TIP3    H218274   3.572   1.277   0.902 -1.2035 -0.2883 -0.4383
 6111TIP3   OH218275   4.815   6.681   3.220 -0.4103 -0.0640 -0.4163
 6111TIP3    H118276   4.756   6.746   3.258 -0.2113  0.2845 -0.7063
 6111TIP3    H218277   4.816   6.701   3.126 -2.3984 -2.0538 -0.9713
 6112TIP3   OH218278   2.176   4.088   1.207 -0.2177  0.1042  0.4885
 6112TIP3    H118279   2.195   4.111   1.298  1.1207 -0.2751  0.3320
 6112TIP3    H218280   2.085   4.060   1.208  0.6934 -3.4369  2.4865
 6113TIP3   OH218281   5.776   2.487   1.262  0.7205 -0.4941  0.3994
 6113TIP3    H118282   5.823   2.457   1.185  1.7304 -1.9486  1.5179
 6113TIP3    H218283   5.714   2.417   1.282 -0.0582  0.2042  0.4838
 6114TIP3   OH218284   3.249   5.822   3.523  0.4651  0.2098 -0.0293
 6114TIP3    H118285   3.274   5.734   3.552  0.4661 -0.2967 -1.4714
 6114TIP3    H218286   3.227   5.868   3.603  0.5710 -1.0806  0.7762
 6115TIP3   OH218287   1.722   7.117   3.264  0.5020  0.3158 -0.0741
 6115TIP3    H118288   1.771   7.197   3.283  0.6443 -0.1637  1.7832
 6115TIP3    H218289   1.762   7.083   3.184  1.0969  1.5823 -0.3411
 6116TIP3   OH218290   5.860   5.508   3.894  0.4589  0.6327  0.1464
 6116TIP3    H118291   5.839   5.480   3.805 -0.5267  1.4030  0.1244
 6116TIP3    H218292   5.834   5.434   3.950  0.4574  0.4150 -0.1420
 6117TIP3   OH218293   0.952   6.494   2.643  0.3270 -0.1475 -0.1769
 6117TIP3    H118294   1.004   6.505   2.723 -1.4560  2.5223  0.7488
 6117TIP3    H218295   0.981   6.565   2.587  1.1663 -1.6718 -1.7660
 6118TIP3   OH218296   0.150   4.350   4.402  0.5000 -0.0165  0.3354
 6118TIP3    H118297   0.172   4.392   4.319 -0.1962 -0.3301 -0.0213
 6118TIP3    H218298   0.091   4.278   4.377  1.6490 -1.2124  0.9197
 6119TIP3   OH218299   4.079   0.496   5.959  0.3086  0.0686  0.0364
 6119TIP3    H118300   4.160   0.460   5.994  0.4733 -0.2873 -0.6812
 6119TIP3    H218301   4.035   0.536   6.034  0.3535 -1.1971  0.7641
 6120TIP3   OH218302   2.369   7.493   2.849 -0.0150  0.0776 -0.1730
 6120TIP3    H118303   2.328   7.489   2.763 -0.5891  0.1534  0.0928
 6120TIP3    H218304   2.365   7.586   2.873  2.1042  0.4285 -0.9906
 6121TIP3   OH218305   4.421   2.119   6.566  0.3827 -0.5931 -0.3280
 6121TIP3    H118306   4.339   2.140   6.612  0.3412  0.1199 -0.7206
 6121TIP3    H218307   4.468   2.062   6.627  0.0602 -0.1523  0.3540
 6122TIP3   OH218308   5.488   0.571   1.052  0.2024  0.5225 -0.1504
 6122TIP3    H118309   5.430   0.618   1.112  1.8700  2.0906  0.3306
 6122TIP3    H218310   5.573   0.570   1.096  0.6627 -1.4100 -0.9768
 6123TIP3   OH218311   4.794   7.439   0.869 -0.2857 -0.1872  0.7203
 6123TIP3    H118312   4.879   7.483   0.870  0.0372 -0.5809 -2.0677
 6123TIP3    H218313   4.731   7.507   0.847 -0.1251 -0.5767 -1.0673
 6124TIP3   OH218314   2.452   3.891   2.090 -0.0428  0.2418 -0.3904
 6124TIP3    H118315   2.515   3.913   2.159 -0.6014  0.5573  0.0276
 6124TIP3    H218316   2.405   3.815   2.123  0.2413 -0.1139 -0.7881
 6125TIP3   OH218317   2.939   0.272   6.145 -0.0598  0.1805  0.1023
 6125TIP3    H118318   3.002   0.323   6.094  0.6960 -1.7127 -0.9683
 6125TIP3    H218319   2.993   0.230   6.212 -0.1167 -1.5212 -0.8751
 6126TIP3   OH218320   1.716   1.392   2.782  0.1463  0.2815  0.2080
 6126TIP3    H118321   1.809   1.371   2.776  0.4734  1.3167  1.2257
 6126TIP3    H218322   1.672   1.308   2.797  0.7728 -0.3705 -1.4257
 6127TIP3   OH218323   3.161   4.761   1.406 -0.4394 -0.4203  0.0531
 6127TIP3    H118324   3.170   4.687   1.466 -1.2570  0.3542  1.1732
 6127TIP3    H218325   3.147   4.837   1.463  1.2710  0.7763 -1.0217
 6128TIP3   OH218326   4.059   1.657   1.721  0.4878  0.5709 -0.3470
 6128TIP3    H118327   4.004   1.579   1.710  1.2424  0.2298 -1.9900
 6128TIP3    H218328   4.021   1.703   1.796 -0.0605 -1.3075  0.5879
 6129TIP3   OH218329   7.073   0.272   3.951 -0.2292  0.1928  0.6544
 6129TIP3    H118330   6.983   0.243   3.963  0.0954 -0.5172  1.4426
 6129TIP3    H218331   7.086   0.338   4.019 -0.7779  1.8280 -0.7526
 6130TIP3   OH218332   1.205   0.114   2.260 -0.1986 -0.0340 -0.4770
 6130TIP3    H118333   1.129   0.168   2.240  0.7417  1.2543 -0.6515
 6130TIP3    H218334   1.199   0.099   2.355  0.5806  2.0812 -0.0398
 6131TIP3   OH218335   2.199   0.219   1.406  0.4351  0.3078  0.9863
 6131TIP3    H118336   2.187   0.171   1.487  2.7493 -0.9503  0.6901
 6131TIP3    H218337   2.245   0.157   1.348  1.5904  2.1423 -0.1822
 6132TIP3   OH218338   3.160   4.963   1.574 -0.1779  0.3734 -0.3167
 6132TIP3    H118339   3.173   5.045   1.526 -0.3204  1.3975  1.3207
 6132TIP3    H218340   3.092   4.983   1.638 -1.0351 -1.3784 -0.6319
 6133TIP3   OH218341   8.009   1.603   2.598 -0.6968 -0.7686 -0.6656
 6133TIP3    H118342   7.916   1.582   2.608 -0.8107 -0.1717 -0.4401
 6133TIP3    H218343   8.044   1.531   2.546 -0.9729 -1.7397  0.4690
 6134TIP3   OH218344   7.261   3.604   2.460 -0.1203 -0.7688 -0.2529
 6134TIP3    H118345   7.269   3.583   2.367 -3.2703  0.0273 -0.8303
 6134TIP3    H218346   7.239   3.520   2.502  0.3196 -0.9549 -0.3994
 6135TIP3   OH218347   3.769   4.664   4.013 -0.6480  0.1384 -0.3248
 6135TIP3    H118348   3.835   4.701   3.955  0.9045  0.4583  1.5781
 6135TIP3    H218349   3.735   4.738   4.062  1.1051 -0.5497  2.1310
 6136TIP3   OH218350   5.180   3.346   6.280 -0.0810 -0.1584 -0.3022
 6136TIP3    H118351   5.254   3.309   6.327  0.0012  1.1449  0.6457
 6136TIP3    H218352   5.102   3.312   6.325 -0.0096  2.1801  1.7950
 6137TIP3   OH218353   2.506   1.705   2.139 -0.0936 -0.0180 -0.3755
 6137TIP3    H118354   2.562   1.698   2.061  0.4448 -1.6729  0.1196
 6137TIP3    H218355   2.433   1.761   2.111  1.1712  1.2021 -1.4029
 6138TIP3   OH218356   1.654   3.638   3.241  0.2920  1.1880  0.8099
 6138TIP3    H118357   1.566   3.675   3.248  0.0052  0.4894  0.9699
 6138TIP3    H218358   1.668   3.596   3.326 -0.5101 -1.4968 -0.2986
 6139TIP3   OH218359   0.783   6.017   4.357 -1.1737 -0.2758  0.0675
 6139TIP3    H118360   0.791   6.001   4.451  0.2325  0.2348  0.0652
 6139TIP3    H218361   0.825   6.102   4.344 -0.3965 -0.8204 -1.1474
 6140TIP3   OH218362   1.011   0.340   2.279  0.2504 -0.0742  0.1765
 6140TIP3    H118363   1.024   0.348   2.374  3.0341  2.7960 -0.2909
 6140TIP3    H218364   0.961   0.419   2.255 -2.5210 -1.9019 -0.5923
 6141TIP3   OH218365   5.816   6.030   0.172  0.1554 -0.6144  0.5179
 6141TIP3    H118366   5.822   5.941   0.207  0.0769 -0.6713  0.3874
 6141TIP3    H218367   5.818   6.086   0.250  2.4143 -0.6077  0.5037
 6142TIP3   OH218368   4.769   1.984   2.839  0.4584 -0.3854  0.2082
 6142TIP3    H118369   4.846   1.992   2.783 -0.4228  1.1514 -0.8579
 6142TIP3    H218370   4.719   1.913   2.801  1.5332 -1.7423  1.2065
 6143TIP3   OH218371   8.046   7.082   1.103  0.7394 -0.1755  0.6651
 6143TIP3    H118372   8.097   7.028   1.164  0.5763 -0.0514  0.9160
 6143TIP3    H218373   8.073   7.053   1.016  2.3380  0.9036  0.7684
 6144TIP3   OH218374   3.464   5.862   4.747 -0.3664  0.3006 -0.0592
 6144TIP3    H118375   3.488   5.929   4.810  0.7373  0.9535 -1.1383
 6144TIP3    H218376   3.400   5.808   4.793 -0.1775  1.2147  1.3345
 6145TIP3   OH218377   7.892   5.758   4.649 -0.5637 -0.2425  0.2023
 6145TIP3    H118378   7.839   5.765   4.728 -1.1390  2.8289 -0.3266
 6145TIP3    H218379   7.950   5.834   4.651  0.5510 -0.9614 -1.5555
 6146TIP3   OH218380   4.307   6.321   3.895 -0.5409  0.4679 -0.5838
 6146TIP3    H118381   4.275   6.389   3.837  1.4976  0.6040 -1.6554
 6146TIP3    H218382   4.371   6.366   3.951 -0.0252 -0.3252 -0.5165
 6147TIP3   OH218383   1.680   2.622   1.443  0.2534 -0.3452 -0.1098
 6147TIP3    H118384   1.607   2.593   1.499  0.8622  0.4484  1.1489
 6147TIP3    H218385   1.744   2.551   1.450  0.6170  0.0597  0.7828
 6148TIP3   OH218386   5.952   0.089   6.436 -0.7284  0.4808 -0.2409
 6148TIP3    H118387   6.019   0.083   6.368  0.7640 -0.4509  1.2616
 6148TIP3    H218388   5.922   0.180   6.431  0.4360  0.8453 -1.1323
 6149TIP3   OH218389   2.454   7.036   6.525  0.2701  0.5563 -0.2507
 6149TIP3    H118390   2.416   6.948   6.531 -2.3178  1.5549 -0.4640
 6149TIP3    H218391   2.497   7.038   6.439 -1.1471 -0.0098 -1.0102
 6150TIP3   OH218392   2.656   4.535   3.741 -0.0092 -0.2672  0.4390
 6150TIP3    H118393   2.696   4.495   3.663  1.1497  0.5017  0.6201
 6150TIP3    H218394   2.669   4.471   3.810 -0.6004 -0.7389  0.1269
 6151TIP3   OH218395   3.193   7.131   0.101  0.7516 -0.4316 -0.5216
 6151TIP3    H118396   3.211   7.194   0.031 -1.2043  0.9975  0.1867
 6151TIP3    H218397   3.155   7.183   0.172  1.1829 -2.0850  1.0076
 6152TIP3   OH218398   1.600   0.787   0.291 -0.4133 -0.6967 -0.4453
 6152TIP3    H118399   1.651   0.868   0.299 -0.3685 -0.6609 -1.0232
 6152TIP3    H218400   1.660   0.718   0.320  0.6762 -0.8888 -2.9256
 6153TIP3   OH218401   7.272   3.640   2.160  0.3433  0.4467  0.3362
 6153TIP3    H118402   7.322   3.560   2.150 -0.5960 -0.1916  0.5771
 6153TIP3    H218403   7.207   3.637   2.089  0.5967  1.2369  0.0504
 6154TIP3   OH218404   8.158   2.185   2.612 -0.1353  0.1158 -0.0171
 6154TIP3    H118405   8.078   2.131   2.608 -0.3042  0.2581  1.1675
 6154TIP3    H218406   8.153   2.240   2.534 -0.8741 -0.3200 -0.2927
 6155TIP3   OH218407   1.542   3.151   6.748  0.0349 -0.6609 -0.2485
 6155TIP3    H118408   1.576   3.147   6.658  0.5640  2.0808 -0.2381
 6155TIP3    H218409   1.449   3.134   6.739  0.1272 -0.6817 -1.2810
 6156TIP3   OH218410   3.517   7.457  -0.009 -0.7058  0.0292 -0.4768
 6156TIP3    H118411   3.451   7.476   0.059 -0.2386  1.0672 -0.2894
 6156TIP3    H218412   3.595   7.506   0.019  0.4677 -1.9026 -0.2082
 6157TIP3   OH218413   3.672   6.012   0.446  0.1909  0.4078 -0.3218
 6157TIP3    H118414   3.711   5.925   0.450 -0.7371 -0.0698 -1.0871
 6157TIP3    H218415   3.739   6.071   0.480  2.0961 -0.2023 -2.7012
 6158TIP3   OH218416   3.709   1.622   5.428 -0.1047 -0.5659 -0.6864
 6158TIP3    H118417   3.750   1.589   5.348 -0.1340 -0.5361 -0.7134
 6158TIP3    H218418   3.750   1.707   5.443 -2.6626  1.2107 -2.6969
 6159TIP3   OH218419   3.272   6.943   2.733  0.8971  0.0264  0.0248
 6159TIP3    H118420   3.272   6.936   2.829  0.6585 -1.0524 -0.0473
 6159TIP3    H218421   3.181   6.961   2.710  1.4291  3.6396  0.1831
 6160TIP3   OH218422   7.588   2.238   2.977 -0.5786  0.4087 -0.0109
 6160TIP3    H118423   7.660   2.223   2.916 -0.4811  1.0542 -0.0599
 6160TIP3    H218424   7.591   2.332   2.996  0.6266 -0.0330  2.4908
 6161TIP3   OH218425   3.040   4.440   6.041  0.4091 -0.1506  0.0539
 6161TIP3    H118426   3.086   4.454   6.124  1.5567 -2.1141 -0.1724
 6161TIP3    H218427   3.060   4.349   6.019 -2.1362 -0.5343 -0.9987
 6162TIP3   OH218428   6.323   6.835   4.918  0.3823 -0.3892 -0.3073
 6162TIP3    H118429   6.256   6.890   4.878 -1.7006 -2.2710  0.4240
 6162TIP3    H218430   6.362   6.890   4.985 -1.4789  0.3061  0.2602
 6163TIP3   OH218431   5.848   2.920   3.982  0.0525 -0.3723 -0.1671
 6163TIP3    H118432   5.873   2.830   3.960 -0.5446 -0.6954  0.4474
 6163TIP3    H218433   5.805   2.913   4.067 -0.8667  0.3585 -0.5515
 6164TIP3   OH218434   0.355   0.906   2.149 -0.1408 -0.1430  0.3812
 6164TIP3    H118435   0.369   0.993   2.113 -0.2144 -0.4124 -0.3149
 6164TIP3    H218436   0.378   0.846   2.078  0.3346 -0.7047  0.9991
 6165TIP3   OH218437   2.458   2.496   2.602  0.1736  0.1172  0.4294
 6165TIP3    H118438   2.529   2.514   2.664 -0.9070 -0.3102  1.8584
 6165TIP3    H218439   2.395   2.445   2.653  0.0352 -1.8211 -1.5204
 6166TIP3   OH218440   4.222   2.386   6.031  0.0044 -0.1666 -0.3563
 6166TIP3    H118441   4.233   2.427   6.117 -0.1548 -0.8643 -0.0006
 6166TIP3    H218442   4.308   2.395   5.989  0.1466 -0.0185 -0.0380
 6167TIP3   OH218443   6.417   0.394   4.206  0.2854  0.1945 -0.3738
 6167TIP3    H118444   6.506   0.398   4.172  0.6327 -3.2071 -0.2324
 6167TIP3    H218445   6.362   0.422   4.133  1.3187 -1.3986 -1.8237
 6168TIP3   OH218446   7.041   4.058   6.660 -0.1454  0.3983  0.3107
 6168TIP3    H118447   7.040   4.115   6.736  0.8291  3.4022 -1.7434
 6168TIP3    H218448   6.962   4.083   6.611  0.9461  0.9860 -1.2382
 6169TIP3   OH218449   4.491   2.216   2.409 -0.5597  0.3396 -0.3376
 6169TIP3    H118450   4.519   2.188   2.322  0.0570  0.3579 -0.1490
 6169TIP3    H218451   4.409   2.264   2.393 -0.8984 -0.3653 -0.8119
 6170TIP3   OH218452   7.067   7.169   3.843 -0.1388 -0.2552  0.5702
 6170TIP3    H118453   7.047   7.216   3.762  0.2232 -1.5215 -0.2729
 6170TIP3    H218454   6.982   7.139   3.875 -0.2688  0.1416  0.6040
 6171TIP3   OH218455   6.874   4.404   3.169  0.1142 -0.4197  0.2322
 6171TIP3    H118456   6.873   4.312   3.195  1.4963 -0.1601  1.2779
 6171TIP3    H218457   6.919   4.405   3.085  1.1787 -0.5770  0.7901
 6172TIP3   OH218458   3.494   1.978   2.152  0.2337 -0.2672  0.1039
 6172TIP3    H118459   3.533   1.891   2.145 -0.0340 -0.5807  1.9914
 6172TIP3    H218460   3.531   2.014   2.232  0.4619  1.4614 -0.7232
 6173TIP3   OH218461   6.040   2.104   4.322 -0.0319  0.2402  0.0455
 6173TIP3    H118462   6.036   2.128   4.229 -0.1242  2.1948  0.5255
 6173TIP3    H218463   6.124   2.139   4.353 -0.8592  1.3173  1.1392
 6174TIP3   OH218464   0.485   6.241   5.733 -0.2442  0.1471 -0.7749
 6174TIP3    H118465   0.422   6.296   5.781  0.8664 -0.3540  1.3956
 6174TIP3    H218466   0.513   6.176   5.797 -0.5060 -2.1838 -2.8781
 6175TIP3   OH218467   0.121   4.443   0.163  0.2520  0.0105 -0.3112
 6175TIP3    H118468   0.214   4.445   0.186  0.7555 -0.4665 -2.1612
 6175TIP3    H218469   0.079   4.401   0.238  1.5663 -0.0492  0.4225
 6176TIP3   OH218470   4.632   3.205   3.656 -0.2581  0.8303 -0.3209
 6176TIP3    H118471   4.596   3.127   3.699 -0.4007  1.1393  0.1269
 6176TIP3    H218472   4.702   3.171   3.601  1.9104  0.6907  2.3126
 6177TIP3   OH218473   2.146   1.065   6.071 -0.2724 -0.3315 -0.4492
 6177TIP3    H118474   2.233   1.066   6.031 -0.7240  0.2702 -1.4392
 6177TIP3    H218475   2.147   0.987   6.127  1.1762  0.1249  0.2084
 6178TIP3   OH218476   2.263   2.249   3.897 -0.3930  0.4232 -0.4684
 6178TIP3    H118477   2.195   2.242   3.830 -2.5034 -0.6669  1.6664
 6178TIP3    H218478   2.313   2.167   3.888 -1.6560 -0.4660  0.2368
 6179TIP3   OH218479   1.854   6.955   6.191 -0.2618 -0.3011 -0.5182
 6179TIP3    H118480   1.924   6.890   6.200 -0.5015 -0.9337 -2.5309
 6179TIP3    H218481   1.889   7.018   6.128 -0.7146  0.5578  0.0750
 6180TIP3   OH218482   6.783   5.327   6.029 -0.1773  0.0484 -0.2573
 6180TIP3    H118483   6.846   5.340   6.099 -1.0098  0.9297  0.3497
 6180TIP3    H218484   6.776   5.413   5.987  0.8439 -0.6245 -1.9033
 6181TIP3   OH218485   4.711   4.703   5.331  0.0905  0.2175 -0.0447
 6181TIP3    H118486   4.634   4.716   5.275 -1.1742 -0.6378  1.4054
 6181TIP3    H218487   4.707   4.610   5.356  1.0065  0.4088  0.8835
 6182TIP3   OH218488   6.585   3.148   5.138 -0.0244 -0.4042 -0.0880
 6182TIP3    H118489   6.604   3.196   5.219  0.9707 -0.1619 -0.4514
 6182TIP3    H218490   6.571   3.217   5.072  0.2585 -0.6054 -0.3614
 6183TIP3   OH218491   3.447   0.419   0.209  0.3781 -0.7454  0.5452
 6183TIP3    H118492   3.407   0.427   0.295 -0.7703 -0.7743  0.0357
 6183TIP3    H218493   3.449   0.509   0.176  1.5976 -0.6211  0.9316
 6184TIP3   OH218494   8.007   7.213   1.902 -0.1907  0.2685 -0.0879
 6184TIP3    H118495   8.084   7.269   1.891 -0.0488  0.6078  2.1313
 6184TIP3    H218496   8.015   7.178   1.991 -2.0080 -0.6073 -0.2140
 6185TIP3   OH218497   5.781   5.446   1.988 -0.1809 -0.0061  0.7148
 6185TIP3    H118498   5.805   5.354   1.978  2.4950  0.5984  0.8333
 6185TIP3    H218499   5.685   5.446   1.984 -0.2362 -2.6492 -0.3319
 6186TIP3   OH218500   3.807   6.299   2.336 -0.1928 -0.2694  0.1725
 6186TIP3    H118501   3.783   6.389   2.317 -0.7834 -0.0061  1.9781
 6186TIP3    H218502   3.902   6.302   2.352 -0.0589 -0.1382 -0.6378
 6187TIP3   OH218503   7.312   1.292   6.164 -0.5439 -0.4076 -0.4403
 6187TIP3    H118504   7.318   1.329   6.253 -0.7336  1.2799 -1.0952
 6187TIP3    H218505   7.396   1.313   6.124 -1.2084  0.6886 -1.3182
 6188TIP3   OH218506   3.013   7.204   1.780 -0.1968  0.3658 -0.4760
 6188TIP3    H118507   2.952   7.269   1.745 -1.7182  0.0657  1.4201
 6188TIP3    H218508   3.044   7.242   1.862 -0.8110 -1.0577  0.4626
 6189TIP3   OH218509   1.493   5.700   0.212  0.7421 -0.4025 -0.2099
 6189TIP3    H118510   1.528   5.613   0.232 -0.3801 -1.0167 -0.7934
 6189TIP3    H218511   1.563   5.761   0.235  1.4503 -1.4476  0.4458
 6190TIP3   OH218512   0.672   2.479   5.935 -0.2204 -0.0574 -0.0096
 6190TIP3    H118513   0.728   2.448   5.864  0.2741 -1.0241  0.7755
 6190TIP3    H218514   0.642   2.565   5.906  0.9981  0.1164 -0.8241
 6191TIP3   OH218515   7.818   1.697   4.921  0.4635 -0.1354  0.2751
 6191TIP3    H118516   7.783   1.786   4.921  2.1069  0.5591  1.4849
 6191TIP3    H218517   7.871   1.692   5.001  1.1982 -1.8745 -0.2774
 6192TIP3   OH218518   4.307   4.119   3.621  0.3882  0.1986  0.2468
 6192TIP3    H118519   4.271   4.153   3.539  1.3883  3.2608  0.9251
 6192TIP3    H218520   4.401   4.107   3.603  0.3861 -0.3388  0.5813
 6193TIP3   OH218521   7.283   6.490   1.870  0.1133 -0.1410 -0.2965
 6193TIP3    H118522   7.312   6.403   1.842  2.2751  0.4382 -0.0567
 6193TIP3    H218523   7.254   6.477   1.960  0.9595 -0.5348 -0.0665
 6194TIP3   OH218524   7.684   6.525   2.898 -0.1578  0.2938 -0.0719
 6194TIP3    H118525   7.590   6.506   2.897 -0.0469 -0.4818  1.1802
 6194TIP3    H218526   7.725   6.443   2.927  0.4884  1.8021  3.9888
 6195TIP3   OH218527   6.342   0.168   0.058 -0.5689 -0.4199  0.6866
 6195TIP3    H118528   6.309   0.083   0.029  1.5221 -1.7474  1.9721
 6195TIP3    H218529   6.404   0.193  -0.011 -0.1104 -0.6394  1.0193
 6196TIP3   OH218530   0.339   0.078   4.928 -0.1525  0.6663 -1.0501
 6196TIP3    H118531   0.415   0.134   4.916  0.9906 -0.6362 -0.2257
 6196TIP3    H218532   0.371  -0.011   4.911 -1.2728  0.0104  0.0628
 6197TIP3   OH218533   1.187   6.349   6.382  0.0532 -0.0088 -0.4884
 6197TIP3    H118534   1.280   6.353   6.407  0.2283  0.3196 -1.1816
 6197TIP3    H218535   1.152   6.435   6.407 -0.4391 -0.6328  1.1496
 6198TIP3   OH218536   5.819   2.753   1.312  0.5742  0.0909 -0.1555
 6198TIP3    H118537   5.804   2.659   1.299  1.5895 -0.3816  1.8120
 6198TIP3    H218538   5.914   2.761   1.316  0.4656  1.0991  0.5021
 6199TIP3   OH218539   5.578   5.717   1.063  0.3219  0.2342 -0.1421
 6199TIP3    H118540   5.650   5.654   1.061 -0.0465 -0.2607  1.1163
 6199TIP3    H218541   5.608   5.786   1.121  0.3541  0.7673 -0.7841
 6200TIP3   OH218542   1.175   4.155   1.229 -0.2925  0.7052  0.1416
 6200TIP3    H118543   1.214   4.071   1.255  0.6085  1.3146  0.7813
 6200TIP3    H218544   1.097   4.130   1.179 -1.0232 -0.5384  1.7988
 6201TIP3   OH218545   2.604   0.686   3.851  0.0595 -0.5168 -0.2915
 6201TIP3    H118546   2.661   0.751   3.891 -0.4768 -0.4232  0.3340
 6201TIP3    H218547   2.664   0.630   3.801  0.6542 -0.1985  0.0473
 6202TIP3   OH218548   0.654   6.624   0.139 -0.2808  0.4436  0.1161
 6202TIP3    H118549   0.620   6.597   0.224  3.0554 -1.6497  0.9622
 6202TIP3    H218550   0.576   6.633   0.084 -2.3293 -2.3847  2.2772
 6203TIP3   OH218551   3.388   5.569   3.383 -0.1932 -0.1696 -0.2129
 6203TIP3    H118552   3.447   5.618   3.439 -1.3178  0.4104  0.4867
 6203TIP3    H218553   3.415   5.477   3.393  0.3529  0.0526  0.3537
 6204TIP3   OH218554   0.024   5.924   6.703  0.6624 -0.5920  0.1749
 6204TIP3    H118555   0.039   5.949   6.794 -0.7042 -0.3318  0.3517
 6204TIP3    H218556   0.073   5.989   6.652 -0.9336  1.0907  0.6854
 6205TIP3   OH218557   0.075   1.880   5.061  0.0921  0.3313  0.2382
 6205TIP3    H118558   0.107   1.969   5.045 -3.0960  1.4973 -0.4297
 6205TIP3    H218559   0.069   1.873   5.156  1.6052  0.2843  0.3556
 6206TIP3   OH218560   8.100   5.611   6.736 -0.7855  0.1632  1.0633
 6206TIP3    H118561   8.173   5.618   6.674 -2.2464 -1.9094 -1.0942
 6206TIP3    H218562   8.043   5.684   6.714 -0.3571  0.5849  1.3416
 6207TIP3   OH218563   2.720   0.290   3.211 -0.4206 -0.7492  0.0009
 6207TIP3    H118564   2.638   0.334   3.233  0.2616  0.5722 -0.0158
 6207TIP3    H218565   2.693   0.210   3.166 -1.6943 -0.4316  0.1711
 6208TIP3   OH218566   4.994   5.219   4.765 -1.0074 -1.0352  0.4304
 6208TIP3    H118567   5.066   5.280   4.750 -2.7063  0.8205 -0.5059
 6208TIP3    H218568   5.026   5.135   4.732  1.3451 -0.7040  1.6633
 6209TIP3   OH218569   6.677   4.029   6.012 -0.5452  0.2140  0.7424
 6209TIP3    H118570   6.769   4.056   6.016 -0.8947  1.7720 -0.7334
 6209TIP3    H218571   6.635   4.076   6.084 -0.3316 -0.0155  1.0251
 6210TIP3   OH218572   6.884   7.277   0.467  0.2473 -0.0328 -0.1663
 6210TIP3    H118573   6.806   7.319   0.504 -0.8337 -0.4519 -1.8597
 6210TIP3    H218574   6.949   7.280   0.538 -0.9570  1.2470  0.9468
 6211TIP3   OH218575   5.494   7.554   5.460  0.5974  0.6688  0.5063
 6211TIP3    H118576   5.552   7.484   5.487  0.0322  1.0713  3.0091
 6211TIP3    H218577   5.426   7.511   5.408  1.7971 -0.1496 -0.4156
 6212TIP3   OH218578   1.524   7.492   5.633  0.5524 -0.3045  0.1066
 6212TIP3    H118579   1.526   7.491   5.729 -0.1142  0.7969  0.1478
 6212TIP3    H218580   1.615   7.509   5.608  0.6379 -0.0848  0.5529
 6213TIP3   OH218581   0.723   4.118   5.821  0.6442 -0.0543  0.7427
 6213TIP3    H118582   0.650   4.176   5.844  0.1879  0.1185 -0.9835
 6213TIP3    H218583   0.779   4.170   5.765  1.7046 -0.4467  1.4080
 6214TIP3   OH218584   7.184   1.879   2.797 -0.2831  0.0937 -0.4735
 6214TIP3    H118585   7.105   1.833   2.826  0.5795 -1.6286 -0.7303
 6214TIP3    H218586   7.182   1.962   2.845 -0.9537 -0.9770  1.4854
 6215TIP3   OH218587   6.371   2.581   4.197 -0.2717  0.1132  0.2752
 6215TIP3    H118588   6.412   2.664   4.174 -0.0077  0.0921  0.6576
 6215TIP3    H218589   6.410   2.518   4.137  0.0362  0.1470  0.4382
 6216TIP3   OH218590   6.993   1.764   3.015  0.8726 -0.3041 -0.7710
 6216TIP3    H118591   6.976   1.833   3.080  2.2124  0.0278 -0.7478
 6216TIP3    H218592   7.061   1.710   3.055 -0.6186 -2.0906 -0.4929
 6217TIP3   OH218593   1.029   4.209   6.006 -0.2498  0.3845  0.4212
 6217TIP3    H118594   1.065   4.252   6.084  0.9758  1.3411 -0.6300
 6217TIP3    H218595   0.987   4.280   5.957  0.2144  0.0490 -0.4685
 6218TIP3   OH218596   5.298   6.771   2.338 -0.3952 -0.4856  0.8133
 6218TIP3    H118597   5.211   6.755   2.301 -1.1166  3.2578  0.5305
 6218TIP3    H218598   5.283   6.787   2.431 -0.5285  2.7688  0.3291
 6219TIP3   OH218599   1.196   7.579   5.208  0.1706  0.1455  0.1062
 6219TIP3    H118600   1.186   7.668   5.241 -0.9752 -0.0129  0.2386
 6219TIP3    H218601   1.235   7.531   5.281  1.0663  0.5890 -0.0662
 6220TIP3   OH218602   6.657   3.161   0.099  0.3496 -0.0309  0.1699
 6220TIP3    H118603   6.648   3.227   0.029  0.2516  0.6432  0.8081
 6220TIP3    H218604   6.594   3.189   0.166  0.3630 -0.7376  0.4783
 6221TIP3   OH218605   7.919   5.757   2.877  0.5768  0.2614  0.2354
 6221TIP3    H118606   7.947   5.830   2.821  1.3654  0.1144  0.4321
 6221TIP3    H218607   7.838   5.788   2.918  1.5339  1.5209  1.2565
 6222TIP3   OH218608   7.900   2.628   3.157  0.1691  0.0951  0.2474
 6222TIP3    H118609   7.888   2.602   3.066 -0.8109  0.9083  0.1382
 6222TIP3    H218610   7.920   2.721   3.154  1.0258 -0.0473  0.8253
 6223TIP3   OH218611   6.877   0.225   3.415  0.2570 -0.2492 -0.0341
 6223TIP3    H118612   6.899   0.254   3.326 -0.5015  0.9370  0.1391
 6223TIP3    H218613   6.784   0.202   3.410  0.0778  0.3191  0.5597
 6224TIP3   OH218614   5.297   5.485   0.649 -0.2977 -0.5286 -0.1480
 6224TIP3    H118615   5.336   5.403   0.617  0.7476  0.9617 -3.0656
 6224TIP3    H218616   5.368   5.528   0.696 -1.0892 -1.5596  2.1378
 6225TIP3   OH218617   0.082   4.950   6.455 -0.2220 -0.0043  0.3373
 6225TIP3    H118618   0.136   4.905   6.519  0.8652 -0.9624 -1.2076
 6225TIP3    H218619   0.033   4.880   6.411 -1.5499  0.7064  0.6252
 6226TIP3   OH218620   1.757   0.858   2.062 -0.4291  0.0432  0.2339
 6226TIP3    H118621   1.780   0.765   2.076 -0.4083 -0.0742 -0.5428
 6226TIP3    H218622   1.842   0.901   2.050 -0.0348  0.9188  4.5220
 6227TIP3   OH218623   6.265   0.927   3.211 -0.7575 -0.0525 -0.2597
 6227TIP3    H118624   6.327   0.971   3.270 -0.2104 -0.9631 -0.1421
 6227TIP3    H218625   6.240   0.995   3.149  1.8460 -0.0973 -1.4970
 6228TIP3   OH218626   5.309   7.383   2.351 -0.0521 -0.3972  0.5838
 6228TIP3    H118627   5.225   7.419   2.380 -0.9544 -1.5128 -0.5559
 6228TIP3    H218628   5.362   7.461   2.331 -1.4953  0.3440 -0.5611
 6229TIP3   OH218629   4.956   4.242   2.298 -0.0346 -0.2242  0.0736
 6229TIP3    H118630   4.953   4.152   2.266 -0.2973 -0.1075 -0.2327
 6229TIP3    H218631   5.036   4.279   2.260  0.3671 -0.4899  0.6417
 6230TIP3   OH218632   2.005   3.036   0.508 -0.7486 -0.4181  0.1021
 6230TIP3    H118633   1.936   2.971   0.493  0.2970 -1.1493 -1.8745
 6230TIP3    H218634   2.009   3.086   0.427  1.5934 -0.9530 -0.1778
 6231TIP3   OH218635   3.109   5.323   3.281  0.4721  0.0084  0.6540
 6231TIP3    H118636   3.183   5.384   3.277  1.6303 -1.2067  2.2288
 6231TIP3    H218637   3.145   5.243   3.320 -0.9107 -1.8411 -1.5361
 6232TIP3   OH218638   5.390   0.432   5.586  0.6297  0.2556 -0.6452
 6232TIP3    H118639   5.357   0.503   5.532  1.7580  2.2915  1.1878
 6232TIP3    H218640   5.483   0.426   5.565  0.5318 -0.8045 -0.8564
 6233TIP3   OH218641   5.768   4.024   6.400  0.4372  0.1914 -0.3859
 6233TIP3    H118642   5.849   3.974   6.396 -0.6154 -1.6865  0.6643
 6233TIP3    H218643   5.783   4.090   6.468 -0.1639 -2.6897  2.8036
 6234TIP3   OH218644   4.347   7.205   4.835  0.0249 -0.2908 -0.4476
 6234TIP3    H118645   4.267   7.180   4.881 -0.1237  1.3211  0.2339
 6234TIP3    H218646   4.412   7.216   4.904  0.1584  0.8317 -0.7251
 6235TIP3   OH218647   2.901   7.597   0.040 -1.3187 -1.1530 -0.0482
 6235TIP3    H118648   2.823   7.555   0.003 -1.3294 -1.5119  0.3650
 6235TIP3    H218649   2.877   7.689   0.048 -1.4978 -1.1604 -0.4503
 6236TIP3   OH218650   6.338   0.653   0.712  0.0384  0.1095 -0.2811
 6236TIP3    H118651   6.328   0.744   0.739 -1.5149 -0.6063  1.7944
 6236TIP3    H218652   6.315   0.602   0.789  0.5890 -2.0742 -1.4657
 6237TIP3   OH218653   0.395   1.826   1.594 -0.2888  0.2233  0.2387
 6237TIP3    H118654   0.440   1.829   1.510  0.2073 -0.0511  0.4891
 6237TIP3    H218655   0.411   1.737   1.627  1.6371  1.0660  1.7484
 6238TIP3   OH218656   0.557   5.593   0.467 -0.8264 -0.0645 -0.1001
 6238TIP3    H118657   0.563   5.680   0.506  1.7974  0.8666 -2.2452
 6238TIP3    H218658   0.596   5.535   0.532  0.1672  0.8714  0.1648
 6239TIP3   OH218659   3.327   6.868   0.489 -0.2359  0.1474  0.4576
 6239TIP3    H118660   3.366   6.806   0.428  0.2337  1.7936 -1.0309
 6239TIP3    H218661   3.336   6.828   0.575  2.1974 -0.7983 -0.1704
 6240TIP3   OH218662   3.260   6.565   6.691 -0.2318  0.0846  0.4708
 6240TIP3    H118663   3.188   6.588   6.632  0.3549 -0.0174 -0.3061
 6240TIP3    H218664   3.320   6.514   6.636  1.4607  1.9116  0.4950
 6241TIP3   OH218665   3.072   0.115   3.824 -0.8408  0.1838 -0.2931
 6241TIP3    H118666   3.042   0.034   3.783  0.8126 -1.9237  2.2838
 6241TIP3    H218667   3.162   0.125   3.792 -0.6594  0.3657  0.2705
 6242TIP3   OH218668   7.781   5.666   5.847  0.3443 -0.0730 -0.5656
 6242TIP3    H118669   7.767   5.749   5.892 -1.5732 -1.3470  1.4297
 6242TIP3    H218670   7.838   5.616   5.907  0.3226 -0.6973 -1.0593
 6243TIP3   OH218671   2.425   0.067   6.547 -0.1489  0.4258 -0.0717
 6243TIP3    H118672   2.497   0.078   6.484 -0.1035 -0.0892 -0.1184
 6243TIP3    H218673   2.437   0.137   6.610  0.8327 -0.0773  0.3258
 6244TIP3   OH218674   7.835   5.277   5.719  0.0062 -0.0951  0.0435
 6244TIP3    H118675   7.887   5.292   5.640  0.0777 -1.4711 -0.2049
 6244TIP3    H218676   7.793   5.192   5.704  0.0961 -0.4287  1.5251
 6245TIP3   OH218677   8.008   3.857   1.627  0.2601  0.0647 -0.2799
 6245TIP3    H118678   7.920   3.893   1.634  1.2972  2.4163  3.0372
 6245TIP3    H218679   8.004   3.775   1.677  0.1416  0.6727  0.7343
 6246TIP3   OH218680   7.806   0.477   4.471 -0.1299 -0.1907  0.9773
 6246TIP3    H118681   7.740   0.454   4.537 -0.9750 -0.0591  0.1973
 6246TIP3    H218682   7.756   0.487   4.390  0.7557  0.5932  0.5098
 6247TIP3   OH218683   5.776   0.261   2.052  0.3040 -0.1997 -0.0748
 6247TIP3    H118684   5.690   0.292   2.025 -0.6408 -1.5836  1.1652
 6247TIP3    H218685   5.796   0.312   2.131 -0.5244 -1.5250  1.0382
 6248TIP3   OH218686   3.479   4.044   6.554 -0.3239  0.0685 -0.0112
 6248TIP3    H118687   3.481   3.952   6.527  1.1387 -0.2172  0.9883
 6248TIP3    H218688   3.389   4.058   6.584 -0.4561 -1.1577  0.2123
 6249TIP3   OH218689   7.963   1.414   1.382  0.3453 -0.2644  0.1257
 6249TIP3    H118690   8.003   1.498   1.358 -0.3196 -0.1705 -0.6846
 6249TIP3    H218691   7.940   1.374   1.298  3.3445 -2.6403  0.2337
 6250TIP3   OH218692   4.267   7.834   1.915 -0.1509 -0.1153 -0.0027
 6250TIP3    H118693   4.199   7.769   1.899 -0.4266  0.0219  0.5881
 6250TIP3    H218694   4.305   7.809   1.999 -0.0036  0.2595  0.0451
 6251TIP3   OH218695   8.174   3.418   1.092 -0.6318 -0.1584 -0.8331
 6251TIP3    H118696   8.141   3.496   1.138  1.7341  1.1831 -1.2519
 6251TIP3    H218697   8.097   3.383   1.046 -1.6491  2.3107 -1.1784
 6252TIP3   OH218698   5.180   2.825   2.040 -0.7134 -0.3277 -0.3590
 6252TIP3    H118699   5.164   2.877   1.961  0.8210 -1.7558 -1.6844
 6252TIP3    H218700   5.225   2.886   2.099 -0.2298  0.2880 -1.3155
 6253TIP3   OH218701   2.139   0.492   0.421 -0.2260  0.0028  0.5406
 6253TIP3    H118702   2.093   0.457   0.497 -1.2468  0.0426 -0.0391
 6253TIP3    H218703   2.070   0.507   0.356  0.7307 -0.9738 -0.7644
 6254TIP3   OH218704   7.598   4.728   3.512  0.1334 -0.5152 -0.0123
 6254TIP3    H118705   7.533   4.724   3.441  1.1642  0.9448 -1.1079
 6254TIP3    H218706   7.674   4.771   3.472  2.2596 -3.1915  0.8812
 6255TIP3   OH218707   5.005   6.479   5.755 -0.2247  0.2217  0.5273
 6255TIP3    H118708   4.942   6.547   5.777 -0.0904  1.1920 -1.7602
 6255TIP3    H218709   4.990   6.411   5.820 -1.0332  2.0009  2.3132
 6256TIP3   OH218710   5.706   0.001   2.047 -0.3276  0.2727 -0.0084
 6256TIP3    H118711   5.722  -0.021   1.955 -0.3734  1.5123 -0.3301
 6256TIP3    H218712   5.746   0.087   2.058  0.4755 -0.2435  1.3841
 6257TIP3   OH218713   2.885   2.599   4.458 -0.5900  0.2841 -0.0524
 6257TIP3    H118714   2.935   2.527   4.496  0.1176  0.7752 -0.0364
 6257TIP3    H218715   2.816   2.617   4.522  0.4361  0.9432  0.9001
 6258TIP3   OH218716   2.175   4.636   1.695 -0.3538 -0.2432 -0.8102
 6258TIP3    H118717   2.240   4.566   1.694 -0.1562 -0.0615 -0.5217
 6258TIP3    H218718   2.220   4.712   1.660 -0.1219  0.1381  0.2889
 6259TIP3   OH218719   5.675   6.754   1.410 -0.1676  0.2435 -0.1544
 6259TIP3    H118720   5.690   6.661   1.424 -0.3698  0.3270  0.7078
 6259TIP3    H218721   5.627   6.782   1.488  2.5554  1.7206  1.1121
 6260TIP3   OH218722   6.547   2.053   5.043  0.5112  0.5301 -0.3254
 6260TIP3    H118723   6.542   2.115   5.116 -0.7276 -0.8970  0.8678
 6260TIP3    H218724   6.638   2.024   5.043  0.0654 -1.2626  2.3346
 6261TIP3   OH218725   5.032   3.804   0.026  0.0481 -0.3544  0.1289
 6261TIP3    H118726   4.989   3.754   0.095 -1.2261  0.0897 -0.3308
 6261TIP3    H218727   5.029   3.747  -0.051 -0.7864  0.1481 -0.2147
 6262TIP3   OH218728   4.062   3.690   0.100 -0.1084 -0.0217  0.1605
 6262TIP3    H118729   4.140   3.721   0.055  1.1463 -0.5966  1.8439
 6262TIP3    H218730   4.023   3.769   0.138  0.9264  0.0399  1.1715
 6263TIP3   OH218731   3.008   3.658   2.649  0.3778 -0.3389  0.0403
 6263TIP3    H118732   2.961   3.740   2.635 -0.0426 -0.4425  0.8058
 6263TIP3    H218733   2.955   3.593   2.602  0.1568 -0.3352  0.2821
 6264TIP3   OH218734   3.034   6.562   1.381 -0.0579  0.6150  0.1335
 6264TIP3    H118735   2.948   6.537   1.416 -0.0611 -0.9286 -0.8766
 6264TIP3    H218736   3.025   6.548   1.286  1.0338  1.3510 -0.0944
 6265TIP3   OH218737   3.294   1.638   6.427  0.2089 -0.1737 -0.2457
 6265TIP3    H118738   3.274   1.673   6.514  0.1226  0.1011 -0.3769
 6265TIP3    H218739   3.242   1.558   6.422  1.4944 -1.1021  0.6127
 6266TIP3   OH218740   4.974   1.963   2.673 -0.9735 -0.5154 -0.0734
 6266TIP3    H118741   5.026   1.890   2.703  3.5765  1.7556 -1.5136
 6266TIP3    H218742   4.953   1.942   2.581 -0.4023 -0.3724 -0.2369
 6267TIP3   OH218743   7.407   3.922   4.663  0.0146  0.5452 -0.3570
 6267TIP3    H118744   7.473   3.919   4.733  1.7779 -1.5319 -1.9597
 6267TIP3    H218745   7.451   3.969   4.592 -0.5418 -0.1242 -1.1567
 6268TIP3   OH218746   6.612   7.040   2.907  0.1125 -0.1047 -0.0186
 6268TIP3    H118747   6.518   7.049   2.921  0.1078  0.6111 -0.5035
 6268TIP3    H218748   6.628   7.074   2.820  0.5010 -2.3407 -0.8943
 6269TIP3   OH218749   1.336   4.097   4.946 -0.3412 -0.6598 -0.9122
 6269TIP3    H118750   1.385   4.171   4.982 -0.7511 -1.5078  1.5936
 6269TIP3    H218751   1.396   4.056   4.884  1.1731 -0.1501  0.1494
 6270TIP3   OH218752   0.436   4.655   6.480  0.5678 -0.1035 -0.0010
 6270TIP3    H118753   0.424   4.723   6.414  0.3993 -0.5948 -0.4846
 6270TIP3    H218754   0.463   4.578   6.431 -0.4594 -0.7348  0.3842
 6271TIP3   OH218755   3.359   1.192   0.593  0.0382  0.2752 -0.1217
 6271TIP3    H118756   3.399   1.105   0.590 -0.8786 -0.1792  0.3733
 6271TIP3    H218757   3.280   1.183   0.539 -1.5352 -0.0026  2.1121
 6272TIP3   OH218758   3.866   7.349   6.167  0.3135  0.6167 -0.1293
 6272TIP3    H118759   3.875   7.265   6.213 -2.2915  0.3826  0.0803
 6272TIP3    H218760   3.885   7.415   6.234 -0.8746  0.2328  0.6044
 6273TIP3   OH218761   6.362   2.374   5.630  0.1291  0.5444 -0.1669
 6273TIP3    H118762   6.331   2.296   5.675 -0.5588  1.1644  0.4606
 6273TIP3    H218763   6.326   2.447   5.680  2.2157  1.3239  0.3276
 6274TIP3   OH218764   5.724   2.062   3.269 -0.1471 -0.0430 -0.1259
 6274TIP3    H118765   5.798   2.058   3.208 -1.5086  0.5402 -1.9211
 6274TIP3    H218766   5.757   2.113   3.343  1.5037 -0.5704 -0.4497
 6275TIP3   OH218767   6.192   4.129   0.890 -0.3321 -0.3390 -0.4329
 6275TIP3    H118768   6.199   4.079   0.809 -0.2342  0.0515 -0.6673
 6275TIP3    H218769   6.253   4.086   0.950 -0.6182 -0.8058 -0.4699
 6276TIP3   OH218770   7.501   4.967   6.060 -0.3581  0.1827 -0.6591
 6276TIP3    H118771   7.543   5.047   6.092  0.2086  0.5777 -2.2865
 6276TIP3    H218772   7.566   4.928   6.001 -0.8663 -1.1692 -0.3709
 6277TIP3   OH218773   0.236   6.380   6.625  0.2032 -0.1380  0.3368
 6277TIP3    H118774   0.267   6.297   6.590  0.7341 -0.0028  0.4655
 6277TIP3    H218775   0.208   6.359   6.714 -1.1405 -0.4800 -0.1469
 6278TIP3   OH218776   8.001   7.393   0.924 -0.4216 -0.6470  0.1894
 6278TIP3    H118777   7.950   7.474   0.932  0.9054  0.3106 -0.6555
 6278TIP3    H218778   8.013   7.382   0.830  3.2103  0.7114  0.3482
 6279TIP3   OH218779   4.880   5.175   2.881  0.0534 -0.3587 -0.3628
 6279TIP3    H118780   4.947   5.162   2.949  0.6414  1.2984 -0.5998
 6279TIP3    H218781   4.797   5.171   2.929  0.4033 -0.3423  0.2618
 6280TIP3   OH218782   5.629   2.107   2.175  0.2716  0.1990  0.8606
 6280TIP3    H118783   5.677   2.161   2.238  1.5128  1.4298 -1.0584
 6280TIP3    H218784   5.617   2.162   2.099  0.4119 -1.8139 -0.7101
 6281TIP3   OH218785   3.802   7.126   0.177 -0.0219 -0.0575 -0.0776
 6281TIP3    H118786   3.862   7.181   0.126 -0.0705  0.9244  0.8885
 6281TIP3    H218787   3.715   7.160   0.155 -0.0047  0.8441  1.1693
 6282TIP3   OH218788   2.398   4.712   3.850 -0.1124 -0.1853  0.4621
 6282TIP3    H118789   2.448   4.753   3.919  0.4523 -1.0255  0.5671
 6282TIP3    H218790   2.462   4.662   3.799 -0.4750  0.6250 -0.8307
 6283TIP3   OH218791   8.216   0.820   1.251 -0.2998 -0.1529 -0.6814
 6283TIP3    H118792   8.228   0.881   1.177  3.4180 -1.3674 -1.3146
 6283TIP3    H218793   8.156   0.754   1.218  1.5288 -0.8511 -2.9078
 6284TIP3   OH218794   3.589   1.785   1.317  0.0827  0.1049 -0.0781
 6284TIP3    H118795   3.516   1.762   1.374 -0.1045  1.5007  0.2980
 6284TIP3    H218796   3.549   1.842   1.250  0.1868 -1.9406 -1.9780
 6285TIP3   OH218797   5.210   2.048   0.179 -0.1471 -0.5875  0.2849
 6285TIP3    H118798   5.188   2.101   0.256 -1.9859 -0.3331 -0.3644
 6285TIP3    H218799   5.155   1.970   0.187 -2.3088  0.5624 -1.9614
 6286TIP3   OH218800   2.925   3.241   1.275 -0.0329  0.1474  0.0331
 6286TIP3    H118801   2.950   3.154   1.305  0.5662  0.3613  0.1542
 6286TIP3    H218802   2.958   3.246   1.185 -0.4892  0.0738 -0.1412
 6287TIP3   OH218803   0.403   0.042   2.083 -0.1363 -0.3695  0.0198
 6287TIP3    H118804   0.396  -0.044   2.126  0.4454 -0.6331 -0.3986
 6287TIP3    H218805   0.475   0.032   2.021  0.1940  0.5483  0.2407
 6288TIP3   OH218806   0.226   5.844   1.425  0.1159  0.1951 -0.3301
 6288TIP3    H118807   0.221   5.869   1.517  0.0962 -1.8046  0.2580
 6288TIP3    H218808   0.320   5.841   1.406  0.1272  0.3852 -0.3023
 6289TIP3   OH218809   3.152   6.836   6.750 -0.2338  0.4744 -0.2375
 6289TIP3    H118810   3.160   6.931   6.746 -1.6799  0.5926 -2.0553
 6289TIP3    H218811   3.240   6.803   6.730  0.3531  1.4090  0.7398
 6290TIP3   OH218812   4.521   6.658   0.215 -0.0133 -0.3415  0.5700
 6290TIP3    H118813   4.525   6.634   0.122  1.1717  0.9037  0.2702
 6290TIP3    H218814   4.612   6.664   0.242 -0.2948  1.2534  1.2771
 6291TIP3   OH218815   7.808   7.360   1.709  0.4884 -0.0765  0.1493
 6291TIP3    H118816   7.769   7.447   1.718 -1.2961 -0.9318  1.1814
 6291TIP3    H218817   7.873   7.356   1.780 -0.8648 -0.2819  1.4209
 6292TIP3   OH218818   3.605   0.610   0.694 -0.1502  0.0114  0.4591
 6292TIP3    H118819   3.670   0.658   0.643  0.5571 -0.4809  0.8761
 6292TIP3    H218820   3.626   0.517   0.680 -0.5001 -0.1479  0.9353
 6293TIP3   OH218821   2.602   3.265   1.445 -0.4331 -0.5194  0.4360
 6293TIP3    H118822   2.625   3.293   1.356 -1.2900 -1.1841 -0.0022
 6293TIP3    H218823   2.582   3.172   1.436  1.3509 -1.0871  1.6864
 6294TIP3   OH218824   3.028   3.671   6.531  0.2532  0.5164  0.3422
 6294TIP3    H118825   2.981   3.740   6.578 -0.4067  0.2757  0.0573
 6294TIP3    H218826   3.095   3.717   6.481  1.0664  0.7680  1.6096
 6295TIP3   OH218827   7.715   3.850   3.694  0.4054  0.5666  0.3440
 6295TIP3    H118828   7.743   3.862   3.603  1.2562 -0.8364  0.4046
 6295TIP3    H218829   7.784   3.890   3.746 -0.2297  1.6438  0.3941
 6296TIP3   OH218830   5.792   7.269   3.385 -0.2413  0.1045 -0.3493
 6296TIP3    H118831   5.711   7.220   3.376  0.2558 -0.9755  0.6855
 6296TIP3    H218832   5.806   7.276   3.480  0.4194  1.0496 -0.4961
 6297TIP3   OH218833   7.517   5.756   2.062  0.2459 -0.3999  0.1578
 6297TIP3    H118834   7.536   5.769   2.156 -0.6695  1.3484  0.1502
 6297TIP3    H218835   7.603   5.761   2.020  0.6232 -0.7485  0.8625
 6298TIP3   OH218836   8.248   7.149   2.519 -0.1053 -0.4315  0.4181
 6298TIP3    H118837   8.170   7.101   2.491 -1.1320  1.1834  0.3934
 6298TIP3    H218838   8.262   7.214   2.450 -1.9418  2.8237  2.8208
 6299TIP3   OH218839   7.786   4.585   6.502  0.3572 -0.1963  0.8326
 6299TIP3    H118840   7.764   4.522   6.570  0.1406  0.1749  1.1086
 6299TIP3    H218841   7.767   4.671   6.541 -0.0698  0.0054  0.2000
 6300TIP3   OH218842   7.538   3.046   6.319 -0.3116 -0.0387  0.4627
 6300TIP3    H118843   7.515   3.108   6.389  2.3465  2.8956 -1.0289
 6300TIP3    H218844   7.618   3.004   6.350 -0.0535  0.0335 -0.1000
 6301TIP3   OH218845   0.855   4.898   2.044 -0.4597 -0.0340 -0.2163
 6301TIP3    H118846   0.792   4.830   2.020 -1.3739  1.3553 -1.9736
 6301TIP3    H218847   0.899   4.863   2.121 -0.2386 -3.0170 -1.5691
 6302TIP3   OH218848   4.584   3.491   1.225 -0.4248 -0.3345  0.2543
 6302TIP3    H118849   4.537   3.444   1.294  0.7491 -0.0070  1.2923
 6302TIP3    H218850   4.676   3.469   1.238  0.0156  1.2344 -0.0370
 6303TIP3   OH218851   0.014   4.119   6.449 -0.4701 -0.2079  0.0059
 6303TIP3    H118852   0.104   4.144   6.428 -0.1814  1.1160  2.4476
 6303TIP3    H218853  -0.040   4.175   6.395  0.2128  0.8881  0.4233
 6304TIP3   OH218854   7.452   7.738   0.124  0.1061 -0.4236 -0.4466
 6304TIP3    H118855   7.458   7.755   0.030 -1.7907  2.3605 -0.1918
 6304TIP3    H218856   7.542   7.744   0.155  0.5288  0.8214 -1.8048
 6305TIP3   OH218857   1.158   7.076   5.983 -0.2873  0.3969  0.2119
 6305TIP3    H118858   1.188   7.110   5.899  1.0432 -1.6923 -0.2476
 6305TIP3    H218859   1.064   7.062   5.972 -0.4661  1.7991 -0.2741
 6306TIP3   OH218860   7.249   6.852   3.436  0.0134 -0.0588 -0.2470
 6306TIP3    H118861   7.185   6.780   3.446  0.7646 -0.7382 -0.2128
 6306TIP3    H218862   7.198   6.931   3.453 -1.0370 -0.5098 -1.1228
 6307TIP3   OH218863   0.388   0.692   1.974 -0.1147 -0.0076 -0.1146
 6307TIP3    H118864   0.321   0.628   1.999 -1.2847  0.7693 -1.1232
 6307TIP3    H218865   0.470   0.644   1.978 -0.8242 -1.2277  0.3343
 6308TIP3   OH218866   2.192   4.114   2.825  0.2078  0.5010 -0.4637
 6308TIP3    H118867   2.099   4.131   2.812 -0.1523 -1.9972 -2.0236
 6308TIP3    H218868   2.199   4.085   2.916 -1.0312 -1.6141 -0.9780
 6309TIP3   OH218869   5.667   2.367   1.539  0.2517 -0.8510  0.5743
 6309TIP3    H118870   5.712   2.283   1.530 -1.2778 -1.5191 -2.2378
 6309TIP3    H218871   5.737   2.433   1.533  1.1213 -1.8756 -1.6288
 6310TIP3   OH218872   7.737   0.403   4.878 -0.6035 -0.2993 -0.1577
 6310TIP3    H118873   7.744   0.485   4.926 -2.4956 -0.1436 -0.0801
 6310TIP3    H218874   7.781   0.339   4.934  1.2375  0.6846 -0.4026
 6311TIP3   OH218875   3.828   1.990   2.430 -0.0689 -0.3989  0.4311
 6311TIP3    H118876   3.739   1.956   2.440  0.5038 -2.3898 -0.7092
 6311TIP3    H218877   3.816   2.085   2.420 -2.1664 -0.7004 -0.6744
 6312TIP3   OH218878   1.627   7.811   2.351 -0.7156 -0.3413  0.1731
 6312TIP3    H118879   1.704   7.764   2.381 -0.1032 -0.4832 -1.5170
 6312TIP3    H218880   1.558   7.787   2.413 -0.3578 -3.2147 -0.3984
 6313TIP3   OH218881   2.144   7.407   6.079 -0.1881  0.1278 -0.6593
 6313TIP3    H118882   2.102   7.472   6.023  0.1374  1.7624  0.9213
 6313TIP3    H218883   2.206   7.457   6.132  0.7145 -1.6124 -0.0063
 6314TIP3   OH218884   4.758   0.331   0.796 -0.8457  0.3632  0.7419
 6314TIP3    H118885   4.819   0.312   0.725 -0.9706 -0.1080  0.7583
 6314TIP3    H218886   4.801   0.400   0.846 -0.1235 -0.2566  1.0017
 6315TIP3   OH218887   3.557   2.319   6.156 -0.1333 -0.2623 -0.4455
 6315TIP3    H118888   3.464   2.298   6.157 -0.2179 -0.0109 -1.7585
 6315TIP3    H218889   3.563   2.404   6.200 -0.5255 -0.2464 -0.4223
 6316TIP3   OH218890   1.434   3.110   1.232 -0.1862  0.3507  0.1345
 6316TIP3    H118891   1.463   3.113   1.324  0.4207 -0.2745 -0.0252
 6316TIP3    H218892   1.511   3.137   1.182 -0.5096  0.6697 -0.1974
 6317TIP3   OH218893   2.218   0.107   2.314 -0.0783  0.1185  0.1099
 6317TIP3    H118894   2.128   0.080   2.334 -0.2238  1.3841  1.4280
 6317TIP3    H218895   2.271   0.028   2.327 -1.0059 -0.6758 -0.8284
 6318TIP3   OH218896   4.770   3.940   3.148 -0.1157  0.3188  0.2914
 6318TIP3    H118897   4.785   3.976   3.235 -0.8417  0.6184  0.3005
 6318TIP3    H218898   4.760   3.846   3.162  0.2561  0.3027  0.4621
 6319TIP3   OH218899   3.971   6.584   5.806  0.1872  0.0835 -0.6302
 6319TIP3    H118900   3.911   6.659   5.803 -0.5966 -0.4731  0.7223
 6319TIP3    H218901   4.037   6.605   5.739  0.6503  2.5497  0.4842
 6320TIP3   OH218902   5.092   7.616   4.701  0.0834 -0.1564  0.1120
 6320TIP3    H118903   5.012   7.563   4.694 -0.2950  0.2318  1.3749
 6320TIP3    H218904   5.081   7.685   4.635 -1.1752  0.5952  1.0738
 6321TIP3   OH218905   7.450   4.338   2.446  0.7641  0.6245  0.3721
 6321TIP3    H118906   7.473   4.310   2.358 -0.9731  2.0373 -0.5837
 6321TIP3    H218907   7.532   4.333   2.495  2.2123  1.7276 -1.8307
 6322TIP3   OH218908   3.320   0.100   3.679 -0.0416 -0.6163 -0.0689
 6322TIP3    H118909   3.351   0.149   3.604  1.0145 -0.3932  0.4937
 6322TIP3    H218910   3.380   0.027   3.687 -0.2454 -0.7337  0.4551
 6323TIP3   OH218911   2.491   5.447   1.001  0.1124 -0.7311 -0.0390
 6323TIP3    H118912   2.466   5.536   0.975 -0.0646 -0.8359 -0.2251
 6323TIP3    H218913   2.586   5.452   1.013  0.3012 -0.8580 -1.4036
 6324TIP3   OH218914   1.795   5.774   3.084  0.1948  0.6934  0.5181
 6324TIP3    H118915   1.743   5.836   3.032  0.2692 -1.1321 -1.9046
 6324TIP3    H218916   1.737   5.699   3.098  1.6915 -0.9121 -1.2737
 6325TIP3   OH218917   2.220   7.340   4.263  0.3997 -0.8859  0.5200
 6325TIP3    H118918   2.151   7.373   4.205 -0.9997  0.8576  2.9795
 6325TIP3    H218919   2.293   7.401   4.251 -0.3143  0.1711  1.3635
 6326TIP3   OH218920   0.431   6.681   4.856 -0.5701  0.7134 -0.4493
 6326TIP3    H118921   0.338   6.656   4.851 -0.7460  1.4129 -0.7202
 6326TIP3    H218922   0.432   6.762   4.905 -0.0267  0.3749  0.1177
 6327TIP3   OH218923   0.004   2.198   2.333 -0.1052 -0.9741  0.0434
 6327TIP3    H118924   0.081   2.149   2.363 -1.9022 -2.8651  1.9467
 6327TIP3    H218925  -0.056   2.131   2.300 -1.9903  0.0729  1.1459
 6328TIP3   OH218926   1.195   6.945   1.525 -0.1424 -0.0967  0.0332
 6328TIP3    H118927   1.115   6.994   1.542 -0.5532 -0.2233 -1.4042
 6328TIP3    H218928   1.166   6.865   1.483  0.7095 -0.3595 -0.0887
 6329TIP3   OH218929   6.640   3.338   2.472  0.0788 -0.3955  0.1289
 6329TIP3    H118930   6.671   3.288   2.547  2.5568  1.0393  0.1762
 6329TIP3    H218931   6.633   3.274   2.401  0.1138 -1.3189  0.9400
 6330TIP3   OH218932   7.056   7.474   5.127  0.4726 -0.1385 -0.4787
 6330TIP3    H118933   7.031   7.464   5.035  0.5308 -0.4263 -0.4660
 6330TIP3    H218934   7.142   7.515   5.124 -0.4898  1.9822 -0.4958
 6331TIP3   OH218935   6.232   2.104   2.064 -0.5679 -0.1533 -0.0983
 6331TIP3    H118936   6.231   2.009   2.060 -0.8118 -0.3002  2.1961
 6331TIP3    H218937   6.164   2.127   2.127 -0.7215  1.5729 -0.8217
 6332TIP3   OH218938   2.623   1.919   1.553  0.2410  0.0574 -0.0608
 6332TIP3    H118939   2.598   1.880   1.637 -2.9890 -1.5529 -1.6053
 6332TIP3    H218940   2.569   1.997   1.545  0.1208 -0.0990 -0.8658
 6333TIP3   OH218941   4.885   4.499   2.941 -0.5290  0.6985  0.5048
 6333TIP3    H118942   4.812   4.497   2.879  1.7683 -0.8839 -2.4462
 6333TIP3    H218943   4.892   4.409   2.972 -0.0027  0.8863  0.9427
 6334TIP3   OH218944   0.731   3.450   1.745 -0.2140  0.2823  0.3821
 6334TIP3    H118945   0.757   3.374   1.797  0.8798 -0.5003 -1.2109
 6334TIP3    H218946   0.734   3.419   1.654 -0.2492  2.0887 -0.2796
 6335TIP3   OH218947   1.552   0.478   0.333  0.1031 -0.3858 -0.1380
 6335TIP3    H118948   1.497   0.445   0.262  0.3620  0.9551 -0.9868
 6335TIP3    H218949   1.622   0.414   0.342  0.7983  0.0709 -1.9900
 6336TIP3   OH218950   2.121   5.148   1.916 -0.2191 -0.1298 -0.8342
 6336TIP3    H118951   2.129   5.160   1.821  1.4657  1.0428 -0.6081
 6336TIP3    H218952   2.212   5.144   1.947 -0.7393 -1.7603  0.6074
 6337TIP3   OH218953   4.875   7.384   1.553  0.4360 -0.0541 -0.3328
 6337TIP3    H118954   4.905   7.306   1.600 -0.4310  0.8605  1.8770
 6337TIP3    H218955   4.955   7.427   1.525  0.9328 -1.7008 -1.5961
 6338TIP3   OH218956   8.008   0.551   2.415 -0.3672  0.0362 -0.6010
 6338TIP3    H118957   7.937   0.602   2.374  1.0576  0.9366 -2.0451
 6338TIP3    H218958   8.015   0.473   2.361  0.8929  0.7867 -1.5667
 6339TIP3   OH218959   0.276   3.383   5.651  0.3144  0.1065  0.0576
 6339TIP3    H118960   0.350   3.340   5.693 -1.8645 -1.4077  2.6830
 6339TIP3    H218961   0.268   3.339   5.566  1.2275 -1.0843  0.5546
 6340TIP3   OH218962   7.465   3.724   6.160  0.6048 -0.0792  0.4387
 6340TIP3    H118963   7.410   3.793   6.124  0.2336  0.1376  1.3954
 6340TIP3    H218964   7.555   3.755   6.144  0.4521  0.0726 -0.1605
 6341TIP3   OH218965   5.781   3.978   4.724  1.0054  0.7399  0.0549
 6341TIP3    H118966   5.795   3.987   4.630  1.0096  0.8158  0.0634
 6341TIP3    H218967   5.867   3.955   4.759  0.7833 -0.4025 -0.1060
 6342TIP3   OH218968   5.725   3.709   0.538 -0.4066 -0.2422 -0.0021
 6342TIP3    H118969   5.702   3.704   0.445  1.4587  0.2955 -0.5478
 6342TIP3    H218970   5.715   3.619   0.570  1.6476 -1.0746 -1.4827
 6343TIP3   OH218971   5.980   1.554   0.366  0.3259  0.0820  0.3278
 6343TIP3    H118972   5.892   1.569   0.330  0.2928 -1.5768 -0.3605
 6343TIP3    H218973   6.013   1.478   0.318  1.4617 -0.3874  1.7718
 6344TIP3   OH218974   2.362   5.913   5.355 -0.3563 -0.6899  0.9294
 6344TIP3    H118975   2.277   5.913   5.399 -1.3170  1.5160 -0.7207
 6344TIP3    H218976   2.415   5.975   5.404 -1.4111  1.7306 -0.7809
 6345TIP3   OH218977   1.830   1.521   5.472 -0.6373  0.0256 -0.3263
 6345TIP3    H118978   1.801   1.588   5.410 -1.4193  0.0975  0.1051
 6345TIP3    H218979   1.799   1.439   5.435  1.6790 -0.3304 -1.6781
 6346TIP3   OH218980   1.488   0.395   1.149 -0.0897  0.3647  0.4077
 6346TIP3    H118981   1.563   0.385   1.207 -1.1833  1.6294  2.1119
 6346TIP3    H218982   1.414   0.361   1.198 -0.9362  0.7811 -0.5374
 6347TIP3   OH218983   1.745   3.989   2.065  0.2835 -0.1645  0.4299
 6347TIP3    H118984   1.659   3.949   2.059 -0.0169  0.4108  0.7730
 6347TIP3    H218985   1.762   4.024   1.978  0.1753 -0.2834  0.3616
 6348TIP3   OH218986   2.392   4.652   0.775 -0.5759 -0.8756 -0.3212
 6348TIP3    H118987   2.428   4.674   0.861  2.5249 -3.6360 -0.7056
 6348TIP3    H218988   2.365   4.736   0.737  2.9356  1.1834  1.2855
 6349TIP3   OH218989   4.417   2.536   0.900 -0.0355 -0.1749 -0.3284
 6349TIP3    H118990   4.482   2.533   0.970  0.1178 -1.2973 -0.4996
 6349TIP3    H218991   4.341   2.579   0.939 -0.6708 -2.4586  1.1783
 6350TIP3   OH218992   6.251   5.357   4.475 -0.5148  0.0303  0.4679
 6350TIP3    H118993   6.335   5.362   4.430 -0.8457  0.5511 -0.1060
 6350TIP3    H218994   6.244   5.266   4.503 -0.0556 -0.1703 -0.0599
 6351TIP3   OH218995   7.784   5.483   5.088 -0.0208 -0.2635 -0.1701
 6351TIP3    H118996   7.839   5.438   5.024 -0.7144 -1.3572 -0.0217
 6351TIP3    H218997   7.709   5.514   5.036  0.6367  1.0792 -0.3428
 6352TIP3   OH218998   1.117   1.348   4.854  0.0737  0.3583 -0.3901
 6352TIP3    H118999   1.066   1.363   4.934 -0.3479  1.0415 -0.7704
 6352TIP3    H219000   1.183   1.418   4.854 -0.4398  0.8546 -1.0342
 6353TIP3   OH219001   0.338   1.164   5.429 -0.1248  0.2528  0.1615
 6353TIP3    H119002   0.337   1.230   5.498  1.2148  0.8198 -0.3304
 6353TIP3    H219003   0.430   1.141   5.418 -0.3552 -0.1624 -1.1180
 6354TIP3   OH219004   6.539   1.749   5.162  0.5164  0.1244 -0.3756
 6354TIP3    H119005   6.510   1.788   5.079  0.4009  0.3289 -0.2416
 6354TIP3    H219006   6.632   1.770   5.167  1.2095 -2.2688 -1.7813
 6355TIP3   OH219007   8.179   3.150   2.545 -0.2107  0.3514 -0.4197
 6355TIP3    H119008   8.130   3.068   2.548 -0.3571  0.2943 -2.6125
 6355TIP3    H219009   8.114   3.217   2.525  0.1750  0.6928 -0.5495
 6356TIP3   OH219010   1.456   7.100   1.201 -0.2266 -0.5826  0.2354
 6356TIP3    H119011   1.381   7.160   1.212 -1.7544 -2.2607 -0.4825
 6356TIP3    H219012   1.483   7.078   1.290  0.1296  0.8577  0.5082
 6357TIP3   OH219013   4.357   2.555   2.254 -0.2410 -0.3551  0.2881
 6357TIP3    H119014   4.427   2.560   2.318 -1.1484 -0.5100  1.3145
 6357TIP3    H219015   4.307   2.477   2.277 -2.0640  0.9435  0.9874
 6358TIP3   OH219016   4.318   7.530   2.253 -0.0328  0.1429 -0.1828
 6358TIP3    H119017   4.412   7.530   2.236  0.3649  0.5025  1.7901
 6358TIP3    H219018   4.310   7.494   2.341 -1.5242  2.2883  0.6467
 6359TIP3   OH219019   7.941   2.667   1.138 -0.7918 -0.2391  0.3901
 6359TIP3    H119020   7.970   2.581   1.106  0.7300  0.1973  0.4910
 6359TIP3    H219021   7.886   2.701   1.068 -1.7278 -1.4428  0.5109
 6360TIP3   OH219022   1.394   2.338   2.157 -0.3336  0.7493 -0.6964
 6360TIP3    H119023   1.318   2.304   2.111 -2.0291 -0.8324  2.8814
 6360TIP3    H219024   1.469   2.298   2.113 -1.8236 -0.7606 -1.9846
 6361TIP3   OH219025   5.967   2.814   2.150 -0.8828  0.5489  0.4633
 6361TIP3    H119026   5.934   2.897   2.115  0.0401  0.7170 -0.0369
 6361TIP3    H219027   5.917   2.747   2.103  0.1007  0.7831 -0.9514
 6362TIP3   OH219028   2.008   2.522   2.341 -0.2836  0.3656 -0.2892
 6362TIP3    H119029   1.918   2.552   2.355  0.5631  2.0020  2.3595
 6362TIP3    H219030   2.059   2.601   2.330  1.1280 -0.3922  0.4633
 6363TIP3   OH219031  -0.013   3.703   2.893  0.3498  0.2262  0.2938
 6363TIP3    H119032  -0.027   3.621   2.846  2.2482  0.4501 -0.7369
 6363TIP3    H219033   0.047   3.681   2.964  0.5787  0.6404  0.2367
 6364TIP3   OH219034   7.818   3.771   4.161 -0.2520 -0.1385 -0.6776
 6364TIP3    H119035   7.856   3.827   4.228 -0.2072 -0.8315 -0.1179
 6364TIP3    H219036   7.764   3.830   4.109 -0.5326  0.3467  0.1485
 6365TIP3   OH219037   4.492   3.138   6.402 -0.2797  0.0078 -0.5024
 6365TIP3    H119038   4.452   3.149   6.488 -2.4199  1.2078 -1.5846
 6365TIP3    H219039   4.476   3.221   6.357 -0.6982 -1.1555 -2.6263
 6366TIP3   OH219040   1.099  -0.015   1.995 -0.4305 -0.2436  0.0260
 6366TIP3    H119041   1.144  -0.034   2.078 -0.4411  0.1553  0.1240
 6366TIP3    H219042   1.093   0.080   1.993 -0.7271 -0.2707 -0.2794
 6367TIP3   OH219043   3.570   4.451   4.021 -0.2278 -0.0957 -0.2348
 6367TIP3    H119044   3.492   4.456   3.966  0.0548  0.8349 -0.5632
 6367TIP3    H219045   3.628   4.519   3.987  0.0457  0.3455  1.0731
 6368TIP3   OH219046   0.381   6.223   1.312 -0.1762 -0.2660 -0.5083
 6368TIP3    H119047   0.436   6.287   1.266  0.2509 -0.9183 -0.9179
 6368TIP3    H219048   0.294   6.236   1.276 -0.3527  0.9278  0.3027
 6369TIP3   OH219049   6.783   7.564   0.368  0.5812 -0.5141  0.4370
 6369TIP3    H119050   6.744   7.650   0.379  0.4121 -0.2197 -1.8881
 6369TIP3    H219051   6.709   7.506   0.349  0.8459 -0.8422  0.3884
 6370TIP3   OH219052   1.604   0.326   4.995 -0.3018 -0.3736 -0.3539
 6370TIP3    H119053   1.633   0.369   5.076 -1.9788 -0.2984  0.2530
 6370TIP3    H219054   1.541   0.387   4.957  1.0977 -0.0023 -2.2355
 6371TIP3   OH219055   1.444   5.219   5.663  0.2106 -1.2152  0.3441
 6371TIP3    H119056   1.415   5.130   5.684 -0.3563 -1.3626 -0.9958
 6371TIP3    H219057   1.406   5.273   5.732 -2.1265 -1.5882 -0.5533
 6372TIP3   OH219058   6.452   7.464   4.702 -0.0697  0.1555 -0.5361
 6372TIP3    H119059   6.372   7.414   4.691  0.2262 -0.4967  0.1962
 6372TIP3    H219060   6.438   7.516   4.782 -0.2791  1.0640 -1.1475
 6373TIP3   OH219061   6.279   4.015   5.524  0.4378 -0.2766  0.3833
 6373TIP3    H119062   6.304   3.945   5.584 -1.5837 -0.2814  1.3421
 6373TIP3    H219063   6.234   3.971   5.452 -1.8458  0.0166  1.5427
 6374TIP3   OH219064   0.487   3.597   6.085  0.2327  0.0010 -0.0748
 6374TIP3    H119065   0.508   3.690   6.098  1.1399 -0.4205  1.7263
 6374TIP3    H219066   0.570   3.557   6.059 -0.1340 -0.3517 -0.7305
 6375TIP3   OH219067   7.106   3.929   6.325  0.4253 -0.0191  0.5033
 6375TIP3    H119068   7.080   3.922   6.417 -1.3276  0.2499  0.0576
 6375TIP3    H219069   7.078   3.846   6.286  0.4832  0.1658  0.0660
 6376TIP3   OH219070   8.006   0.766   6.471 -0.2443  0.1799 -0.3034
 6376TIP3    H119071   7.954   0.830   6.422 -2.7328  0.4404  2.4004
 6376TIP3    H219072   7.941   0.714   6.518  1.8123 -2.7879 -0.4728
 6377TIP3   OH219073   4.281   7.008   6.154 -0.5760  0.2576  0.0091
 6377TIP3    H119074   4.226   6.995   6.231  0.7652 -0.7462  0.8347
 6377TIP3    H219075   4.359   7.053   6.187 -0.7010  1.3608 -1.0854
 6378TIP3   OH219076   6.282   1.109   1.894 -0.4669  0.6200 -0.3540
 6378TIP3    H119077   6.351   1.160   1.852  0.1763  0.4008  0.4344
 6378TIP3    H219078   6.214   1.173   1.915 -0.1308  0.9768 -0.3523
 6379TIP3   OH219079   6.626   0.232  -0.007 -0.4337 -0.0953 -0.2513
 6379TIP3    H119080   6.619   0.319  -0.047 -2.1525 -0.4523 -0.8138
 6379TIP3    H219081   6.656   0.249   0.082  0.6917  0.9438 -0.7934
 6380TIP3   OH219082   0.788   2.879   5.806 -0.1655 -0.2969  0.1344
 6380TIP3    H119083   0.783   2.841   5.894  1.5346  2.0293  1.3497
 6380TIP3    H219084   0.846   2.955   5.816  1.4189 -0.8677 -3.3597
 6381TIP3   OH219085   5.970   2.645   4.921  0.4519 -0.4299 -0.3365
 6381TIP3    H119086   5.900   2.639   4.856  0.0618 -2.1191  0.1891
 6381TIP3    H219087   6.050   2.633   4.870  0.3845  1.1994 -0.8928
 6382TIP3   OH219088   5.279   1.092   0.912  0.8512  0.9055  0.5593
 6382TIP3    H119089   5.332   1.026   0.956  0.5928 -1.3058 -2.1062
 6382TIP3    H219090   5.338   1.166   0.898  2.1060  0.0072  0.9548
 6383TIP3   OH219091   3.970   7.171   2.293  0.2249  0.1980 -0.1938
 6383TIP3    H119092   4.029   7.097   2.286 -0.7225 -0.5995  0.0490
 6383TIP3    H219093   3.949   7.178   2.386  0.8139  1.1924 -0.1171
 6384TIP3   OH219094   7.975   6.067   0.165  0.4902 -0.2360  0.0461
 6384TIP3    H119095   8.033   6.115   0.223 -0.0672  0.0361  0.3886
 6384TIP3    H219096   7.986   6.109   0.080  1.2494 -0.5879 -0.0417
 6385TIP3   OH219097   2.333   6.109   2.824  0.7026 -0.0098  0.2549
 6385TIP3    H119098   2.330   6.066   2.909 -0.7150 -0.0107  0.2217
 6385TIP3    H219099   2.326   6.037   2.761  0.3195  0.1099  0.1619
 6386TIP3   OH219100   5.271   0.914   1.658  0.0839 -0.3008 -0.2801
 6386TIP3    H119101   5.287   0.829   1.617  0.6279 -0.0398 -0.6341
 6386TIP3    H219102   5.359   0.947   1.678 -0.1894 -0.6981  1.7201
 6387TIP3   OH219103   1.348   3.223   2.143  0.2145 -0.3303 -0.3571
 6387TIP3    H119104   1.411   3.208   2.072  2.1817  1.1834  0.9429
 6387TIP3    H219105   1.344   3.140   2.190  0.9462 -0.5696 -0.7067
 6388TIP3   OH219106   4.011   7.757   5.892 -0.4085  0.0469  0.2057
 6388TIP3    H119107   4.039   7.837   5.938 -3.4717  0.8309  0.9676
 6388TIP3    H219108   3.981   7.699   5.961 -2.0589 -0.0723 -0.5666
 6389TIP3   OH219109   0.351   4.021   6.442  0.1021 -0.3896  0.1054
 6389TIP3    H119110   0.356   4.043   6.349  0.4531  1.3138  0.4985
 6389TIP3    H219111   0.280   3.956   6.448 -1.0983  0.7568 -1.1281
 6390TIP3   OH219112   0.643   4.209   1.092  0.3953  0.0588 -0.3330
 6390TIP3    H119113   0.735   4.226   1.111  0.4297 -0.9313  0.5006
 6390TIP3    H219114   0.644   4.132   1.035  0.0800 -0.2479  0.0657
 6391TIP3   OH219115   7.746   0.489   0.913  0.2629 -0.5842 -0.1448
 6391TIP3    H119116   7.813   0.549   0.881 -0.5043  0.1883 -0.3378
 6391TIP3    H219117   7.698   0.540   0.979  0.3289 -1.3798  0.5383
 6392TIP3   OH219118   4.420   6.816   6.646  0.1512  0.1079  0.5670
 6392TIP3    H119119   4.345   6.827   6.704 -1.4929 -1.1068 -1.2047
 6392TIP3    H219120   4.395   6.744   6.587  3.2767 -1.3520  0.7877
 6393TIP3   OH219121   2.950   6.306   0.777  0.4700 -0.2135  0.2690
 6393TIP3    H119122   2.973   6.290   0.868  0.6667  0.1518  0.2863
 6393TIP3    H219123   3.033   6.295   0.729  0.1910 -1.3340  0.0055
 6394TIP3   OH219124   6.009   3.662   1.336  0.5372  0.2352 -0.3060
 6394TIP3    H119125   6.024   3.741   1.388 -1.8059  1.1729 -0.8736
 6394TIP3    H219126   5.990   3.594   1.400  1.2964  0.4416  0.1519
 6395TIP3   OH219127   2.529   6.131   0.031  0.1503  0.0475  0.2331
 6395TIP3    H119128   2.547   6.222   0.054 -0.7432  0.0551  0.9717
 6395TIP3    H219129   2.614   6.095   0.007  0.4303  1.2248 -0.6182
 6396TIP3   OH219130   1.145   4.754   0.620 -0.3353 -0.0398  0.2819
 6396TIP3    H119131   1.209   4.733   0.688  0.5212 -0.4731 -0.6344
 6396TIP3    H219132   1.061   4.758   0.667 -0.1235 -2.5496  1.0444
 6397TIP3   OH219133   0.236   2.476   1.872 -0.7307 -0.2000  0.2046
 6397TIP3    H119134   0.259   2.401   1.927  0.7520  0.0685 -0.0055
 6397TIP3    H219135   0.166   2.444   1.816  0.9974 -2.0241 -1.0805
 6398TIP3   OH219136   3.086   1.288   2.951 -0.6996 -0.1915 -0.2906
 6398TIP3    H119137   3.065   1.325   3.036  0.1779  0.3576 -0.2968
 6398TIP3    H219138   3.028   1.333   2.890 -0.3857  0.4103 -0.1546
 6399TIP3   OH219139   6.299   0.382   1.963  0.6698  0.2706 -0.7193
 6399TIP3    H119140   6.223   0.401   2.017  1.3052 -0.3575  0.4216
 6399TIP3    H219141   6.357   0.458   1.975  0.9377  0.0002 -0.2721
 6400TIP3   OH219142   5.736   3.497   2.621  0.1719  0.3339  0.0865
 6400TIP3    H119143   5.645   3.489   2.650  0.1554  0.2994  0.0257
 6400TIP3    H219144   5.756   3.413   2.580 -0.3208  0.9547 -1.4820
 6401TIP3   OH219145   4.722   0.710   0.554  0.8492  0.3485  0.3254
 6401TIP3    H119146   4.674   0.729   0.634  2.4809 -0.2285  1.5018
 6401TIP3    H219147   4.773   0.790   0.537  0.4873  0.4789 -0.1607
 6402TIP3   OH219148   4.034   4.890   5.828  0.1309 -0.0989  0.1603
 6402TIP3    H119149   4.113   4.941   5.809  0.1180 -0.5923 -1.3660
 6402TIP3    H219150   4.066   4.802   5.846 -0.1059 -0.6876 -1.9939
 6403TIP3   OH219151   0.294   2.581   2.726 -0.3588 -0.0393 -0.2326
 6403TIP3    H119152   0.233   2.537   2.667  0.9869 -0.3006 -1.4981
 6403TIP3    H219153   0.341   2.643   2.670 -1.1080  1.9263  1.1879
 6404TIP3   OH219154   8.141   4.828   0.179  0.2480  0.0571 -0.2906
 6404TIP3    H119155   8.214   4.890   0.187  0.1308  0.0497  1.2536
 6404TIP3    H219156   8.063   4.883   0.174  0.1375  0.0918  1.1570
 6405TIP3   OH219157   1.337   4.217   5.672 -0.0732 -0.5100 -0.1689
 6405TIP3    H119158   1.330   4.189   5.763 -0.1476 -0.2491 -0.0943
 6405TIP3    H219159   1.251   4.254   5.652  0.1547  0.0504 -0.1371
 6406TIP3   OH219160   8.127   0.363   5.232  0.3774 -0.2206 -0.6640
 6406TIP3    H119161   8.192   0.371   5.163  3.5400  0.4436  2.1326
 6406TIP3    H219162   8.104   0.453   5.254  1.1359 -0.3102  0.5858
 6407TIP3   OH219163   7.405   0.268   1.911  0.3075  0.1041  0.2755
 6407TIP3    H119164   7.406   0.354   1.870 -1.1316  1.4391  2.7815
 6407TIP3    H219165   7.484   0.265   1.964 -0.7201  0.8935  1.9372
 6408TIP3   OH219166   0.756   2.096   2.566 -0.0252 -0.3315 -0.0792
 6408TIP3    H119167   0.694   2.043   2.516  0.2997 -0.5298 -0.2800
 6408TIP3    H219168   0.702   2.146   2.627 -0.3339 -0.9069  0.1230
 6409TIP3   OH219169   4.905   7.357   5.000  0.1411 -0.2213 -0.5034
 6409TIP3    H119170   4.837   7.400   4.948  0.8484 -1.9048 -2.9810
 6409TIP3    H219171   4.986   7.402   4.977  0.2212  0.3088  0.7264
 6410TIP3   OH219172   1.084   6.615   0.072 -0.2532 -0.6447  0.3898
 6410TIP3    H119173   1.020   6.552   0.039  1.7066 -3.0080  0.7364
 6410TIP3    H219174   1.125   6.570   0.146 -0.2214  1.9713  2.0756
 6411TIP3   OH219175   3.995   6.904   3.104 -0.0080  0.1602  0.0513
 6411TIP3    H119176   3.989   6.920   3.198  1.5894  1.7841 -0.0786
 6411TIP3    H219177   3.926   6.958   3.065  0.0209  0.3096  0.2096
 6412TIP3   OH219178   0.422   1.647   2.426  0.4018 -0.0358 -0.1710
 6412TIP3    H119179   0.459   1.561   2.449  0.3614 -0.4705 -1.6237
 6412TIP3    H219180   0.329   1.630   2.411  0.5400  0.0996 -1.2274
 6413TIP3   OH219181   4.924   3.580   6.419 -0.0556 -0.2657  0.8353
 6413TIP3    H119182   4.881   3.665   6.425  0.6046  0.0356  1.6057
 6413TIP3    H219183   4.984   3.588   6.345  0.2873  0.0790  1.1480
 6414TIP3   OH219184   3.001   5.226   3.034 -0.2850 -0.2838 -0.0536
 6414TIP3    H119185   3.013   5.261   2.945 -1.4183  3.6984  1.1585
 6414TIP3    H219186   3.064   5.274   3.087 -1.9068 -0.0712  1.7853
 6415TIP3   OH219187   6.764   3.082   3.486  0.0281 -0.7947 -0.7065
 6415TIP3    H119188   6.831   3.116   3.546  0.4904  0.4617 -1.8764
 6415TIP3    H219189   6.813   3.033   3.420 -0.2709 -0.4436 -1.1941
 6416TIP3   OH219190   0.969   2.773   3.343 -0.0081  0.4968 -0.0278
 6416TIP3    H119191   1.031   2.762   3.415 -2.1179  0.1452  1.8196
 6416TIP3    H219192   0.976   2.866   3.319 -0.6383  1.1077  1.9810
 6417TIP3   OH219193   6.732   7.515   6.112 -0.1033 -0.3743  0.2568
 6417TIP3    H119194   6.643   7.537   6.141 -0.2410 -1.1859  0.4535
 6417TIP3    H219195   6.752   7.432   6.154 -0.1414 -1.3693 -1.5867
 6418TIP3   OH219196   0.326   3.908   4.691  0.5132  0.0711  0.2048
 6418TIP3    H119197   0.387   3.921   4.763  0.1661  1.1989  0.3231
 6418TIP3    H219198   0.353   3.972   4.624 -0.4462  0.5262  0.2245
 6419TIP3   OH219199   3.590   1.861   2.974 -0.0081  0.1481  0.3073
 6419TIP3    H119200   3.581   1.893   2.884  0.8801 -1.0095 -0.2166
 6419TIP3    H219201   3.648   1.924   3.016  2.1702 -0.9774 -0.8671
 6420TIP3   OH219202   6.878   2.385   1.483  0.4661 -0.7312  0.0413
 6420TIP3    H119203   6.791   2.413   1.455 -0.1654 -1.5348  1.1042
 6420TIP3    H219204   6.937   2.416   1.415 -0.6413 -0.0797 -0.6443
 6421TIP3   OH219205   6.336   2.724   0.833 -0.1554  0.2142  0.3200
 6421TIP3    H119206   6.339   2.737   0.738 -2.8576  1.3909  0.2998
 6421TIP3    H219207   6.264   2.780   0.863  1.4464  0.9465  3.2834
 6422TIP3   OH219208   7.264   4.219   4.158 -0.1657  0.7136  0.5710
 6422TIP3    H119209   7.336   4.225   4.095  1.3370 -3.5881  1.5793
 6422TIP3    H219210   7.187   4.202   4.104  0.1145  2.0917 -0.3284
 6423TIP3   OH219211   0.071   1.601   2.907 -0.1711  0.0524  0.2183
 6423TIP3    H119212   0.122   1.653   2.969 -1.1951  0.2304  0.9388
 6423TIP3    H219213   0.098   1.632   2.821  0.0450  1.0013  0.6195
 6424TIP3   OH219214   1.538   5.900   6.318  0.2569  0.5921 -0.1873
 6424TIP3    H119215   1.474   5.927   6.253 -0.3890 -0.2431  0.0769
 6424TIP3    H219216   1.600   5.845   6.270 -0.8059 -0.8879  0.0691
 6425TIP3   OH219217   2.339   5.957   3.052 -0.3273  0.1157 -0.2862
 6425TIP3    H119218   2.260   5.905   3.038  0.5211 -1.1980 -0.3625
 6425TIP3    H219219   2.351   5.957   3.147  0.8714 -1.7852 -0.3648
 6426TIP3   OH219220   5.481   5.837   1.612  0.1042  0.2119 -0.2602
 6426TIP3    H119221   5.481   5.931   1.626 -0.4746 -0.0220  1.3950
 6426TIP3    H219222   5.573   5.811   1.624 -0.1812  0.1805  2.2245
 6427TIP3   OH219223   4.472   1.986   4.216  0.2608 -0.1392  0.4186
 6427TIP3    H119224   4.386   2.023   4.236  0.9536  0.2357  3.0623
 6427TIP3    H219225   4.472   1.901   4.262  1.1636 -0.3158  0.1015
 6428TIP3   OH219226   1.092   2.595   6.598  0.4820  0.2734  0.4510
 6428TIP3    H119227   1.156   2.532   6.567  1.3874  0.9074  0.9848
 6428TIP3    H219228   1.014   2.543   6.617  1.0611 -0.6069  0.4551
 6429TIP3   OH219229   0.888   0.614   4.466  0.5821 -1.0485  0.0086
 6429TIP3    H119230   0.806   0.564   4.475  0.2001 -0.3255  0.6400
 6429TIP3    H219231   0.943   0.582   4.538  0.4010 -0.6982  0.3089
 6430TIP3   OH219232   6.132   2.443   2.275  0.4409  0.7232  0.3440
 6430TIP3    H119233   6.172   2.400   2.350  3.2480 -0.6189 -1.7366
 6430TIP3    H219234   6.183   2.523   2.263 -0.2470  1.1315  0.0859
 6431TIP3   OH219235   4.057   0.409   3.453 -0.1950  0.2262  0.3048
 6431TIP3    H119236   4.131   0.462   3.423 -0.8749  0.0567 -1.8638
 6431TIP3    H219237   4.075   0.321   3.421 -0.9602  0.0111  0.4256
 6432TIP3   OH219238   2.566   6.632   5.837  0.4464  0.6446 -0.6601
 6432TIP3    H119239   2.559   6.588   5.922  0.0784  0.7734 -0.6209
 6432TIP3    H219240   2.570   6.561   5.773  2.3873  0.5019 -0.4390
 6433TIP3   OH219241   4.486   5.624   2.995 -0.0157 -0.3731  0.4140
 6433TIP3    H119242   4.458   5.533   2.986  0.6748 -0.5074 -0.4754
 6433TIP3    H219243   4.559   5.634   2.934  1.0189  0.3366  1.6971
 6434TIP3   OH219244   8.095   6.926   4.643  0.1579  0.0841 -0.1667
 6434TIP3    H119245   8.164   6.863   4.664  0.1085  0.3821  0.9303
 6434TIP3    H219246   8.048   6.886   4.570  0.0851 -1.1833  0.5444
 6435TIP3   OH219247   3.791   1.310   4.933  0.0725  0.8716 -0.3620
 6435TIP3    H119248   3.751   1.281   5.015 -2.9214  0.4131 -1.8213
 6435TIP3    H219249   3.855   1.243   4.911 -1.4908 -0.7954 -0.0204
 6436TIP3   OH219250   6.826   7.022   0.401 -0.4354  0.0103  0.0367
 6436TIP3    H119251   6.913   7.002   0.369  0.3421  0.1183  1.9627
 6436TIP3    H219252   6.831   7.113   0.429 -1.4647  0.3185 -0.7009
 6437TIP3   OH219253   6.729   5.680   1.934  0.1164 -0.0166 -0.1470
 6437TIP3    H119254   6.752   5.693   1.842 -2.2645  0.2179 -0.7672
 6437TIP3    H219255   6.689   5.763   1.961 -1.6553 -0.9546  0.2629
 6438TIP3   OH219256   3.718   1.592   1.199  0.2814 -0.2238  0.1300
 6438TIP3    H119257   3.785   1.571   1.264 -0.4966 -0.1249  0.9935
 6438TIP3    H219258   3.666   1.661   1.240 -0.4842 -0.4531 -0.4284
 6439TIP3   OH219259   6.114   6.892   3.576 -0.0980  0.8440  0.1834
 6439TIP3    H119260   6.191   6.928   3.621  0.9389 -1.9425  0.9068
 6439TIP3    H219261   6.083   6.822   3.635 -1.4642  0.0409 -1.3961
 6440TIP3   OH219262   5.135   5.793   5.350  0.0884  0.2929 -0.3609
 6440TIP3    H119263   5.040   5.780   5.349 -0.3042  2.7636 -0.7338
 6440TIP3    H219264   5.156   5.824   5.262  1.3981 -0.9080 -0.5131
 6441TIP3   OH219265   4.395   2.894   6.330  0.7596  0.1928  0.7084
 6441TIP3    H119266   4.455   2.828   6.365 -0.0410 -0.9229  0.0336
 6441TIP3    H219267   4.438   2.977   6.349  1.9528 -0.5245  1.2928
 6442TIP3   OH219268   5.616   7.632   4.118 -0.2562  0.1772  0.6272
 6442TIP3    H119269   5.533   7.635   4.166  0.1372 -1.6127  1.5147
 6442TIP3    H219270   5.682   7.658   4.183 -0.0483  1.0808  0.0707
 6443TIP3   OH219271   1.316   0.018   1.336  0.3767  0.3663 -0.0360
 6443TIP3    H119272   1.272   0.029   1.420  1.5194 -1.4326  0.8742
 6443TIP3    H219273   1.253  -0.029   1.281  0.2190  0.0570  0.4023
 6444TIP3   OH219274   2.820   6.782   5.410  0.6963 -0.8800  0.3512
 6444TIP3    H119275   2.807   6.866   5.365  0.0793 -0.7428  0.7677
 6444TIP3    H219276   2.833   6.807   5.502  1.9350 -1.1568  0.2642
 6445TIP3   OH219277   8.152   0.346   6.013  0.2570  0.0749 -0.1194
 6445TIP3    H119278   8.246   0.332   5.998  0.5514 -0.2740  1.7327
 6445TIP3    H219279   8.110   0.268   5.976  1.0932 -1.6444  2.2983
 6446TIP3   OH219280   5.995   6.732   4.611 -0.0314  0.2497 -0.6087
 6446TIP3    H119281   6.034   6.744   4.698  0.8769 -1.0680 -0.8179
 6446TIP3    H219282   5.901   6.731   4.627  0.1170  0.3326  0.3185
 6447TIP3   OH219283   6.300   2.339   3.845  0.1274  0.3232 -0.0123
 6447TIP3    H119284   6.254   2.395   3.782  1.1438  1.2866  0.0783
 6447TIP3    H219285   6.261   2.252   3.832 -2.8893  1.3509  1.1814
 6448TIP3   OH219286   4.684   0.657   2.837 -0.0106 -0.9371  0.2298
 6448TIP3    H119287   4.718   0.694   2.918  0.7604 -0.7156 -0.1880
 6448TIP3    H219288   4.608   0.712   2.816  0.8516  0.1310 -0.1407
 6449TIP3   OH219289   7.117   1.779   0.477  0.2319  0.1294 -0.1250
 6449TIP3    H119290   7.208   1.794   0.450  0.3198 -0.7762 -0.3573
 6449TIP3    H219291   7.065   1.802   0.401  0.4524 -1.9926 -0.9858
 6450TIP3   OH219292   7.286   4.305   1.201 -0.3068  0.5586  0.4791
 6450TIP3    H119293   7.199   4.273   1.224 -1.1112  1.4718 -1.1613
 6450TIP3    H219294   7.295   4.387   1.251 -0.8719  1.0480 -0.2002
 6451TIP3   OH219295   7.020   4.976   4.702 -0.0899 -0.2444 -0.1364
 6451TIP3    H119296   7.018   5.013   4.790  0.2644 -2.1940  0.7517
 6451TIP3    H219297   6.957   4.904   4.704  0.1216 -0.5009 -1.4012
 6452TIP3   OH219298   2.879   6.563   5.711 -0.1675 -0.0535 -0.4831
 6452TIP3    H119299   2.823   6.635   5.741 -0.6497 -0.5411 -0.1953
 6452TIP3    H219300   2.909   6.521   5.792  1.3107  0.7026 -0.5986
 6453TIP3   OH219301   2.999   1.915   3.457 -0.5031 -0.3754 -0.2045
 6453TIP3    H119302   2.947   1.949   3.384 -1.2832 -0.6197  0.2127
 6453TIP3    H219303   3.027   1.828   3.428  1.2634  0.4693 -1.1641
 6454TIP3   OH219304   3.828   5.025   6.316 -0.0256  0.1937  0.3475
 6454TIP3    H119305   3.772   5.005   6.391  0.6952  1.4919  1.2586
 6454TIP3    H219306   3.766   5.048   6.246 -1.0068 -5.0060 -0.9280
 6455TIP3   OH219307   5.106   1.595   2.321  0.5443  0.1521  0.0402
 6455TIP3    H119308   5.064   1.623   2.240  2.2905  0.3776 -0.8412
 6455TIP3    H219309   5.172   1.531   2.294 -1.9603 -3.5251  1.7888
 6456TIP3   OH219310   7.739   2.963   3.863  0.1463 -0.0950  0.3922
 6456TIP3    H119311   7.737   3.058   3.876  1.3480  0.3172 -1.8818
 6456TIP3    H219312   7.833   2.943   3.853 -0.2202 -1.1154 -1.4271
 6457TIP3   OH219313   6.140   2.601   0.623 -0.7544  0.2744  0.0942
 6457TIP3    H119314   6.125   2.584   0.716 -1.8870 -2.4988 -0.4849
 6457TIP3    H219315   6.065   2.653   0.595 -0.0152  1.8045  0.8355
 6458TIP3   OH219316   4.687   2.010   5.744  0.1122 -0.3083  0.2897
 6458TIP3    H119317   4.656   2.096   5.770 -0.5488 -0.1874 -0.8449
 6458TIP3    H219318   4.685   2.011   5.648  1.9465 -0.9114  0.1953
 6459TIP3   OH219319   7.955   1.466   6.335  0.2285  0.7123 -0.5761
 6459TIP3    H119320   7.983   1.427   6.251  1.1887  0.5556 -0.1977
 6459TIP3    H219321   7.969   1.560   6.323  1.5256  0.5800 -0.1793
 6460TIP3   OH219322   3.139   6.949   5.447 -0.7489  0.1556  0.4952
 6460TIP3    H119323   3.153   7.023   5.506  0.4927  0.6412 -0.3698
 6460TIP3    H219324   3.125   6.988   5.361  1.1822 -0.5817 -0.2204
 6461TIP3   OH219325   5.931   4.768   1.789  0.0515 -0.4170 -0.5678
 6461TIP3    H119326   5.976   4.683   1.789 -0.0374 -0.4790  0.7999
 6461TIP3    H219327   5.985   4.824   1.845 -1.3463 -0.3840  0.8045
 6462TIP3   OH219328   1.719   3.711   1.747 -0.2665 -0.5511 -0.2713
 6462TIP3    H119329   1.671   3.715   1.830 -0.0847 -0.8860 -0.1472
 6462TIP3    H219330   1.756   3.622   1.745 -0.1352 -0.4895 -0.6340
 6463TIP3   OH219331   3.896   2.317   0.860  0.3432 -0.8230 -0.5098
 6463TIP3    H119332   3.835   2.262   0.910 -0.7021 -1.1870 -2.0828
 6463TIP3    H219333   3.870   2.407   0.880  0.2089 -0.9606 -0.0764
 6464TIP3   OH219334   6.011   2.874   0.498  0.1714  0.7565  0.7601
 6464TIP3    H119335   6.105   2.875   0.477 -0.1992  1.8971 -1.0997
 6464TIP3    H219336   5.969   2.855   0.414 -1.2810  0.2994  1.5710
 6465TIP3   OH219337   2.329   6.731   3.111  0.1359  0.0079  0.5763
 6465TIP3    H119338   2.345   6.800   3.047  0.0396 -1.3706 -0.9798
 6465TIP3    H219339   2.242   6.752   3.147 -0.0627  0.4957 -0.1601
 6466TIP3   OH219340   7.856   1.737   6.143 -0.0782 -0.4580  0.0823
 6466TIP3    H119341   7.780   1.764   6.194  0.0070 -0.4515  0.2097
 6466TIP3    H219342   7.931   1.764   6.197  0.0289 -2.7732  1.2109
 6467TIP3   OH219343   1.178   1.221   2.481 -0.1955 -0.2452 -0.4078
 6467TIP3    H119344   1.251   1.191   2.427 -0.1616  2.1672 -1.8420
 6467TIP3    H219345   1.194   1.314   2.495 -0.9235 -0.4609  2.7198
 6468TIP3   OH219346   5.392   3.967   5.862 -0.0514  0.2430  0.1392
 6468TIP3    H119347   5.378   4.061   5.848 -2.4004 -0.2262 -1.1863
 6468TIP3    H219348   5.339   3.946   5.939 -0.9541 -0.2950 -0.6150
 6469TIP3   OH219349   1.851   6.802   0.230  0.3876 -0.0606  0.6619
 6469TIP3    H119350   1.825   6.721   0.274 -0.6999 -0.6089 -0.9168
 6469TIP3    H219351   1.932   6.779   0.185  0.1097 -0.2653  0.2610
 6470TIP3   OH219352   7.175   4.927   3.005  0.3338 -0.2033 -0.3657
 6470TIP3    H119353   7.255   4.938   3.055  0.1952  0.2928 -0.2482
 6470TIP3    H219354   7.193   4.966   2.920 -0.9490  3.4212  0.8337
 6471TIP3   OH219355   7.956   4.318   3.132  0.0353  0.3085 -0.0949
 6471TIP3    H119356   7.898   4.323   3.208 -1.0711  1.3228 -0.9520
 6471TIP3    H219357   7.907   4.265   3.068  1.0616 -0.7506 -0.0220
 6472TIP3   OH219358   7.296   1.092   1.993  0.6123 -0.2957  0.5135
 6472TIP3    H119359   7.341   1.172   2.020  0.7040 -0.0169 -0.4187
 6472TIP3    H219360   7.331   1.024   2.052  1.6239  0.0749  0.3691
 6473TIP3   OH219361   4.223   0.579   2.831 -1.0171 -0.3143 -1.1155
 6473TIP3    H119362   4.135   0.610   2.851 -0.6225 -0.3269  0.8602
 6473TIP3    H219363   4.216   0.484   2.834 -0.6370 -0.3224  0.7564
 6474TIP3   OH219364   4.339   7.456   0.422  0.2910  0.1334 -0.2238
 6474TIP3    H119365   4.259   7.414   0.452  1.5422 -3.7163 -1.6688
 6474TIP3    H219366   4.317   7.495   0.338  0.0944 -1.7909 -1.0988
 6475TIP3   OH219367   3.405   3.952   0.761  0.2901  0.1381  0.3052
 6475TIP3    H119368   3.335   4.000   0.716  0.8292 -1.7948 -2.8930
 6475TIP3    H219369   3.474   3.944   0.695  1.7782 -1.6601  1.9811
 6476TIP3   OH219370   8.095   7.545   4.007 -0.6632  0.2339 -0.4138
 6476TIP3    H119371   8.173   7.496   3.978 -1.3513 -1.1341 -0.0668
 6476TIP3    H219372   8.123   7.591   4.085 -0.2976 -0.6335 -0.0135
 6477TIP3   OH219373   6.936   2.548   6.374  0.1114 -0.1829 -0.2434
 6477TIP3    H119374   7.011   2.510   6.329 -0.7592 -0.9015 -1.1510
 6477TIP3    H219375   6.926   2.495   6.454 -0.2808 -1.0105 -0.8326
 6478TIP3   OH219376   3.210   1.042   3.382 -0.0329 -0.0168  0.1829
 6478TIP3    H119377   3.213   0.947   3.378 -0.5359 -0.0186 -0.2901
 6478TIP3    H219378   3.131   1.062   3.432 -1.2120  0.1550 -1.6561
 6479TIP3   OH219379   8.027   0.127   5.906  0.0027 -0.5128 -0.1226
 6479TIP3    H119380   8.017   0.129   5.810  1.8979 -1.9977 -0.4256
 6479TIP3    H219381   8.082   0.050   5.922 -1.2612 -0.9961  2.2831
 6480TIP3   OH219382   2.775   2.584   2.276  0.1520  0.3817  0.1085
 6480TIP3    H119383   2.715   2.527   2.323 -0.7939  0.9580 -0.3842
 6480TIP3    H219384   2.758   2.671   2.311 -0.4227  0.7918 -1.1342
 6481TIP3   OH219385   7.049   7.798   6.486  0.1496 -0.5541  0.1762
 6481TIP3    H119386   7.128   7.821   6.438  0.4973  3.0893  2.1123
 6481TIP3    H219387   6.977   7.819   6.427  0.6049  0.0162 -0.1799
 6482TIP3   OH219388   1.447   4.399   3.952 -0.2397 -0.0806 -0.1013
 6482TIP3    H119389   1.456   4.436   3.865 -0.6308  1.7748  0.5963
 6482TIP3    H219390   1.531   4.417   3.995 -0.6592  0.6660  0.4540
 6483TIP3   OH219391   2.307   4.100   6.730 -0.1219 -0.3313  0.0442
 6483TIP3    H119392   2.320   4.186   6.690 -0.7421  0.8701  2.2884
 6483TIP3    H219393   2.212   4.089   6.731 -0.1017 -0.4613  0.9022
 6484TIP3   OH219394   7.762   5.802   0.066 -0.3757 -0.1308  0.2652
 6484TIP3    H119395   7.818   5.850   0.126  1.2766 -1.9202  0.2731
 6484TIP3    H219396   7.807   5.807  -0.018 -0.0336 -1.7639  0.3077
 6485TIP3   OH219397   5.522   0.686   4.499 -0.1104  0.6949  0.3315
 6485TIP3    H119398   5.611   0.702   4.533  0.3470 -0.3353 -0.3424
 6485TIP3    H219399   5.533   0.684   4.404 -1.0489  1.5722  0.1905
 6486TIP3   OH219400   0.775   2.933   5.267  0.2252  0.4156 -0.6244
 6486TIP3    H119401   0.802   3.020   5.296  1.0128  0.7668 -2.3083
 6486TIP3    H219402   0.815   2.873   5.330  1.5799  1.1590 -0.7486
 6487TIP3   OH219403   0.053   6.579   0.266 -0.0128 -0.3958  0.4515
 6487TIP3    H119404   0.094   6.514   0.210  1.6203  0.1727  0.9338
 6487TIP3    H219405   0.095   6.662   0.242 -0.2373  0.0662  1.5826
 6488TIP3   OH219406   2.898   4.520   6.420  0.0264  0.2854 -0.4686
 6488TIP3    H119407   2.867   4.535   6.331  1.6494 -1.3645 -1.3917
 6488TIP3    H219408   2.855   4.439   6.446 -0.0631  0.5021  0.0630
 6489TIP3   OH219409   5.859   0.494   6.659 -0.0924  0.7208 -0.2797
 6489TIP3    H119410   5.944   0.473   6.621  0.9190 -0.9913  2.6225
 6489TIP3    H219411   5.831   0.413   6.701 -0.8406  2.4857  2.9588
 6490TIP3   OH219412   3.966   0.933   3.157  0.2338  0.1388  0.2865
 6490TIP3    H119413   3.945   0.955   3.248 -2.9649  1.9821 -0.7403
 6490TIP3    H219414   4.031   0.999   3.131  0.4662  0.1887  0.9713
 6491TIP3   OH219415   3.597   6.572   1.502 -0.0871 -0.5052  0.2826
 6491TIP3    H119416   3.688   6.579   1.530  0.2480 -0.4141 -0.7765
 6491TIP3    H219417   3.575   6.479   1.514 -0.1099 -0.3860  1.2518
 6492TIP3   OH219418   8.003   2.931   2.482 -0.0461  0.0057 -0.0343
 6492TIP3    H119419   7.955   2.871   2.539  1.1430 -2.9797 -1.9651
 6492TIP3    H219420   7.935   2.986   2.442 -1.2166 -0.2100  1.5718
 6493TIP3   OH219421   7.344   0.325   5.543 -0.1730  0.3926 -0.4063
 6493TIP3    H119422   7.255   0.347   5.514  0.2202  0.3241 -1.7403
 6493TIP3    H219423   7.336   0.313   5.638 -2.7638 -4.9885 -0.9512
 6494TIP3   OH219424   2.687   3.018   6.304 -0.1076 -0.0204 -0.0219
 6494TIP3    H119425   2.647   3.104   6.288 -1.4119 -0.9946 -2.6636
 6494TIP3    H219426   2.673   2.970   6.222  2.7571 -1.9431  0.4814
 6495TIP3   OH219427   0.555   5.963   1.617 -0.2056  0.1855 -0.0227
 6495TIP3    H119428   0.537   5.920   1.534  0.3677  0.0758 -0.0938
 6495TIP3    H219429   0.645   5.940   1.638 -0.4248  0.0006  0.7622
 6496TIP3   OH219430   5.302   4.315   1.379 -0.0229  0.5424  0.4538
 6496TIP3    H119431   5.383   4.350   1.341 -0.3174  1.1244  0.3543
 6496TIP3    H219432   5.321   4.222   1.393  0.4020  0.5094 -0.2652
 6497TIP3   OH219433   1.311   1.506   5.814 -0.4763  0.1469 -0.0852
 6497TIP3    H119434   1.345   1.539   5.897 -0.7874  0.6935 -0.1723
 6497TIP3    H219435   1.365   1.429   5.795 -1.0214 -0.5484  1.0878
 6498TIP3   OH219436   2.926   5.264   5.949 -0.3379 -0.7139  0.0809
 6498TIP3    H119437   2.998   5.277   5.887 -2.1253  0.7249 -1.8293
 6498TIP3    H219438   2.901   5.172   5.936 -0.2447 -0.6227 -0.8633
 6499TIP3   OH219439   7.344   0.811   2.492 -0.3458  0.1630  0.1817
 6499TIP3    H119440   7.435   0.824   2.464 -0.7022 -1.3516 -1.8437
 6499TIP3    H219441   7.318   0.897   2.527  1.4713  0.9687 -0.3073
 6500TIP3   OH219442   1.632   0.343   0.078  0.0735 -0.3717  0.6975
 6500TIP3    H119443   1.655   0.282   0.009  0.6346  0.4981  0.0928
 6500TIP3    H219444   1.678   0.312   0.155  0.7709 -0.4180  0.2659
 6501TIP3   OH219445   1.611   5.642   4.138  0.0076 -0.5962  0.4540
 6501TIP3    H119446   1.545   5.702   4.172 -1.2832 -1.2229 -0.7909
 6501TIP3    H219447   1.595   5.560   4.185  0.0188 -0.6924  0.2922
 6502TIP3   OH219448   1.917   2.117   5.821 -0.2541  1.0826  0.1727
 6502TIP3    H119449   1.867   2.086   5.746 -1.1457  1.4231  0.6095
 6502TIP3    H219450   2.008   2.119   5.790 -0.3597 -0.4676 -0.3366
 6503TIP3   OH219451   0.585   3.511   1.970  0.2456 -0.7550  0.2041
 6503TIP3    H119452   0.635   3.509   1.888 -0.2705  0.4235 -0.1653
 6503TIP3    H219453   0.527   3.587   1.961 -0.1719 -0.8974  1.4635
 6504TIP3   OH219454   5.823   2.654   6.425 -0.6519  0.4408 -0.5269
 6504TIP3    H119455   5.822   2.577   6.483  1.7246  1.2771  0.7936
 6504TIP3    H219456   5.732   2.682   6.421 -1.0499 -0.1110  2.2755
 6505TIP3   OH219457   6.711   4.815   3.359 -0.2304 -0.0358  0.1047
 6505TIP3    H119458   6.730   4.889   3.416 -1.8356  0.1937  0.3762
 6505TIP3    H219459   6.616   4.816   3.349 -0.1729 -1.3840 -0.8102
 6506TIP3   OH219460   3.976   6.140   2.105 -0.4022  0.0065 -0.5564
 6506TIP3    H119461   4.062   6.122   2.142  0.0350 -0.2376 -1.6536
 6506TIP3    H219462   3.984   6.227   2.067 -0.8378  0.2408 -0.1357
 6507TIP3   OH219463   0.717   1.950   2.202  0.6992 -0.2734 -0.1380
 6507TIP3    H119464   0.813   1.949   2.198  0.7407 -0.3312  0.6286
 6507TIP3    H219465   0.691   2.017   2.140  1.2838  0.3393  0.2646
 6508TIP3   OH219466   6.871   5.956   4.481  0.0880 -0.1527 -0.0794
 6508TIP3    H119467   6.790   5.911   4.456  1.0669 -0.6784 -2.5977
 6508TIP3    H219468   6.921   5.890   4.528  0.7742 -1.2820 -2.2313
 6509TIP3   OH219469   1.029   3.983   6.412  0.5478 -0.2681  0.0530
 6509TIP3    H119470   1.109   4.032   6.431 -0.0224  0.1612  1.4512
 6509TIP3    H219471   1.045   3.944   6.326  2.4389 -0.5657  0.4959
 6510TIP3   OH219472   1.934   6.894   5.401 -0.0181  0.0822  0.4450
 6510TIP3    H119473   1.847   6.892   5.442  0.1865 -3.3874  0.9846
 6510TIP3    H219474   1.920   6.852   5.315  0.9223  0.5967  0.0303
 6511TIP3   OH219475   0.621   4.882   6.630  0.0843  0.4778  0.2394
 6511TIP3    H119476   0.666   4.798   6.639  0.1472  0.5215  0.3380
 6511TIP3    H219477   0.623   4.901   6.537  1.4940  1.1473  0.3735
 6512TIP3   OH219478   0.120   0.095   4.056 -0.1006 -0.3168  0.1913
 6512TIP3    H119479   0.100   0.001   4.050  0.1213 -0.4898  1.5952
 6512TIP3    H219480   0.089   0.132   3.974 -3.2156 -1.0912  0.8731
 6513TIP3   OH219481   4.752   7.650   2.812  0.0558  0.0823  0.1607
 6513TIP3    H119482   4.668   7.640   2.855  0.0072 -2.1527 -0.3313
 6513TIP3    H219483   4.754   7.741   2.783 -1.1109  0.8486  2.3207
 6514TIP3   OH219484   6.309   5.513   3.178 -0.0617 -0.2053  0.8422
 6514TIP3    H119485   6.297   5.492   3.271 -1.5490  0.5688  0.8599
 6514TIP3    H219486   6.348   5.600   3.178  1.0020 -0.6712  0.7330
 6515TIP3   OH219487   5.308   0.281   2.958 -0.3087 -0.4353 -0.4063
 6515TIP3    H119488   5.340   0.296   2.870  0.3783 -0.2738 -0.1374
 6515TIP3    H219489   5.385   0.250   3.006 -0.3189  0.8389  0.4869
 6516TIP3   OH219490   4.650   4.757   2.118  0.3218 -0.4575  0.4726
 6516TIP3    H119491   4.731   4.706   2.126  1.4726  1.2544  0.1492
 6516TIP3    H219492   4.622   4.743   2.028  1.6592  0.8833 -0.1984
 6517TIP3   OH219493   6.014   7.519   6.248 -0.5324 -0.1032  0.1647
 6517TIP3    H119494   5.924   7.549   6.238 -0.5143  0.8030  2.2057
 6517TIP3    H219495   6.007   7.429   6.279 -0.7221 -0.2374 -0.2727
 6518TIP3   OH219496   1.539   6.687   3.286 -0.9637 -0.1032 -0.4026
 6518TIP3    H119497   1.456   6.703   3.241 -0.6812  1.6972 -0.3562
 6518TIP3    H219498   1.549   6.762   3.345  0.0233 -1.0070  0.6403
 6519TIP3   OH219499   6.108   6.613   3.034  0.0270 -0.2362  0.4282
 6519TIP3    H119500   6.082   6.678   3.099 -0.1586  0.4330 -0.3006
 6519TIP3    H219501   6.143   6.664   2.961  0.3389 -0.9787  0.0452
 6520TIP3   OH219502   6.852   3.955   2.578 -0.6152  0.4452  0.4362
 6520TIP3    H119503   6.815   4.017   2.514 -1.9281  0.0819  0.8012
 6520TIP3    H219504   6.775   3.911   2.614  0.1985 -0.2093  1.3960
 6521TIP3   OH219505   1.065   5.079   3.326  0.0430  0.0924 -0.3557
 6521TIP3    H119506   1.004   5.066   3.253 -0.7441  2.3011 -0.1516
 6521TIP3    H219507   1.101   4.991   3.342 -4.0084 -1.6756  0.3722
 6522TIP3   OH219508   1.232   4.492   4.400  0.0639  0.3915 -0.4765
 6522TIP3    H119509   1.291   4.478   4.474 -0.8620  0.4406  0.2941
 6522TIP3    H219510   1.270   4.566   4.353  0.2185  0.9024  0.4282
 6523TIP3   OH219511   3.362   5.943   4.475  0.0828  0.1000  0.3175
 6523TIP3    H119512   3.308   5.939   4.554  0.6686 -0.1107  0.7160
 6523TIP3    H219513   3.418   5.865   4.480 -1.6030 -1.3288 -1.5864
 6524TIP3   OH219514   4.248   4.704   5.873  0.1810  0.7909 -0.1444
 6524TIP3    H119515   4.323   4.649   5.894 -0.3583  0.3934  0.7830
 6524TIP3    H219516   4.270   4.790   5.908  0.0299  0.5673  0.5109
 6525TIP3   OH219517   0.571   4.517   5.327  0.3113 -0.5916  1.0826
 6525TIP3    H119518   0.610   4.461   5.260 -2.0375 -2.4903  1.1607
 6525TIP3    H219519   0.642   4.533   5.390  1.3166 -2.7551  0.5898
 6526TIP3   OH219520   4.723   7.130   1.191  0.1167  0.2805  0.0913
 6526TIP3    H119521   4.769   7.070   1.249  0.2525  0.5567  0.2712
 6526TIP3    H219522   4.716   7.212   1.241 -0.5088  0.2610  0.0369
 6527TIP3   OH219523   2.423   2.493   6.418  0.7688  0.3351 -0.2057
 6527TIP3    H119524   2.364   2.515   6.490 -0.3269  0.3701 -1.0896
 6527TIP3    H219525   2.366   2.452   6.352  1.8934 -0.4838 -0.6963
 6528TIP3   OH219526   5.033   0.804   2.210  0.1144 -0.9328 -0.2149
 6528TIP3    H119527   5.064   0.788   2.121  0.0221 -1.2561 -0.1880
 6528TIP3    H219528   4.949   0.848   2.198  0.2320 -0.7229 -0.2856
 6529TIP3   OH219529   6.715   3.149   2.657 -0.0241 -0.1909  0.2785
 6529TIP3    H119530   6.778   3.084   2.687 -1.0557 -1.6289 -0.5306
 6529TIP3    H219531   6.672   3.181   2.737  3.0874  2.4162  1.0971
 6530TIP3   OH219532   4.078   2.316   1.769 -0.1790  0.3719  0.1570
 6530TIP3    H119533   3.993   2.295   1.731 -0.9591 -0.3711  2.2017
 6530TIP3    H219534   4.141   2.265   1.718 -1.1670 -0.6033 -0.1047
 6531TIP3   OH219535   0.082   1.395   2.174  0.3840  0.0153 -0.0557
 6531TIP3    H119536   0.091   1.300   2.168  1.2046  0.0977 -0.2728
 6531TIP3    H219537   0.111   1.427   2.089  2.6780  0.6127  0.8825
 6532TIP3   OH219538   2.608   7.236   4.378  0.3121  0.1630  0.0419
 6532TIP3    H119539   2.520   7.211   4.352  0.6386 -4.7998  2.3144
 6532TIP3    H219540   2.649   7.269   4.298 -3.1252  1.4080 -1.3819
 6533TIP3   OH219541   2.544   2.486   1.217 -0.0677 -0.2636 -0.5951
 6533TIP3    H119542   2.511   2.533   1.294  1.1656 -1.2087  0.5585
 6533TIP3    H219543   2.468   2.476   1.160 -1.0843  0.1811  0.6477
 6534TIP3   OH219544   0.838   4.549   4.995 -0.3590  0.1474 -0.3022
 6534TIP3    H119545   0.753   4.588   5.015 -0.7326 -0.8737  0.2233
 6534TIP3    H219546   0.855   4.492   5.070  0.6167  0.0639 -0.5830
 6535TIP3   OH219547   3.021   3.905   2.084 -0.4852  0.7683  0.4540
 6535TIP3    H119548   3.113   3.931   2.073 -0.1974 -0.7893 -1.2969
 6535TIP3    H219549   2.993   3.876   1.997 -2.5266  0.8151  1.0385
 6536TIP3   OH219550   0.474   1.159   5.964  0.0932  0.3814 -0.5135
 6536TIP3    H119551   0.455   1.238   6.015  1.9884  1.9280 -2.0328
 6536TIP3    H219552   0.446   1.181   5.875 -2.2482 -1.8942 -0.4726
 6537TIP3   OH219553   6.667   7.841   6.032  0.1688  0.0223  0.2496
 6537TIP3    H119554   6.648   7.774   5.966 -0.3230 -0.3725  0.7823
 6537TIP3    H219555   6.626   7.808   6.112  1.1850  0.2502  0.8830
 6538TIP3   OH219556   1.705   1.762   5.180  0.2827  0.2509  0.4422
 6538TIP3    H119557   1.779   1.729   5.231 -0.2743 -1.8875 -0.0406
 6538TIP3    H219558   1.731   1.750   5.089  0.3675  1.9533  0.2131
 6539TIP3   OH219559   2.728   7.302   6.489  0.2306 -0.4996  0.1294
 6539TIP3    H119560   2.659   7.259   6.438  0.6528 -0.2843 -0.6196
 6539TIP3    H219561   2.681   7.365   6.543 -0.3291 -1.4147  0.7540
 6540TIP3   OH219562   4.474   7.720   5.630  0.1512  0.1717  0.6063
 6540TIP3    H119563   4.406   7.687   5.688  0.5827 -0.0336  1.0006
 6540TIP3    H219564   4.428   7.779   5.570 -0.1556  1.0969  1.7270
 6541TIP3   OH219565   6.355   5.290   2.213  0.4789 -0.5884 -0.3015
 6541TIP3    H119566   6.358   5.211   2.160 -1.4136 -0.3792 -0.7720
 6541TIP3    H219567   6.346   5.361   2.149  1.7213 -0.0068  0.1376
 6542TIP3   OH219568   2.923   7.530   4.922  0.5918  0.1180 -0.1531
 6542TIP3    H119569   2.865   7.585   4.974  1.9149  0.3753  1.1018
 6542TIP3    H219570   2.934   7.450   4.974  2.4080  0.6168  0.3067
 6543TIP3   OH219571   6.352   3.928   3.709 -0.6322  0.7216 -0.1598
 6543TIP3    H119572   6.326   3.976   3.787  2.3551  1.2941  0.6038
 6543TIP3    H219573   6.397   3.993   3.655 -0.9907 -0.1103 -1.5172
 6544TIP3   OH219574   2.704   5.858   4.786 -0.0985  0.2922 -0.5340
 6544TIP3    H119575   2.768   5.793   4.815 -0.8790  0.2004  1.0750
 6544TIP3    H219576   2.741   5.942   4.813 -0.1376  0.3283 -0.5945
 6545TIP3   OH219577   0.284   4.504   0.767 -0.5922 -0.1992 -0.8459
 6545TIP3    H119578   0.212   4.499   0.830  0.9709  1.2329  1.1569
 6545TIP3    H219579   0.351   4.445   0.801  0.4626  0.9395 -0.8831
 6546TIP3   OH219580   2.066   3.831   2.158  0.0691 -0.5914 -0.1436
 6546TIP3    H119581   2.049   3.878   2.240 -1.5142  0.5508 -1.0505
 6546TIP3    H219582   2.042   3.740   2.177  0.2319 -0.4487  0.8011
 6547TIP3   OH219583   0.393   3.815   2.817 -0.1904 -0.2209 -0.3095
 6547TIP3    H119584   0.358   3.841   2.902 -1.0486  0.0325 -0.7203
 6547TIP3    H219585   0.488   3.822   2.826 -0.0776 -2.7429  1.4363
 6548TIP3   OH219586   0.924   2.311   3.367  0.3278 -0.0297 -0.1265
 6548TIP3    H119587   1.007   2.353   3.347 -0.8051  1.8758 -1.1477
 6548TIP3    H219588   0.865   2.383   3.389 -1.3423 -1.1958 -0.5571
 6549TIP3   OH219589   0.688   6.975   4.862  0.2010 -0.4501  0.3122
 6549TIP3    H119590   0.669   6.939   4.776 -1.6965  1.3727 -0.1109
 6549TIP3    H219591   0.607   6.964   4.912  0.3644  0.9383  0.9463
 6550TIP3   OH219592   7.838   7.064   1.713 -0.0549  0.4360  0.3079
 6550TIP3    H119593   7.897   7.120   1.763  1.3554  0.6069 -1.4201
 6550TIP3    H219594   7.755   7.067   1.760  1.2196  0.3773  2.7131
 6551TIP3   OH219595   0.746   0.720   6.188  0.0039 -0.3578 -0.2369
 6551TIP3    H119596   0.827   0.742   6.235 -0.7808 -0.0312  0.9941
 6551TIP3    H219597   0.688   0.794   6.205 -0.7421 -0.8345 -0.6921
 6552TIP3   OH219598   8.214   6.875   5.389  0.3593  0.1534 -0.3325
 6552TIP3    H119599   8.266   6.826   5.326  1.6171  0.3246  0.5234
 6552TIP3    H219600   8.224   6.967   5.362 -0.3123  0.1137 -0.7342
 6553TIP3   OH219601   1.465   3.790   4.141 -0.3611 -0.0260  0.2057
 6553TIP3    H119602   1.391   3.805   4.083  0.3402 -1.1779 -1.0388
 6553TIP3    H219603   1.540   3.779   4.083  0.2144 -2.1530  1.2305
 6554TIP3   OH219604   7.640   7.778   4.772  0.4171 -0.0842 -0.4623
 6554TIP3    H119605   7.701   7.843   4.737  0.1810  0.2615 -0.2377
 6554TIP3    H219606   7.572   7.830   4.814 -0.8294 -0.4074 -2.0053
 6555TIP3   OH219607   5.080   5.723   3.319  0.1899  0.3318 -0.3398
 6555TIP3    H119608   5.151   5.666   3.293 -0.6597  0.1336 -2.4018
 6555TIP3    H219609   5.123   5.796   3.365  1.3566 -1.4513  1.5861
 6556TIP3   OH219610   4.459   7.193   5.215  0.2215  0.4954 -0.4920
 6556TIP3    H119611   4.537   7.220   5.264 -0.2501  2.1849 -0.5902
 6556TIP3    H219612   4.425   7.275   5.177 -2.2926  0.0637  0.5771
 6557TIP3   OH219613   5.220   0.543   0.104 -0.3575 -0.1734 -0.0857
 6557TIP3    H119614   5.285   0.612   0.120 -0.4772 -0.0622 -0.0779
 6557TIP3    H219615   5.204   0.505   0.190  0.2538 -0.7037 -0.1992
 6558TIP3   OH219616   7.957   3.468   3.156 -0.4197 -0.0669  0.2977
 6558TIP3    H119617   7.890   3.409   3.191 -0.8009 -0.6556 -1.3323
 6558TIP3    H219618   8.035   3.413   3.148 -0.1421  0.2420  0.8489
 6559TIP3   OH219619   1.977   1.862   4.726 -0.7734  0.0082  0.0510
 6559TIP3    H119620   2.026   1.796   4.677 -1.2952 -0.5328  0.2344
 6559TIP3    H219621   1.954   1.928   4.661  1.1339  0.8623  0.1662
 6560TIP3   OH219622   0.666   3.478   5.216 -0.1726 -0.2030  0.9305
 6560TIP3    H119623   0.619   3.530   5.151  1.5408 -0.3770 -0.5214
 6560TIP3    H219624   0.604   3.410   5.243 -0.4516 -1.1006 -1.7269
 6561TIP3   OH219625   2.287   7.660   2.395 -0.3945  0.2350 -0.0332
 6561TIP3    H119626   2.263   7.678   2.305  1.0198 -2.0851 -0.9514
 6561TIP3    H219627   2.382   7.672   2.397  0.4573 -4.5555 -0.2998
 6562TIP3   OH219628   1.203   6.500   2.221  0.2920 -0.0545  0.1815
 6562TIP3    H119629   1.268   6.564   2.249 -0.6274  1.1707 -0.4206
 6562TIP3    H219630   1.179   6.527   2.133  1.7326 -2.7176 -1.1554
 6563TIP3   OH219631   0.268   4.857   2.389  0.9636 -0.1903 -0.2017
 6563TIP3    H119632   0.235   4.778   2.347 -1.3867  0.7463 -0.2974
 6563TIP3    H219633   0.236   4.851   2.479 -3.7623  2.7672 -1.3282
 6564TIP3   OH219634   6.124   0.899   0.134  0.1993  0.2890 -0.1918
 6564TIP3    H119635   6.105   0.834   0.066  2.2932  1.6666 -2.2601
 6564TIP3    H219636   6.072   0.975   0.107 -1.0039  0.0365  1.3108
 6565TIP3   OH219637   5.952   2.174   2.150  0.3098 -0.0019  0.0044
 6565TIP3    H119638   5.935   2.111   2.080 -0.0125 -1.2143  1.1376
 6565TIP3    H219639   5.904   2.252   2.123 -0.5321 -0.7303 -0.7054
 6566TIP3   OH219640   4.111   6.933   6.351  0.6399 -0.1163  0.2653
 6566TIP3    H119641   4.090   6.863   6.413  1.5174 -0.0395  0.6601
 6566TIP3    H219642   4.163   6.995   6.401 -1.5344  1.7296  0.4284
 6567TIP3   OH219643   1.498   5.512   0.694 -0.3470  0.4416 -0.0859
 6567TIP3    H119644   1.453   5.596   0.684 -0.4984  0.5936  1.6031
 6567TIP3    H219645   1.572   5.517   0.634  1.3493  2.9867  2.0092
 6568TIP3   OH219646   6.889   6.796   4.218  0.2223  0.4021 -0.0319
 6568TIP3    H119647   6.930   6.747   4.146  1.5763  0.9090  0.3689
 6568TIP3    H219648   6.808   6.747   4.237  0.2952 -0.2482 -1.2882
 6569TIP3   OH219649   3.726   5.860   4.772  0.3479  0.3852  0.0824
 6569TIP3    H119650   3.719   5.788   4.835  0.7145 -0.5500 -0.8950
 6569TIP3    H219651   3.640   5.864   4.731  1.0415 -1.4057 -1.7858
 6570TIP3   OH219652   2.604   0.159   5.817 -0.1486 -0.2584 -0.1029
 6570TIP3    H119653   2.637   0.241   5.853 -0.7104 -0.8615  1.8988
 6570TIP3    H219654   2.509   0.167   5.821 -0.2178 -1.2999  0.8748
 6571TIP3   OH219655   4.095   3.789   6.519  0.6380  0.0171 -0.6175
 6571TIP3    H119656   4.070   3.857   6.581  1.2723 -0.7970  0.5610
 6571TIP3    H219657   4.127   3.717   6.573  0.5720 -0.9868 -1.8633
 6572TIP3   OH219658   6.559   1.432   3.905 -0.2741  0.1869  0.0446
 6572TIP3    H119659   6.497   1.394   3.843 -1.1432  1.4433  0.1032
 6572TIP3    H219660   6.569   1.523   3.876  0.2244  0.4671  1.0458
 6573TIP3   OH219661   4.912   6.483   1.009 -0.3086 -0.2166 -0.2113
 6573TIP3    H119662   4.987   6.451   0.959  0.6057  2.1763 -0.4705
 6573TIP3    H219663   4.850   6.514   0.943  0.6616  2.4253  0.0231
 6574TIP3   OH219664   5.092   7.512   3.446 -0.2983  0.2815  0.8266
 6574TIP3    H119665   5.082   7.456   3.368  0.2884  1.2898 -0.0073
 6574TIP3    H219666   5.115   7.452   3.516 -1.4060 -0.7313  0.3546
 6575TIP3   OH219667   4.523   0.446   4.639 -0.1009  0.3485  0.1026
 6575TIP3    H119668   4.477   0.520   4.601 -0.6432 -0.5009 -0.9720
 6575TIP3    H219669   4.612   0.453   4.606 -0.3181  0.1737 -0.5397
 6576TIP3   OH219670   6.667   6.465   0.866 -0.5966 -0.1521 -0.4193
 6576TIP3    H119671   6.623   6.422   0.792 -2.0340  0.5720 -0.0185
 6576TIP3    H219672   6.666   6.400   0.936 -0.1161 -0.4880 -0.7152
 6577TIP3   OH219673   1.823   1.134   2.364  0.5612  0.1019 -0.0225
 6577TIP3    H119674   1.751   1.159   2.307  0.6594 -0.6031 -0.4643
 6577TIP3    H219675   1.784   1.125   2.451  0.0898 -0.4488 -0.2944
 6578TIP3   OH219676   4.917   0.425   3.156  0.1842  0.2551  0.1218
 6578TIP3    H119677   4.918   0.495   3.221  0.7690  0.1045  0.2750
 6578TIP3    H219678   4.991   0.444   3.099  0.2666 -0.1679  0.0863
 6579TIP3   OH219679   2.955   6.138   1.209  0.0080 -0.1762 -0.3836
 6579TIP3    H119680   2.942   6.178   1.296 -0.2289 -0.6715 -0.1851
 6579TIP3    H219681   3.045   6.160   1.186  0.8656 -1.9404  1.0082
 6580TIP3   OH219682   5.165   0.988   6.589  0.2269 -0.3652  0.6762
 6580TIP3    H119683   5.239   1.046   6.570  0.6630 -0.2268  2.5505
 6580TIP3    H219684   5.172   0.918   6.524  0.8087  0.7039 -0.4340
 6581TIP3   OH219685   2.898   4.622   3.486 -0.4317  0.1164 -0.1073
 6581TIP3    H119686   2.971   4.678   3.513 -0.0486 -0.6354  0.4484
 6581TIP3    H219687   2.850   4.674   3.421 -0.3978  1.3147  0.7855
 6582TIP3   OH219688   0.875   3.651   0.146 -0.2352 -0.2507  0.0383
 6582TIP3    H119689   0.809   3.721   0.149  0.2170  0.1506  0.9399
 6582TIP3    H219690   0.911   3.648   0.234  1.5238  0.1004 -0.6343
 6583TIP3   OH219691   4.131   6.946   2.259 -0.3193  0.1963 -0.3644
 6583TIP3    H119692   4.152   6.892   2.335 -0.1734 -0.6146 -0.9695
 6583TIP3    H219693   4.160   6.894   2.183 -0.0264  1.1905 -0.9556
 6584TIP3   OH219694   6.453   3.059   6.645 -0.1963  0.0598 -0.3652
 6584TIP3    H119695   6.397   3.014   6.709 -0.2802  1.0009  0.2344
 6584TIP3    H219696   6.542   3.046   6.678 -0.0951 -0.8006 -0.9229
 6585TIP3   OH219697   1.691   2.958   5.321 -0.1976 -0.0924  0.0317
 6585TIP3    H119698   1.693   2.930   5.229 -1.5410 -0.6479  0.1522
 6585TIP3    H219699   1.598   2.970   5.340  0.1082  0.6150  1.1533
 6586TIP3   OH219700   7.196   6.336   1.088  0.7699 -0.4032  0.3448
 6586TIP3    H119701   7.101   6.346   1.101  0.4423 -1.6307 -0.8934
 6586TIP3    H219702   7.235   6.387   1.159 -0.8110  0.3572  0.7149
 6587TIP3   OH219703   2.739   5.017   5.120 -0.0173 -0.0190  0.0480
 6587TIP3    H119704   2.663   4.996   5.066  0.4782 -0.3367 -0.5462
 6587TIP3    H219705   2.705   5.075   5.188 -1.0058 -1.0277  0.4455
 6588TIP3   OH219706   0.055   0.430   5.520 -0.1530  0.2652 -0.4039
 6588TIP3    H119707   0.031   0.517   5.551 -0.7917  0.2815 -0.9315
 6588TIP3    H219708   0.077   0.443   5.428 -0.3305 -0.1452 -0.5042
 6589TIP3   OH219709   5.199   4.362   3.160 -0.1350  0.8561 -0.0334
 6589TIP3    H119710   5.139   4.297   3.123  1.5201 -0.2917 -0.8595
 6589TIP3    H219711   5.160   4.446   3.139 -2.5244  0.1875  1.3360
 6590TIP3   OH219712   8.129   6.984   0.837 -0.2678 -0.5136  0.2771
 6590TIP3    H119713   8.051   7.022   0.798 -0.2836  0.0446  0.8319
 6590TIP3    H219714   8.201   7.010   0.779 -0.4872 -0.9879 -0.2065
 6591TIP3   OH219715   3.124   2.583   2.984  0.2792  0.2590 -0.2642
 6591TIP3    H119716   3.110   2.658   2.927  1.1687  0.7563  0.1506
 6591TIP3    H219717   3.093   2.508   2.934  0.9469  0.6961 -1.3548
 6592TIP3   OH219718   0.910   4.773   6.340  0.0421  0.6552  0.2568
 6592TIP3    H119719   0.842   4.818   6.290  0.8583  1.4836 -0.1386
 6592TIP3    H219720   0.863   4.731   6.412 -0.8079  1.8160  0.4179
 6593TIP3   OH219721   5.869   2.322   4.338  0.1833 -0.0790  0.2814
 6593TIP3    H119722   5.859   2.291   4.248  0.4314  1.8927 -0.4716
 6593TIP3    H219723   5.821   2.258   4.391  0.8298 -1.7965 -1.1327
 6594TIP3   OH219724   4.075   7.369   5.287 -0.1840  0.4770  0.2037
 6594TIP3    H119725   4.065   7.435   5.219  0.0486 -0.4006 -0.7104
 6594TIP3    H219726   3.997   7.314   5.279  0.0659  0.0965  0.3297
 6595TIP3   OH219727   0.041   3.551   6.561 -0.7977  0.0717  0.2590
 6595TIP3    H119728   0.009   3.493   6.492 -1.4671 -1.2097  1.5764
 6595TIP3    H219729  -0.035   3.606   6.583 -0.7256  0.1578  0.2914
 6596TIP3   OH219730   5.221   7.694   5.753 -0.2873 -0.4647  0.4496
 6596TIP3    H119731   5.188   7.744   5.679 -0.2804 -1.4038 -0.2096
 6596TIP3    H219732   5.317   7.700   5.745 -0.2799 -1.1372 -0.0290
 6597TIP3   OH219733   6.962   6.550   5.917  0.1847 -0.0326  0.3638
 6597TIP3    H119734   6.955   6.586   5.829  0.9859 -1.2157 -0.2089
 6597TIP3    H219735   6.880   6.576   5.960 -0.0520  0.8749 -0.5899
 6598TIP3   OH219736   6.999   7.717   1.593 -0.2332  0.0526  0.2805
 6598TIP3    H119737   6.941   7.773   1.541 -1.0525 -1.0898 -0.0486
 6598TIP3    H219738   7.087   7.749   1.572 -0.6975  1.6229  0.5778
 6599TIP3   OH219739   6.330   7.598   4.909  0.3863 -0.0046  0.3525
 6599TIP3    H119740   6.393   7.670   4.917 -1.7045  1.9613  0.1983
 6599TIP3    H219741   6.261   7.620   4.970 -2.2760  0.3166 -2.5345
 6600TIP3   OH219742   3.951   2.830   2.882 -0.1680 -0.4889 -0.0460
 6600TIP3    H119743   3.980   2.883   2.807 -1.7866  1.3018  0.5227
 6600TIP3    H219744   3.857   2.847   2.888 -0.1376 -0.8904  2.1641
 6601TIP3   OH219745   1.865   6.384   4.705  0.1491  0.0246  0.1635
 6601TIP3    H119746   1.941   6.333   4.733 -1.0033 -1.7782  0.2232
 6601TIP3    H219747   1.792   6.321   4.708 -1.3116  1.6256 -0.0725
 6602TIP3   OH219748   4.635   1.200   1.007 -0.4154  0.4276 -0.2593
 6602TIP3    H119749   4.577   1.274   1.025 -0.7342  0.3668 -0.9838
 6602TIP3    H219750   4.591   1.125   1.046  1.3091  0.9678  3.1664
 6603TIP3   OH219751   4.931   7.396   6.513  0.1576 -0.1250  0.1690
 6603TIP3    H119752   4.996   7.449   6.559 -0.0576  0.5416 -0.2723
 6603TIP3    H219753   4.978   7.362   6.437 -0.1475  0.8454 -0.4763
 6604TIP3   OH219754   5.064   0.714   6.166  0.3431  0.6776  0.1041
 6604TIP3    H119755   5.093   0.630   6.129  1.5789  1.1751 -0.1057
 6604TIP3    H219756   5.053   0.771   6.090 -0.9290  0.5950  0.2089
 6605TIP3   OH219757   6.279   5.993   3.565  0.0515 -0.0905 -0.6932
 6605TIP3    H119758   6.307   6.075   3.526  0.9770 -1.2235 -2.5185
 6605TIP3    H219759   6.185   6.005   3.581  0.4014  1.7290  0.2425
 6606TIP3   OH219760   6.148   2.145   5.241  0.1440  0.1358 -0.0426
 6606TIP3    H119761   6.058   2.159   5.269  0.4431 -0.8378  1.5130
 6606TIP3    H219762   6.191   2.230   5.254 -0.3898  0.4425 -0.2426
 6607TIP3   OH219763   2.694   2.514   2.782  0.1573  0.0463 -0.3948
 6607TIP3    H119764   2.739   2.433   2.754 -0.9567 -0.4060 -0.9168
 6607TIP3    H219765   2.758   2.583   2.764  0.8300 -0.6281 -0.6941
 6608TIP3   OH219766   2.448   0.256   2.102  0.5124 -0.0706 -0.1914
 6608TIP3    H119767   2.437   0.333   2.046  1.5781  0.1448 -0.1301
 6608TIP3    H219768   2.464   0.185   2.040 -0.5230 -0.2742 -0.2509
 6609TIP3   OH219769   0.176   4.503   6.460 -0.1857 -0.6204  0.0829
 6609TIP3    H119770   0.263   4.542   6.465  1.0065 -2.8527 -1.4263
 6609TIP3    H219771   0.163   4.461   6.545 -0.6748  1.3214  1.0136
 6610TIP3   OH219772   0.690   7.588   3.068  0.7415  0.2737  0.2160
 6610TIP3    H119773   0.649   7.625   2.989  0.5441  1.2451  0.7630
 6610TIP3    H219774   0.730   7.506   3.038  1.1993  0.9254 -1.0325
 6611TIP3   OH219775   3.942   5.779   6.713 -0.4748 -0.0072  0.4681
 6611TIP3    H119776   3.973   5.797   6.624 -1.9857  0.1759 -0.0522
 6611TIP3    H219777   4.019   5.745   6.759  0.5934  0.8549 -0.6086
 6612TIP3   OH219778   1.385   5.736   0.934  0.1425 -0.0210 -0.4764
 6612TIP3    H119779   1.312   5.690   0.891 -1.1672  0.0112  1.5586
 6612TIP3    H219780   1.425   5.669   0.989 -0.2685  0.6742  0.6910
 6613TIP3   OH219781   8.114   7.225   5.970 -0.4836  0.2025  0.4516
 6613TIP3    H119782   8.180   7.180   5.917 -0.1845 -0.3081  1.2322
 6613TIP3    H219783   8.031   7.200   5.931 -0.2901 -0.5611  0.5068
 6614TIP3   OH219784   4.827   5.996   3.761  0.0783 -0.2909 -0.0702
 6614TIP3    H119785   4.910   6.017   3.717  1.0925 -0.5777  1.6179
 6614TIP3    H219786   4.808   6.073   3.815 -0.1577 -0.6810  0.4122
 6615TIP3   OH219787   2.111   3.493   2.011  0.1701  0.0134 -0.0435
 6615TIP3    H119788   2.096   3.565   1.950 -0.1580 -0.8941 -1.0562
 6615TIP3    H219789   2.048   3.426   1.985  1.6246 -1.3321 -0.2469
 6616TIP3   OH219790   7.385   2.516   5.490 -0.1027  0.4644 -0.0077
 6616TIP3    H119791   7.346   2.583   5.547 -0.3537  1.2731 -1.0737
 6616TIP3    H219792   7.466   2.490   5.534 -0.8953  0.1569  1.3073
 6617TIP3   OH219793   3.444   0.094   5.797 -0.2745  0.3198 -0.0499
 6617TIP3    H119794   3.438   0.162   5.730  0.9559  0.2784 -0.2213
 6617TIP3    H219795   3.478   0.018   5.751  1.3036  0.5070  0.7463
 6618TIP3   OH219796   3.745   0.694   5.776 -0.4081 -0.4063  0.6099
 6618TIP3    H119797   3.800   0.626   5.737  0.6428 -0.3301  1.9030
 6618TIP3    H219798   3.804   0.744   5.831 -1.5336  0.4686  1.0541
 6619TIP3   OH219799   2.327   6.994   3.459 -0.0588 -0.0256  1.1812
 6619TIP3    H119800   2.240   6.960   3.481 -1.4428  1.5986 -1.2725
 6619TIP3    H219801   2.373   6.998   3.542 -2.8917  0.4838  2.8627
 6620TIP3   OH219802   5.206   4.327   6.304  0.4363  0.2479 -0.1372
 6620TIP3    H119803   5.144   4.395   6.277 -0.5321 -0.7920 -0.6213
 6620TIP3    H219804   5.239   4.290   6.222 -0.0818 -0.7661  0.0842
 6621TIP3   OH219805   0.946   1.208   2.904 -0.4000 -0.5526 -0.5374
 6621TIP3    H119806   0.919   1.146   2.972 -2.0885 -1.0007 -1.5601
 6621TIP3    H219807   1.006   1.268   2.949 -0.3764 -1.6471  0.9935
 6622TIP3   OH219808   3.421   4.508   2.003 -0.0693 -0.1230  0.1902
 6622TIP3    H119809   3.406   4.553   2.087  0.8767 -0.5489  0.5999
 6622TIP3    H219810   3.477   4.434   2.025  0.9564  0.2834 -0.9701
 6623TIP3   OH219811   0.145   2.406   5.871 -0.2191 -0.1857 -0.5512
 6623TIP3    H119812   0.176   2.353   5.798 -0.5084 -0.2845 -0.6047
 6623TIP3    H219813   0.162   2.353   5.949  2.7310  1.0392 -0.2020
 6624TIP3   OH219814   5.332   7.680   4.212 -0.1404  0.1363 -0.1476
 6624TIP3    H119815   5.321   7.763   4.167  1.8452  0.5393  0.0310
 6624TIP3    H219816   5.285   7.691   4.294  1.3073  1.6905  0.5421
 6625TIP3   OH219817   0.058   0.646   3.778 -0.2714 -0.0244  0.1943
 6625TIP3    H119818   0.123   0.663   3.710 -0.7879  0.8367 -0.1023
 6625TIP3    H219819  -0.024   0.679   3.742 -0.3830  1.3753  1.5926
 6626TIP3   OH219820   4.400   1.467   0.138  0.3626  0.0164 -0.4697
 6626TIP3    H119821   4.457   1.539   0.168  0.6996 -0.9822  1.4829
 6626TIP3    H219822   4.350   1.504   0.066  1.0739  1.9756 -0.0193
 6627TIP3   OH219823   1.481   1.857   5.362 -0.0962 -0.4537  0.3309
 6627TIP3    H119824   1.463   1.937   5.312  0.1415 -0.1671  0.6965
 6627TIP3    H219825   1.530   1.801   5.302 -1.8860 -1.1157 -0.5820
 6628TIP3   OH219826   7.217   1.556   3.773  0.1022  0.0780 -0.0037
 6628TIP3    H119827   7.176   1.597   3.848  0.6904  0.1519  0.2835
 6628TIP3    H219828   7.144   1.525   3.719 -0.3323 -0.8105  1.0512
 6629TIP3   OH219829   1.113   4.281   1.634 -0.3232 -0.0543  0.0562
 6629TIP3    H119830   1.156   4.294   1.718 -0.8690  0.7592  0.2274
 6629TIP3    H219831   1.174   4.227   1.583  0.8636  0.9940  0.3206
 6630TIP3   OH219832   5.105   1.195   2.361 -0.1245  0.1164  0.1615
 6630TIP3    H119833   5.038   1.219   2.425 -0.5225  0.6149 -0.4308
 6630TIP3    H219834   5.178   1.164   2.414 -1.1774 -1.4363  0.7966
 6631TIP3   OH219835   2.828   7.416   1.808 -0.4782 -0.2243  0.0659
 6631TIP3    H119836   2.840   7.374   1.893 -1.8916 -1.2453 -0.2027
 6631TIP3    H219837   2.863   7.505   1.820 -0.0399 -0.5624  1.4920
 6632TIP3   OH219838   7.474   5.348   2.001  0.0146  0.0613 -0.2481
 6632TIP3    H119839   7.561   5.351   2.040  1.4612 -0.0872 -3.2024
 6632TIP3    H219840   7.441   5.438   2.008  0.1660  0.0276  1.2492
 6633TIP3   OH219841   2.483   2.507   5.683 -0.2403  0.2100 -0.5011
 6633TIP3    H119842   2.449   2.568   5.748  2.2211  1.4525 -0.2860
 6633TIP3    H219843   2.578   2.513   5.691  0.1148 -1.5027 -2.4979
 6634TIP3   OH219844   3.399   1.044   4.583  0.3206 -0.1455  0.2113
 6634TIP3    H119845   3.318   1.041   4.634 -0.4988 -1.0226 -1.0640
 6634TIP3    H219846   3.465   1.075   4.644 -0.6399 -0.9806  1.7511
 6635TIP3   OH219847   5.230   5.848   5.638 -0.3811 -0.3215  0.2949
 6635TIP3    H119848   5.162   5.789   5.603  0.7911 -0.9178 -1.0483
 6635TIP3    H219849   5.254   5.904   5.564 -0.0506  0.5110  1.0198
 6636TIP3   OH219850   3.609   6.228   2.912  0.3166 -0.0664 -0.7608
 6636TIP3    H119851   3.573   6.244   2.825  0.2437 -3.0333 -1.3838
 6636TIP3    H219852   3.533   6.210   2.967  0.5298 -1.4889 -0.9066
 6637TIP3   OH219853   6.010   5.978   0.612  0.4217 -0.5927  0.2662
 6637TIP3    H119854   6.093   6.003   0.653 -0.5039  3.2927  0.1733
 6637TIP3    H219855   5.948   6.045   0.640 -1.4961 -0.4949 -3.5241
 6638TIP3   OH219856   4.180   0.134   1.443  0.5671  0.0469 -0.1381
 6638TIP3    H119857   4.209   0.223   1.421 -0.5742  0.7562  1.0469
 6638TIP3    H219858   4.136   0.144   1.528  0.1926 -1.6170 -0.1064
 6639TIP3   OH219859   7.187   4.719   3.403 -0.1609  0.1345 -0.2788
 6639TIP3    H119860   7.102   4.703   3.363 -0.3181 -0.7917  0.3923
 6639TIP3    H219861   7.194   4.653   3.472  0.9939  0.3586 -0.1599
 6640TIP3   OH219862   0.157   7.570   1.297 -0.6240  0.1438 -0.5267
 6640TIP3    H119863   0.062   7.554   1.302 -1.0334  1.7591 -1.8544
 6640TIP3    H219864   0.174   7.578   1.203  0.6831  0.7075 -0.2591
 6641TIP3   OH219865   1.928   3.906   2.628  0.6909  0.6002  0.1345
 6641TIP3    H119866   1.926   3.841   2.698 -2.5349  0.8454  0.3745
 6641TIP3    H219867   1.910   3.990   2.671 -0.2509  0.9010 -0.8010
 6642TIP3   OH219868   6.433   4.997   3.689 -0.2107  0.0119 -0.2293
 6642TIP3    H119869   6.395   5.024   3.773 -0.5130  0.4534 -0.5092
 6642TIP3    H219870   6.454   4.904   3.702 -1.8393 -0.3891 -0.2365
 6643TIP3   OH219871   0.799   0.780   0.704 -0.4379 -0.4790  0.1035
 6643TIP3    H119872   0.850   0.789   0.623  1.1988 -0.2580  1.1254
 6643TIP3    H219873   0.863   0.757   0.771 -1.8037 -0.9355  1.3073
 6644TIP3   OH219874   8.057   3.646   4.699  0.2217 -0.0673 -0.6416
 6644TIP3    H119875   8.011   3.664   4.781  1.4599  0.1470  0.0329
 6644TIP3    H219876   8.052   3.727   4.649 -1.0151 -0.3699 -1.0351
 6645TIP3   OH219877   2.576   1.030   1.846 -0.3382  0.8012 -0.6155
 6645TIP3    H119878   2.637   1.020   1.772  0.4368 -0.6176  0.1703
 6645TIP3    H219879   2.580   0.946   1.892 -0.7116  1.6906  1.1289
 6646TIP3   OH219880   1.819   3.376   5.590 -0.1636 -0.1260  0.8586
 6646TIP3    H119881   1.752   3.311   5.571  0.1038  0.0162 -0.7438
 6646TIP3    H219882   1.896   3.326   5.615  0.8648 -0.7132 -2.8587
 6647TIP3   OH219883   5.970   1.849   6.427  0.3556  0.1550 -0.5433
 6647TIP3    H119884   5.934   1.761   6.423  2.2578 -0.6694 -0.7485
 6647TIP3    H219885   5.895   1.907   6.412 -1.6848 -1.2054  3.0566
 6648TIP3   OH219886   1.174   4.773   6.417  0.1480  0.1149  0.3031
 6648TIP3    H119887   1.217   4.857   6.400 -1.7258  0.8739 -1.0568
 6648TIP3    H219888   1.083   4.787   6.389 -0.5689 -1.9244  1.4438
 6649TIP3   OH219889   6.778   3.617   6.688  0.3866 -0.0002 -0.0361
 6649TIP3    H119890   6.785   3.549   6.620  1.1991  0.0424 -0.0126
 6649TIP3    H219891   6.865   3.619   6.728  0.7417  1.8775 -0.8096
 6650TIP3   OH219892   1.149   4.849   1.955  0.4491  0.4930  0.4196
 6650TIP3    H119893   1.192   4.771   1.920  1.1936  1.2055 -0.3108
 6650TIP3    H219894   1.056   4.836   1.935  0.4368 -0.6121  1.1220
 6651TIP3   OH219895   6.189   2.291   2.501  0.4939 -0.6048 -0.2105
 6651TIP3    H119896   6.133   2.226   2.459  0.7114 -0.7897 -0.2114
 6651TIP3    H219897   6.232   2.244   2.572  0.6435 -0.4583 -0.2039
 6652TIP3   OH219898   1.454   3.177   6.331  0.6178 -0.1818  0.9207
 6652TIP3    H119899   1.385   3.114   6.309  1.3193 -1.1226  1.3847
 6652TIP3    H219900   1.507   3.182   6.251 -0.4301  1.1811  0.2616
 6653TIP3   OH219901   5.403   1.167   5.570  0.2699  0.8195  0.3272
 6653TIP3    H119902   5.481   1.214   5.599  0.8787  0.1338 -0.1555
 6653TIP3    H219903   5.378   1.114   5.646  0.1562  1.1932  0.5506
 6654TIP3   OH219904   4.347   1.969   3.154  0.5704  0.0378  0.3252
 6654TIP3    H119905   4.411   1.983   3.085 -0.4212 -0.2474 -0.6752
 6654TIP3    H219906   4.338   1.874   3.160 -0.7830  0.0880 -0.5408
 6655TIP3   OH219907   6.554   5.933   3.545 -0.2997 -0.0229 -0.2691
 6655TIP3    H119908   6.490   5.862   3.537 -0.5586  0.1089  0.5413
 6655TIP3    H219909   6.509   6.009   3.511 -1.2430  0.4460  1.8621
 6656TIP3   OH219910   6.706   4.553   6.154  0.1561 -0.3534 -0.0995
 6656TIP3    H119911   6.654   4.633   6.149  0.9987  0.1917 -0.3265
 6656TIP3    H219912   6.780   4.568   6.094  0.5805 -1.1023  0.2165
 6657TIP3   OH219913   7.377   5.536   4.493  0.2437  0.3640 -0.0124
 6657TIP3    H119914   7.453   5.505   4.542 -2.1629 -0.6660  3.5145
 6657TIP3    H219915   7.331   5.456   4.467 -0.8381  0.9091  0.1335
 6658TIP3   OH219916   5.864   4.024   1.427 -0.0591 -0.3915  0.0599
 6658TIP3    H119917   5.912   3.948   1.458 -0.3296 -0.7907 -0.4733
 6658TIP3    H219918   5.876   4.022   1.332  1.2494  1.1285  0.1546
 6659TIP3   OH219919   3.333   7.608   4.580 -0.4981 -0.4265 -0.2989
 6659TIP3    H119920   3.282   7.611   4.661 -0.8141 -0.2972 -0.5005
 6659TIP3    H219921   3.267   7.607   4.510 -0.2502 -1.2904 -0.5392
 6660TIP3   OH219922   8.111   1.850   2.676  0.3033 -0.0885  0.7645
 6660TIP3    H119923   8.103   1.768   2.628  2.6226 -0.1193  0.3433
 6660TIP3    H219924   8.059   1.912   2.625  0.6902 -0.6986 -0.4265
 6661TIP3   OH219925   5.520   0.817   3.979  0.4011  0.3374  0.7974
 6661TIP3    H119926   5.467   0.742   3.953 -0.0847  0.8543  0.2547
 6661TIP3    H219927   5.468   0.893   3.953  1.2084  0.8565  0.6648
 6662TIP3   OH219928   5.087   4.681   4.044 -0.2863  0.0062 -0.3598
 6662TIP3    H119929   5.109   4.600   3.997  1.4760  0.7552 -0.8728
 6662TIP3    H219930   5.094   4.750   3.978 -0.5898  0.7334  0.3511
 6663TIP3   OH219931   5.666   7.303   5.465  0.6439  0.2944  0.3259
 6663TIP3    H119932   5.685   7.244   5.392 -1.2611 -0.4363  0.3469
 6663TIP3    H219933   5.659   7.245   5.541 -0.0676  0.6930  0.5729
 6664TIP3   OH219934   2.434   3.558   0.200  0.4921 -0.4286  0.1130
 6664TIP3    H119935   2.458   3.643   0.236 -0.1479 -0.0799 -0.2667
 6664TIP3    H219936   2.516   3.509   0.198  1.1618  0.6952 -1.0631
 6665TIP3   OH219937   2.561   0.535   0.895 -0.2691 -0.0737  0.1792
 6665TIP3    H119938   2.604   0.612   0.934 -0.0211 -0.6428  1.0428
 6665TIP3    H219939   2.473   0.565   0.874 -0.1902  0.4340  0.5458
 6666TIP3   OH219940   5.200   1.967   5.743 -0.5390  0.3760 -0.1889
 6666TIP3    H119941   5.112   1.929   5.738 -0.6498  0.6739 -0.5041
 6666TIP3    H219942   5.188   2.046   5.796 -0.3278  0.0323  0.3783
 6667TIP3   OH219943   3.894   1.325   6.681  0.0831 -0.8618 -0.3034
 6667TIP3    H119944   3.945   1.377   6.743 -0.0510 -1.3483  0.2221
 6667TIP3    H219945   3.955   1.259   6.649  0.3574 -0.1768 -1.2473
 6668TIP3   OH219946   5.240   5.732   6.348 -0.1236 -0.2269  0.1289
 6668TIP3    H119947   5.278   5.820   6.349 -0.5269 -0.0433  1.4860
 6668TIP3    H219948   5.288   5.686   6.278 -1.9832  1.9293 -2.8028
 6669TIP3   OH219949   5.907   1.319   3.163  0.1724  0.3028 -0.0021
 6669TIP3    H119950   5.847   1.287   3.096 -2.3677 -0.7933  2.5564
 6669TIP3    H219951   5.994   1.293   3.133 -0.8884 -0.5418 -2.5672
 6670TIP3   OH219952   1.392   5.370   6.654  0.2285  0.1689 -0.3053
 6670TIP3    H119953   1.372   5.450   6.702  0.9906  0.5730 -0.6413
 6670TIP3    H219954   1.416   5.306   6.721 -1.5680 -0.1724  0.0655
 6671TIP3   OH219955   0.093   5.283   5.904  0.4842 -0.3207  0.2573
 6671TIP3    H119956   0.115   5.190   5.909  0.8026 -0.3017 -0.5888
 6671TIP3    H219957   0.151   5.318   5.836 -0.5589  0.2172 -0.3837
 6672TIP3   OH219958   3.494   2.202   5.715  0.4707 -0.0040  0.1102
 6672TIP3    H119959   3.506   2.270   5.648 -2.6672 -0.5181 -1.1928
 6672TIP3    H219960   3.489   2.250   5.797  0.2387  1.1463 -0.5457
 6673TIP3   OH219961   4.777   5.870   4.371 -0.5218  0.1000  0.1902
 6673TIP3    H119962   4.718   5.854   4.298 -0.2244  0.2512 -0.0822
 6673TIP3    H219963   4.801   5.783   4.402 -0.5362  0.0354  0.0197
 6674TIP3   OH219964   0.325   3.674   5.817 -0.3588 -0.2804 -0.6332
 6674TIP3    H119965   0.239   3.644   5.791 -1.0825  1.0020  0.1355
 6674TIP3    H219966   0.352   3.614   5.887 -0.0517 -1.4372 -1.7107
 6675TIP3   OH219967   8.048   6.534   5.417 -0.9061 -0.0617 -0.2634
 6675TIP3    H119968   8.123   6.580   5.456 -0.8785  0.4933 -0.9394
 6675TIP3    H219969   8.084   6.451   5.386 -0.7343 -0.1183  0.0876
 6676TIP3   OH219970   1.700   4.593   6.082 -0.6788  0.9366 -0.1756
 6676TIP3    H119971   1.792   4.585   6.108 -1.2920 -1.7100  1.6995
 6676TIP3    H219972   1.698   4.566   5.990  0.3271 -0.2110  0.1062
 6677TIP3   OH219973   0.209   7.048   4.538  0.1173 -0.3865 -0.1521
 6677TIP3    H119974   0.254   7.092   4.467 -2.4300 -0.5771 -2.0434
 6677TIP3    H219975   0.225   6.955   4.522  0.1053 -0.3971 -0.1016
 6678TIP3   OH219976   2.806   3.471   6.249 -0.6813 -0.0817  0.4586
 6678TIP3    H119977   2.774   3.395   6.201  2.7706 -0.5340 -1.5197
 6678TIP3    H219978   2.842   3.436   6.330 -0.2881 -0.3656  0.1615
 6679TIP3   OH219979   6.964   0.274   5.122 -0.2401  0.2580  0.3520
 6679TIP3    H119980   7.036   0.332   5.146 -0.3967  0.0897  1.2683
 6679TIP3    H219981   7.004   0.208   5.066  0.2604  0.3375  0.6109
 6680TIP3   OH219982   2.684   0.966   5.134 -0.0933  0.1741 -0.6350
 6680TIP3    H119983   2.605   0.927   5.098 -0.0641 -0.2377 -0.2688
 6680TIP3    H219984   2.654   1.019   5.208  0.0379 -0.5798 -0.0291
 6681TIP3   OH219985   3.316   4.723   0.889  0.0456 -0.4910 -0.5262
 6681TIP3    H119986   3.380   4.670   0.843  1.4672  0.3093  0.4526
 6681TIP3    H219987   3.265   4.660   0.941  1.1890 -0.9951  0.0153
 6682TIP3   OH219988   6.257   1.195   6.195 -0.3849 -0.3389 -0.3375
 6682TIP3    H119989   6.210   1.273   6.166 -2.2662 -1.3839 -0.2977
 6682TIP3    H219990   6.301   1.222   6.275 -0.4404  0.8600 -0.6864
 6683TIP3   OH219991   1.160   4.353   2.734 -0.4809  0.6095  0.0162
 6683TIP3    H119992   1.139   4.314   2.649 -0.5911 -1.5005  0.9403
 6683TIP3    H219993   1.079   4.398   2.760 -0.7556  0.4639 -0.5751
 6684TIP3   OH219994   1.199   2.706   2.315 -0.2215 -0.3240  0.0769
 6684TIP3    H119995   1.204   2.625   2.364 -0.0378 -0.5565 -0.3228
 6684TIP3    H219996   1.105   2.726   2.311 -0.2664 -0.5195  0.1710
 6685TIP3   OH219997   7.575   1.666   6.702  0.2902 -0.3420 -0.0854
 6685TIP3    H119998   7.507   1.717   6.746  1.2937  0.0753  1.0713
 6685TIP3    H219999   7.604   1.722   6.630 -0.6930 -0.6062 -0.7048
 6686TIP3   OH220000   0.480   1.234   3.274  0.0526  0.2358  0.9754
 6686TIP3    H120001   0.427   1.313   3.269 -0.5892 -0.1044  2.0213
 6686TIP3    H220002   0.500   1.225   3.368  2.4819  0.6793  0.5592
 6687TIP3   OH220003   8.109   6.048   2.202 -0.1785  0.5567  0.2164
 6687TIP3    H120004   8.136   5.987   2.133 -0.6203 -0.1971  0.7041
 6687TIP3    H220005   8.062   5.994   2.265  0.4587  1.1826  1.2622
 6688TIP3   OH220006   0.679   0.911   5.905  0.0591 -0.5278 -0.2552
 6688TIP3    H120007   0.620   0.925   5.831 -0.1644  0.0878  0.0271
 6688TIP3    H220008   0.621   0.893   5.979  0.2657 -0.8405 -0.1696
 6689TIP3   OH220009   4.318   0.063   6.488  0.2635  0.1073 -0.5070
 6689TIP3    H120010   4.344   0.059   6.580 -0.6050 -2.2605 -0.3030
 6689TIP3    H220011   4.398   0.041   6.440  0.4414  0.2410 -0.2754
 6690TIP3   OH220012   6.714   6.202   6.494 -0.1785 -0.3660 -0.1879
 6690TIP3    H120013   6.809   6.196   6.495  0.1245  2.5773  1.9918
 6690TIP3    H220014   6.692   6.223   6.403  1.4964  1.0478 -0.3166
 6691TIP3   OH220015   5.579   4.185   3.171  0.6431  0.1464  0.0646
 6691TIP3    H120016   5.594   4.169   3.264 -0.6312 -2.2555 -0.0743
 6691TIP3    H220017   5.556   4.099   3.135 -1.2693  1.4294 -1.9987
 6692TIP3   OH220018   5.936   1.097   1.739  0.2298  0.1703  0.3163
 6692TIP3    H120019   5.889   1.024   1.779 -1.0953  1.6803  1.6592
 6692TIP3    H220020   5.968   1.149   1.813 -0.2875  1.8194 -0.5528
 6693TIP3   OH220021   1.007   4.303   3.714 -0.5651  0.1054  0.0726
 6693TIP3    H120022   1.091   4.347   3.720 -0.3696 -0.4115  1.4206
 6693TIP3    H220023   1.018   4.222   3.764 -1.1856 -1.0597 -1.5635
 6694TIP3   OH220024   1.511   1.403   3.615  0.4501 -0.3208 -0.2074
 6694TIP3    H120025   1.539   1.454   3.539  2.4827 -0.3877  0.4332
 6694TIP3    H220026   1.589   1.355   3.642 -0.7238 -1.7693  0.8064
 6695TIP3   OH220027   4.973   4.005   5.089 -0.1767 -0.1524  0.1317
 6695TIP3    H120028   4.964   3.964   5.003 -1.1253  0.3907 -0.0429
 6695TIP3    H220029   4.938   4.093   5.078 -0.9578 -0.3021  1.2318
 6696TIP3   OH220030   0.155   4.127   0.277  0.0543  0.2685 -0.4159
 6696TIP3    H120031   0.232   4.164   0.320 -0.2807 -0.7943  1.1699
 6696TIP3    H220032   0.085   4.190   0.295 -0.0571 -0.1153  0.5077
 6697TIP3   OH220033   2.765   2.743   5.153  0.1888  0.1944  0.2903
 6697TIP3    H120034   2.842   2.780   5.196  0.4225 -0.6180  0.5886
 6697TIP3    H220035   2.691   2.777   5.202  0.4574 -0.7976  1.4235
 6698TIP3   OH220036   5.288   2.875   1.335  0.0516 -0.0672  0.1449
 6698TIP3    H120037   5.378   2.847   1.350  0.0130 -0.3429 -0.1165
 6698TIP3    H220038   5.241   2.794   1.315 -0.3368  0.0198  0.6681
 6699TIP3   OH220039   7.789   5.706   4.170  0.3382 -0.0321  0.1441
 6699TIP3    H120040   7.759   5.720   4.259 -0.3111 -2.2999  0.3216
 6699TIP3    H220041   7.741   5.772   4.118 -0.9074 -0.1047  1.1625
 6700TIP3   OH220042   3.248   1.265   1.009  0.1994  0.2573  0.3981
 6700TIP3    H120043   3.265   1.172   1.021  1.6148  0.5640  0.9945
 6700TIP3    H220044   3.156   1.276   1.032 -0.7824 -1.4182 -2.2795
 6701TIP3   OH220045   4.121   0.871   5.408 -0.0995 -0.2562 -0.0891
 6701TIP3    H120046   4.038   0.851   5.450 -0.4395  1.3128  0.0545
 6701TIP3    H220047   4.148   0.954   5.447  0.7504  0.0401 -1.2630
 6702TIP3   OH220048   6.097   0.937   0.533  0.2072  0.2066 -0.1060
 6702TIP3    H120049   6.056   1.020   0.557  0.9266  0.9571 -1.3425
 6702TIP3    H220050   6.178   0.962   0.488  1.2943 -1.2039  0.9568
 6703TIP3   OH220051   2.951   4.106   4.064  0.5944  0.4936  0.2723
 6703TIP3    H120052   3.014   4.173   4.092  0.2605  1.6733 -1.6024
 6703TIP3    H220053   2.871   4.127   4.112 -0.1751  2.9122 -1.8197
 6704TIP3   OH220054   1.374   1.673   5.212 -0.0389 -0.4416  0.2358
 6704TIP3    H120055   1.345   1.702   5.299 -0.4153 -1.9322  0.6340
 6704TIP3    H220056   1.297   1.685   5.156 -0.7013 -2.0767  0.7465
 6705TIP3   OH220057   7.100   1.299   2.448  0.8457  0.2096  0.0445
 6705TIP3    H120058   7.053   1.254   2.378  2.1303  1.0417 -1.4295
 6705TIP3    H220059   7.190   1.265   2.442  1.0200  0.4227  1.1965
 6706TIP3   OH220060   0.950   5.610   0.920  0.0441  0.5565 -0.1679
 6706TIP3    H120061   0.910   5.682   0.968 -2.1582 -0.1181 -0.8925
 6706TIP3    H220062   0.905   5.610   0.836  1.2484 -0.5889 -0.8425
 6707TIP3   OH220063   6.708   4.061   1.854  0.1539 -0.2616  0.6714
 6707TIP3    H120064   6.669   3.997   1.914 -0.3876 -0.5055  0.0680
 6707TIP3    H220065   6.645   4.133   1.852  0.3780 -0.0639  0.7249
 6708TIP3   OH220066   1.770   3.256   4.254 -0.1005  0.2957 -0.1136
 6708TIP3    H120067   1.709   3.328   4.275  3.2274  2.9068  1.7486
 6708TIP3    H220068   1.804   3.278   4.168  0.1832  0.4038  0.0248
 6709TIP3   OH220069   0.044   1.775   2.481 -0.7794  0.0455  0.3879
 6709TIP3    H120070  -0.035   1.757   2.430  1.2672 -2.3588 -2.2588
 6709TIP3    H220071   0.087   1.690   2.489  2.2818  1.4706  0.3364
 6710TIP3   OH220072   8.163   6.304   1.865 -0.4913 -0.0180 -0.2779
 6710TIP3    H120073   8.109   6.327   1.941 -3.4387 -0.3476 -2.1135
 6710TIP3    H220074   8.148   6.210   1.853  0.3994 -0.0848 -0.9591
 6711TIP3   OH220075   4.160   0.877   4.299 -0.1706  0.2225 -0.5119
 6711TIP3    H120076   4.096   0.907   4.364 -0.8647  0.0292 -1.0924
 6711TIP3    H220077   4.204   0.957   4.270 -0.5780  0.4333 -0.5532
 6712TIP3   OH220078   0.515   0.611   5.449 -0.2083  0.7128 -0.2713
 6712TIP3    H120079   0.472   0.543   5.502 -0.3885  0.9302 -0.1339
 6712TIP3    H220080   0.527   0.571   5.363  0.1256  0.3417 -0.0526
 6713TIP3   OH220081   8.098   0.828   6.733 -0.3621 -0.1425 -0.1088
 6713TIP3    H120082   8.034   0.804   6.666 -0.9804  1.8613 -0.3182
 6713TIP3    H220083   8.058   0.797   6.815 -1.0808  0.0898 -0.3578
 6714TIP3   OH220084   3.295   5.291   5.094  0.0634  0.3943  0.0236
 6714TIP3    H120085   3.267   5.208   5.134 -0.6608  0.3363 -0.5848
 6714TIP3    H220086   3.242   5.357   5.137 -0.6479  0.3422 -0.7496
 6715TIP3   OH220087   6.882   3.400   3.357  0.3759  0.4641 -0.0523
 6715TIP3    H120088   6.873   3.494   3.339  1.5334  0.3715 -1.2823
 6715TIP3    H220089   6.793   3.370   3.372 -0.3176  1.3176 -2.0617
 6716TIP3   OH220090   8.115   2.753   0.220 -0.5709  0.2739 -0.0075
 6716TIP3    H120091   8.107   2.844   0.192  0.4052  0.7202  1.1224
 6716TIP3    H220092   8.200   2.748   0.264  0.5503 -1.7566 -2.1521
 6717TIP3   OH220093   4.283   2.294   5.177 -0.0225 -0.0476 -0.2314
 6717TIP3    H120094   4.347   2.316   5.109 -1.1741  1.3164 -0.9354
 6717TIP3    H220095   4.335   2.258   5.248  1.4709  0.5286 -0.9848
 6718TIP3   OH220096   7.983   3.374   6.010 -0.3247 -0.4586 -0.2200
 6718TIP3    H120097   8.049   3.427   6.054 -0.9051 -0.2527  0.4265
 6718TIP3    H220098   7.900   3.403   6.047 -0.6311 -2.2631  0.6552
 6719TIP3   OH220099   6.282   6.515   1.507  0.0828  0.1587 -0.1811
 6719TIP3    H120100   6.193   6.492   1.535 -0.3227  2.7718  0.9360
 6719TIP3    H220101   6.270   6.581   1.439  1.1962 -1.5501 -2.1423
 6720TIP3   OH220102   2.656   1.911   2.896 -0.3542 -0.6958  0.0803
 6720TIP3    H120103   2.747   1.912   2.927 -0.5030 -0.7534  0.5222
 6720TIP3    H220104   2.641   2.000   2.865  0.5323 -1.1983 -2.0256
 6721TIP3   OH220105   3.172   0.224   4.997  0.0827  0.5131 -0.3126
 6721TIP3    H120106   3.164   0.155   4.931  1.3023 -0.3916  0.4391
 6721TIP3    H220107   3.267   0.237   5.006 -0.0672  0.8007  1.0638
 6722TIP3   OH220108   5.678   5.774   5.801  1.0869 -0.0062  0.3811
 6722TIP3    H120109   5.761   5.740   5.834  1.3545  0.6917  0.4450
 6722TIP3    H220110   5.689   5.771   5.705  0.6568 -1.1833  0.3559
 6723TIP3   OH220111   3.875   2.168   1.620  0.9994 -0.4475 -0.0187
 6723TIP3    H120112   3.894   2.236   1.555  1.9548 -1.6385 -1.0238
 6723TIP3    H220113   3.816   2.107   1.575 -1.5970  0.7150  1.5438
 6724TIP3   OH220114   7.983   4.182   5.338 -0.2609  0.0168 -0.3078
 6724TIP3    H120115   8.003   4.250   5.402  1.3482 -0.6063 -0.0993
 6724TIP3    H220116   7.898   4.147   5.366  0.6717 -0.6712  1.9054
 6725TIP3   OH220117   4.727   7.489   6.222  0.4853 -0.5240 -0.0353
 6725TIP3    H120118   4.771   7.408   6.195  1.0091 -0.8189  1.5925
 6725TIP3    H220119   4.682   7.466   6.303 -3.7136 -0.5286 -2.1033
 6726TIP3   OH220120   2.885   2.503   6.245  0.2560 -0.6752  0.3821
 6726TIP3    H120121   2.800   2.458   6.245 -0.1728  0.0683 -0.9414
 6726TIP3    H220122   2.950   2.433   6.248 -0.3905 -1.4142 -1.4973
 6727TIP3   OH220123   1.126   7.195   0.384 -0.0386 -0.0819  0.3862
 6727TIP3    H120124   1.217   7.185   0.358 -0.1103 -0.8460  0.4284
 6727TIP3    H220125   1.129   7.209   0.478  0.0299 -0.1137  0.3885
 6728TIP3   OH220126   0.983   3.370   4.259 -0.2493 -0.3262  0.1823
 6728TIP3    H120127   0.897   3.412   4.266 -0.2043  0.0725 -1.2367
 6728TIP3    H220128   0.965   3.276   4.270 -0.8806 -0.2545 -0.2028
 6729TIP3   OH220129   1.572   2.240   5.033  0.7349  0.1682 -0.3013
 6729TIP3    H120130   1.583   2.280   4.947 -0.3149 -0.7368 -0.8783
 6729TIP3    H220131   1.660   2.242   5.072  0.8659  2.3536 -0.5616
 6730TIP3   OH220132   5.164   2.369   1.579 -0.4149 -0.1492  0.1122
 6730TIP3    H120133   5.159   2.382   1.485 -0.4642 -1.3598 -0.0660
 6730TIP3    H220134   5.241   2.420   1.606  0.6659 -1.1839 -0.8705
 6731TIP3   OH220135   5.554   3.574   3.308  0.0373 -0.5971 -0.5337
 6731TIP3    H120136   5.528   3.666   3.312  1.1587 -0.2864  0.5846
 6731TIP3    H220137   5.615   3.569   3.235  0.7106 -0.2208 -0.0142
 6732TIP3   OH220138   5.932   5.665   5.026 -0.2614  0.2962 -0.2120
 6732TIP3    H120139   5.900   5.622   4.947 -0.4588 -1.4708  0.7803
 6732TIP3    H220140   5.887   5.750   5.027  0.2154  0.6354 -2.2812
 6733TIP3   OH220141   0.905   6.061   2.118  0.3356  0.4941  0.4276
 6733TIP3    H120142   0.962   6.077   2.193 -0.2593 -0.8029  1.1876
 6733TIP3    H220143   0.961   6.076   2.042  1.8065 -0.9981  1.1444
 6734TIP3   OH220144   1.582   0.977   3.973 -0.4339 -0.1879  0.0117
 6734TIP3    H120145   1.501   0.998   3.927  0.0350 -0.3148 -0.9067
 6734TIP3    H220146   1.650   0.988   3.907  0.2103 -0.9109  0.5314
 6735TIP3   OH220147   1.663   6.822   5.412  0.7283  0.6391 -0.1674
 6735TIP3    H120148   1.582   6.784   5.446  1.2128  0.1245  0.4303
 6735TIP3    H220149   1.649   6.828   5.318  0.7017 -1.2076 -0.3116
 6736TIP3   OH220150   3.692   7.382   2.788  0.0137  0.2696  0.2520
 6736TIP3    H120151   3.688   7.475   2.766  0.7072  0.0749 -0.7977
 6736TIP3    H220152   3.650   7.375   2.873  0.0734  1.5675  0.4044
 6737TIP3   OH220153   4.125   0.166   1.951 -0.0711  0.2785 -0.0513
 6737TIP3    H120154   4.190   0.212   2.003  1.8524 -0.7238 -1.4154
 6737TIP3    H220155   4.169   0.086   1.923 -2.2580 -0.9362 -0.2389
 6738TIP3   OH220156   7.891   7.147   3.826  0.3657 -0.4220  0.2003
 6738TIP3    H120157   7.921   7.222   3.878  0.1807  0.5157 -1.0178
 6738TIP3    H220158   7.825   7.184   3.767 -1.4708 -1.9793  1.1651
 6739TIP3   OH220159   2.616   6.539   0.405  0.2796 -0.4299  0.2228
 6739TIP3    H120160   2.671   6.615   0.387 -0.0388  0.1705  1.6840
 6739TIP3    H220161   2.544   6.546   0.343  0.9400 -0.2837 -0.5435
 6740TIP3   OH220162   4.638   2.291   5.820 -0.2241 -0.2521 -0.0234
 6740TIP3    H120163   4.687   2.323   5.896 -3.1578  0.2714  1.8170
 6740TIP3    H220164   4.675   2.340   5.746  2.3029 -0.2950  1.0922
 6741TIP3   OH220165   6.429   4.207   5.024 -0.1771  0.2531 -0.3596
 6741TIP3    H120166   6.381   4.127   5.042 -0.1146 -0.1778 -2.0003
 6741TIP3    H220167   6.372   4.277   5.055 -1.2960 -0.3124 -1.1012
 6742TIP3   OH220168   1.708   2.316   2.112  0.4464  0.0608  0.3514
 6742TIP3    H120169   1.802   2.317   2.131  0.4328 -1.0714  0.5156
 6742TIP3    H220170   1.675   2.238   2.156 -0.6163  0.5476  0.4552
 6743TIP3   OH220171   0.824   5.623   4.174 -0.3541  0.2703  0.1154
 6743TIP3    H120172   0.852   5.532   4.184 -1.9680 -0.2208  0.5810
 6743TIP3    H220173   0.822   5.657   4.264  0.0069  0.6872 -0.0344
 6744TIP3   OH220174   3.881   7.664   2.990  0.3585 -0.2214  0.1786
 6744TIP3    H120175   3.907   7.575   3.012  1.1177  0.1012  0.6117
 6744TIP3    H220176   3.796   7.654   2.946  0.3899 -1.1419  0.3111
 6745TIP3   OH220177   4.556   5.692   4.643  0.3259 -0.5126  0.9467
 6745TIP3    H120178   4.468   5.654   4.638  0.6514 -1.3321  1.2229
 6745TIP3    H220179   4.547   5.779   4.604 -0.2680 -1.1690 -0.4589
 6746TIP3   OH220180   5.890   2.196   5.294  0.0972 -0.4695 -0.0771
 6746TIP3    H120181   5.851   2.251   5.361  0.5164 -1.6928  1.2187
 6746TIP3    H220182   5.815   2.158   5.248 -0.1982  1.0822 -0.9737
 6747TIP3   OH220183   5.654   2.804   2.274 -0.3789 -0.2861 -0.0139
 6747TIP3    H120184   5.629   2.782   2.184  1.3827  1.0125 -0.8928
 6747TIP3    H220185   5.713   2.733   2.300  2.4906  1.2950 -1.5555
 6748TIP3   OH220186   2.233   0.275   4.090  0.2299 -0.3995 -0.4082
 6748TIP3    H120187   2.229   0.235   4.177  2.4853 -0.2666 -0.1727
 6748TIP3    H220188   2.189   0.212   4.033  0.4294 -1.4374  0.5346
 6749TIP3   OH220189   3.711   7.303   1.575 -0.3779  0.3935  0.4363
 6749TIP3    H120190   3.681   7.279   1.662 -0.3435 -2.2450 -0.1625
 6749TIP3    H220191   3.807   7.306   1.583 -0.3921  0.4953  0.5658
 6750TIP3   OH220192   3.727   3.633   3.470 -0.6601  0.1601 -0.2015
 6750TIP3    H120193   3.747   3.713   3.421 -1.0512  0.5668  0.2916
 6750TIP3    H220194   3.714   3.663   3.560  0.1295 -0.5893  0.1756
 6751TIP3   OH220195   4.014   3.968   0.082  0.0150 -0.1636 -0.2862
 6751TIP3    H120196   4.057   4.053   0.081 -0.8831  0.3182  0.4435
 6751TIP3    H220197   3.943   3.977   0.019 -0.7070 -0.0143  0.5247
 6752TIP3   OH220198   3.542   3.639   6.460 -0.1094 -0.1489  0.4637
 6752TIP3    H120199   3.486   3.625   6.536 -1.0032 -1.4817 -0.4033
 6752TIP3    H220200   3.484   3.630   6.384  0.8589  0.6024 -0.4045
 6753TIP3   OH220201   3.640   1.297   3.789  0.6206 -0.0363 -0.2001
 6753TIP3    H120202   3.713   1.317   3.730  1.4707 -0.2028  0.7810
 6753TIP3    H220203   3.645   1.202   3.801  0.2899 -0.0371 -0.0574
 6754TIP3   OH220204   4.335   6.764   5.931  0.5182  0.0708  0.4026
 6754TIP3    H120205   4.252   6.780   5.977 -0.4034 -0.6624 -0.9478
 6754TIP3    H220206   4.340   6.835   5.866  0.0163 -0.8900 -0.7274
 6755TIP3   OH220207   5.843   6.583   1.968 -0.3678  0.1636 -0.2655
 6755TIP3    H120208   5.905   6.650   1.997 -0.4780  0.1983 -0.1136
 6755TIP3    H220209   5.816   6.538   2.048 -1.5605  1.0180 -0.1552
 6756TIP3   OH220210   8.329   4.419   3.445  0.0113  0.1477  0.9535
 6756TIP3    H120211   8.275   4.434   3.523  0.6346 -4.3906  2.5615
 6756TIP3    H220212   8.266   4.395   3.377 -0.3192  1.2051  0.8587
 6757TIP3   OH220213   4.219   1.455   4.699 -0.1035  0.3690  0.1813
 6757TIP3    H120214   4.206   1.549   4.693 -1.4649  0.3562  2.0220
 6757TIP3    H220215   4.202   1.434   4.791  2.5350 -1.3638  0.3878
 6758TIP3   OH220216   7.011   2.642   0.365  1.0212  0.3132 -0.1300
 6758TIP3    H120217   7.022   2.737   0.368 -0.7443  0.5437 -0.3343
 6758TIP3    H220218   6.965   2.625   0.283 -0.4359 -0.5051  0.8194
 6759TIP3   OH220219   2.826   5.644   4.408  0.2261 -0.6587 -0.0748
 6759TIP3    H120220   2.784   5.558   4.412 -1.8091  0.2811  0.5003
 6759TIP3    H220221   2.873   5.652   4.491 -1.9322 -0.1805  1.1976
 6760TIP3   OH220222   5.879   6.225   1.049  0.4404  0.1026  0.3510
 6760TIP3    H120223   5.872   6.318   1.025  1.5165  0.0478 -0.2299
 6760TIP3    H220224   5.908   6.227   1.140 -0.4316  0.3261  0.6314
 6761TIP3   OH220225   0.632   6.090   3.596 -0.2239  0.0277 -0.1097
 6761TIP3    H120226   0.699   6.142   3.551 -0.5102 -0.4988 -1.1631
 6761TIP3    H220227   0.678   6.050   3.670 -0.2062  2.5526  1.3766
 6762TIP3   OH220228   2.418   5.952   3.692  0.5825 -0.4736  0.1244
 6762TIP3    H120229   2.323   5.963   3.692  0.4319 -1.6621  0.8801
 6762TIP3    H220230   2.452   6.036   3.659 -0.7923 -0.9731 -2.8497
 6763TIP3   OH220231   1.898   4.891   5.079 -0.2896 -0.1804  0.1668
 6763TIP3    H120232   1.985   4.906   5.117 -0.8070  2.0178  0.6739
 6763TIP3    H220233   1.856   4.831   5.140  0.4663 -0.3280  0.5625
 6764TIP3   OH220234   6.377   3.021   5.278 -0.3214 -0.2976 -0.3822
 6764TIP3    H120235   6.371   2.927   5.296 -0.7649 -0.0560  0.8675
 6764TIP3    H220236   6.468   3.043   5.296  0.3626 -0.8536 -2.8059
 6765TIP3   OH220237   7.294   5.527   2.097 -0.3795  0.0604  0.2846
 6765TIP3    H120238   7.374   5.571   2.127  0.5157 -2.1223  1.3895
 6765TIP3    H220239   7.243   5.513   2.177 -2.3599  2.1973 -0.5150
 6766TIP3   OH220240   5.121   0.473   5.089 -0.3625 -0.6992 -0.3236
 6766TIP3    H120241   5.208   0.512   5.097 -0.2873 -0.6764 -1.1349
 6766TIP3    H220242   5.137   0.382   5.065 -0.5336 -0.1684 -2.7580
 6767TIP3   OH220243   7.831   6.405   6.750 -0.2367  0.4879  0.7477
 6767TIP3    H120244   7.782   6.377   6.827 -0.3416  1.3402  0.9976
 6767TIP3    H220245   7.766   6.441   6.690 -0.2406 -0.7356 -0.0224
 6768TIP3   OH220246   5.028   2.926   0.579  0.0695  0.0994 -0.0188
 6768TIP3    H120247   4.976   2.946   0.502 -0.5488  0.5903  0.5098
 6768TIP3    H220248   5.091   2.860   0.550  0.6623  1.1659 -1.2443
 6769TIP3   OH220249   2.297   0.729   6.590 -0.0885 -0.3603 -0.4314
 6769TIP3    H120250   2.235   0.794   6.558  0.4583  0.8430  0.8548
 6769TIP3    H220251   2.251   0.686   6.663  0.3013  0.0184  0.0432
 6770TIP3   OH220252   2.068   4.000   3.569 -0.4192  0.4305 -0.4342
 6770TIP3    H120253   2.037   3.984   3.480 -0.9002  1.4840 -0.4827
 6770TIP3    H220254   2.138   3.937   3.582  0.2335  0.8083 -1.8762
 6771TIP3   OH220255   5.245   5.394   2.717 -0.1913 -0.5727 -0.2494
 6771TIP3    H120256   5.289   5.323   2.763 -0.3072 -1.4776 -1.4765
 6771TIP3    H220257   5.263   5.472   2.770 -0.2918 -1.5426  1.2735
 6772TIP3   OH220258   6.229   4.426   1.634  0.4116 -0.6935  0.2600
 6772TIP3    H120259   6.198   4.336   1.624  1.2413 -1.3282  2.8031
 6772TIP3    H220260   6.175   4.463   1.704  2.2808 -0.3635  1.6171
 6773TIP3   OH220261   6.267   4.439   3.458  0.6621  0.2603 -0.4941
 6773TIP3    H120262   6.196   4.499   3.481  1.8374  1.5775 -0.1652
 6773TIP3    H220263   6.258   4.426   3.364 -0.6405 -0.4569 -0.2989
 6774TIP3   OH220264   5.423   0.623   3.746 -0.2054 -0.3857  0.0849
 6774TIP3    H120265   5.338   0.667   3.741  0.0405  0.2751  1.3545
 6774TIP3    H220266   5.429   0.574   3.664 -2.0188 -0.8225  0.1626
 6775TIP3   OH220267   1.714   6.613   4.953 -0.2197  0.4953  0.1162
 6775TIP3    H120268   1.731   6.525   4.921  1.1083  0.3912  1.0667
 6775TIP3    H220269   1.759   6.671   4.891 -1.6804  0.5843 -0.9186
 6776TIP3   OH220270   5.462   1.321   6.712 -0.1403  0.1721 -0.3185
 6776TIP3    H120271   5.383   1.273   6.690 -0.2442  0.4431 -0.5357
 6776TIP3    H220272   5.442   1.361   6.797 -0.2343  0.2435 -0.3750
 6777TIP3   OH220273   7.952   5.380   4.906  0.3994 -0.3347  0.3681
 6777TIP3    H120274   7.917   5.309   4.853 -1.4770 -0.1114  1.1927
 6777TIP3    H220275   7.984   5.444   4.843 -0.1255 -0.8568 -0.4427
 6778TIP3   OH220276   8.029   0.928   2.588  0.4360 -0.3484 -0.7065
 6778TIP3    H120277   7.998   0.986   2.657  1.1547  0.7002 -1.2449
 6778TIP3    H220278   8.037   0.842   2.630  1.3398  0.3738  0.6547
 6779TIP3   OH220279   4.599   6.375   4.431  0.0551 -0.0122 -0.6480
 6779TIP3    H120280   4.666   6.318   4.392 -1.2825 -1.6985 -0.5646
 6779TIP3    H220281   4.583   6.337   4.517 -0.5930  0.7317 -0.4350
 6780TIP3   OH220282   3.749   7.667   3.432 -0.1245 -0.6355  0.5232
 6780TIP3    H120283   3.699   7.587   3.416 -2.6357  0.4996  2.0020
 6780TIP3    H220284   3.686   7.726   3.473  1.5519  2.2050 -0.7235
 6781TIP3   OH220285   6.920   6.880   2.053  0.1023 -0.5082 -0.0654
 6781TIP3    H120286   6.982   6.898   2.124 -0.1089 -0.8902  0.2198
 6781TIP3    H220287   6.901   6.966   2.015  1.9885 -0.5117 -1.1674
 6782TIP3   OH220288   3.213   1.805   2.314  0.3458 -0.0122 -0.4146
 6782TIP3    H120289   3.155   1.731   2.297  0.2754 -0.1985  0.5762
 6782TIP3    H220290   3.214   1.854   2.231 -2.2486  0.6993 -0.1350
 6783TIP3   OH220291   4.574   0.718   1.866  0.3689 -0.2493  0.5536
 6783TIP3    H120292   4.574   0.747   1.957  1.9221  0.1115  0.4684
 6783TIP3    H220293   4.513   0.778   1.823  0.2752  0.1371  1.2006
 6784TIP3   OH220294   6.329   4.655   2.863 -0.3138 -0.0381  0.3076
 6784TIP3    H120295   6.396   4.722   2.873 -0.2834  0.1659 -1.0314
 6784TIP3    H220296   6.351   4.588   2.928 -0.6347  1.4527  2.0171
 6785TIP3   OH220297   3.726   2.200   6.660 -0.2820  0.6983 -0.0257
 6785TIP3    H120298   3.777   2.216   6.580 -1.0091  0.2922 -0.5779
 6785TIP3    H220299   3.698   2.109   6.653 -2.5841  1.3804 -0.6237
 6786TIP3   OH220300   2.611   6.691   3.520 -0.1160 -0.1073 -0.0717
 6786TIP3    H120301   2.680   6.736   3.570 -1.1824  1.6474 -0.1125
 6786TIP3    H220302   2.614   6.731   3.434  0.3821 -1.7417 -0.8714
 6787TIP3   OH220303   7.586   2.798   4.919 -0.1441  0.2437  0.3895
 6787TIP3    H120304   7.572   2.858   4.992  0.9861  1.3488 -0.2668
 6787TIP3    H220305   7.608   2.715   4.960  0.6607  0.8934  1.3148
 6788TIP3   OH220306   7.843   7.801   4.132  0.4185 -0.1788 -0.2108
 6788TIP3    H120307   7.768   7.824   4.077  0.0695 -0.2693  0.2189
 6788TIP3    H220308   7.814   7.724   4.181  0.0739  0.9033  1.3763
 6789TIP3   OH220309   1.892   6.165   5.506  0.2786  0.1037 -0.1928
 6789TIP3    H120310   1.797   6.181   5.506  0.4468  1.2328  0.2575
 6789TIP3    H220311   1.926   6.230   5.444  0.8244  0.1781  0.1845
 6790TIP3   OH220312   3.922   0.480   1.626  0.2804  0.0440  0.4411
 6790TIP3    H120313   3.837   0.520   1.645  0.5725  0.1566  1.5816
 6790TIP3    H220314   3.967   0.544   1.571 -1.6540 -1.4717 -3.2685
 6791TIP3   OH220315   6.850   2.600   1.903 -0.5429  0.6040 -0.9505
 6791TIP3    H120316   6.843   2.521   1.849 -1.4646 -0.6691  0.9127
 6791TIP3    H220317   6.913   2.577   1.971 -0.0619  1.8644 -0.9353
 6792TIP3   OH220318   4.977   3.195   5.312 -0.4290 -0.3127  0.4045
 6792TIP3    H120319   4.998   3.258   5.243  0.6434 -0.1565  0.8584
 6792TIP3    H220320   5.060   3.180   5.357 -0.7725 -1.6515  0.6465
 6793TIP3   OH220321   5.573   1.883   0.979  0.1667 -0.4061 -0.7249
 6793TIP3    H120322   5.486   1.903   0.944  0.2479  1.8270  0.1742
 6793TIP3    H220323   5.556   1.842   1.064 -0.0688  0.8311 -0.1431
 6794TIP3   OH220324   2.870   0.506   5.733  0.1981 -0.2621 -0.2876
 6794TIP3    H120325   2.794   0.523   5.676  0.8987  2.0109 -0.6414
 6794TIP3    H220326   2.943   0.548   5.688  1.3254 -0.8158  0.9610
 6795TIP3   OH220327   7.805   1.078   3.571  0.4164  0.8511  0.5216
 6795TIP3    H120328   7.893   1.109   3.549  0.3853  1.0089  0.6220
 6795TIP3    H220329   7.767   1.148   3.623 -0.5252  1.6922 -1.2216
 6796TIP3   OH220330   0.617   4.749   0.749 -0.1579 -0.1550 -0.2310
 6796TIP3    H120331   0.628   4.686   0.677 -0.6093  0.7226 -1.0863
 6796TIP3    H220332   0.528   4.782   0.739  0.0787  0.6329  0.1989
 6797TIP3   OH220333   6.389   0.047   1.811  0.2189  0.1912  0.5007
 6797TIP3    H120334   6.405   0.091   1.895 -0.8713 -1.1623  1.4586
 6797TIP3    H220335   6.405  -0.046   1.829 -2.0551 -0.4019 -0.2116
 6798TIP3   OH220336   1.118   6.336   2.416 -0.0244  0.2381 -0.1700
 6798TIP3    H120337   1.107   6.425   2.382  1.3635  0.9786  1.1785
 6798TIP3    H220338   1.074   6.338   2.501  3.0481  0.8075  1.5522
 6799TIP3   OH220339   3.530   0.925   0.121 -0.0086  0.0668 -0.5549
 6799TIP3    H120340   3.613   0.958   0.086 -0.8802  2.5508 -0.4278
 6799TIP3    H220341   3.464   0.986   0.089 -1.2367  0.7368  2.8712
 6800TIP3   OH220342   2.995   0.971   3.136  0.5191  0.3709 -0.5076
 6800TIP3    H120343   2.983   1.061   3.168  1.8069 -0.4046  2.4537
 6800TIP3    H220344   3.090   0.960   3.130  0.5073 -1.5013  1.6112
 6801TIP3   OH220345   0.437   1.594   5.350 -0.8121  0.5049 -0.2756
 6801TIP3    H120346   0.511   1.628   5.401  1.0634 -0.7018 -2.0475
 6801TIP3    H220347   0.431   1.653   5.275 -1.4999  0.4269 -0.2920
 6802TIP3   OH220348   3.564   3.281   0.798 -0.0607  0.4771  0.0427
 6802TIP3    H120349   3.566   3.321   0.885  0.9492 -0.3779  0.4317
 6802TIP3    H220350   3.552   3.355   0.738 -0.5346  1.0998  0.8811
 6803TIP3   OH220351   4.789   7.723   0.026  0.0250  0.5914  0.0060
 6803TIP3    H120352   4.843   7.650   0.056 -0.3378 -0.4406 -1.7090
 6803TIP3    H220353   4.712   7.682  -0.011 -1.1784  1.9820  0.8722
 6804TIP3   OH220354   1.628   3.077   1.462  0.3692  0.0628 -0.4173
 6804TIP3    H120355   1.588   3.031   1.536  0.5437 -0.7660 -0.8264
 6804TIP3    H220356   1.639   3.009   1.395  1.2104  0.5662 -0.8014
 6805TIP3   OH220357   1.150   5.825   5.146  0.0612  0.5444 -0.2913
 6805TIP3    H120358   1.201   5.806   5.068  1.4625  0.5180  0.5909
 6805TIP3    H220359   1.121   5.740   5.178 -0.8581  0.5809 -0.9689
 6806TIP3   OH220360   3.943   0.351   2.078  0.2622  0.1023 -0.1729
 6806TIP3    H120361   3.963   0.265   2.040 -3.4553 -0.6887 -0.7186
 6806TIP3    H220362   3.898   0.398   2.008  1.6401  2.3517  0.3328
 6807TIP3   OH220363   8.119   3.295   6.393 -0.6207  0.0360  0.0520
 6807TIP3    H120364   8.121   3.205   6.425  0.4535  0.4047  1.0710
 6807TIP3    H220365   8.211   3.320   6.386 -0.9059  1.4305  0.9042
 6808TIP3   OH220366   1.221   0.298   4.030 -0.0528  0.0187  0.4308
 6808TIP3    H120367   1.204   0.390   4.012  0.7882  0.1013  0.0145
 6808TIP3    H220368   1.196   0.287   4.122  0.7827  0.9127  0.7868
 6809TIP3   OH220369   7.239   1.078   5.939  0.2327 -0.6237 -0.0051
 6809TIP3    H120370   7.299   1.142   5.901  0.3149 -0.7458 -0.0810
 6809TIP3    H220371   7.186   1.129   6.000 -1.6267  0.0990 -2.1089
 6810TIP3   OH220372   1.346   5.002   1.284 -0.0875  0.4616 -0.6910
 6810TIP3    H120373   1.342   5.047   1.200  2.0624 -0.6890 -1.4913
 6810TIP3    H220374   1.436   4.969   1.290 -0.2867  0.1251  1.8726
 6811TIP3   OH220375   0.150   3.211   3.857  0.1311 -0.2003  0.5937
 6811TIP3    H120376   0.060   3.200   3.825  0.2669 -0.1960  0.2168
 6811TIP3    H220377   0.199   3.242   3.782  0.6036 -0.8894  0.6092
 6812TIP3   OH220378   0.556   1.327   6.327 -0.1268  0.0457  0.8719
 6812TIP3    H120379   0.503   1.372   6.393 -1.1631 -0.4709  0.4176
 6812TIP3    H220380   0.499   1.324   6.249  0.5691 -0.5394  0.3766
 6813TIP3   OH220381   5.351   2.631   2.638 -0.1878 -0.1093  0.4060
 6813TIP3    H120382   5.278   2.643   2.699  0.4190 -1.4778  1.4733
 6813TIP3    H220383   5.360   2.536   2.630 -0.1605  0.0239 -1.7619
 6814TIP3   OH220384   2.163   2.914   3.346 -0.1951  0.4858 -0.2328
 6814TIP3    H120385   2.225   2.934   3.416  0.0301 -0.1339 -0.2561
 6814TIP3    H220386   2.178   2.983   3.280  2.1037 -0.9448 -1.3219
 6815TIP3   OH220387   2.585   6.629   1.147 -0.1475  0.5001  0.2444
 6815TIP3    H120388   2.635   6.597   1.072 -0.3617 -0.4763  0.4983
 6815TIP3    H220389   2.550   6.549   1.187 -0.0562  1.0076  1.3637
 6816TIP3   OH220390   3.221   7.701   1.572  0.4590 -0.0328  0.4277
 6816TIP3    H120391   3.159   7.659   1.632  0.2655  0.4187  0.5444
 6816TIP3    H220392   3.233   7.636   1.502 -0.0962 -0.1504  0.4341
 6817TIP3   OH220393   4.817   7.269   2.137 -0.5531 -0.3894  0.1128
 6817TIP3    H120394   4.825   7.332   2.208  0.5761 -0.7158  0.3014
 6817TIP3    H220395   4.780   7.191   2.178 -2.9038  0.4169 -0.3163
 6818TIP3   OH220396   7.469   7.388   4.355  0.1456  0.2296 -0.0322
 6818TIP3    H120397   7.454   7.309   4.303  0.0326  0.1824  0.0725
 6818TIP3    H220398   7.412   7.454   4.316  0.2443  0.2631 -0.1242
 6819TIP3   OH220399   6.618   3.621   4.643 -0.3688 -0.1538  0.1212
 6819TIP3    H120400   6.682   3.588   4.707  0.6743  1.4932 -0.0193
 6819TIP3    H220401   6.670   3.672   4.582 -1.6758  0.1824 -0.7475
 6820TIP3   OH220402   4.299   1.716   5.508 -0.1155  0.4504  0.1915
 6820TIP3    H120403   4.222   1.703   5.452  0.0466  1.5617 -0.3315
 6820TIP3    H220404   4.281   1.797   5.555  0.1824  0.0329  1.0366
 6821TIP3   OH220405   5.360   4.482   4.139  0.1289 -0.2877 -0.1520
 6821TIP3    H120406   5.313   4.422   4.080 -1.3498 -0.4160  1.0721
 6821TIP3    H220407   5.388   4.554   4.083  0.6249 -1.3892 -1.3850
 6822TIP3   OH220408   8.261   1.382   4.743  0.1399 -0.1317 -0.4354
 6822TIP3    H120409   8.208   1.438   4.687  0.8328  0.4250 -0.5557
 6822TIP3    H220410   8.248   1.294   4.708  0.5023  0.1943 -1.4395
 6823TIP3   OH220411   0.675   5.678   2.824 -0.2284 -0.5573 -0.0211
 6823TIP3    H120412   0.635   5.719   2.747  1.2851  0.5112 -0.2871
 6823TIP3    H220413   0.604   5.669   2.886 -1.1838 -0.0744 -1.0094
 6824TIP3   OH220414   1.452   4.225   3.515 -0.1212 -0.4798  0.1879
 6824TIP3    H120415   1.434   4.305   3.465 -0.3394  0.9396  2.4323
 6824TIP3    H220416   1.547   4.225   3.526  0.0203 -1.2501 -0.9057
 6825TIP3   OH220417   5.970   2.501   0.121  0.3812  0.7103  0.2857
 6825TIP3    H120418   5.921   2.567   0.071  0.2719  0.1545 -0.3631
 6825TIP3    H220419   5.902   2.446   0.160  0.4747  0.5929  0.2843
 6826TIP3   OH220420   3.356   4.521   5.706  0.0314 -0.2472  0.1736
 6826TIP3    H120421   3.346   4.541   5.799 -0.2043  1.1981 -0.1409
 6826TIP3    H220422   3.424   4.454   5.702  1.9019  1.5232  1.2091
 6827TIP3   OH220423   6.445   4.269   2.484 -0.3594  0.1098 -0.1367
 6827TIP3    H120424   6.381   4.263   2.413  2.4430  0.3019 -2.9674
 6827TIP3    H220425   6.447   4.362   2.507 -1.8832 -0.0824  0.8435
 6828TIP3   OH220426   8.143   5.008   1.780 -0.4278  0.5660 -0.1492
 6828TIP3    H120427   8.077   4.951   1.740 -1.0485  1.3598 -0.2866
 6828TIP3    H220428   8.178   5.059   1.708  0.2435  0.2479 -0.0528
 6829TIP3   OH220429   4.809   0.407   2.874 -0.0154  0.2630 -0.2055
 6829TIP3    H120430   4.740   0.473   2.872 -0.5327 -0.2494  0.2205
 6829TIP3    H220431   4.824   0.391   2.968  2.5408  2.2469 -0.1653
 6830TIP3   OH220432   2.982   5.798   6.179 -0.1554  0.4049  0.0573
 6830TIP3    H120433   3.046   5.812   6.109 -0.2000 -0.6226 -0.2049
 6830TIP3    H220434   2.903   5.843   6.149  0.0454  0.5830 -0.2143
 6831TIP3   OH220435   0.520   4.779   2.679 -0.2151 -0.2145  0.2126
 6831TIP3    H120436   0.573   4.704   2.706 -2.1101 -1.9660 -0.6349
 6831TIP3    H220437   0.450   4.784   2.744  0.2740  1.2894  0.6511
 6832TIP3   OH220438   3.068   5.367   6.484 -0.9881  0.3292 -0.0032
 6832TIP3    H120439   3.064   5.462   6.472  0.1983  0.7380  2.2623
 6832TIP3    H220440   2.990   5.346   6.536 -0.3266  0.3829  1.0421
 6833TIP3   OH220441   3.017   4.832   5.435 -0.5445 -0.4020  0.3889
 6833TIP3    H120442   2.980   4.861   5.518 -0.1786 -1.1802  0.8375
 6833TIP3    H220443   2.944   4.789   5.390 -0.9997  0.8857 -0.1367
 6834TIP3   OH220444   6.786   7.253   6.666 -0.0794  0.1719  0.6484
 6834TIP3    H120445   6.697   7.284   6.650 -0.0505  0.0994  0.3411
 6834TIP3    H220446   6.805   7.280   6.755  0.1410  1.5061  0.2211
 6835TIP3   OH220447   1.533   5.797   3.219 -0.3126  0.1779  0.3542
 6835TIP3    H120448   1.497   5.811   3.131 -0.6120 -0.0111  0.4451
 6835TIP3    H220449   1.564   5.706   3.218  1.9682  0.8758 -0.3577
 6836TIP3   OH220450   5.274   0.060   0.933  0.2904 -0.0516 -0.6826
 6836TIP3    H120451   5.250   0.152   0.927 -1.9021 -0.6276 -1.4981
 6836TIP3    H220452   5.369   0.061   0.949  0.1182  2.3351  0.6623
 6837TIP3   OH220453   8.220   2.930   1.491 -0.1697 -0.2358 -0.1811
 6837TIP3    H120454   8.309   2.949   1.521  0.8736 -3.0123 -1.2178
 6837TIP3    H220455   8.198   3.004   1.435  1.0320  1.0108  0.8985
 6838TIP3   OH220456   2.091   6.846   6.114  0.1657 -0.0885 -0.0650
 6838TIP3    H120457   2.147   6.769   6.125 -0.1871  0.0184  5.2547
 6838TIP3    H220458   2.153   6.919   6.112  0.3917 -0.2760 -0.0472
 6839TIP3   OH220459   1.381   2.577   3.192  0.5487  0.1915 -0.4094
 6839TIP3    H120460   1.418   2.661   3.220  1.1000  0.2479 -1.2670
 6839TIP3    H220461   1.439   2.549   3.121 -0.3906 -0.2908 -0.9958
 6840TIP3   OH220462   6.567   3.446   0.721  0.6147  0.2909 -0.0342
 6840TIP3    H120463   6.478   3.421   0.747 -0.1378 -0.0043 -2.6233
 6840TIP3    H220464   6.621   3.373   0.751 -0.0157  0.3410  1.3269
 6841TIP3   OH220465   8.073   1.325   1.111 -0.3218 -0.0263 -0.0600
 6841TIP3    H120466   8.119   1.278   1.181 -1.4986  0.1150  0.8414
 6841TIP3    H220467   8.017   1.258   1.071  0.4929 -0.1544 -1.0213
 6842TIP3   OH220468   5.531   2.722   4.825  0.0953  0.1060  0.5028
 6842TIP3    H120469   5.462   2.718   4.758 -1.0012  1.1152  1.5233
 6842TIP3    H220470   5.607   2.759   4.779  0.1526 -1.5040 -0.7658
 6843TIP3   OH220471   5.132   5.131   2.556 -0.7684  0.0556  0.3706
 6843TIP3    H120472   5.182   5.201   2.597  1.2645 -0.8830 -0.4015
 6843TIP3    H220473   5.044   5.168   2.545 -0.1355  1.9497  1.2547
 6844TIP3   OH220474   6.337   4.469   0.396  0.3159  0.3426 -0.0651
 6844TIP3    H120475   6.339   4.385   0.350  0.8100 -0.0754  0.6970
 6844TIP3    H220476   6.289   4.527   0.337  0.9409 -0.1700 -1.1089
 6845TIP3   OH220477   6.681   1.019   0.634 -0.5558 -0.1891 -0.2528
 6845TIP3    H120478   6.658   1.090   0.694  1.3034  1.0163 -0.8879
 6845TIP3    H220479   6.693   0.943   0.691 -1.6889  0.1974  0.5468
 6846TIP3   OH220480   7.450   6.426   3.946  0.5234  0.1438 -0.3417
 6846TIP3    H120481   7.517   6.475   3.898  0.4855  0.7138  0.1668
 6846TIP3    H220482   7.433   6.479   4.024 -1.4626  0.6933 -1.0791
 6847TIP3   OH220483   6.802   2.685   5.770 -0.5121  0.1400 -0.4524
 6847TIP3    H120484   6.797   2.663   5.677 -1.8601 -1.1279 -0.1197
 6847TIP3    H220485   6.734   2.632   5.811  0.6585 -0.0134  1.4140
 6848TIP3   OH220486   3.630   2.786   5.020 -0.5196  0.6576  0.3273
 6848TIP3    H120487   3.545   2.763   4.983  0.3487  0.1910 -1.4653
 6848TIP3    H220488   3.683   2.707   5.011  0.2587  1.0747  1.0116
 6849TIP3   OH220489   2.222   0.318   0.242 -0.5550  0.0192 -0.5292
 6849TIP3    H120490   2.191   0.361   0.322 -0.2096 -1.4970  0.4713
 6849TIP3    H220491   2.312   0.291   0.264 -0.8211 -1.3345 -1.0451
 6850TIP3   OH220492   7.753   7.786   1.297  0.7397  0.2196  0.8456
 6850TIP3    H120493   7.843   7.756   1.304  0.1471 -2.0831 -0.4015
 6850TIP3    H220494   7.751   7.837   1.215  0.9468  0.5322  1.0315
 6851TIP3   OH220495   3.505   3.136   0.211  0.1797  0.3068  0.4327
 6851TIP3    H120496   3.595   3.105   0.221  0.0791  0.6994  3.3821
 6851TIP3    H220497   3.514   3.231   0.198  0.2280  0.5896  2.2235
 6852TIP3   OH220498   2.892   1.659   1.881 -0.0179 -0.4756 -0.1278
 6852TIP3    H120499   2.915   1.740   1.926  1.9678 -0.5548 -0.9158
 6852TIP3    H220500   2.944   1.592   1.925 -0.1539 -1.0003 -0.7556
 6853TIP3   OH220501   2.933   2.557   4.189 -0.7004  0.0441  0.0421
 6853TIP3    H120502   2.860   2.608   4.154 -1.0834  0.5734  1.5480
 6853TIP3    H220503   2.937   2.580   4.282  0.5944 -0.9276  0.2647
 6854TIP3   OH220504   1.036   5.067   1.157  0.5165 -0.1421  0.4522
 6854TIP3    H120505   1.125   5.056   1.125 -0.0404 -1.1251 -0.8360
 6854TIP3    H220506   1.031   5.012   1.235  1.8642  2.2156  2.3353
 6855TIP3   OH220507   2.233   2.222   1.098  0.1555 -0.3142 -0.3973
 6855TIP3    H120508   2.178   2.287   1.141  0.7630 -0.3672  0.4980
 6855TIP3    H220509   2.182   2.141   1.101 -0.5235  0.0615 -1.3503
 6856TIP3   OH220510   6.006   0.075   2.154  0.1115 -0.0240  0.2610
 6856TIP3    H120511   5.965  -0.001   2.113  1.1938 -0.8566  0.6509
 6856TIP3    H220512   5.949   0.148   2.133 -0.1935 -0.6974 -1.3735
 6857TIP3   OH220513   7.368   4.611   0.526  0.2996 -0.0493  0.2308
 6857TIP3    H120514   7.399   4.562   0.603  1.1343 -0.9133 -0.6310
 6857TIP3    H220515   7.350   4.544   0.460  0.2737  0.7250 -0.5670
 6858TIP3   OH220516   3.118   7.689   0.243  0.2005  0.1265  0.4525
 6858TIP3    H120517   3.078   7.641   0.316  1.1181 -0.2072  0.7463
 6858TIP3    H220518   3.047   7.743   0.208 -0.7539 -1.1594  0.3596
 6859TIP3   OH220519   6.866   6.233   4.524 -0.0050  0.0262 -0.2634
 6859TIP3    H120520   6.810   6.297   4.481  0.7360 -0.3694 -1.8829
 6859TIP3    H220521   6.838   6.149   4.487 -0.0479 -0.4505  0.8209
 6860TIP3   OH220522   5.019   2.592   6.090 -0.1834 -0.0549  0.1442
 6860TIP3    H120523   5.088   2.560   6.032 -0.6594 -1.5595  0.3458
 6860TIP3    H220524   4.941   2.544   6.062 -0.9872  1.0458  0.4214
 6861TIP3   OH220525   1.928   0.952   4.191  0.0737  0.3933  0.5817
 6861TIP3    H120526   2.017   0.930   4.165  0.1803  0.7191  0.6740
 6861TIP3    H220527   1.872   0.895   4.137  0.2847  1.0889 -0.3925
 6862TIP3   OH220528   4.115   4.474   5.707 -0.1380 -0.2419 -0.3655
 6862TIP3    H120529   4.040   4.475   5.766  0.1104 -0.7827 -0.0349
 6862TIP3    H220530   4.162   4.555   5.727  0.6834 -1.0562  1.1538
 6863TIP3   OH220531   3.034   4.934   3.797  0.3754 -0.4414 -0.2662
 6863TIP3    H120532   2.978   4.861   3.773  0.9903 -0.7810 -0.7123
 6863TIP3    H220533   3.123   4.902   3.781  0.6085  0.8370 -1.7425
 6864TIP3   OH220534   4.895   6.558   4.688 -0.1237 -0.3947 -0.2820
 6864TIP3    H120535   4.851   6.611   4.755  0.7082  0.6602 -0.5499
 6864TIP3    H220536   4.839   6.481   4.678 -1.2205  0.3048  0.3050
 6865TIP3   OH220537   2.828   4.970   0.163  0.9544  1.1490 -0.1495
 6865TIP3    H120538   2.858   4.892   0.117  0.2567  1.3990 -1.0690
 6865TIP3    H220539   2.732   4.964   0.159  0.8952  1.8270  0.1471
 6866TIP3   OH220540   1.503   2.608   0.766  0.2509 -0.4862  0.0368
 6866TIP3    H120541   1.549   2.685   0.733  1.3032 -0.6511  1.0541
 6866TIP3    H220542   1.495   2.624   0.860  0.9474 -1.8340  0.3522
 6867TIP3   OH220543   5.629   6.606   4.068 -0.8807  0.3020  0.2236
 6867TIP3    H120544   5.717   6.642   4.063 -0.8785  0.6253  2.1399
 6867TIP3    H220545   5.612   6.573   3.979  0.5795  1.5414 -0.5631
 6868TIP3   OH220546   3.190   2.609   3.548  0.2398  0.2079 -0.9807
 6868TIP3    H120547   3.254   2.631   3.616  1.6365  0.9436 -2.4639
 6868TIP3    H220548   3.106   2.609   3.593  0.9497  2.0276  0.4732
 6869TIP3   OH220549   3.700   3.215   6.580  0.9943  0.1726  0.5449
 6869TIP3    H120550   3.674   3.210   6.672  1.5734  0.9047  0.7605
 6869TIP3    H220551   3.637   3.275   6.540  0.7564 -0.1283  0.4629
 6870TIP3   OH220552   1.314   0.236   5.934  0.4829  0.1288 -0.1127
 6870TIP3    H120553   1.355   0.192   5.859 -0.5203 -1.9503  0.4807
 6870TIP3    H220554   1.260   0.168   5.975 -0.1416  1.6077  1.6506
 6871TIP3   OH220555   5.501   2.282   1.739  0.6145  0.0693  0.3090
 6871TIP3    H120556   5.552   2.316   1.666 -0.2096  0.6947 -0.0037
 6871TIP3    H220557   5.439   2.220   1.699 -0.3466  0.9724  0.3305
 6872TIP3   OH220558   1.338   6.068   6.578  0.0678  0.2067 -0.1226
 6872TIP3    H120559   1.246   6.084   6.557  0.8928  2.7354 -2.3807
 6872TIP3    H220560   1.380   6.051   6.493  2.1146  1.9402  0.4337
 6873TIP3   OH220561   1.790   1.782   2.448 -0.6834 -0.3811 -0.1910
 6873TIP3    H120562   1.867   1.833   2.472 -0.8938 -0.8506  1.7146
 6873TIP3    H220563   1.824   1.708   2.398 -0.0386  0.0417 -0.3868
 6874TIP3   OH220564   3.487   2.264   2.716 -0.3035 -0.3032  0.2657
 6874TIP3    H120565   3.512   2.216   2.794 -1.1464 -0.2473  0.5743
 6874TIP3    H220566   3.407   2.221   2.685  0.3101 -0.6737 -0.8812
 6875TIP3   OH220567   1.100   3.411   6.707 -0.0021  0.3099 -0.3833
 6875TIP3    H120568   1.027   3.420   6.646  0.3239 -2.9757 -1.4642
 6875TIP3    H220569   1.150   3.336   6.674  1.6839  0.0212  2.4590
 6876TIP3   OH220570   0.022   3.918   2.299 -0.5672 -0.4231  0.4192
 6876TIP3    H120571   0.089   3.850   2.290  0.2913  0.3973  0.5279
 6876TIP3    H220572   0.050   3.969   2.375 -0.8586  0.4387 -0.0445
 6877TIP3   OH220573   2.506   2.829   5.771  0.4196 -0.1962 -0.3281
 6877TIP3    H120574   2.515   2.810   5.678 -1.1501 -1.7167 -0.2107
 6877TIP3    H220575   2.497   2.925   5.775  1.3621 -0.0194 -1.6184
 6878TIP3   OH220576   3.438   0.816   0.371 -0.0562 -0.4572  0.3468
 6878TIP3    H120577   3.508   0.825   0.436  0.3714 -0.2826 -0.1339
 6878TIP3    H220578   3.454   0.887   0.309 -1.8622  0.9227  1.3348
 6879TIP3   OH220579   5.304   3.445   0.116 -0.1845 -0.5186 -0.0383
 6879TIP3    H120580   5.214   3.462   0.086 -1.2603 -2.7463  1.6201
 6879TIP3    H220581   5.316   3.351   0.103  1.7475 -0.3490  0.2472
 6880TIP3   OH220582   2.629   4.338   3.443  0.4073  0.2045 -0.0587
 6880TIP3    H120583   2.668   4.251   3.452  0.7466  0.5346  2.5337
 6880TIP3    H220584   2.703   4.397   3.441  0.1358  0.5381 -0.4605
 6881TIP3   OH220585   4.725   0.636   3.317  0.1044 -0.3037 -0.1459
 6881TIP3    H120586   4.658   0.684   3.269 -0.1237 -1.4552 -1.0449
 6881TIP3    H220587   4.805   0.687   3.306 -0.5196  0.8482  0.5538
 6882TIP3   OH220588   3.708   6.676   2.868  0.1887  0.2620 -0.3018
 6882TIP3    H120589   3.719   6.758   2.820  1.8421 -0.2690 -0.8947
 6882TIP3    H220590   3.613   6.667   2.879 -0.1238  1.3649 -1.7858
 6883TIP3   OH220591   2.583   4.648   4.618  0.1834 -0.8430  0.0604
 6883TIP3    H120592   2.612   4.671   4.706  1.0115 -4.4225  0.8793
 6883TIP3    H220593   2.657   4.601   4.580 -0.9104 -1.1808 -1.7736
 6884TIP3   OH220594   6.025   5.616   1.569 -0.6476  0.9188 -0.2929
 6884TIP3    H120595   6.108   5.603   1.614 -1.2996  1.2345  1.0446
 6884TIP3    H220596   5.968   5.547   1.602 -1.0118  0.8881 -0.9656
 6885TIP3   OH220597   0.108   6.468   3.688  0.2062  0.6777 -0.2784
 6885TIP3    H120598   0.097   6.558   3.656 -0.7796  0.1587 -1.5134
 6885TIP3    H220599   0.174   6.430   3.630  2.4949  1.2768  1.7891
 6886TIP3   OH220600   4.710   2.302   0.169 -0.2789  0.0596  0.2799
 6886TIP3    H120601   4.794   2.346   0.157 -0.2516  0.1533  0.8006
 6886TIP3    H220602   4.684   2.323   0.259 -1.0288  0.3204  0.0111
 6887TIP3   OH220603   7.513   5.571   2.295  0.3743 -0.6682 -0.4117
 6887TIP3    H120604   7.543   5.496   2.346  0.2510 -2.0074 -2.2314
 6887TIP3    H220605   7.590   5.627   2.286  0.2868 -0.1315  1.5991
 6888TIP3   OH220606   7.121   0.484   2.049  0.0259  0.2648  0.3560
 6888TIP3    H120607   7.199   0.432   2.068  1.1661  2.2497  1.4796
 6888TIP3    H220608   7.137   0.521   1.962 -0.5142 -0.7351 -0.1852
 6889TIP3   OH220609   0.074   3.056   6.393 -0.0038 -1.1761 -0.4939
 6889TIP3    H120610   0.160   3.090   6.418  0.9667 -1.7524 -2.8390
 6889TIP3    H220611   0.021   3.065   6.473  1.8845  0.2303  0.6894
 6890TIP3   OH220612   8.025   0.306   1.685  0.0468 -0.3982  0.1634
 6890TIP3    H120613   8.056   0.263   1.605  0.2500 -2.8860  1.4825
 6890TIP3    H220614   8.087   0.377   1.700 -0.6411  0.8747 -2.4452
 6891TIP3   OH220615   8.145   2.309   0.537  0.6743  0.0336  0.7012
 6891TIP3    H120616   8.184   2.376   0.481  2.6176 -1.9677 -0.5097
 6891TIP3    H220617   8.080   2.267   0.482 -0.2100  0.5794  1.3057
 6892TIP3   OH220618   0.621   3.859   3.958 -0.0486 -0.6015  0.4931
 6892TIP3    H120619   0.585   3.821   4.038 -1.3095  1.1799  0.8158
 6892TIP3    H220620   0.624   3.786   3.896 -0.4105 -1.6815  1.7031
 6893TIP3   OH220621   0.865   6.783   3.016 -0.3013 -0.0688  0.1091
 6893TIP3    H120622   0.771   6.767   3.004 -0.7740  2.2523  0.1080
 6893TIP3    H220623   0.878   6.780   3.111 -0.5265  0.2589  0.1522
 6894TIP3   OH220624   0.642   1.431   4.951 -0.6761 -0.0479 -0.1059
 6894TIP3    H120625   0.644   1.382   4.869 -1.1599  0.5763 -0.5000
 6894TIP3    H220626   0.729   1.470   4.959 -1.1963  1.4921 -1.3369
 6895TIP3   OH220627   1.766   7.591   5.555 -0.3893  0.4064 -0.0752
 6895TIP3    H120628   1.773   7.645   5.476  2.2000  1.0536  0.4919
 6895TIP3    H220629   1.852   7.549   5.563 -1.7076 -2.4151  0.5357
 6896TIP3   OH220630   6.558   7.755   6.709 -0.7942  0.4402  0.0949
 6896TIP3    H120631   6.512   7.830   6.671  1.2412  2.0356  0.5362
 6896TIP3    H220632   6.603   7.715   6.635  0.0345  1.1564  0.1941
 6897TIP3   OH220633   3.961   5.969   5.472 -0.6739  0.1749  0.0057
 6897TIP3    H120634   3.924   5.974   5.384  0.2037  0.7528 -0.3380
 6897TIP3    H220635   4.050   5.937   5.460 -0.5392  0.2622  0.6881
 6898TIP3   OH220636   1.333   4.547   6.702 -0.3071  0.2194 -0.5925
 6898TIP3    H120637   1.392   4.613   6.739 -0.4032 -0.9551  1.8169
 6898TIP3    H220638   1.341   4.560   6.607  3.0579  0.7774 -0.3758
 6899TIP3   OH220639   0.373   5.030   1.413 -0.8573  0.9565  0.1103
 6899TIP3    H120640   0.293   5.066   1.376  0.2105  2.1464 -1.2008
 6899TIP3    H220641   0.443   5.079   1.370  0.6744 -1.6941 -0.6640
 6900TIP3   OH220642   0.362   5.102   2.810 -0.2357  0.4271  0.0062
 6900TIP3    H120643   0.410   5.183   2.824 -0.9148  0.7532  0.4964
 6900TIP3    H220644   0.270   5.128   2.807 -0.5353 -0.4107  1.0734
 6901TIP3   OH220645   5.767   1.276   2.914  0.5771 -0.1628 -0.3862
 6901TIP3    H120646   5.690   1.295   2.967  0.2804  3.8375 -1.9252
 6901TIP3    H220647   5.737   1.213   2.849 -1.5812  1.5554 -1.1616
 6902TIP3   OH220648   7.173   3.343   2.457 -0.0448 -1.2966  0.4679
 6902TIP3    H120649   7.154   3.254   2.488 -0.5699 -1.5368 -0.5053
 6902TIP3    H220650   7.171   3.336   2.362 -0.5109 -0.1456  0.3787
 6903TIP3   OH220651   6.977   7.412   6.438  0.1546 -0.2888 -0.0479
 6903TIP3    H120652   7.002   7.374   6.522  0.0813 -0.5376 -0.1356
 6903TIP3    H220653   7.055   7.457   6.407  0.2587 -0.4088  0.0382
 6904TIP3   OH220654   6.192   6.487   4.126 -0.1728  0.1216  0.2111
 6904TIP3    H120655   6.186   6.582   4.116  0.8866  0.2194  0.3574
 6904TIP3    H220656   6.228   6.475   4.214 -0.9093 -0.4453  0.4442
 6905TIP3   OH220657   6.741   6.146   5.331  0.2990 -0.2896 -0.0181
 6905TIP3    H120658   6.795   6.153   5.252  0.6553 -0.9951  0.1508
 6905TIP3    H220659   6.788   6.195   5.398 -0.4960  1.1571 -0.4742
 6906TIP3   OH220660   0.875   5.203   0.324 -0.8424  0.0374 -0.2795
 6906TIP3    H120661   0.965   5.231   0.342 -0.4647 -1.3894  0.1400
 6906TIP3    H220662   0.883   5.112   0.298 -2.3040 -0.6308  1.4051
 6907TIP3   OH220663   4.018   5.372   2.036 -0.2553 -0.3504  0.0275
 6907TIP3    H120664   4.097   5.389   2.087  0.5464  0.4707 -1.4278
 6907TIP3    H220665   3.983   5.291   2.072  1.2836 -0.7562  0.6793
 6908TIP3   OH220666   5.308   1.503   0.378 -0.0659 -0.2330 -0.1784
 6908TIP3    H120667   5.325   1.535   0.467  0.8251 -0.6200 -0.1936
 6908TIP3    H220668   5.229   1.451   0.385  0.6006 -1.1676  0.6264
 6909TIP3   OH220669   4.199   7.394   2.460  0.2704  0.2183 -0.4271
 6909TIP3    H120670   4.200   7.309   2.417  2.6944  1.3475 -2.9033
 6909TIP3    H220671   4.111   7.427   2.446 -0.6427 -1.7146  0.3855
 6910TIP3   OH220672   0.826   4.511   3.933  0.6459  0.0725  0.5727
 6910TIP3    H120673   0.732   4.527   3.944 -0.0947 -3.4002  0.4901
 6910TIP3    H220674   0.841   4.516   3.839 -0.2960 -2.7552  0.2023
 6911TIP3   OH220675   5.173   5.167   5.565  0.0139  0.4123  0.4101
 6911TIP3    H120676   5.151   5.236   5.502  1.9404  0.4367 -0.2867
 6911TIP3    H220677   5.247   5.202   5.615  0.3225 -0.7278  0.7839
 6912TIP3   OH220678   7.610   6.120   3.409  1.1331  0.2211  0.2606
 6912TIP3    H120679   7.563   6.174   3.345  0.4371  1.1027  1.4623
 6912TIP3    H220680   7.689   6.170   3.428  0.5721  0.7709  1.2432
 6913TIP3   OH220681   1.088   5.929   2.533  0.0638 -0.0098 -0.2064
 6913TIP3    H120682   1.109   5.956   2.623  1.8481  0.7771 -0.8054
 6913TIP3    H220683   1.168   5.887   2.501  0.0019  1.0246 -1.8822
 6914TIP3   OH220684   3.003   7.053   3.711 -0.3585 -0.2700  0.0111
 6914TIP3    H120685   2.915   7.084   3.687 -0.5892 -1.4922 -0.7944
 6914TIP3    H220686   3.023   7.099   3.793 -1.4052  0.6377 -0.2174
 6915TIP3   OH220687   7.494   4.695   5.634  0.3251 -0.0891 -0.1188
 6915TIP3    H120688   7.497   4.632   5.561 -0.9977  0.2393 -0.4796
 6915TIP3    H220689   7.402   4.715   5.645  0.3954 -0.7684  2.2416
 6916TIP3   OH220690   7.173   5.574   3.144  0.2418 -0.3943  0.3076
 6916TIP3    H120691   7.129   5.497   3.109  0.0713  0.3808 -1.2788
 6916TIP3    H220692   7.101   5.635   3.166  0.3592 -0.7529  1.8048
 6917TIP3   OH220693   6.771   0.402   2.864 -0.1562  0.0339  0.2308
 6917TIP3    H120694   6.711   0.458   2.814 -0.1513 -0.2193 -0.0630
 6917TIP3    H220695   6.845   0.387   2.805  0.1721  0.3045  0.5769
 6918TIP3   OH220696   8.034   7.428   3.507 -0.0447  0.4500 -0.4359
 6918TIP3    H120697   7.971   7.357   3.510 -0.0584  0.4056 -1.4334
 6918TIP3    H220698   8.096   7.403   3.438  0.5693  0.8965 -0.0663
 6919TIP3   OH220699   7.905   5.811   5.323  0.1694  0.3184 -0.0932
 6919TIP3    H120700   7.897   5.835   5.415  0.7645 -1.0497  0.3395
 6919TIP3    H220701   7.831   5.855   5.281 -0.0418  1.0636  1.0056
 6920TIP3   OH220702   6.611   6.117   1.359 -0.0690  0.3591 -0.3619
 6920TIP3    H120703   6.549   6.111   1.286 -0.8226  1.3099  0.1692
 6920TIP3    H220704   6.627   6.026   1.385 -1.8388  0.1141 -0.0304
 6921TIP3   OH220705   8.106   6.800   0.526 -0.2008  0.3110  0.2940
 6921TIP3    H120706   8.053   6.819   0.448 -0.0215  0.7739  0.2798
 6921TIP3    H220707   8.042   6.784   0.595 -0.3791  1.6408  0.4637
 6922TIP3   OH220708   5.210   2.777   5.324  0.2069  0.0132  0.2552
 6922TIP3    H120709   5.122   2.779   5.360 -0.0254 -0.4625 -0.2649
 6922TIP3    H220710   5.252   2.855   5.359  0.5016 -1.1731  2.7710
 6923TIP3   OH220711   7.259   7.777   3.614 -0.0290 -0.7163 -0.0280
 6923TIP3    H120712   7.337   7.828   3.594  0.4282 -0.8872  1.2841
 6923TIP3    H220713   7.272   7.693   3.570 -0.4262 -0.0336 -1.5265
 6924TIP3   OH220714   7.415   5.123   0.734  0.3091  0.4938  0.2573
 6924TIP3    H120715   7.328   5.146   0.703  0.2816 -0.2862 -0.2921
 6924TIP3    H220716   7.452   5.204   0.768 -1.1310  0.5648  1.7512
 6925TIP3   OH220717   6.407   6.856   5.474 -0.6116  0.1667  0.2550
 6925TIP3    H120718   6.392   6.778   5.420  0.6154 -0.2367  0.4778
 6925TIP3    H220719   6.337   6.917   5.447 -1.3995 -0.8740 -0.1472
 6926TIP3   OH220720   6.888   0.905   4.706 -0.5035  0.3572 -0.1863
 6926TIP3    H120721   6.878   0.811   4.716 -0.3783 -0.0221 -2.9685
 6926TIP3    H220722   6.982   0.920   4.704 -0.5247  0.5082 -0.1439
 6927TIP3   OH220723   5.100   6.510   3.509  0.2311  0.5176 -0.3423
 6927TIP3    H120724   5.138   6.557   3.584  1.9484 -0.0912 -0.8156
 6927TIP3    H220725   5.066   6.580   3.453 -1.6312  0.9768  1.2247
 6928TIP3   OH220726   6.734   0.514   6.272 -0.8140  0.4267  0.2290
 6928TIP3    H120727   6.643   0.522   6.245 -0.9873 -0.4422  0.5210
 6928TIP3    H220728   6.781   0.493   6.191 -0.7924  1.3184 -0.0022
 6929TIP3   OH220729   5.647   1.143   3.242  0.1105  0.3368  0.0303
 6929TIP3    H120730   5.704   1.085   3.192  0.6991  0.6611  0.3246
 6929TIP3    H220731   5.689   1.151   3.328 -0.0205  1.1151  0.0266
 6930TIP3   OH220732   0.742   3.110   2.071  0.1119  0.2348 -0.0660
 6930TIP3    H120733   0.746   3.169   2.147 -1.1235 -0.4358  0.5426
 6930TIP3    H220734   0.650   3.085   2.065  0.5890 -1.5366 -0.3986
 6931TIP3   OH220735   1.081   5.514   0.476 -0.1051 -0.3075  0.2505
 6931TIP3    H120736   1.042   5.592   0.438 -0.9210 -0.2965  1.0925
 6931TIP3    H220737   1.131   5.475   0.404  0.1993  0.9025 -0.2110
 6932TIP3   OH220738   4.276   1.965   6.329  0.5837  0.0034 -0.1531
 6932TIP3    H120739   4.212   1.994   6.264  0.0889  0.0844  0.3686
 6932TIP3    H220740   4.228   1.962   6.412  0.8695 -1.3461 -0.0004
 6933TIP3   OH220741   1.578   2.467   0.130 -0.3664  0.0232  0.2625
 6933TIP3    H120742   1.512   2.470   0.200 -0.0223  1.3012  0.5731
 6933TIP3    H220743   1.540   2.411   0.063  0.3670 -3.5240  2.5150
 6934TIP3   OH220744   6.629   5.355   3.367  0.2793 -0.4776  0.3885
 6934TIP3    H120745   6.632   5.362   3.271  2.8748  0.7932  0.4696
 6934TIP3    H220746   6.720   5.341   3.392 -0.1462  0.6191  2.7659
 6935TIP3   OH220747   2.979  -0.008   4.516  0.0421  0.0669  0.3483
 6935TIP3    H120748   3.022   0.078   4.512  0.9070 -0.3237  0.8293
 6935TIP3    H220749   2.892   0.010   4.552 -0.1569  0.8642 -0.5085
 6936TIP3   OH220750   5.502   3.054   4.008  0.4690 -0.1995 -0.5914
 6936TIP3    H120751   5.565   3.099   4.065 -0.4035 -1.8740  1.8284
 6936TIP3    H220752   5.472   3.122   3.948  1.6419  1.6086  0.7555
 6937TIP3   OH220753   8.264   1.960   2.896  1.0251 -0.5630 -0.3482
 6937TIP3    H120754   8.299   1.977   2.808  2.5665 -2.1029 -0.0914
 6937TIP3    H220755   8.214   1.879   2.885  4.3300 -2.9933  0.7936
 6938TIP3   OH220756   2.087   5.028   3.451  0.1582 -0.2796 -0.1417
 6938TIP3    H120757   2.149   5.085   3.495 -0.7360  0.6080 -0.0128
 6938TIP3    H220758   2.123   5.017   3.363 -1.4833  3.6251 -1.5113
 6939TIP3   OH220759   2.104   0.557   4.836 -0.1576 -0.5853 -0.0079
 6939TIP3    H120760   2.084   0.463   4.836 -1.0330 -0.5465  3.5283
 6939TIP3    H220761   2.027   0.598   4.796  0.5510 -1.2929 -2.2934
 6940TIP3   OH220762   1.072   0.521   4.652  0.1268 -0.5578  0.1252
 6940TIP3    H120763   1.128   0.549   4.724  1.2443 -1.4425 -0.3645
 6940TIP3    H220764   1.073   0.425   4.656 -0.0264 -0.6164 -0.8951
 6941TIP3   OH220765   0.333   5.619   5.714 -0.0239 -0.2457  0.0003
 6941TIP3    H120766   0.325   5.525   5.729  1.8813 -0.2995  0.8202
 6941TIP3    H220767   0.364   5.627   5.623 -1.2418 -0.3350 -0.4421
 6942TIP3   OH220768   5.694   4.851   2.831  0.4612 -0.4670 -0.2738
 6942TIP3    H120769   5.705   4.862   2.736 -0.9496 -2.1245 -0.6767
 6942TIP3    H220770   5.680   4.757   2.843  0.2507 -0.2316  1.5425
 6943TIP3   OH220771   2.009   4.648   6.112 -0.4513  0.1491  0.0669
 6943TIP3    H120772   2.097   4.665   6.080  0.6467  0.9628  3.1017
 6943TIP3    H220773   1.965   4.733   6.107 -0.3407  0.2339  0.4939
 6944TIP3   OH220774   1.380   6.224   0.535 -0.0740  0.9301  0.0251
 6944TIP3    H120775   1.437   6.300   0.548 -0.0506  0.9346 -0.1023
 6944TIP3    H220776   1.352   6.200   0.623 -0.7618  1.5989 -0.0051
 6945TIP3   OH220777   5.518   0.087   4.587  0.5042 -0.1832  0.2504
 6945TIP3    H120778   5.581   0.131   4.643  0.1075 -1.2035  1.5423
 6945TIP3    H220779   5.442   0.145   4.586  0.8594  0.2886 -0.0292
 6946TIP3   OH220780   3.315   2.406   5.329 -0.1268  0.2587 -0.0880
 6946TIP3    H120781   3.389   2.408   5.269 -0.7236 -1.0848 -0.9104
 6946TIP3    H220782   3.252   2.467   5.290 -0.0885  0.1956 -0.2494
 6947TIP3   OH220783   0.331   5.348   2.065 -0.3551 -0.2246  0.2403
 6947TIP3    H120784   0.287   5.310   2.141  0.0551 -1.7034 -0.2308
 6947TIP3    H220785   0.421   5.362   2.095 -0.1898 -0.8206  0.0414
 6948TIP3   OH220786   0.379   2.247   1.387 -0.3396  0.5724  0.8485
 6948TIP3    H120787   0.397   2.339   1.369  1.1831  0.4763  1.7240
 6948TIP3    H220788   0.296   2.248   1.434 -0.7846  1.4110  0.0718
 6949TIP3   OH220789   7.290   3.085   1.336 -0.1789 -0.2990  0.1176
 6949TIP3    H120790   7.363   3.146   1.349  1.4703 -1.5429 -2.3528
 6949TIP3    H220791   7.331   2.999   1.334 -2.1694 -1.3503  1.4913
 6950TIP3   OH220792   3.793   0.144   3.156 -1.0642  0.4291  0.0712
 6950TIP3    H120793   3.804   0.222   3.212  1.6707 -0.1591  0.4996
 6950TIP3    H220794   3.813   0.175   3.068  0.0580  0.2587  0.2463
 6951TIP3   OH220795   7.072   2.871   0.676 -0.1981 -0.4206  0.1174
 6951TIP3    H120796   7.013   2.893   0.748  0.5112 -2.2254  1.3283
 6951TIP3    H220797   7.152   2.921   0.695 -0.6729  0.6209 -0.5322
 6952TIP3   OH220798   5.314   6.175   6.271 -0.1315 -0.0180 -0.1543
 6952TIP3    H120799   5.225   6.156   6.302 -0.8069  1.0466 -1.3785
 6952TIP3    H220800   5.303   6.199   6.179  1.5323 -0.6401 -0.5463
 6953TIP3   OH220801   4.955   6.686   0.563  0.1770 -0.5625  0.1268
 6953TIP3    H120802   4.948   6.724   0.651  2.7336 -0.4792  0.3677
 6953TIP3    H220803   4.901   6.742   0.508  0.6566  1.0333  1.2011
 6954TIP3   OH220804   5.741   2.334   4.673 -0.2250 -0.3032 -0.2637
 6954TIP3    H120805   5.649   2.307   4.668 -0.3326  0.1564 -0.9378
 6954TIP3    H220806   5.746   2.410   4.615  0.2712  0.5538  0.8495
 6955TIP3   OH220807   0.458   0.362   4.155 -0.6959 -0.7866  0.0494
 6955TIP3    H120808   0.463   0.368   4.060  0.2665 -2.7626 -0.0622
 6955TIP3    H220809   0.541   0.323   4.181 -0.5909  0.4889  1.8070
 6956TIP3   OH220810   1.248   6.409   4.117  0.3099 -0.1584 -0.2901
 6956TIP3    H120811   1.189   6.460   4.060  0.6164  0.7636  0.1995
 6956TIP3    H220812   1.318   6.470   4.139 -0.1653 -0.2759  1.6580
 6957TIP3   OH220813   5.170   7.400   3.968 -0.2445 -0.4974 -0.3460
 6957TIP3    H120814   5.231   7.380   4.038 -0.3310 -0.2170 -0.1898
 6957TIP3    H220815   5.191   7.490   3.942 -1.5886  0.1696  0.7508
 6958TIP3   OH220816   3.692   3.663   4.031 -0.1452  0.7220  0.0064
 6958TIP3    H120817   3.730   3.577   4.049 -2.3960 -0.0013  1.7760
 6958TIP3    H220818   3.719   3.718   4.104  0.3494  1.2126 -0.5346
 6959TIP3   OH220819   4.647   0.566   4.204 -0.1919 -0.3158  0.5187
 6959TIP3    H120820   4.660   0.643   4.149 -0.3332  0.5077  1.5960
 6959TIP3    H220821   4.611   0.500   4.146 -1.3841  0.8800 -0.1395
 6960TIP3   OH220822   3.945   2.407   1.519  0.2975  0.1080  0.1130
 6960TIP3    H120823   3.871   2.465   1.505  0.0038  0.8878  3.9592
 6960TIP3    H220824   4.022   2.460   1.495 -0.1542  0.8685  0.3233
 6961TIP3   OH220825   6.349   5.801   0.387  0.4708  0.5187 -0.3563
 6961TIP3    H120826   6.302   5.875   0.348  0.1873  0.7238  0.3578
 6961TIP3    H220827   6.286   5.729   0.385  1.1573 -0.0896 -2.2107
 6962TIP3   OH220828   7.440   1.666   3.280  0.3098 -0.1530  0.2214
 6962TIP3    H120829   7.389   1.669   3.360 -0.7220  5.0680 -0.2518
 6962TIP3    H220830   7.375   1.666   3.210  1.0727  0.1849 -0.5084
 6963TIP3   OH220831   6.627   7.459   5.020  0.4502  0.0196  0.0483
 6963TIP3    H120832   6.560   7.509   5.065  0.8820  0.2371  0.4633
 6963TIP3    H220833   6.693   7.524   4.995 -0.1804  0.0302 -1.6630
 6964TIP3   OH220834   3.165   2.673   4.069 -0.0292  0.8379 -0.2466
 6964TIP3    H120835   3.180   2.765   4.045 -0.4862  0.7909 -0.7265
 6964TIP3    H220836   3.076   2.672   4.103 -0.1220  0.5272 -0.4949
 6965TIP3   OH220837   3.927   7.485   6.578  0.4243  0.8281 -0.0785
 6965TIP3    H120838   3.910   7.401   6.622 -0.3268  0.6343 -0.7222
 6965TIP3    H220839   3.913   7.551   6.646  1.9763  0.4075  0.7108
 6966TIP3   OH220840   8.274   7.562   0.275 -0.0409  0.1379  0.2511
 6966TIP3    H120841   8.346   7.542   0.216 -0.8622 -0.6512 -0.5131
 6966TIP3    H220842   8.267   7.657   0.273  0.2891  0.1488 -0.4933
 6967TIP3   OH220843   0.469   2.207   1.019 -0.1063  0.3943 -0.1725
 6967TIP3    H120844   0.522   2.153   0.961 -0.1069  0.7318 -0.4972
 6967TIP3    H220845   0.533   2.256   1.071 -0.1021 -1.0616  1.2310
 6968TIP3   OH220846   2.382   2.561   0.369 -0.4191 -0.0724  0.0860
 6968TIP3    H120847   2.402   2.655   0.367 -0.0650 -0.1395  0.3652
 6968TIP3    H220848   2.287   2.557   0.373 -0.4895  0.2595 -1.0317
 6969TIP3   OH220849   2.220   2.210   2.294  0.2422 -0.6092  0.0272
 6969TIP3    H120850   2.251   2.126   2.260  0.4729 -1.4136  2.0909
 6969TIP3    H220851   2.294   2.243   2.345  0.7704  1.6963 -2.0341
 6970TIP3   OH220852   2.729   0.541   1.382  0.2685 -0.2377 -0.2606
 6970TIP3    H120853   2.657   0.590   1.422  0.7462  0.1358  0.1612
 6970TIP3    H220854   2.689   0.495   1.308  0.0754  1.9980 -1.6399
 6971TIP3   OH220855   4.924   3.500   4.462 -0.3896 -0.0021  0.7645
 6971TIP3    H120856   4.845   3.446   4.470  0.0975 -0.8229  0.1796
 6971TIP3    H220857   4.995   3.437   4.450  0.0516  0.7566 -1.0470
 6972TIP3   OH220858   6.545   4.231   0.054  0.8228 -0.5683 -0.3775
 6972TIP3    H120859   6.560   4.177  -0.023  0.6073  2.3878 -2.6577
 6972TIP3    H220860   6.615   4.206   0.115  0.7362 -3.2871 -1.2654
 6973TIP3   OH220861   7.515   6.098   2.783 -0.1364  0.2035 -0.0049
 6973TIP3    H120862   7.583   6.054   2.733  0.4092  0.4961  0.4718
 6973TIP3    H220863   7.434   6.080   2.735  0.5435  1.6253 -1.7868
 6974TIP3   OH220864   0.011   6.779   4.721 -0.8312  0.0127 -0.2412
 6974TIP3    H120865   0.071   6.704   4.721 -1.1691 -0.3259 -2.6583
 6974TIP3    H220866  -0.015   6.789   4.813  3.1068  0.3746  1.0283
 6975TIP3   OH220867   2.008   0.625   2.096 -0.3784 -0.0273  0.4745
 6975TIP3    H120868   2.097   0.590   2.091 -0.1544  0.3955  1.3220
 6975TIP3    H220869   2.000   0.658   2.186 -0.6133  1.9812 -0.2334
 6976TIP3   OH220870   0.982   6.794   4.511 -0.4929  0.0930 -0.0639
 6976TIP3    H120871   0.958   6.788   4.419 -1.7124 -0.7753  0.2858
 6976TIP3    H220872   0.900   6.779   4.558  0.2699 -0.3094  1.1661
 6977TIP3   OH220873   5.524   6.978   2.552  0.2516 -0.6378  0.4609
 6977TIP3    H120874   5.604   6.934   2.525  0.2157 -1.3216  1.4258
 6977TIP3    H220875   5.506   7.041   2.482  1.9280 -0.0838  0.4803
 6978TIP3   OH220876   1.931   2.761   3.345 -0.0494  0.3090  0.4912
 6978TIP3    H120877   2.014   2.803   3.368  0.0652 -0.1177  0.8711
 6978TIP3    H220878   1.918   2.782   3.253  0.8411 -0.2363  0.2362
 6979TIP3   OH220879   5.268   0.510   2.102  0.4925 -0.6096  0.2921
 6979TIP3    H120880   5.226   0.487   2.185  0.1009 -2.0897 -0.2883
 6979TIP3    H220881   5.196   0.540   2.046  0.5764 -0.7875  0.0870
 6980TIP3   OH220882   6.143   1.088   4.757 -0.6253  0.0597 -0.4871
 6980TIP3    H120883   6.076   1.142   4.798 -0.2720 -0.7399  1.2436
 6980TIP3    H220884   6.151   1.011   4.814  0.3424 -0.8241 -1.7463
 6981TIP3   OH220885   2.724   0.593   2.623  0.4246  0.8350  0.1893
 6981TIP3    H120886   2.638   0.552   2.631  0.5814  0.5751  0.5407
 6981TIP3    H220887   2.758   0.560   2.540 -0.6152  2.4487 -0.9302
 6982TIP3   OH220888   3.786   5.371   6.595 -0.4487  0.8680  0.5127
 6982TIP3    H120889   3.706   5.423   6.594 -0.4977  0.7834 -0.5876
 6982TIP3    H220890   3.777   5.315   6.673 -1.6608  0.5412  0.1562
 6983TIP3   OH220891   3.030   1.892   0.018  0.0858  0.3219  0.0414
 6983TIP3    H120892   2.942   1.853   0.013 -0.5144  1.7546 -1.2294
 6983TIP3    H220893   3.020   1.980  -0.019  2.0729  0.5242 -0.1293
 6984TIP3   OH220894   4.637   6.951   3.013  0.4001  0.6088 -0.7779
 6984TIP3    H120895   4.721   6.913   2.988 -0.7888 -1.4803 -1.8421
 6984TIP3    H220896   4.628   6.929   3.106  0.6051 -0.0012 -0.8999
 6985TIP3   OH220897   2.873   5.120   0.584 -0.0270  0.3274 -0.0724
 6985TIP3    H120898   2.789   5.164   0.572  0.8099  1.8297 -0.6474
 6985TIP3    H220899   2.908   5.110   0.495  0.1739 -0.7939  0.1139
 6986TIP3   OH220900   7.525   0.095   2.763  0.3641 -0.4771  0.1394
 6986TIP3    H120901   7.597   0.157   2.777  1.2137 -1.0564 -1.4791
 6986TIP3    H220902   7.475   0.132   2.691 -1.1568  0.0333  1.3923
 6987TIP3   OH220903   5.311   6.775   1.361 -0.5709 -0.0225 -0.2447
 6987TIP3    H120904   5.329   6.703   1.421  2.4484  2.3178  1.9447
 6987TIP3    H220905   5.232   6.816   1.396 -0.5532 -0.4600  0.3149
 6988TIP3   OH220906   4.035   2.397   4.421  0.3513  0.3111  0.0206
 6988TIP3    H120907   4.061   2.393   4.329  0.1898  1.2624 -0.0799
 6988TIP3    H220908   4.117   2.414   4.467  0.1529  1.9104 -0.1630
 6989TIP3   OH220909   2.443   0.926   5.034  0.3517 -0.1525  0.2664
 6989TIP3    H120910   2.395   0.985   4.975  0.6745 -0.1037  0.0514
 6989TIP3    H220911   2.392   0.927   5.115  0.6172  0.8074  0.4385
 6990TIP3   OH220912   1.307   0.827   5.286  0.1354 -0.3179  0.6681
 6990TIP3    H120913   1.224   0.780   5.278 -0.1406  0.2160  0.3128
 6990TIP3    H220914   1.361   0.793   5.215 -0.4271  0.6134 -0.2298
 6991TIP3   OH220915   7.085   2.757   2.713  0.5556 -0.2511  0.5226
 6991TIP3    H120916   7.120   2.675   2.748  1.0486 -0.3022 -0.0804
 6991TIP3    H220917   7.149   2.785   2.647 -1.0054 -0.9115 -1.3828
 6992TIP3   OH220918   6.746   0.301   4.346  0.0061  0.6338  0.2215
 6992TIP3    H120919   6.728   0.347   4.263 -2.8120 -0.2433  0.2515
 6992TIP3    H220920   6.810   0.357   4.390 -0.7277  2.7469 -1.2131
 6993TIP3   OH220921   6.401   1.106   3.381 -0.3297  0.0350 -0.8485
 6993TIP3    H120922   6.331   1.165   3.410 -0.6871  0.2463 -2.0785
 6993TIP3    H220923   6.482   1.152   3.402 -0.5083 -0.4935  1.1868
 6994TIP3   OH220924   2.733   1.705   4.093  0.3463 -0.0899  0.0409
 6994TIP3    H120925   2.716   1.797   4.073 -0.5705 -0.3525 -0.4156
 6994TIP3    H220926   2.829   1.697   4.088  0.6413  1.2875  2.1109
 6995TIP3   OH220927   6.412   1.602   2.106 -0.5307 -0.2663  0.2239
 6995TIP3    H120928   6.435   1.517   2.145 -0.1938 -1.2837 -1.9922
 6995TIP3    H220929   6.496   1.646   2.093 -0.5578 -0.2878 -0.0423
 6996TIP3   OH220930   1.052   5.810   2.793 -0.4500 -0.2264 -0.0381
 6996TIP3    H120931   1.000   5.848   2.865 -0.3823 -0.9074  0.3834
 6996TIP3    H220932   1.000   5.736   2.763 -1.1263  0.8563 -1.6240
 6997TIP3   OH220933   7.437   2.292   0.800 -0.0973  0.2130  0.2433
 6997TIP3    H120934   7.480   2.282   0.715 -0.3797  0.4556  0.0700
 6997TIP3    H220935   7.442   2.386   0.818  0.8727  0.0295  0.9777
 6998TIP3   OH220936   4.940   1.351   3.486 -0.8145 -0.1560  0.3097
 6998TIP3    H120937   5.024   1.311   3.509 -1.7954 -2.1055  0.7665
 6998TIP3    H220938   4.908   1.389   3.568 -1.0371 -0.7367  0.4981
 6999TIP3   OH220939   5.911   1.987   1.915 -0.7423 -0.2471  0.0905
 6999TIP3    H120940   5.818   1.965   1.913 -0.8013 -0.3361  2.0072
 6999TIP3    H220941   5.956   1.905   1.896 -1.0443 -0.1232 -1.2117
 7000TIP3   OH220942   1.869   4.430   4.926  0.8324 -0.4251 -0.1886
 7000TIP3    H120943   1.826   4.460   4.846 -1.0516 -0.7509  0.6306
 7000TIP3    H220944   1.836   4.341   4.939  2.1483 -0.8675  0.2538
 7001TIP3   OH220945   5.023   0.529   6.510  0.2214 -0.0354  0.2126
 7001TIP3    H120946   5.104   0.495   6.549  0.4231 -0.6994 -0.7464
 7001TIP3    H220947   4.969   0.554   6.585  1.8162  1.7023  0.8924
 7002TIP3   OH220948   8.151   6.994   3.487  0.9114  0.1562  0.1288
 7002TIP3    H120949   8.128   7.046   3.410 -0.8268  0.5116  0.8249
 7002TIP3    H220950   8.074   6.938   3.501  0.3320  1.4128  2.6493
 7003TIP3   OH220951   2.923   0.751   2.029  0.4314 -0.0368  0.0063
 7003TIP3    H120952   2.927   0.746   1.933 -0.9502 -0.0022 -0.0723
 7003TIP3    H220953   3.014   0.747   2.057  0.9102  0.7594 -1.3519
 7004TIP3   OH220954   2.140   4.686   0.537  0.2398  0.4506  0.2735
 7004TIP3    H120955   2.159   4.633   0.614  1.4010 -1.0425 -0.9841
 7004TIP3    H220956   2.211   4.750   0.534 -0.3301  1.1406  0.9381
 7005TIP3   OH220957   1.657   3.707   4.441 -0.2695  0.1800 -0.9402
 7005TIP3    H120958   1.664   3.618   4.475 -0.9821  0.9482  1.4857
 7005TIP3    H220959   1.748   3.732   4.421  0.3348 -0.1993  1.0301
 7006TIP3   OH220960   3.174   5.002   6.174  0.1421  0.2523  0.0512
 7006TIP3    H120961   3.081   5.015   6.188  0.1091 -0.7324  0.8561
 7006TIP3    H220962   3.181   4.979   6.081 -0.4096  0.3348 -0.0135
 7007TIP3   OH220963   1.801   0.172   4.908  0.6589  0.8131  0.1489
 7007TIP3    H120964   1.831   0.236   4.844 -1.9724 -0.8149 -3.0588
 7007TIP3    H220965   1.716   0.205   4.937 -1.6929 -1.7250 -3.0018
 7008TIP3   OH220966   7.632   5.178   6.138 -0.2245 -0.5692 -0.4058
 7008TIP3    H120967   7.679   5.242   6.084 -1.9323  1.1825  0.0597
 7008TIP3    H220968   7.700   5.139   6.193  0.8585  1.2128 -0.3882
 7009TIP3   OH220969   4.243   1.953   5.655 -0.3636  0.4592  0.0463
 7009TIP3    H120970   4.291   2.032   5.631  0.2667 -0.1934 -0.8844
 7009TIP3    H220971   4.251   1.948   5.751  0.2483  1.1002  0.0360
 7010TIP3   OH220972   3.294   1.164   3.716 -0.5489 -0.0151  0.1896
 7010TIP3    H120973   3.297   1.146   3.810 -1.0305 -1.9475 -0.1066
 7010TIP3    H220974   3.206   1.196   3.700 -1.0896 -1.4564  0.1607
 7011TIP3   OH220975   5.105   3.302   2.273  0.0753 -0.1049 -0.5138
 7011TIP3    H120976   5.107   3.242   2.199 -1.9693  0.4558 -1.0929
 7011TIP3    H220977   5.090   3.388   2.233  0.0068  0.3675  0.5013
 7012TIP3   OH220978   6.185   4.871   4.675  0.0847  0.4401  0.0099
 7012TIP3    H120979   6.233   4.930   4.734 -0.9531  0.1031  1.2438
 7012TIP3    H220980   6.107   4.920   4.650 -0.1314  0.0842 -0.0257
 7013TIP3   OH220981   5.632   3.976   2.387 -0.3833  0.4743  0.2456
 7013TIP3    H120982   5.558   3.943   2.335 -0.0827  0.4602 -0.1789
 7013TIP3    H220983   5.616   4.070   2.394 -1.2701  0.2521  1.5043
 7014TIP3   OH220984   7.100   5.826   1.333 -0.2412  0.2375 -0.4971
 7014TIP3    H120985   7.112   5.808   1.426 -0.3929  1.3785 -0.2381
 7014TIP3    H220986   7.113   5.921   1.325 -0.5832  0.2095 -1.5811
 7015TIP3   OH220987   5.510   2.623   5.920 -0.0838 -0.5471  0.0188
 7015TIP3    H120988   5.566   2.637   5.843  0.7419 -2.4863  0.2068
 7015TIP3    H220989   5.463   2.542   5.901 -1.9833  0.4156  0.3933
 7016TIP3   OH220990   0.863   7.156   0.289  0.0547 -0.4455  0.3268
 7016TIP3    H120991   0.869   7.095   0.216  1.0669  0.6867 -0.5761
 7016TIP3    H220992   0.953   7.162   0.323  0.5094  2.2052 -1.0649
 7017TIP3   OH220993   1.125   0.247   1.972 -0.3369  0.1830  0.0226
 7017TIP3    H120994   1.128   0.333   2.014 -0.5869  0.7298 -1.0406
 7017TIP3    H220995   1.152   0.264   1.882 -2.5943 -0.4330 -0.8394
 7018TIP3   OH220996   5.790   0.480   1.163  0.1352 -0.2245  0.0580
 7018TIP3    H120997   5.834   0.483   1.078 -0.6011 -0.7380 -0.3452
 7018TIP3    H220998   5.777   0.387   1.180  0.2638 -0.1208  0.7304
 7019TIP3   OH220999   0.804   6.639   1.050  0.3111  0.0659 -0.0433
 7019TIP3    H121000   0.709   6.630   1.044 -0.0308  1.8601  1.6084
 7019TIP3    H221001   0.817   6.721   1.097  2.7024 -0.0945 -0.3084
 7020TIP3   OH221002   7.319   7.011   6.583  0.5024 -0.6098 -0.2181
 7020TIP3    H121003   7.332   6.960   6.503  0.1114  0.6447 -1.1074
 7020TIP3    H221004   7.361   7.095   6.566 -3.2432  1.3652 -0.9045
 7021TIP3   OH221005   7.893   6.155   0.963  0.1705  0.0339 -0.0823
 7021TIP3    H121006   7.799   6.138   0.958  0.2938 -1.1887  1.1042
 7021TIP3    H221007   7.900   6.234   1.017 -0.2362  1.4218 -1.9812
 7022TIP3   OH221008   3.590   4.720   0.283  0.4605  0.1153  0.0102
 7022TIP3    H121009   3.634   4.653   0.230 -0.5825  0.6078 -1.5254
 7022TIP3    H221010   3.626   4.707   0.371  1.8927 -1.0348 -0.6948
 7023TIP3   OH221011   4.376   5.397   6.240  0.1249  0.6251 -0.6710
 7023TIP3    H121012   4.420   5.444   6.311 -0.3171  1.1619 -0.7419
 7023TIP3    H221013   4.445   5.345   6.199  0.4331  0.5178 -0.0139
 7024TIP3   OH221014   5.254   3.403   0.700 -0.7713  0.2581  0.1421
 7024TIP3    H121015   5.246   3.463   0.625 -0.9159  0.4946  0.3462
 7024TIP3    H221016   5.218   3.320   0.669 -1.5195  0.5628  0.1913
 7025TIP3   OH221017   7.221   2.682   6.570  0.3521  0.1216  0.7626
 7025TIP3    H121018   7.223   2.595   6.530  0.3423 -0.1758  1.3903
 7025TIP3    H221019   7.281   2.735   6.518 -0.3289 -0.0115 -0.1797
 7026TIP3   OH221020   5.455   1.802   2.852 -0.3995  0.1485  0.6703
 7026TIP3    H121021   5.530   1.785   2.909 -0.0472  0.3467  0.2694
 7026TIP3    H221022   5.449   1.898   2.848  0.0581  0.1550 -0.2318
 7027TIP3   OH221023   4.765   5.164   5.929 -0.2208  0.5196  0.0811
 7027TIP3    H121024   4.778   5.228   5.999  2.6917 -2.1537  2.2615
 7027TIP3    H221025   4.708   5.097   5.968  0.0096 -0.1761 -0.7464
 7028TIP3   OH221026   6.637   5.477   4.976 -0.1720  0.2733 -0.0554
 7028TIP3    H121027   6.683   5.559   4.959  0.6396  0.0458  0.9181
 7028TIP3    H221028   6.624   5.476   5.071  1.8266 -1.6904  0.3085
 7029TIP3   OH221029   5.582   2.042   5.552  0.3163  0.2847 -0.1365
 7029TIP3    H121030   5.612   1.975   5.491  0.3323  1.0525 -0.9873
 7029TIP3    H221031   5.532   1.993   5.618  0.5571 -0.5945 -0.5814
 7030TIP3   OH221032   1.485   3.935   1.908 -0.5353 -0.5269 -0.5961
 7030TIP3    H121033   1.474   4.029   1.901 -2.6059 -0.7552 -0.9407
 7030TIP3    H221034   1.399   3.898   1.888 -0.2628 -2.4146  1.2851
 7031TIP3   OH221035   8.216   6.813   5.927  0.5740 -0.0073 -0.2310
 7031TIP3    H121036   8.295   6.776   5.966  1.9585  2.1007 -0.8760
 7031TIP3    H221037   8.190   6.883   5.987 -0.6686 -0.4838 -0.1779
 7032TIP3   OH221038   7.057   1.245   1.621 -0.1570  0.0915 -0.5723
 7032TIP3    H121039   7.135   1.297   1.639 -0.4018  0.7117 -1.2699
 7032TIP3    H221040   6.987   1.292   1.667 -0.0560 -0.7301  0.4650
 7033TIP3   OH221041   4.941   2.073   4.025 -0.6943 -0.1834 -0.1897
 7033TIP3    H121042   4.849   2.081   4.000 -0.7025 -0.9960 -0.4496
 7033TIP3    H221043   4.978   2.160   4.008 -0.8590 -0.4800 -2.4327
 7034TIP3   OH221044   0.811   7.587   4.431 -0.2950 -0.2207 -0.0820
 7034TIP3    H121045   0.812   7.599   4.526  0.2280  0.2397 -0.1355
 7034TIP3    H221046   0.841   7.672   4.397 -0.1523 -0.4954 -0.6411
 7035TIP3   OH221047   0.231   1.603   6.745 -0.2466 -0.1798  0.1082
 7035TIP3    H121048   0.286   1.663   6.796 -2.7393  2.1484  0.2612
 7035TIP3    H221049   0.203   1.654   6.670 -0.1112 -2.1982 -1.4005
 7036TIP3   OH221050   5.727   5.585   0.751  0.6456  0.0007 -0.1102
 7036TIP3    H121051   5.804   5.572   0.806  1.8829 -1.0893 -1.9720
 7036TIP3    H221052   5.726   5.679   0.733 -0.9802  0.7915  3.2726
 7037TIP3   OH221053   0.461   3.008   2.073 -0.1034  0.5754 -0.7173
 7037TIP3    H121054   0.372   2.991   2.102  0.8546 -1.4510  1.3754
 7037TIP3    H221055   0.473   2.951   1.997 -0.6850  1.2389 -1.3333
 7038TIP3   OH221056   4.141   1.111   0.273  0.5118  0.0864  0.2625
 7038TIP3    H121057   4.090   1.187   0.302 -1.0445 -0.5314 -0.7343
 7038TIP3    H221058   4.223   1.149   0.239  1.2349  1.0236  2.7783
 7039TIP3   OH221059   3.183   6.601   2.768 -0.1009 -0.4003 -0.6954
 7039TIP3    H121060   3.117   6.579   2.702 -0.6152  2.8707 -1.4570
 7039TIP3    H221061   3.131   6.632   2.843  0.5421 -1.6527  0.3000
 7040TIP3   OH221062   7.026   6.451   5.425  0.3646  0.0320 -0.4792
 7040TIP3    H121063   6.986   6.400   5.354  1.2505  0.7189 -1.5051
 7040TIP3    H221064   6.976   6.427   5.503  0.0708 -1.5689 -1.1302
 7041TIP3   OH221065   2.519   6.897   1.184  0.2200 -0.0823  0.1162
 7041TIP3    H121066   2.426   6.882   1.165  0.1453  0.8326 -0.2817
 7041TIP3    H221067   2.561   6.813   1.163 -0.3990 -0.2441 -0.5188
 7042TIP3   OH221068   5.366   4.046   0.516 -0.4142  0.1151  0.1125
 7042TIP3    H121069   5.407   3.961   0.529 -1.9972 -0.6233  0.5154
 7042TIP3    H221070   5.436   4.110   0.533  0.9533 -1.0865 -0.7657
 7043TIP3   OH221071   2.921   6.161   0.290 -0.6179 -0.2047  0.5755
 7043TIP3    H121072   2.959   6.122   0.369 -0.7295 -0.8145  0.3324
 7043TIP3    H221073   2.827   6.160   0.305 -0.6529 -0.5290  0.3418
 7044TIP3   OH221074   1.498   6.818   4.768 -0.2289 -0.1431  0.6840
 7044TIP3    H121075   1.480   6.740   4.820 -0.7011  0.3654  1.3071
 7044TIP3    H221076   1.415   6.866   4.768 -0.4489 -0.4564 -1.1237
 7045TIP3   OH221077   7.214   5.576   5.588 -0.1871  0.0986 -0.1120
 7045TIP3    H121078   7.216   5.630   5.667  0.8053 -0.7855  0.4984
 7045TIP3    H221079   7.124   5.543   5.584 -0.3152  0.3512  0.5081
 7046TIP3   OH221080   0.597   1.246   5.651 -0.4198  0.0840 -0.0711
 7046TIP3    H121081   0.571   1.156   5.671  0.9307 -0.4910 -0.7963
 7046TIP3    H221082   0.637   1.241   5.564  1.1249  1.0961  0.5454
 7047TIP3   OH221083   5.206   3.565   0.483  0.8783 -0.5806 -0.3249
 7047TIP3    H121084   5.193   3.656   0.456  2.2057 -0.4347 -0.5615
 7047TIP3    H221085   5.280   3.534   0.429  0.8908 -1.5788  0.2365
 7048TIP3   OH221086   0.053   7.761   6.218  0.2171  0.7579  0.0803
 7048TIP3    H121087   0.148   7.766   6.204  0.2288  1.6252  0.4031
 7048TIP3    H221088   0.015   7.804   6.141  0.0814  0.2507 -0.1346
 7049TIP3   OH221089   5.481   7.618   2.831  0.1554  0.0018 -0.1318
 7049TIP3    H121090   5.498   7.707   2.800  0.2971 -0.3259 -1.0012
 7049TIP3    H221091   5.549   7.602   2.896 -0.3860  0.8365  0.6660
 7050TIP3   OH221092   7.403   4.500   5.863  0.0423  0.4056 -0.1979
 7050TIP3    H121093   7.415   4.460   5.950 -3.4484 -0.6772 -0.0684
 7050TIP3    H221094   7.434   4.433   5.802  0.0937  0.0819  0.1744
 7051TIP3   OH221095   1.689   0.936   3.484 -0.6186  1.1106  0.2625
 7051TIP3    H121096   1.636   1.005   3.443 -2.0117  1.5323  2.5574
 7051TIP3    H221097   1.681   0.861   3.425 -1.2113  2.1172 -0.9907
 7052TIP3   OH221098   0.292   1.417   2.626  0.0176 -0.2671  0.4233
 7052TIP3    H121099   0.274   1.336   2.675  0.8219  0.0585  1.2847
 7052TIP3    H221100   0.379   1.403   2.590  1.0690  1.0011  2.3011
 7053TIP3   OH221101   1.250   3.637   0.972  0.0332  0.0924 -0.5921
 7053TIP3    H121102   1.242   3.548   0.938 -0.7015 -0.3157  0.5702
 7053TIP3    H221103   1.201   3.635   1.055 -0.2059  1.6385 -0.6672
 7054TIP3   OH221104   7.874   7.707   2.632 -0.3785  0.0628 -0.1237
 7054TIP3    H121105   7.917   7.792   2.640  3.1298 -1.4145 -1.3123
 7054TIP3    H221106   7.875   7.689   2.538 -0.0281 -1.7374  0.1939
 7055TIP3   OH221107   7.176   4.992   2.263 -0.1823 -0.0283 -0.0143
 7055TIP3    H121108   7.125   4.920   2.300  0.5165 -0.8087 -0.5052
 7055TIP3    H221109   7.256   4.950   2.232  1.0812  1.2616  1.3601
 7056TIP3   OH221110   2.650   5.669   6.575  0.1976  0.1333 -0.2524
 7056TIP3    H121111   2.658   5.601   6.508 -1.5563 -0.0790 -0.2872
 7056TIP3    H221112   2.573   5.719   6.549  0.0748  0.6612  1.0767
 7057TIP3   OH221113   1.721   4.475   4.678  0.2118 -0.3103 -0.1563
 7057TIP3    H121114   1.761   4.458   4.592  1.4721 -0.2221  0.3972
 7057TIP3    H221115   1.650   4.537   4.658  1.6169  1.1380 -0.9423
 7058TIP3   OH221116   7.923   5.557   3.975 -0.0045  0.1684 -0.7079
 7058TIP3    H121117   7.878   5.629   4.020  0.9774  1.0147 -1.0423
 7058TIP3    H221118   7.928   5.487   4.040  0.3930  0.9612  0.1445
 7059TIP3   OH221119   0.769   5.878   5.813 -0.0794  0.1023  0.0925
 7059TIP3    H121120   0.796   5.852   5.725  1.5538  0.4666  0.4536
 7059TIP3    H221121   0.831   5.834   5.872  1.7848  3.3372  0.7989
 7060TIP3   OH221122   1.353   2.768   6.637 -0.8077  0.1263  0.2125
 7060TIP3    H121123   1.333   2.861   6.644 -1.8753  0.0841 -1.5987
 7060TIP3    H221124   1.274   2.730   6.599  0.2656 -1.2205 -0.7615
 7061TIP3   OH221125   5.702   2.010   0.671  0.3433 -0.3760  0.4104
 7061TIP3    H121126   5.685   1.919   0.695  0.0416 -0.2106  0.8396
 7061TIP3    H221127   5.784   2.007   0.621 -0.5484 -1.0843 -1.0656
 7062TIP3   OH221128   4.349   3.409   4.664 -0.4624 -0.6582  0.0659
 7062TIP3    H121129   4.421   3.467   4.640  0.3029 -1.0504  1.2921
 7062TIP3    H221130   4.297   3.400   4.585  0.0377  0.7892 -0.4558
 7063TIP3   OH221131   4.032   7.557   6.294  0.7135 -0.0758 -0.3383
 7063TIP3    H121132   4.013   7.626   6.231  1.5118 -0.3577 -0.9150
 7063TIP3    H221133   3.993   7.587   6.376 -2.0475 -0.5744 -1.3666
 7064TIP3   OH221134   0.651   1.828   3.356 -0.3488 -0.1157  0.9272
 7064TIP3    H121135   0.597   1.749   3.360  0.2398 -0.5052  1.2835
 7064TIP3    H221136   0.730   1.801   3.308 -0.8220  0.6673 -0.3283
 7065TIP3   OH221137   2.980   2.854   4.445  0.3664  0.0772 -1.1713
 7065TIP3    H121138   3.010   2.850   4.535 -0.3794 -0.7565 -0.9510
 7065TIP3    H221139   2.923   2.778   4.435  0.2065  0.3239 -2.2581
 7066TIP3   OH221140   1.425   4.182   5.237 -0.0151  0.3914  0.1958
 7066TIP3    H121141   1.397   4.100   5.278 -0.6367 -0.0601 -1.0751
 7066TIP3    H221142   1.344   4.224   5.209  0.2636  1.7380  1.3397
 7067TIP3   OH221143   0.055   4.795   4.811 -0.3574  0.4855  0.6075
 7067TIP3    H121144   0.088   4.707   4.827 -1.2992 -0.2408 -1.0830
 7067TIP3    H221145   0.111   4.829   4.741 -0.9261  0.6336  0.2159
 7068TIP3   OH221146   1.333   1.458   1.091 -0.2773  0.6492  0.0860
 7068TIP3    H121147   1.253   1.418   1.125  0.5053 -1.6793 -0.6278
 7068TIP3    H221148   1.303   1.537   1.045 -1.9807  0.5154  0.9068
 7069TIP3   OH221149   2.880   3.739   0.260  0.5148 -0.3513 -0.1461
 7069TIP3    H121150   2.960   3.723   0.210  0.8663  0.9171 -0.0398
 7069TIP3    H221151   2.884   3.833   0.281 -0.1997 -0.6093  1.2389
 7070TIP3   OH221152   1.614   4.928   1.387  0.3912 -0.1242 -0.2314
 7070TIP3    H121153   1.568   4.863   1.441 -0.4712  0.3715 -0.3568
 7070TIP3    H221154   1.661   4.876   1.322  0.9236 -0.7005  0.5886
 7071TIP3   OH221155   1.631   3.638   0.145  0.3850 -0.0985  0.2993
 7071TIP3    H121156   1.552   3.605   0.189 -0.5920  2.2762  0.5306
 7071TIP3    H221157   1.638   3.729   0.175 -0.0136  1.5434 -3.9013
 7072TIP3   OH221158   4.911   5.076   5.600  0.4743 -0.1351  0.0647
 7072TIP3    H121159   4.848   5.139   5.633 -0.7697 -1.6746  0.7804
 7072TIP3    H221160   4.996   5.121   5.606 -0.2895  1.2474  1.0401
 7073TIP3   OH221161   8.068   4.042   6.278 -0.0811  0.2443  0.1247
 7073TIP3    H121162   8.116   4.121   6.302  0.2194  0.3882 -0.9360
 7073TIP3    H221163   8.045   4.054   6.186  1.5756 -1.6889 -0.6291
 7074TIP3   OH221164   6.042   7.727   6.607  0.3001  0.1499 -0.3984
 7074TIP3    H121165   6.024   7.635   6.625 -0.4283  0.4381  0.3870
 7074TIP3    H221166   5.960   7.772   6.627  0.5156  0.9226 -1.1941
 7075TIP3   OH221167   4.296   6.653   4.813  0.2991  0.3012  0.0640
 7075TIP3    H121168   4.272   6.567   4.849  0.1451 -0.0667 -0.8702
 7075TIP3    H221169   4.354   6.692   4.878 -2.8954  1.3120  2.5442
 7076TIP3   OH221170   4.434   2.614   1.608  0.5353  0.3448  0.7631
 7076TIP3    H121171   4.460   2.619   1.700 -0.2048  2.7687  0.9103
 7076TIP3    H221172   4.441   2.704   1.576  0.2808 -0.3517 -1.4391
 7077TIP3   OH221173   1.414   4.011   1.621 -0.3913  0.5542  0.6430
 7077TIP3    H121174   1.441   4.071   1.691 -0.7631  0.0291  1.2491
 7077TIP3    H221175   1.381   4.068   1.552  1.3919  1.1697  0.2532
 7078TIP3   OH221176   7.590   5.228   4.249  0.2146  0.0345  0.2462
 7078TIP3    H121177   7.590   5.180   4.332  2.6812 -0.0237  0.2987
 7078TIP3    H221178   7.682   5.252   4.236 -0.0723 -0.0634 -2.5271
 7079TIP3   OH221179   6.654   7.391   3.768 -0.2556  0.1940  0.2716
 7079TIP3    H121180   6.606   7.473   3.758  0.1157  0.3983  0.1665
 7079TIP3    H221181   6.665   7.359   3.679 -0.4185  0.0144  0.3135
 7080TIP3   OH221182   4.253   2.578   4.483 -0.7265 -0.1143 -0.2272
 7080TIP3    H121183   4.342   2.544   4.470 -1.0931 -0.7531 -1.1052
 7080TIP3    H221184   4.255   2.615   4.572 -0.5026 -3.0410  1.0977
 7081TIP3   OH221185   3.602   1.739   2.148 -0.3069  0.8740  0.0849
 7081TIP3    H121186   3.691   1.724   2.182  0.1165  1.2868 -0.7915
 7081TIP3    H221187   3.576   1.653   2.114  0.4790  1.1239 -1.2362
 7082TIP3   OH221188   6.986   1.114   0.662 -0.0471  0.3735  0.2905
 7082TIP3    H121189   7.081   1.121   0.652 -0.1155  0.7600 -0.1190
 7082TIP3    H221190   6.971   1.026   0.696  0.5076  0.5408  0.9764
 7083TIP3   OH221191   2.031   3.562   4.746 -0.3405  0.8367  0.8085
 7083TIP3    H121192   1.969   3.496   4.777  1.1840 -1.1061 -0.0565
 7083TIP3    H221193   2.060   3.529   4.661 -0.6387  3.4375 -0.4030
 7084TIP3   OH221194   1.247   3.365   0.910 -0.3649 -0.2407  0.1319
 7084TIP3    H121195   1.198   3.291   0.945 -2.0694  0.8610  0.1970
 7084TIP3    H221196   1.251   3.349   0.816  0.3857 -1.0219  0.2836
 7085TIP3   OH221197   0.428   3.356   4.857 -0.7589 -0.2329  0.3465
 7085TIP3    H121198   0.446   3.438   4.811 -1.4168  0.5950  1.4894
 7085TIP3    H221199   0.445   3.288   4.793  0.9008  0.7366 -0.3048
 7086TIP3   OH221200   0.783   0.250   4.685  0.3018  0.1037  0.2555
 7086TIP3    H121201   0.736   0.286   4.610 -0.5991 -1.4502  0.0465
 7086TIP3    H221202   0.874   0.243   4.655  0.0369 -0.0866 -0.5308
 7087TIP3   OH221203   6.621   1.939   4.276  0.1809 -0.2410  0.0773
 7087TIP3    H121204   6.625   2.003   4.347 -1.1824 -0.1534  0.1022
 7087TIP3    H221205   6.647   1.856   4.316  0.6659  0.0447  0.3588
 7088TIP3   OH221206   1.154   7.182   0.646 -0.3649 -0.8678 -1.0369
 7088TIP3    H121207   1.152   7.086   0.648 -2.4588 -0.8751  0.9944
 7088TIP3    H221208   1.238   7.205   0.686 -0.1050 -1.8486 -0.9908
 7089TIP3   OH221209   7.307   7.255   5.159  0.3313  0.3140 -0.4487
 7089TIP3    H121210   7.232   7.229   5.213  1.6064  0.7165  1.6290
 7089TIP3    H221211   7.270   7.271   5.073 -1.6738 -1.2167  0.0604
 7090TIP3   OH221212   8.230   0.184   0.718 -0.7565  0.6868  0.6352
 7090TIP3    H121213   8.192   0.099   0.741 -0.9057 -0.2574 -2.6785
 7090TIP3    H221214   8.164   0.226   0.663  0.7299  1.4242 -0.6561
 7091TIP3   OH221215   2.610   2.995   1.698 -0.1141 -1.1608 -0.0060
 7091TIP3    H121216   2.627   2.905   1.727  1.2392 -0.5871  1.0901
 7091TIP3    H221217   2.695   3.039   1.706 -1.5769  1.4472  4.0726
 7092TIP3   OH221218   0.452   3.566   2.429  0.6634 -0.1914  0.0638
 7092TIP3    H121219   0.445   3.471   2.438  1.1573 -0.3654 -1.1961
 7092TIP3    H221220   0.528   3.590   2.483  0.3855 -0.4624  0.5851
 7093TIP3   OH221221   4.863   0.555   3.566 -0.2493  0.8888 -0.0007
 7093TIP3    H121222   4.823   0.583   3.483  0.4018  0.3399 -0.5122
 7093TIP3    H221223   4.956   0.550   3.547  0.0407  1.9010  1.1150
 7094TIP3   OH221224   7.853   5.678   6.294 -0.4207 -0.1572  0.0456
 7094TIP3    H121225   7.816   5.749   6.243 -0.5752 -0.7872 -0.7354
 7094TIP3    H221226   7.826   5.697   6.384  0.0709  1.0940 -0.0475
 7095TIP3   OH221227   0.250   2.951   5.797  0.3878 -0.1416  0.5008
 7095TIP3    H121228   0.262   2.886   5.865  2.9005  1.8793  2.1734
 7095TIP3    H221229   0.330   2.947   5.744  0.2409  1.0138  0.1451
 7096TIP3   OH221230   0.508   1.396   2.239  0.2374  0.6301 -0.1456
 7096TIP3    H121231   0.445   1.468   2.248  0.7596  0.9019  2.0756
 7096TIP3    H221232   0.589   1.438   2.210 -0.0565  0.5720 -1.0806
 7097TIP3   OH221233   8.174   5.715   6.337  0.5132 -0.0661 -0.1908
 7097TIP3    H121234   8.193   5.806   6.316  0.6598  0.5374  2.2576
 7097TIP3    H221235   8.078   5.712   6.347  0.5309 -0.0985 -0.0147
 7098TIP3   OH221236   5.074   0.108   5.560 -0.2691  0.0303 -0.3560
 7098TIP3    H121237   5.088   0.053   5.483  0.9603  1.7521 -1.4332
 7098TIP3    H221238   5.159   0.111   5.604 -0.9762 -1.0012  1.1558
 7099TIP3   OH221239   8.262   4.191   0.952 -0.3670 -0.0317 -0.1063
 7099TIP3    H121240   8.264   4.202   0.857 -0.9963 -1.7926 -0.3699
 7099TIP3    H221241   8.169   4.189   0.973 -0.2295  1.1220  0.6778
 7100TIP3   OH221242   5.639   6.669   0.674 -0.2313 -0.2915 -0.0302
 7100TIP3    H121243   5.709   6.715   0.626  0.2435  0.7296  1.5484
 7100TIP3    H221244   5.627   6.721   0.753 -2.1707 -0.9731  0.1709
 7101TIP3   OH221245   2.920   5.070   6.393 -0.4105 -0.0104  0.4603
 7101TIP3    H121246   2.912   5.150   6.340  1.2635  1.0499  1.6928
 7101TIP3    H221247   2.907   5.099   6.483  3.0314 -0.4365  1.2686
 7102TIP3   OH221248   1.299   2.958   2.283 -0.0226 -0.0434 -0.3582
 7102TIP3    H121249   1.392   2.938   2.270 -0.1165 -1.2373  0.6241
 7102TIP3    H221250   1.258   2.873   2.299 -0.8657  0.6869  1.6980
 7103TIP3   OH221251   1.599   5.156   3.682  0.0422  0.0063 -0.6616
 7103TIP3    H121252   1.677   5.136   3.733 -0.1972  0.8121  0.0555
 7103TIP3    H221253   1.527   5.150   3.745 -0.2235  1.3451 -0.7937
 7104TIP3   OH221254   1.307   7.486   5.998 -0.0107  0.3583 -0.0355
 7104TIP3    H121255   1.226   7.507   6.043  1.3261  0.9008  2.2674
 7104TIP3    H221256   1.333   7.401   6.032 -0.8745 -1.0744 -2.7162
 7105TIP3   OH221257   0.148   4.155   2.692 -0.3399  0.5299 -0.1241
 7105TIP3    H121258   0.081   4.112   2.744 -1.3490  1.0589 -0.9576
 7105TIP3    H221259   0.187   4.085   2.640 -1.0219  0.3960 -0.4610
 7106TIP3   OH221260   6.524   2.266   5.239  0.1267  0.1588  0.1192
 7106TIP3    H121261   6.453   2.326   5.260 -0.4213 -0.5303  0.2897
 7106TIP3    H221262   6.537   2.215   5.319  0.0666 -0.4498 -0.2489
 7107TIP3   OH221263   4.434   5.426   4.006 -0.2910 -0.3925  0.0650
 7107TIP3    H121264   4.450   5.510   3.963  1.0287 -0.4723  0.3552
 7107TIP3    H221265   4.339   5.423   4.017 -0.3094  1.5080  0.9052
 7108TIP3   OH221266   3.874   1.383   6.232  0.5925  0.2259  0.0590
 7108TIP3    H121267   3.898   1.390   6.325  1.2878  0.1003 -0.1032
 7108TIP3    H221268   3.842   1.293   6.223  2.7681 -0.5839 -0.2912
 7109TIP3   OH221269   2.305   2.176   6.381  0.1169 -0.4890  0.9010
 7109TIP3    H121270   2.258   2.137   6.455 -0.0874  0.9489  1.5744
 7109TIP3    H221271   2.397   2.177   6.408 -0.1348  1.5063  1.9014
 7110TIP3   OH221272   2.646   6.064   6.561  0.0659 -0.1773 -0.3932
 7110TIP3    H121273   2.563   6.019   6.552  0.5581 -0.9816 -1.0229
 7110TIP3    H221274   2.685   6.061   6.473  1.3279 -0.9532  0.1721
 7111TIP3   OH221275   5.095   2.339   5.496  0.0581 -0.3021 -0.2706
 7111TIP3    H121276   5.177   2.360   5.539 -0.1289 -1.8500  0.9287
 7111TIP3    H221277   5.101   2.381   5.410  1.3161  1.1135  0.4718
 7112TIP3   OH221278   4.545   1.405   6.133  0.0635  0.0397 -0.1840
 7112TIP3    H121279   4.534   1.467   6.061 -1.1364  0.2051  0.1255
 7112TIP3    H221280   4.461   1.405   6.178 -0.1923 -2.2807 -0.5444
 7113TIP3   OH221281   1.830   0.885   6.447  0.3040  0.2084  0.2820
 7113TIP3    H121282   1.752   0.897   6.393  0.7453  1.6423 -0.0668
 7113TIP3    H221283   1.874   0.809   6.408 -0.5539 -0.1920  0.0674
 7114TIP3   OH221284   1.599   6.368   1.101  0.6839 -0.0723  0.7850
 7114TIP3    H121285   1.553   6.300   1.149 -0.9702 -0.2013 -0.8925
 7114TIP3    H221286   1.534   6.405   1.041  2.0119  1.7383  0.3499
 7115TIP3   OH221287   5.230   3.470   1.623 -0.2421 -0.2649 -0.7206
 7115TIP3    H121288   5.267   3.433   1.542  1.5517  0.9297 -0.5003
 7115TIP3    H221289   5.183   3.548   1.593  2.2949  1.4751 -0.4871
 7116TIP3   OH221290   2.488   4.847   6.691  0.0620 -0.6569  0.0354
 7116TIP3    H121291   2.399   4.844   6.655 -0.3189  0.4517  0.8107
 7116TIP3    H221292   2.475   4.853   6.786  0.9724 -0.6676  0.1701
 7117TIP3   OH221293   3.296   4.207   2.823 -0.0385 -0.3396  0.0331
 7117TIP3    H121294   3.314   4.209   2.917 -0.4394  1.4122  0.0945
 7117TIP3    H221295   3.204   4.232   2.816  0.2643  0.5838 -0.8809
 7118TIP3   OH221296   7.512   0.775   4.093 -0.0524  0.5013 -0.0418
 7118TIP3    H121297   7.447   0.767   4.023  1.0052  0.1849 -1.0298
 7118TIP3    H221298   7.581   0.829   4.054  0.8184 -0.1545  0.5582
 7119TIP3   OH221299   3.538   5.264   0.283  0.6368 -0.0344  0.1164
 7119TIP3    H121300   3.529   5.353   0.248  0.6071 -0.3734 -0.7774
 7119TIP3    H221301   3.453   5.246   0.325 -0.3695 -0.5843 -2.0076
 7120TIP3   OH221302   1.429   4.362   4.886 -0.3670  0.6784 -0.0807
 7120TIP3    H121303   1.512   4.316   4.871 -2.0510 -3.2538  1.3215
 7120TIP3    H221304   1.431   4.435   4.825  2.6029 -1.3328 -2.7095
 7121TIP3   OH221305   5.113   4.586   2.561 -0.3779 -0.2906  0.4587
 7121TIP3    H121306   5.188   4.601   2.504  0.0693 -0.6125  0.9492
 7121TIP3    H221307   5.060   4.522   2.514 -0.8184  0.6222 -0.3095
 7122TIP3   OH221308   0.689   7.525   1.970 -0.2267  0.0131 -0.0784
 7122TIP3    H121309   0.738   7.592   1.924 -1.9125  1.0614 -0.4541
 7122TIP3    H221310   0.601   7.530   1.932 -1.0764 -0.6408  1.6896
 7123TIP3   OH221311   5.304   3.780   2.966  0.8198 -0.4537 -0.0901
 7123TIP3    H121312   5.213   3.764   2.988  1.0385 -1.1605  0.3297
 7123TIP3    H221313   5.349   3.698   2.987  1.3849 -0.4618 -1.2470
 7124TIP3   OH221314   5.279   1.632   1.664 -0.7737 -0.1770 -0.1504
 7124TIP3    H121315   5.375   1.627   1.667 -0.8474 -1.4460  1.8343
 7124TIP3    H221316   5.260   1.726   1.663  0.4798  0.0964 -1.9060
 7125TIP3   OH221317   5.054   3.675   5.846 -0.1005  0.2298 -0.4076
 7125TIP3    H121318   5.129   3.690   5.903 -1.5688  1.2469  1.3985
 7125TIP3    H221319   5.070   3.732   5.770  1.2067 -0.0302 -0.3499
 7126TIP3   OH221320   0.482   6.587   3.210 -0.1286  0.3207 -0.0832
 7126TIP3    H121321   0.462   6.677   3.236 -0.1042  0.1070  0.7010
 7126TIP3    H221322   0.550   6.559   3.271 -0.4891 -0.4001 -0.0027
 7127TIP3   OH221323   3.293   4.091   3.492 -0.0756 -0.1531  0.1198
 7127TIP3    H121324   3.198   4.099   3.496 -0.0741 -0.3685  0.9071
 7127TIP3    H221325   3.309   3.997   3.499  0.1781 -0.1611 -0.5315
 7128TIP3   OH221326   5.196   4.768   6.387  0.4294 -0.0966  0.3146
 7128TIP3    H121327   5.259   4.701   6.413 -0.4200 -1.3523 -0.7934
 7128TIP3    H221328   5.187   4.823   6.465  0.4415 -1.8018  1.5775
 7129TIP3   OH221329   3.722   0.528   4.517  0.5213 -0.5459  0.1976
 7129TIP3    H121330   3.680   0.613   4.501  0.9510 -0.2468  0.6528
 7129TIP3    H221331   3.776   0.513   4.439 -1.8968 -1.8804 -1.3849
 7130TIP3   OH221332   8.074   4.697   2.987 -0.0902  0.2379  0.3809
 7130TIP3    H121333   8.147   4.635   2.978 -1.4838 -1.6265  1.1221
 7130TIP3    H221334   8.062   4.706   3.082 -1.3692 -0.1953  0.2760
 7131TIP3   OH221335   4.152   4.453   3.457 -0.1182  0.1644 -1.2182
 7131TIP3    H121336   4.118   4.538   3.432 -0.4334  0.3474 -0.2054
 7131TIP3    H221337   4.076   4.394   3.455 -0.5100  0.5299  0.8406
 7132TIP3   OH221338   3.577   3.209   1.526 -0.2552  0.4697  0.2925
 7132TIP3    H121339   3.589   3.194   1.432 -1.7162 -3.4181  0.5373
 7132TIP3    H221340   3.498   3.262   1.532  1.0700  2.6967 -0.6074
 7133TIP3   OH221341   1.331   2.495   2.841 -0.2797 -0.0091  0.1764
 7133TIP3    H121342   1.336   2.401   2.859  0.9042  0.1504  0.7212
 7133TIP3    H221343   1.412   2.531   2.876 -0.3808  1.1171 -0.6899
 7134TIP3   OH221344   6.201   1.943   3.031  0.0819 -0.5861  0.1830
 7134TIP3    H121345   6.260   2.013   3.058 -0.4615  0.2397 -0.7325
 7134TIP3    H221346   6.151   1.979   2.958  0.2476 -2.1480 -0.7577
 7135TIP3   OH221347   1.974   1.516   2.042  0.5519 -0.0450 -0.2958
 7135TIP3    H121348   1.946   1.598   2.002  0.6030  0.2697  0.2960
 7135TIP3    H221349   1.942   1.448   1.983  1.9611  0.4497 -1.6904
 7136TIP3   OH221350   1.120   3.122   4.343 -0.3139 -0.3732 -0.4686
 7136TIP3    H121351   1.102   3.030   4.361  1.0493 -0.9778 -1.8984
 7136TIP3    H221352   1.205   3.121   4.298 -1.4225  1.3326 -2.8069
 7137TIP3   OH221353   7.216   5.276   4.497  0.6485 -0.1338  0.3706
 7137TIP3    H121354   7.224   5.221   4.575  0.5059  1.5522  1.6615
 7137TIP3    H221355   7.166   5.224   4.435 -1.5484 -0.6315  2.3942
 7138TIP3   OH221356   7.786   4.490   5.385  0.2328  0.0010 -0.1290
 7138TIP3    H121357   7.768   4.570   5.335 -1.2466 -1.3569 -1.9066
 7138TIP3    H221358   7.878   4.471   5.367 -0.3869 -0.7739 -2.9940
 7139TIP3   OH221359   7.613   4.043   4.403  0.2320 -0.5130  0.1000
 7139TIP3    H121360   7.647   4.119   4.356  0.3228 -1.3632 -1.2485
 7139TIP3    H221361   7.559   3.996   4.339  0.0952 -1.5307  0.9260
 7140TIP3   OH221362   5.474   4.932   3.029  0.2383  0.1076  0.1838
 7140TIP3    H121363   5.538   4.869   2.995 -0.4036  0.4443 -1.7976
 7140TIP3    H221364   5.441   4.893   3.109  1.6466 -0.8967  0.3033
 7141TIP3   OH221365   3.932   1.201   0.459  0.4756 -0.6243  0.1488
 7141TIP3    H121366   3.920   1.278   0.403  1.9343 -0.7584 -0.3996
 7141TIP3    H221367   3.923   1.126   0.401  2.0320 -0.7643  0.0347
 7142TIP3   OH221368   4.642   2.859   0.814 -0.0554 -0.0385  0.0063
 7142TIP3    H121369   4.660   2.781   0.762 -0.4277  1.0145 -1.7916
 7142TIP3    H221370   4.728   2.893   0.839  0.1012 -1.1262  0.9849
 7143TIP3   OH221371   2.464   0.329   5.430  0.1518  0.0592  0.0559
 7143TIP3    H121372   2.479   0.255   5.371  0.8845  0.7279 -0.6314
 7143TIP3    H221373   2.539   0.387   5.415 -1.5152  2.0582 -1.1723
 7144TIP3   OH221374   2.743   6.135   4.776 -0.1152 -0.5434 -0.8592
 7144TIP3    H121375   2.738   6.208   4.837  0.3473 -1.5690  0.4627
 7144TIP3    H221376   2.826   6.147   4.730 -0.6988  0.5058 -1.6632
 7145TIP3   OH221377   6.356   3.441   1.695 -0.1790  0.2581 -0.0171
 7145TIP3    H121378   6.306   3.361   1.687  1.4147 -0.7115 -0.9703
 7145TIP3    H221379   6.314   3.502   1.634 -0.1882 -0.5511 -0.8446
 7146TIP3   OH221380   1.451   4.741   1.044  0.5217 -0.0280  0.0444
 7146TIP3    H121381   1.420   4.671   1.101  0.3226 -1.2831 -1.5245
 7146TIP3    H221382   1.537   4.764   1.078 -0.1494  0.2772  1.6718
 7147TIP3   OH221383   3.417   3.710   3.989  0.5354 -0.0380 -0.6509
 7147TIP3    H121384   3.378   3.790   3.954  1.4014  0.8586  0.3518
 7147TIP3    H221385   3.511   3.723   3.981  0.7011 -0.6707  0.1223
 7148TIP3   OH221386   0.648   0.830   3.301 -0.4377 -0.3484 -0.1785
 7148TIP3    H121387   0.731   0.866   3.331 -0.6431 -0.4707  0.5499
 7148TIP3    H221388   0.582   0.871   3.356 -0.7608 -1.0887 -0.0002
 7149TIP3   OH221389   4.234   1.552   2.046  0.0294  0.2751  0.5769
 7149TIP3    H121390   4.194   1.573   2.130 -3.1415 -0.6165 -0.5635
 7149TIP3    H221391   4.256   1.637   2.008 -2.5469  1.0262  0.5730
 7150TIP3   OH221392   3.408   2.057   4.309 -0.1055 -0.1991  0.0992
 7150TIP3    H121393   3.503   2.068   4.313  0.0593 -1.5855  0.5268
 7150TIP3    H221394   3.376   2.094   4.391 -0.0059  0.8337 -0.3204
 7151TIP3   OH221395   3.838   6.372   0.939  0.4539 -0.1894 -0.1931
 7151TIP3    H121396   3.826   6.303   1.004  1.2332  0.8486  1.1021
 7151TIP3    H221397   3.749   6.401   0.918  0.1981 -0.0356  1.0082
 7152TIP3   OH221398   6.217   1.139   2.807 -0.0645 -0.0803 -0.1650
 7152TIP3    H121399   6.282   1.123   2.876  0.9840 -1.2716 -1.3469
 7152TIP3    H221400   6.257   1.207   2.752 -0.1143 -0.3388 -0.5245
 7153TIP3   OH221401   7.899   6.713   3.401  0.0553 -0.0606  0.0849
 7153TIP3    H121402   7.979   6.681   3.443  1.6276  2.2297 -0.9134
 7153TIP3    H221403   7.899   6.671   3.315  0.7597  0.6570 -0.2830
 7154TIP3   OH221404   8.214   5.014   4.052  0.4403  0.2196  0.2140
 7154TIP3    H121405   8.119   5.022   4.050  0.4178  0.4848  1.4384
 7154TIP3    H221406   8.240   5.004   3.960 -0.6935  0.9752 -0.2018
 7155TIP3   OH221407   5.825   6.763   3.307  1.0245 -0.0548  0.1426
 7155TIP3    H121408   5.780   6.810   3.236 -0.6223  2.1216  2.4242
 7155TIP3    H221409   5.763   6.695   3.333  1.1692 -0.1834  0.1467
 7156TIP3   OH221410   2.825   1.800   2.341 -0.4356  0.4605  0.3255
 7156TIP3    H121411   2.910   1.761   2.319 -0.4207 -0.2479  1.5537
 7156TIP3    H221412   2.836   1.893   2.323  0.8381  0.4921  1.1336
 7157TIP3   OH221413   2.167   5.217   0.491  0.2157 -0.4867 -0.0518
 7157TIP3    H121414   2.258   5.244   0.506 -0.1790  1.4462 -0.8128
 7157TIP3    H221415   2.114   5.288   0.526 -0.9526 -0.7574 -1.1712
 7158TIP3   OH221416   5.479   0.421   3.547 -0.3863 -0.0936 -0.5001
 7158TIP3    H121417   5.474   0.330   3.575 -0.6084  1.1418  4.2400
 7158TIP3    H221418   5.572   0.441   3.545 -0.3702 -0.1857 -0.7821
 7159TIP3   OH221419   7.415   4.418   0.700  0.2709  0.0876 -0.8144
 7159TIP3    H121420   7.418   4.388   0.791  2.5073  0.2041 -0.7855
 7159TIP3    H221421   7.355   4.358   0.656  0.2641 -0.8521  0.4335
 7160TIP3   OH221422   0.088   0.023   0.447 -0.1029  0.0324  0.2132
 7160TIP3    H121423   0.040   0.084   0.502 -0.3472  0.2060 -0.1845
 7160TIP3    H221424   0.029   0.005   0.374  1.1081  1.7386 -1.2946
 7161TIP3   OH221425   5.428   3.417   4.495  0.2383 -0.6821  0.1690
 7161TIP3    H121426   5.399   3.496   4.540  2.5358  0.4680 -0.2186
 7161TIP3    H221427   5.395   3.345   4.550  0.3117  0.6033  1.9928
 7162TIP3   OH221428   3.296   1.259   5.734  0.2391 -0.2872 -0.0507
 7162TIP3    H121429   3.296   1.279   5.640 -0.8375 -1.4265 -0.3227
 7162TIP3    H221430   3.389   1.262   5.759  0.4050  2.1904 -0.6239
 7163TIP3   OH221431   7.451   6.888   1.594  0.2712 -0.6464  0.1835
 7163TIP3    H121432   7.451   6.938   1.512  1.7354 -0.0071  0.5367
 7163TIP3    H221433   7.360   6.860   1.605 -0.5903  1.7821 -0.1303
 7164TIP3   OH221434   5.503   2.786   1.928  0.1758  0.2407  0.5285
 7164TIP3    H121435   5.491   2.696   1.898  0.0333 -0.2235  1.8673
 7164TIP3    H221436   5.553   2.829   1.859 -1.7504 -0.1946 -1.2293
 7165TIP3   OH221437   7.818   3.121   2.036  0.3454 -0.4157 -0.0610
 7165TIP3    H121438   7.895   3.167   2.001 -0.4340  0.4179 -0.7441
 7165TIP3    H221439   7.809   3.154   2.125  0.0541  0.4461 -0.4003
 7166TIP3   OH221440   6.801   3.891   6.781  0.0072 -0.1989  0.0911
 7166TIP3    H121441   6.769   3.811   6.738 -1.3918 -0.1121  0.9282
 7166TIP3    H221442   6.869   3.923   6.722 -0.2211 -1.3683 -0.8575
 7167TIP3   OH221443   6.914   6.395   3.221 -0.3618 -0.0156  0.1749
 7167TIP3    H121444   7.000   6.367   3.250  0.5563  1.5781 -0.8512
 7167TIP3    H221445   6.894   6.339   3.146 -0.3028 -0.4861  0.5060
 7168TIP3   OH221446   3.449   6.055   1.144 -0.8155  0.0047  0.7233
 7168TIP3    H121447   3.515   6.013   1.089 -0.3257  1.6147  0.0315
 7168TIP3    H221448   3.456   6.149   1.124 -1.3690  0.5304  2.7194
 7169TIP3   OH221449   0.764   2.526   2.284  0.2742 -0.5585 -0.1321
 7169TIP3    H121450   0.729   2.442   2.255 -1.7102 -0.2165  1.1013
 7169TIP3    H221451   0.715   2.592   2.235  2.8499 -0.0133 -2.2383
 7170TIP3   OH221452   0.557   1.615   0.223 -0.1308 -0.2122 -0.1103
 7170TIP3    H121453   0.582   1.591   0.134 -0.6725 -1.4128  0.0434
 7170TIP3    H221454   0.489   1.552   0.247 -0.4366  0.4860  0.9290
 7171TIP3   OH221455   3.247   4.873   2.821  0.1295 -0.0411  0.3056
 7171TIP3    H121456   3.284   4.785   2.830  0.8924  0.1535 -0.6987
 7171TIP3    H221457   3.290   4.924   2.889  0.3167 -0.2538  0.3502
 7172TIP3   OH221458   8.208   1.540   4.532  0.4310  0.1595 -0.2201
 7172TIP3    H121459   8.184   1.622   4.488  0.3302  1.2489  1.7465
 7172TIP3    H221460   8.142   1.477   4.503 -0.5008  1.2245 -0.4820
 7173TIP3   OH221461   4.943   4.584   0.604 -0.3406  0.4680  0.2053
 7173TIP3    H121462   4.988   4.667   0.622 -0.2009  0.0735  1.8320
 7173TIP3    H221463   5.013   4.519   0.604 -0.7485  0.0018  1.6375
 7174TIP3   OH221464   3.237   1.423   1.732 -0.0496  0.0238 -0.0648
 7174TIP3    H121465   3.322   1.449   1.767 -1.1447  2.2855  1.2054
 7174TIP3    H221466   3.185   1.403   1.810 -0.6054 -1.6327 -0.8352
 7175TIP3   OH221467   6.438   5.756   6.505 -0.1027 -0.0838 -0.3883
 7175TIP3    H121468   6.394   5.788   6.426  0.1013 -0.4208 -0.6385
 7175TIP3    H221469   6.370   5.759   6.572  0.3668  2.6855  0.0911
 7176TIP3   OH221470   2.878   4.980   1.044 -0.0017 -0.1054  0.1151
 7176TIP3    H121471   2.824   5.054   1.015 -0.3423 -0.1122  0.7012
 7176TIP3    H221472   2.900   4.933   0.964  0.9351  1.1035 -0.3802
 7177TIP3   OH221473   7.171   4.598   6.045 -0.4983  0.2111  0.1211
 7177TIP3    H121474   7.224   4.554   5.979 -2.1883 -1.2798 -0.3232
 7177TIP3    H221475   7.228   4.667   6.080  1.2044 -0.4118 -1.2883
 7178TIP3   OH221476   6.270   3.950   5.873 -0.1985  0.0800  0.5492
 7178TIP3    H121477   6.257   3.928   5.965  2.0587  1.2097  1.2273
 7178TIP3    H221478   6.364   3.939   5.859 -0.3349  0.9011 -1.3424
 7179TIP3   OH221479   5.093   4.015   2.101  0.0914  0.1706 -0.5998
 7179TIP3    H121480   5.020   4.055   2.053  1.5216 -0.7888 -3.8698
 7179TIP3    H221481   5.155   4.086   2.116 -0.5791  0.5754  0.3650
 7180TIP3   OH221482   7.332   3.735   4.392  0.2254 -1.0780  0.3595
 7180TIP3    H121483   7.301   3.751   4.481  0.6164  1.5999  0.1135
 7180TIP3    H221484   7.427   3.723   4.402  0.6928  1.7255  0.1909
 7181TIP3   OH221485   6.386   7.736   6.424 -0.5307  0.2495  0.4081
 7181TIP3    H121486   6.302   7.781   6.422 -0.8756 -0.3292 -1.9744
 7181TIP3    H221487   6.449   7.803   6.448 -1.1361  1.8924 -2.1883
 7182TIP3   OH221488   0.834   1.778   0.080  0.4587 -0.4495 -0.2724
 7182TIP3    H121489   0.799   1.710   0.023 -0.0633  0.4774 -1.0782
 7182TIP3    H221490   0.757   1.813   0.125  0.5719  0.3783 -0.7143
 7183TIP3   OH221491   4.053   7.201   4.116 -0.1789  0.0163  0.2013
 7183TIP3    H121492   4.113   7.253   4.170  0.3336 -0.5270  0.1720
 7183TIP3    H221493   4.108   7.132   4.080 -0.6848 -0.0840 -0.3920
 7184TIP3   OH221494   0.009   7.412   4.867  0.2381  0.3952 -0.7707
 7184TIP3    H121495  -0.027   7.332   4.830  0.4221  0.1972 -0.5261
 7184TIP3    H221496   0.045   7.385   4.951  2.9866  0.0644 -1.9354
 7185TIP3   OH221497   1.287   2.111   3.396 -0.3436 -0.0301 -0.1070
 7185TIP3    H121498   1.335   2.193   3.400 -0.6425  0.1125  0.9352
 7185TIP3    H221499   1.217   2.126   3.333  0.4644  0.0291 -1.0098
 7186TIP3   OH221500   7.062   1.184   4.343 -0.0648 -0.2449  0.2141
 7186TIP3    H121501   7.073   1.240   4.265  0.0848 -1.0302 -0.3427
 7186TIP3    H221502   7.142   1.132   4.346 -0.6564 -1.1843  0.0927
 7187TIP3   OH221503   0.110   4.752   5.172 -0.5266 -0.0611  0.1472
 7187TIP3    H121504   0.157   4.670   5.158  1.8478  0.8343  2.1610
 7187TIP3    H221505   0.165   4.819   5.131 -0.3423  0.9218  1.8749
 7188TIP3   OH221506   4.506   1.771   4.942  0.1435 -0.3550 -0.4375
 7188TIP3    H121507   4.588   1.804   4.978 -0.3523 -1.8478  2.3154
 7188TIP3    H221508   4.441   1.836   4.966  0.3394  0.4788 -2.0100
 7189TIP3   OH221509   5.096   3.360   6.019  0.1705 -0.1599  0.2877
 7189TIP3    H121510   5.148   3.361   6.099 -0.2027  0.9963  0.5316
 7189TIP3    H221511   5.028   3.426   6.033  0.5901  0.6677 -1.3054
 7190TIP3   OH221512   2.928   1.874   4.512 -0.5534 -0.3185  0.1410
 7190TIP3    H121513   2.862   1.857   4.445 -0.4764  2.1007 -0.6436
 7190TIP3    H221514   2.998   1.920   4.466 -0.4382  1.2760  1.8137
 7191TIP3   OH221515   4.448   4.395   0.067  0.1062  0.2314  0.1782
 7191TIP3    H121516   4.521   4.393   0.129  1.2493  1.0328 -1.1010
 7191TIP3    H221517   4.375   4.433   0.116  1.5536  2.7784  0.4818
 7192TIP3   OH221518   8.136   6.999   6.115 -0.6953 -0.3421  0.2624
 7192TIP3    H121519   8.101   7.086   6.136  1.0155  0.7695 -1.1678
 7192TIP3    H221520   8.172   6.967   6.198 -0.7712  0.5993  0.6756
 7193TIP3   OH221521   4.011   2.796   3.819 -0.1806  0.5695  0.5058
 7193TIP3    H121522   3.947   2.755   3.878 -1.8156  0.7499 -1.0608
 7193TIP3    H221523   4.095   2.784   3.863 -1.2773  0.3935  2.6938
 7194TIP3   OH221524   3.903   3.457   5.686  0.3553  0.4974 -0.0415
 7194TIP3    H121525   3.886   3.531   5.744 -2.4645 -0.9618  1.1694
 7194TIP3    H221526   3.916   3.383   5.746 -0.4652 -0.6399 -1.2397
 7195TIP3   OH221527   3.037   2.390   1.336  0.2559  0.2385 -0.3560
 7195TIP3    H121528   2.970   2.443   1.293  0.3884  0.3131 -0.4712
 7195TIP3    H221529   3.054   2.318   1.275  1.4712  1.1054 -1.1046
 7196TIP3   OH221530   6.647   5.197   1.502  0.1889  0.1719  0.5522
 7196TIP3    H121531   6.722   5.252   1.479 -0.1807  0.8455  0.9472
 7196TIP3    H221532   6.686   5.113   1.528  0.7896  0.4464  0.5463
 7197TIP3   OH221533   6.308   4.722   0.524  0.0517 -0.0858  0.0405
 7197TIP3    H121534   6.353   4.686   0.600  0.2643 -0.7862 -0.4054
 7197TIP3    H221535   6.355   4.686   0.449 -1.8080 -1.6184 -0.4651
 7198TIP3   OH221536   8.206   7.092   2.087 -0.3137  0.2174  0.4236
 7198TIP3    H121537   8.227   7.031   2.017  0.3253  1.6785 -0.7031
 7198TIP3    H221538   8.237   7.048   2.167  2.2693  0.0130 -0.5991
 7199TIP3   OH221539   6.582   6.032   2.270  0.3132 -0.2652 -0.5715
 7199TIP3    H121540   6.572   5.973   2.195  2.0328  2.2754 -3.0029
 7199TIP3    H221541   6.674   6.023   2.295  0.1540  0.1213  0.1722
 7200TIP3   OH221542   6.331   5.479   2.001 -0.1358 -0.2223  0.0124
 7200TIP3    H121543   6.263   5.546   1.991 -0.1742 -0.2218  0.2635
 7200TIP3    H221544   6.404   5.510   1.949  0.1568  0.4362  0.7926
 7201TIP3   OH221545   1.863   7.045   1.550 -0.0824  0.5184  0.8085
 7201TIP3    H121546   1.923   7.069   1.479 -0.4308 -2.6678 -0.7515
 7201TIP3    H221547   1.803   7.119   1.556  2.4466  2.7203  0.7369
 7202TIP3   OH221548   4.926   7.786   1.364  0.8139 -0.0053  0.2326
 7202TIP3    H121549   4.844   7.772   1.411  0.6707 -1.2724 -0.3637
 7202TIP3    H221550   4.994   7.778   1.432  0.5017  0.1557  0.5651
 7203TIP3   OH221551   3.987   1.142   4.889  0.5672  0.3655  0.4884
 7203TIP3    H121552   3.956   1.055   4.913 -0.2309 -0.2271 -2.3015
 7203TIP3    H221553   4.076   1.128   4.856  1.1654  0.9472  1.7868
 7204TIP3   OH221554   3.218   5.216   1.799 -0.0633  0.0785 -0.4643
 7204TIP3    H121555   3.198   5.258   1.882 -0.7094  1.1529 -1.1335
 7204TIP3    H221556   3.220   5.122   1.819 -1.0941  0.2550  0.5944
 7205TIP3   OH221557   1.298   5.767   1.640  0.5828 -0.5858 -0.7061
 7205TIP3    H121558   1.311   5.726   1.725  1.5768  0.9646 -0.0474
 7205TIP3    H221559   1.366   5.835   1.636 -1.0007  1.0500 -1.6452
 7206TIP3   OH221560   1.708   4.527   2.224 -0.0163  0.2646 -0.0220
 7206TIP3    H121561   1.617   4.499   2.215  0.3229 -1.0612  0.4468
 7206TIP3    H221562   1.702   4.614   2.264 -1.0574 -0.1364  0.7403
 7207TIP3   OH221563   0.823   1.017   3.098  0.5671 -0.0770 -0.6208
 7207TIP3    H121564   0.738   0.974   3.109  0.7346 -0.2607  0.0135
 7207TIP3    H221565   0.815   1.100   3.144  0.6378  0.0391 -0.8142
 7208TIP3   OH221566   0.256   4.270   3.435  0.9307  0.1359  0.3767
 7208TIP3    H121567   0.314   4.333   3.478 -0.6856  0.7784  1.7548
 7208TIP3    H221568   0.168   4.308   3.446  0.2673 -0.5070 -2.1240
 7209TIP3   OH221569   0.601   1.885   0.206  0.3557  0.3384 -0.0249
 7209TIP3    H121570   0.575   1.799   0.238 -0.8616  0.9305  0.6303
 7209TIP3    H221571   0.532   1.910   0.145  1.5491  0.1680 -1.5029
 7210TIP3   OH221572   3.209   7.678   2.668 -0.4403  0.3092 -0.0065
 7210TIP3    H121573   3.207   7.726   2.751 -1.5375  0.2732  0.0043
 7210TIP3    H221574   3.218   7.746   2.602 -1.7875  0.5522  0.0233
 7211TIP3   OH221575   1.076   7.486   3.176 -0.2485 -0.0313 -0.4733
 7211TIP3    H121576   1.052   7.556   3.236  1.4506 -0.2533  0.5502
 7211TIP3    H221577   1.010   7.418   3.190  1.4435 -1.1710  3.1628
 7212TIP3   OH221578   4.192   7.304   2.118  0.4780  0.3023  0.5693
 7212TIP3    H121579   4.237   7.242   2.175  1.6615  0.9011  0.3165
 7212TIP3    H221580   4.220   7.390   2.150 -0.5165  0.6960  0.4138
 7213TIP3   OH221581   0.798   1.782   6.474 -0.2282  0.7411  0.2303
 7213TIP3    H121582   0.757   1.697   6.458 -3.5932  2.6919 -3.3950
 7213TIP3    H221583   0.750   1.818   6.548 -1.2611  0.7453 -0.4127
 7214TIP3   OH221584   7.093   2.993   6.507 -0.0642  0.1261  0.3811
 7214TIP3    H121585   7.142   2.914   6.484 -1.4975 -0.1705 -2.0300
 7214TIP3    H221586   7.156   3.064   6.498  0.9854 -0.6077  1.5804
 7215TIP3   OH221587   2.006   4.825   2.461  0.3382 -0.1063 -0.2946
 7215TIP3    H121588   2.027   4.755   2.524 -0.5141 -0.4959 -0.4264
 7215TIP3    H221589   2.070   4.815   2.391  1.7986  0.8223  0.8602
 7216TIP3   OH221590   5.438   1.093   3.391 -0.4833 -0.2249  0.2105
 7216TIP3    H121591   5.373   1.126   3.328  1.0926  0.9726 -0.8754
 7216TIP3    H221592   5.521   1.129   3.360  1.1275 -3.6640  0.1210
 7217TIP3   OH221593   4.565   6.273   6.548  0.0600 -0.4704 -0.1741
 7217TIP3    H121594   4.562   6.255   6.454  0.2832  0.8743 -0.4548
 7217TIP3    H221595   4.544   6.366   6.555 -2.0488 -0.9918  1.2812
 7218TIP3   OH221596   7.769   6.044   2.146  0.2853 -0.3870 -0.1373
 7218TIP3    H121597   7.793   6.046   2.053  1.2177 -1.3492  0.0704
 7218TIP3    H221598   7.794   6.131   2.178 -0.4687  0.1238 -0.8692
 7219TIP3   OH221599   0.427   0.756   6.480  0.1525  0.0552  0.6845
 7219TIP3    H121600   0.507   0.801   6.455  0.1502  1.1050  2.4719
 7219TIP3    H221601   0.357   0.818   6.458 -0.1154 -0.4271  0.1312
 7220TIP3   OH221602   5.251   7.697   0.553 -0.4331 -0.2387 -0.9039
 7220TIP3    H121603   5.263   7.605   0.531 -1.5977 -0.9436  1.1866
 7220TIP3    H221604   5.273   7.703   0.646 -0.3109  1.6275 -1.0086
 7221TIP3   OH221605   5.709   4.082   2.114 -0.1451  0.6428  0.0054
 7221TIP3    H121606   5.746   4.167   2.138 -0.1093  0.8595 -0.7755
 7221TIP3    H221607   5.784   4.025   2.101 -0.0336  1.0965 -1.6328
 7222TIP3   OH221608   0.678   3.499   4.373  0.0889 -0.4957  0.2683
 7222TIP3    H121609   0.718   3.495   4.460  1.0718  1.1906 -0.0621
 7222TIP3    H221610   0.597   3.447   4.381  0.4751 -0.8896  1.9898
 7223TIP3   OH221611   7.837   1.381   2.121 -0.4886 -0.2424  0.2213
 7223TIP3    H121612   7.817   1.443   2.051  0.5058 -0.8708 -0.6604
 7223TIP3    H221613   7.763   1.319   2.120  0.8051 -1.9410 -2.2950
 7224TIP3   OH221614   3.611   0.192   4.083  0.0249 -0.6158  0.0463
 7224TIP3    H121615   3.518   0.194   4.060  0.2798 -0.7401 -1.0482
 7224TIP3    H221616   3.613   0.213   4.177 -1.0606 -0.1316 -0.0221
 7225TIP3   OH221617   2.122   0.816   1.259 -0.5747 -0.3795  0.3696
 7225TIP3    H121618   2.130   0.862   1.176  1.0147  1.3428  1.3971
 7225TIP3    H221619   2.198   0.759   1.262 -0.6018 -0.4033  0.6524
 7226TIP3   OH221620   0.534   6.423   1.998 -0.4704  0.4782 -0.1894
 7226TIP3    H121621   0.606   6.359   1.996 -0.1228  0.8717 -2.1052
 7226TIP3    H221622   0.464   6.378   2.047 -0.7401 -1.9937 -2.6157
 7227TIP3   OH221623   1.060   5.061   6.111 -0.5642  0.2196  0.6518
 7227TIP3    H121624   1.073   4.968   6.127  1.6909  0.6061  1.3950
 7227TIP3    H221625   1.069   5.071   6.016 -0.9260 -0.3187  0.5610
 7228TIP3   OH221626   4.160   6.634   5.615 -0.5888 -0.7360  0.2668
 7228TIP3    H121627   4.170   6.544   5.583  2.0483 -0.7607  0.9001
 7228TIP3    H221628   4.149   6.686   5.536 -0.4134 -1.4476 -0.2412
 7229TIP3   OH221629   1.838   3.086   0.055  0.5731 -0.1736  0.2307
 7229TIP3    H121630   1.758   3.053   0.014  1.5377  0.3580 -2.2168
 7229TIP3    H221631   1.890   3.008   0.074 -0.0136 -0.4418  0.7854
 7230TIP3   OH221632   1.513   4.875   4.701  0.2844  0.0645 -0.0247
 7230TIP3    H121633   1.478   4.839   4.619  2.0734 -0.9794 -0.3988
 7230TIP3    H221634   1.573   4.944   4.673  1.3191 -0.6641  0.3525
 7231TIP3   OH221635   6.691   2.917   5.033  0.2982 -0.3591 -0.1708
 7231TIP3    H121636   6.658   2.941   4.947 -2.2823 -0.7492  0.6294
 7231TIP3    H221637   6.668   2.991   5.089 -0.6637 -1.3029  0.7207
 7232TIP3   OH221638   4.199   5.462   3.630  0.0073 -0.1269 -0.1618
 7232TIP3    H121639   4.187   5.540   3.684  1.3917 -0.2493  0.3559
 7232TIP3    H221640   4.126   5.404   3.655  0.0041  0.2644  0.7620
 7233TIP3   OH221641   0.413   5.971   3.479 -0.2916  0.7790  0.5913
 7233TIP3    H121642   0.490   6.017   3.515  0.0369  0.9696 -0.3107
 7233TIP3    H221643   0.342   5.993   3.539  0.3055  0.8005  1.3109
 7234TIP3   OH221644   5.976   4.731   5.897  0.3280  0.3128 -0.0515
 7234TIP3    H121645   5.953   4.669   5.828  1.4597  0.5830 -0.6958
 7234TIP3    H221646   6.011   4.676   5.967  0.0420  0.1099 -0.0680
 7235TIP3   OH221647   0.223   2.582   5.635  0.2514 -0.4141  0.2730
 7235TIP3    H121648   0.253   2.672   5.641 -2.0547  0.4560 -0.3019
 7235TIP3    H221649   0.203   2.557   5.725 -0.2363  0.0835  0.3066
 7236TIP3   OH221650   4.706   6.977   4.358  0.3649 -0.1663  0.1609
 7236TIP3    H121651   4.685   6.933   4.276  0.7647 -0.5946  0.2797
 7236TIP3    H221652   4.667   6.921   4.426  2.6381 -1.5357  0.4550
 7237TIP3   OH221653   7.118   7.582   3.068  0.1486 -0.1249  0.4510
 7237TIP3    H121654   7.162   7.627   3.140 -1.1254  1.3159  0.3868
 7237TIP3    H221655   7.184   7.576   2.999  0.6671  0.6974  0.8605
 7238TIP3   OH221656   6.118   2.901   6.629 -0.0750  0.1598  0.2965
 7238TIP3    H121657   6.044   2.954   6.658  0.9105  1.1542  1.1177
 7238TIP3    H221658   6.090   2.810   6.643 -0.9272  0.5367  1.1392
 7239TIP3   OH221659   7.962   2.285   0.325 -0.1406 -0.1160  0.0006
 7239TIP3    H121660   7.961   2.203   0.277 -1.9961 -0.0673 -0.1175
 7239TIP3    H221661   7.986   2.352   0.260  0.2541 -0.4070 -0.1564
 7240TIP3   OH221662   7.180   3.944   4.294 -0.0411 -0.0425 -0.5771
 7240TIP3    H121663   7.146   3.986   4.373 -1.3679 -0.6507 -0.8013
 7240TIP3    H221664   7.225   3.865   4.326  2.2009  1.3024 -0.1823
 7241TIP3   OH221665   8.191   1.100   0.248  0.0079 -0.2860  0.0395
 7241TIP3    H121666   8.280   1.072   0.228  0.2012  1.0686 -1.1816
 7241TIP3    H221667   8.185   1.097   0.343  1.2161 -0.7697  0.1171
 7242TIP3   OH221668   3.353   0.896   6.631 -0.0155  0.4351 -0.1760
 7242TIP3    H121669   3.293   0.939   6.692  0.1048  0.5605 -0.1470
 7242TIP3    H221670   3.435   0.943   6.641 -0.1056  0.7167 -0.7347
 7243TIP3   OH221671   0.985   0.395   6.769 -0.3485  0.0104 -0.6367
 7243TIP3    H121672   0.899   0.412   6.730 -1.6560  1.3224  2.4552
 7243TIP3    H221673   0.981   0.304   6.799 -1.7937  0.7832  1.7885
 7244TIP3   OH221674   1.380   7.776   3.375  0.3278  0.4479 -0.2865
 7244TIP3    H121675   1.365   7.785   3.469  0.5447  0.4745 -0.2533
 7244TIP3    H221676   1.390   7.866   3.344 -1.4344  0.5551 -0.6269
 7245TIP3   OH221677   4.985   7.057   5.632 -0.3773  0.1965  0.2799
 7245TIP3    H121678   4.928   7.128   5.659  0.0997  0.6259  0.1777
 7245TIP3    H221679   4.969   7.048   5.538  0.3688  0.9237  0.0704
 7246TIP3   OH221680   7.572   7.167   5.440  0.1973  0.1882 -0.0627
 7246TIP3    H121681   7.521   7.090   5.417 -0.2175 -1.0510  4.1360
 7246TIP3    H221682   7.657   7.132   5.468  0.6325  1.4582  0.2747
 7247TIP3   OH221683   1.335   5.753   6.475 -0.7400 -0.1368 -0.1592
 7247TIP3    H121684   1.338   5.738   6.569  0.8212 -1.6072 -0.3907
 7247TIP3    H221685   1.419   5.793   6.454 -0.6574 -0.7365 -1.0399
 7248TIP3   OH221686   0.254   6.558   4.136 -0.7050 -0.0924  0.3599
 7248TIP3    H121687   0.317   6.614   4.183  0.9827 -1.5771 -0.0006
 7248TIP3    H221688   0.274   6.574   4.043  1.9124 -3.2929  0.1771
 7249TIP3   OH221689   4.116   3.964   4.283 -0.1568  0.3531 -0.6941
 7249TIP3    H121690   4.131   4.025   4.355 -0.4788 -1.5158  1.0503
 7249TIP3    H221691   4.021   3.954   4.278 -0.0929 -0.3622 -0.6201
 7250TIP3   OH221692   5.982   4.928   2.067  0.2067 -0.2777  0.0753
 7250TIP3    H121693   6.010   5.019   2.060 -0.8046 -0.0648 -2.0198
 7250TIP3    H221694   6.055   4.884   2.111  0.6367  1.5514  1.3095
 7251TIP3   OH221695   1.592   6.444   3.755  0.0977 -0.3934  0.4905
 7251TIP3    H121696   1.665   6.382   3.753  0.3488 -0.1000  0.4936
 7251TIP3    H221697   1.609   6.504   3.683  0.1003 -0.0520  0.7739
 7252TIP3   OH221698   0.821   6.807   6.181  0.3811 -0.1907 -0.0869
 7252TIP3    H121699   0.891   6.796   6.245  0.9754 -0.1122 -0.7070
 7252TIP3    H221700   0.829   6.731   6.123  0.5326  0.2782 -0.6937
 7253TIP3   OH221701   2.834   0.019   1.970 -0.2096  0.3648  0.4600
 7253TIP3    H121702   2.752   0.066   1.987 -1.7162 -1.9610  0.1968
 7253TIP3    H221703   2.816  -0.032   1.891  0.8455 -1.5409  1.3633
 7254TIP3   OH221704   1.893   2.053   3.709  0.2219 -0.3567  0.0931
 7254TIP3    H121705   1.935   2.138   3.699  0.5037 -0.7717 -4.5148
 7254TIP3    H221706   1.800   2.073   3.721  0.1130  0.7331 -2.0546
 7255TIP3   OH221707   3.527   1.442   5.322 -0.6083 -0.0815  0.2998
 7255TIP3    H121708   3.531   1.452   5.227 -0.1107  2.8016  0.5437
 7255TIP3    H221709   3.618   1.445   5.351 -0.8004 -0.0735  0.9370
 7256TIP3   OH221710   6.006   2.138   3.176 -0.1003 -0.5674 -0.1631
 7256TIP3    H121711   6.065   2.086   3.121  0.0744 -0.5802  0.0342
 7256TIP3    H221712   5.971   2.205   3.118  0.2395 -0.4561 -0.2385
 7257TIP3   OH221713   3.508   4.517   0.998  0.4595  0.1842  0.2488
 7257TIP3    H121714   3.572   4.473   1.053 -0.4692  0.2885  1.4380
 7257TIP3    H221715   3.424   4.479   1.023 -0.0310  0.5085 -0.8308
 7258TIP3   OH221716   6.561   6.175   4.500  0.3075 -0.2733  0.1182
 7258TIP3    H121717   6.510   6.136   4.429 -1.0491 -1.7902  1.8203
 7258TIP3    H221718   6.496   6.223   4.552  1.0668 -0.0771  0.9052
 7259TIP3   OH221719   6.076   0.996   3.483  0.4837  0.4775 -0.3845
 7259TIP3    H121720   6.115   0.923   3.532 -1.6486  0.0845  0.8736
 7259TIP3    H221721   6.029   0.954   3.411 -1.8238  0.3420  1.0614
 7260TIP3   OH221722   6.851   0.459   3.583  0.3375 -0.1771  0.6893
 7260TIP3    H121723   6.909   0.529   3.552 -0.0248  0.0142  0.4373
 7260TIP3    H221724   6.868   0.386   3.524 -0.1817  0.1101  0.1674
 7261TIP3   OH221725   5.236   2.181   3.770 -0.8361  0.3807  0.0635
 7261TIP3    H121726   5.279   2.232   3.701  0.3911  0.6957  1.0038
 7261TIP3    H221727   5.294   2.192   3.846 -1.9443 -0.2633  1.0280
 7262TIP3   OH221728   3.536   5.923   5.416  0.1423 -0.0549  0.0134
 7262TIP3    H121729   3.581   5.864   5.356 -0.8394  0.1577 -0.9528
 7262TIP3    H221730   3.534   6.007   5.371  0.2475  0.3580  0.7642
 7263TIP3   OH221731   5.765   5.291   4.015 -0.3237  0.2009  0.2843
 7263TIP3    H121732   5.757   5.220   4.079 -2.5824  0.1278 -0.0046
 7263TIP3    H221733   5.702   5.268   3.946  1.9506  0.3280 -1.9575
 7264TIP3   OH221734   5.451   5.062   2.769 -0.5581 -0.2035 -0.4744
 7264TIP3    H121735   5.444   5.145   2.816  0.6155  0.1999 -0.9691
 7264TIP3    H221736   5.474   4.998   2.836 -1.1592 -0.0704 -0.1384
 7265TIP3   OH221737   0.879   4.664   3.267  0.8061 -0.7788  0.7302
 7265TIP3    H121738   0.842   4.649   3.180  2.2047 -2.0676  0.2895
 7265TIP3    H221739   0.807   4.648   3.328  0.3104 -1.9854 -0.1281
 7266TIP3   OH221740   1.136   1.379   6.043  0.4283  0.0872  0.1611
 7266TIP3    H121741   1.145   1.311   5.977  0.2133  0.6830 -0.4918
 7266TIP3    H221742   1.200   1.357   6.110  0.2123 -0.8752  0.0607
 7267TIP3   OH221743   5.177   3.105   1.403 -0.3653  0.0119 -0.0714
 7267TIP3    H121744   5.216   3.180   1.356  0.1892 -1.3866 -1.9718
 7267TIP3    H221745   5.219   3.029   1.364 -2.2673 -1.3942  0.5129
 7268TIP3   OH221746   4.426   4.590   4.055  0.3878  0.0265 -0.5810
 7268TIP3    H121747   4.344   4.541   4.055  1.1989 -1.3941  0.1324
 7268TIP3    H221748   4.400   4.681   4.039 -1.3850 -0.2743  0.3407
 7269TIP3   OH221749   7.558   0.220   5.792 -0.1137  0.4219 -0.3107
 7269TIP3    H121750   7.627   0.206   5.856 -0.5650 -0.7804 -0.0623
 7269TIP3    H221751   7.554   0.138   5.743 -0.3375  1.0247 -1.3373
 7270TIP3   OH221752   4.071   3.036   0.165  0.3067  0.4667 -0.5655
 7270TIP3    H121753   4.155   2.992   0.151 -0.1796 -1.5866  2.2210
 7270TIP3    H221754   4.031   3.039   0.078  2.4994 -0.0423 -1.6748
 7271TIP3   OH221755   7.437   7.550   1.839 -0.2381 -0.6271 -0.6635
 7271TIP3    H121756   7.393   7.635   1.833  0.3723 -0.1957  0.4867
 7271TIP3    H221757   7.377   7.488   1.799 -1.3495  0.1265 -0.2105
 7272TIP3   OH221758   3.847   0.828   6.679 -0.0736 -0.4646 -0.9443
 7272TIP3    H121759   3.830   0.743   6.719  1.2615  0.5758  2.1744
 7272TIP3    H221760   3.933   0.818   6.639  0.7274 -0.2831  0.6395
 7273TIP3   OH221761   5.620   6.080   1.445  0.1824  0.5056 -0.0317
 7273TIP3    H121762   5.707   6.066   1.484 -0.9403 -0.9507  2.1857
 7273TIP3    H221763   5.614   6.175   1.437  2.0586  0.6408 -0.4897
 7274TIP3   OH221764   5.966   7.573   0.590  0.2948  0.2342 -0.1180
 7274TIP3    H121765   5.872   7.563   0.603  0.1400  0.7342 -0.8340
 7274TIP3    H221766   6.004   7.498   0.635 -0.4196  0.2350  0.5050
 7275TIP3   OH221767   4.412   0.252   2.309  0.4063  0.0368  0.3105
 7275TIP3    H121768   4.484   0.263   2.372  1.6232  0.2724 -1.0576
 7275TIP3    H221769   4.400   0.157   2.303  0.6362 -0.0076  0.5178
 7276TIP3   OH221770   4.098   3.870   3.208 -0.1709 -0.5458  0.9540
 7276TIP3    H121771   4.182   3.853   3.249 -0.2147 -2.5775  0.2937
 7276TIP3    H221772   4.091   3.804   3.139 -0.7022  1.8264 -1.4500
 7277TIP3   OH221773   1.818   3.836   6.489  0.3527  0.0372  0.2627
 7277TIP3    H121774   1.889   3.900   6.482  0.3495  0.3013  2.0652
 7277TIP3    H221775   1.857   3.753   6.463 -0.1865  0.9534 -4.2731
 7278TIP3   OH221776   1.400   2.425   1.762  0.6264  0.3504  0.0643
 7278TIP3    H121777   1.413   2.510   1.721  0.8011 -0.3193 -1.3205
 7278TIP3    H221778   1.476   2.414   1.819  0.6146  1.0948  0.2395
 7279TIP3   OH221779   7.879   7.327   1.213  0.4786 -0.2621 -0.5272
 7279TIP3    H121780   7.866   7.345   1.120  1.8862  2.8764 -0.2385
 7279TIP3    H221781   7.938   7.251   1.215  1.1335  0.1497 -2.2190
 7280TIP3   OH221782   6.051   2.554   6.285  0.6256  0.1464 -0.0644
 7280TIP3    H121783   5.972   2.589   6.326  1.2264  0.8658  0.5063
 7280TIP3    H221784   6.123   2.588   6.339  1.3458 -0.1282 -0.8354
 7281TIP3   OH221785   0.199   1.887   0.570  0.7834 -0.0642 -0.2324
 7281TIP3    H121786   0.193   1.976   0.604 -2.3630  0.2331 -1.2275
 7281TIP3    H221787   0.196   1.897   0.475 -0.5642 -1.2059 -0.3506
 7282TIP3   OH221788   0.816   4.210   3.514  0.1238 -0.8021 -0.1868
 7282TIP3    H121789   0.841   4.253   3.595 -0.1108 -0.2346 -0.4122
 7282TIP3    H221790   0.775   4.278   3.462 -0.6912 -1.4038 -0.3585
 7283TIP3   OH221791   0.446   3.767   1.899 -0.1623  0.2115 -0.0456
 7283TIP3    H121792   0.445   3.809   1.985 -1.8484  1.4442 -0.6049
 7283TIP3    H221793   0.465   3.838   1.838 -1.8196 -0.0342 -0.9095
 7284TIP3   OH221794   2.610   5.251   6.505 -0.0341  0.1487  0.0404
 7284TIP3    H121795   2.676   5.247   6.574  0.6247 -2.5193 -0.6383
 7284TIP3    H221796   2.529   5.276   6.550  0.6924 -0.1285  1.5343
 7285TIP3   OH221797   6.405   5.933   2.464  0.1012 -0.5601  0.6364
 7285TIP3    H121798   6.378   5.849   2.427  1.7109 -1.4088  1.2789
 7285TIP3    H221799   6.471   5.965   2.403 -1.0613  0.6551 -0.0254
 7286TIP3   OH221800   5.908   1.488   4.304 -0.1615 -0.2119 -0.1566
 7286TIP3    H121801   5.931   1.560   4.363 -0.0689  0.5121 -1.0511
 7286TIP3    H221802   5.813   1.483   4.307 -0.1186 -0.6621  0.6060
 7287TIP3   OH221803   3.811   7.148   6.393  0.1509 -0.2060  0.3206
 7287TIP3    H121804   3.838   7.092   6.466 -1.2950 -2.1575 -0.5677
 7287TIP3    H221805   3.733   7.193   6.425 -0.3954 -0.9469  0.0380
 7288TIP3   OH221806   0.741   0.146   3.343 -0.2650 -0.3175 -0.5288
 7288TIP3    H121807   0.701   0.223   3.384 -0.7352 -0.9678  0.2680
 7288TIP3    H221808   0.826   0.139   3.385 -0.0534 -0.0025 -0.8975
 7289TIP3   OH221809   7.388   4.556   2.603  0.3723 -0.3376 -0.3152
 7289TIP3    H121810   7.387   4.644   2.566 -0.1149  0.6139  1.8150
 7289TIP3    H221811   7.419   4.500   2.532 -1.1722  1.2425 -2.3362
 7290TIP3   OH221812   6.971   1.954   6.439  0.0294 -0.1967 -0.2998
 7290TIP3    H121813   7.043   1.939   6.501  1.1624  0.7663 -1.3295
 7290TIP3    H221814   6.973   2.048   6.424  0.4077 -0.5070 -2.4944
 7291TIP3   OH221815   8.161   5.818   3.152 -0.4066  0.6408  0.4648
 7291TIP3    H121816   8.134   5.744   3.098  1.0349  1.2754 -1.2020
 7291TIP3    H221817   8.235   5.784   3.202 -0.7259  0.5264  0.8669
 7292TIP3   OH221818   7.875   4.458   3.358  0.4508  0.0671 -0.0799
 7292TIP3    H121819   7.875   4.477   3.452  1.3366 -1.4766  0.2626
 7292TIP3    H221820   7.785   4.431   3.339 -0.1580  1.9241 -0.0550
 7293TIP3   OH221821   4.959   3.143   4.762  0.0821 -0.2804 -0.7338
 7293TIP3    H121822   4.899   3.203   4.806 -1.0071 -1.4426 -0.6049
 7293TIP3    H221823   4.913   3.117   4.682  0.1693 -1.5777 -0.3853
 7294TIP3   OH221824   6.100   5.115   0.131  0.3800  0.5488  0.0573
 7294TIP3    H121825   6.172   5.133   0.191  0.2883  1.0089  0.0330
 7294TIP3    H221826   6.109   5.181   0.062  0.4491  0.0625 -0.4026
 7295TIP3   OH221827   1.466   3.053   0.052  0.4175  0.2331  0.5432
 7295TIP3    H121828   1.414   3.131   0.030 -0.2629 -0.3300  0.1279
 7295TIP3    H221829   1.526   3.083   0.120  0.1700  1.1258  0.3813
 7296TIP3   OH221830   6.914   2.103   4.402 -0.0935  0.2674 -0.2594
 7296TIP3    H121831   6.975   2.087   4.475  0.6262 -0.3790 -0.9865
 7296TIP3    H221832   6.937   2.038   4.336 -3.2176 -1.6807  0.3820
 7297TIP3   OH221833   3.223   1.892   0.250  0.3698  0.4387 -0.1666
 7297TIP3    H121834   3.172   1.877   0.170  2.0600 -0.6230 -1.0884
 7297TIP3    H221835   3.159   1.883   0.320 -0.6331 -1.3997 -1.2495
 7298TIP3   OH221836   6.456   6.258   2.902 -0.0913  0.1047  0.1455
 7298TIP3    H121837   6.527   6.258   2.838 -0.9652 -1.0086 -0.8594
 7298TIP3    H221838   6.499   6.242   2.986  0.8290 -0.7747 -0.4746
 7299TIP3   OH221839   0.661   3.599   2.244  0.2213 -0.5927 -0.3569
 7299TIP3    H121840   0.586   3.595   2.302  0.8876 -0.5202  0.5341
 7299TIP3    H221841   0.624   3.613   2.157 -0.7341  0.9443  0.2627
 7300TIP3   OH221842   4.882   3.643   4.687  0.0201 -0.1532  0.1018
 7300TIP3    H121843   4.919   3.590   4.617  0.4434 -0.1252  0.3000
 7300TIP3    H221844   4.887   3.733   4.655  0.9115 -0.0624  0.4646
 7301TIP3   OH221845   1.115   3.019   4.755  0.6072 -0.3980  0.3485
 7301TIP3    H121846   1.086   3.041   4.843  1.3498  0.3543  0.4236
 7301TIP3    H221847   1.168   3.094   4.728 -0.6118 -0.0486 -1.2306
 7302TIP3   OH221848   2.240   4.903   1.275  0.1347  0.1871  0.8275
 7302TIP3    H121849   2.276   4.991   1.288 -1.2157  0.7650  0.9337
 7302TIP3    H221850   2.182   4.890   1.350 -3.6459  1.3805 -1.5439
 7303TIP3   OH221851   5.907   5.649   4.496 -0.1001  0.0063 -0.7112
 7303TIP3    H121852   5.924   5.610   4.411 -0.5963 -0.2729 -0.6886
 7303TIP3    H221853   5.827   5.701   4.482 -1.6612 -2.0311  0.1751
 7304TIP3   OH221854   0.775   4.406   1.949  0.5640 -0.0056 -0.5752
 7304TIP3    H121855   0.805   4.413   2.040 -1.1303  0.4458 -0.0062
 7304TIP3    H221856   0.679   4.406   1.956  0.3764  1.7056 -2.4789
 7305TIP3   OH221857   1.000   2.653   6.151 -0.1302 -0.3054 -0.2936
 7305TIP3    H121858   1.051   2.623   6.227 -1.3251  1.2010  1.1862
 7305TIP3    H221859   1.006   2.581   6.088  3.4291 -0.4018 -0.0612
 7306TIP3   OH221860   3.772   2.692   5.939  0.3675  0.1830  0.2800
 7306TIP3    H121861   3.688   2.721   5.973  1.0495  0.6251  1.6748
 7306TIP3    H221862   3.760   2.689   5.844 -1.3653 -0.2844  0.4817
 7307TIP3   OH221863   6.276   6.897   3.271 -0.0386  0.3314 -0.7794
 7307TIP3    H121864   6.301   6.817   3.316  1.5801  0.0638 -2.0791
 7307TIP3    H221865   6.186   6.914   3.301 -0.3024 -1.7549 -0.2220
 7308TIP3   OH221866   7.810   1.557   0.287  0.5677  0.6244  0.2461
 7308TIP3    H121867   7.862   1.561   0.367 -0.0802 -0.6360  0.7600
 7308TIP3    H221868   7.757   1.478   0.297  1.2492 -0.1532 -1.9269
 7309TIP3   OH221869   4.963   4.498   4.825  0.2894 -0.0205 -0.0312
 7309TIP3    H121870   4.948   4.466   4.736 -0.4569 -1.6166  0.6278
 7309TIP3    H221871   5.045   4.457   4.852  0.3092  0.1407  0.1598
 7310TIP3   OH221872   0.575   0.409   0.446  0.2067  0.2717  0.2067
 7310TIP3    H121873   0.585   0.460   0.526 -0.7104 -0.7763  1.0118
 7310TIP3    H221874   0.480   0.407   0.430  0.4323  1.6995 -1.7456
 7311TIP3   OH221875   2.252   0.680   5.594  0.3019 -0.0373  0.0548
 7311TIP3    H121876   2.317   0.701   5.527 -0.3257  3.5040  0.3349
 7311TIP3    H221877   2.304   0.656   5.671  1.1087 -1.2416 -0.8316
 7312TIP3   OH221878   4.719   1.147   5.290 -0.1889 -0.4945 -0.1214
 7312TIP3    H121879   4.795   1.130   5.234  0.3566 -0.5602  0.6265
 7312TIP3    H221880   4.740   1.229   5.334 -0.0076 -1.1205  0.9835
 7313TIP3   OH221881   0.832   2.506   2.774 -0.4555  0.1704  0.5053
 7313TIP3    H121882   0.804   2.593   2.746 -1.1891  0.2597  1.4668
 7313TIP3    H221883   0.911   2.521   2.826 -0.2755  0.2019  0.2261
 7314TIP3   OH221884   6.493   1.935   2.244 -0.6832  0.2437 -0.0092
 7314TIP3    H121885   6.401   1.920   2.224 -0.2961 -0.7243 -1.2086
 7314TIP3    H221886   6.496   2.025   2.275 -2.0592  0.2253  0.2468
 7315TIP3   OH221887   7.576   5.079   3.991  0.0392 -0.0849 -0.8719
 7315TIP3    H121888   7.548   5.097   4.081  0.0547  0.1802 -0.9178
 7315TIP3    H221889   7.655   5.131   3.979 -0.6838  0.9318 -1.4550
 7316TIP3   OH221890   0.250   1.504   0.684 -0.3166  0.1540 -0.3096
 7316TIP3    H121891   0.313   1.547   0.743 -0.1112 -0.1937 -0.2743
 7316TIP3    H221892   0.176   1.564   0.680  0.5528  1.2287 -1.3833
 7317TIP3   OH221893   0.304   5.787   2.243  0.3552  0.0307 -0.1175
 7317TIP3    H121894   0.229   5.728   2.256  0.6688 -0.3106  0.1779
 7317TIP3    H221895   0.275   5.848   2.175  0.6363 -1.5498 -1.7396
 7318TIP3   OH221896   1.587   1.547   2.140 -0.4984  0.0774  0.0050
 7318TIP3    H121897   1.500   1.564   2.176 -0.3690 -1.2487  1.0190
 7318TIP3    H221898   1.630   1.492   2.205  0.4619 -0.7627 -1.2813
 7319TIP3   OH221899   2.473   5.672   3.935  0.2624 -0.5883  0.0887
 7319TIP3    H121900   2.457   5.709   4.022  0.2872  1.9469 -0.8985
 7319TIP3    H221901   2.566   5.688   3.919 -0.5124  2.7451 -1.9156
 7320TIP3   OH221902   1.704   2.677   2.750  0.1875 -0.0400 -0.1794
 7320TIP3    H121903   1.637   2.676   2.682 -0.2665 -0.3217  0.2639
 7320TIP3    H221904   1.764   2.606   2.726 -1.0375 -1.4497  0.7383
 7321TIP3   OH221905   0.082   5.874   3.947  0.0438  0.4479  0.3569
 7321TIP3    H121906   0.177   5.878   3.955 -0.0570  0.0901  2.0549
 7321TIP3    H221907   0.057   5.795   3.995 -1.1352  0.6373  0.0991
 7322TIP3   OH221908   6.871   3.586   5.229 -0.3429 -0.1812  0.5165
 7322TIP3    H121909   6.933   3.564   5.160 -1.2425 -0.7443 -0.1268
 7322TIP3    H221910   6.839   3.673   5.206  0.6002  0.3462  1.1487
 7323TIP3   OH221911   6.912   1.452   3.694 -0.5363  0.4415  0.2996
 7323TIP3    H121912   6.913   1.464   3.599 -0.5580 -0.5996  0.1505
 7323TIP3    H221913   6.916   1.357   3.706  0.0011  0.5831  1.3550
 7324TIP3   OH221914   0.512   4.932   1.733 -0.2663  0.0996 -0.4191
 7324TIP3    H121915   0.604   4.949   1.755  0.0853  0.3262 -1.9703
 7324TIP3    H221916   0.469   4.920   1.818  0.8103  1.8566  0.4266
 7325TIP3   OH221917   7.603   4.322   5.254 -0.3450  0.5733  0.2232
 7325TIP3    H121918   7.676   4.382   5.269  0.1888 -0.0786  0.3200
 7325TIP3    H221919   7.552   4.324   5.335  2.3696 -2.7274  2.3035
 7326TIP3   OH221920   1.075   1.513   0.168  0.2037 -0.5111  0.1965
 7326TIP3    H121921   1.127   1.468   0.235 -0.9032 -0.3617  1.1943
 7326TIP3    H221922   1.140   1.552   0.109  1.1887 -2.0576  0.2142
 7327TIP3   OH221923   6.745   6.614   6.049  0.5470 -0.4113  0.0504
 7327TIP3    H121924   6.686   6.599   6.124 -0.4240  2.6063  0.0365
 7327TIP3    H221925   6.783   6.701   6.066  3.1263 -1.2122 -1.2041
 7328TIP3   OH221926   6.645   1.089   4.701  0.1203 -0.1670  0.2686
 7328TIP3    H121927   6.710   1.025   4.731 -0.3788 -0.3496  0.9716
 7328TIP3    H221928   6.565   1.065   4.747 -0.0816  0.9546  0.5281
 7329TIP3   OH221929   3.898   7.712   6.113 -0.0193  0.3791  0.0661
 7329TIP3    H121930   3.905   7.807   6.127 -0.5357  0.3787  0.3501
 7329TIP3    H221931   3.805   7.697   6.098  0.0541 -0.0947  0.0780
 7330TIP3   OH221932   5.959   7.445   6.685  0.0571  0.0754  0.1622
 7330TIP3    H121933   6.012   7.379   6.640 -1.4382 -1.5380  0.6109
 7330TIP3    H221934   5.870   7.427   6.656 -0.5845  0.8730  1.5219
 7331TIP3   OH221935   6.420   0.143   4.859  0.0091 -0.5052 -0.5816
 7331TIP3    H121936   6.473   0.091   4.798  1.8070  0.5666 -0.0274
 7331TIP3    H221937   6.452   0.117   4.945 -1.2098 -0.6480 -0.1526
 7332TIP3   OH221938   1.870   5.920   4.843 -0.4814 -0.2564  0.2925
 7332TIP3    H121939   1.880   5.909   4.938 -2.3256 -0.3263  0.5074
 7332TIP3    H221940   1.957   5.945   4.813  0.0689  0.0933  2.0569
 7333TIP3   OH221941   6.847   4.498   0.914 -0.2794 -0.8648  0.3649
 7333TIP3    H121942   6.930   4.534   0.945 -0.5118 -1.1152  1.3097
 7333TIP3    H221943   6.782   4.526   0.978 -1.3273  0.9978 -1.3785
 7334TIP3   OH221944   7.386   0.031   3.823  0.2256  0.2034 -0.5433
 7334TIP3    H121945   7.304  -0.018   3.824  1.2645 -1.6911  1.6678
 7334TIP3    H221946   7.416   0.026   3.732 -1.5747  0.0736 -1.1632
 7335TIP3   OH221947   5.440   7.752   0.281 -0.1680  0.1864 -0.7124
 7335TIP3    H121948   5.353   7.777   0.250 -1.0755 -0.8964  0.8303
 7335TIP3    H221949   5.430   7.662   0.312  1.5149  0.0371 -0.5061
 7336TIP3   OH221950   4.506   6.041   0.271  0.1225  0.0496  0.7960
 7336TIP3    H121951   4.440   6.097   0.312 -1.6354 -0.9858 -0.5043
 7336TIP3    H221952   4.515   5.967   0.330 -1.4869 -0.8250  0.0285
 7337TIP3   OH221953   0.226   3.727   2.426 -0.1223 -0.4400  0.1069
 7337TIP3    H121954   0.315   3.692   2.418  0.3714  0.4443  1.4964
 7337TIP3    H221955   0.171   3.649   2.442  0.1992 -1.1212 -1.8605
 7338TIP3   OH221956   3.340   4.697   4.942  0.1736 -0.2956  0.3548
 7338TIP3    H121957   3.399   4.712   5.016 -0.6538  1.6977  0.6519
 7338TIP3    H221958   3.345   4.778   4.891 -0.0523 -1.2515 -1.2439
 7339TIP3   OH221959   1.689   0.401   2.875 -0.1759  0.0129 -0.1523
 7339TIP3    H121960   1.617   0.338   2.865 -0.4902  0.4298 -0.5901
 7339TIP3    H221961   1.652   0.484   2.845  1.0979 -0.1638 -2.4370
 7340TIP3   OH221962   7.770   5.346   5.988 -0.2210 -0.2145  0.0745
 7340TIP3    H121963   7.784   5.330   5.894  0.0223  3.2490 -0.6265
 7340TIP3    H221964   7.840   5.406   6.012 -1.1337  0.0933  2.1485
 7341TIP3   OH221965   4.310   3.435   0.621 -0.1972 -0.2329  0.1232
 7341TIP3    H121966   4.307   3.512   0.565  2.7842 -0.3621 -0.3853
 7341TIP3    H221967   4.274   3.365   0.568 -1.5891  0.4968  0.0674
 7342TIP3   OH221968   1.622   3.014   2.415  0.4026 -0.3127  0.2480
 7342TIP3    H121969   1.711   3.036   2.441  0.4194 -0.4260  0.2890
 7342TIP3    H221970   1.606   2.928   2.456  0.8859 -1.1148 -1.1591
 7343TIP3   OH221971   2.939   5.346   3.742  0.2180  0.0025  0.4142
 7343TIP3    H121972   2.980   5.428   3.769 -2.1465  1.5252 -0.2530
 7343TIP3    H221973   2.858   5.341   3.794 -0.2085 -1.3702 -0.3193
 7344TIP3   OH221974   0.925   7.038   1.531  0.7042 -0.3276 -0.2080
 7344TIP3    H121975   0.879   7.042   1.614  1.6916  1.7078  0.2899
 7344TIP3    H221976   0.864   7.075   1.467 -0.0357 -1.8501 -0.4285
 7345TIP3   OH221977   5.212   4.041   0.061  0.2635 -0.3657  0.6362
 7345TIP3    H121978   5.182   3.950   0.059  4.4873 -1.9912  0.2518
 7345TIP3    H221979   5.215   4.064   0.153 -0.1488 -0.8692  0.7783
 7346TIP3   OH221980   3.947   7.599   4.362  0.1736  0.0800  0.1248
 7346TIP3    H121981   3.929   7.594   4.455 -0.7749 -2.0509 -0.1250
 7346TIP3    H221982   4.004   7.524   4.344 -1.2444 -0.7301 -1.2990
 7347TIP3   OH221983   7.611   6.726   5.228  0.4162  0.0407  0.2539
 7347TIP3    H121984   7.603   6.781   5.306  3.1523  0.5021  0.3206
 7347TIP3    H221985   7.593   6.637   5.259  0.1265  0.3896  1.0980
 7348TIP3   OH221986   0.556   2.131   1.987  0.4831  0.2091  0.0025
 7348TIP3    H121987   0.462   2.118   1.993  0.1717  1.7179 -0.9807
 7348TIP3    H221988   0.583   2.075   1.914  0.0059  1.1800 -0.9469
 7349TIP3   OH221989   3.847   6.569   6.343 -0.4334  0.2629  0.7043
 7349TIP3    H121990   3.791   6.615   6.406 -0.6723  0.3302  0.4442
 7349TIP3    H221991   3.848   6.626   6.266  0.5409  0.5923  0.9546
 7350TIP3   OH221992   8.198   4.172   5.595 -0.0766  0.5143 -0.8683
 7350TIP3    H121993   8.144   4.181   5.673 -0.7067  0.4065 -1.2826
 7350TIP3    H221994   8.226   4.261   5.575 -1.0191  0.7380 -1.2754
 7351TIP3   OH221995   5.717   2.287   4.062  0.0654  0.4413  0.2057
 7351TIP3    H121996   5.669   2.285   3.979  1.4968 -0.1073 -0.6425
 7351TIP3    H221997   5.649   2.276   4.129 -0.9611 -0.8097 -0.9762
 7352TIP3   OH221998   4.377   5.153   0.863 -0.1558 -0.3385 -0.3161
 7352TIP3    H121999   4.464   5.120   0.887  0.9472  1.2284 -1.8676
 7352TIP3    H222000   4.360   5.118   0.776 -0.0311  1.1350 -0.9725
 7353TIP3   OH222001   2.444   5.647   1.636 -0.2120 -0.0298 -0.1086
 7353TIP3    H122002   2.357   5.607   1.629  0.2013 -0.9389 -0.2469
 7353TIP3    H222003   2.451   5.702   1.558 -1.0161  0.7840  0.3787
 7354TIP3   OH222004   0.016   1.328   5.538 -0.1244 -0.5093  0.7172
 7354TIP3    H122005  -0.057   1.372   5.582  0.3843  0.1385  0.9265
 7354TIP3    H222006   0.077   1.399   5.517  0.2471 -0.9912  0.1589
 7355TIP3   OH222007   5.259   2.164   4.652  0.1675 -0.1823 -0.8125
 7355TIP3    H122008   5.266   2.074   4.684 -1.8011  0.1176  0.7018
 7355TIP3    H222009   5.298   2.217   4.722 -0.0944  0.2329 -0.9770
 7356TIP3   OH222010   5.905   2.738   5.782  0.0276 -0.4530 -0.3065
 7356TIP3    H122011   5.918   2.704   5.870 -1.3098  0.2612  0.1858
 7356TIP3    H222012   5.976   2.698   5.731  0.9123 -0.7645  1.0999
 7357TIP3   OH222013   7.927   6.018   2.802 -0.4066 -0.1952  0.0941
 7357TIP3    H122014   7.938   6.083   2.871 -1.4554  0.6507 -0.5075
 7357TIP3    H222015   7.961   6.060   2.724 -2.3137  0.2073 -0.5818
 7358TIP3   OH222016   6.376   7.515   3.180 -0.3329 -0.4917 -0.0138
 7358TIP3    H122017   6.412   7.589   3.229  0.4754 -0.5200 -0.5328
 7358TIP3    H222018   6.412   7.526   3.092 -1.1616 -0.8519 -0.4045
 7359TIP3   OH222019   6.626   0.399   2.177  0.0591  0.2290  0.4868
 7359TIP3    H122020   6.640   0.339   2.103 -2.0755  0.2092  0.0207
 7359TIP3    H222021   6.671   0.479   2.152  0.0869 -0.0644 -0.4590
 7360TIP3   OH222022   6.128   4.287   5.232 -0.1886 -0.3684  0.1734
 7360TIP3    H122023   6.138   4.307   5.325 -0.9783  0.0842  0.1677
 7360TIP3    H222024   6.164   4.363   5.187  0.4392 -0.7046  0.1024
 7361TIP3   OH222025   4.978   3.514   0.139 -0.5307  0.2140 -0.2508
 7361TIP3    H122026   5.014   3.466   0.064  0.2181 -0.1613  0.3365
 7361TIP3    H222027   4.958   3.446   0.203  1.5120  0.7184  1.0044
 7362TIP3   OH222028   2.522   0.417   6.244  0.0292 -0.0853  0.7434
 7362TIP3    H122029   2.492   0.495   6.289 -0.7132  0.3040 -0.3893
 7362TIP3    H222030   2.617   0.428   6.238  0.0195  0.3263  1.3345
 7363TIP3   OH222031   8.240   5.762   2.444  0.9659 -0.3431 -0.1415
 7363TIP3    H122032   8.334   5.775   2.459  0.5807  1.2337  1.1519
 7363TIP3    H222033   8.209   5.717   2.522  0.5119 -0.2043 -0.2415
 7364TIP3   OH222034   1.594   1.573   0.992 -0.5053  0.1679  0.0420
 7364TIP3    H122035   1.586   1.666   1.016 -0.4489  0.8167 -2.2511
 7364TIP3    H222036   1.512   1.534   1.023 -0.8614  1.1495  0.3854
 7365TIP3   OH222037   4.051   1.001   3.752  0.1503 -0.6258  0.4634
 7365TIP3    H122038   4.021   0.956   3.673  0.4383 -0.2438  0.1331
 7365TIP3    H222039   4.029   1.093   3.737 -0.4941 -0.6591  1.1612
 7366TIP3   OH222040   0.386   4.625   0.058  0.1139 -0.6405  0.7221
 7366TIP3    H122041   0.335   4.553   0.021  0.9652 -0.6796 -0.4102
 7366TIP3    H222042   0.325   4.699   0.060 -0.7382 -1.3385  1.8097
 7367TIP3   OH222043   8.195   6.729   0.987  0.3086 -0.2541 -0.1595
 7367TIP3    H122044   8.230   6.749   0.900  1.0214 -0.2520  0.1181
 7367TIP3    H222045   8.137   6.655   0.974 -1.6153  1.3088 -1.0639
 7368TIP3   OH222046   4.993   5.998   1.945  0.0356  0.2219 -0.5109
 7368TIP3    H122047   5.085   5.983   1.922  0.0517 -0.3666 -0.0827
 7368TIP3    H222048   4.944   5.965   1.870  0.0000 -3.4706  0.9285
 7369TIP3   OH222049   0.791   2.119   6.324  0.0456  0.2311  0.0914
 7369TIP3    H122050   0.753   2.135   6.410  1.5512  1.3734  0.5832
 7369TIP3    H222051   0.738   2.171   6.263 -1.4443 -1.1067  0.1858
 7370TIP3   OH222052   7.097   3.757   1.199 -0.1324 -0.0981  0.1012
 7370TIP3    H122053   7.109   3.757   1.293 -0.8387 -1.1124  0.2029
 7370TIP3    H222054   7.122   3.669   1.171  1.2128  0.5427 -0.8291
 7371TIP3   OH222055   4.298   6.367   4.694 -0.2720 -0.0627 -0.4500
 7371TIP3    H122056   4.274   6.409   4.776  1.1638  1.0469 -0.5520
 7371TIP3    H222057   4.353   6.293   4.719 -0.4909 -0.1968 -0.3724
 7372TIP3   OH222058   2.954   2.360   2.198  0.1118 -0.2137  0.3531
 7372TIP3    H122059   2.914   2.437   2.238 -0.6974 -1.1004  1.3186
 7372TIP3    H222060   2.897   2.339   2.124  0.6043  0.3769 -0.2076
 7373TIP3   OH222061   4.534   6.266   3.177 -0.3966  0.4586  0.0064
 7373TIP3    H122062   4.503   6.337   3.234 -0.7897  1.4249 -1.3664
 7373TIP3    H222063   4.470   6.196   3.187  0.3011  0.0252  1.8209
 7374TIP3   OH222064   1.785   2.290   1.325  0.4050  0.4500 -0.1879
 7374TIP3    H122065   1.767   2.330   1.410 -1.0410  1.9706 -1.1263
 7374TIP3    H222066   1.701   2.296   1.278  0.6553 -1.9927 -1.1142
 7375TIP3   OH222067   7.856   2.933   5.327 -0.6297  0.3307 -0.0717
 7375TIP3    H122068   7.856   3.027   5.309  0.4842  0.3320 -0.1553
 7375TIP3    H222069   7.844   2.926   5.421 -1.6944  0.5089 -0.1812
 7376TIP3   OH222070   7.356   7.203   3.102  0.0535  0.7074  0.1065
 7376TIP3    H122071   7.432   7.260   3.092 -0.1864  1.1094  0.5602
 7376TIP3    H222072   7.389   7.116   3.081  0.0010  1.2194 -2.4650
 7377TIP3   OH222073   5.587   3.371   5.539  0.2081 -0.0427  0.5915
 7377TIP3    H122074   5.625   3.296   5.491 -0.0240  0.3569 -0.2310
 7377TIP3    H222075   5.611   3.355   5.630  0.1863 -1.1132  0.4244
 7378TIP3   OH222076   1.651   3.633   2.961 -0.2156 -0.5385  0.1164
 7378TIP3    H122077   1.567   3.656   2.920  0.0066 -1.4115 -0.8445
 7378TIP3    H222078   1.630   3.625   3.054 -0.7299  1.4355  0.2230
 7379TIP3   OH222079   1.528   2.218   2.851 -0.0075 -0.2118  0.0442
 7379TIP3    H122080   1.570   2.263   2.925 -1.9304  2.3531 -0.2887
 7379TIP3    H222081   1.564   2.262   2.774  0.4097 -1.4448 -0.4889
 7380TIP3   OH222082   2.192   1.314   1.846 -0.0311  0.0336 -0.1582
 7380TIP3    H122083   2.266   1.269   1.806 -1.4165 -0.7964 -1.9229
 7380TIP3    H222084   2.205   1.301   1.940  1.2659 -1.3752 -0.4847
 7381TIP3   OH222085   6.461   2.991   5.694  0.0028  0.1873 -0.5960
 7381TIP3    H122086   6.401   3.056   5.657 -1.7425 -1.2661 -0.4866
 7381TIP3    H222087   6.515   2.964   5.621  0.7954  1.7594 -0.6313
 7382TIP3   OH222088   2.424   5.507   2.536 -0.1135  0.1412  0.2267
 7382TIP3    H122089   2.406   5.543   2.449 -0.5788 -0.5175  0.0422
 7382TIP3    H222090   2.517   5.521   2.549 -0.3231  1.6624  0.2847
 7383TIP3   OH222091   4.831   4.088   4.341 -0.3267  0.1973  0.6707
 7383TIP3    H122092   4.880   4.011   4.370 -0.9562  0.1287  1.6004
 7383TIP3    H222093   4.878   4.162   4.379 -1.9461  0.0413  3.2176
 7384TIP3   OH222094   1.385   5.250   4.655  0.2806 -0.0824  0.6054
 7384TIP3    H122095   1.432   5.176   4.618  1.2634 -0.0816  1.7905
 7384TIP3    H222096   1.296   5.218   4.667 -0.1366 -0.0330 -1.8082
 7385TIP3   OH222097   5.632   2.955   0.421  0.1612 -0.1795  0.0033
 7385TIP3    H122098   5.603   3.027   0.478  0.4557  0.0928 -0.1912
 7385TIP3    H222099   5.713   2.986   0.382  0.9747 -1.1170  0.8867
 7386TIP3   OH222100   2.419   5.447   5.981 -0.1913  0.2937 -0.2816
 7386TIP3    H122101   2.513   5.428   5.983 -0.4699 -1.1545  0.8322
 7386TIP3    H222102   2.378   5.361   5.988 -1.6087  0.9390 -0.4016
 7387TIP3   OH222103   3.936   6.360   1.719  0.1165  0.0931  0.4402
 7387TIP3    H122104   3.960   6.374   1.811  1.4475 -0.6476  0.2231
 7387TIP3    H222105   3.932   6.265   1.710 -0.1483  0.1683 -0.2481
 7388TIP3   OH222106   7.123   5.268   3.294  0.4667 -0.0982  0.1419
 7388TIP3    H122107   7.032   5.244   3.279  0.4456 -0.7853  1.3118
 7388TIP3    H222108   7.121   5.363   3.304 -0.0679 -0.0775 -0.1194
 7389TIP3   OH222109   0.589   2.717   5.775 -0.1921  0.3872 -0.1640
 7389TIP3    H122110   0.562   2.708   5.684  0.8704 -0.0791 -0.4466
 7389TIP3    H222111   0.669   2.769   5.771  0.4284 -0.4999  0.4029
 7390TIP3   OH222112   7.796   5.461   3.717 -0.2344  0.0913  0.4177
 7390TIP3    H122113   7.789   5.416   3.802 -1.5041  1.0756  0.8636
 7390TIP3    H222114   7.707   5.463   3.683  0.2574 -0.2700 -0.9612
 7391TIP3   OH222115   5.017   3.697   2.941  0.0639  0.6075  0.0189
 7391TIP3    H122116   5.024   3.670   3.032  0.5207  0.4189 -0.0677
 7391TIP3    H222117   4.987   3.619   2.895 -0.0849  0.6777 -0.0027
 7392TIP3   OH222118   4.030   0.946   0.049 -0.0716  0.4351  1.3111
 7392TIP3    H122119   4.119   0.967   0.078 -0.0426  0.2056  1.3878
 7392TIP3    H222120   4.025   0.851   0.053  0.7845  0.1400 -1.9155
 7393TIP3   OH222121   2.619   2.085   0.116 -0.0215 -0.3606 -0.5809
 7393TIP3    H122122   2.574   2.016   0.165  0.6736 -1.9486 -2.0566
 7393TIP3    H222123   2.675   2.128   0.180 -1.0448 -0.6404  0.5428
 7394TIP3   OH222124   7.413   3.798   1.713 -0.4000 -0.1566 -0.0163
 7394TIP3    H122125   7.475   3.813   1.785 -0.6639  1.3977 -0.0733
 7394TIP3    H222126   7.330   3.780   1.757 -0.1905 -0.9454  0.0618
 7395TIP3   OH222127   6.734   2.511   4.105 -0.1784  0.3760 -0.4335
 7395TIP3    H122128   6.641   2.509   4.084 -0.2486  1.4318 -0.2899
 7395TIP3    H222129   6.770   2.578   4.046  0.7431 -0.9432 -1.4246
 7396TIP3   OH222130   7.798   0.081   4.646  0.4516 -0.1974 -0.7637
 7396TIP3    H122131   7.729   0.060   4.709  0.0770  1.7327 -0.4539
 7396TIP3    H222132   7.760   0.150   4.591  1.9668  0.6227 -0.8417
 7397TIP3   OH222133   3.515   2.545   0.359 -0.6764  0.4205 -0.0576
 7397TIP3    H122134   3.601   2.504   0.356 -0.2923  1.0094  1.7456
 7397TIP3    H222135   3.454   2.471   0.368 -0.5095 -0.0733 -2.3337
 7398TIP3   OH222136   6.485   1.578   2.387  0.2927 -0.0496 -0.3614
 7398TIP3    H122137   6.412   1.516   2.384  0.2156  0.0531 -0.6785
 7398TIP3    H222138   6.450   1.659   2.349  0.4447  0.1352 -0.1110
 7399TIP3   OH222139   1.813   2.424   0.253  0.1837  0.5983  0.5247
 7399TIP3    H122140   1.733   2.440   0.203  0.7844 -1.8943 -1.4666
 7399TIP3    H222141   1.786   2.364   0.323  0.0851  0.7481  0.6151
 7400TIP3   OH222142   0.471   7.788   0.387 -0.2214 -0.1775 -0.5419
 7400TIP3    H122143   0.495   7.744   0.469 -0.0470  1.0095  0.0591
 7400TIP3    H222144   0.554   7.806   0.344 -0.2648  0.0435 -0.5331
 7401TIP3   OH222145   4.077   2.457   0.417 -0.6309 -0.0880  0.6518
 7401TIP3    H122146   4.089   2.376   0.467 -0.5053 -0.3217  0.2526
 7401TIP3    H222147   4.068   2.428   0.327 -0.2525  0.3657  0.4620
 7402TIP3   OH222148   2.242   4.354   4.684  0.3426  0.2466  0.4494
 7402TIP3    H122149   2.251   4.448   4.671 -0.5430  0.9533  3.8191
 7402TIP3    H222150   2.331   4.322   4.695  0.5842  1.6146  3.5827
 7403TIP3   OH222151   3.967   0.486   4.423  0.3824  0.1592  0.3597
 7403TIP3    H122152   3.978   0.538   4.343  0.1053  2.3401  1.6579
 7403TIP3    H222153   4.055   0.473   4.456  0.4603 -0.3096 -0.0222
 7404TIP3   OH222154   1.589   0.897   1.182  0.5362 -0.0332 -0.2908
 7404TIP3    H122155   1.582   0.976   1.129 -0.1070  0.3347  0.3195
 7404TIP3    H222156   1.574   0.825   1.120 -0.6320  0.4096 -0.5540
 7405TIP3   OH222157   1.482   7.674   5.907 -0.6179  0.3558  0.0822
 7405TIP3    H122158   1.552   7.608   5.904 -1.6238 -0.6960 -1.4290
 7405TIP3    H222159   1.407   7.628   5.942 -1.3629  0.6245 -1.0905
 7406TIP3   OH222160   5.825   1.527   2.943 -0.1370  0.2474 -0.2727
 7406TIP3    H122161   5.802   1.436   2.962  1.1053  0.1889  1.0754
 7406TIP3    H222162   5.914   1.537   2.975  0.0148  1.7622 -1.0525
 7407TIP3   OH222163   2.391   2.425   1.004 -0.2909 -0.0287 -0.3632
 7407TIP3    H122164   2.336   2.361   1.049  0.2198  0.4522  0.9901
 7407TIP3    H222165   2.331   2.476   0.950 -1.3241  0.9597  1.6312
 7408TIP3   OH222166   3.647   0.715   1.184  0.2036  0.0250 -0.2642
 7408TIP3    H122167   3.723   0.755   1.226 -0.1309  1.1117 -0.6505
 7408TIP3    H222168   3.667   0.718   1.090 -0.4319  0.6037 -0.3891
 7409TIP3   OH222169   6.115   4.783   5.564 -0.3570 -1.0584 -0.1306
 7409TIP3    H122170   6.128   4.854   5.627 -1.8831 -0.7930 -0.0725
 7409TIP3    H222171   6.022   4.764   5.569 -0.2147 -2.1248 -1.1690
 7410TIP3   OH222172   5.979   7.247   5.629 -0.2017  0.5234 -0.1787
 7410TIP3    H122173   5.948   7.275   5.715 -1.7367 -2.0354  0.2014
 7410TIP3    H222174   5.901   7.213   5.586  1.1567 -1.3810 -1.2678
 7411TIP3   OH222175   6.872   4.074   4.720  0.6185  0.2593 -0.0677
 7411TIP3    H122176   6.779   4.049   4.721  0.7731 -0.7496 -2.5864
 7411TIP3    H222177   6.873   4.157   4.672  1.1711 -1.0730 -2.5508
 7412TIP3   OH222178   4.595   6.167   2.735 -0.0831 -0.1785 -0.0873
 7412TIP3    H122179   4.512   6.130   2.706  0.1801  0.7112 -2.1311
 7412TIP3    H222180   4.656   6.150   2.663  0.9336  1.1641  0.4141
 7413TIP3   OH222181   4.987   3.378   5.074 -0.0404  0.2735  0.2196
 7413TIP3    H122182   4.951   3.372   4.986  1.4753 -0.6871 -0.3780
 7413TIP3    H222183   4.960   3.464   5.106  1.7994  1.9544 -2.3372
 7414TIP3   OH222184   4.534   4.579   6.009 -0.0512  0.7942  0.7439
 7414TIP3    H122185   4.534   4.494   6.053  1.5227 -0.2183 -1.0367
 7414TIP3    H222186   4.537   4.643   6.080 -0.5943 -0.6402  2.1169
 7415TIP3   OH222187   5.584   0.482   1.781  0.0531  0.3313 -0.1774
 7415TIP3    H122188   5.553   0.513   1.866  1.7717  1.2817  0.1552
 7415TIP3    H222189   5.558   0.390   1.777 -0.7430  0.4862  1.0166
 7416TIP3   OH222190   5.552   5.673   6.789  0.9698  0.0433 -0.3352
 7416TIP3    H122191   5.584   5.633   6.708 -0.1999 -3.0951  0.6138
 7416TIP3    H222192   5.457   5.667   6.783  0.8669 -1.5105  1.7771
 7417TIP3   OH222193   7.262   3.336   2.873 -0.1391  0.2977 -0.1673
 7417TIP3    H122194   7.318   3.392   2.819  1.7802 -0.8543  0.5707
 7417TIP3    H222195   7.310   3.255   2.883 -1.2218 -0.1628  1.8470
 7418TIP3   OH222196   5.199   5.921   4.827  0.0563 -0.0320  0.3790
 7418TIP3    H122197   5.215   5.914   4.733  1.1173  0.8819  0.4646
 7418TIP3    H222198   5.193   6.015   4.843  0.5216 -0.1477  1.3127
 7419TIP3   OH222199   1.126   4.811   4.635  0.0279 -0.2614  0.0594
 7419TIP3    H122200   1.117   4.724   4.675  0.0508 -0.8917 -1.2479
 7419TIP3    H222201   1.043   4.826   4.591  0.6536 -0.4236 -1.2210
 7420TIP3   OH222202   1.086   4.460   1.241 -0.0587  0.3633  0.2881
 7420TIP3    H122203   1.026   4.428   1.308  0.4195 -0.4707  0.3297
 7420TIP3    H222204   1.084   4.393   1.173 -0.4035  1.1115 -0.4635
 7421TIP3   OH222205   2.353   4.349   6.595 -0.3262  0.5985 -0.4537
 7421TIP3    H122206   2.412   4.421   6.575  0.6943 -0.5477 -1.8493
 7421TIP3    H222207   2.285   4.354   6.528  1.1500 -1.1492 -2.2369
 7422TIP3   OH222208   5.643   5.763   6.435 -0.0860  0.1269 -0.0611
 7422TIP3    H122209   5.616   5.676   6.407 -1.1649  0.2547  0.5550
 7422TIP3    H222210   5.590   5.823   6.382 -0.5702  0.3875  0.7136
 7423TIP3   OH222211   6.568   5.575   0.665 -0.0921 -0.2797 -0.0804
 7423TIP3    H122212   6.570   5.549   0.573  1.4494  0.4835 -0.2906
 7423TIP3    H222213   6.500   5.642   0.670  0.4352  0.3240 -0.8558
 7424TIP3   OH222214   6.775   7.696   4.030 -0.4874  0.2379  0.0335
 7424TIP3    H122215   6.692   7.682   3.985 -0.1929  0.3640 -0.5513
 7424TIP3    H222216   6.762   7.658   4.117 -1.4249  0.9758  0.2277
 7425TIP3   OH222217   7.704   6.980   1.418  0.4122  0.3946 -0.5986
 7425TIP3    H122218   7.738   6.984   1.508  1.5881 -0.8677 -0.9672
 7425TIP3    H222219   7.700   7.072   1.391  3.1537  0.6673 -0.3689
 7426TIP3   OH222220   7.895   1.735   4.398  0.6003 -0.5927 -0.5045
 7426TIP3    H122221   7.923   1.710   4.310  1.1601  0.7079 -0.7268
 7426TIP3    H222222   7.977   1.746   4.447  0.4135  0.7966 -0.4530
 7427TIP3   OH222223   0.732   5.466   5.564  0.1282  0.3558 -0.0365
 7427TIP3    H122224   0.810   5.520   5.571  1.8527 -2.0878  0.5487
 7427TIP3    H222225   0.726   5.419   5.647 -0.7858 -1.0160 -0.8332
 7428TIP3   OH222226   3.598   5.251   1.211  0.4376 -0.5361 -0.1540
 7428TIP3    H122227   3.647   5.170   1.198 -1.0431 -1.4013 -0.4474
 7428TIP3    H222228   3.534   5.253   1.140  2.2133  2.3061 -1.9055
 7429TIP3   OH222229   7.007   0.115   0.722 -0.5132  0.0362  0.3244
 7429TIP3    H122230   6.992   0.027   0.756 -1.4452  0.2194  0.4175
 7429TIP3    H222231   7.027   0.167   0.800 -1.6256  0.2402  0.4970
 7430TIP3   OH222232   0.790   4.961   1.765 -0.1244  0.2599  0.8740
 7430TIP3    H122233   0.808   5.044   1.720 -2.7286  1.0675  1.1225
 7430TIP3    H222234   0.808   4.980   1.857  0.7525  0.0416  0.7580
 7431TIP3   OH222235   8.210   5.310   6.669  0.0063 -0.5354 -0.2098
 7431TIP3    H122236   8.155   5.323   6.591  1.3053  0.5264 -0.9960
 7431TIP3    H222237   8.294   5.279   6.634  0.6069 -0.0667  0.7677
 7432TIP3   OH222238   0.235   0.206   3.222  0.0926  0.5005 -0.2003
 7432TIP3    H122239   0.169   0.139   3.237  1.2849 -0.7014 -0.0547
 7432TIP3    H222240   0.229   0.227   3.129 -1.2113  1.2178  0.0334
 7433TIP3   OH222241   1.549   2.685   0.442 -0.3404  0.5616 -0.1704
 7433TIP3    H122242   1.607   2.713   0.371  0.9733  0.4000  0.7922
 7433TIP3    H222243   1.518   2.599   0.415  0.6888  0.2001 -0.2574
 7434TIP3   OH222244   4.843   4.199   5.613  0.1588  0.0963 -0.2518
 7434TIP3    H122245   4.852   4.286   5.654  0.4913  1.5024 -3.0506
 7434TIP3    H222246   4.933   4.169   5.603  0.0486 -0.5512  0.5581
 7435TIP3   OH222247   4.861   7.780   4.819  0.6781  0.5098  0.2773
 7435TIP3    H122248   4.843   7.796   4.911 -1.5426  1.8908 -0.2977
 7435TIP3    H222249   4.858   7.685   4.809 -1.2739  0.4077  1.3058
 7436TIP3   OH222250   4.583   0.726   3.575 -0.1092 -0.0352 -0.4154
 7436TIP3    H122251   4.580   0.652   3.515 -0.8900  0.1063 -0.5617
 7436TIP3    H222252   4.547   0.799   3.524 -2.7568 -0.3636  0.8400
 7437TIP3   OH222253   5.167   2.891   3.520  0.4080 -0.1583 -0.3035
 7437TIP3    H122254   5.249   2.908   3.566  0.3160 -1.0988  0.2313
 7437TIP3    H222255   5.182   2.923   3.431  0.5187  1.9136  0.3998
 7438TIP3   OH222256   2.426   6.237   5.834  0.0344  0.1183 -0.1811
 7438TIP3    H122257   2.424   6.245   5.739 -1.1471  0.4237 -0.1516
 7438TIP3    H222258   2.336   6.216   5.858  0.3051  0.1038  0.8752
 7439TIP3   OH222259   7.615   3.133   1.119 -0.6822 -0.2843  0.5240
 7439TIP3    H122260   7.553   3.200   1.092 -0.2525  0.4388  1.2907
 7439TIP3    H222261   7.591   3.056   1.067  0.1753  1.0398 -2.0245
 7440TIP3   OH222262   2.068   5.440   4.181  0.5334  0.4243  0.2451
 7440TIP3    H122263   2.007   5.393   4.238  1.4807 -1.1056  0.0833
 7440TIP3    H222264   2.013   5.486   4.118 -0.4791 -1.1880 -0.1220
 7441TIP3   OH222265   1.070   2.034   6.268  0.4370  0.1461 -0.0596
 7441TIP3    H122266   1.122   2.077   6.335  0.4731  2.4035 -1.4198
 7441TIP3    H222267   0.980   2.059   6.288  0.0851 -1.7696  0.9099
 7442TIP3   OH222268   4.802   5.364   5.708 -0.8511  0.6744  0.1756
 7442TIP3    H122269   4.876   5.425   5.702  1.0113 -1.4817 -0.2544
 7442TIP3    H222270   4.806   5.331   5.798 -2.0583  1.3914  0.5094
 7443TIP3   OH222271   4.244   2.461   4.212 -0.3440 -0.2770 -0.5035
 7443TIP3    H122272   4.239   2.556   4.201 -2.0947 -0.3226 -0.4554
 7443TIP3    H222273   4.273   2.428   4.127  1.1982  0.3444 -0.2404
 7444TIP3   OH222274   7.094   5.216   2.013 -0.2654  0.0711 -0.1033
 7444TIP3    H122275   7.147   5.232   2.092 -1.0997 -1.5905  0.8638
 7444TIP3    H222276   7.065   5.125   2.023  1.1356 -0.8402 -3.2871
 7445TIP3   OH222277   5.839   4.789   3.917  0.5261 -0.0141  0.4329
 7445TIP3    H122278   5.872   4.871   3.954 -0.2906  1.2873 -1.5539
 7445TIP3    H222279   5.913   4.755   3.867  1.2242 -1.1292  2.1265
 7446TIP3   OH222280   0.523   2.944   4.135  0.4643  0.0763 -0.2225
 7446TIP3    H122281   0.606   2.972   4.096  0.2819  1.5119  0.3370
 7446TIP3    H222282   0.471   2.911   4.062  1.1836  0.0547 -0.7286
 7447TIP3   OH222283   1.212   7.345   2.616  0.1876  0.4058 -0.2498
 7447TIP3    H122284   1.284   7.291   2.647  1.1473  2.2714  0.9439
 7447TIP3    H222285   1.206   7.326   2.522  0.5931 -1.5870  0.1047
 7448TIP3   OH222286   1.600   0.094   3.272 -0.1067 -0.2313  0.1096
 7448TIP3    H122287   1.612  -0.001   3.275 -1.3102 -0.3915  0.7219
 7448TIP3    H222288   1.665   0.125   3.210 -0.9168 -1.6853 -1.5569
 7449TIP3   OH222289   3.700   7.712   1.551 -0.0766  0.3305  0.5845
 7449TIP3    H122290   3.703   7.796   1.596 -0.9916  0.0236  1.2368
 7449TIP3    H222291   3.627   7.665   1.591 -0.4202 -0.2682 -0.6710
 7450TIP3   OH222292   7.275   7.238   0.252  0.1314 -0.0836  0.6953
 7450TIP3    H122293   7.297   7.322   0.294 -1.1838  0.3040  0.6492
 7450TIP3    H222294   7.324   7.239   0.170 -0.7933  1.2050  0.1247
 7451TIP3   OH222295   6.797   7.566   3.365 -0.2782  0.5847 -0.2881
 7451TIP3    H122296   6.822   7.616   3.287 -0.2133  0.5703 -0.2763
 7451TIP3    H222297   6.781   7.478   3.332 -1.1559  0.7886 -0.4428
 7452TIP3   OH222298   3.479   6.438   5.347  0.2345 -0.7650 -0.0300
 7452TIP3    H122299   3.489   6.358   5.295  1.4699  0.2106 -1.4037
 7452TIP3    H222300   3.517   6.506   5.292 -0.1443  0.6594  1.4055
 7453TIP3   OH222301   0.691   2.465   5.306  0.0702 -0.1321 -0.7682
 7453TIP3    H122302   0.778   2.505   5.308 -0.3698  0.8731  1.1719
 7453TIP3    H222303   0.708   2.372   5.292  1.5555 -0.0784  0.3694
 7454TIP3   OH222304   7.158   3.383   5.281  0.2454  0.1283 -0.1822
 7454TIP3    H122305   7.085   3.375   5.343  1.0789 -0.5244  0.7406
 7454TIP3    H222306   7.126   3.444   5.214 -1.4797 -0.8326 -0.2832
 7455TIP3   OH222307   1.730   1.240   1.672 -0.4367  0.1228 -0.1584
 7455TIP3    H122308   1.704   1.151   1.648 -1.3141  0.7223 -1.5593
 7455TIP3    H222309   1.825   1.241   1.660 -0.1475 -1.0975  1.6128
 7456TIP3   OH222310   8.193   6.491   1.672 -0.0475 -0.2740 -0.2485
 7456TIP3    H122311   8.237   6.432   1.610  2.1182  0.4554  0.4785
 7456TIP3    H222312   8.205   6.449   1.757 -0.4260  0.1304  0.0072
 7457TIP3   OH222313   1.216   7.784   1.381  0.2040  0.2188  0.1104
 7457TIP3    H122314   1.171   7.823   1.306 -1.2722  0.7367  1.2132
 7457TIP3    H222315   1.285   7.847   1.403  0.9329 -0.1394 -1.0232
 7458TIP3   OH222316   7.785   4.769   1.053 -0.1548 -0.3483 -0.7133
 7458TIP3    H122317   7.832   4.775   1.136  1.1180 -2.8984 -1.1232
 7458TIP3    H222318   7.704   4.722   1.075  0.2409 -1.1343 -0.9149
 7459TIP3   OH222319   5.981   7.044   3.113  0.2566  0.4833 -0.6533
 7459TIP3    H122320   6.020   7.130   3.100  0.8931  0.0895 -1.4251
 7459TIP3    H222321   5.988   7.028   3.207  1.0795  0.8404 -0.6471
 7460TIP3   OH222322   1.958   1.073   3.488  0.5457  0.4847 -0.5093
 7460TIP3    H122323   1.880   1.035   3.529  0.4873  0.7697 -0.3513
 7460TIP3    H222324   2.031   1.040   3.540  0.6855 -1.1582 -1.6773
 7461TIP3   OH222325   7.999   5.408   5.505 -0.3507 -0.3992  0.3382
 7461TIP3    H122326   7.935   5.465   5.463  1.5063  0.2918 -1.7454
 7461TIP3    H222327   8.030   5.457   5.581 -1.1836 -0.1146  0.5014
 7462TIP3   OH222328   2.691   7.590   3.089  0.0494  0.2622 -0.3429
 7462TIP3    H122329   2.668   7.631   3.006  0.3260 -0.7505 -0.9307
 7462TIP3    H222330   2.626   7.624   3.151 -0.0349  1.1842 -0.9206
 7463TIP3   OH222331   5.435   6.735   5.064  0.2131 -0.1428 -0.5067
 7463TIP3    H122332   5.409   6.677   5.135 -1.9747  1.9416  0.5536
 7463TIP3    H222333   5.481   6.807   5.107  2.1256 -0.6080 -1.6835
 7464TIP3   OH222334   0.357   5.745   5.097 -0.2953  0.2159  0.1428
 7464TIP3    H122335   0.399   5.663   5.070  0.1405  0.6753 -0.6193
 7464TIP3    H222336   0.305   5.722   5.174  1.1506 -0.4209  0.9546
 7465TIP3   OH222337   5.014   4.042   3.673 -0.4771 -0.4761  0.1369
 7465TIP3    H122338   5.006   3.952   3.643 -0.1884 -0.4057 -0.1612
 7465TIP3    H222339   5.093   4.075   3.630  0.8321 -0.8273  2.0983
 7466TIP3   OH222340   6.588   2.956   4.534  0.4353 -0.4824  0.1043
 7466TIP3    H122341   6.528   3.030   4.544  0.2202 -0.8562  1.8779
 7466TIP3    H222342   6.559   2.913   4.453  0.3486  1.1474 -0.7651
 7467TIP3   OH222343   0.365   6.387   1.783 -0.1142 -0.2825 -0.1383
 7467TIP3    H122344   0.306   6.425   1.848 -0.8439 -2.4331  0.5461
 7467TIP3    H222345   0.453   6.401   1.820 -0.5123 -1.4799  1.3679
 7468TIP3   OH222346   1.667   1.755   1.330  0.3449 -0.4403 -0.2761
 7468TIP3    H122347   1.632   1.779   1.416 -1.1311  1.1084 -1.2337
 7468TIP3    H222348   1.629   1.670   1.311  0.5876 -0.7361  0.5520
 7469TIP3   OH222349   3.241   0.997   2.346  0.3512 -0.0778  0.0189
 7469TIP3    H122350   3.305   0.931   2.316 -0.4483 -1.5895  1.4939
 7469TIP3    H222351   3.163   0.946   2.368 -0.7497  1.5373 -0.0195
 7470TIP3   OH222352   0.512   3.431   2.820  0.3631  0.6320 -0.5736
 7470TIP3    H122353   0.501   3.369   2.748  1.9038 -0.4595  0.0897
 7470TIP3    H222354   0.437   3.417   2.876 -0.2287  0.6541 -1.3400
 7471TIP3   OH222355   4.823   6.346   1.251 -0.4207 -0.0243 -0.3294
 7471TIP3    H122356   4.735   6.306   1.244  0.0308 -1.0738 -0.2611
 7471TIP3    H222357   4.839   6.381   1.163 -0.6749 -0.3525 -0.5135
 7472TIP3   OH222358   8.067   0.718   6.057  0.0200 -0.0514 -0.1579
 7472TIP3    H122359   7.978   0.748   6.074  0.4356  0.7598  0.6589
 7472TIP3    H222360   8.083   0.650   6.122  0.6948  1.2315  1.0591
 7473TIP3   OH222361   2.696   6.905   1.987  0.5091  0.5246  0.2403
 7473TIP3    H122362   2.627   6.901   2.052 -0.1119  0.6344 -0.3943
 7473TIP3    H222363   2.767   6.852   2.023 -0.0959 -0.0002  0.6743
 7474TIP3   OH222364   6.242   4.224   5.758 -0.6438  0.0312 -0.2224
 7474TIP3    H122365   6.315   4.223   5.697 -0.8578  0.7284 -0.5005
 7474TIP3    H222366   6.250   4.142   5.807  0.8232  0.4864  0.3441
 7475TIP3   OH222367   7.698   4.054   1.957 -0.5145 -0.1000 -0.5889
 7475TIP3    H122368   7.615   4.102   1.969  0.4583  1.3188  0.8699
 7475TIP3    H222369   7.676   3.963   1.979 -1.3002  0.5926  1.8222
 7476TIP3   OH222370   6.965   2.356   4.780  0.1817 -0.0282  0.3796
 7476TIP3    H122371   6.956   2.279   4.836 -1.7178  0.7677  1.2178
 7476TIP3    H222372   6.876   2.382   4.759  0.7855  1.8839 -0.0021
 7477TIP3   OH222373   6.843   3.142   5.349  0.5189  0.1315  0.0654
 7477TIP3    H122374   6.914   3.080   5.334  1.2850  1.1946 -0.8878
 7477TIP3    H222375   6.828   3.183   5.263 -1.2503 -0.0676  0.2450
 7478TIP3   OH222376   3.425   0.647   0.087  0.5307 -0.5047  0.0429
 7478TIP3    H122377   3.348   0.646   0.031  1.4590 -0.1441 -1.2951
 7478TIP3    H222378   3.455   0.738   0.084  0.3665 -0.3889  1.4714
 7479TIP3   OH222379   0.711   7.078   1.075  0.4709 -0.3760  0.4581
 7479TIP3    H122380   0.748   7.031   1.000  1.1692  0.9872 -0.0912
 7479TIP3    H222381   0.678   7.010   1.133 -0.0856 -1.4619 -1.0943
 7480TIP3   OH222382   5.243   4.595   0.220 -0.0391 -0.1911  0.2400
 7480TIP3    H122383   5.269   4.684   0.245  3.2176 -1.2954  1.3097
 7480TIP3    H222384   5.272   4.587   0.129  2.5121 -0.9790  1.0241
 7481TIP3   OH222385   3.933   5.718   1.765  0.0407 -0.2785  0.6366
 7481TIP3    H122386   3.846   5.692   1.794 -1.3967  2.2166 -1.0566
 7481TIP3    H222387   3.971   5.764   1.840 -0.3370 -0.8252  1.1710
 7482TIP3   OH222388   5.334   7.118   5.145  0.1078  0.3060  0.2854
 7482TIP3    H122389   5.296   7.148   5.062  0.3084 -0.8659 -0.2512
 7482TIP3    H222390   5.279   7.044   5.171  0.2542  0.4495  1.0317
 7483TIP3   OH222391   3.318   6.196   0.229  0.6432  0.2561 -0.2827
 7483TIP3    H122392   3.376   6.273   0.226  1.2827 -0.0874  1.6197
 7483TIP3    H222393   3.338   6.155   0.313  2.1048 -3.4124 -2.1977
 7484TIP3   OH222394   8.245   5.299   1.078  0.1399  0.3532  0.1035
 7484TIP3    H122395   8.183   5.228   1.094  0.2743  0.0839 -0.5262
 7484TIP3    H222396   8.220   5.367   1.140  0.0899 -0.2922  0.8089
 7485TIP3   OH222397   2.264   7.709   1.721 -0.4189  0.1384 -0.3329
 7485TIP3    H122398   2.279   7.664   1.804  1.8472  0.8434 -0.2823
 7485TIP3    H222399   2.230   7.795   1.746 -0.8508 -0.0640 -0.2136
 7486TIP3   OH222400   5.978   3.444   3.617 -0.4351  0.0088  0.1313
 7486TIP3    H122401   6.004   3.503   3.688  0.1183  0.0389 -0.0886
 7486TIP3    H222402   6.019   3.360   3.641  0.2677  0.1760 -0.4611
 7487TIP3   OH222403   1.093   2.411   1.198 -0.3917  0.4427  0.5011
 7487TIP3    H122404   1.086   2.420   1.293 -1.3411 -0.8614  0.5856
 7487TIP3    H222405   1.027   2.345   1.175  0.8777 -0.4183 -0.8651
 7488TIP3   OH222406   2.519   5.433   5.677  0.4696  0.3245  0.0961
 7488TIP3    H122407   2.563   5.460   5.758  2.0662 -0.2034 -0.5475
 7488TIP3    H222408   2.590   5.400   5.622 -0.7457 -0.4027 -1.0798
 7489TIP3   OH222409   4.366   1.837   2.297 -0.6287  0.2808  0.0406
 7489TIP3    H122410   4.381   1.890   2.376  2.5593 -1.0077  0.4546
 7489TIP3    H222411   4.357   1.900   2.226 -3.1954  1.4637  1.2918
 7490TIP3   OH222412   5.930   6.721   1.147 -0.1006 -0.4718 -0.2794
 7490TIP3    H122413   5.923   6.813   1.122 -1.4945 -0.5160 -0.1268
 7490TIP3    H222414   5.975   6.722   1.231  1.9494 -0.1187 -1.3268
 7491TIP3   OH222415   7.733   4.431   1.837 -0.0354  0.0802  0.2151
 7491TIP3    H122416   7.701   4.490   1.906 -0.6001 -0.3383  0.3281
 7491TIP3    H222417   7.658   4.420   1.778  0.1478 -0.3006  0.0476
 7492TIP3   OH222418   2.482   0.456   1.886  0.3229  0.6018  0.2878
 7492TIP3    H122419   2.575   0.467   1.904  0.6225 -2.4932  1.3484
 7492TIP3    H222420   2.477   0.440   1.792  0.6290  2.2100 -0.0286
 7493TIP3   OH222421   7.804   4.156   2.272 -0.6849  0.2537 -0.4387
 7493TIP3    H122422   7.899   4.145   2.268 -0.9058 -1.9222 -2.3600
 7493TIP3    H222423   7.772   4.070   2.300 -2.1341  0.7656 -0.4570
 7494TIP3   OH222424   5.078   6.529   0.380 -0.4930 -0.5455  0.0934
 7494TIP3    H122425   5.045   6.576   0.456 -2.7942 -0.1237 -1.0842
 7494TIP3    H222426   5.000   6.510   0.327  1.0377 -0.3732 -2.4064
 7495TIP3   OH222427   2.704   6.087   2.710  0.0327  0.3618 -0.2885
 7495TIP3    H122428   2.656   6.030   2.769 -0.5618 -0.6808 -1.7138
 7495TIP3    H222429   2.774   6.124   2.763 -0.2981 -0.7603  0.9728
 7496TIP3   OH222430   3.632   0.993   2.754  0.2997 -0.2873  0.4374
 7496TIP3    H122431   3.564   0.990   2.686  0.1204  1.8046  0.4707
 7496TIP3    H222432   3.590   0.956   2.831 -0.5123  0.1152  0.2012
 7497TIP3   OH222433   0.855   0.068   5.782  0.0584  0.6700  0.0848
 7497TIP3    H122434   0.929   0.008   5.775  0.0160  0.4302  1.5350
 7497TIP3    H222435   0.895   0.153   5.798  0.0261  0.5386  0.8788
 7498TIP3   OH222436   7.117   2.790   0.984  0.0246  0.5677  0.3539
 7498TIP3    H122437   7.080   2.877   0.996 -0.1928  0.4890  0.2536
 7498TIP3    H222438   7.168   2.796   0.903  1.3594  1.0528  1.1969
 7499TIP3   OH222439   3.468   5.443   6.724 -0.2794  0.0748 -0.0621
 7499TIP3    H122440   3.463   5.374   6.790 -1.5466  0.0788 -0.1293
 7499TIP3    H222441   3.434   5.402   6.644 -0.2937  0.5395 -0.2982
 7500TIP3   OH222442   3.380   3.125   0.588 -0.3165  0.9981 -0.2233
 7500TIP3    H122443   3.350   3.189   0.652 -1.2251  1.1802 -0.8164
 7500TIP3    H222444   3.466   3.158   0.560 -1.1793  2.5311 -1.2406
 7501TIP3   OH222445   8.259   0.700   0.798 -0.0177  0.2162  0.1983
 7501TIP3    H122446   8.197   0.761   0.758  0.6725  0.5843 -0.3303
 7501TIP3    H222447   8.335   0.753   0.819  0.4675 -0.3977  0.0267
 7502TIP3   OH222448   3.552   0.524   1.590 -0.1072 -0.0495  0.2392
 7502TIP3    H122449   3.537   0.431   1.571 -0.7068 -0.0979  0.9134
 7502TIP3    H222450   3.464   0.561   1.600  0.0969 -0.1674  3.5026
 7503TIP3   OH222451   7.442   2.860   1.398  0.3914 -0.5517 -0.5160
 7503TIP3    H122452   7.412   2.774   1.369  1.2244 -0.2497 -2.4141
 7503TIP3    H222453   7.446   2.853   1.494 -2.9588 -1.4680 -0.3272
 7504TIP3   OH222454   1.023   6.613   3.174 -0.1663  0.6968 -0.2282
 7504TIP3    H122455   1.021   6.570   3.088  0.2430 -0.0935  0.1564
 7504TIP3    H222456   1.115   6.636   3.187 -0.3978  1.8819 -0.5073
 7505TIP3   OH222457   1.793   7.544   0.743  0.2051 -0.3401  0.4045
 7505TIP3    H122458   1.722   7.608   0.744  0.9943  0.5912  2.6131
 7505TIP3    H222459   1.766   7.477   0.806 -0.2455 -1.8297 -1.3014
 7506TIP3   OH222460   7.706   1.296   2.828 -0.3713 -0.6151  0.2029
 7506TIP3    H122461   7.737   1.292   2.918 -0.5031 -1.3496  0.2234
 7506TIP3    H222462   7.616   1.263   2.832  0.0075 -1.7950 -0.3551
 7507TIP3   OH222463   7.706   1.887   3.714 -0.4421 -0.6738 -0.1941
 7507TIP3    H122464   7.736   1.869   3.803  0.3558  0.5212 -0.1923
 7507TIP3    H222465   7.781   1.929   3.672 -1.0638 -0.5466 -1.1949
 7508TIP3   OH222466   4.895   0.216   0.591 -0.3335  0.6883 -0.1256
 7508TIP3    H122467   4.865   0.154   0.525  2.0460 -0.1563 -0.5294
 7508TIP3    H222468   4.934   0.161   0.660 -0.1826  1.6489  0.5802
 7509TIP3   OH222469   5.418   5.545   5.683 -0.5117 -0.3668 -0.2125
 7509TIP3    H122470   5.412   5.567   5.590 -2.3504 -3.0325 -0.8429
 7509TIP3    H222471   5.403   5.628   5.728  2.4047  1.4045 -2.1781
 7510TIP3   OH222472   1.256   2.898   1.523 -0.8837 -0.4076  0.3694
 7510TIP3    H122473   1.278   2.861   1.438 -2.2091  0.4369 -0.3761
 7510TIP3    H222474   1.161   2.888   1.529 -1.2033  2.0709  0.4880
 7511TIP3   OH222475   1.450   1.813   3.420  0.6123  0.4561 -0.3397
 7511TIP3    H122476   1.390   1.859   3.479  0.6223  1.0478 -0.7830
 7511TIP3    H222477   1.513   1.879   3.392 -0.6729  0.8008 -2.7376
 7512TIP3   OH222478   3.143   4.331   0.615 -0.3759 -0.0479  0.4535
 7512TIP3    H122479   3.094   4.413   0.627 -0.0048  0.1345  0.7594
 7512TIP3    H222480   3.196   4.347   0.537 -0.5564 -0.1209  0.3164
 7513TIP3   OH222481   6.853   0.097   5.424  0.8169  0.0355  0.2659
 7513TIP3    H122482   6.942   0.063   5.429  0.2003 -1.5807  0.7125
 7513TIP3    H222483   6.851   0.169   5.487  1.9659  0.5136 -0.2175
 7514TIP3   OH222484   1.282   0.742   2.096  0.0516 -0.6096  0.0347
 7514TIP3    H122485   1.253   0.660   2.055  0.0824 -0.6503  0.0946
 7514TIP3    H222486   1.218   0.807   2.067  0.1725 -0.6046 -0.2207
 7515TIP3   OH222487   4.833   0.589   5.014 -0.1467 -0.0919 -0.2561
 7515TIP3    H122488   4.861   0.541   5.092 -0.1656  0.7707  0.2925
 7515TIP3    H222489   4.845   0.527   4.942  1.6490 -0.2982  0.1734
 7516TIP3   OH222490   7.630   6.427   2.096  0.3392  0.0369 -0.2604
 7516TIP3    H122491   7.596   6.474   2.173  3.8226  0.1946  1.3890
 7516TIP3    H222492   7.609   6.484   2.022 -1.9398  0.5513  0.6854
 7517TIP3   OH222493   8.222   2.604   6.586 -0.4480 -0.1447  0.0496
 7517TIP3    H122494   8.278   2.606   6.664 -0.5026  0.0983  0.0834
 7517TIP3    H222495   8.247   2.682   6.537 -0.0704 -0.5498 -0.4211
 7518TIP3   OH222496   7.163   2.696   4.425  0.4455  0.3835  0.3250
 7518TIP3    H122497   7.256   2.683   4.407  0.6446  0.2656  1.3547
 7518TIP3    H222498   7.144   2.636   4.498  0.0117  1.6928  1.3375
 7519TIP3   OH222499   5.733   1.862   2.685  0.2000  0.0073  0.5892
 7519TIP3    H122500   5.736   1.769   2.708 -0.4602  0.4010  2.3744
 7519TIP3    H222501   5.651   1.872   2.637 -0.1377 -0.1954  1.1142
 7520TIP3   OH222502   0.752   4.026   3.007  0.3870 -0.0497 -0.4712
 7520TIP3    H122503   0.666   4.065   3.017  0.4841  0.3483 -1.1391
 7520TIP3    H222504   0.777   3.999   3.096 -0.3080  0.0622 -0.2391
 7521TIP3   OH222505   0.281   7.444   3.832 -0.7982  0.2127 -0.3713
 7521TIP3    H122506   0.304   7.536   3.814  1.2724 -0.2554 -0.3880
 7521TIP3    H222507   0.298   7.398   3.750  2.6510 -0.8707  0.7382
 7522TIP3   OH222508   6.487   2.587   2.703 -0.4168  0.1533  0.4315
 7522TIP3    H122509   6.403   2.568   2.745  0.2132 -2.2127  0.8102
 7522TIP3    H222510   6.496   2.682   2.708 -1.9052  0.2579  2.6669
 7523TIP3   OH222511   3.750   5.566   3.462 -0.3138  0.1615  0.5754
 7523TIP3    H122512   3.673   5.611   3.498  0.6738  0.2482  2.7673
 7523TIP3    H222513   3.775   5.617   3.386 -1.0240  1.5332  1.2372
 7524TIP3   OH222514   5.418   7.631   4.827  0.2920  0.0481  0.2310
 7524TIP3    H122515   5.383   7.719   4.810 -0.3808 -0.2531  0.0342
 7524TIP3    H222516   5.509   7.637   4.799  0.2544  0.6868  0.2140
 7525TIP3   OH222517   4.577   2.645   1.903 -0.0013  0.3409 -0.2857
 7525TIP3    H122518   4.506   2.592   1.937 -0.7839  0.3634 -1.7872
 7525TIP3    H222519   4.623   2.677   1.981 -2.0097  0.8578  0.7667
 7526TIP3   OH222520   2.864   3.850   4.257 -0.2456 -0.2067 -0.0174
 7526TIP3    H122521   2.868   3.899   4.340  0.3196 -1.7584  0.9077
 7526TIP3    H222522   2.871   3.918   4.190  0.3823  1.0179  1.2163
 7527TIP3   OH222523   6.710   3.716   3.500 -0.0203  0.0372 -0.4165
 7527TIP3    H122524   6.637   3.666   3.465  0.6126 -2.1290  1.2152
 7527TIP3    H222525   6.787   3.677   3.460  0.5984 -1.4169  2.0168
 7528TIP3   OH222526   7.822   1.970   4.905 -0.4002 -0.5833  0.1260
 7528TIP3    H122527   7.822   1.976   4.810  1.3050 -0.2910  0.1016
 7528TIP3    H222528   7.910   2.000   4.930 -0.1171 -2.5120  1.6462
 7529TIP3   OH222529   1.664   0.690   5.255 -0.1032  0.3212 -0.2237
 7529TIP3    H122530   1.696   0.760   5.311 -0.8405  0.5711 -0.1119
 7529TIP3    H222531   1.597   0.731   5.200 -0.3301 -0.2199 -0.3606
 7530TIP3   OH222532   7.013   4.325   4.415 -0.3170  0.1967  0.1142
 7530TIP3    H122533   6.974   4.249   4.371 -2.5014  1.1771  0.2312
 7530TIP3    H222534   7.028   4.388   4.345 -0.7278  0.5235  0.3162
 7531TIP3   OH222535   6.880   6.493   6.271  0.1963  0.1361 -0.3392
 7531TIP3    H122536   6.950   6.429   6.289  1.3101  1.2378 -0.5737
 7531TIP3    H222537   6.863   6.485   6.178 -0.1271 -0.2602 -0.2483
 7532TIP3   OH222538   2.526   3.398   0.787 -0.0880 -0.4795  0.5784
 7532TIP3    H122539   2.499   3.367   0.700  0.6543 -1.8817  0.8101
 7532TIP3    H222540   2.472   3.475   0.803  0.0891  0.0831 -1.3164
 7533TIP3   OH222541   5.993   3.770   0.419  0.0103 -0.7317  0.3013
 7533TIP3    H122542   6.074   3.789   0.465 -0.8305  2.4703  0.6723
 7533TIP3    H222543   5.931   3.746   0.488 -0.1262 -0.1742  0.3782
 7534TIP3   OH222544   1.007   5.789   2.193 -0.4780  1.0665  0.0131
 7534TIP3    H122545   0.987   5.878   2.164 -0.6344  1.7119  1.9844
 7534TIP3    H222546   0.946   5.772   2.264 -2.5728 -1.8250 -2.2304
 7535TIP3   OH222547   2.867   4.818   1.960  0.1949 -0.1377 -0.2023
 7535TIP3    H122548   2.803   4.776   1.902  0.2044  0.9519 -1.0392
 7535TIP3    H222549   2.836   4.799   2.048 -2.2663  1.7113 -0.5659
 7536TIP3   OH222550   3.449   7.563   2.631 -0.3536 -0.1651  0.0715
 7536TIP3    H122551   3.431   7.472   2.609 -0.9496 -0.2164  0.7162
 7536TIP3    H222552   3.362   7.601   2.646 -0.1369  0.6299 -0.6532
 7537TIP3   OH222553   6.992   6.374   1.668 -0.3187 -0.3270  0.3022
 7537TIP3    H122554   6.945   6.301   1.626 -0.8458  0.0493  0.2296
 7537TIP3    H222555   6.942   6.392   1.748  0.8930 -1.2889  1.3124
 7538TIP3   OH222556   6.427   3.116   0.876  0.4907  0.5077  0.9096
 7538TIP3    H122557   6.521   3.101   0.868  0.3630  0.2443 -0.5524
 7538TIP3    H222558   6.397   3.053   0.941  1.0288 -0.9079 -0.1624
 7539TIP3   OH222559   0.374   2.799   6.718 -0.0937  0.2112 -0.2282
 7539TIP3    H122560   0.280   2.807   6.733 -0.1057  0.8837 -0.6220
 7539TIP3    H222561   0.413   2.860   6.781 -0.0111  1.0680 -1.0880
 7540TIP3   OH222562   0.678   7.289   4.063 -0.4699 -0.2122 -0.6436
 7540TIP3    H122563   0.652   7.347   4.134 -0.9449 -1.0263 -0.1308
 7540TIP3    H222564   0.599   7.239   4.042  0.3263 -1.8613  0.1047
 7541TIP3   OH222565   0.537   5.089   6.788 -0.8015  0.2272  0.5564
 7541TIP3    H122566   0.446   5.107   6.764 -0.5722 -0.2529 -0.7783
 7541TIP3    H222567   0.569   5.032   6.718  0.7342  0.9392  0.6334
 7542TIP3   OH222568   6.419   1.328   2.740  0.5107  1.0036 -0.4130
 7542TIP3    H122569   6.485   1.365   2.682  1.5541 -0.6519 -0.3386
 7542TIP3    H222570   6.440   1.363   2.826  1.5036  0.2776 -0.3389
 7543TIP3   OH222571   6.599   6.630   2.837  0.4757  0.0990  0.3967
 7543TIP3    H122572   6.580   6.695   2.768 -0.3275 -1.3211 -0.7856
 7543TIP3    H222573   6.542   6.655   2.910 -1.0012 -0.1307 -0.6223
 7544TIP3   OH222574   7.475   0.459   1.670 -0.5983 -0.2585  0.2072
 7544TIP3    H122575   7.570   0.449   1.670 -0.5471  0.1405 -0.1340
 7544TIP3    H222576   7.460   0.533   1.610 -0.9538  1.2986  2.1177
 7545TIP3   OH222577   0.457   1.875   2.232  0.0969 -0.1015  0.0816
 7545TIP3    H122578   0.550   1.889   2.248  0.3823 -1.3838 -0.3409
 7545TIP3    H222579   0.441   1.786   2.263 -0.4150 -0.8376 -2.1383
 7546TIP3   OH222580   4.163   0.248   0.616 -0.2057  0.0686 -0.4524
 7546TIP3    H122581   4.163   0.312   0.546  0.1572 -0.3173 -0.8110
 7546TIP3    H222582   4.233   0.187   0.593 -0.0842 -0.0645  0.2414
 7547TIP3   OH222583   0.387   1.031   1.726 -0.1618  0.1876  0.1349
 7547TIP3    H122584   0.328   1.101   1.753 -1.5398  0.4047 -3.1290
 7547TIP3    H222585   0.442   1.071   1.659  0.7937 -1.2109  0.0516
 7548TIP3   OH222586   5.184   6.550   6.099  0.3082  0.4630  1.0071
 7548TIP3    H122587   5.126   6.625   6.105  0.2821  0.4498  0.9113
 7548TIP3    H222588   5.153   6.490   6.167 -3.1396 -1.8927 -2.2458
 7549TIP3   OH222589   5.934   6.374   1.495 -0.2191  0.3588 -0.0037
 7549TIP3    H122590   5.854   6.426   1.492 -0.4017  0.0872  0.0905
 7549TIP3    H222591   5.952   6.363   1.588 -0.6166 -0.3957 -0.0023
 7550TIP3   OH222592   4.506   0.147   0.128 -0.5747 -0.0417  0.5346
 7550TIP3    H122593   4.564   0.209   0.083 -0.4880  0.0767  0.8098
 7550TIP3    H222594   4.466   0.097   0.057 -1.1782  0.7958  0.2711
 7551TIP3   OH222595   8.035   3.730   3.211 -0.0562 -1.1525 -0.1756
 7551TIP3    H122596   8.015   3.641   3.184 -2.3968 -1.6567  2.6910
 7551TIP3    H222597   7.965   3.753   3.272  0.5726  2.6015 -0.5891
 7552TIP3   OH222598   0.901   0.447   1.689 -0.1078  0.1610  0.0149
 7552TIP3    H122599   0.828   0.508   1.695 -0.1439  0.4458 -2.3110
 7552TIP3    H222600   0.974   0.492   1.732  0.0233  2.1595 -2.1295
 7553TIP3   OH222601   4.375   4.804   3.542 -0.1787  0.0483  0.7883
 7553TIP3    H122602   4.376   4.837   3.632 -0.1557  0.0288  0.7955
 7553TIP3    H222603   4.441   4.735   3.542 -1.1795 -0.9331  1.1283
 7554TIP3   OH222604   1.965   0.434   0.643 -0.4034 -0.4173  0.1130
 7554TIP3    H122605   2.009   0.498   0.699  0.9862 -1.9929  0.9244
 7554TIP3    H222606   1.874   0.463   0.640 -0.3434  0.2378  2.4963
 7555TIP3   OH222607   1.536   4.682   2.985  0.3336  0.2838  0.1596
 7555TIP3    H122608   1.524   4.726   3.070  1.4324 -1.1236  1.0979
 7555TIP3    H222609   1.606   4.732   2.943 -1.4123  2.0846 -0.7591
 7556TIP3   OH222610   1.973   6.056   2.226 -0.0207 -0.3110  0.1323
 7556TIP3    H122611   1.918   6.055   2.148 -0.7188 -0.5550  0.6149
 7556TIP3    H222612   2.028   6.133   2.215 -0.9168  0.3254 -0.0704
 7557TIP3   OH222613   1.057   7.617   0.543  0.1344  0.6783 -0.4704
 7557TIP3    H122614   0.998   7.554   0.583  1.3312 -1.5076 -1.9513
 7557TIP3    H222615   1.121   7.636   0.612  0.5042 -0.7675 -0.3857
 7558TIP3   OH222616   1.178   0.930   6.332  0.0805 -0.2254 -0.6706
 7558TIP3    H122617   1.204   0.960   6.245  1.8336 -0.7859 -0.3763
 7558TIP3    H222618   1.082   0.930   6.330  0.0762  1.0241 -2.1502
 7559TIP3   OH222619   8.254   7.194   5.451  0.0873  0.3233 -0.2475
 7559TIP3    H122620   8.207   7.171   5.531 -0.7034 -0.0289 -0.8004
 7559TIP3    H222621   8.194   7.250   5.402 -0.6174 -1.7416 -1.8857
 7560TIP3   OH222622   3.987   4.194   3.758 -0.5363 -0.3515 -0.3174
 7560TIP3    H122623   4.079   4.211   3.737 -0.4080 -1.5801 -0.7820
 7560TIP3    H222624   3.950   4.281   3.774 -0.0259  0.4408 -3.0623
 7561TIP3   OH222625   3.762   6.969   1.224 -0.3213  0.3204 -0.2034
 7561TIP3    H122626   3.690   7.018   1.263 -0.6201  0.5839 -1.0448
 7561TIP3    H222627   3.776   7.012   1.139 -1.4781 -1.8052 -1.5920
 7562TIP3   OH222628   3.357   5.689   2.775  0.3044 -0.2464  0.4857
 7562TIP3    H122629   3.451   5.707   2.771  0.1856  0.2724  0.0201
 7562TIP3    H222630   3.323   5.719   2.691 -0.2313 -0.7357  0.5179
 7563TIP3   OH222631   2.418   0.958   1.582  0.4355 -0.3265 -0.2579
 7563TIP3    H122632   2.487   0.970   1.517 -0.8398 -0.3789 -1.6915
 7563TIP3    H222633   2.415   0.864   1.598  0.6522 -0.3297 -0.2398
 7564TIP3   OH222634   1.117   2.750   3.084 -0.0312  0.1733  0.5250
 7564TIP3    H122635   1.056   2.770   3.154  0.6449 -0.4237  1.3074
 7564TIP3    H222636   1.201   2.736   3.128  0.3639 -0.4196 -0.3786
 7565TIP3   OH222637   0.727   4.570   4.648  0.2103 -0.0844  0.0866
 7565TIP3    H122638   0.697   4.510   4.580  0.2765  0.2363 -0.2309
 7565TIP3    H222639   0.648   4.595   4.695 -0.0159  0.6992 -0.6984
 7566TIP3   OH222640   0.761   0.853   4.797  0.1737  0.4827  0.5488
 7566TIP3    H122641   0.757   0.935   4.748 -0.7020  1.6364  2.4658
 7566TIP3    H222642   0.687   0.802   4.764  0.2463  0.7668 -0.0763
 7567TIP3   OH222643   5.061   4.667   1.789  0.0838 -0.2453 -0.0344
 7567TIP3    H122644   5.099   4.754   1.781  0.5972 -0.1238  2.6417
 7567TIP3    H222645   5.086   4.622   1.708  0.5868  1.7818 -1.0643
 7568TIP3   OH222646   4.726   4.645   4.889 -0.4268 -0.5293  0.6824
 7568TIP3    H122647   4.744   4.713   4.954 -1.3907  1.0372 -0.6128
 7568TIP3    H222648   4.809   4.598   4.881  0.8059  1.5226  0.4710
 7569TIP3   OH222649   8.285   1.953   6.314  0.1483  0.5453 -0.3140
 7569TIP3    H122650   8.342   1.894   6.364 -0.9900 -1.5278 -1.3073
 7569TIP3    H222651   8.241   2.006   6.380 -1.1148 -1.9173  0.9387
 7570TIP3   OH222652   8.158   3.611   2.375 -0.4917  0.2989  0.2181
 7570TIP3    H122653   8.196   3.618   2.288 -1.3878  1.3165 -0.1172
 7570TIP3    H222654   8.064   3.609   2.360 -0.6300 -0.2675  1.1245
 7571TIP3   OH222655   1.451   1.166   6.379  0.4694  0.2499 -0.8974
 7571TIP3    H122656   1.462   1.137   6.469 -1.1635  1.2100 -0.3363
 7571TIP3    H222657   1.409   1.091   6.335 -0.3590  0.4075 -0.3965
 7572TIP3   OH222658   2.224   4.869   6.595 -0.2374 -0.2473 -0.1593
 7572TIP3    H122659   2.196   4.957   6.618  1.4252  0.2667  0.0295
 7572TIP3    H222660   2.265   4.879   6.509  1.7382 -0.4239  0.7066
 7573TIP3   OH222661   5.211   3.510   6.595 -0.0298  0.2595 -0.2599
 7573TIP3    H122662   5.215   3.414   6.604 -0.9786  0.2187 -0.2088
 7573TIP3    H222663   5.125   3.527   6.557  0.5674  1.0276 -1.3029
 7574TIP3   OH222664   3.826   3.692   5.838 -0.6458  0.6335  0.1059
 7574TIP3    H122665   3.795   3.704   5.749 -0.2535 -1.2133 -0.3347
 7574TIP3    H222666   3.808   3.775   5.882 -1.6851  1.2643 -1.4325
 7575TIP3   OH222667   1.179   3.817   1.872  0.5068 -0.4810 -0.3413
 7575TIP3    H122668   1.138   3.803   1.787 -0.5706 -2.1044  0.3968
 7575TIP3    H222669   1.246   3.748   1.879  0.2356 -0.6902  0.3244
 7576TIP3   OH222670   1.317   1.136   4.753 -0.1141  0.3263  0.5353
 7576TIP3    H122671   1.242   1.191   4.734  0.0823  0.2366 -0.5252
 7576TIP3    H222672   1.287   1.046   4.736  0.2845  0.3063 -0.1118
 7577TIP3   OH222673   3.732   7.579   0.097  0.0725 -0.2476  0.6358
 7577TIP3    H122674   3.807   7.530   0.132  2.3741  1.1922 -1.8499
 7577TIP3    H222675   3.753   7.671   0.117  0.5795  0.4538 -2.5735
 7578TIP3   OH222676   4.617   0.243   6.509  0.4507 -0.1579 -0.4080
 7578TIP3    H122677   4.594   0.151   6.497 -1.4881  0.2543 -0.2216
 7578TIP3    H222678   4.710   0.248   6.489  0.7099 -2.2487  0.1193
 7579TIP3   OH222679   2.169   0.639   0.678  0.4493 -0.0036 -0.1817
 7579TIP3    H122680   2.102   0.696   0.716  1.5642  0.2566  1.5135
 7579TIP3    H222681   2.243   0.698   0.659  0.9919 -0.6159  0.0107
 7580TIP3   OH222682   2.370   0.651   6.341  0.0337  0.5808  0.1804
 7580TIP3    H122683   2.314   0.575   6.324  1.3751 -0.4047 -0.0405
 7580TIP3    H222684   2.374   0.657   6.437 -0.9412  1.0477  0.1960
 7581TIP3   OH222685   3.974   0.931   3.504  0.6870  0.4299 -0.1937
 7581TIP3    H122686   4.028   0.852   3.511  0.7405  0.5391  0.7750
 7581TIP3    H222687   3.898   0.903   3.453  1.0229 -0.0737 -0.4305
 7582TIP3   OH222688   2.488   6.825   2.174  0.6212  0.7306 -0.0931
 7582TIP3    H122689   2.463   6.766   2.245  0.5885  0.8875  0.0257
 7582TIP3    H222690   2.410   6.878   2.159  0.1736 -0.1794 -1.1310
 7583TIP3   OH222691   4.324   0.816   5.240 -0.0245  0.4340  0.0387
 7583TIP3    H122692   4.279   0.830   5.324  1.1221 -2.8055  1.3733
 7583TIP3    H222693   4.410   0.856   5.251  0.7659 -1.4208  1.2020
 7584TIP3   OH222694   3.954   1.115   0.711  0.2003 -0.1270  0.1231
 7584TIP3    H122695   3.947   1.163   0.628  0.6505  0.3709  0.3657
 7584TIP3    H222696   3.904   1.169   0.773 -0.4317 -0.6775  0.1053
 7585TIP3   OH222697   5.680   1.897   6.410  0.1580 -0.4491  0.2253
 7585TIP3    H122698   5.607   1.895   6.347 -2.3488 -1.6760  2.9262
 7585TIP3    H222699   5.678   1.985   6.446  0.0198 -0.4747  0.2821
 7586TIP3   OH222700   2.166   2.810   4.127  0.1686 -0.2903 -0.3211
 7586TIP3    H122701   2.218   2.877   4.172  0.0051 -0.3731 -0.0050
 7586TIP3    H222702   2.168   2.735   4.186  1.0050 -0.8397 -1.0357
 7587TIP3   OH222703   7.254   4.361   2.785 -0.1145 -0.5656  0.1510
 7587TIP3    H122704   7.275   4.424   2.716  1.6557 -2.5917 -1.2844
 7587TIP3    H222705   7.339   4.327   2.813 -0.9936 -2.0657  1.1186
 7588TIP3   OH222706   0.152   0.991   0.626 -0.5081 -0.1896 -0.1294
 7588TIP3    H122707   0.218   1.058   0.609 -1.7342  1.4194  1.1918
 7588TIP3    H222708   0.177   0.953   0.711  0.1266 -1.4076 -0.8240
 7589TIP3   OH222709   7.864   4.055   0.737 -0.8687 -0.0035 -0.1610
 7589TIP3    H122710   7.843   4.149   0.739  1.1022  0.4877  0.0612
 7589TIP3    H222711   7.877   4.031   0.829  3.1364  0.7356 -0.3375
 7590TIP3   OH222712   4.076   4.309   1.681  0.4412 -0.4515  0.1232
 7590TIP3    H122713   3.990   4.311   1.724  0.8460 -2.7858  1.2168
 7590TIP3    H222714   4.098   4.216   1.676  3.9101  0.0836  1.9700
 7591TIP3   OH222715   3.567   2.825   0.799 -0.2443  0.0044 -0.3721
 7591TIP3    H122716   3.490   2.774   0.826 -0.6606  0.4687 -0.6592
 7591TIP3    H222717   3.576   2.806   0.706  0.4064 -0.5847 -0.1913
 7592TIP3   OH222718   7.722   1.392   6.466  0.0450  0.0500  0.1652
 7592TIP3    H122719   7.799   1.428   6.422  0.7789 -0.1658  1.2305
 7592TIP3    H222720   7.755   1.360   6.550 -1.1156 -0.5296  0.4246
 7593TIP3   OH222721   3.351   1.959   5.705 -0.0904 -0.1935  0.2244
 7593TIP3    H122722   3.306   1.951   5.789 -1.3542 -0.5831 -0.4596
 7593TIP3    H222723   3.376   2.051   5.700 -0.1055 -0.1417  0.9714
 7594TIP3   OH222724   7.857   0.589   5.263 -0.5740 -0.1477 -0.0777
 7594TIP3    H122725   7.935   0.602   5.318  0.0950 -0.0575 -1.0117
 7594TIP3    H222726   7.785   0.580   5.325 -0.1113  1.6386  0.8006
 7595TIP3   OH222727   0.103   2.310   2.756  0.2455 -0.7732 -0.3230
 7595TIP3    H122728   0.063   2.242   2.703  0.6646 -1.9789  0.8603
 7595TIP3    H222729   0.033   2.375   2.769 -1.1129 -2.4292  1.0175
 7596TIP3   OH222730   4.939   5.898   2.385  0.7707 -0.2841  0.5311
 7596TIP3    H122731   4.925   5.963   2.455  0.2389  0.2261 -0.0350
 7596TIP3    H222732   5.018   5.851   2.411  1.3080  0.7596  0.8324
 7597TIP3   OH222733   4.151   4.902   6.388  0.1668 -0.3347 -0.2694
 7597TIP3    H122734   4.086   4.972   6.380 -0.4943 -0.7848  0.8147
 7597TIP3    H222735   4.231   4.938   6.351 -0.6233  0.3422 -1.3755
 7598TIP3   OH222736  -0.025   6.461   2.251 -0.0101 -0.0535 -0.4857
 7598TIP3    H122737   0.045   6.398   2.266 -0.1305 -0.0985 -0.1074
 7598TIP3    H222738   0.021   6.542   2.226  0.1553 -0.1962 -0.6527
 7599TIP3   OH222739   0.449   1.512   3.702 -0.1107  0.1872  0.1696
 7599TIP3    H122740   0.366   1.559   3.697 -0.4198 -0.3709 -0.0814
 7599TIP3    H222741   0.447   1.468   3.786 -0.5115 -0.6101 -0.2412
 7600TIP3   OH222742   0.338   0.478   2.151 -0.4758 -0.0140  0.0834
 7600TIP3    H122743   0.328   0.395   2.197 -0.3975 -0.5667 -0.8688
 7600TIP3    H222744   0.387   0.533   2.212 -0.8276 -0.5465  0.8657
 7601TIP3   OH222745   7.077   4.418   2.001  0.1985 -0.0305  0.0354
 7601TIP3    H122746   7.050   4.348   1.941  0.0750  0.5077 -0.5401
 7601TIP3    H222747   6.996   4.447   2.042 -0.0551  1.1970 -1.2743
 7602TIP3   OH222748   4.379   3.135   3.013  0.1581  0.0200  0.3964
 7602TIP3    H122749   4.305   3.118   3.071  0.0177  0.7818  0.4582
 7602TIP3    H222750   4.376   3.065   2.948 -0.2261 -0.3220  0.7742
 7603TIP3   OH222751   7.469   1.123   4.796  0.2532 -0.0663 -0.1742
 7603TIP3    H122752   7.477   1.031   4.769 -1.0982 -0.0431 -0.7065
 7603TIP3    H222753   7.415   1.120   4.875  0.7468  0.2305  0.1815
 7604TIP3   OH222754   6.557   0.313   2.540 -0.3303 -0.4828  0.5293
 7604TIP3    H122755   6.483   0.296   2.482  0.6747  0.3967 -1.0933
 7604TIP3    H222756   6.635   0.294   2.486  0.6623 -1.9318  2.3501
 7605TIP3   OH222757   0.458   3.906   0.761  0.0311  0.2539  0.2549
 7605TIP3    H122758   0.423   3.968   0.697 -1.0824 -0.4382  0.1872
 7605TIP3    H222759   0.487   3.831   0.709  0.1414  0.1485  0.4659
 7606TIP3   OH222760   6.115   6.227   0.886  0.3680 -0.5398  0.1151
 7606TIP3    H122761   6.040   6.218   0.944  0.1215  0.3893 -0.0529
 7606TIP3    H222762   6.081   6.273   0.809  1.0694 -0.2833 -0.0467
 7607TIP3   OH222763   6.894   3.301   6.590 -1.2198 -0.2678  0.5787
 7607TIP3    H122764   6.983   3.278   6.618 -0.6715  0.5736 -0.4085
 7607TIP3    H222765   6.870   3.233   6.527 -1.1298 -0.2933  0.5720
 7608TIP3   OH222766   4.393   1.275   2.362  0.1340 -0.8880 -0.4516
 7608TIP3    H122767   4.384   1.370   2.366 -0.7789 -0.9275 -1.1723
 7608TIP3    H222768   4.322   1.242   2.415 -0.5381 -1.1700 -1.4939
 7609TIP3   OH222769   6.196   4.043   0.194  0.0576 -0.9778  0.4541
 7609TIP3    H122770   6.110   4.073   0.223  0.1203  1.5387 -1.6241
 7609TIP3    H222771   6.178   3.987   0.119  0.2198 -0.6600  0.1778
 7610TIP3   OH222772   3.724   5.709   4.325  0.6059  0.2576 -0.2586
 7610TIP3    H122773   3.816   5.724   4.302  1.0429  1.1624  1.8821
 7610TIP3    H222774   3.684   5.795   4.319  0.2310  0.1145  0.1727
 7611TIP3   OH222775   4.867   0.331   4.901  0.5607 -0.0555  0.0071
 7611TIP3    H122776   4.786   0.296   4.939 -0.6905 -0.8047 -3.0479
 7611TIP3    H222777   4.937   0.283   4.945 -0.7702 -1.0888  1.0938
 7612TIP3   OH222778   0.211   2.595   5.231  0.1622 -0.3795  0.3008
 7612TIP3    H122779   0.245   2.678   5.199  1.6220 -0.7649  0.8018
 7612TIP3    H222780   0.280   2.532   5.215  0.2678 -0.9322  2.5371
 7613TIP3   OH222781   5.830   4.773   5.581 -0.7231 -0.2852 -0.0335
 7613TIP3    H122782   5.775   4.697   5.600  1.8630 -1.4414  4.0205
 7613TIP3    H222783   5.792   4.844   5.634  0.4959 -0.5951  1.3103
 7614TIP3   OH222784   0.246   6.587   2.278  0.2271 -0.1776 -0.0409
 7614TIP3    H122785   0.269   6.662   2.334 -1.5745  0.6327 -0.3379
 7614TIP3    H222786   0.323   6.575   2.222  1.0345  0.6485  0.8452
 7615TIP3   OH222787   4.434   3.070   0.837  0.0251  0.0503 -0.1116
 7615TIP3    H122788   4.488   2.995   0.812  0.5319 -0.5646  2.5028
 7615TIP3    H222789   4.344   3.040   0.825  0.2217 -1.0129  0.9029
 7616TIP3   OH222790   8.125   6.787   4.962 -0.0563  0.5844 -0.1225
 7616TIP3    H122791   8.066   6.801   5.037 -0.8939  1.6219 -0.9339
 7616TIP3    H222792   8.066   6.786   4.886  0.8230 -0.0229 -0.8066
 7617TIP3   OH222793   4.145   2.545   2.518 -0.5586 -0.6803  0.4715
 7617TIP3    H122794   4.069   2.495   2.549 -0.6311 -1.1638 -0.4332
 7617TIP3    H222795   4.201   2.480   2.476  0.1377 -0.2522  0.7233
 7618TIP3   OH222796   3.762   0.252   1.038 -0.2741 -0.5478  0.3096
 7618TIP3    H122797   3.813   0.310   0.981  1.0410 -3.1289 -1.3750
 7618TIP3    H222798   3.822   0.227   1.108 -0.1402 -1.3973 -0.0952
 7619TIP3   OH222799   7.159   3.079   4.193 -0.0337 -0.0408 -0.1686
 7619TIP3    H122800   7.129   3.108   4.279  0.8469  1.2315 -0.2558
 7619TIP3    H222801   7.242   3.034   4.209 -0.3197 -0.6024 -0.2604
 7620TIP3   OH222802   7.717   0.126   1.022  0.0642 -0.5520 -0.4310
 7620TIP3    H122803   7.713   0.221   1.034  0.5291 -0.5166 -0.5577
 7620TIP3    H222804   7.660   0.091   1.091  1.5653 -0.2810  1.0248
 7621TIP3   OH222805   6.322   5.695   0.707 -0.5892  0.3977  0.5976
 7621TIP3    H122806   6.307   5.786   0.734 -0.3849  0.6772 -0.1858
 7621TIP3    H222807   6.240   5.651   0.727 -1.0273  0.9774  0.1354
 7622TIP3   OH222808   3.715   0.341   1.911  0.3452 -0.5043  0.3329
 7622TIP3    H122809   3.722   0.291   1.830 -0.7928 -0.9730  0.5016
 7622TIP3    H222810   3.707   0.275   1.980  1.3360 -0.1105  0.8413
 7623TIP3   OH222811   1.146   6.627   4.642  0.0230  0.3543  0.5511
 7623TIP3    H122812   1.074   6.576   4.680  1.0245 -0.2525  1.7267
 7623TIP3    H222813   1.104   6.704   4.604 -1.3160 -0.3603  0.5416
 7624TIP3   OH222814   2.143   1.210   0.410 -0.5620 -0.0888 -0.0773
 7624TIP3    H122815   2.229   1.203   0.451 -0.4781  0.9030 -0.0657
 7624TIP3    H222816   2.090   1.257   0.473 -0.8649  0.0938 -0.4664
 7625TIP3   OH222817   5.738   0.441   3.502 -0.2357 -0.6562 -0.5594
 7625TIP3    H122818   5.753   0.386   3.425  1.6848 -0.6900 -0.2231
 7625TIP3    H222819   5.815   0.426   3.557 -1.4485 -0.4611  1.2811
 7626TIP3   OH222820   2.637   3.228   4.498  0.2303  0.0903  0.2413
 7626TIP3    H122821   2.716   3.231   4.443  0.4599 -0.4962  0.5346
 7626TIP3    H222822   2.668   3.248   4.586  0.3290 -1.6233  0.6374
 7627TIP3   OH222823   8.133   6.424   0.587  0.0077 -0.2835 -0.0191
 7627TIP3    H122824   8.131   6.349   0.528 -0.6370  0.5023 -1.0435
 7627TIP3    H222825   8.169   6.495   0.534 -0.8059  0.5073  0.4585
 7628TIP3   OH222826   3.383   4.406   0.423 -0.0899 -0.0098 -0.0458
 7628TIP3    H122827   3.340   4.474   0.371  2.3562  1.5684 -0.1742
 7628TIP3    H222828   3.439   4.360   0.360  1.0986  0.3586  0.7002
 7629TIP3   OH222829   3.105   7.173   0.512  0.6897 -0.0266  0.1109
 7629TIP3    H122830   3.112   7.233   0.438  2.3104 -0.3966 -0.0613
 7629TIP3    H222831   3.083   7.229   0.586  1.7854  0.7277 -0.1212
 7630TIP3   OH222832   3.043   2.406   2.797 -0.1207  0.5246  0.1127
 7630TIP3    H122833   3.020   2.463   2.724 -1.5701  0.8149  0.7602
 7630TIP3    H222834   3.085   2.330   2.757 -1.3519  0.4402 -1.0641
 7631TIP3   OH222835   1.288   5.684   4.965  0.0758 -0.0905  0.1327
 7631TIP3    H122836   1.358   5.745   4.988 -0.3752 -0.2913  2.2067
 7631TIP3    H222837   1.329   5.597   4.968 -0.1200 -0.1650  0.8282
 7632TIP3   OH222838   7.017   2.587   1.319 -0.4468  0.4092  0.0823
 7632TIP3    H122839   7.003   2.657   1.384  1.0260  0.2472  0.6107
 7632TIP3    H222840   6.954   2.606   1.250 -2.1124  0.5681  1.5632
 7633TIP3   OH222841   0.204   7.061   5.449  0.3147  0.2243  0.3776
 7633TIP3    H122842   0.124   7.110   5.430  0.3294  0.3407  0.6130
 7633TIP3    H222843   0.210   7.060   5.544 -0.5778 -1.7063  0.4583
 7634TIP3   OH222844   0.075   3.830   3.372 -0.2385 -0.2580 -0.3443
 7634TIP3    H122845   0.049   3.747   3.411 -1.2009 -0.6602 -1.7886
 7634TIP3    H222846   0.167   3.841   3.398 -0.6975 -0.6973  1.6354
 7635TIP3   OH222847   3.642   6.470   4.878 -0.0054 -0.3078  0.2580
 7635TIP3    H122848   3.594   6.459   4.796 -2.5252 -1.2116  1.7333
 7635TIP3    H222849   3.721   6.518   4.853 -0.6441 -0.5653 -2.6689
 7636TIP3   OH222850   4.298   3.359   4.038 -0.1687  0.5533  0.3975
 7636TIP3    H122851   4.348   3.283   4.009 -0.5424  0.6074 -0.4116
 7636TIP3    H222852   4.317   3.427   3.973 -0.6710  0.8206  0.5202
 7637TIP3   OH222853   3.128   3.957   5.525 -0.0684  0.2621  0.5249
 7637TIP3    H122854   3.067   3.982   5.456  1.1443 -0.0873 -0.6972
 7637TIP3    H222855   3.104   3.867   5.547  1.4188 -0.7010 -1.5725
 7638TIP3   OH222856   4.841   5.652   2.204  0.3001  0.2566 -0.0253
 7638TIP3    H122857   4.774   5.652   2.273  0.2166  1.7790 -0.0727
 7638TIP3    H222858   4.791   5.665   2.123  0.5579  0.3792 -0.1654
 7639TIP3   OH222859   2.589   3.849   2.948 -0.4032  0.0346  0.3053
 7639TIP3    H122860   2.594   3.824   3.041  0.9593 -0.6783  0.0623
 7639TIP3    H222861   2.546   3.934   2.949 -0.8458 -0.1742  1.5549
 7640TIP3   OH222862   8.261   6.659   4.185 -0.0485 -0.0987  0.0437
 7640TIP3    H122863   8.243   6.713   4.262  0.2751  1.1615 -0.7428
 7640TIP3    H222864   8.349   6.625   4.199  0.0899  0.2932  0.1545
 7641TIP3   OH222865   6.100   1.406   6.510 -0.3015  0.0957  0.7025
 7641TIP3    H122866   6.121   1.407   6.603 -0.4278 -1.0342  0.7550
 7641TIP3    H222867   6.155   1.337   6.473 -0.9396 -0.1242  0.1191
 7642TIP3   OH222868   8.063   4.136   2.286 -0.1118  0.3635  0.8374
 7642TIP3    H122869   8.098   4.137   2.375 -0.3190  1.0616  0.9133
 7642TIP3    H222870   8.135   4.168   2.232  0.1832 -0.5280  0.6811
 7643TIP3   OH222871   1.947   5.378   5.987  0.2553 -0.3149 -0.7305
 7643TIP3    H122872   2.022   5.429   6.017  0.0783  0.4246 -1.5085
 7643TIP3    H222873   1.899   5.357   6.067  2.0515 -2.0845 -0.0356
 7644TIP3   OH222874   0.211   3.612   6.232 -0.3049 -0.0538 -0.1665
 7644TIP3    H122875   0.298   3.574   6.226  0.8744  2.4905 -0.6037
 7644TIP3    H222876   0.215   3.692   6.179 -3.1164 -0.1649 -0.7477
 7645TIP3   OH222877   2.187   1.463   6.141 -0.0186  0.3282  0.1946
 7645TIP3    H122878   2.259   1.407   6.169  1.0801  0.3098 -2.3815
 7645TIP3    H222879   2.137   1.480   6.221  1.6801 -1.3089  1.6976
 7646TIP3   OH222880   0.773   5.916   3.237 -0.7091 -0.5947  0.6162
 7646TIP3    H122881   0.680   5.914   3.217 -0.3232  0.2743 -1.7032
 7646TIP3    H222882   0.790   6.007   3.262 -0.2519 -0.3043 -0.6441
 7647TIP3   OH222883   7.262   5.983   2.656 -0.3465 -0.0487  0.3908
 7647TIP3    H122884   7.168   5.998   2.660 -0.7020 -1.3470 -1.6212
 7647TIP3    H222885   7.272   5.889   2.672  0.0927 -0.8314 -3.4309
 7648TIP3   OH222886   5.500   4.779   1.640 -0.7299 -0.1187  0.1502
 7648TIP3    H122887   5.458   4.778   1.554  1.0249  1.0122 -0.7826
 7648TIP3    H222888   5.592   4.760   1.622  0.3081  3.0682  1.3303
 7649TIP3   OH222889   5.954   4.955   2.891 -0.2165  0.0040  0.8456
 7649TIP3    H122890   6.022   4.888   2.898  0.0567  0.2438  0.5507
 7649TIP3    H222891   5.875   4.907   2.867 -0.1940 -0.3001  1.3747
 7650TIP3   OH222892   6.231   6.879   0.655 -0.6143  0.5765  0.0383
 7650TIP3    H122893   6.268   6.903   0.740  0.9291 -0.1236 -0.3904
 7650TIP3    H222894   6.227   6.783   0.658  0.4471  0.4773 -1.0445
 7651TIP3   OH222895   0.665   2.437   0.380  0.1876 -0.5673  0.2058
 7651TIP3    H122896   0.591   2.498   0.384  0.6301 -0.0954  1.3763
 7651TIP3    H222897   0.639   2.374   0.313 -1.4427 -0.6253  0.8502
 7652TIP3   OH222898   3.626   5.616   0.031 -0.2990  0.1235 -0.2477
 7652TIP3    H122899   3.667   5.575  -0.045  1.4060 -0.8396  1.1077
 7652TIP3    H222900   3.671   5.700   0.040  0.9438 -0.6081  0.7927
 7653TIP3   OH222901   0.317   4.746   3.936 -0.3865 -0.3422 -0.5405
 7653TIP3    H122902   0.286   4.836   3.940 -1.0585 -0.5555 -0.6622
 7653TIP3    H222903   0.322   4.726   3.842  0.2220 -0.2816 -0.5237
 7654TIP3   OH222904   7.069   3.379   3.786 -0.2633 -0.1637  0.3908
 7654TIP3    H122905   7.094   3.374   3.693  1.6312  0.3349  0.8322
 7654TIP3    H222906   6.988   3.429   3.786 -0.8588 -1.0591 -1.0693
 7655TIP3   OH222907   2.471   5.593   4.449 -0.7305 -0.0655  0.1278
 7655TIP3    H122908   2.536   5.523   4.456 -0.6517  0.0240  0.2922
 7655TIP3    H222909   2.484   5.646   4.527  1.6278  2.2092 -1.6259
 7656TIP3   OH222910   1.880   4.138   1.282 -0.2926  0.0304 -0.1935
 7656TIP3    H122911   1.841   4.051   1.289 -2.1756  0.6586 -1.9280
 7656TIP3    H222912   1.857   4.182   1.365 -1.8078 -0.2153 -0.4556
 7657TIP3   OH222913   3.024   5.114   5.191  0.6288 -0.3985 -0.4740
 7657TIP3    H122914   3.094   5.060   5.155 -0.5686 -1.9466 -0.6048
 7657TIP3    H222915   2.947   5.057   5.191 -0.7909  1.4070 -0.8851
 7658TIP3   OH222916   1.665   4.104   2.365 -0.1192 -0.0860  0.0476
 7658TIP3    H122917   1.661   4.023   2.315 -1.7412 -0.1785  0.2989
 7658TIP3    H222918   1.651   4.076   2.456 -1.7122  0.5763  0.0186
 7659TIP3   OH222919   7.678   1.130   2.098  0.4664  0.0550 -0.2446
 7659TIP3    H122920   7.724   1.121   2.014  0.9471  0.3165 -0.0119
 7659TIP3    H222921   7.702   1.052   2.148  1.4315  0.6433  0.2401
 7660TIP3   OH222922   5.074   0.147   3.002 -0.1845  0.0521  0.2117
 7660TIP3    H122923   5.046   0.150   3.093  0.6970 -0.4544  0.5106
 7660TIP3    H222924   5.153   0.200   2.999  0.9432 -1.5606  0.1859
 7661TIP3   OH222925   3.815   0.137   3.481  0.2293 -0.3066  0.0810
 7661TIP3    H122926   3.761   0.144   3.402 -1.1793 -0.5274  0.9831
 7661TIP3    H222927   3.797   0.217   3.530  1.3933  0.0130  0.0129
 7662TIP3   OH222928   7.742   5.766   3.829  0.1667  0.0369  0.3876
 7662TIP3    H122929   7.701   5.765   3.915 -1.0383  0.9607 -0.1563
 7662TIP3    H222930   7.670   5.752   3.767  1.4378 -4.4622 -0.4008
 7663TIP3   OH222931   6.924   1.957   2.225  0.3169  0.5235 -0.6745
 7663TIP3    H122932   6.862   1.896   2.265  0.8587  0.1268 -0.4112
 7663TIP3    H222933   6.978   1.902   2.168  0.6324  0.8064 -0.6517
 7664TIP3   OH222934   7.371   4.085   2.517 -0.0289 -0.4075 -0.3091
 7664TIP3    H122935   7.373   4.181   2.514 -0.4876 -0.3440  0.8070
 7664TIP3    H222936   7.397   4.057   2.429 -1.1400  0.7402 -1.0257
 7665TIP3   OH222937   6.436   4.132   5.327  0.0892 -0.1394 -0.2702
 7665TIP3    H122938   6.386   4.118   5.408 -0.0845 -0.4644 -0.4313
 7665TIP3    H222939   6.384   4.088   5.260 -0.4373  1.2020 -0.7911
 7666TIP3   OH222940   5.798   7.313   2.163  0.3529  0.2355 -0.3103
 7666TIP3    H122941   5.776   7.292   2.254  0.3316  0.3701 -0.2847
 7666TIP3    H222942   5.893   7.303   2.159  0.3267 -0.0149 -0.3363
 7667TIP3   OH222943   3.394   7.527   3.348  0.7709  0.2268  0.0213
 7667TIP3    H122944   3.364   7.436   3.358 -1.0208  0.7899  0.1635
 7667TIP3    H222945   3.363   7.571   3.427  2.7909  0.7021  0.5937
 7668TIP3   OH222946   5.197   1.789   3.159  0.5361  0.2389 -0.0066
 7668TIP3    H122947   5.208   1.874   3.116  0.7575  0.6641  0.8613
 7668TIP3    H222948   5.215   1.725   3.091  0.4551  0.8870 -0.6548
 7669TIP3   OH222949   5.144   1.440   3.181 -0.1148 -0.1403  1.3186
 7669TIP3    H122950   5.170   1.352   3.212  2.1248  0.3350  0.9840
 7669TIP3    H222951   5.227   1.484   3.164 -1.2024  0.9492 -1.7082
 7670TIP3   OH222952   7.523   5.835   5.799  0.6225 -0.2496  0.1533
 7670TIP3    H122953   7.586   5.903   5.823  0.0480  0.0955  0.7218
 7670TIP3    H222954   7.511   5.783   5.878 -0.7113  0.4301  0.4214
 7671TIP3   OH222955   6.090   7.253   2.159  0.8297 -0.5200 -0.0910
 7671TIP3    H122956   6.152   7.215   2.221 -0.4356 -0.0790  1.5310
 7671TIP3    H222957   6.119   7.344   2.148  0.5670 -0.3440  0.5860
 7672TIP3   OH222958   6.235   0.242   2.526  0.2342 -0.0779 -0.2743
 7672TIP3    H122959   6.205   0.331   2.548 -2.1677 -0.5088 -1.5478
 7672TIP3    H222960   6.287   0.253   2.447  2.3327  0.4710  1.0850
 7673TIP3   OH222961   2.891   4.523   4.906 -0.2465 -0.3628  0.8712
 7673TIP3    H122962   2.912   4.519   5.000  1.5155 -1.9812  0.4846
 7673TIP3    H222963   2.808   4.570   4.902  0.0170  0.4454  3.1733
 7674TIP3   OH222964   2.487   5.400   4.997 -0.1967  0.7175 -0.0296
 7674TIP3    H122965   2.542   5.326   4.971  0.0553  0.0683  2.1061
 7674TIP3    H222966   2.434   5.419   4.920  0.9070 -0.5973 -1.1801
 7675TIP3   OH222967   4.179   1.399   3.080  0.0634 -0.1801 -0.5851
 7675TIP3    H122968   4.097   1.423   3.037  0.1399 -0.5414 -0.9391
 7675TIP3    H222969   4.225   1.345   3.016 -0.4293 -1.9263  0.4481
 7676TIP3   OH222970   0.508   4.090   1.361 -0.4001  0.4386 -0.9556
 7676TIP3    H122971   0.574   4.087   1.291 -0.1655 -0.8458 -0.7166
 7676TIP3    H222972   0.558   4.114   1.439 -0.3245  0.0551 -0.8860
 7677TIP3   OH222973   0.722   1.517   6.435  0.0603 -0.5244 -0.0102
 7677TIP3    H122974   0.690   1.440   6.388 -1.1203 -2.1842  3.2135
 7677TIP3    H222975   0.816   1.518   6.417  0.2259 -3.1267  0.2867
 7678TIP3   OH222976   1.415   1.339   3.205  0.1184 -0.2408  0.6503
 7678TIP3    H122977   1.429   1.403   3.275  0.2213 -0.8240  1.1763
 7678TIP3    H222978   1.419   1.389   3.124 -0.1088  0.4660  1.0711
 7679TIP3   OH222979   2.735   3.834   3.618  0.4851  0.6544 -0.0136
 7679TIP3    H122980   2.759   3.771   3.686  2.0342  1.5152  0.2975
 7679TIP3    H222981   2.668   3.790   3.566 -0.1455 -0.3439  1.5730
 7680TIP3   OH222982   4.224   6.369   6.232  0.4843  0.4220 -0.0464
 7680TIP3    H122983   4.250   6.459   6.214  3.6843 -0.1403  1.0264
 7680TIP3    H222984   4.161   6.376   6.303 -3.4108  1.9571 -3.3144
 7681TIP3   OH222985   4.705   7.607   0.558 -0.5010 -0.6125  0.4232
 7681TIP3    H122986   4.798   7.601   0.539 -0.7413 -0.1368 -1.0607
 7681TIP3    H222987   4.697   7.681   0.618 -0.0544  0.4110 -0.7268
 7682TIP3   OH222988   7.869   4.197   2.656  0.3186 -0.1585 -0.0984
 7682TIP3    H122989   7.964   4.197   2.648  0.3714 -0.5747  0.4608
 7682TIP3    H222990   7.843   4.107   2.636 -0.0082  0.0798 -0.7754
 7683TIP3   OH222991   6.214   7.370   1.223 -0.5282  0.7310 -0.0322
 7683TIP3    H122992   6.145   7.310   1.194 -0.4791 -0.4351  2.0769
 7683TIP3    H222993   6.289   7.313   1.240  1.2361  2.0338 -2.7943
 7684TIP3   OH222994   3.256   6.282   5.066  0.2623  0.3863 -0.5531
 7684TIP3    H122995   3.247   6.374   5.043  0.3395  0.5918  0.2141
 7684TIP3    H222996   3.252   6.280   5.162  1.5826 -0.2450 -0.4811
 7685TIP3   OH222997   4.985   3.471   3.798  0.0789 -0.0246  0.0238
 7685TIP3    H122998   4.942   3.424   3.870 -0.0563 -0.9521 -0.6469
 7685TIP3    H222999   4.920   3.533   3.768  0.5394  1.2263  1.4607
 7686TIP3   OH223000   4.722   6.179   5.880 -0.3587  0.1468  0.4639
 7686TIP3    H123001   4.707   6.160   5.788  1.1737 -0.4775  0.3105
 7686TIP3    H223002   4.707   6.095   5.925 -1.6151  0.5696  0.8642
 7687TIP3   OH223003   2.444   6.084   4.244  0.5122 -0.7850  0.2313
 7687TIP3    H123004   2.385   6.054   4.312  1.1116 -0.4682  0.9110
 7687TIP3    H223005   2.418   6.037   4.165 -1.8676  0.7118  0.0374
 7688TIP3   OH223006   7.428   6.815   0.197 -0.0728 -0.3133  0.0082
 7688TIP3    H123007   7.497   6.852   0.252 -1.6139  0.9034  1.2239
 7688TIP3    H223008   7.360   6.787   0.259 -1.2085 -0.3265 -1.1870
 7689TIP3   OH223009   7.873   2.219   5.266  0.4296 -0.7052  0.2431
 7689TIP3    H123010   7.884   2.313   5.253  2.5287 -0.8971  0.1921
 7689TIP3    H223011   7.958   2.182   5.242 -0.2632 -2.5851  0.5379
 7690TIP3   OH223012   5.119   5.447   0.417 -0.5085  0.6453 -0.5108
 7690TIP3    H123013   5.148   5.449   0.326  0.0132  0.0046 -0.3615
 7690TIP3    H223014   5.184   5.501   0.464 -0.0280 -0.0982 -0.3119
 7691TIP3   OH223015   4.520   4.490   4.697 -0.1202  0.1733  0.3774
 7691TIP3    H123016   4.484   4.487   4.786 -2.3857 -0.2690 -0.4822
 7691TIP3    H223017   4.576   4.413   4.692  0.1649  0.2888  1.4563
 7692TIP3   OH223018   2.287   5.314   3.021  0.3994  0.3785 -0.0526
 7692TIP3    H123019   2.280   5.220   3.007  1.5600  0.1004  0.9957
 7692TIP3    H223020   2.210   5.338   3.073 -1.6563  0.6573 -2.9964
 7693TIP3   OH223021   3.931   4.228   1.157  0.2817  0.0148 -0.2637
 7693TIP3    H123022   3.937   4.267   1.244  1.2035 -1.2615  0.2690
 7693TIP3    H223023   3.914   4.135   1.173  0.7544 -0.2867 -1.4241
 7694TIP3   OH223024   3.363   5.130   1.385 -0.0814  0.8418  0.1627
 7694TIP3    H123025   3.411   5.200   1.341 -1.8015  0.9567 -1.6764
 7694TIP3    H223026   3.375   5.054   1.329 -2.3148  0.9839 -0.5771
 7695TIP3   OH223027   4.778   0.384   3.764  0.0826  0.0763 -0.4606
 7695TIP3    H123028   4.866   0.358   3.791  0.0196 -0.0664 -0.3889
 7695TIP3    H223029   4.791   0.442   3.689  0.3176  1.2545  0.4563
 7696TIP3   OH223030   7.931   2.017   3.631 -0.3607  0.0518 -0.2085
 7696TIP3    H123031   7.949   2.097   3.680  1.1842 -1.0726  1.1386
 7696TIP3    H223032   7.980   1.949   3.677 -2.1389 -1.8061 -0.9335
 7697TIP3   OH223033   1.539   4.602   2.473 -0.0912  0.0986  0.0883
 7697TIP3    H123034   1.582   4.522   2.503  1.2406  0.1378 -1.5554
 7697TIP3    H223035   1.445   4.582   2.475  0.0353 -0.5055  2.3282
 7698TIP3   OH223036   7.802   3.313   1.197 -0.5020  0.0862 -0.3581
 7698TIP3    H123037   7.855   3.338   1.121  1.8507 -1.5554  0.6375
 7698TIP3    H223038   7.757   3.233   1.169  0.8947 -0.9070  0.1330
 7699TIP3   OH223039   5.390   6.668   2.774 -0.4131 -0.2606  0.0445
 7699TIP3    H123040   5.296   6.649   2.771 -0.6681  1.0804 -1.7561
 7699TIP3    H223041   5.421   6.651   2.685  1.1200 -0.8474  0.6440
 7700TIP3   OH223042   6.056   3.304   4.828 -0.3715  0.4012  0.3841
 7700TIP3    H123043   6.117   3.290   4.755 -1.6185  0.9916 -0.8325
 7700TIP3    H223044   6.055   3.220   4.874  1.7132  0.5301  0.7531
 7701TIP3   OH223045   0.136   3.299   1.181  0.4518  0.7676  0.4852
 7701TIP3    H123046   0.048   3.332   1.164  0.4456  0.3436 -0.3736
 7701TIP3    H223047   0.186   3.324   1.103  0.6685 -0.4261  0.2234
 7702TIP3   OH223048   0.811   7.615   6.563 -0.1661 -0.5881  0.1967
 7702TIP3    H123049   0.784   7.524   6.548 -0.7159 -0.7182  1.7289
 7702TIP3    H223050   0.904   7.609   6.586  0.2282 -0.5603 -1.2826
 7703TIP3   OH223051   6.353   6.518   4.347  0.2114  0.4735  0.0059
 7703TIP3    H123052   6.359   6.612   4.360  0.4942  0.3968  0.4342
 7703TIP3    H223053   6.413   6.480   4.411  0.9831  0.0478 -0.9495
 7704TIP3   OH223054   0.132   6.215   1.921  0.2776 -0.2792 -0.2719
 7704TIP3    H123055   0.192   6.288   1.937  0.1943 -0.2570 -0.0611
 7704TIP3    H223056   0.045   6.254   1.927  0.2444 -0.2520 -0.8725
 7705TIP3   OH223057   3.452   5.846   2.009 -0.3874  0.3573  0.2626
 7705TIP3    H123058   3.368   5.862   2.053 -0.1856  1.4337  0.2754
 7705TIP3    H223059   3.464   5.921   1.951 -0.4154 -0.8030 -1.3150
 7706TIP3   OH223060   6.338   4.387   5.410  0.6896  0.2432 -0.1413
 7706TIP3    H123061   6.395   4.464   5.404  1.9039 -0.6739 -0.6294
 7706TIP3    H223062   6.361   4.333   5.335 -1.6816  0.3599 -1.0649
 7707TIP3   OH223063   4.524   7.735   0.382 -0.1322  0.2636  0.1399
 7707TIP3    H123064   4.581   7.676   0.432 -0.0270  0.8182  0.6812
 7707TIP3    H223065   4.539   7.821   0.420 -0.1217  0.6867 -0.8003
 7708TIP3   OH223066   4.772   5.630   1.887  0.2795  0.0587 -0.0147
 7708TIP3    H123067   4.690   5.661   1.849  0.4138  1.3299  0.6665
 7708TIP3    H223068   4.839   5.661   1.826  0.4632  1.7513  0.9735
 7709TIP3   OH223069   5.285   6.617   1.077  0.2298  0.1378  0.3319
 7709TIP3    H123070   5.251   6.692   1.028  1.3814 -0.1577 -0.9741
 7709TIP3    H223071   5.357   6.652   1.129  0.5234  0.0193  0.0096
 7710TIP3   OH223072   6.187   0.706   2.985 -0.4094 -0.1881  0.1311
 7710TIP3    H123073   6.258   0.719   3.048 -0.8536  1.0516  0.3917
 7710TIP3    H223074   6.129   0.642   3.027 -0.9151  0.9305  1.1811
 7711TIP3   OH223075   7.532   7.472   1.252  0.1144 -0.0513 -0.4771
 7711TIP3    H123076   7.546   7.521   1.332 -1.4754 -1.3228  0.6532
 7711TIP3    H223077   7.542   7.536   1.182  2.4240  0.9136  0.6409
 7712TIP3   OH223078   5.291   4.771   5.423 -0.9216  0.0950  0.2876
 7712TIP3    H123079   5.201   4.802   5.416 -0.9219  0.3007  1.1093
 7712TIP3    H223080   5.342   4.830   5.368 -1.3823 -0.4413 -0.7286
 7713TIP3   OH223081   5.466   6.915   5.731  0.0989 -0.3798  0.2035
 7713TIP3    H123082   5.474   7.010   5.739 -2.3906 -0.1565  1.0977
 7713TIP3    H223083   5.373   6.901   5.713 -0.2557 -2.7505  3.0646
 7714TIP3   OH223084   4.157   4.571   2.121 -0.6026  0.2664 -0.2436
 7714TIP3    H123085   4.252   4.560   2.132 -0.4846  0.5015 -0.9580
 7714TIP3    H223086   4.148   4.650   2.067 -1.0260 -1.7538 -3.3602
 7715TIP3   OH223087   1.995   1.187   5.873 -0.2885  0.0097  0.6135
 7715TIP3    H123088   2.049   1.127   5.925  1.2393  2.3665  1.9378
 7715TIP3    H223089   1.940   1.232   5.938 -1.5761 -0.0778 -0.3724
 7716TIP3   OH223090   3.816   1.975   6.503 -0.1628  0.0287 -0.2608
 7716TIP3    H123091   3.824   1.944   6.413  3.7880 -1.6949  0.4841
 7716TIP3    H223092   3.794   1.896   6.553 -0.0788  0.4953  0.5215
 7717TIP3   OH223093   5.854   2.152   0.447  0.3344 -0.1944  0.4483
 7717TIP3    H123094   5.861   2.057   0.438  3.4550  0.0015 -0.3860
 7717TIP3    H223095   5.921   2.175   0.511 -0.0423  1.4786  0.2828
 7718TIP3   OH223096   3.524   6.157   6.713 -0.0683  0.5769 -0.6504
 7718TIP3    H123097   3.541   6.105   6.635  0.1676  0.4935 -0.5449
 7718TIP3    H223098   3.585   6.123   6.779  0.8747  1.7065 -0.8892
 7719TIP3   OH223099   4.424   3.356   3.719  0.3634  0.0149  0.8280
 7719TIP3    H123100   4.357   3.297   3.685 -0.1462  1.8258 -1.5893
 7719TIP3    H223101   4.504   3.304   3.722 -0.0393 -0.8238 -1.2741
 7720TIP3   OH223102   2.636   5.137   1.019 -0.3642  0.6901  0.2908
 7720TIP3    H123103   2.551   5.152   1.060  0.1065  1.9447  0.8687
 7720TIP3    H223104   2.635   5.193   0.941  0.3160  1.5310  0.8717
 7721TIP3   OH223105   0.169   4.396   3.834  0.4295  0.4767  0.2214
 7721TIP3    H123106   0.191   4.451   3.759 -0.5334 -0.1700 -0.5774
 7721TIP3    H223107   0.143   4.312   3.794  1.0840 -0.2841  1.3510
 7722TIP3   OH223108   5.549   6.734   4.373 -0.1583  0.0900  0.1188
 7722TIP3    H123109   5.569   6.826   4.360  0.3199 -0.0482 -0.1524
 7722TIP3    H223110   5.554   6.722   4.468  0.4012  0.2098  0.1108
 7723TIP3   OH223111   5.159   2.292   4.397  0.3231 -0.3063 -0.5536
 7723TIP3    H123112   5.064   2.302   4.391  0.4872  2.2075  0.0082
 7723TIP3    H223113   5.178   2.289   4.490  0.8103 -0.9199 -0.6629
 7724TIP3   OH223114   6.607   3.769   1.758 -0.6578 -0.2715 -0.8332
 7724TIP3    H123115   6.642   3.710   1.691 -0.4293  0.5176 -1.4133
 7724TIP3    H223116   6.684   3.810   1.796 -0.8078 -0.4623 -0.3131
 7725TIP3   OH223117   7.982   6.072   5.719 -0.0738 -0.6292 -0.3851
 7725TIP3    H123118   8.005   6.163   5.698  0.3100 -0.4288  0.8188
 7725TIP3    H223119   8.065   6.025   5.717 -0.2767 -0.9599 -1.0262
 7726TIP3   OH223120   2.854   1.404   0.615 -0.0615 -0.3244  0.4146
 7726TIP3    H123121   2.800   1.348   0.671 -0.4722  0.7543  1.1271
 7726TIP3    H223122   2.897   1.465   0.675  1.1761 -0.5128 -0.2454
 7727TIP3   OH223123   0.622   6.717   2.885 -0.0198  0.5965  0.0214
 7727TIP3    H123124   0.661   6.753   2.806  0.5704  1.2162  0.5845
 7727TIP3    H223125   0.535   6.756   2.889 -0.0451  0.5760 -0.3152
 7728TIP3   OH223126   2.315   3.222   3.417 -0.1043  0.3417 -0.7065
 7728TIP3    H123127   2.307   3.166   3.340  0.7003 -2.5957  1.1425
 7728TIP3    H223128   2.409   3.224   3.434 -0.3208  0.3336  0.5690
 7729TIP3   OH223129   0.584   2.325   3.249  0.5357  0.1116 -0.0903
 7729TIP3    H123130   0.620   2.240   3.273 -0.7375 -1.2876 -2.7270
 7729TIP3    H223131   0.551   2.362   3.331 -0.7284 -2.8737  0.8547
 7730TIP3   OH223132   2.296   5.873   4.851 -0.4347  0.2079  0.1378
 7730TIP3    H123133   2.227   5.938   4.837 -0.2326  0.6122  0.9546
 7730TIP3    H223134   2.353   5.913   4.916 -0.0732 -0.6149  0.3365
 7731TIP3   OH223135   7.123   1.622   4.182  0.1711 -0.0402 -0.1516
 7731TIP3    H123136   7.066   1.629   4.105  2.3919  1.4280 -1.7849
 7731TIP3    H223137   7.098   1.695   4.237 -1.0250 -0.7438  0.2788
 7732TIP3   OH223138   4.663   4.239   2.247  0.0626  0.2183  0.1865
 7732TIP3    H123139   4.683   4.193   2.165 -0.5032  2.6587 -1.4095
 7732TIP3    H223140   4.748   4.267   2.281  0.2423 -0.1466  0.0429
 7733TIP3   OH223141   3.305   2.892   3.743  0.3289 -0.2961  0.1106
 7733TIP3    H123142   3.244   2.961   3.767  0.0553  0.4115 -2.3963
 7733TIP3    H223143   3.265   2.811   3.775 -2.4631  0.0210 -2.1926
 7734TIP3   OH223144   6.247   1.904   5.902 -0.1079  0.3011  0.0589
 7734TIP3    H123145   6.225   1.842   5.972 -0.9649 -1.7200 -1.8606
 7734TIP3    H223146   6.178   1.892   5.837  0.8268  1.8508 -1.3020
 7735TIP3   OH223147   5.960   0.406   0.969 -0.1117  0.0279 -0.2136
 7735TIP3    H123148   6.041   0.390   1.018 -0.1020  1.3765  0.2538
 7735TIP3    H223149   5.989   0.423   0.879  0.0740 -0.0437 -0.1668
 7736TIP3   OH223150   8.134   4.840   3.500  0.0478  0.0117 -0.4113
 7736TIP3    H123151   8.173   4.851   3.586 -1.1571  0.6860  0.0689
 7736TIP3    H223152   8.047   4.805   3.517 -0.7501  1.5021 -1.2527
 7737TIP3   OH223153   6.290   3.975   5.159 -0.3290  0.1316  0.2354
 7737TIP3    H123154   6.243   3.897   5.189  1.1872 -1.8228 -2.0124
 7737TIP3    H223155   6.240   4.006   5.083  1.1399 -1.1894 -1.3718
 7738TIP3   OH223156   2.990   0.416   4.875 -0.0735 -0.8353 -0.0310
 7738TIP3    H123157   3.007   0.349   4.941 -1.2258 -0.8387  0.2916
 7738TIP3    H223158   2.895   0.427   4.877 -0.2202 -1.3102 -2.1449
 7739TIP3   OH223159   0.492   5.895   3.231 -0.0928  0.2576  0.0605
 7739TIP3    H123160   0.472   5.924   3.320 -1.7311 -1.5682  0.3369
 7739TIP3    H223161   0.465   5.969   3.176 -0.0655  0.9883  0.9911
 7740TIP3   OH223162   3.047   2.299   2.435  0.4643 -0.1809  0.4745
 7740TIP3    H123163   3.006   2.356   2.501  1.5346 -0.8089  1.7354
 7740TIP3    H223164   3.013   2.330   2.352 -0.5958  0.9402  1.2882
 7741TIP3   OH223165   2.236   5.207   4.346  0.1681  0.1015  0.0656
 7741TIP3    H123166   2.314   5.179   4.393 -0.4629 -0.7223  0.6406
 7741TIP3    H223167   2.258   5.294   4.312  1.0837  0.1674  0.8047
 7742TIP3   OH223168   0.018   5.952   6.013 -0.0420  0.0339  0.1551
 7742TIP3    H123169   0.087   5.909   6.063 -1.4508 -2.2238  0.2561
 7742TIP3    H223170  -0.041   5.988   6.080 -0.4064 -0.4589  0.1016
 7743TIP3   OH223171   6.093   5.194   3.567  0.7327  0.3965 -0.0466
 7743TIP3    H123172   6.135   5.108   3.569 -1.5700 -0.7815  1.3048
 7743TIP3    H223173   6.113   5.233   3.652 -0.0731  0.2289  0.2275
 7744TIP3   OH223174   0.006   1.438   3.423  0.1082 -0.3209  0.1500
 7744TIP3    H123175   0.038   1.359   3.379  1.3667  0.8555 -1.1257
 7744TIP3    H223176   0.083   1.473   3.467 -0.4058  0.2979  0.5631
 7745TIP3   OH223177   3.520   3.032   3.881  0.3518  0.6873 -0.2466
 7745TIP3    H123178   3.604   3.003   3.846  0.1323  0.8635 -0.9368
 7745TIP3    H223179   3.455   2.979   3.833  0.0660  0.6814  0.1461
 7746TIP3   OH223180   6.272   3.649   1.187  0.3963  0.1082 -0.0288
 7746TIP3    H123181   6.178   3.664   1.202  0.4943  0.7796 -0.0770
 7746TIP3    H223182   6.275   3.600   1.105  0.1560  1.4657 -0.8886
 7747TIP3   OH223183   3.437   1.824   0.748 -0.6718 -0.3775  0.1675
 7747TIP3    H123184   3.437   1.730   0.729 -2.5741  0.0143 -2.2091
 7747TIP3    H223185   3.368   1.835   0.813 -0.0536 -0.6674  0.8867
 7748TIP3   OH223186   4.772   0.168   4.461  0.3318 -0.0716 -0.4580
 7748TIP3    H123187   4.709   0.195   4.527  0.1550 -1.9319  0.2031
 7748TIP3    H223188   4.856   0.165   4.507  0.7850  1.5757 -1.1230
 7749TIP3   OH223189   5.274   7.679   3.365 -0.5739  0.3243 -0.5166
 7749TIP3    H123190   5.193   7.637   3.393 -0.7016  0.5229 -0.5819
 7749TIP3    H223191   5.248   7.769   3.344 -0.9080 -0.3744 -3.3974
 7750TIP3   OH223192   6.362   5.501   3.728  0.4962  0.0544  0.3617
 7750TIP3    H123193   6.452   5.502   3.697  0.3118  2.2620 -0.2898
 7750TIP3    H223194   6.327   5.586   3.702 -2.0300 -1.0446 -0.1197
 7751TIP3   OH223195   7.272   0.814   5.376 -0.4858 -0.1740 -0.2799
 7751TIP3    H123196   7.303   0.740   5.428  1.1564 -0.1236 -1.1305
 7751TIP3    H223197   7.207   0.775   5.317  0.0497 -0.8854 -0.4295
 7752TIP3   OH223198   3.069   2.958   1.594 -0.2085  0.4403 -0.2542
 7752TIP3    H123199   3.078   3.035   1.650  1.9370  0.0311  0.0572
 7752TIP3    H223200   3.052   2.886   1.655 -1.5151  0.5163 -0.4888
 7753TIP3   OH223201   1.238   1.468   0.679  0.2735 -0.1753 -0.0508
 7753TIP3    H123202   1.211   1.392   0.731 -1.1868 -0.2501 -0.8530
 7753TIP3    H223203   1.156   1.512   0.656  0.9953  0.8492 -0.7949
 7754TIP3   OH223204   5.321   2.511   3.784  0.5455 -0.0172  0.1377
 7754TIP3    H123205   5.237   2.556   3.790  0.4428 -0.3857  2.2428
 7754TIP3    H223206   5.313   2.455   3.706 -0.4265  1.3448 -0.7795
 7755TIP3   OH223207   7.214   1.830   6.148  0.2316  0.3525  0.4106
 7755TIP3    H123208   7.132   1.851   6.104 -0.3455 -0.0461  1.2595
 7755TIP3    H223209   7.225   1.736   6.134  0.0974  0.2442  1.0124
 7756TIP3   OH223210   0.510   0.361   1.187  0.0000  0.3061  0.1092
 7756TIP3    H123211   0.464   0.438   1.155 -0.3344 -0.0759 -0.3395
 7756TIP3    H223212   0.581   0.347   1.124 -0.4933 -0.2850 -0.3298
 7757TIP3   OH223213   3.494   2.502   5.161  0.1137 -0.9046  0.4800
 7757TIP3    H123214   3.573   2.465   5.199  0.8421  0.7636  0.6899
 7757TIP3    H223215   3.509   2.499   5.067  1.2571  0.9755  0.5405
 7758TIP3   OH223216   4.416   5.126   3.161  0.0901  0.4094  0.6905
 7758TIP3    H123217   4.380   5.041   3.136  1.2736  0.3360 -0.9107
 7758TIP3    H223218   4.387   5.139   3.251  0.0411 -1.7679  1.0390
 7759TIP3   OH223219   2.444   5.734   6.196  0.2356 -0.3537 -0.6170
 7759TIP3    H123220   2.422   5.659   6.251 -1.4220  0.8402  0.4434
 7759TIP3    H223221   2.373   5.797   6.211  0.6796  0.7511 -2.7759
 7760TIP3   OH223222   1.785   5.203   0.100  0.1332 -0.4291  0.0823
 7760TIP3    H123223   1.874   5.172   0.117  0.4487 -0.5903 -1.6992
 7760TIP3    H223224   1.776   5.280   0.156  1.8668  0.3620 -0.6612
 7761TIP3   OH223225   5.477   6.908   3.857  0.2285 -0.0447 -0.1714
 7761TIP3    H123226   5.460   6.967   3.784 -0.4804  0.6992  0.5692
 7761TIP3    H223227   5.395   6.907   3.907  0.5850 -0.8040  0.4213
 7762TIP3   OH223228   2.946   6.452   5.963  0.5899  0.0414 -0.3429
 7762TIP3    H123229   2.876   6.472   6.026  0.4953 -1.2769 -0.0024
 7762TIP3    H223230   3.017   6.418   6.017  1.3419  0.9441 -0.7382
 7763TIP3   OH223231   1.103   3.394   6.364 -0.4326 -0.0968  0.2996
 7763TIP3    H123232   1.055   3.312   6.377 -0.1297 -0.2114  0.7043
 7763TIP3    H223233   1.046   3.461   6.401 -0.1643 -0.2656  1.0416
 7764TIP3   OH223234   0.813   0.329   6.511 -0.1737  0.2197 -0.0660
 7764TIP3    H123235   0.809   0.347   6.417 -2.0945  0.8719  0.0826
 7764TIP3    H223236   0.771   0.406   6.551  0.3204 -0.1980  1.3025
 7765TIP3   OH223237   0.873   2.274   1.077  0.4497 -0.2111 -0.4017
 7765TIP3    H123238   0.851   2.299   0.987 -0.4203  1.8048  0.2960
 7765TIP3    H223239   0.792   2.234   1.110 -0.5558  2.4141  0.5518
 7766TIP3   OH223240   4.469   6.494   5.445 -0.0380  0.3531  0.6211
 7766TIP3    H123241   4.562   6.480   5.463 -0.0480 -1.1339 -0.2788
 7766TIP3    H223242   4.425   6.468   5.526  0.3595  2.6029  1.6425
 7767TIP3   OH223243   4.135   0.007   1.023  0.3988  0.0473 -0.0162
 7767TIP3    H123244   4.204  -0.060   1.027  1.1226  0.7358 -0.5782
 7767TIP3    H223245   4.181   0.086   0.997 -1.0399 -0.1059 -3.5398
 7768TIP3   OH223246   3.433   7.409   5.609 -0.0737  0.4163  0.4949
 7768TIP3    H123247   3.437   7.389   5.516 -0.4621  3.1018 -0.1827
 7768TIP3    H223248   3.515   7.455   5.627 -0.4047  0.7310  1.2500
 7769TIP3   OH223249   1.639   6.893   4.330  0.6892 -0.0482 -0.0229
 7769TIP3    H123250   1.632   6.917   4.423  0.1813 -0.8760  0.1661
 7769TIP3    H223251   1.723   6.847   4.324  1.5187  1.4190 -0.3253
 7770TIP3   OH223252   3.753   1.502   4.750  0.3538  0.3322  0.1267
 7770TIP3    H123253   3.663   1.533   4.756  1.2320  3.0623  0.8695
 7770TIP3    H223254   3.766   1.450   4.829 -1.1642 -2.0733 -1.1121
 7771TIP3   OH223255   4.328   5.679   2.622 -0.3014 -0.2396 -0.2478
 7771TIP3    H123256   4.356   5.713   2.537 -0.1333 -0.1558 -0.1608
 7771TIP3    H223257   4.273   5.604   2.601 -0.8782  0.2277 -0.4517
 7772TIP3   OH223258   2.379   5.467   6.279 -0.3528 -0.2887 -0.0525
 7772TIP3    H123259   2.376   5.459   6.183 -1.5960  0.9709 -0.1513
 7772TIP3    H223260   2.287   5.460   6.306  0.0191 -1.0043  1.1015
 7773TIP3   OH223261   3.598   0.585   3.256  0.1577  0.4526  0.0296
 7773TIP3    H123262   3.615   0.627   3.172  1.3888  0.6831  0.3696
 7773TIP3    H223263   3.634   0.497   3.247  0.0832  0.4006  0.2375
 7774TIP3   OH223264   0.751   6.486   3.263  0.2757  0.5673 -0.3686
 7774TIP3    H123265   0.718   6.531   3.185 -0.6955 -0.5711 -0.6560
 7774TIP3    H223266   0.842   6.515   3.272 -0.1708  2.2081 -0.7832
 7775TIP3   OH223267   7.017   7.375   3.597  0.6193 -0.4823 -0.2574
 7775TIP3    H123268   6.978   7.462   3.590  1.3448  0.2357  2.9760
 7775TIP3    H223269   6.943   7.314   3.584 -0.7140  0.7298  1.3057
 7776TIP3   OH223270   1.260   5.619   3.631  0.0735  0.3066  0.0073
 7776TIP3    H123271   1.306   5.701   3.649 -1.2117  1.2808 -1.0399
 7776TIP3    H223272   1.178   5.627   3.679  0.4308 -0.9158  0.8814
 7777TIP3   OH223273   4.191   3.905   0.443  0.6868  0.2108  0.0036
 7777TIP3    H123274   4.229   3.955   0.371 -0.9145  0.2297 -0.8753
 7777TIP3    H223275   4.146   3.970   0.497  0.6027  0.0167  0.1694
 7778TIP3   OH223276   4.100   3.284   4.235  0.4703  0.0883  0.0523
 7778TIP3    H123277   4.156   3.340   4.182 -0.0286  0.0620 -0.5209
 7778TIP3    H223278   4.159   3.220   4.275  1.2895  1.9825  2.0429
 7779TIP3   OH223279   5.435   3.773   0.528  0.3705 -0.1885 -0.2587
 7779TIP3    H123280   5.527   3.755   0.507  0.7338 -0.1941  1.2197
 7779TIP3    H223281   5.392   3.777   0.443  1.7517 -0.1033 -0.9967
 7780TIP3   OH223282   1.995   4.949   5.547  0.2413  0.1836  0.5105
 7780TIP3    H123283   1.901   4.966   5.546  0.0330 -0.9137 -0.8387
 7780TIP3    H223284   2.035   5.034   5.568 -1.0168  0.7278  0.7911
 7781TIP3   OH223285   3.098   7.479   3.510 -0.0392  0.0109 -0.4168
 7781TIP3    H123286   3.165   7.513   3.569 -3.0812  1.1855  2.6943
 7781TIP3    H223287   3.066   7.556   3.464 -0.0103 -0.3707 -1.0840
 7782TIP3   OH223288   3.049   6.083   5.862  0.0567 -0.6605 -0.6550
 7782TIP3    H123289   2.989   6.039   5.803  0.3801 -1.7645 -0.1739
 7782TIP3    H223290   3.119   6.115   5.804  0.6278 -2.1692 -0.8297
 7783TIP3   OH223291   2.689   4.873   1.692  0.7633  0.0975  0.1943
 7783TIP3    H123292   2.749   4.929   1.644 -3.4690  1.9135 -3.7399
 7783TIP3    H223293   2.730   4.786   1.689  2.5101  0.8164 -3.8023
 7784TIP3   OH223294   5.232   0.864   3.985  0.2836  0.0726 -0.0512
 7784TIP3    H123295   5.211   0.926   4.056  1.8577 -0.3050  0.7958
 7784TIP3    H223296   5.152   0.812   3.976  0.4458 -0.7519  2.4133
 7785TIP3   OH223297   6.780   2.729   0.129 -0.0569 -0.3735  0.2882
 7785TIP3    H123298   6.693   2.766   0.120  0.6104  1.2922  0.3501
 7785TIP3    H223299   6.767   2.634   0.126 -1.8439 -0.1447  0.2620
 7786TIP3   OH223300   6.469   2.546   1.995  0.3302  0.1936 -0.0620
 7786TIP3    H123301   6.521   2.575   1.920  1.5135  0.9421  0.9923
 7786TIP3    H223302   6.418   2.622   2.020  2.1059  0.9365  1.6133
 7787TIP3   OH223303   7.078   7.495   2.553 -0.2740 -0.3049 -0.4980
 7787TIP3    H123304   7.004   7.452   2.597  0.1704 -0.6707 -0.1046
 7787TIP3    H223305   7.155   7.469   2.604  0.1718 -0.2146 -1.1173
 7788TIP3   OH223306   5.072   6.573   4.497 -0.9855 -0.6413  0.2696
 7788TIP3    H123307   5.071   6.485   4.461 -3.3658  0.0095 -1.5814
 7788TIP3    H223308   5.014   6.569   4.573 -0.7513 -0.7595  0.4416
 7789TIP3   OH223309   6.497   2.986   3.528 -0.0219 -0.4517  0.3770
 7789TIP3    H123310   6.583   2.972   3.489 -0.4901  0.8317 -1.2557
 7789TIP3    H223311   6.514   2.996   3.621  1.3292 -2.3189  0.3866
 7790TIP3   OH223312   1.734   5.227   4.119 -0.5292  0.1805  0.5232
 7790TIP3    H123313   1.789   5.256   4.191 -1.8374  0.5066  1.4200
 7790TIP3    H223314   1.653   5.277   4.128 -0.3824  0.9430 -1.7560
 7791TIP3   OH223315   2.966   4.658   3.812  0.4448 -0.3675  0.0197
 7791TIP3    H123316   2.965   4.623   3.901  0.6941  0.8095  0.5085
 7791TIP3    H223317   2.882   4.631   3.774  0.2065 -0.6282  0.7177
 7792TIP3   OH223318   5.686   1.032   2.227 -0.6320  0.5377 -0.0793
 7792TIP3    H123319   5.760   0.972   2.225 -1.0239  0.0504 -0.6227
 7792TIP3    H223320   5.622   0.993   2.167 -2.3362 -0.3664  2.1628
 7793TIP3   OH223321   0.385   2.148   6.569  0.5222  0.2189  0.1613
 7793TIP3    H123322   0.342   2.145   6.654  0.1961 -1.2276 -0.0202
 7793TIP3    H223323   0.363   2.234   6.533  0.1407  0.5911  1.2656
 7794TIP3   OH223324   0.300   2.319   5.642  0.6035 -0.8374 -0.1464
 7794TIP3    H123325   0.350   2.285   5.569  1.3579 -1.4301  0.6279
 7794TIP3    H223326   0.278   2.409   5.616  3.5109  0.0842  0.1400
 7795TIP3   OH223327   3.046   5.326   0.155 -0.0770  0.1202 -0.4151
 7795TIP3    H123328   2.983   5.374   0.102 -1.6167 -1.2501  0.0887
 7795TIP3    H223329   3.118   5.306   0.095  0.3374  2.4470 -0.7856
 7796TIP3   OH223330   4.904   2.793   3.562 -1.0183  0.4963 -0.6654
 7796TIP3    H123331   4.998   2.813   3.563 -0.8651 -0.1628  0.1768
 7796TIP3    H223332   4.886   2.765   3.473  0.3117 -2.4977 -0.1118
 7797TIP3   OH223333   0.385   7.052   5.245  0.6191 -0.3439  0.1289
 7797TIP3    H123334   0.333   7.059   5.325 -0.8114 -1.9183 -0.5978
 7797TIP3    H223335   0.475   7.065   5.273 -0.0020  0.6525  1.7348
 7798TIP3   OH223336   3.979   2.648   3.597  0.1827  0.3015 -0.2203
 7798TIP3    H123337   3.987   2.712   3.668 -2.1886 -0.5900  0.9593
 7798TIP3    H223338   3.897   2.670   3.553 -0.1119 -1.2178 -0.4993
 7799TIP3   OH223339   2.533   2.770   2.792  0.0298  0.4027  0.0467
 7799TIP3    H123340   2.501   2.688   2.830  0.2244  1.1166  1.8688
 7799TIP3    H223341   2.628   2.761   2.792  0.0381  0.4919 -0.0600
 7800TIP3   OH223342   5.726   3.230   4.680 -0.1924  0.4415 -0.2503
 7800TIP3    H123343   5.666   3.155   4.681 -0.1455  0.1545 -4.0344
 7800TIP3    H223344   5.813   3.191   4.686 -0.2190  0.2700 -0.8705
 7801TIP3   OH223345   6.603   1.926   1.983 -0.2694 -0.2274  0.4026
 7801TIP3    H123346   6.692   1.894   1.994 -0.1729 -0.0129  0.2555
 7801TIP3    H223347   6.563   1.918   2.070  0.0841  0.2481  0.6135
 7802TIP3   OH223348   3.766   7.288   5.335 -0.7805 -0.2286  0.0266
 7802TIP3    H123349   3.755   7.288   5.430 -0.8971 -0.0886  0.0149
 7802TIP3    H223350   3.760   7.381   5.311  1.0646 -0.0683  0.0832
 7803TIP3   OH223351   2.803   2.903   3.905  0.8056 -0.5423  0.1861
 7803TIP3    H123352   2.785   2.857   3.988 -2.4969 -0.0492 -0.1328
 7803TIP3    H223353   2.805   2.995   3.929 -0.1395 -0.3992 -0.2464
 7804TIP3   OH223354   7.468   0.880   4.650 -0.2917 -0.4305 -0.1596
 7804TIP3    H123355   7.398   0.825   4.685 -1.2787  1.5282  1.1229
 7804TIP3    H223356   7.471   0.859   4.557 -0.9389 -2.2659  0.1977
 7805TIP3   OH223357   6.187   5.350   6.570  0.4470  0.5161 -0.1366
 7805TIP3    H123358   6.177   5.260   6.540  0.4305  0.3421  0.3736
 7805TIP3    H223359   6.234   5.394   6.499  0.5749  0.0735 -0.3321
 7806TIP3   OH223360   3.710   6.389   4.259  0.3296  0.0501  0.0707
 7806TIP3    H123361   3.766   6.458   4.223 -0.2291  0.8580  0.6988
 7806TIP3    H223362   3.715   6.401   4.354 -0.6842 -0.0147  0.1488
 7807TIP3   OH223363   1.650   6.213   2.231  0.1082  0.1730 -0.4407
 7807TIP3    H123364   1.670   6.123   2.256  1.2366  0.1335 -1.3969
 7807TIP3    H223365   1.554   6.219   2.236  0.0986 -0.7421  0.6960
 7808TIP3   OH223366   2.401   6.334   2.710 -0.3378 -0.1406 -0.1702
 7808TIP3    H123367   2.374   6.249   2.744  1.0340 -0.0651  1.2413
 7808TIP3    H223368   2.336   6.395   2.743 -0.4473 -0.4380  0.1730
 7809TIP3   OH223369   3.128   5.296   5.482 -0.2961  0.6643 -0.0213
 7809TIP3    H123370   3.131   5.214   5.432  1.1268  0.4979  0.2949
 7809TIP3    H223371   3.109   5.269   5.572  0.8133  0.6046  0.2050
 7810TIP3   OH223372   5.717   6.731   4.653 -0.7488  0.4708 -0.6006
 7810TIP3    H123373   5.697   6.824   4.666 -0.2119  0.3603  1.1931
 7810TIP3    H223374   5.660   6.685   4.714  0.7372 -0.2010  0.3250
 7811TIP3   OH223375   3.241   0.306   6.347  0.0785  0.9344 -0.0490
 7811TIP3    H123376   3.161   0.274   6.387 -0.8587 -0.1686 -2.5970
 7811TIP3    H223377   3.233   0.402   6.348 -1.4556  0.8278 -0.5873
 7812TIP3   OH223378   1.362   6.192   0.848 -0.3597  0.1665  0.2006
 7812TIP3    H123379   1.308   6.176   0.925 -1.7419 -2.2790 -1.1435
 7812TIP3    H223380   1.379   6.105   0.812  1.1255  1.1463 -1.6986
 7813TIP3   OH223381   5.455   5.869   3.120  0.0815  0.0127 -0.0250
 7813TIP3    H123382   5.372   5.853   3.075 -0.4980  0.0791  0.9840
 7813TIP3    H223383   5.441   5.952   3.165  0.4150 -0.3621  0.7807
 7814TIP3   OH223384   8.120   1.197   6.240 -0.2605 -0.0142  0.2264
 7814TIP3    H123385   8.151   1.125   6.185  1.2374  0.1023  0.8579
 7814TIP3    H223386   8.109   1.158   6.327  1.1654  0.5991  0.7246
 7815TIP3   OH223387   0.745   4.896   1.213  0.4828 -0.1810  0.1748
 7815TIP3    H123388   0.682   4.966   1.229  0.0051 -0.5598 -0.0325
 7815TIP3    H223389   0.825   4.926   1.257  0.2230  0.3931  0.2698
 7816TIP3   OH223390   0.383   2.504   6.783 -0.5974 -0.4976 -0.5302
 7816TIP3    H123391   0.424   2.457   6.710  1.7052 -0.7664  0.8032
 7816TIP3    H223392   0.375   2.594   6.753 -0.9780 -0.8767 -1.5921
 7817TIP3   OH223393   0.849   1.736   2.005 -0.1621  0.4984 -0.1572
 7817TIP3    H123394   0.870   1.814   2.056 -1.1779 -0.5007  1.8966
 7817TIP3    H223395   0.918   1.732   1.938  1.9947  1.2140  1.8817
 7818TIP3   OH223396   7.249   6.230   4.070 -0.1397  0.0535  0.0092
 7818TIP3    H123397   7.233   6.136   4.078 -1.6288  0.3565  0.8696
 7818TIP3    H223398   7.344   6.239   4.075 -0.0078 -1.3646  0.3454
 7819TIP3   OH223399   1.711   7.775   3.957  0.3068  0.8278  0.4940
 7819TIP3    H123400   1.773   7.807   3.892  1.3946 -0.1220  1.0184
 7819TIP3    H223401   1.701   7.848   4.019  0.3518  1.2359  0.0238
 7820TIP3   OH223402   7.039   2.759   3.909 -0.0458 -0.4106 -0.3918
 7820TIP3    H123403   7.067   2.726   3.994  0.9831  0.9560 -0.1808
 7820TIP3    H223404   7.093   2.712   3.846 -0.6935 -1.3007 -0.3096
 7821TIP3   OH223405   6.129   1.823   6.652  0.3137  0.2993  0.3356
 7821TIP3    H123406   6.069   1.872   6.707  0.5916 -0.3309  1.2219
 7821TIP3    H223407   6.092   1.829   6.564  0.4136  2.2110  0.3706
 7822TIP3   OH223408   2.397   5.312   4.717  0.3620 -0.0569  0.4834
 7822TIP3    H123409   2.461   5.311   4.646  1.7958 -1.5126  1.7064
 7822TIP3    H223410   2.380   5.219   4.735 -0.6005  0.2950  1.5194
 7823TIP3   OH223411   3.678   5.608   4.894 -0.1589 -0.4588 -0.1827
 7823TIP3    H123412   3.761   5.569   4.920  0.2649  1.1550  1.0180
 7823TIP3    H223413   3.613   5.566   4.949  0.1107 -0.4410  0.1509
 7824TIP3   OH223414   5.557   3.754   3.799 -0.0688  0.1740 -0.5679
 7824TIP3    H123415   5.600   3.782   3.880 -0.1697 -0.6700 -0.2095
 7824TIP3    H223416   5.608   3.678   3.771  0.0357  0.5337 -1.3658
 7825TIP3   OH223417   3.464   6.298   2.685  0.1913 -0.0291  0.2848
 7825TIP3    H123418   3.406   6.238   2.639 -0.1020  0.8640 -0.5367
 7825TIP3    H223419   3.405   6.364   2.723  0.6926  1.5861 -1.5773
 7826TIP3   OH223420   2.273   3.673   4.165 -0.1680  0.2180 -0.1209
 7826TIP3    H123421   2.365   3.690   4.183 -0.3083  1.6058 -0.5655
 7826TIP3    H223422   2.268   3.668   4.069 -0.3621 -1.1510 -0.0592
 7827TIP3   OH223423   7.716   4.804   6.209 -0.1120 -0.7940  0.3227
 7827TIP3    H123424   7.631   4.792   6.251 -0.2527 -0.4370  0.1474
 7827TIP3    H223425   7.751   4.885   6.248  0.9142 -1.8282  1.6526
 7828TIP3   OH223426   2.766   2.610   3.306  0.4439 -0.1368 -0.3884
 7828TIP3    H123427   2.790   2.631   3.216  1.5134  1.5988  0.2358
 7828TIP3    H223428   2.846   2.574   3.344  0.0061 -0.8350 -0.1006
 7829TIP3   OH223429   5.017   1.909   4.240 -0.0171 -0.0386  0.7667
 7829TIP3    H123430   4.959   1.949   4.175 -0.9508 -1.3506  0.7686
 7829TIP3    H223431   4.958   1.862   4.299  1.0597 -1.9428  0.3978
 7830TIP3   OH223432   7.816   2.800   2.616  0.4641 -0.0700  0.2183
 7830TIP3    H123433   7.790   2.709   2.628  0.8478 -0.0730  1.1076
 7830TIP3    H223434   7.746   2.838   2.562 -0.9939 -0.2846  1.8674
 7831TIP3   OH223435   3.734   3.033   0.673 -0.5176 -0.0905 -0.0689
 7831TIP3    H123436   3.683   3.091   0.729 -1.5054  1.0394 -2.0424
 7831TIP3    H223437   3.668   2.985   0.621  0.3595 -0.5365 -0.8125
 7832TIP3   OH223438   4.520   5.747   2.096 -0.1627  0.0243 -0.5682
 7832TIP3    H123439   4.598   5.736   2.152 -0.2016 -0.6118 -0.6370
 7832TIP3    H223440   4.447   5.745   2.157 -0.1725 -0.1445 -0.5852
 7833TIP3   OH223441   3.202   3.220   0.794 -0.2126  0.1347  0.4434
 7833TIP3    H123442   3.121   3.266   0.772 -0.0256 -0.0903 -0.7590
 7833TIP3    H223443   3.247   3.278   0.856 -0.9794  0.5605  0.6030
 7834TIP3   OH223444   0.834   5.950   1.709 -0.3234 -0.3686  0.0751
 7834TIP3    H123445   0.805   5.906   1.789 -2.1707 -0.1028 -0.3994
 7834TIP3    H223446   0.901   5.892   1.672  0.6459 -0.4393  1.8359
 7835TIP3   OH223447   4.722   7.702   1.041 -0.1169 -0.1625 -0.0158
 7835TIP3    H123448   4.728   7.752   1.122  0.1310 -0.4696  0.1609
 7835TIP3    H223449   4.726   7.767   0.972 -1.5945  0.2157  0.2364
 7836TIP3   OH223450   5.264   6.053   1.964 -0.0694  0.6390 -0.3489
 7836TIP3    H123451   5.306   6.131   2.000  0.3402  0.8099 -1.1894
 7836TIP3    H223452   5.319   6.027   1.890 -0.1876 -0.4652 -0.0668
 7837TIP3   OH223453   4.263   3.540   1.578  0.7102 -0.1811 -0.5899
 7837TIP3    H123454   4.266   3.633   1.556 -2.4031 -0.3245 -2.0755
 7837TIP3    H223455   4.336   3.501   1.530  1.1890  1.2753 -1.0714
 7838TIP3   OH223456   0.237   5.534   1.651 -0.1265  0.6352 -0.1603
 7838TIP3    H123457   0.217   5.626   1.668 -1.6497  0.5745 -1.4822
 7838TIP3    H223458   0.234   5.525   1.556  1.2343 -0.5368 -0.1335
 7839TIP3   OH223459   2.610   6.583   1.657  0.3345 -0.3575  0.2228
 7839TIP3    H123460   2.622   6.675   1.678  1.6391 -0.2697 -0.7431
 7839TIP3    H223461   2.569   6.545   1.734 -1.4264  1.2619  0.1357
 7840TIP3   OH223462   5.894   2.380   1.817 -0.5198 -0.1865 -0.9728
 7840TIP3    H123463   5.902   2.476   1.813  1.0998 -0.3266 -1.8102
 7840TIP3    H223464   5.865   2.355   1.729 -1.0951 -0.4656 -0.7068
 7841TIP3   OH223465   3.321   2.235   2.361 -0.2464  0.3511 -0.5240
 7841TIP3    H123466   3.348   2.253   2.271  0.3575  0.3543 -0.3528
 7841TIP3    H223467   3.233   2.271   2.368  0.2341  1.6214 -0.7188
 7842TIP3   OH223468   5.092   5.088   6.465  0.1345  0.2445 -0.1369
 7842TIP3    H123469   5.027   5.027   6.430  0.6212  1.2501 -3.0917
 7842TIP3    H223470   5.128   5.043   6.542 -0.1845 -2.8268 -1.6130
 7843TIP3   OH223471   2.028   4.751   5.859  0.2104 -0.1269  0.2504
 7843TIP3    H123472   2.037   4.753   5.763 -0.1166 -1.6655  0.1498
 7843TIP3    H223473   2.041   4.658   5.881 -1.0962 -0.0263  1.5542
 7844TIP3   OH223474   1.066   0.857   3.053 -0.2547 -0.6927 -0.2350
 7844TIP3    H123475   1.142   0.915   3.061 -0.5158 -0.2128 -1.1155
 7844TIP3    H223476   0.991   0.916   3.052 -0.5177 -1.0305 -1.2638
 7845TIP3   OH223477   5.604   7.150   4.529 -0.1635 -0.6949 -0.0673
 7845TIP3    H123478   5.596   7.245   4.534 -1.4289 -0.5415 -3.1068
 7845TIP3    H223479   5.582   7.119   4.617  3.1638  1.8677  1.8943
 7846TIP3   OH223480   4.354   7.162   2.284 -0.2803 -0.1384 -0.4248
 7846TIP3    H123481   4.421   7.176   2.350 -1.5376  1.9736  0.5249
 7846TIP3    H223482   4.284   7.115   2.329 -1.5244  2.0811  0.1323
 7847TIP3   OH223483   3.994   7.302   1.896 -0.2228 -0.5507  0.1358
 7847TIP3    H123484   4.029   7.309   1.985 -0.1337  0.3835  0.0340
 7847TIP3    H223485   4.072   7.302   1.840 -0.2965 -0.7596  0.0315
 7848TIP3   OH223486   5.442   2.901   0.256 -0.4001 -0.1705  0.6655
 7848TIP3    H123487   5.503   2.914   0.329  0.2439 -1.2306  0.3362
 7848TIP3    H223488   5.499   2.893   0.179 -1.0743  0.9884  0.0279
 7849TIP3   OH223489   4.414   5.798   5.551 -0.0358  0.0609 -0.2125
 7849TIP3    H123490   4.356   5.842   5.614  1.3379  0.7536  0.6374
 7849TIP3    H223491   4.454   5.727   5.601 -0.2937 -0.5420 -0.8494
 7850TIP3   OH223492   6.625   3.930   0.542  0.1053  0.1238 -0.1810
 7850TIP3    H123493   6.665   3.949   0.457 -0.2072 -1.1960 -0.6561
 7850TIP3    H223494   6.549   3.988   0.546 -0.3655 -0.3837 -1.2128
 7851TIP3   OH223495   0.727   6.788   3.794  0.2002 -0.2752 -0.8125
 7851TIP3    H123496   0.690   6.709   3.754  2.0787 -1.2173 -0.8547
 7851TIP3    H223497   0.717   6.774   3.888  0.4193 -0.5148 -0.8236
 7852TIP3   OH223498   3.734   2.217   5.975 -0.1187  0.1278 -0.1754
 7852TIP3    H123499   3.672   2.145   5.961 -0.4941  0.4080  0.0252
 7852TIP3    H223500   3.703   2.260   6.055  0.0884  0.5266 -0.3082
 7853TIP3   OH223501   1.012   1.458   3.739  0.1661  0.1509  0.2676
 7853TIP3    H123502   1.090   1.411   3.711 -0.3496 -0.6018  0.0688
 7853TIP3    H223503   1.029   1.481   3.831  0.0764 -1.1782  0.6306
 7854TIP3   OH223504   8.177   7.180   4.779 -0.5611  0.4105 -0.0886
 7854TIP3    H123505   8.164   7.179   4.684 -1.1668  1.3097 -0.0355
 7854TIP3    H223506   8.204   7.091   4.801  0.3492  0.3817 -1.2025
 7855TIP3   OH223507   2.221   5.852   4.150 -0.1740  0.0837  0.3005
 7855TIP3    H123508   2.154   5.791   4.181  0.2806 -0.7757 -0.3556
 7855TIP3    H223509   2.304   5.813   4.179  0.2115 -0.3628 -1.3371
 7856TIP3   OH223510   0.905   0.691   4.120 -0.0249  0.2694  0.5734
 7856TIP3    H123511   0.871   0.619   4.174 -2.2252  0.4694 -0.4483
 7856TIP3    H223512   0.844   0.697   4.047  1.0515  2.1281 -0.2423
 7857TIP3   OH223513   6.523   1.974   6.168  0.6443  0.1252  0.0148
 7857TIP3    H123514   6.486   1.944   6.085 -0.3278  0.8591  0.1655
 7857TIP3    H223515   6.580   2.047   6.145  1.4441 -0.5294 -0.1362
 7858TIP3   OH223516   0.059   6.277   5.129  0.2982  0.5591  0.5525
 7858TIP3    H123517   0.003   6.200   5.141  1.5150 -0.1340  2.1460
 7858TIP3    H223518  -0.002   6.348   5.110 -0.9215 -0.6099 -0.0500
 7859TIP3   OH223519   1.896   5.373   0.871 -0.2715 -0.3597 -0.5235
 7859TIP3    H123520   1.939   5.319   0.938 -0.3251  0.1985 -0.0296
 7859TIP3    H223521   1.802   5.362   0.887 -0.3081 -1.1283 -1.2394
 7860TIP3   OH223522   6.884   0.181   0.471 -0.5768 -0.2000 -0.0834
 7860TIP3    H123523   6.945   0.141   0.409  2.4655  2.3666  0.9909
 7860TIP3    H223524   6.919   0.160   0.557 -3.4503 -1.7712  0.8542
 7861TIP3   OH223525   4.483   4.455   2.173 -0.1979 -0.0927  0.0164
 7861TIP3    H123526   4.540   4.469   2.097 -0.2300  0.5807  0.1118
 7861TIP3    H223527   4.473   4.359   2.178  1.3606 -0.2740  0.3173
 7862TIP3   OH223528   1.645   1.340   1.419  0.5824  0.6980 -0.1286
 7862TIP3    H123529   1.651   1.321   1.512  0.3727  1.1580 -0.0133
 7862TIP3    H223530   1.707   1.281   1.377  0.2380  0.0651  0.2426
 7863TIP3   OH223531   0.198   1.324   5.201 -0.8953  0.2814 -0.2385
 7863TIP3    H123532   0.237   1.240   5.175  0.5955  0.7729  0.3039
 7863TIP3    H223533   0.227   1.337   5.291 -2.6348  0.5416  0.3212
 7864TIP3   OH223534   7.940   2.904   0.597 -0.3644 -0.1428  0.0999
 7864TIP3    H123535   8.031   2.924   0.576  0.6679 -1.4927  2.7829
 7864TIP3    H223536   7.943   2.815   0.633 -2.3079  0.7069  2.6341
 7865TIP3   OH223537   3.198   7.141   2.435 -0.5875  0.5426  0.9430
 7865TIP3    H123538   3.138   7.157   2.508 -1.3114 -1.7654  0.8976
 7865TIP3    H223539   3.187   7.049   2.413  2.8467  0.0177  0.8246
 7866TIP3   OH223540   4.223   6.087   1.750 -0.1168  0.6380  0.3760
 7866TIP3    H123541   4.261   6.140   1.820 -0.2731  0.5405  0.5350
 7866TIP3    H223542   4.187   6.011   1.795 -2.1302  1.5794  0.4620
 7867TIP3   OH223543   5.973   1.738   3.459 -0.1695 -0.0983 -0.3540
 7867TIP3    H123544   5.953   1.767   3.547 -2.4972 -2.2093 -0.0864
 7867TIP3    H223545   5.904   1.775   3.404  0.3591 -0.0985 -1.0514
 7868TIP3   OH223546   5.415   6.145   3.662 -0.0339  0.4354  0.0477
 7868TIP3    H123547   5.508   6.130   3.680  0.1040  0.8285 -0.3232
 7868TIP3    H223548   5.411   6.236   3.633 -0.5032  0.3380 -0.1941
 7869TIP3   OH223549   5.434   6.378   3.556 -0.1634 -0.3862  0.5320
 7869TIP3    H123550   5.368   6.353   3.492 -0.3610 -0.9545  0.9485
 7869TIP3    H223551   5.433   6.473   3.556 -1.2254 -0.3908  0.7735
 7870TIP3   OH223552   3.047   3.079   6.666  0.0268  0.1522 -0.1744
 7870TIP3    H123553   2.960   3.099   6.631  0.6543  0.5072 -1.6197
 7870TIP3    H223554   3.085   3.165   6.683  0.6016  0.0548 -0.9057
 7871TIP3   OH223555   2.125   3.987   1.914 -0.4779 -0.3023 -0.2424
 7871TIP3    H123556   2.086   3.956   1.996 -2.6857 -1.0177 -1.4800
 7871TIP3    H223557   2.143   3.908   1.864 -0.6168  0.1695 -1.0639
 7872TIP3   OH223558   4.976   1.466   5.175  0.2926  0.3360 -0.6546
 7872TIP3    H123559   4.919   1.423   5.240 -1.5692  2.5241 -0.7065
 7872TIP3    H223560   5.028   1.528   5.227  1.5460 -0.5192 -0.8325
 7873TIP3   OH223561   3.372   0.654   0.956 -0.5631  0.1067  0.0153
 7873TIP3    H123562   3.281   0.684   0.963 -0.7753 -0.1720 -1.2532
 7873TIP3    H223563   3.421   0.731   0.929  0.0753  0.9240  3.1312
 7874TIP3   OH223564   5.470   7.118   1.348 -0.4872  0.0252  0.2150
 7874TIP3    H123565   5.377   7.134   1.331 -0.5580 -0.4626  0.1344
 7874TIP3    H223566   5.472   7.082   1.437 -0.4054 -0.2434  0.1049
 7875TIP3   OH223567   5.583   0.874   5.761  0.1370 -0.0575 -0.0208
 7875TIP3    H123568   5.554   0.907   5.845  1.7395  0.4225  0.3788
 7875TIP3    H223569   5.502   0.852   5.714 -0.8970  2.1608  0.6126
 7876TIP3   OH223570   1.360   5.967   4.638  0.2959  0.6086 -0.3012
 7876TIP3    H123571   1.431   6.015   4.595  0.2273  1.3945  0.4378
 7876TIP3    H223572   1.403   5.922   4.711 -0.1761  2.3599  1.1266
 7877TIP3   OH223573   0.201   4.396   4.111  0.1144 -0.0139 -0.2133
 7877TIP3    H123574   0.226   4.402   4.019 -1.0167  2.0882 -0.4415
 7877TIP3    H223575   0.150   4.315   4.117  0.1393 -0.1326 -1.4443
 7878TIP3   OH223576   2.515   0.466   3.180  0.5852 -0.0132  0.4156
 7878TIP3    H123577   2.444   0.526   3.156  1.0341  0.2252 -0.3562
 7878TIP3    H223578   2.583   0.483   3.115  1.2703 -0.3848  1.0270
 7879TIP3   OH223579   7.155   5.493   4.144 -0.0110  0.2055  0.2791
 7879TIP3    H123580   7.075   5.467   4.098 -0.8297 -1.5689  2.4901
 7879TIP3    H223581   7.220   5.429   4.116 -0.4527 -0.7442  1.3420
 7880TIP3   OH223582   0.332   2.841   0.772 -0.3852  0.1165  0.3359
 7880TIP3    H123583   0.344   2.896   0.850  1.0744  0.6179 -0.2114
 7880TIP3    H223584   0.348   2.752   0.803  1.6454  0.4485  0.3570
 7881TIP3   OH223585   5.351   1.629   5.451 -0.4064  0.0819 -0.2357
 7881TIP3    H123586   5.409   1.624   5.527 -0.0656 -1.0943 -0.5528
 7881TIP3    H223587   5.298   1.708   5.467  1.3268  1.2552  0.0060
 7882TIP3   OH223588   8.294   5.976   0.245 -0.6469  0.0422 -0.4570
 7882TIP3    H123589   8.231   5.903   0.246  0.1975 -0.7032  0.8799
 7882TIP3    H223590   8.241   6.053   0.262 -1.4083 -0.3827 -0.8304
 7883TIP3   OH223591   5.165   2.193   5.937  0.2663 -0.0693  0.6139
 7883TIP3    H123592   5.211   2.271   5.907 -2.0414  1.5538  1.0124
 7883TIP3    H223593   5.160   2.202   6.032  0.2343 -0.8809  0.6991
 7884TIP3   OH223594   1.925   0.380   4.721 -0.0172  0.2370 -0.5978
 7884TIP3    H123595   1.882   0.465   4.708  0.4288  0.5028 -0.3716
 7884TIP3    H223596   1.950   0.352   4.633  0.2319  0.5527 -0.6293
 7885TIP3   OH223597   5.289   3.118   4.356 -0.3035  0.5500  0.4426
 7885TIP3    H123598   5.371   3.069   4.346 -2.0064 -2.4125 -0.3125
 7885TIP3    H223599   5.297   3.191   4.295  1.2003 -0.5397 -0.7411
 7886TIP3   OH223600   6.283   0.454   3.205 -0.2800 -0.6434 -0.7292
 7886TIP3    H123601   6.203   0.494   3.238  0.0583 -1.1521  0.7665
 7886TIP3    H223602   6.258   0.416   3.120 -1.1978  0.5841 -1.0243
 7887TIP3   OH223603   6.773   6.280   2.975 -0.3334  0.4256  0.4771
 7887TIP3    H123604   6.791   6.187   2.962  0.4784  0.8385 -1.9205
 7887TIP3    H223605   6.847   6.325   2.935 -0.6578  2.1289  1.6700
 7888TIP3   OH223606   4.966   7.546   0.484 -0.4588  0.7561  0.0726
 7888TIP3    H123607   5.026   7.490   0.435 -0.1550  0.4414  0.7838
 7888TIP3    H223608   4.993   7.635   0.462  0.1412  0.6179  0.2283
 7889TIP3   OH223609   1.272  -0.000   2.900  0.3614  0.3176 -0.2481
 7889TIP3    H123610   1.318   0.083   2.891  1.2228  0.1588  2.0934
 7889TIP3    H223611   1.290  -0.047   2.818  0.8015  1.9394 -1.1265
 7890TIP3   OH223612   4.769   6.552   2.772  0.5601  0.7376  0.0181
 7890TIP3    H123613   4.721   6.577   2.693  1.4142 -0.1107 -0.7886
 7890TIP3    H223614   4.715   6.485   2.814  0.6911  0.3098 -0.4984
 7891TIP3   OH223615   3.248   3.787   6.413 -0.0938 -0.1482 -0.0255
 7891TIP3    H123616   3.223   3.861   6.357  0.7693  0.0250 -0.2021
 7891TIP3    H223617   3.343   3.793   6.418 -0.1943  0.2244  2.0115
 7892TIP3   OH223618   0.855   3.783   3.531  0.2081 -0.1003  0.1255
 7892TIP3    H123619   0.883   3.865   3.490  2.3899 -1.2645 -0.8720
 7892TIP3    H223620   0.770   3.765   3.491  1.0102  0.2357 -1.8724
 7893TIP3   OH223621   1.877   5.753   0.080  0.4867  0.0254 -0.1491
 7893TIP3    H123622   1.955   5.802   0.105 -0.9614  1.8029  1.2427
 7893TIP3    H223623   1.855   5.702   0.159  1.2063 -1.8999 -1.1325
 7894TIP3   OH223624   1.042   6.811   0.250  0.0683 -0.4755 -0.5714
 7894TIP3    H123625   1.056   6.764   0.332 -0.7183  0.0778 -0.1055
 7894TIP3    H223626   1.066   6.748   0.181 -0.1928 -1.2737  0.0529
 7895TIP3   OH223627   1.545   6.474   2.153  0.3891 -0.0726 -0.2442
 7895TIP3    H123628   1.489   6.405   2.119  0.3010 -0.1351  0.0286
 7895TIP3    H223629   1.495   6.513   2.224 -0.5624  1.8016 -1.8377
 7896TIP3   OH223630   1.899   0.428   2.734  0.4969 -0.3893 -0.6816
 7896TIP3    H123631   1.817   0.396   2.773  0.8087 -0.8452 -0.3982
 7896TIP3    H223632   1.921   0.505   2.786  0.4664 -0.5093 -0.4884
 7897TIP3   OH223633   7.074   4.561   4.240 -0.1283  0.0795  0.4662
 7897TIP3    H123634   7.017   4.525   4.171 -0.0603 -1.1093  0.9958
 7897TIP3    H223635   7.058   4.655   4.238 -0.8454 -0.0467 -0.5342
 7898TIP3   OH223636   1.578   4.431   2.844 -0.0323  0.3490  0.3066
 7898TIP3    H123637   1.531   4.358   2.884  1.6021 -0.0640  1.6149
 7898TIP3    H223638   1.571   4.502   2.908  0.1975  0.6355  0.0221
 7899TIP3   OH223639   4.210   2.739   4.230  0.3247  0.3299 -0.4610
 7899TIP3    H123640   4.172   2.706   4.312  2.1552 -2.2688 -0.5228
 7899TIP3    H223641   4.287   2.789   4.257  1.0085 -0.6454 -0.5636
 7900TIP3   OH223642   1.229   1.291   3.997 -0.3279  0.5540  0.1256
 7900TIP3    H123643   1.161   1.350   3.964  1.1708  1.7664 -0.8858
 7900TIP3    H223644   1.303   1.348   4.019  1.1917 -0.9224 -0.9141
 7901TIP3   OH223645   3.271   1.874   0.979  0.1222 -0.2288 -0.0427
 7901TIP3    H123646   3.302   1.928   1.052 -1.9488 -0.2406  0.9216
 7901TIP3    H223647   3.226   1.801   1.021  0.5022 -1.2414 -1.3537
 7902TIP3   OH223648   5.703   3.728   1.395 -0.5270 -0.0875  0.5344
 7902TIP3    H123649   5.675   3.637   1.401 -0.8417  0.1023  2.4433
 7902TIP3    H223650   5.763   3.730   1.320  0.0088 -2.0043  0.8756
 7903TIP3   OH223651   5.871   1.707   0.114  0.1118 -0.3061  0.8712
 7903TIP3    H123652   5.813   1.639   0.080 -0.8129  0.8002  0.1694
 7903TIP3    H223653   5.959   1.679   0.086 -0.2757 -1.0990  0.4063
 7904TIP3   OH223654   6.090   1.462   1.674 -0.0222 -0.1402 -0.1778
 7904TIP3    H123655   6.158   1.474   1.607 -0.3004 -0.1395 -0.4618
 7904TIP3    H223656   6.131   1.491   1.755  1.1587 -2.3738  0.1138
 7905TIP3   OH223657   8.231   1.304   4.333  0.3488  0.2094 -0.1199
 7905TIP3    H123658   8.192   1.216   4.328  2.2752 -0.6479 -1.0990
 7905TIP3    H223659   8.291   1.299   4.408  0.1881  0.8276  0.0564
 7906TIP3   OH223660   2.981   1.773   3.983 -0.1556  0.1174  0.1255
 7906TIP3    H123661   3.070   1.760   3.950 -0.5006  1.1211 -1.3051
 7906TIP3    H223662   2.934   1.812   3.909 -1.2177  1.6520  1.5456
 7907TIP3   OH223663   0.543   5.125   3.941 -0.3889  0.4545  0.2569
 7907TIP3    H123664   0.574   5.157   4.026 -0.6048 -0.6479  0.7709
 7907TIP3    H223665   0.575   5.189   3.878  1.0810  0.4934  1.0069
 7908TIP3   OH223666   6.730   7.007   4.152 -0.4136 -0.3549 -0.3896
 7908TIP3    H123667   6.786   6.948   4.201 -0.4997 -0.4670 -0.4256
 7908TIP3    H223668   6.738   7.091   4.197  0.1672 -0.2413 -0.6848
 7909TIP3   OH223669   1.767   1.557   5.759  0.2916  0.0602 -0.1221
 7909TIP3    H123670   1.789   1.549   5.666  0.4387  2.3628 -0.3641
 7909TIP3    H223671   1.673   1.539   5.764  0.6350 -2.0194 -0.3564
 7910TIP3   OH223672   2.385   1.278   5.382 -0.0491  0.3459 -0.7624
 7910TIP3    H123673   2.329   1.315   5.314  1.9726  0.4678 -2.4562
 7910TIP3    H223674   2.387   1.345   5.450 -1.2044  0.7231 -1.0761
 7911TIP3   OH223675   3.791  -0.022   1.647  0.3027  0.6654  0.2682
 7911TIP3    H123676   3.781  -0.020   1.552  1.4972  0.6146  0.1229
 7911TIP3    H223677   3.821   0.066   1.670  2.1451  0.0928  0.2929
 7912TIP3   OH223678   4.937   5.992   4.763 -0.2523  0.6287  0.2718
 7912TIP3    H123679   5.024   5.968   4.794 -0.5841  0.6949  1.2918
 7912TIP3    H223680   4.945   6.084   4.737 -0.0077  0.6166  0.3037
 7913TIP3   OH223681   1.583   3.046   4.302 -0.0335 -0.1271  0.0432
 7913TIP3    H123682   1.658   3.104   4.294  0.5290 -0.9958 -1.4756
 7913TIP3    H223683   1.515   3.087   4.249  0.4051 -0.8439 -1.1374
 7914TIP3   OH223684   0.656   7.093   5.298 -0.1585 -0.4321  0.2097
 7914TIP3    H123685   0.740   7.125   5.266  0.3966 -1.9788  0.0205
 7914TIP3    H223686   0.644   7.009   5.253 -1.0746 -0.9530  1.3723
 7915TIP3   OH223687   1.480   0.350   4.667  0.2069 -0.0350 -0.5943
 7915TIP3    H123688   1.403   0.333   4.614 -1.1163 -0.1746  1.2916
 7915TIP3    H223689   1.528   0.267   4.667 -0.6519 -0.5433 -0.2058
 7916TIP3   OH223690   6.609   3.029   5.480  0.2849 -0.3451 -0.0043
 7916TIP3    H123691   6.589   3.122   5.482  1.7663  0.0058  2.9160
 7916TIP3    H223692   6.689   3.023   5.427 -0.1111 -0.0599 -0.6464
 7917TIP3   OH223693   2.841   4.246   4.824  0.0201 -0.2552 -0.4959
 7917TIP3    H123694   2.937   4.252   4.832 -0.0468 -0.4475  0.6179
 7917TIP3    H223695   2.809   4.329   4.859 -0.2506 -0.4528 -0.2754
 7918TIP3   OH223696   3.533   2.771   4.075  0.3818 -0.1082 -0.1551
 7918TIP3    H123697   3.524   2.738   3.986 -1.2870  0.5933 -0.2798
 7918TIP3    H223698   3.494   2.702   4.129 -0.9473  0.5710 -0.2134
 7919TIP3   OH223699   4.321   4.306   2.447 -0.5503  0.4360 -0.1895
 7919TIP3    H123700   4.283   4.235   2.396 -1.9547 -0.4587  1.9358
 7919TIP3    H223701   4.245   4.358   2.474 -0.3304 -0.8400  3.3852
 7920TIP3   OH223702   6.966   1.271   3.298 -0.0656  0.1119 -0.4338
 7920TIP3    H123703   6.931   1.182   3.288 -0.3949  0.3165 -1.1728
 7920TIP3    H223704   7.042   1.273   3.240 -0.5894  0.5818 -1.1208
 7921TIP3   OH223705   3.683   4.054   0.090 -0.1112  0.0558  0.2911
 7921TIP3    H123706   3.619   3.997   0.046 -0.6003 -0.0990  1.1889
 7921TIP3    H223707   3.721   3.998   0.158  0.8523  0.2039 -0.1239
 7922TIP3   OH223708   2.550   2.060   6.213 -0.0026  0.6326 -0.0042
 7922TIP3    H123709   2.515   1.989   6.266  0.4312  2.3841  2.8466
 7922TIP3    H223710   2.639   2.032   6.190 -0.2068 -0.1794  0.1702
 7923TIP3   OH223711   7.296   4.203   6.042  0.3554  0.6829 -0.0395
 7923TIP3    H123712   7.344   4.271   6.091  0.7373  1.4169 -1.3817
 7923TIP3    H223713   7.312   4.224   5.950 -0.1286 -0.8201 -0.4938
 7924TIP3   OH223714   0.763   3.877   2.615 -0.3896 -0.1422 -0.1422
 7924TIP3    H123715   0.729   3.789   2.603  1.9926 -1.0384 -0.9441
 7924TIP3    H223716   0.713   3.931   2.554 -1.6537 -0.9983  0.1158
 7925TIP3   OH223717   6.563   4.040   1.226 -0.8544 -0.4017  0.2931
 7925TIP3    H123718   6.589   4.126   1.259 -1.1732 -0.2124  0.0546
 7925TIP3    H223719   6.631   3.981   1.259  1.2111  0.3943 -2.1934
 7926TIP3   OH223720   2.005   0.914   4.830 -0.4219  0.6013 -0.4624
 7926TIP3    H123721   1.928   0.970   4.823  0.4604  1.6023 -3.6466
 7926TIP3    H223722   1.977   0.829   4.795 -0.5451  0.4143  0.0832
 7927TIP3   OH223723   5.098   6.970   5.114 -0.4328 -0.1718 -0.2145
 7927TIP3    H123724   5.080   6.888   5.159  0.2066 -0.8435 -1.1520
 7927TIP3    H223725   5.012   7.003   5.088 -0.9164  0.6953  2.2160
 7928TIP3   OH223726   4.576   1.767   4.007  0.2932 -0.5439  0.1301
 7928TIP3    H123727   4.523   1.824   3.952  0.7330  0.0355  0.3024
 7928TIP3    H223728   4.517   1.740   4.078  0.7283  1.6754  1.4336
 7929TIP3   OH223729   7.875   4.766   1.296 -0.0381 -0.2329  0.0699
 7929TIP3    H123730   7.925   4.739   1.373 -0.2552  1.2424  0.7686
 7929TIP3    H223731   7.833   4.848   1.323  0.4262  0.6802 -1.8197
 7930TIP3   OH223732   2.309   5.832   1.300  0.1816  0.8469  0.4305
 7930TIP3    H123733   2.309   5.925   1.278 -0.3497  1.0174  1.1369
 7930TIP3    H223734   2.231   5.820   1.354 -1.3079 -0.5216 -1.8480
 7931TIP3   OH223735   2.930   6.483   3.351 -0.4061 -0.0132 -0.2378
 7931TIP3    H123736   3.024   6.494   3.337 -0.2921 -0.8481 -0.1810
 7931TIP3    H223737   2.894   6.480   3.262 -0.3637  0.1574 -0.2619
 7932TIP3   OH223738   1.086   6.279   4.492  0.0738 -0.8553  0.0374
 7932TIP3    H123739   1.110   6.194   4.456 -0.4490 -0.9335 -0.1408
 7932TIP3    H223740   1.169   6.324   4.504  0.2715 -0.8579 -1.1867
 7933TIP3   OH223741   3.751   5.826   3.014  0.9536 -0.2181 -0.1148
 7933TIP3    H123742   3.767   5.915   3.044 -0.2593  0.0784 -0.3108
 7933TIP3    H223743   3.722   5.836   2.923 -0.2289 -0.7267  0.1978
 7934TIP3   OH223744   6.085   2.354   6.650  0.1911 -0.0633 -0.0498
 7934TIP3    H123745   6.171   2.334   6.613 -0.3065 -1.2573 -0.6307
 7934TIP3    H223746   6.056   2.271   6.689  0.0647  0.7907  1.7522
 7935TIP3   OH223747   7.123   5.853   1.620  0.2625  0.0561 -0.2632
 7935TIP3    H123748   7.167   5.822   1.700 -0.7283  1.4656  0.8685
 7935TIP3    H223749   7.032   5.828   1.631  0.0035  0.7943 -0.6900
 7936TIP3   OH223750   7.676   5.770   1.463 -0.1148 -0.0225 -0.4126
 7936TIP3    H123751   7.660   5.783   1.557 -0.1515  0.1433 -0.4400
 7936TIP3    H223752   7.688   5.859   1.429  1.3956 -0.1611 -0.3063
 7937TIP3   OH223753   1.452   2.351   1.406 -0.8415  0.0254  0.0630
 7937TIP3    H123754   1.517   2.324   1.471  0.4255 -0.5952 -1.3932
 7937TIP3    H223755   1.439   2.272   1.352 -0.7884  0.9002 -1.2749
 7938TIP3   OH223756   5.700   0.050   4.353  0.1332 -0.2048 -0.1323
 7938TIP3    H123757   5.665  -0.037   4.369  0.0367 -0.5796 -2.1000
 7938TIP3    H223758   5.625   0.109   4.361  0.3903 -0.0957  2.2720
 7939TIP3   OH223759   6.972   3.546   0.130 -0.6387  0.2542 -0.3203
 7939TIP3    H123760   6.951   3.453   0.131 -1.2373  0.3885  0.8267
 7939TIP3    H223761   7.012   3.561   0.044  0.6021 -1.2925 -0.0550
 7940TIP3   OH223762   7.725   5.657   4.438  0.7294 -0.4084 -0.6362
 7940TIP3    H123763   7.797   5.694   4.489  1.1528  1.1954 -2.2980
 7940TIP3    H223764   7.737   5.562   4.445  2.6041 -0.1867 -0.3290
 7941TIP3   OH223765   7.467   0.962   6.160 -0.3337 -0.3840  0.5569
 7941TIP3    H123766   7.509   1.046   6.179 -1.2283  0.4837 -1.1200
 7941TIP3    H223767   7.519   0.925   6.089 -0.8811 -0.4916  0.2062
 7942TIP3   OH223768   2.010   5.440   0.637 -0.3170 -0.6570  0.5309
 7942TIP3    H123769   2.042   5.530   0.641 -0.3493 -0.5836 -0.5295
 7942TIP3    H223770   1.960   5.428   0.717 -0.3287  0.2743  0.6695
 7943TIP3   OH223771   1.068   2.520   0.759 -0.0536  0.4985 -0.2044
 7943TIP3    H123772   1.052   2.517   0.854  0.4558  2.2205 -0.0219
 7943TIP3    H223773   0.984   2.501   0.719 -0.6540  1.3036  0.6325
 7944TIP3   OH223774   7.180   3.370   0.804 -0.2569  0.2958  0.6043
 7944TIP3    H123775   7.257   3.316   0.826  0.9267  1.8386  0.4492
 7944TIP3    H223776   7.156   3.343   0.715  0.8823  0.6139  0.1804
 7945TIP3   OH223777   0.657   5.340   6.465  0.2781 -0.0264 -0.5051
 7945TIP3    H123778   0.717   5.401   6.422  0.5853 -0.5219 -0.7790
 7945TIP3    H223779   0.670   5.257   6.420 -1.2651  0.0648 -1.1712
 7946TIP3   OH223780   1.026   7.310   4.767 -0.2651  0.0721 -0.3277
 7946TIP3    H123781   0.952   7.318   4.826 -0.1156 -0.1525 -0.1078
 7946TIP3    H223782   0.991   7.333   4.681  0.0172  2.5448  0.1619
 7947TIP3   OH223783   7.446   0.302   0.271 -0.1181 -0.2371 -0.4213
 7947TIP3    H123784   7.451   0.354   0.352 -1.4141 -0.8562  0.0779
 7947TIP3    H223785   7.522   0.244   0.275  1.3172  1.4954 -0.9421
 7948TIP3   OH223786   7.438   6.474   2.609  0.2277  0.3304 -0.1441
 7948TIP3    H123787   7.504   6.538   2.638 -0.5197  0.7517  0.6643
 7948TIP3    H223788   7.426   6.417   2.684 -0.4524  0.3574 -0.2298
 7949TIP3   OH223789   0.915   2.692   3.828  0.1349 -0.3161  0.1153
 7949TIP3    H123790   0.990   2.645   3.792  0.8781  1.0096 -0.1024
 7949TIP3    H223791   0.843   2.629   3.822  1.1287 -1.4784 -0.0203
 7950TIP3   OH223792   4.643   2.510   3.393  0.1313 -0.2956 -0.1110
 7950TIP3    H123793   4.573   2.447   3.409  0.1838 -0.7250 -1.4668
 7950TIP3    H223794   4.694   2.472   3.321  1.9658 -0.1513  1.0486
 7951TIP3   OH223795   4.802   5.968   2.144  0.0108 -0.6338 -0.3097
 7951TIP3    H123796   4.854   5.935   2.218  0.5938 -0.1736 -0.4990
 7951TIP3    H223797   4.865   5.976   2.072  0.0484  1.3847 -0.1267
 7952TIP3   OH223798   0.791   3.906   0.421  0.1195 -0.1108 -0.1882
 7952TIP3    H123799   0.774   3.930   0.330 -0.6798 -0.2749 -0.0851
 7952TIP3    H223800   0.839   3.981   0.457 -1.7250  1.0804 -0.0627
 7953TIP3   OH223801   0.980   0.965   0.122  0.3682 -0.5097 -0.1812
 7953TIP3    H123802   1.023   0.879   0.116  0.7883 -0.3815  0.8917
 7953TIP3    H223803   0.933   0.963   0.205 -0.8360 -0.2301 -0.8302
 7954TIP3   OH223804   2.065   5.014   6.014  0.2421 -0.4466 -0.1015
 7954TIP3    H123805   1.979   5.051   6.035  0.0061 -1.6821  1.2280
 7954TIP3    H223806   2.046   4.949   5.946  0.3210  0.1593 -0.7147
 7955TIP3   OH223807   7.571   5.264   5.530  0.5295 -0.0864  0.4857
 7955TIP3    H123808   7.610   5.180   5.553 -1.9060 -1.1871  0.9628
 7955TIP3    H223809   7.610   5.287   5.446  2.9912 -0.4694  1.4473
 7956TIP3   OH223810   2.303   6.237   0.709 -0.0617 -0.5913  0.0631
 7956TIP3    H123811   2.281   6.293   0.783  0.9428  0.5369 -0.4536
 7956TIP3    H223812   2.270   6.151   0.733 -1.0101  0.0656  1.1926
 7957TIP3   OH223813   4.965   1.074   5.475 -0.0213 -0.8768  0.3071
 7957TIP3    H123814   5.060   1.060   5.470 -0.1761 -2.0885  0.3582
 7957TIP3    H223815   4.941   1.108   5.389  0.5056 -0.2147  0.4154
 7958TIP3   OH223816   7.479   5.994   1.185 -0.2489 -0.1952  0.2440
 7958TIP3    H123817   7.446   6.047   1.257 -0.5472  1.0388 -0.7752
 7958TIP3    H223818   7.404   5.983   1.127  0.5012  0.5971 -0.9012
 7959TIP3   OH223819   4.924   0.919   1.633 -0.1369  0.1533  0.2855
 7959TIP3    H123820   4.981   0.985   1.595 -1.4343  0.3581 -1.4420
 7959TIP3    H223821   4.939   0.925   1.728  1.8203  0.9572 -0.0289
 7960TIP3   OH223822   5.728   7.525   3.343 -0.6089 -0.0911 -0.2984
 7960TIP3    H123823   5.795   7.563   3.286  0.0021 -0.5181  0.1134
 7960TIP3    H223824   5.746   7.431   3.341 -1.5480 -0.2690 -0.6180
 7961TIP3   OH223825   6.688   3.144   0.727  0.1935  0.0398 -0.8013
 7961TIP3    H123826   6.742   3.161   0.804  0.4260  2.2258 -1.3822
 7961TIP3    H223827   6.711   3.055   0.701 -0.4323 -1.0582  2.0302
 7962TIP3   OH223828   5.832   3.241   6.076  0.1149  0.4886  0.7788
 7962TIP3    H123829   5.772   3.177   6.116 -0.3400  0.8755  0.7319
 7962TIP3    H223830   5.816   3.322   6.124  0.6741  0.5739  0.8244
 7963TIP3   OH223831   4.645   5.921   2.512 -1.1221 -0.2090 -0.2309
 7963TIP3    H123832   4.627   5.860   2.440  0.2689 -1.8183  0.7044
 7963TIP3    H223833   4.738   5.910   2.530 -1.5579 -0.4116  2.2677
 7964TIP3   OH223834   0.807   0.218   6.110 -0.6900  0.0635 -0.2473
 7964TIP3    H123835   0.887   0.227   6.058  0.3220 -1.6699  0.9222
 7964TIP3    H223836   0.754   0.154   6.061  0.1806 -1.4231  0.6808
 7965TIP3   OH223837   1.729   2.905   6.196 -0.0024  0.2451  0.8381
 7965TIP3    H123838   1.656   2.883   6.254  0.2174  1.7638  1.7417
 7965TIP3    H223839   1.728   2.836   6.129 -2.1763  0.1593  0.8965
 7966TIP3   OH223840   0.412   7.303   3.168  0.1367 -0.4597 -0.7701
 7966TIP3    H123841   0.445   7.319   3.256 -1.3987 -0.5140 -0.1381
 7966TIP3    H223842   0.466   7.232   3.135  1.2655  0.0964 -0.1981
 7967TIP3   OH223843   3.765   1.209   1.609 -0.2777  0.3963 -0.4803
 7967TIP3    H123844   3.692   1.151   1.633  0.8196 -0.1858  1.7022
 7967TIP3    H223845   3.843   1.156   1.626  0.7179  2.0919  0.4255
 7968TIP3   OH223846   7.470   5.839   3.309 -0.2426 -0.3185 -0.3734
 7968TIP3    H123847   7.503   5.926   3.331 -0.0423 -0.6011  0.4822
 7968TIP3    H223848   7.464   5.794   3.393 -2.3462 -0.4527 -0.5367
 7969TIP3   OH223849   7.985   0.922   2.301 -0.0150  0.1515 -0.4335
 7969TIP3    H123850   7.891   0.936   2.302  0.0211  0.4375 -0.7079
 7969TIP3    H223851   8.014   0.945   2.389 -0.2710 -0.4457 -0.1935
 7970TIP3   OH223852   8.159   4.006   0.734  0.1498  0.6879 -0.0912
 7970TIP3    H123853   8.129   3.937   0.674 -0.5295  0.8231  0.0880
 7970TIP3    H223854   8.118   4.086   0.701 -0.8790  0.6383  1.0102
 7971TIP3   OH223855   7.364   7.158   4.196  0.8156 -0.0773 -0.1615
 7971TIP3    H123856   7.340   7.148   4.104  3.2021 -0.0302 -0.8380
 7971TIP3    H223857   7.328   7.080   4.239 -0.1727 -0.1797 -1.1456
 7972TIP3   OH223858   5.799   0.262   5.911  0.0142  0.2502 -0.5020
 7972TIP3    H123859   5.772   0.353   5.903  0.1030  0.6380  2.3400
 7972TIP3    H223860   5.739   0.225   5.976  1.7776 -0.8425  0.6069
 7973TIP3   OH223861   6.969   3.432   5.459  0.3553  0.7892  0.1625
 7973TIP3    H123862   7.005   3.517   5.484  0.4814  0.0221  2.8705
 7973TIP3    H223863   6.908   3.452   5.389 -0.0889  3.2200  1.1449
 7974TIP3   OH223864   2.267   4.335   0.490  0.2957 -0.1183  0.3444
 7974TIP3    H123865   2.279   4.288   0.573 -1.5077 -1.4737 -0.0853
 7974TIP3    H223866   2.177   4.367   0.494  1.0277  2.1392 -0.0126
 7975TIP3   OH223867   8.012   0.345   0.560  0.4236 -0.4659  0.6930
 7975TIP3    H123868   7.997   0.439   0.570 -0.1454 -0.4762  0.0086
 7975TIP3    H223869   7.933   0.304   0.596  0.5858 -0.6799  0.8084
 7976TIP3   OH223870   2.134   0.616   4.450 -0.4942  0.3230 -0.1302
 7976TIP3    H123871   2.197   0.683   4.423  2.2803 -1.3332  1.7354
 7976TIP3    H223872   2.114   0.568   4.369  1.5839  0.2171 -0.6412
 7977TIP3   OH223873   6.320   3.143   3.386 -0.9034 -0.3003  0.2934
 7977TIP3    H123874   6.394   3.095   3.421  0.3460  1.1800 -0.2200
 7977TIP3    H223875   6.252   3.134   3.453 -1.0406 -3.3555 -0.1252
 7978TIP3   OH223876   1.063   0.647   1.818 -0.5338 -0.4391 -0.4629
 7978TIP3    H123877   1.014   0.710   1.765  0.0959  0.7388  0.3099
 7978TIP3    H223878   1.152   0.648   1.782 -0.1366  0.2714  0.4951
 7979TIP3   OH223879   4.837   1.784   3.138  0.4379  0.9532  0.4343
 7979TIP3    H123880   4.832   1.714   3.203  0.3960 -0.1142 -0.6923
 7979TIP3    H223881   4.928   1.815   3.142  0.2500  1.3985  1.4962
 7980TIP3   OH223882   0.024   0.037   3.327 -0.2806 -0.0409 -0.2351
 7980TIP3    H123883  -0.045   0.088   3.369  0.9045  0.4038  1.2183
 7980TIP3    H223884   0.064  -0.013   3.397  0.1249 -1.2064 -1.2570
 7981TIP3   OH223885   8.127   5.893   3.519  0.1218 -0.2901  0.1907
 7981TIP3    H123886   8.210   5.855   3.548  0.7149  0.2472 -0.7299
 7981TIP3    H223887   8.063   5.823   3.532  1.1089 -1.5087 -1.0743
 7982TIP3   OH223888   7.087   7.270   4.101  0.0301 -0.3038 -0.1075
 7982TIP3    H123889   7.057   7.190   4.143  1.9991 -1.3687 -0.6346
 7982TIP3    H223890   7.106   7.244   4.011 -0.5491  1.0841 -0.6618
 7983TIP3   OH223891   6.271   0.484   3.987  0.2431 -0.7246  0.5270
 7983TIP3    H123892   6.240   0.569   3.956 -1.3854 -0.1308  3.4340
 7983TIP3    H223893   6.213   0.421   3.945 -0.3774 -0.1758  0.5526
 7984TIP3   OH223894   6.613   6.017   2.638  0.5978  0.2522 -0.2955
 7984TIP3    H123895   6.673   6.028   2.564  0.9671  0.0682 -0.0248
 7984TIP3    H223896   6.545   5.958   2.606 -0.3486  1.7460 -1.1427
 7985TIP3   OH223897   0.273   1.908   0.293  0.3084  0.1219 -0.5525
 7985TIP3    H123898   0.315   1.972   0.350 -1.1866  1.1542 -0.5285
 7985TIP3    H223899   0.311   1.923   0.207 -0.6328  1.6748 -0.7291
 7986TIP3   OH223900   3.940   6.937   3.373 -0.2160  0.2158  0.2436
 7986TIP3    H123901   3.859   6.974   3.338 -0.0181  1.1845  0.7771
 7986TIP3    H223902   3.914   6.894   3.454 -0.7400 -2.3515 -1.1801
 7987TIP3   OH223903   2.930   0.871   6.586  0.3018 -0.4322 -0.3113
 7987TIP3    H123904   2.862   0.901   6.647 -0.8066 -0.5820 -1.4334
 7987TIP3    H223905   2.996   0.831   6.642 -0.1295  0.4536  0.8883
 7988TIP3   OH223906   6.223   1.836   2.139 -0.0240  0.2878  0.1755
 7988TIP3    H123907   6.128   1.828   2.137 -0.1485  0.2812 -4.3810
 7988TIP3    H223908   6.254   1.745   2.131  0.3896  0.3276  1.1994
 7989TIP3   OH223909   0.968   0.786   0.971  0.2591 -0.2571  0.0860
 7989TIP3    H123910   0.934   0.844   1.038  0.1194 -0.2748  0.0316
 7989TIP3    H223911   1.037   0.836   0.928 -2.6425  1.6445 -2.8816
 7990TIP3   OH223912   2.720   4.127   2.877 -0.6833 -0.9915 -0.3359
 7990TIP3    H123913   2.722   4.220   2.900 -1.2014 -1.0331 -0.1249
 7990TIP3    H223914   2.767   4.083   2.948  0.9800 -0.7382 -1.2225
 7991TIP3   OH223915   5.717   0.798   6.447 -0.4693 -0.0744  0.4468
 7991TIP3    H123916   5.641   0.766   6.496 -0.4722 -1.5406 -0.4391
 7991TIP3    H223917   5.767   0.719   6.427  0.1726  0.6241 -0.8362
 7992TIP3   OH223918   5.752   5.815   2.517 -0.6391 -0.0790 -0.0493
 7992TIP3    H123919   5.729   5.907   2.513 -0.5349  0.3255  4.3823
 7992TIP3    H223920   5.669   5.768   2.523 -0.6295 -0.1717 -0.5232
 7993TIP3   OH223921   1.455   1.435   1.901 -0.2547 -0.1000 -0.3073
 7993TIP3    H123922   1.365   1.465   1.904 -0.0548  0.4386  2.4483
 7993TIP3    H223923   1.503   1.493   1.960  1.9804 -0.2492 -1.8156
 7994TIP3   OH223924   0.069   3.842   4.288 -0.3693  0.2782 -0.1461
 7994TIP3    H123925   0.046   3.779   4.356  0.9136  0.0327  0.0842
 7994TIP3    H223926   0.137   3.897   4.328  0.0773  0.4148 -1.0750
 7995TIP3   OH223927   4.717   1.653   2.875  0.2020  0.5576  0.5622
 7995TIP3    H123928   4.782   1.704   2.923  2.1547 -0.6751 -0.6201
 7995TIP3    H223929   4.768   1.585   2.832 -2.1084 -1.5112  0.8968
 7996TIP3   OH223930   2.139   7.410   5.032 -0.5498 -0.1348 -0.2279
 7996TIP3    H123931   2.114   7.469   5.103 -0.9293 -1.3593  0.7097
 7996TIP3    H223932   2.229   7.384   5.053 -0.3956  0.0749 -0.6166
 7997TIP3   OH223933   2.111   5.574   0.979  0.3814 -0.3364  0.2879
 7997TIP3    H123934   2.182   5.548   1.038  0.4011 -1.2495 -0.1255
 7997TIP3    H223935   2.036   5.522   1.008 -0.5368  1.5698  1.5905
 7998TIP3   OH223936   1.742   7.683   1.658 -0.8107  0.6543  0.1270
 7998TIP3    H123937   1.829   7.691   1.620 -0.7406  0.5233  0.2554
 7998TIP3    H223938   1.686   7.655   1.585 -0.3115 -1.5210  0.4927
 7999TIP3   OH223939   4.247   3.518   6.136  0.1088 -0.7731 -0.3453
 7999TIP3    H123940   4.316   3.482   6.081  0.8310  0.0651 -0.0120
 7999TIP3    H223941   4.266   3.485   6.224 -0.4026 -1.2145 -0.3972
 8000TIP3   OH223942   1.814   6.265   6.226 -0.0428  0.2769 -0.1956
 8000TIP3    H123943   1.893   6.318   6.226 -1.0277  2.1251  3.5871
 8000TIP3    H223944   1.744   6.327   6.202 -0.7407 -0.3354  0.2234
 8001TIP3   OH223945   3.081   7.156   1.450  0.5840  0.1193 -0.0591
 8001TIP3    H123946   3.168   7.131   1.417  1.7536  2.4286  0.9947
 8001TIP3    H223947   3.049   7.220   1.387  0.8211  1.1816  0.8729
 8002TIP3   OH223948   5.173   2.017   0.522  0.6742 -0.5547 -0.5491
 8002TIP3    H123949   5.185   2.110   0.501  0.0986 -0.2992  0.2045
 8002TIP3    H223950   5.260   1.979   0.513  0.5214 -0.4470 -3.2123
 8003TIP3   OH223951   4.845   6.946   6.079 -0.3922  0.1229  0.4327
 8003TIP3    H123952   4.760   6.919   6.114 -1.2609  1.6257 -0.4050
 8003TIP3    H223953   4.893   6.980   6.155 -0.7212 -0.3022  0.8344
 8004TIP3   OH223954   2.193   3.687   3.323 -0.1963  0.0366 -0.4200
 8004TIP3    H123955   2.174   3.613   3.381  0.9109 -0.1608 -0.2851
 8004TIP3    H223956   2.135   3.674   3.248 -0.8545 -0.3110  0.1302
 8005TIP3   OH223957   6.682   6.599   5.404 -0.1279 -0.2804 -0.3190
 8005TIP3    H123958   6.596   6.556   5.404 -0.0601 -0.4203  0.3320
 8005TIP3    H223959   6.695   6.627   5.494 -0.1643  1.1145 -0.7203
 8006TIP3   OH223960   6.491   1.382   1.266  0.2733  0.5184 -0.2988
 8006TIP3    H123961   6.551   1.355   1.335  2.0850  2.3935 -1.0378
 8006TIP3    H223962   6.499   1.313   1.200 -0.2019 -0.4347  0.6078
 8007TIP3   OH223963   1.339   4.483   3.050 -0.2625  0.2881 -0.1481
 8007TIP3    H123964   1.281   4.447   2.983 -0.0012 -1.8498  0.6898
 8007TIP3    H223965   1.368   4.567   3.014 -3.0346  0.9584 -1.0378
 8008TIP3   OH223966   3.212   1.972   3.723 -0.0396  0.1727  0.5346
 8008TIP3    H123967   3.149   2.042   3.745 -1.2996 -0.8500  0.2730
 8008TIP3    H223968   3.238   1.936   3.808 -1.6082 -0.9214  0.5888
 8009TIP3   OH223969   4.072   7.068   1.037 -0.0854 -0.0910  0.4163
 8009TIP3    H123970   4.085   6.973   1.040  2.3101  0.1576  0.0443
 8009TIP3    H223971   4.072   7.089   0.944  0.7935  0.3880  0.5079
 8010TIP3   OH223972   5.662   0.393   4.229 -0.0142  0.0486 -0.3776
 8010TIP3    H123973   5.580   0.350   4.253 -0.1506 -0.1502 -1.1800
 8010TIP3    H223974   5.707   0.329   4.173  0.5241  0.3009 -0.2368
 8011TIP3   OH223975   4.496   5.517   1.563 -0.2911  0.1851  0.4302
 8011TIP3    H123976   4.586   5.491   1.584 -0.0138  0.5337 -0.2818
 8011TIP3    H223977   4.502   5.610   1.542 -0.8738  0.2802  0.6672
 8012TIP3   OH223978   4.118   2.334   0.179  1.2250 -0.2866  0.2389
 8012TIP3    H123979   4.092   2.379   0.098  2.3422 -0.3590 -0.1886
 8012TIP3    H223980   4.048   2.270   0.194  0.2424  0.7381  0.1721
 8013TIP3   OH223981   5.298   7.051   4.524  0.0269 -0.3305  0.1110
 8013TIP3    H123982   5.287   7.004   4.441 -0.4942  0.6207 -0.3707
 8013TIP3    H223983   5.212   7.046   4.566  0.2571 -0.7015  0.5431
 8014TIP3   OH223984   6.316   4.676   4.529  0.4947  0.1352 -0.4737
 8014TIP3    H123985   6.298   4.592   4.572  0.8500  0.4955  0.3941
 8014TIP3    H223986   6.264   4.739   4.577 -0.5688  0.2916 -1.7579
 8015TIP3   OH223987   3.681   7.630   1.903  0.0018 -0.2342 -0.2764
 8015TIP3    H123988   3.610   7.605   1.962 -0.7120 -0.4766 -1.2095
 8015TIP3    H223989   3.688   7.557   1.841 -0.8954  1.0055 -1.9280
 8016TIP3   OH223990   1.726   6.839   0.642 -0.2409 -0.1965  0.1624
 8016TIP3    H123991   1.683   6.753   0.639 -0.0630 -0.2625 -1.6531
 8016TIP3    H223992   1.664   6.895   0.689 -0.4133 -1.2704  1.2738
 8017TIP3   OH223993   5.156   7.245   1.130  0.3766 -0.0884 -0.2712
 8017TIP3    H123994   5.159   7.311   1.061 -1.6539  0.2126 -0.1472
 8017TIP3    H223995   5.228   7.185   1.110 -1.1771 -1.0608 -3.7462
 8018TIP3   OH223996   5.717   1.795   3.349  0.0770  0.1001  0.2824
 8018TIP3    H123997   5.649   1.773   3.412  1.1674  0.7279  1.7272
 8018TIP3    H223998   5.701   1.887   3.327 -0.5152 -0.2132 -0.6705
 8019TIP3   OH223999   3.017   6.811   5.203 -0.0126 -0.0799 -0.8513
 8019TIP3    H124000   2.986   6.817   5.293 -0.7772  0.2223 -1.1286
 8019TIP3    H224001   3.055   6.897   5.185 -1.5812  0.5363 -1.4208
 8020TIP3   OH224002   7.212   3.169   3.927 -0.5716  0.3110 -0.1519
 8020TIP3    H124003   7.196   3.151   4.019 -0.2442 -0.7763 -0.2860
 8020TIP3    H224004   7.167   3.251   3.910 -1.4549  0.0330  0.7441
 8021TIP3   OH224005   0.139   6.486   0.610 -0.7964  0.1756  0.4243
 8021TIP3    H124006   0.227   6.461   0.639 -0.0827  2.2855  0.2508
 8021TIP3    H224007   0.080   6.433   0.664  0.5810 -0.3891  1.4280
 8022TIP3   OH224008   6.486   2.382   2.538  0.1979  0.5981  0.1811
 8022TIP3    H124009   6.393   2.360   2.542  0.5088 -0.9405 -0.4500
 8022TIP3    H224010   6.495   2.460   2.593 -1.7493  1.8343 -1.1306
 8023TIP3   OH224011   4.389   1.244   4.670 -0.5486  0.0972 -0.7805
 8023TIP3    H124012   4.333   1.321   4.674  0.6736  0.9931 -0.3477
 8023TIP3    H224013   4.339   1.176   4.715 -0.5888  1.3398  1.2116
 8024TIP3   OH224014   1.783   7.370   0.948  0.6446 -0.0759 -0.6682
 8024TIP3    H124015   1.805   7.282   0.978 -2.0395 -0.4966  0.3003
 8024TIP3    H224016   1.767   7.420   1.028 -0.1744  0.6352 -1.2521
 8025TIP3   OH224017   6.112   3.537   4.972  0.2608 -0.4986 -0.0741
 8025TIP3    H124018   6.053   3.471   4.936 -0.5719  0.7208 -1.0245
 8025TIP3    H224019   6.195   3.491   4.984 -0.3305 -1.7362 -0.6157
 8026TIP3   OH224020   1.975   5.744   3.835  0.3511 -0.3401  0.0640
 8026TIP3    H124021   1.937   5.656   3.838  1.2882 -0.7485  2.7153
 8026TIP3    H224022   2.037   5.741   3.762 -1.4325 -1.0330 -1.4987
 8027TIP3   OH224023   3.344   2.331   3.766  0.0066 -0.1696  0.3611
 8027TIP3    H124024   3.381   2.254   3.810  0.5904 -0.6464 -0.9125
 8027TIP3    H224025   3.405   2.350   3.694  0.2276  1.9042  1.0295
 8028TIP3   OH224026   4.654   3.857   4.644 -0.2948 -0.6365  0.1315
 8028TIP3    H124027   4.708   3.935   4.633  0.2742 -0.9598  0.6434
 8028TIP3    H224028   4.564   3.890   4.638 -0.0673  0.1092  0.6609
 8029TIP3   OH224029   1.591   4.705   1.557  0.2245  0.1561 -0.2358
 8029TIP3    H124030   1.685   4.690   1.553  0.0476 -1.2071  0.4457
 8029TIP3    H224031   1.571   4.715   1.650 -0.8293 -3.5311  0.0874
 8030TIP3   OH224032   0.618   5.328   0.268  0.5477  0.4134 -0.3277
 8030TIP3    H124033   0.705   5.288   0.273  0.0831 -1.4773 -4.1614
 8030TIP3    H224034   0.565   5.279   0.330  1.8623  0.8155  1.1921
 8031TIP3   OH224035   8.154   2.230   2.922 -0.3829  0.1660 -0.0404
 8031TIP3    H124036   8.225   2.167   2.911 -1.0951 -0.5260 -0.7752
 8031TIP3    H224037   8.105   2.226   2.840 -2.4095 -0.8021  1.1488
 8032TIP3   OH224038   0.939   5.872   6.178  0.1258 -0.3484 -0.2521
 8032TIP3    H124039   1.010   5.825   6.223  1.0123 -1.1117 -2.3113
 8032TIP3    H224040   0.978   5.900   6.095 -1.1750  1.7696 -0.2373
 8033TIP3   OH224041   7.648   4.016   6.661  0.0246 -0.1271  0.1639
 8033TIP3    H124042   7.719   3.955   6.679  1.0717  0.1551 -2.5102
 8033TIP3    H224043   7.592   3.971   6.597 -0.7443  0.6580  0.2573
 8034TIP3   OH224044   3.509   3.419   0.547 -0.5767  0.1428  0.7763
 8034TIP3    H124045   3.585   3.444   0.495 -1.8451  0.3453 -1.0808
 8034TIP3    H224046   3.467   3.501   0.571 -0.3208  0.0278  1.6746
 8035TIP3   OH224047   0.916   3.952   5.954  0.5273 -0.0086  0.1901
 8035TIP3    H124048   0.833   3.999   5.942  0.1879 -0.5089  0.5478
 8035TIP3    H224049   0.975   4.017   5.993  0.4545  0.4862 -0.5095
 8036TIP3   OH224050   5.009   1.857   0.233 -0.1250  0.3424 -0.2860
 8036TIP3    H124051   5.009   1.840   0.327 -1.0672 -1.8408 -0.6198
 8036TIP3    H224052   4.916   1.872   0.212  0.0526  0.5988 -0.9122
 8037TIP3   OH224053   3.441   0.704   6.137 -0.1562 -0.1999 -0.2384
 8037TIP3    H124054   3.350   0.676   6.151 -0.7246  1.1536 -1.0741
 8037TIP3    H224055   3.461   0.678   6.048 -0.0065  0.2522 -0.3373
 8038TIP3   OH224056   0.562   5.756   1.125  0.2169 -0.3540  0.2788
 8038TIP3    H124057   0.508   5.807   1.065 -0.2484 -1.8678 -0.6654
 8038TIP3    H224058   0.651   5.765   1.093  0.2209  0.3066  0.4666
 8039TIP3   OH224059   3.487   6.744   1.682  0.4635 -0.5160  0.4291
 8039TIP3    H124060   3.400   6.703   1.684  0.4305 -0.4509  0.3402
 8039TIP3    H224061   3.537   6.690   1.621  0.9479 -1.4686  1.6352
 8040TIP3   OH224062   6.736   3.851   1.314 -0.2076 -0.8730  0.4503
 8040TIP3    H124063   6.748   3.914   1.385 -2.4525 -0.5194  0.5798
 8040TIP3    H224064   6.823   3.843   1.274  0.5432  0.8511  1.6210
 8041TIP3   OH224065   1.512   1.753   2.337 -0.3036 -0.0700 -0.3159
 8041TIP3    H124066   1.607   1.744   2.347 -0.6382 -1.5326  2.7378
 8041TIP3    H224067   1.483   1.790   2.421 -2.6936 -2.4807  0.0477
 8042TIP3   OH224068   5.177   4.023   4.078 -0.6013  0.4810 -0.1595
 8042TIP3    H124069   5.092   4.043   4.040 -1.1395 -0.9239  0.2352
 8042TIP3    H224070   5.200   3.937   4.044 -0.2623 -0.0203  1.2408
 8043TIP3   OH224071   4.291   5.214   4.745  0.0303 -0.0277  0.2460
 8043TIP3    H124072   4.364   5.234   4.804  0.2893 -0.4334  0.0676
 8043TIP3    H224073   4.331   5.213   4.658 -0.7141  2.7082 -0.2434
 8044TIP3   OH224074   7.985   7.280   2.208 -0.4343 -0.5673  0.1306
 8044TIP3    H124075   7.923   7.337   2.163 -2.1619 -1.0135  1.8285
 8044TIP3    H224076   7.942   7.195   2.212  0.4710 -1.0085  0.9871
 8045TIP3   OH224077   3.769   4.504   0.201  0.3711  0.3180  0.4270
 8045TIP3    H124078   3.773   4.445   0.276  0.1474 -0.1829  0.0495
 8045TIP3    H224079   3.752   4.447   0.126  1.3462  0.7199 -0.1232
 8046TIP3   OH224080   3.104   4.322   4.862  0.0191  0.0880 -0.3604
 8046TIP3    H124081   3.157   4.279   4.929 -0.3633 -2.1531 -1.3991
 8046TIP3    H224082   3.064   4.396   4.907  1.4847 -0.0386  1.2780
 8047TIP3   OH224083   1.278   0.491   3.755 -0.0146 -0.3008  0.3457
 8047TIP3    H124084   1.254   0.494   3.848  0.5190 -1.7283  0.5518
 8047TIP3    H224085   1.351   0.429   3.752  1.0348  0.9226 -0.8131
 8048TIP3   OH224086   0.768   5.349   2.549 -0.3157  0.4889 -0.7181
 8048TIP3    H124087   0.694   5.348   2.488  0.0224  0.3483 -1.1263
 8048TIP3    H224088   0.835   5.400   2.505 -0.6923  1.9228  0.2871
 8049TIP3   OH224089   2.393   1.293   6.229  0.5008  0.5838 -0.5639
 8049TIP3    H124090   2.435   1.262   6.309  0.0602  0.8905 -0.2040
 8049TIP3    H224091   2.448   1.261   6.158 -0.0676 -1.2570 -0.2305
 8050TIP3   OH224092   1.571   2.452   6.349 -0.0851  0.8636 -0.5129
 8050TIP3    H124093   1.569   2.451   6.445  0.2491 -0.3020 -0.4922
 8050TIP3    H224094   1.640   2.514   6.327 -0.8882  1.9551 -0.0370
 8051TIP3   OH224095   5.136   1.456   1.498 -0.7917  0.1338 -0.3775
 8051TIP3    H124096   5.193   1.506   1.440 -1.6553  0.3939 -1.0316
 8051TIP3    H224097   5.107   1.520   1.564 -0.4109  0.0292 -0.1105
 8052TIP3   OH224098   1.089   2.138   5.285 -0.6552 -0.1644  0.1829
 8052TIP3    H124099   1.127   2.153   5.372 -0.0115 -1.8685  0.2213
 8052TIP3    H224100   1.037   2.059   5.295 -0.1569 -0.6719 -1.1119
 8053TIP3   OH224101   7.991   0.893   4.040 -0.2131 -0.2387 -0.5501
 8053TIP3    H124102   8.083   0.894   4.017 -0.2613  1.2252 -0.7322
 8053TIP3    H224103   7.950   0.957   3.982 -0.9885  0.6526  0.9232
 8054TIP3   OH224104   2.125   2.808   1.052  0.2755  0.4177  0.0953
 8054TIP3    H124105   2.055   2.865   1.083  1.1318  2.2272 -1.1167
 8054TIP3    H224106   2.205   2.860   1.062  1.1750 -0.7777 -0.5753
 8055TIP3   OH224107   4.911   7.712   3.381 -0.4690 -0.0096  0.1393
 8055TIP3    H124108   4.907   7.705   3.286 -1.5357 -1.6703  0.2740
 8055TIP3    H224109   4.959   7.634   3.409  0.9733  1.0963  0.9235
 8056TIP3   OH224110   6.685   0.437   4.079 -0.3058  0.9208 -0.0493
 8056TIP3    H124111   6.679   0.532   4.071 -1.4929  0.7401 -1.6478
 8056TIP3    H224112   6.732   0.409   4.000 -1.0782  0.0798 -0.2250
 8057TIP3   OH224113   7.474   0.816   0.186 -0.1083  0.1609 -0.1254
 8057TIP3    H124114   7.527   0.741   0.213  0.8882  0.5781 -0.8658
 8057TIP3    H224115   7.479   0.877   0.259 -0.2247 -0.1260  0.1272
 8058TIP3   OH224116   1.729   7.497   4.001 -0.6394  0.3777  0.0427
 8058TIP3    H124117   1.695   7.581   4.032 -0.8778 -0.2149  1.4719
 8058TIP3    H224118   1.653   7.451   3.967 -0.2487  1.3587 -2.3599
 8059TIP3   OH224119   4.342   3.847   3.288  0.0366  0.0177  0.3214
 8059TIP3    H124120   4.403   3.902   3.338  0.3680  0.3066 -0.3861
 8059TIP3    H224121   4.388   3.764   3.277  1.9402  1.3133 -3.2577
 8060TIP3   OH224122   6.197   3.093   1.302 -0.2566 -0.3557 -0.3072
 8060TIP3    H124123   6.162   3.175   1.337  0.5389 -0.6491  1.2557
 8060TIP3    H224124   6.292   3.105   1.303 -0.1422 -1.1921 -0.3246
 8061TIP3   OH224125   0.793   6.389   5.805  0.0658  0.1210  0.7579
 8061TIP3    H124126   0.737   6.457   5.768  0.7475  1.0395  1.3835
 8061TIP3    H224127   0.734   6.316   5.821 -0.7450  0.6841  0.3964
 8062TIP3   OH224128   5.878   3.024   6.739  0.4258 -0.1370 -0.0549
 8062TIP3    H124129   5.885   3.089   6.809  0.2241  0.7798 -0.8671
 8062TIP3    H224130   5.789   3.035   6.705  0.8373  0.1093 -1.0903
 8063TIP3   OH224131   3.122   3.681   0.139  0.0046 -0.1929  0.2614
 8063TIP3    H124132   3.150   3.648   0.054  1.5305  0.4312  0.4802
 8063TIP3    H224133   3.190   3.651   0.200  0.0617  1.1179  0.8806
 8064TIP3   OH224134   7.531   6.717   0.897  0.6682 -0.3463 -0.2080
 8064TIP3    H124135   7.450   6.768   0.888  0.7799  0.0107  0.6931
 8064TIP3    H224136   7.545   6.679   0.810  0.0935  0.4256 -0.6521
 8065TIP3   OH224137   8.019   3.347   2.476 -0.7673  0.4018 -0.4220
 8065TIP3    H124138   8.031   3.431   2.431  0.3908  0.3058 -0.3278
 8065TIP3    H224139   7.942   3.361   2.532 -0.7597  1.3091 -0.6215
 8066TIP3   OH224140   5.357   2.982   3.167 -0.7769 -0.7911  0.1081
 8066TIP3    H124141   5.381   3.075   3.166 -0.2055 -0.9352  0.3032
 8066TIP3    H224142   5.266   2.982   3.198 -0.9194 -0.2705 -0.2906
 8067TIP3   OH224143   2.768   1.409   1.198  0.1625 -0.2521 -0.4706
 8067TIP3    H124144   2.846   1.407   1.144  0.4332 -1.6396 -0.0609
 8067TIP3    H224145   2.784   1.480   1.261 -0.4399  1.8474 -2.5320
 8068TIP3   OH224146   2.090   4.919   5.265  0.1033  0.3275  0.3101
 8068TIP3    H124147   2.039   4.943   5.342  0.4436  0.5462  0.4710
 8068TIP3    H224148   2.156   4.989   5.257 -0.4747  0.7923 -0.6845
 8069TIP3   OH224149   7.717   6.723   2.251  0.5780 -0.1085 -0.2175
 8069TIP3    H124150   7.754   6.795   2.199  2.1030 -1.1030 -0.5854
 8069TIP3    H224151   7.790   6.692   2.305 -0.4102 -0.5158  0.9318
 8070TIP3   OH224152   6.854   6.992   0.030  0.3517  0.1906  0.1424
 8070TIP3    H124153   6.789   6.978  -0.039  0.8660 -0.7056 -0.1698
 8070TIP3    H224154   6.839   6.922   0.093  0.6209  0.3412  0.3810
 8071TIP3   OH224155   0.638   2.249   1.243  0.4924  0.2299  0.2010
 8071TIP3    H124156   0.639   2.155   1.261  3.0220  0.1748  0.1072
 8071TIP3    H224157   0.572   2.284   1.303  0.2733 -1.4620  1.0005
 8072TIP3   OH224158   4.714   6.427   0.232  0.1763  0.2593  0.1378
 8072TIP3    H124159   4.739   6.398   0.320  0.6512  1.2115  0.3343
 8072TIP3    H224160   4.618   6.422   0.231  0.2180 -0.9258  0.2773
 8073TIP3   OH224161   1.742   1.107   5.758 -0.4827 -0.1074  0.2561
 8073TIP3    H124162   1.706   1.018   5.758 -1.4219  0.2358  1.3451
 8073TIP3    H224163   1.834   1.096   5.781 -0.4386 -0.8374 -0.2335
 8074TIP3   OH224164   2.706   6.496   5.508  0.1061 -0.2708  0.4464
 8074TIP3    H124165   2.787   6.517   5.553  1.2049  0.9501 -1.9047
 8074TIP3    H224166   2.678   6.578   5.468 -0.4920 -1.3274 -1.4549
 8075TIP3   OH224167   4.463   4.591   5.270  0.1851 -0.7012 -0.1588
 8075TIP3    H124168   4.471   4.495   5.276 -0.6530 -0.6793  1.6871
 8075TIP3    H224169   4.371   4.606   5.248  0.7561 -0.3349 -2.5987
 8076TIP3   OH224170   0.682   4.785   5.557  0.2403  0.0062 -0.5067
 8076TIP3    H124171   0.681   4.732   5.637  1.9909  0.0185 -0.4428
 8076TIP3    H224172   0.706   4.723   5.488  0.7427  0.3967 -0.6862
 8077TIP3   OH224173   3.003   1.210   4.859  0.1390  0.6062 -0.3014
 8077TIP3    H124174   2.995   1.264   4.780 -0.3321  1.8768  0.5916
 8077TIP3    H224175   2.979   1.268   4.931  0.4433 -0.5644  0.7838
 8078TIP3   OH224176   2.704   5.902   2.480  0.4176 -0.7991  0.6887
 8078TIP3    H124177   2.615   5.898   2.444 -0.0501 -0.5201  1.7628
 8078TIP3    H224178   2.700   5.971   2.547  1.8886  0.4084 -0.4095
 8079TIP3   OH224179   1.811   1.028   0.244 -0.2029  0.4998  0.3712
 8079TIP3    H124180   1.847   0.960   0.300  1.2836  0.5579 -0.4580
 8079TIP3    H224181   1.785   0.983   0.164  2.1619  1.0064 -0.7928
 8080TIP3   OH224182   7.988   1.928   5.518  0.3365  0.4667 -0.3407
 8080TIP3    H124183   7.900   1.916   5.482  0.4642  1.9508 -1.2226
 8080TIP3    H224184   8.031   1.844   5.503 -1.3730 -0.8545  1.5532
 8081TIP3   OH224185   6.324   3.082   4.602  0.0347 -0.0307  0.4069
 8081TIP3    H124186   6.366   3.165   4.625 -0.8530  0.5024  0.1383
 8081TIP3    H224187   6.238   3.107   4.568  0.1593 -0.9789 -0.6796
 8082TIP3   OH224188   0.821   7.261   6.228  0.4483 -0.0631 -0.2906
 8082TIP3    H124189   0.821   7.353   6.254  0.3525 -0.0749 -0.2496
 8082TIP3    H224190   0.901   7.225   6.267  0.2628 -0.1007  0.0534
 8083TIP3   OH224191   0.431   5.752   1.885  0.1854  0.3903  0.5801
 8083TIP3    H124192   0.439   5.662   1.853  2.0989  1.4046 -2.1723
 8083TIP3    H224193   0.349   5.783   1.848 -0.1985 -0.0196  1.0679
 8084TIP3   OH224194   0.483   6.130   0.681 -0.2139  0.3927 -0.3258
 8084TIP3    H124195   0.461   6.075   0.606 -1.2243 -0.9028  0.8673
 8084TIP3    H224196   0.579   6.135   0.680  0.0558 -2.7228  0.3768
 8085TIP3   OH224197   3.148   4.255   4.213  0.1198 -0.4337 -0.2936
 8085TIP3    H124198   3.187   4.253   4.301  0.1333  0.8935 -0.2518
 8085TIP3    H224199   3.216   4.219   4.156  0.7535  0.2135  0.0271
 8086TIP3   OH224200   7.705   7.590   6.003  0.1326  0.6661  0.4064
 8086TIP3    H124201   7.793   7.551   5.998  0.5241  1.6218 -0.3198
 8086TIP3    H224202   7.712   7.672   5.955 -2.1623 -1.0662 -3.3691
 8087TIP3   OH224203   2.046   2.946   4.919  0.3838 -0.1321  0.0466
 8087TIP3    H124204   1.971   2.889   4.934 -0.7763  1.5331  0.9233
 8087TIP3    H224205   2.112   2.915   4.981 -0.4971 -0.0690  1.0399
 8088TIP3   OH224206   6.094   5.664   3.937  0.1232  0.4181 -0.4858
 8088TIP3    H124207   6.034   5.590   3.934  0.1260  0.4343 -2.7378
 8088TIP3    H224208   6.041   5.737   3.968  0.2971 -0.5966  2.4781
 8089TIP3   OH224209   4.639   3.883   0.292  0.5108  0.6932 -0.5706
 8089TIP3    H124210   4.669   3.815   0.232  1.7123  0.2796  0.4636
 8089TIP3    H224211   4.711   3.946   0.295 -0.3947  1.7909 -1.1473
 8090TIP3   OH224212   3.124   4.663   1.692  0.3528  0.2990 -0.6628
 8090TIP3    H124213   3.169   4.726   1.749 -0.7627  0.9900 -0.5113
 8090TIP3    H224214   3.163   4.578   1.715 -0.3922  0.4710  1.5230
 8091TIP3   OH224215   7.291   4.008   3.187 -0.7654 -0.7063 -0.4144
 8091TIP3    H124216   7.299   4.103   3.192 -0.1970 -0.8180  1.7977
 8091TIP3    H224217   7.342   3.984   3.109 -2.0274  0.8590 -1.7891
 8092TIP3   OH224218   2.179   2.769   0.248  0.4101 -0.4923  0.3839
 8092TIP3    H124219   2.265   2.771   0.290 -0.1446 -0.6769  1.5963
 8092TIP3    H224220   2.128   2.707   0.301 -0.9841  0.9201  0.7950
 8093TIP3   OH224221   3.570   2.190   1.949  0.3696 -0.3745 -0.2076
 8093TIP3    H124222   3.517   2.183   1.869 -0.0626 -1.1915  0.1452
 8093TIP3    H224223   3.546   2.114   2.001  2.9662 -1.6138 -0.6577
 8094TIP3   OH224224   0.935   0.600   2.286  0.2620  0.2673 -0.1338
 8094TIP3    H124225   0.860   0.655   2.312  1.0657  1.5330 -0.4107
 8094TIP3    H224226   0.998   0.611   2.357  1.5024  1.8560 -1.4099
 8095TIP3   OH224227   7.663   6.540   6.592 -0.4964 -0.2352  0.2267
 8095TIP3    H124228   7.595   6.593   6.634  0.2863  0.5049  0.5650
 8095TIP3    H224229   7.654   6.558   6.498  0.6721  1.6145  0.4338
 8096TIP3   OH224230   0.199   7.204   3.376 -0.0365  0.0428  0.2733
 8096TIP3    H124231   0.218   7.241   3.290  1.9100 -0.7493  0.3203
 8096TIP3    H224232   0.213   7.276   3.437 -1.0853  0.5118 -0.0071
 8097TIP3   OH224233   7.342   6.481   5.700  0.3724  0.1704  0.5303
 8097TIP3    H124234   7.345   6.479   5.605  0.3830 -0.6828  0.5428
 8097TIP3    H224235   7.254   6.449   5.722  0.4716  0.0929  0.8133
 8098TIP3   OH224236   7.671   1.105   0.788 -1.0498  0.3725 -0.4108
 8098TIP3    H124237   7.745   1.075   0.841 -1.0961  1.6461  0.4346
 8098TIP3    H224238   7.712   1.156   0.718 -1.0657 -0.0840 -0.7564
 8099TIP3   OH224239   6.265   2.750   0.217  0.5588  0.4959 -0.2668
 8099TIP3    H124240   6.266   2.660   0.249  0.8858  0.5140 -0.2223
 8099TIP3    H224241   6.267   2.804   0.296  1.2899  0.5408 -0.3133
 8100TIP3   OH224242   6.396   0.127   2.850  0.0734  0.1829  0.0733
 8100TIP3    H124243   6.378   0.221   2.840 -0.7479  0.1406  0.9943
 8100TIP3    H224244   6.474   0.112   2.797  0.8199  1.5828  0.7183
 8101TIP3   OH224245   1.825   2.633   5.287  0.6174 -0.1358  0.1523
 8101TIP3    H124246   1.914   2.603   5.301  0.3738 -1.2083 -0.4134
 8101TIP3    H224247   1.781   2.620   5.371  0.1159 -2.9822 -0.4386
 8102TIP3   OH224248   7.976   2.897   4.237 -0.0574  0.6908  0.1027
 8102TIP3    H124249   8.044   2.902   4.170 -0.2290  0.4850 -0.0908
 8102TIP3    H224250   8.008   2.952   4.309  0.7273 -0.0971  0.3765
 8103TIP3   OH224251   1.125   3.101   3.638 -0.0518  0.2453 -0.4046
 8103TIP3    H124252   1.124   3.030   3.702 -0.1144  0.4223 -0.2067
 8103TIP3    H224253   1.197   3.079   3.579 -1.4789 -1.1611 -1.7195
 8104TIP3   OH224254   0.139   3.310   5.025  0.3985  0.6321  0.4144
 8104TIP3    H124255   0.140   3.373   4.953  0.0075 -0.6764 -0.7757
 8104TIP3    H224256   0.223   3.322   5.068  0.4490  1.7605  0.0323
 8105TIP3   OH224257   3.162   4.239   2.198 -0.0183 -0.6366 -0.0715
 8105TIP3    H124258   3.248   4.263   2.232 -0.5139  2.1209 -0.5767
 8105TIP3    H224259   3.106   4.233   2.275 -0.4965  2.8355 -0.0022
 8106TIP3   OH224260   6.898   7.150   2.845 -0.0384 -0.1104 -0.3683
 8106TIP3    H124261   6.919   7.179   2.934 -0.8628 -0.7601  0.0445
 8106TIP3    H224262   6.963   7.082   2.826  1.1047  1.0733 -0.8616
 8107TIP3   OH224263   6.632   7.393   1.123 -0.1289  0.1858 -0.4989
 8107TIP3    H124264   6.717   7.350   1.128 -1.2197 -2.0537 -0.2644
 8107TIP3    H224265   6.569   7.322   1.125 -2.0071  1.7459 -1.5628
 8108TIP3   OH224266   2.637   1.607   2.648 -0.2952 -0.0431  0.3854
 8108TIP3    H124267   2.725   1.635   2.673  0.0508 -0.9253  0.1923
 8108TIP3    H224268   2.617   1.659   2.569 -1.0005  2.0208  1.8366
 8109TIP3   OH224269   0.686   6.478   2.967  0.0073  0.8256  0.2483
 8109TIP3    H124270   0.780   6.487   2.949 -0.1195 -0.4304 -1.3286
 8109TIP3    H224271   0.648   6.562   2.941  0.7834  1.7287  1.8776
 8110TIP3   OH224272   2.839   1.620   1.416  0.0185 -0.0577 -0.0669
 8110TIP3    H124273   2.805   1.622   1.506 -0.1115  0.1296 -0.1180
 8110TIP3    H224274   2.905   1.551   1.417 -0.3953 -0.4638  0.0272
 8111TIP3   OH224275   5.317   0.777   5.045 -0.0559  0.1965 -0.2198
 8111TIP3    H124276   5.384   0.747   5.107  1.4640 -1.7790 -2.6227
 8111TIP3    H224277   5.323   0.872   5.048  0.9055  0.1291  1.6346
 8112TIP3   OH224278   7.431   0.379   4.091  0.4664 -0.1497 -0.1120
 8112TIP3    H124279   7.482   0.421   4.160  0.5829  2.5036 -1.6654
 8112TIP3    H224280   7.496   0.344   4.031  0.4050  0.0762 -0.3102
 8113TIP3   OH224281   6.278   5.605   4.610 -0.2519  0.6385  0.6343
 8113TIP3    H124282   6.322   5.583   4.692 -1.2074 -0.7338  0.8005
 8113TIP3    H224283   6.267   5.522   4.565  0.8517  1.4239 -1.2404
 8114TIP3   OH224284   6.758   2.902   3.074  0.3122  0.1687 -0.6719
 8114TIP3    H124285   6.663   2.899   3.078  0.3232  0.0818 -0.4769
 8114TIP3    H224286   6.779   2.993   3.053  0.3142  1.2629  3.2468
 8115TIP3   OH224287   2.224   1.950   6.052  0.1531 -0.2661 -0.5168
 8115TIP3    H124288   2.319   1.942   6.063  0.0974 -2.0773 -1.0855
 8115TIP3    H224289   2.194   1.860   6.038 -1.7210  0.2245  0.1460
 8116TIP3   OH224290   5.024   6.994   6.758  0.0771  0.5698 -0.2590
 8116TIP3    H124291   4.945   6.969   6.806 -0.3315 -1.6343 -1.9594
 8116TIP3    H224292   5.015   7.089   6.746 -1.0356  0.7835  1.7276
 8117TIP3   OH224293   7.319   3.753   0.682 -0.7180  0.0390 -0.9087
 8117TIP3    H124294   7.302   3.843   0.711  0.1554 -0.0683 -0.0315
 8117TIP3    H224295   7.362   3.764   0.597  2.1633  0.6228  0.5056
 8118TIP3   OH224296   3.520   6.092   3.655 -0.4266 -0.6426  0.0972
 8118TIP3    H124297   3.603   6.056   3.624 -0.2972  0.1986 -0.5414
 8118TIP3    H224298   3.524   6.081   3.750  1.3743  1.3478  0.3162
 8119TIP3   OH224299   8.035   5.792   4.915 -0.2412 -0.6679  0.1602
 8119TIP3    H124300   7.966   5.728   4.924  0.9488 -2.0107  0.1087
 8119TIP3    H224301   8.027   5.824   4.825 -1.3091 -0.1590  0.4264
 8120TIP3   OH224302   1.962   2.070   4.524 -0.0600  0.3675  0.8431
 8120TIP3    H124303   2.052   2.044   4.504  0.5596  0.4508  3.2543
 8120TIP3    H224304   1.967   2.164   4.541 -1.4525  1.3555 -3.1228
 8121TIP3   OH224305   0.453   2.043   3.785 -0.1808  0.1188  0.5157
 8121TIP3    H124306   0.485   2.109   3.723 -1.9328 -0.0904 -0.6960
 8121TIP3    H224307   0.526   2.030   3.846 -0.0432  3.9054  1.4614
 8122TIP3   OH224308   2.945   3.119   6.182 -0.3305 -0.2942 -0.2532
 8122TIP3    H124309   3.039   3.106   6.192 -0.4262  0.0194  1.2374
 8122TIP3    H224310   2.906   3.077   6.258 -1.2567  1.2202  0.1565
 8123TIP3   OH224311   5.847   3.482   6.196 -0.5119 -0.7128  0.0058
 8123TIP3    H124312   5.936   3.481   6.160  0.0464 -0.8749  1.3475
 8123TIP3    H224313   5.850   3.548   6.265 -1.5946 -0.3350 -0.2958
 8124TIP3   OH224314   4.242   1.126   0.555  0.0745  0.1683 -0.2497
 8124TIP3    H124315   4.192   1.206   0.541 -1.4535 -0.5744  0.6301
 8124TIP3    H224316   4.226   1.073   0.476 -1.4691 -0.5009  0.4704
 8125TIP3   OH224317   3.459   4.971   0.312  0.8725  0.0389  0.0681
 8125TIP3    H124318   3.420   4.983   0.225 -2.1358 -2.6152  0.8480
 8125TIP3    H224319   3.515   4.894   0.303  0.8864  0.0088  0.4077
 8126TIP3   OH224320   7.964   0.424   3.823  0.6368 -0.1330  0.1413
 8126TIP3    H124321   7.936   0.502   3.871  0.3310  0.3272 -0.7406
 8126TIP3    H224322   8.038   0.389   3.872  0.3360  0.3215  0.9252
 8127TIP3   OH224323   3.008   0.051   1.678  0.3586  0.2271 -1.0066
 8127TIP3    H124324   3.029   0.114   1.609  2.1856 -0.5642 -1.2405
 8127TIP3    H224325   2.991  -0.030   1.632 -2.0511  0.5000 -0.7099
 8128TIP3   OH224326   1.757   2.585   5.540  0.7050 -0.5840 -0.0272
 8128TIP3    H124327   1.673   2.544   5.520  0.5501 -0.4805  0.3996
 8128TIP3    H224328   1.808   2.516   5.584  0.8617 -0.6606 -0.3264
 8129TIP3   OH224329   0.613   4.505   2.711 -0.0622  0.1649 -0.3582
 8129TIP3    H124330   0.577   4.434   2.659  1.2482 -0.6630 -0.1762
 8129TIP3    H224331   0.563   4.502   2.793 -0.5586 -0.0328 -0.6684
 8130TIP3   OH224332   4.655   0.658   0.276 -0.6830  0.2508 -0.1389
 8130TIP3    H124333   4.719   0.642   0.345 -1.0082 -0.0854  0.0870
 8130TIP3    H224334   4.676   0.746   0.244  0.7064 -0.3211 -0.9474
 8131TIP3   OH224335   1.178   6.196   6.141  0.6762  0.2909 -0.8143
 8131TIP3    H124336   1.136   6.254   6.078 -0.7275  0.4995  0.2491
 8131TIP3    H224337   1.180   6.246   6.222  1.5956 -0.3019 -0.4625
 8132TIP3   OH224338   3.418   4.639   0.061  1.0998  0.0076 -0.2608
 8132TIP3    H124339   3.327   4.667   0.054  0.4744 -1.6016  0.8869
 8132TIP3    H224340   3.445   4.668   0.148  0.9535 -1.4405  0.2934
 8133TIP3   OH224341   1.921   3.887   1.007  0.5627 -0.1118 -0.1485
 8133TIP3    H124342   1.965   3.845   1.080  0.1235 -0.5370 -0.1237
 8133TIP3    H224343   1.828   3.885   1.030  0.5311  0.9351 -0.1162
 8134TIP3   OH224344   5.274   6.317   0.379  0.2951 -0.8108  0.2264
 8134TIP3    H124345   5.192   6.269   0.386 -0.5167  0.3581 -0.8954
 8134TIP3    H224346   5.248   6.407   0.357  1.7084  0.4072  2.9947
 8135TIP3   OH224347   4.638   3.240   0.676  0.3548 -0.2038  0.7866
 8135TIP3    H124348   4.564   3.287   0.637  0.6066  1.0337  1.7606
 8135TIP3    H224349   4.602   3.203   0.757  0.8768  0.6963  1.4419
 8136TIP3   OH224350   4.224   2.546   6.272  0.3232 -0.1256 -0.1539
 8136TIP3    H124351   4.177   2.469   6.305 -0.3892  0.0313 -0.7793
 8136TIP3    H224352   4.269   2.581   6.349  0.0227 -0.7131  0.2999
 8137TIP3   OH224353   5.794   1.774   5.527 -0.2782 -0.1472 -0.0789
 8137TIP3    H124354   5.872   1.719   5.528  0.7966  1.2620 -1.5733
 8137TIP3    H224355   5.789   1.811   5.615  0.5151 -0.5598  0.1452
 8138TIP3   OH224356   1.815   3.941   3.414  0.4459 -0.2329 -0.3777
 8138TIP3    H124357   1.840   3.963   3.324  0.2384  1.0787 -0.1348
 8138TIP3    H224358   1.811   4.025   3.459  2.0849 -0.9609  1.2744
 8139TIP3   OH224359   1.803   1.438   2.414  0.5001  0.6086 -0.0199
 8139TIP3    H124360   1.892   1.425   2.448  0.3176 -0.3716  0.1123
 8139TIP3    H224361   1.746   1.419   2.488  0.0064 -3.4564 -1.2061
 8140TIP3   OH224362   7.679   7.117   4.025  0.2038  0.1447 -0.2269
 8140TIP3    H124363   7.629   7.060   3.967 -0.4444  1.2961 -0.8534
 8140TIP3    H224364   7.636   7.202   4.017  1.9703  1.0628 -0.3995
 8141TIP3   OH224365   3.821   1.117   0.965  0.5118 -0.0353  0.4413
 8141TIP3    H124366   3.813   1.148   1.055  2.0685  2.1743 -0.1007
 8141TIP3    H224367   3.757   1.170   0.916  0.4533 -0.4401  0.0716
 8142TIP3   OH224368   5.071   1.592   4.046  0.0735  0.0658 -0.3740
 8142TIP3    H124369   5.139   1.658   4.030 -0.1725 -0.0733 -2.1806
 8142TIP3    H224370   4.989   1.641   4.044 -0.0008 -0.0164  0.2463
 8143TIP3   OH224371   4.271   4.469   2.679  0.9026 -0.0741 -0.1049
 8143TIP3    H124372   4.305   4.555   2.656  0.4038  0.0556 -0.3837
 8143TIP3    H224373   4.347   4.411   2.675  1.2729  0.3814  0.2514
 8144TIP3   OH224374   6.198   6.578   3.590 -0.1919  0.2162  0.6523
 8144TIP3    H124375   6.222   6.609   3.678 -0.8072 -3.4058  2.2575
 8144TIP3    H224376   6.281   6.568   3.545  0.1787  1.5114  0.9880
 8145TIP3   OH224377   4.767   4.591   3.353 -0.1026  0.1538 -0.0780
 8145TIP3    H124378   4.755   4.620   3.263  0.8093  0.0746 -0.2300
 8145TIP3    H224379   4.858   4.560   3.357 -0.0857  0.2922  0.9048
 8146TIP3   OH224380   2.104   4.468   4.448  0.4652 -0.6977 -0.2660
 8146TIP3    H124381   2.127   4.386   4.492 -1.9733 -1.0810  0.4807
 8146TIP3    H224382   2.137   4.536   4.506  0.4924 -1.1743  0.2936
 8147TIP3   OH224383   2.375   7.225   2.437 -0.5968  0.0566 -0.7850
 8147TIP3    H124384   2.326   7.180   2.368 -0.2740 -0.1461 -0.8835
 8147TIP3    H224385   2.465   7.195   2.426 -0.1067  1.7327 -1.7156
 8148TIP3   OH224386   7.540   6.567   1.758  0.3521 -0.0484  0.5575
 8148TIP3    H124387   7.568   6.628   1.827 -0.7684 -1.5520  2.4657
 8148TIP3    H224388   7.447   6.554   1.775  0.3806 -1.6004 -0.3241
 8149TIP3   OH224389   1.042   3.745   2.322  0.2483  0.6968 -0.4910
 8149TIP3    H124390   1.053   3.654   2.295 -1.6052  0.2267  0.2085
 8149TIP3    H224391   1.067   3.796   2.244  1.1418 -0.3892 -0.9444
 8150TIP3   OH224392   1.965   4.113   6.003  0.2626 -0.0293 -0.4966
 8150TIP3    H124393   1.947   4.165   5.924  3.0869 -0.3053 -1.4365
 8150TIP3    H224394   2.009   4.034   5.971 -0.6994 -1.3141  1.2004
 8151TIP3   OH224395   4.397   0.934   1.734 -0.0207  0.3815  0.0527
 8151TIP3    H124396   4.384   1.004   1.799 -1.0440  0.4178 -0.1769
 8151TIP3    H224397   4.483   0.954   1.695  0.4105  0.6054  1.0799
 8152TIP3   OH224398   0.252   1.042   4.123  0.2222  0.6702 -0.6458
 8152TIP3    H124399   0.302   0.992   4.187 -1.6214 -0.4002  0.0453
 8152TIP3    H224400   0.266   0.998   4.040  1.7590  1.4199 -0.8157
 8153TIP3   OH224401   0.786   6.317   6.750  0.2664  0.1331  0.3736
 8153TIP3    H124402   0.724   6.391   6.744  1.7113  1.2773 -1.6205
 8153TIP3    H224403   0.771   6.267   6.670  3.3307  1.7081 -1.3567
 8154TIP3   OH224404   6.031   4.464   6.061  0.1444  0.3550  0.7797
 8154TIP3    H124405   6.122   4.446   6.039 -0.2455  0.1747 -0.7748
 8154TIP3    H224406   5.983   4.387   6.029 -0.8324  1.5033 -0.6228
 8155TIP3   OH224407   4.171   4.772   4.759  0.7708 -0.5869 -0.5994
 8155TIP3    H124408   4.191   4.772   4.853 -0.6267  0.1100 -0.2803
 8155TIP3    H224409   4.227   4.840   4.723  0.1941  0.2368  0.0130
 8156TIP3   OH224410   1.193   6.819   3.379  0.1264  0.0521  0.4358
 8156TIP3    H124411   1.208   6.852   3.468  0.1582 -0.8571  0.7746
 8156TIP3    H224412   1.108   6.854   3.354  1.0756  2.2053 -0.0749
 8157TIP3   OH224413   4.380   2.056   1.852  0.1605  0.4714  0.3395
 8157TIP3    H124414   4.342   2.097   1.775  0.5992 -1.2505 -0.8694
 8157TIP3    H224415   4.474   2.071   1.843  0.1987  0.4122  0.6266
 8158TIP3   OH224416   7.561   2.863   0.698  0.2919  0.1234  0.0185
 8158TIP3    H124417   7.566   2.778   0.654  1.5848  0.1413  0.1039
 8158TIP3    H224418   7.594   2.926   0.633 -1.3205  0.6834 -0.3016
 8159TIP3   OH224419   2.343   4.044   3.340  0.4284  0.0175  0.3389
 8159TIP3    H124420   2.324   4.138   3.338  1.7466  0.3441  1.5245
 8159TIP3    H224421   2.309   4.015   3.425  0.1476 -0.5648  0.0328
 8160TIP3   OH224422   4.332   6.644   0.668 -0.4501 -0.0463 -0.3648
 8160TIP3    H124423   4.315   6.738   0.657  0.9293  0.4282  1.0466
 8160TIP3    H224424   4.252   6.601   0.638 -1.3288  1.6080 -0.5217
 8161TIP3   OH224425   8.207   5.736   0.971  0.2566 -0.1054  0.8024
 8161TIP3    H124426   8.260   5.786   1.033 -0.1653  1.4983 -0.0889
 8161TIP3    H224427   8.122   5.780   0.970  0.1857 -0.2113 -0.7328
 8162TIP3   OH224428   2.007   7.700   0.771 -0.2215  0.2793  0.1497
 8162TIP3    H124429   2.048   7.657   0.846 -1.3835  0.4360  0.9059
 8162TIP3    H224430   1.925   7.652   0.758  0.4911 -0.4869 -1.7695
 8163TIP3   OH224431   6.814   6.443   1.389  0.5400  0.2518  0.0282
 8163TIP3    H124432   6.837   6.423   1.480  2.2570  0.4576 -0.3385
 8163TIP3    H224433   6.718   6.440   1.388  0.5017 -3.2544  1.0354
 8164TIP3   OH224434   7.048   5.519   4.458  0.1813  0.0276  0.4287
 8164TIP3    H124435   7.116   5.456   4.483  0.3495  0.2035  0.4196
 8164TIP3    H224436   7.068   5.597   4.510 -0.1643 -0.0063  0.6133
 8165TIP3   OH224437   2.297   5.242   6.516 -0.1859 -0.4367  0.1553
 8165TIP3    H124438   2.302   5.226   6.422  0.9596 -1.2702  0.3412
 8165TIP3    H224439   2.248   5.324   6.523 -0.7153 -0.6171 -1.1351
 8166TIP3   OH224440   5.949   4.262   4.402  0.4987 -0.7385  0.2939
 8166TIP3    H124441   5.948   4.224   4.314  2.0922 -0.2858  0.0396
 8166TIP3    H224442   5.857   4.263   4.429 -0.2940  0.8457 -2.1004
 8167TIP3   OH224443   3.211   7.109   5.689 -0.2989 -0.3064 -0.3884
 8167TIP3    H124444   3.207   7.175   5.620 -0.7215 -1.4903 -1.5346
 8167TIP3    H224445   3.276   7.143   5.751  0.2733  0.6663 -1.4813
 8168TIP3   OH224446   6.099   7.444   2.891 -0.3511 -0.3859 -0.8409
 8168TIP3    H124447   6.193   7.437   2.909 -0.4714  2.0702  1.4492
 8168TIP3    H224448   6.058   7.393   2.961 -0.6849  1.4220  0.3686
 8169TIP3   OH224449   0.372   3.301   3.686  0.5232 -0.0495  0.4619
 8169TIP3    H124450   0.461   3.306   3.653  1.1170  0.2902  2.0302
 8169TIP3    H224451   0.342   3.213   3.662  1.0907  0.0030 -0.4825
 8170TIP3   OH224452   0.251   2.614   2.233 -0.2564  0.3813  0.0916
 8170TIP3    H124453   0.162   2.580   2.223 -0.5105  0.7681  0.9329
 8170TIP3    H224454   0.294   2.593   2.150 -1.0029 -0.1850 -0.1687
 8171TIP3   OH224455   6.155   2.509   0.351  0.1405  0.3670 -0.4418
 8171TIP3    H124456   6.119   2.517   0.439 -0.2289 -3.9173  0.0037
 8171TIP3    H224457   6.089   2.548   0.294 -1.6097 -0.5234  0.9102
 8172TIP3   OH224458   3.909   2.747   0.331 -0.1383  0.4369  0.0400
 8172TIP3    H124459   3.981   2.786   0.281  0.3894  0.5733  0.8976
 8172TIP3    H224460   3.899   2.660   0.294 -0.0521  0.6921 -0.6030
 8173TIP3   OH224461   1.874   4.826   3.960  0.1725 -0.4803 -0.5071
 8173TIP3    H124462   1.869   4.915   3.925  0.3269  0.1038  0.9073
 8173TIP3    H224463   1.968   4.807   3.963  0.1050 -1.3449 -2.3084
 8174TIP3   OH224464   2.624   0.367   4.300 -0.0749  0.4153  0.5490
 8174TIP3    H124465   2.616   0.271   4.296 -0.7239  0.4953 -2.1417
 8174TIP3    H224466   2.709   0.381   4.343 -0.1756 -1.3356  1.4331
 8175TIP3   OH224467   8.200   3.492   5.589  0.0539  0.1573  0.0752
 8175TIP3    H124468   8.224   3.430   5.520 -0.1178  1.7958 -1.5269
 8175TIP3    H224469   8.182   3.437   5.665 -1.5819 -1.8908 -1.6644
 8176TIP3   OH224470   4.674   1.636   6.206  0.2786 -0.3642  0.1359
 8176TIP3    H124471   4.615   1.709   6.219  1.8559  1.0948 -0.4967
 8176TIP3    H224472   4.617   1.563   6.181 -1.2143  1.0752 -0.8488
 8177TIP3   OH224473   2.482   5.745   3.509  0.5268 -0.0578 -0.5218
 8177TIP3    H124474   2.459   5.808   3.577  1.1111 -1.3330  0.9170
 8177TIP3    H224475   2.502   5.798   3.432  1.6385  1.5673  0.8211
 8178TIP3   OH224476   0.494   2.277   2.425  0.5361 -0.8723 -0.3778
 8178TIP3    H124477   0.444   2.202   2.457  2.2278 -1.9352 -0.0918
 8178TIP3    H224478   0.436   2.352   2.440 -0.3355 -1.8266  1.4303
 8179TIP3   OH224479   7.926   4.106   3.689 -0.1778  0.3724  0.0993
 8179TIP3    H124480   7.986   4.104   3.763  0.5504 -0.3552 -0.4856
 8179TIP3    H224481   7.948   4.187   3.642  0.7477 -0.1543 -0.4101
 8180TIP3   OH224482   7.618   0.748   5.294  0.1509 -0.4902  0.4028
 8180TIP3    H124483   7.698   0.800   5.304  0.2451 -0.5075 -0.2014
 8180TIP3    H224484   7.585   0.737   5.383 -0.0074  0.8184  0.5267
 8181TIP3   OH224485   5.016   4.840   3.211 -0.0157  0.5086 -0.3256
 8181TIP3    H124486   5.029   4.772   3.145 -2.4758 -0.0397 -0.3623
 8181TIP3    H224487   5.075   4.818   3.282 -0.9265 -1.8612 -0.2274
 8182TIP3   OH224488   4.206   1.763   0.099  0.0247  0.4703  0.1612
 8182TIP3    H124489   4.142   1.776   0.028  0.9381  2.7588 -0.3200
 8182TIP3    H224490   4.250   1.681   0.076 -0.7519  0.3661 -1.0825
 8183TIP3   OH224491   1.936   6.673   3.603  0.1485 -0.1486 -0.2360
 8183TIP3    H124492   1.921   6.582   3.630 -1.3062 -0.4465 -1.8659
 8183TIP3    H224493   1.943   6.721   3.685  2.7371 -1.9519  0.7074
 8184TIP3   OH224494   3.262   5.558   4.923  0.2484  0.3694  0.1778
 8184TIP3    H124495   3.293   5.508   4.847  2.6940  0.1950  1.2121
 8184TIP3    H224496   3.289   5.506   4.999 -1.1290  1.1083  1.2192
 8185TIP3   OH224497   5.106   2.425   5.231 -0.1358 -0.1856  0.1285
 8185TIP3    H124498   5.035   2.401   5.171  1.2057 -1.2132 -1.1360
 8185TIP3    H224499   5.183   2.434   5.174  1.0563 -0.5935  1.6282
 8186TIP3   OH224500   1.202   5.376   0.248  0.0592  0.2347  0.0338
 8186TIP3    H124501   1.198   5.320   0.170 -0.2935  0.3309 -0.0234
 8186TIP3    H224502   1.186   5.317   0.321 -0.5465  0.2931 -0.0450
 8187TIP3   OH224503   0.368   7.476   6.636  0.1235  0.3137  0.1754
 8187TIP3    H124504   0.346   7.441   6.549  0.2246  0.5645  0.0483
 8187TIP3    H224505   0.307   7.549   6.647 -0.9487 -0.6567  0.9671
 8188TIP3   OH224506   1.991   5.079   4.477  0.0146 -0.4110 -0.2875
 8188TIP3    H124507   2.076   5.117   4.455 -0.1012 -0.1861 -0.3587
 8188TIP3    H224508   1.984   5.001   4.422  0.0015 -0.2046 -0.5826
 8189TIP3   OH224509   0.871   5.283   1.381 -0.0489  0.2749  0.5121
 8189TIP3    H124510   0.890   5.197   1.345  1.2482  0.4430  0.7613
 8189TIP3    H224511   0.953   5.332   1.373 -1.1423  2.0110 -1.0464
 8190TIP3   OH224512   5.370   0.785   0.171 -0.4296 -0.1512 -0.0412
 8190TIP3    H124513   5.322   0.818   0.096 -1.8295 -1.8660  0.0509
 8190TIP3    H224514   5.372   0.858   0.233  0.3742  1.1327 -1.5365
 8191TIP3   OH224515   8.187   4.511   0.534 -0.0482  0.2869  0.3624
 8191TIP3    H124516   8.114   4.552   0.488 -0.5059 -0.7560  0.1335
 8191TIP3    H224517   8.247   4.583   0.552  0.0381  0.7782 -1.6705
 8192TIP3   OH224518   5.277   0.398   6.574  0.1956  0.1619 -0.2561
 8192TIP3    H124519   5.258   0.306   6.560 -0.3606  0.3256 -0.6340
 8192TIP3    H224520   5.365   0.400   6.612  0.5143 -0.4741 -0.9549
 8193TIP3   OH224521   6.933   1.194   1.362  0.5972  0.0061 -0.3132
 8193TIP3    H124522   6.973   1.215   1.446 -0.1497 -2.3096  0.7171
 8193TIP3    H224523   6.853   1.245   1.361  0.9415  0.5663  0.0855
 8194TIP3   OH224524   8.084   5.012   6.095 -0.3056 -0.4449  0.6428
 8194TIP3    H124525   8.106   5.063   6.017 -2.2604  0.2526  0.5111
 8194TIP3    H224526   8.037   4.936   6.062 -3.2069  0.9968  1.2011
 8195TIP3   OH224527   2.386   3.339   2.780 -0.2495  0.0806  0.0030
 8195TIP3    H124528   2.386   3.429   2.814 -0.9939 -0.0052  0.2479
 8195TIP3    H224529   2.472   3.329   2.739 -0.3131  1.0413 -0.3876
 8196TIP3   OH224530   2.085   0.378   5.979  0.3641 -0.1704 -0.0080
 8196TIP3    H124531   2.089   0.315   5.907  0.1292 -1.6725  1.2149
 8196TIP3    H224532   2.175   0.385   6.010  0.0218 -2.2603  1.7035
 8197TIP3   OH224533   2.400   1.901   5.325  0.5827 -0.7372  0.3222
 8197TIP3    H124534   2.429   1.814   5.351  0.3981 -0.6795  0.7200
 8197TIP3    H224535   2.346   1.931   5.397  0.5772 -0.3244  0.1479
 8198TIP3   OH224536   1.047   6.249   4.187 -0.1078  0.2591  0.4864
 8198TIP3    H124537   1.127   6.298   4.168 -0.0181  0.3994  1.1877
 8198TIP3    H224538   1.014   6.289   4.267 -1.0280  0.3838  0.0561
 8199TIP3   OH224539   0.657   4.027   0.904 -0.0623  0.3694 -0.2040
 8199TIP3    H124540   0.673   4.083   0.828 -2.2415  0.0907 -0.9533
 8199TIP3    H224541   0.584   3.971   0.877 -0.1382 -0.5357  1.7090
 8200TIP3   OH224542   5.434   1.369   4.181 -0.5423 -0.1737 -0.4685
 8200TIP3    H124543   5.371   1.438   4.201  0.0406  0.1528  0.3316
 8200TIP3    H224544   5.449   1.325   4.265 -1.1281 -1.4850 -1.0245
 8201TIP3   OH224545   1.851   6.819   3.373 -0.2674  0.5848 -0.3442
 8201TIP3    H124546   1.813   6.900   3.406  0.4546  0.8768 -0.2216
 8201TIP3    H224547   1.873   6.769   3.452 -2.6235 -0.6674 -0.3950
 8202TIP3   OH224548   1.653   3.128   0.552  0.1848 -0.5303 -0.2120
 8202TIP3    H124549   1.565   3.133   0.591  0.3400  0.0027  0.0736
 8202TIP3    H224550   1.713   3.134   0.626  0.4686 -0.5156 -0.4412
 8203TIP3   OH224551   7.166   3.665   2.887  0.1496 -0.0114  0.0626
 8203TIP3    H124552   7.139   3.681   2.797  0.7021  1.7971  0.1886
 8203TIP3    H224553   7.089   3.626   2.929 -0.1416 -0.7743 -1.1456
 8204TIP3   OH224554   2.836   5.529   3.997 -0.2298 -0.5852 -0.5072
 8204TIP3    H124555   2.801   5.609   3.958 -1.3832 -1.0120 -0.4204
 8204TIP3    H224556   2.758   5.475   4.012  0.3222 -0.9904  1.1010
 8205TIP3   OH224557   0.499   3.150   4.688  0.3781  0.6625 -0.2804
 8205TIP3    H124558   0.418   3.103   4.667  0.3827  0.8071 -0.6252
 8205TIP3    H224559   0.563   3.081   4.704  0.2956  0.5463 -0.4432
 8206TIP3   OH224560   4.869   3.745   3.957  0.2293  0.6652  0.3445
 8206TIP3    H124561   4.909   3.669   3.999 -0.4821  0.3799  0.5182
 8206TIP3    H224562   4.856   3.719   3.866  0.5960  0.8200  0.2476
 8207TIP3   OH224563   2.175   1.555   4.292 -0.5551  0.1654 -0.2882
 8207TIP3    H124564   2.219   1.472   4.307 -1.4587 -0.7367 -2.2932
 8207TIP3    H224565   2.246   1.619   4.284  0.2036 -0.6113  0.1040
 8208TIP3   OH224566   1.471   3.609   0.565 -0.1120 -0.4183  0.0885
 8208TIP3    H124567   1.565   3.594   0.556 -0.3369 -1.0877 -1.4571
 8208TIP3    H224568   1.464   3.682   0.627  1.3733 -0.9484  0.9196
 8209TIP3   OH224569   0.705   5.053   6.425  0.1525 -0.1682  0.1709
 8209TIP3    H124570   0.796   5.042   6.399  0.7200 -1.7742  2.5375
 8209TIP3    H224571   0.658   5.068   6.343  1.6837 -4.9602 -1.9401
 8210TIP3   OH224572   5.055   4.878   5.394  0.6820  0.5395 -0.3369
 8210TIP3    H124573   4.998   4.935   5.446 -1.2072 -0.4372 -1.2167
 8210TIP3    H224574   5.086   4.933   5.322 -1.6219  0.4040 -1.5265
 8211TIP3   OH224575   4.016   6.115   4.607  0.0916  0.3487 -0.1537
 8211TIP3    H124576   3.990   6.184   4.669 -0.8273 -1.5824  1.7498
 8211TIP3    H224577   4.099   6.146   4.571  0.9828  1.3884  2.4863
 8212TIP3   OH224578   4.187   6.472   0.468 -0.2810  0.1091 -0.0417
 8212TIP3    H124579   4.151   6.560   0.455 -1.5281 -0.2719  0.6414
 8212TIP3    H224580   4.116   6.413   0.442 -0.4294 -0.6753  1.9290
 8213TIP3   OH224581   2.907   4.454   5.187 -0.2873  0.2567 -0.8254
 8213TIP3    H124582   2.997   4.425   5.205  0.2772  2.4116  0.1505
 8213TIP3    H224583   2.855   4.374   5.191  1.2496 -0.7469  0.9736
 8214TIP3   OH224584   0.451   6.042   0.028 -0.2967 -0.5215  0.1719
 8214TIP3    H124585   0.521   6.088   0.074  2.2314 -2.2570 -1.6842
 8214TIP3    H224586   0.454   5.953   0.061 -1.6236 -0.6586 -0.0073
 8215TIP3   OH224587   1.786   6.082   3.009 -0.4964 -0.4185  0.0253
 8215TIP3    H124588   1.698   6.118   3.004 -0.0547  0.6601 -0.1763
 8215TIP3    H224589   1.828   6.109   2.928 -0.3210 -1.9003 -0.4091
 8216TIP3   OH224590   3.103   0.665   2.882 -0.8772 -0.1391  0.4866
 8216TIP3    H124591   3.034   0.612   2.922 -2.2083  0.7256 -0.5454
 8216TIP3    H224592   3.060   0.708   2.808  0.8017  0.3949 -0.2376
 8217TIP3   OH224593   4.917   0.113   5.230 -0.3525  0.4745  0.1456
 8217TIP3    H124594   4.837   0.122   5.178  0.0934  4.8671 -0.2086
 8217TIP3    H224595   4.887   0.107   5.320 -1.0824  0.0245 -0.1212
 8218TIP3   OH224596   3.431   4.406   5.217  0.2174  0.1290 -0.4650
 8218TIP3    H124597   3.465   4.493   5.236 -0.7414  0.9043 -2.0350
 8218TIP3    H224598   3.377   4.418   5.138 -1.2043 -1.5866  0.1662
 8219TIP3   OH224599   3.698   2.779   4.395 -0.1218  0.2073  0.1678
 8219TIP3    H124600   3.775   2.726   4.414 -0.4713 -0.7146 -0.9020
 8219TIP3    H224601   3.711   2.811   4.306  0.2023  2.1717  0.8678
 8220TIP3   OH224602   6.966   1.872   6.027  0.2742 -0.5829 -0.1931
 8220TIP3    H124603   6.968   1.960   5.990 -0.8099 -1.0090 -1.3502
 8220TIP3    H224604   6.907   1.878   6.102 -0.6243 -0.5358 -0.8968
 8221TIP3   OH224605   4.786  -0.011   4.211 -0.2191  0.2337  0.6093
 8221TIP3    H124606   4.694  -0.010   4.186 -0.2423 -1.0852  0.5599
 8221TIP3    H224607   4.797   0.065   4.268 -1.6083 -0.2388  1.5456
 8222TIP3   OH224608   8.065   1.163   3.516 -0.0492  0.3991  0.2228
 8222TIP3    H124609   8.060   1.194   3.606  0.7759 -0.0767  0.4496
 8222TIP3    H224610   8.129   1.221   3.474 -0.7483  0.8897 -0.1811
 8223TIP3   OH224611   6.748   4.184   3.850 -0.1390  0.3749  0.4961
 8223TIP3    H124612   6.808   4.135   3.794  1.7850  2.4406  0.6157
 8223TIP3    H224613   6.718   4.121   3.915 -0.6144 -1.4916 -1.4311
 8224TIP3   OH224614   7.495   7.213   0.519  0.5959 -0.1592 -0.0922
 8224TIP3    H124615   7.439   7.272   0.467  1.7889  1.4593  0.4017
 8224TIP3    H224616   7.582   7.253   0.516  0.9597 -0.6483  2.1705
 8225TIP3   OH224617   2.609   1.426   4.070  0.2686 -0.0259 -0.2980
 8225TIP3    H124618   2.603   1.521   4.085 -0.2377 -0.1729  0.4857
 8225TIP3    H224619   2.545   1.388   4.130  0.0294 -0.8332 -1.0372
 8226TIP3   OH224620   5.786   6.199   4.724  0.7691 -0.2611 -0.0700
 8226TIP3    H124621   5.732   6.277   4.739 -2.0825 -1.6336 -2.3461
 8226TIP3    H224622   5.795   6.195   4.629  1.0638 -2.5751  0.0191
 8227TIP3   OH224623   6.321   5.970   3.981  0.2611 -0.3590  0.1211
 8227TIP3    H124624   6.276   5.981   3.898  0.0939 -1.3252  0.0762
 8227TIP3    H224625   6.322   6.058   4.020  0.7686  0.1989 -1.0973
 8228TIP3   OH224626   0.225   4.255   2.242 -0.0736 -0.3563 -0.5436
 8228TIP3    H124627   0.149   4.232   2.189 -0.0376 -1.1711 -0.2543
 8228TIP3    H224628   0.257   4.171   2.276 -1.4464  0.2499  2.6159
 8229TIP3   OH224629   4.813   3.074   5.993 -0.1743 -0.2260  0.0998
 8229TIP3    H124630   4.760   3.003   5.956 -0.3309  0.1225 -0.3543
 8229TIP3    H224631   4.883   3.029   6.040  0.0959 -0.6817 -0.7176
 8230TIP3   OH224632   4.930   7.665   6.109  0.4796  0.3267 -0.0538
 8230TIP3    H124633   4.858   7.603   6.120  1.7591 -0.8491  2.5931
 8230TIP3    H224634   4.888   7.751   6.109 -0.9122 -0.1461  3.9157
 8231TIP3   OH224635   7.328   7.563   2.890 -0.1029  0.3545  0.2011
 8231TIP3    H124636   7.375   7.481   2.878  0.1977  0.3313  1.4722
 8231TIP3    H224637   7.277   7.573   2.809 -0.9634 -1.6021  0.4422
 8232TIP3   OH224638   8.009   4.930   5.469 -0.2235  0.1641  0.1692
 8232TIP3    H124639   7.974   4.950   5.555 -1.0363 -1.2350  0.1945
 8232TIP3    H224640   8.023   5.015   5.427 -1.1711  0.8080  1.1395
 8233TIP3   OH224641   5.709   2.508   2.551 -0.4530  0.0411  0.6128
 8233TIP3    H124642   5.715   2.431   2.494 -0.7399  0.7361 -0.3733
 8233TIP3    H224643   5.701   2.471   2.639  2.7471 -1.0791  0.5741
 8234TIP3   OH224644   3.318   5.428   4.051 -0.2993 -0.1813  0.5377
 8234TIP3    H124645   3.338   5.349   4.103  1.3283 -0.5467 -0.5980
 8234TIP3    H224646   3.374   5.496   4.087  0.2549 -0.2360 -0.1951
 8235TIP3   OH224647   3.652   5.226   6.149 -0.4789 -0.1216  0.0963
 8235TIP3    H124648   3.628   5.159   6.086 -1.0365 -0.1575  0.3448
 8235TIP3    H224649   3.648   5.308   6.100  3.7872 -0.4955 -1.2829
 8236TIP3   OH224650   0.799   2.615   4.874 -0.0857 -0.3386  0.0045
 8236TIP3    H124651   0.784   2.694   4.926  2.0001 -0.5928  1.0733
 8236TIP3    H224652   0.838   2.646   4.793 -0.7074 -0.1742 -0.2402
 8237TIP3   OH224653   6.754   5.020   2.583  0.3716 -0.2140 -0.0496
 8237TIP3    H124654   6.691   4.950   2.601  0.5148 -0.2066  0.4900
 8237TIP3    H224655   6.791   4.997   2.498 -1.8836  0.8896 -1.4436
 8238TIP3   OH224656   8.003   1.970   1.716 -0.5350 -0.1346 -0.0690
 8238TIP3    H124657   7.942   2.015   1.775 -0.6259  0.4207 -0.5712
 8238TIP3    H224658   8.021   2.034   1.647 -0.3488 -0.7362 -0.5878
 8239TIP3   OH224659   4.800   0.448   4.660  0.4827 -0.0547  0.0232
 8239TIP3    H124660   4.861   0.512   4.696 -1.2712  0.8428  1.5787
 8239TIP3    H224661   4.793   0.381   4.729 -1.1239  0.4480  0.3815
 8240TIP3   OH224662   2.004   1.278   1.637  0.0463 -0.1979 -0.2571
 8240TIP3    H124663   2.053   1.302   1.716 -0.7663  1.0338 -0.0926
 8240TIP3    H224664   2.051   1.203   1.602  1.4245  0.2740  0.4717
 8241TIP3   OH224665   7.069   0.118   5.808 -0.2957  0.4149  0.0166
 8241TIP3    H124666   7.124   0.047   5.841  0.2819  0.3000 -1.1620
 8241TIP3    H224667   7.127   0.170   5.753 -1.0356  1.0652 -0.1639
 8242TIP3   OH224668   4.641   0.014   5.333 -0.2756 -0.3653 -0.1462
 8242TIP3    H124669   4.555  -0.013   5.300 -0.4738 -1.1126  0.9431
 8242TIP3    H224670   4.621   0.071   5.407  0.1770 -0.4088  0.0104
 8243TIP3   OH224671   1.771   0.986   6.688 -0.0264 -0.3283 -0.1531
 8243TIP3    H124672   1.852   1.009   6.734 -1.3796 -0.1618  2.2924
 8243TIP3    H224673   1.800   0.933   6.614  2.3439  0.0985  0.3906
 8244TIP3   OH224674   3.439   6.438   4.224  0.4697  0.8383  0.4435
 8244TIP3    H124675   3.412   6.354   4.259 -1.8371  1.0686 -0.5696
 8244TIP3    H224676   3.529   6.425   4.195 -0.2577 -1.7381 -0.9753
 8245TIP3   OH224677   7.428   6.896   3.940  0.0849 -0.1697  0.2503
 8245TIP3    H124678   7.490   6.833   3.975 -0.9583 -0.9190  0.7984
 8245TIP3    H224679   7.350   6.844   3.919 -0.0704  0.5990 -1.2256
 8246TIP3   OH224680   4.783   4.755   4.000  0.2667 -0.0641 -0.4919
 8246TIP3    H124681   4.707   4.707   4.033  0.0944  1.1300  0.9679
 8246TIP3    H224682   4.858   4.704   4.030  0.0870 -1.6046 -2.5041
 8247TIP3   OH224683   7.876   2.759   0.872 -0.1782  0.2860  0.0135
 8247TIP3    H124684   7.809   2.742   0.805 -1.5501 -0.1570  1.4261
 8247TIP3    H224685   7.949   2.702   0.848 -0.2022  0.9427 -1.7003
 8248TIP3   OH224686   3.446   7.479   5.329  0.0248 -0.5143 -0.5081
 8248TIP3    H124687   3.417   7.537   5.258 -0.9326  0.4029  0.5860
 8248TIP3    H224688   3.416   7.392   5.302 -2.4990  0.1632 -0.1774
 8249TIP3   OH224689   5.481   1.875   4.301 -0.4643 -0.3905  0.3570
 8249TIP3    H124690   5.489   1.844   4.391  0.4936 -0.5827  0.2159
 8249TIP3    H224691   5.475   1.970   4.309  0.6958 -0.3211  0.5786
 8250TIP3   OH224692   7.747   3.527   5.955 -0.8264 -0.5364  0.6829
 8250TIP3    H124693   7.777   3.469   5.885  1.5472  0.4893  0.7443
 8250TIP3    H224694   7.670   3.570   5.920 -1.3127 -2.0582 -0.2174
 8251TIP3   OH224695   2.394   3.926   4.792 -0.6881  0.2121 -0.0318
 8251TIP3    H124696   2.310   3.885   4.816 -0.4504 -0.3071 -0.0872
 8251TIP3    H224697   2.439   3.860   4.740 -0.5804  0.7966 -0.6945
 8252TIP3   OH224698   3.276   2.995   4.430  0.0024 -0.2706  0.2782
 8252TIP3    H124699   3.357   2.966   4.473 -0.6298  0.7899  2.3083
 8252TIP3    H224700   3.246   2.917   4.383  1.6093 -1.0205  0.4128
 8253TIP3   OH224701   2.472   5.175   5.719  0.2753 -0.2074  0.0996
 8253TIP3    H124702   2.473   5.111   5.647 -0.0610 -0.2552  0.1377
 8253TIP3    H224703   2.468   5.260   5.675 -1.0868 -0.2692  0.0710
 8254TIP3   OH224704   1.625   1.085   2.139  0.3182 -0.6356 -0.1309
 8254TIP3    H124705   1.661   1.000   2.116  0.5080 -0.4497 -0.5189
 8254TIP3    H224706   1.607   1.128   2.056 -1.2154 -0.8916  0.0253
 8255TIP3   OH224707   3.404   2.521   3.344 -0.4565 -0.6545 -0.2667
 8255TIP3    H124708   3.484   2.477   3.373  0.8908  0.8725 -1.4343
 8255TIP3    H224709   3.361   2.549   3.424 -1.4171 -4.0126  0.5398
 8256TIP3   OH224710   0.330   6.770   1.307  0.1489 -0.0481 -0.0960
 8256TIP3    H124711   0.301   6.761   1.216  0.3922  0.9792 -0.2829
 8256TIP3    H224712   0.250   6.758   1.358 -0.1960  0.4927 -0.5015
 8257TIP3   OH224713   5.364   5.863   1.341 -0.0821 -0.2648 -0.0012
 8257TIP3    H124714   5.426   5.933   1.361 -0.8826  0.8153 -1.1684
 8257TIP3    H224715   5.388   5.792   1.401  0.9833  0.8547  0.9455
 8258TIP3   OH224716   4.048   0.255   3.831  0.1880  0.0904  0.3478
 8258TIP3    H124717   4.013   0.341   3.811 -0.0510  0.2367  1.3367
 8258TIP3    H224718   3.974   0.206   3.867 -0.6224 -1.7108 -3.3216
 8259TIP3   OH224719   7.255   2.562   3.819  0.7393 -0.4205 -0.2762
 8259TIP3    H124720   7.235   2.478   3.777  0.6914 -0.2039 -0.6824
 8259TIP3    H224721   7.346   2.579   3.795  0.3455  0.3006 -1.3109
 8260TIP3   OH224722   7.515   1.101   5.833 -0.5953 -0.0089 -0.4565
 8260TIP3    H124723   7.461   1.174   5.801 -0.0813  0.7615  0.3983
 8260TIP3    H224724   7.542   1.128   5.920 -0.9376 -1.5276  0.1479
 8261TIP3   OH224725   4.036   7.027   1.964 -0.1245  0.0456 -0.5349
 8261TIP3    H124726   4.092   7.098   1.931  1.3157 -0.2878  1.0752
 8261TIP3    H224727   4.034   7.040   2.059 -0.6485 -1.4855 -0.3177
 8262TIP3   OH224728   5.507   4.759   0.412 -0.0683 -0.2192  0.1877
 8262TIP3    H124729   5.593   4.758   0.454 -0.2904 -0.5604  0.6421
 8262TIP3    H224730   5.521   4.804   0.329  0.7198 -1.0125 -0.1127
 8263TIP3   OH224731   6.741   1.212   4.985 -0.3963  0.2088 -0.4754
 8263TIP3    H124732   6.691   1.135   5.011 -0.6421  0.7046  0.5943
 8263TIP3    H224733   6.685   1.256   4.920  0.1024 -0.9066 -1.7032
 8264TIP3   OH224734   0.199   3.143   4.628 -0.1986  0.1786 -0.5064
 8264TIP3    H124735   0.120   3.194   4.648  0.2325  0.1307  1.5228
 8264TIP3    H224736   0.216   3.161   4.536 -2.0021  0.9882 -0.7320
 8265TIP3   OH224737   5.299   4.514   4.652 -0.3159  0.1432 -0.2728
 8265TIP3    H124738   5.263   4.430   4.624 -0.1143  0.6598 -2.2420
 8265TIP3    H224739   5.300   4.567   4.572 -0.2271  1.9490  0.8691
 8266TIP3   OH224740   0.520   2.873   1.838  0.0713  0.4289 -0.3797
 8266TIP3    H124741   0.615   2.871   1.830  0.1238 -0.1089  0.2600
 8266TIP3    H224742   0.488   2.826   1.761  0.2870  1.3204 -1.0217
 8267TIP3   OH224743   5.376   0.611   0.444  0.0606 -0.0218 -0.2646
 8267TIP3    H124744   5.460   0.651   0.467  0.4518 -0.2128 -1.2749
 8267TIP3    H224745   5.340   0.669   0.376 -0.8735  0.3335  0.5054
 8268TIP3   OH224746   4.327   6.281   2.595  0.2217 -0.0154  0.2573
 8268TIP3    H124747   4.279   6.305   2.673 -4.0280 -2.1866 -1.3777
 8268TIP3    H224748   4.342   6.187   2.603  1.9264  0.1456 -0.5127
 8269TIP3   OH224749   7.556   1.146   3.907 -0.4637  0.1722  0.0085
 8269TIP3    H124750   7.632   1.191   3.871 -0.5623  1.2609  1.0860
 8269TIP3    H224751   7.484   1.209   3.896 -1.0463 -0.5126 -0.2322
 8270TIP3   OH224752   4.414   6.299   3.546  0.1418  0.3548 -0.3705
 8270TIP3    H124753   4.391   6.384   3.507 -1.6976  1.1032  2.0611
 8270TIP3    H224754   4.336   6.245   3.531 -0.4614  0.5511  1.7629
 8271TIP3   OH224755   6.500   2.191   0.040 -0.1120 -0.5467 -0.5372
 8271TIP3    H124756   6.431   2.257   0.049 -0.5979 -1.1610  0.3755
 8271TIP3    H224757   6.555   2.224  -0.030 -0.6968  0.5267 -0.5165
 8272TIP3   OH224758   1.932   6.074   1.441 -0.0357 -0.2501  0.6575
 8272TIP3    H124759   1.866   6.035   1.382 -0.1155  0.3707  0.3274
 8272TIP3    H224760   1.995   6.003   1.455 -0.2692 -0.5607  0.2053
 8273TIP3   OH224761   0.047   1.126   5.018 -0.0203 -0.1605 -0.3537
 8273TIP3    H124762   0.113   1.068   5.054 -0.0688 -0.4956 -0.8016
 8273TIP3    H224763   0.086   1.160   4.937  0.6802  1.7145  0.7112
 8274TIP3   OH224764   6.202   2.902   4.072 -0.6296 -0.2823  0.1965
 8274TIP3    H124765   6.283   2.870   4.031 -0.3576 -1.2345  1.3941
 8274TIP3    H224766   6.162   2.823   4.109 -3.0464 -0.1290 -1.8381
 8275TIP3   OH224767   1.821   2.508   4.628  0.0453 -0.0640  0.0888
 8275TIP3    H124768   1.727   2.488   4.634 -0.2806  1.5345  0.5917
 8275TIP3    H224769   1.829   2.560   4.548  0.1788  1.3715  0.9929
 8276TIP3   OH224770   7.392   6.792   4.830  0.3919 -0.1331  0.1280
 8276TIP3    H124771   7.401   6.718   4.771  2.5023 -0.5370  0.8891
 8276TIP3    H224772   7.368   6.753   4.914 -0.2599  0.2235  0.1135
 8277TIP3   OH224773   6.833   1.319   0.825 -0.2359 -0.0549 -0.0540
 8277TIP3    H124774   6.890   1.383   0.784 -0.0535 -0.3944 -0.3414
 8277TIP3    H224775   6.867   1.234   0.796 -0.4547 -0.2849  0.3377
 8278TIP3   OH224776   7.808   2.114   6.806 -0.0400  0.8126  0.1107
 8278TIP3    H124777   7.889   2.161   6.783 -0.9232  2.0374 -0.6006
 8278TIP3    H224778   7.789   2.061   6.728  0.6274 -0.3286  0.6855
 8279TIP3   OH224779   4.324   5.699   0.077 -0.3257  0.1658 -0.1472
 8279TIP3    H124780   4.330   5.672  -0.015  0.9946 -0.6627  0.1495
 8279TIP3    H224781   4.234   5.681   0.102 -0.5469 -0.1393 -1.1186
 8280TIP3   OH224782   6.554   6.897   2.034  0.5253  0.1105 -0.3020
 8280TIP3    H124783   6.622   6.933   1.976 -0.1523  1.3965 -0.3324
 8280TIP3    H224784   6.501   6.973   2.059 -0.6907 -0.8134  0.0137
 8281TIP3   OH224785   5.407   1.232   1.673 -0.1896  0.2090  0.5485
 8281TIP3    H124786   5.471   1.269   1.612  0.2596 -0.8173  0.3637
 8281TIP3    H224787   5.460   1.185   1.737 -0.7319 -0.1074  0.7728
 8282TIP3   OH224788   6.504   4.572   5.708  0.0164 -0.7530 -0.1280
 8282TIP3    H124789   6.416   4.604   5.729 -0.2021 -1.6541  0.3673
 8282TIP3    H224790   6.514   4.492   5.760  1.5108 -0.1259  0.6089
 8283TIP3   OH224791   5.629   4.291   4.227 -0.2696  0.0881  0.4259
 8283TIP3    H124792   5.551   4.255   4.183 -0.7906 -0.7021  1.9429
 8283TIP3    H224793   5.624   4.385   4.211  0.8669 -0.2824 -3.2455
 8284TIP3   OH224794   3.246   1.209   6.615  0.0344  0.6219 -0.0230
 8284TIP3    H124795   3.282   1.204   6.527 -1.4230  1.0927 -0.6769
 8284TIP3    H224796   3.271   1.296   6.646 -2.8259  2.1526 -1.5902
 8285TIP3   OH224797   6.946   4.339   4.867 -0.2570 -0.0001  0.0832
 8285TIP3    H124798   6.967   4.397   4.940  0.4452 -0.1382 -0.0067
 8285TIP3    H224799   6.868   4.291   4.896  0.7057 -0.9298  1.2395
 8286TIP3   OH224800   0.108   1.767   2.200  0.1562  0.4910 -0.1355
 8286TIP3    H124801   0.088   1.770   2.293 -1.2582  0.4661 -0.4192
 8286TIP3    H224802   0.187   1.712   2.194 -0.5525 -0.6926  0.9196
 8287TIP3   OH224803   2.169   2.538   6.630  0.1060 -0.0773  0.1122
 8287TIP3    H124804   2.211   2.498   6.706 -0.8604  0.5260  0.9948
 8287TIP3    H224805   2.076   2.516   6.640 -0.1866  0.9094 -0.3244
 8288TIP3   OH224806   1.735   6.093   6.430  0.0791  0.4551  0.5827
 8288TIP3    H124807   1.755   6.147   6.353  1.0391  0.3461  0.7506
 8288TIP3    H224808   1.671   6.029   6.398 -0.9622  1.5815  0.3457
 8289TIP3   OH224809   7.558   1.427   6.195  0.1772  0.1768 -0.3071
 8289TIP3    H124810   7.598   1.407   6.280 -1.2334 -1.0606  0.0970
 8289TIP3    H224811   7.540   1.521   6.199 -0.4414  0.0264  1.0345
 8290TIP3   OH224812   6.478   2.850   3.072 -0.5206 -0.1865  0.7187
 8290TIP3    H124813   6.424   2.913   3.119  0.9112  1.5426  0.1586
 8290TIP3    H224814   6.423   2.821   2.999 -0.6238  1.8782 -0.1020
 8291TIP3   OH224815   1.067   7.595   3.520 -0.4332 -0.1877  0.2863
 8291TIP3    H124816   1.121   7.674   3.510 -0.8644  0.1616  0.6496
 8291TIP3    H224817   0.998   7.606   3.454 -1.5504  0.6498  1.5454
 8292TIP3   OH224818   3.244   1.002   1.971  0.2877 -0.3020 -0.3699
 8292TIP3    H124819   3.215   0.923   2.016 -0.2314  0.1048  0.0222
 8292TIP3    H224820   3.339   1.001   1.979  0.2925 -0.9672 -0.5113
 8293TIP3   OH224821   7.663   4.371   2.600 -0.5485 -0.2355  0.1881
 8293TIP3    H124822   7.705   4.455   2.586 -0.4170 -0.5537 -1.6019
 8293TIP3    H224823   7.735   4.310   2.615 -0.4203 -0.4727 -1.1928
 8294TIP3   OH224824   0.086   3.314   2.836 -0.1184 -0.2462  0.7778
 8294TIP3    H124825   0.155   3.378   2.850 -0.5702  0.9770 -1.8451
 8294TIP3    H224826   0.120   3.257   2.767 -1.4234  0.0026 -0.1125
 8295TIP3   OH224827   3.499   3.193   4.128 -0.5235 -0.1309  0.3031
 8295TIP3    H124828   3.569   3.159   4.184 -0.3356 -0.2743 -0.0136
 8295TIP3    H224829   3.510   3.146   4.045 -0.7945  0.0813  0.1452
 8296TIP3   OH224830   1.679   0.849   5.809 -0.2861  0.1575  0.2792
 8296TIP3    H124831   1.769   0.817   5.800 -0.3803  0.0908 -0.5201
 8296TIP3    H224832   1.625   0.784   5.764 -0.9776 -0.8122  2.3788
 8297TIP3   OH224833   2.871   2.203   3.501 -0.0108 -0.1868 -0.3120
 8297TIP3    H124834   2.957   2.224   3.538 -0.3778  0.4838  0.1944
 8297TIP3    H224835   2.821   2.284   3.510 -0.1223  0.0136 -2.3233
 8298TIP3   OH224836   3.926   7.237   3.715 -0.3935  0.1668 -0.3317
 8298TIP3    H124837   3.904   7.144   3.725  0.0683 -0.1078 -1.5506
 8298TIP3    H224838   3.981   7.239   3.636 -0.6109  1.5133 -0.4655
 8299TIP3   OH224839   6.113   5.169   4.589 -0.0692  0.0950  0.2619
 8299TIP3    H124840   6.026   5.130   4.578 -0.3187  0.6339  0.3224
 8299TIP3    H224841   6.097   5.262   4.600  0.5070  0.1796  0.4393
 8300TIP3   OH224842   0.188   4.780   4.574 -0.2818  0.0059  0.1472
 8300TIP3    H124843   0.104   4.746   4.542  0.2064 -1.8943  0.7514
 8300TIP3    H224844   0.193   4.869   4.539 -1.5355 -0.6162 -1.7596
 8301TIP3   OH224845   4.487   6.727   4.982  0.4344  0.0167 -0.4934
 8301TIP3    H124846   4.547   6.699   5.051  1.0170 -0.2553 -1.0955
 8301TIP3    H224847   4.459   6.815   5.008 -0.8614 -0.8058  1.0563
 8302TIP3   OH224848   6.560   3.737   6.533  0.1513  0.0819 -0.1056
 8302TIP3    H124849   6.654   3.724   6.547  0.1013 -0.8238 -0.5865
 8302TIP3    H224850   6.520   3.655   6.560 -0.4241  0.1563 -0.7182
 8303TIP3   OH224851   3.207   6.955   4.928  0.1335 -0.1484  0.8932
 8303TIP3    H124852   3.282   7.014   4.918 -0.1030  0.2964  1.6683
 8303TIP3    H224853   3.157   6.991   5.001 -1.6881  0.4561 -0.5846
 8304TIP3   OH224854   0.683   1.170   4.342 -0.1502  0.0248  0.4606
 8304TIP3    H124855   0.711   1.232   4.274  1.3117  0.1828  1.1583
 8304TIP3    H224856   0.595   1.198   4.365 -1.1437 -0.6647 -2.0730
 8305TIP3   OH224857   5.200   0.489   1.740 -0.1430  0.3007  0.1390
 8305TIP3    H124858   5.126   0.433   1.716 -0.2269  0.1984  0.6234
 8305TIP3    H224859   5.176   0.526   1.825 -0.6605  2.1218 -0.7618
 8306TIP3   OH224860   6.517   7.126   6.413  0.0878  0.2324 -0.0385
 8306TIP3    H124861   6.444   7.151   6.356 -3.3718 -4.1127  1.8334
 8306TIP3    H224862   6.523   7.031   6.402  1.5835 -0.3415  4.1276
 8307TIP3   OH224863   7.443   6.149   1.441 -0.2939  0.3337 -0.0272
 8307TIP3    H124864   7.357   6.148   1.483 -0.1673 -0.9800  0.2391
 8307TIP3    H224865   7.493   6.215   1.491 -1.2074  1.3037 -0.3614
 8308TIP3   OH224866   1.066   5.949   4.159  0.0975  0.2086 -0.5598
 8308TIP3    H124867   0.971   5.937   4.158  0.1303 -0.2975  0.9887
 8308TIP3    H224868   1.079   6.030   4.209  0.5438 -0.6046  0.6780
 8309TIP3   OH224869   6.297   2.788   2.041 -0.3936  0.5374 -0.4240
 8309TIP3    H124870   6.261   2.815   2.126 -1.2702  0.4869 -0.7671
 8309TIP3    H224871   6.276   2.860   1.982  0.4806  0.7056 -0.5406
 8310TIP3   OH224872   4.647   4.387   0.232  0.2092 -0.3743 -0.0149
 8310TIP3    H124873   4.640   4.369   0.326  0.5242  0.0029  0.0834
 8310TIP3    H224874   4.732   4.352   0.208 -0.7194 -2.4216 -0.6247
 8311TIP3   OH224875   3.636   4.781   5.820 -0.0138 -0.0281  0.0096
 8311TIP3    H124876   3.566   4.801   5.759 -0.0180 -1.4431 -0.4702
 8311TIP3    H224877   3.715   4.816   5.779 -0.0300 -0.8867 -0.7775
 8312TIP3   OH224878   7.064   2.165   3.507  0.7464  0.2942  0.1495
 8312TIP3    H124879   7.058   2.201   3.595 -0.1020  0.0881  0.1872
 8312TIP3    H224880   7.145   2.114   3.507  0.7915  0.3570  0.7840
 8313TIP3   OH224881   5.089   7.352   3.706 -0.0343  0.3247 -0.1773
 8313TIP3    H124882   5.099   7.339   3.800 -2.4533  0.2831  0.1450
 8313TIP3    H224883   5.066   7.266   3.672  1.6123  0.1685 -0.9790
 8314TIP3   OH224884   4.508   6.118   3.788  0.4511 -0.2580  0.5513
 8314TIP3    H124885   4.468   6.166   3.715 -0.1356  0.5715  1.3770
 8314TIP3    H224886   4.572   6.179   3.824 -0.5304  0.0769  1.8206
 8315TIP3   OH224887   1.294   2.779   6.223  0.3438 -0.0240  0.3019
 8315TIP3    H124888   1.350   2.829   6.282 -0.3631  0.0633  0.9134
 8315TIP3    H224889   1.212   2.768   6.271  0.7419 -2.4996  0.5618
 8316TIP3   OH224890   5.571   3.849   6.077  0.5640 -0.5968 -0.2652
 8316TIP3    H124891   5.537   3.937   6.057  2.2068  0.1101 -0.0891
 8316TIP3    H224892   5.649   3.841   6.023  0.1873 -2.1659 -0.6198
 8317TIP3   OH224893   1.789   0.751   4.391 -0.2758  0.0967  0.0340
 8317TIP3    H124894   1.781   0.665   4.350 -1.1157  0.2464 -0.1491
 8317TIP3    H224895   1.848   0.800   4.334 -0.5866 -0.0440 -0.4161
 8318TIP3   OH224896   2.400   3.696   2.483 -0.3878  0.8807 -0.1907
 8318TIP3    H124897   2.363   3.774   2.525 -0.2691  0.2714  1.0930
 8318TIP3    H224898   2.325   3.653   2.443 -0.6975  0.8859  0.3720
 8319TIP3   OH224899   6.127   4.544   0.988 -0.0439 -0.1174  0.0652
 8319TIP3    H124900   6.223   4.542   0.985  0.0512 -0.2385  1.9568
 8319TIP3    H224901   6.102   4.453   1.002 -0.6127 -0.4644 -2.6902
 8320TIP3   OH224902   0.314   6.810   0.783  0.4176 -0.0927 -0.2307
 8320TIP3    H124903   0.258   6.737   0.758  0.3607  0.4264 -1.7690
 8320TIP3    H224904   0.254   6.877   0.815  0.4066 -0.4657  0.5345
 8321TIP3   OH224905   4.761   3.352   3.922  0.1844 -0.2311  0.5515
 8321TIP3    H124906   4.699   3.288   3.956 -0.6532  0.8356  1.1015
 8321TIP3    H224907   4.760   3.340   3.827  0.0602 -1.0453  0.6565
 8322TIP3   OH224908   4.149   0.499   3.135  0.4689  0.1164 -0.0230
 8322TIP3    H124909   4.174   0.577   3.185  1.5187 -0.9119  1.1212
 8322TIP3    H224910   4.231   0.466   3.099  0.0566 -0.5356 -0.3874
 8323TIP3   OH224911   1.128   2.226   3.713  0.6324  0.4346  0.2385
 8323TIP3    H124912   1.090   2.284   3.778 -0.1583 -0.0831  0.2496
 8323TIP3    H224913   1.089   2.140   3.731  0.2785  0.3142 -1.0072
 8324TIP3   OH224914   7.206   4.645   2.122  0.3506 -0.8495 -0.3412
 8324TIP3    H124915   7.168   4.560   2.099  0.4534 -0.1419 -3.4794
 8324TIP3    H224916   7.132   4.694   2.159 -0.2834 -1.5230 -0.6794
 8325TIP3   OH224917   7.553   4.287   2.201  0.2379 -0.0226 -0.7448
 8325TIP3    H124918   7.565   4.381   2.205  0.5433 -0.0906  0.6249
 8325TIP3    H224919   7.641   4.250   2.211 -0.0809 -0.4376  0.9791
 8326TIP3   OH224920   8.198   7.483   5.712  0.4925 -0.1826  0.0254
 8326TIP3    H124921   8.191   7.567   5.667 -0.2524 -0.6329 -0.7471
 8326TIP3    H224922   8.109   7.449   5.714  0.5679 -0.3641  1.5278
 8327TIP3   OH224923   4.890   3.663   2.109 -0.2416 -0.3814 -1.0225
 8327TIP3    H124924   4.972   3.667   2.058  0.5367 -0.7155  0.1712
 8327TIP3    H224925   4.842   3.590   2.070  0.4985 -0.8547 -1.0778
 8328TIP3   OH224926   3.823   4.539   3.491  0.3098 -0.3235  0.6016
 8328TIP3    H124927   3.863   4.550   3.405 -1.6546  1.3004 -0.2159
 8328TIP3    H224928   3.882   4.584   3.551  0.9757 -0.1807 -0.1418
 8329TIP3   OH224929   4.940   2.192   1.879  0.7049  0.1340 -0.0783
 8329TIP3    H124930   5.007   2.157   1.820  0.2605 -1.0585  0.1085
 8329TIP3    H224931   4.990   2.243   1.943  1.4021 -0.3867 -0.1937
 8330TIP3   OH224932   0.672   4.848   6.145  0.0587 -0.1064 -0.9164
 8330TIP3    H124933   0.627   4.933   6.143  0.3729  0.3079  2.4025
 8330TIP3    H224934   0.601   4.784   6.149 -0.1916  0.1158 -1.6803
 8331TIP3   OH224935   5.066   7.389   5.794  0.3339  0.1704 -0.5257
 8331TIP3    H124936   5.160   7.370   5.786  0.8520  2.4464 -0.5715
 8331TIP3    H224937   5.033   7.385   5.704  0.5494  0.0622 -0.5997
 8332TIP3   OH224938   3.838   6.041   6.731 -0.5064 -0.3877 -0.4213
 8332TIP3    H124939   3.800   6.067   6.815  0.2126 -2.2958  0.5387
 8332TIP3    H224940   3.881   5.957   6.748  1.5129  0.1884 -2.1719
 8333TIP3   OH224941   7.591   2.815   0.071 -0.0092  0.4876 -0.1229
 8333TIP3    H124942   7.548   2.861   0.143  0.3366 -0.5886  0.8121
 8333TIP3    H224943   7.537   2.832  -0.005  0.2349  2.6165  0.1245
 8334TIP3   OH224944   3.263   4.088   2.566 -0.3103  0.0305 -0.1116
 8334TIP3    H124945   3.181   4.107   2.520 -0.6297 -0.6292  0.1673
 8334TIP3    H224946   3.259   4.141   2.646 -0.5554 -0.1518 -0.0037
 8335TIP3   OH224947   0.121   2.784   3.892  0.2102  0.1150  0.4815
 8335TIP3    H124948   0.129   2.814   3.983 -0.6294  0.6541  0.3826
 8335TIP3    H224949   0.202   2.813   3.850  1.5641 -1.8549  1.5028
 8336TIP3   OH224950   6.048   6.328   6.491 -0.5448  0.7309 -0.0953
 8336TIP3    H124951   6.045   6.389   6.564  1.6528 -0.0332  0.6941
 8336TIP3    H224952   5.968   6.277   6.499 -1.3845  2.0896  0.4730
 8337TIP3   OH224953   5.383   2.603   5.232 -0.2572 -0.1544 -0.1715
 8337TIP3    H124954   5.322   2.657   5.282 -0.8854  0.2476 -1.3369
 8337TIP3    H224955   5.391   2.647   5.147  0.1713 -1.2266 -0.7121
 8338TIP3   OH224956   2.569   4.995   0.107  0.2270 -0.3800  0.3519
 8338TIP3    H124957   2.548   5.085   0.084  0.8675 -0.5758 -1.0830
 8338TIP3    H224958   2.529   4.941   0.039  1.8376 -1.0016 -0.1695
 8339TIP3   OH224959   6.520   2.831   0.153  0.1010 -0.4074  0.0376
 8339TIP3    H124960   6.454   2.764   0.173  0.2967 -0.8039 -0.6224
 8339TIP3    H224961   6.522   2.887   0.231 -0.4918 -0.8204  0.3548
 8340TIP3   OH224962   4.676   1.970   3.778  0.0548  0.4986  0.9162
 8340TIP3    H124963   4.612   1.900   3.766 -0.2401  0.6050  1.7954
 8340TIP3    H224964   4.734   1.962   3.703 -0.2380 -0.4070  0.7675
 8341TIP3   OH224965   2.167   3.641   5.803 -0.1314  0.1097 -0.1410
 8341TIP3    H124966   2.252   3.643   5.848  0.3796 -0.8285 -1.0263
 8341TIP3    H224967   2.183   3.591   5.723 -1.8186 -1.2568  0.3143
 8342TIP3   OH224968   7.884   1.585   3.198 -0.2410  0.0136  0.5906
 8342TIP3    H124969   7.944   1.660   3.195 -0.7538  0.4064 -0.7288
 8342TIP3    H224970   7.797   1.625   3.205 -0.5956 -0.3764 -1.0934
 8343TIP3   OH224971   1.241   4.930   2.489 -0.0781  0.5746 -0.3681
 8343TIP3    H124972   1.233   4.866   2.560  0.0432  1.5136  0.5188
 8343TIP3    H224973   1.298   4.888   2.425  0.5527  0.0571  0.5123
 8344TIP3   OH224974   0.030   6.126   6.468  0.8786  0.0401  0.2888
 8344TIP3    H124975  -0.062   6.154   6.462  0.3741 -1.3707  0.8066
 8344TIP3    H224976   0.064   6.169   6.546 -0.9086 -3.2491  3.1926
 8345TIP3   OH224977   2.729   4.713   2.788 -0.4570  0.1556 -0.4452
 8345TIP3    H124978   2.793   4.771   2.829  0.4669  0.5278 -2.2823
 8345TIP3    H224979   2.652   4.769   2.774 -0.7253  0.0620  0.6036
 8346TIP3   OH224980   5.224   2.262   6.687 -0.5685 -0.4607  0.4755
 8346TIP3    H124981   5.131   2.242   6.672 -0.7442 -0.4776  1.5251
 8346TIP3    H224982   5.268   2.230   6.608 -1.4031 -0.8108  0.1351
 8347TIP3   OH224983   1.968   5.611   2.848  0.4685 -0.0707 -0.1090
 8347TIP3    H124984   2.035   5.600   2.780 -1.9104 -0.1070 -2.6405
 8347TIP3    H224985   1.930   5.697   2.831 -0.8637 -0.5060  0.5396
 8348TIP3   OH224986   5.120   1.866   5.036  0.1447  0.3248 -0.2817
 8348TIP3    H124987   5.138   1.948   5.081 -0.1152 -0.5177  1.4649
 8348TIP3    H224988   5.046   1.885   4.979  0.6792  1.5139 -0.6030
 8349TIP3   OH224989   6.278   4.255   3.126  0.0141  0.0037  0.5167
 8349TIP3    H124990   6.231   4.325   3.081  1.6612 -0.5841 -2.3482
 8349TIP3    H224991   6.242   4.174   3.090  2.2238 -0.4723 -0.8603
 8350TIP3   OH224992   0.251   3.443   0.946  0.8536 -1.0991 -0.0083
 8350TIP3    H124993   0.338   3.404   0.935  1.0518 -0.5086 -0.6236
 8350TIP3    H224994   0.268   3.536   0.957  0.5023 -1.3034  3.0846
 8351TIP3   OH224995   2.322   3.067   3.162 -0.3912 -1.0153 -0.2302
 8351TIP3    H124996   2.299   3.090   3.072 -3.3769 -0.4471  0.5700
 8351TIP3    H224997   2.371   2.985   3.153 -4.1693 -3.3537 -2.2679
 8352TIP3   OH224998   3.156   1.593   1.068 -0.8634  0.2792  0.1037
 8352TIP3    H124999   3.135   1.564   1.157 -0.3653  2.0417  0.8346
 8352TIP3    H225000   3.072   1.591   1.022 -1.2689  0.0899  0.8294
 8353TIP3   OH225001   7.652   5.395   2.411 -0.0446 -0.0096  0.1440
 8353TIP3    H125002   7.747   5.407   2.421 -0.2180  0.1461  1.9314
 8353TIP3    H225003   7.624   5.356   2.494 -1.5301 -0.2340 -0.4303
 8354TIP3   OH225004   1.731   4.120   0.486 -0.2719 -0.3747  0.1380
 8354TIP3    H125005   1.739   4.168   0.568  0.2849 -1.2177  0.5925
 8354TIP3    H225006   1.819   4.085   0.471 -0.9108 -2.1461  0.3863
 8355TIP3   OH225007   3.458   7.031   4.518  0.1504 -0.2044 -0.7397
 8355TIP3    H125008   3.423   7.041   4.607  3.5268 -0.1142  0.7446
 8355TIP3    H225009   3.409   6.959   4.480 -2.1216  0.4452  0.7607
 8356TIP3   OH225010   1.874   3.929   1.638  0.6218 -0.1877 -0.1364
 8356TIP3    H125011   1.827   3.961   1.561  2.0952  0.3331 -0.8494
 8356TIP3    H225012   1.814   3.866   1.678 -1.7355  2.1430  0.3700
 8357TIP3   OH225013   6.240   3.200   5.141  0.4235  0.0122 -0.0811
 8357TIP3    H125014   6.301   3.268   5.113  2.3136 -1.3293  0.5839
 8357TIP3    H225015   6.296   3.131   5.176 -1.3488 -2.3210 -1.5886
 8358TIP3   OH225016   3.728   4.772   3.668  0.1700 -0.1683  0.1869
 8358TIP3    H125017   3.730   4.844   3.606 -2.4693 -1.8341 -2.0532
 8358TIP3    H225018   3.685   4.809   3.746 -0.7401  0.7953 -0.7424
 8359TIP3   OH225019   5.004   2.186   6.572 -0.3434  0.4351  0.2878
 8359TIP3    H125020   4.943   2.156   6.640  0.2396 -0.6816  0.3475
 8359TIP3    H225021   4.961   2.161   6.489  0.7265 -1.9264  0.3521
 8360TIP3   OH225022   0.537   4.174   0.101  0.0508  0.4664  0.4458
 8360TIP3    H125023   0.549   4.229   0.024  1.6728  0.5290  0.6955
 8360TIP3    H225024   0.448   4.141   0.094 -1.1950  3.4438  0.4917
 8361TIP3   OH225025   7.488   6.910   5.416 -0.2208 -0.6015 -0.1849
 8361TIP3    H125026   7.415   6.907   5.478 -0.0939 -0.9680 -0.0475
 8361TIP3    H225027   7.447   6.898   5.330 -0.5829  1.4967 -0.3505
 8362TIP3   OH225028   7.476   3.260   2.402  0.2868  0.3793  0.0358
 8362TIP3    H125029   7.409   3.296   2.460 -0.0730 -1.6196  0.9440
 8362TIP3    H225030   7.465   3.165   2.409  1.8849  0.0469 -1.3958
 8363TIP3   OH225031   3.599   1.447   0.213 -0.4314  0.0774  0.6210
 8363TIP3    H125032   3.540   1.379   0.182 -0.6717  1.0499 -1.2481
 8363TIP3    H225033   3.548   1.528   0.206  0.5641  0.7238  0.5644
 8364TIP3   OH225034   2.887   4.817   6.295  0.5373  0.1582 -0.6091
 8364TIP3    H125035   2.802   4.781   6.319  1.9636 -3.1814  0.0623
 8364TIP3    H225036   2.897   4.895   6.349 -0.0396 -2.2252  3.3366
 8365TIP3   OH225037   6.599   2.658   4.776  0.2939  0.0403 -0.0838
 8365TIP3    H125038   6.644   2.726   4.725 -0.9651  1.2130  0.3141
 8365TIP3    H225039   6.543   2.614   4.712 -0.1625  0.5177 -0.0190
 8366TIP3   OH225040   5.940   5.503   6.628  0.3888  0.4837  0.6802
 8366TIP3    H125041   6.025   5.459   6.623  1.2897  2.2673 -0.9975
 8366TIP3    H225042   5.907   5.481   6.715  0.9309 -3.0595  0.1308
 8367TIP3   OH225043   3.740   6.123   4.251  0.6495  0.1000  0.0189
 8367TIP3    H125044   3.812   6.084   4.201  1.9748  0.6451  1.4486
 8367TIP3    H225045   3.733   6.212   4.217  1.8593  0.6204  1.0695
 8368TIP3   OH225046   0.896   5.574   2.683 -0.4122  0.2874  0.0737
 8368TIP3    H125047   0.820   5.609   2.731 -0.5430 -0.8916  0.7643
 8368TIP3    H225048   0.873   5.483   2.665 -0.1235  0.5491 -1.7996
 8369TIP3   OH225049   1.334   2.286   4.820 -0.6248 -0.0536  0.7958
 8369TIP3    H125050   1.271   2.318   4.885 -0.4233 -0.0132  0.9747
 8369TIP3    H225051   1.416   2.330   4.843 -0.4777 -0.2808  0.7091
 8370TIP3   OH225052   8.002   4.526   4.821  0.5430  0.8234 -0.2511
 8370TIP3    H125053   8.053   4.477   4.887  0.6617 -0.0687 -0.9778
 8370TIP3    H225054   7.936   4.463   4.791  0.0263  1.4630 -0.4622
 8371TIP3   OH225055   5.873   4.871   1.531  0.3182  0.2105  0.0770
 8371TIP3    H125056   5.782   4.900   1.540  0.2926  0.5109 -1.0913
 8371TIP3    H225057   5.894   4.834   1.617 -1.0657 -0.3202  0.2145
 8372TIP3   OH225058   6.135   1.969   1.091  0.8426  0.0784 -0.5090
 8372TIP3    H125059   6.231   1.968   1.085  0.8031  0.5114 -1.5640
 8372TIP3    H225060   6.106   1.991   1.002 -0.2698 -1.0240 -0.4480
 8373TIP3   OH225061   7.201   3.064   1.606  0.3044  0.4903 -0.3545
 8373TIP3    H125062   7.262   2.998   1.640 -0.8281  0.8730  2.6988
 8373TIP3    H225063   7.236   3.087   1.520  2.2570 -2.0904 -0.3660
 8374TIP3   OH225064   5.472   7.564   3.235 -0.2449 -0.6174  0.4419
 8374TIP3    H125065   5.406   7.589   3.300 -1.1041 -0.7771 -0.3534
 8374TIP3    H225066   5.553   7.556   3.285 -0.8171 -0.3645  1.4287
 8375TIP3   OH225067   7.672   4.583   3.138  0.3388 -0.0340 -0.1506
 8375TIP3    H125068   7.676   4.669   3.179  1.7513 -0.6374  1.0898
 8375TIP3    H225069   7.590   4.545   3.169  0.7354  0.0539  1.0472
 8376TIP3   OH225070   5.556   7.161   3.284  0.1234 -0.0894 -0.6261
 8376TIP3    H125071   5.478   7.119   3.249 -0.3032  1.6630 -1.9668
 8376TIP3    H225072   5.583   7.223   3.215  0.2118  2.3918  1.4651
 8377TIP3   OH225073   1.380   5.190   3.860 -0.0506  0.3071 -0.1229
 8377TIP3    H125074   1.365   5.258   3.795  3.8220  0.1266 -1.4259
 8377TIP3    H225075   1.367   5.234   3.944 -0.2913  1.9001 -0.9597
 8378TIP3   OH225076   1.847   0.021   0.831 -0.1927 -0.4322 -0.3255
 8378TIP3    H125077   1.797  -0.049   0.789 -1.2245 -0.1067  0.3205
 8378TIP3    H225078   1.891   0.066   0.759 -0.9575 -0.6461 -0.9389
 8379TIP3   OH225079   4.929   4.522   0.029  0.3147 -0.0551 -0.3571
 8379TIP3    H125080   4.930   4.427   0.043 -0.7814 -0.2116 -1.1929
 8379TIP3    H225081   4.838   4.542   0.009  0.5219  1.1965 -0.1080
 8380TIP3   OH225082   7.546   1.247   3.524  0.1328 -0.3401 -0.3684
 8380TIP3    H125083   7.562   1.316   3.459  0.2529 -0.5942 -0.6112
 8380TIP3    H225084   7.543   1.166   3.472 -1.4064 -0.3752 -0.2880
 8381TIP3   OH225085   4.261   0.333   6.603 -0.0318 -0.3075  0.2368
 8381TIP3    H125086   4.218   0.415   6.626 -1.7756 -1.2733  0.5374
 8381TIP3    H225087   4.290   0.346   6.513  1.0401  1.1353  0.7439
 8382TIP3   OH225088   0.413   0.293   2.713  0.3695 -0.0457  0.6433
 8382TIP3    H125089   0.354   0.360   2.680  0.7098 -0.1535 -0.1935
 8382TIP3    H225090   0.499   0.317   2.680  0.5999 -0.5507  0.8575
 8383TIP3   OH225091   2.623   2.389   1.495  0.7042  0.0054  0.1276
 8383TIP3    H125092   2.645   2.482   1.502 -1.5248  0.5275  1.1199
 8383TIP3    H225093   2.613   2.374   1.401  1.9773  0.5005 -0.1107
 8384TIP3   OH225094   1.870   5.302   4.344  0.5481  0.1924 -0.0924
 8384TIP3    H125095   1.870   5.356   4.423 -1.7594 -0.6777  0.5789
 8384TIP3    H225096   1.926   5.227   4.367  3.4000  1.9201 -0.8812
 8385TIP3   OH225097   2.070   4.905   1.491 -0.2299  0.2896  0.7007
 8385TIP3    H125098   2.120   4.900   1.572 -0.2762 -0.0371  0.7134
 8385TIP3    H225099   2.015   4.982   1.500  1.2883  1.4983  0.0968
 8386TIP3   OH225100   3.439   4.404   4.526 -0.3002 -0.4003  0.1687
 8386TIP3    H125101   3.344   4.396   4.515 -0.4796  1.2441  0.1438
 8386TIP3    H225102   3.463   4.477   4.468  0.5992  0.6750  1.7979
 8387TIP3   OH225103   2.045   2.145   3.345 -0.3214  0.1950  0.2697
 8387TIP3    H125104   2.081   2.190   3.269  0.5420  0.1031  0.6121
 8387TIP3    H225105   2.075   2.055   3.336 -1.0657 -0.0564  0.2009
 8388TIP3   OH225106   1.188   1.079   5.444  0.2803  0.1476  0.4109
 8388TIP3    H125107   1.226   1.018   5.381  1.8618  0.3886  1.0963
 8388TIP3    H225108   1.162   1.155   5.391  1.1456  0.1470 -0.0366
 8389TIP3   OH225109   2.653   5.004   4.762  0.0226 -0.5647 -0.5405
 8389TIP3    H125110   2.646   5.097   4.784  1.1187 -0.9213  1.5987
 8389TIP3    H225111   2.577   4.964   4.804  1.2164 -1.0248  1.2672
 8390TIP3   OH225112   1.937   2.739   6.045 -0.6453  0.2777  0.0319
 8390TIP3    H125113   1.844   2.725   6.031 -1.1241  1.5441  1.6153
 8390TIP3    H225114   1.953   2.829   6.017  0.0624  0.1494 -0.0121
 8391TIP3   OH225115   8.099   0.155   5.391  0.6211 -0.1173 -0.1278
 8391TIP3    H125116   8.115   0.233   5.338  2.4713  0.4638  1.1626
 8391TIP3    H225117   8.130   0.083   5.336  0.6309  0.2470 -0.6138
 8392TIP3   OH225118   3.338   0.569   2.754  0.3465 -0.4406  0.1861
 8392TIP3    H125119   3.358   0.648   2.704  1.5187 -1.3675 -0.9039
 8392TIP3    H225120   3.261   0.592   2.806  0.1189  1.1221 -0.7648
 8393TIP3   OH225121   7.520   2.099   0.533 -0.6099 -0.3267  0.5116
 8393TIP3    H125122   7.439   2.128   0.573  0.3525 -0.0701  2.3480
 8393TIP3    H225123   7.511   2.004   0.526 -1.0515 -0.2970  0.7050
 8394TIP3   OH225124   0.731   1.985   3.011 -0.1816  0.2716  0.1793
 8394TIP3    H125125   0.638   2.000   3.027 -0.5903 -0.1380 -1.5798
 8394TIP3    H225126   0.746   1.894   3.036 -0.3261  0.2467  0.1762
 8395TIP3   OH225127   7.425   3.333   0.302 -1.1905 -0.3083  0.8322
 8395TIP3    H125128   7.461   3.296   0.222 -2.0155 -0.1553  0.3783
 8395TIP3    H225129   7.392   3.419   0.276 -0.4366  0.2230  1.5931
 8396TIP3   OH225130   1.338   3.623   5.037 -0.2884  1.0046 -0.5497
 8396TIP3    H125131   1.389   3.589   5.111  0.5643  2.2584 -0.5447
 8396TIP3    H225132   1.378   3.707   5.017 -0.0431  0.3859 -2.9190
 8397TIP3   OH225133   0.319   6.489   0.995 -0.6530 -0.1467  0.4068
 8397TIP3    H125134   0.345   6.449   0.912 -1.2306  0.9131 -0.3141
 8397TIP3    H225135   0.251   6.432   1.030 -0.7843 -0.3113 -0.1180
 8398TIP3   OH225136   7.868   1.604   4.674  0.1032  0.1189 -0.1069
 8398TIP3    H125137   7.891   1.693   4.648  2.8100 -0.5025 -0.1010
 8398TIP3    H225138   7.862   1.608   4.769 -1.1189  0.5440 -0.1854
 8399TIP3   OH225139   4.840   4.427   3.886  0.2285 -0.2556 -0.2146
 8399TIP3    H125140   4.746   4.443   3.886 -0.4835 -3.6417 -0.6029
 8399TIP3    H225141   4.859   4.392   3.973  1.4870  1.7222  0.3732
 8400TIP3   OH225142   7.701   6.285   3.020 -0.1947 -0.2768 -0.2252
 8400TIP3    H125143   7.713   6.328   3.104 -1.8025 -0.5178  0.1598
 8400TIP3    H225144   7.676   6.195   3.042 -2.0458  0.0281 -0.8845
 8401TIP3   OH225145   0.185   3.186   5.904  0.3400 -0.1660  0.1498
 8401TIP3    H125146   0.231   3.112   5.865  0.3133 -0.0965 -0.0136
 8401TIP3    H225147   0.233   3.263   5.874 -0.0920 -0.0717 -0.3215
 8402TIP3   OH225148   7.952   4.979   5.751  0.4988  0.3463  0.3296
 8402TIP3    H125149   7.907   4.939   5.826 -0.3090  2.3359  0.9705
 8402TIP3    H225150   8.036   5.009   5.787  2.4048 -3.0521 -0.7849
 8403TIP3   OH225151   7.367   1.083   6.651  0.7881 -0.4262 -0.1146
 8403TIP3    H125152   7.299   1.141   6.685 -0.5458 -1.7488 -0.3771
 8403TIP3    H225153   7.449   1.116   6.687  0.0001  1.1832  0.2717
 8404TIP3   OH225154   5.698   3.043   6.187 -0.3885  0.9356  0.0998
 8404TIP3    H125155   5.694   2.960   6.140  1.5716  0.6834  0.3125
 8404TIP3    H225156   5.625   3.094   6.151 -1.1534 -0.5786 -0.5770
 8405TIP3   OH225157   1.362   4.579   6.388 -0.5919 -0.7855  0.2588
 8405TIP3    H125158   1.372   4.563   6.295  0.4440 -0.8111  0.3687
 8405TIP3    H225159   1.316   4.663   6.393  1.4643  0.4480 -0.2980
 8406TIP3   OH225160   4.712   5.149   3.120 -0.1810  0.1000 -0.3435
 8406TIP3    H125161   4.617   5.153   3.134 -0.0963  3.2863  0.1908
 8406TIP3    H225162   4.749   5.132   3.207 -0.2402  0.6506 -0.2045
 8407TIP3   OH225163   0.421   3.313   1.562 -0.2145 -0.0445 -0.3663
 8407TIP3    H125164   0.513   3.307   1.538  0.2624  0.1197  1.2607
 8407TIP3    H225165   0.375   3.258   1.498  1.1599 -1.1470 -0.4562
 8408TIP3   OH225166   7.723   2.386   0.957 -0.2305 -0.1333 -0.4073
 8408TIP3    H125167   7.683   2.458   0.908  0.1348  1.8730  2.0104
 8408TIP3    H225168   7.667   2.375   1.034  0.6885 -1.2670  0.1400
 8409TIP3   OH225169   6.051   3.864   6.337  0.3216  0.0661  0.2647
 8409TIP3    H125170   6.096   3.891   6.258  0.3868  1.4306  0.7477
 8409TIP3    H225171   6.113   3.880   6.408 -0.5050  0.9665  0.8195
 8410TIP3   OH225172   3.616   1.915   6.721 -0.2940  0.5415  0.2030
 8410TIP3    H125173   3.661   1.875   6.794  2.0025  2.1293 -0.2325
 8410TIP3    H225174   3.600   1.843   6.660  1.4306 -0.1619  0.5159
 8411TIP3   OH225175   2.822   6.841   5.670 -0.2238  0.4706  0.5137
 8411TIP3    H125176   2.889   6.896   5.712  0.0336 -0.4819  1.3849
 8411TIP3    H225177   2.743   6.896   5.671  0.5995  1.7621 -0.8910
 8412TIP3   OH225178   6.385   2.375   1.728 -0.0683  0.5387  0.3736
 8412TIP3    H125179   6.376   2.327   1.811  0.5012 -1.1001 -0.4613
 8412TIP3    H225180   6.443   2.448   1.749 -1.4280  1.2720  1.8270
 8413TIP3   OH225181   3.468   0.042   6.511  0.0871  0.3522 -0.5580
 8413TIP3    H125182   3.497  -0.047   6.527  1.6085  0.9095 -0.0325
 8413TIP3    H225183   3.444   0.044   6.418 -4.2745 -1.6907  0.2480
 8414TIP3   OH225184   5.691   1.860   4.847  0.4965  0.5862 -0.1834
 8414TIP3    H125185   5.647   1.828   4.926  1.5732 -1.6638 -0.4226
 8414TIP3    H225186   5.765   1.912   4.879  1.7715 -1.4733  0.3983
 8415TIP3   OH225187   6.105   1.256   3.365  0.2892 -0.7983 -0.6421
 8415TIP3    H125188   6.100   1.174   3.413 -0.1376 -0.6467 -0.4234
 8415TIP3    H225189   6.014   1.286   3.359  0.5390  0.2164  0.2521
 8416TIP3   OH225190   8.179   1.135   3.209  0.4730  0.5531  0.0386
 8416TIP3    H125191   8.110   1.084   3.167  2.4432  0.0302 -2.8920
 8416TIP3    H225192   8.146   1.225   3.210 -0.9817  0.0317  0.4946
 8417TIP3   OH225193   0.774   5.127   3.369 -0.2126 -0.0093  0.6202
 8417TIP3    H125194   0.686   5.140   3.334 -0.7136 -1.3190  1.2898
 8417TIP3    H225195   0.781   5.190   3.441  0.4131  1.9180 -1.0511
 8418TIP3   OH225196   7.261   3.137   4.852 -0.4639 -0.0615  0.1191
 8418TIP3    H125197   7.276   3.043   4.861  1.2798  0.2520  0.8473
 8418TIP3    H225198   7.307   3.161   4.772 -0.6780  0.2161  0.0779
 8419TIP3   OH225199   8.179   1.034   4.378  0.4317  0.1972  0.4259
 8419TIP3    H125200   8.085   1.017   4.383  0.1350  1.0541 -1.4355
 8419TIP3    H225201   8.211   0.970   4.314  0.8273  0.8704 -0.0637
 8420TIP3   OH225202   5.558   4.477   3.646 -0.1012  0.5931  0.1693
 8420TIP3    H125203   5.638   4.487   3.698 -0.5536 -0.4186  1.1084
 8420TIP3    H225204   5.547   4.561   3.603  0.9675  1.0597  0.7572
 8421TIP3   OH225205   3.132   3.347   1.448  0.6210 -0.0153 -0.3414
 8421TIP3    H125206   3.154   3.255   1.432  2.8793  0.4854 -0.5026
 8421TIP3    H225207   3.105   3.381   1.362  1.7223 -0.0667 -0.7192
 8422TIP3   OH225208   6.048   6.728   4.908  0.3223  0.1717  0.1492
 8422TIP3    H125209   6.058   6.823   4.920 -0.2599  0.1446  0.9515
 8422TIP3    H225210   6.122   6.690   4.955  0.2076  0.2129  0.3673
 8423TIP3   OH225211   2.594   1.005   3.424  0.2256 -0.8936  0.1865
 8423TIP3    H125212   2.678   1.045   3.402  0.3319 -2.5682 -2.8928
 8423TIP3    H225213   2.539   1.079   3.450  1.8584  0.5639 -0.2923
 8424TIP3   OH225214   4.242   7.520   2.946  0.0403 -0.3249 -0.1815
 8424TIP3    H125215   4.180   7.460   2.904  0.9944 -1.1673 -0.4348
 8424TIP3    H225216   4.187   7.586   2.988 -1.0458 -1.3608  0.0832
 8425TIP3   OH225217   1.584   6.269   2.871 -0.2371  0.2408  0.2531
 8425TIP3    H125218   1.509   6.305   2.825  0.3936  1.3908  0.0803
 8425TIP3    H225219   1.660   6.308   2.827  0.4072  0.5013  1.5488
 8426TIP3   OH225220   3.174   2.923   2.560  0.3912  0.5118  0.2636
 8426TIP3    H125221   3.118   2.912   2.484 -0.5305  1.9609  0.7075
 8426TIP3    H225222   3.262   2.933   2.524  0.1687 -0.2004 -0.5143
 8427TIP3   OH225223   5.339   7.494   5.066  0.0964  0.2592 -0.7584
 8427TIP3    H125224   5.389   7.543   5.002 -0.9159  1.4179 -0.7043
 8427TIP3    H225225   5.404   7.461   5.128  0.8271  1.5787 -0.7797
 8428TIP3   OH225226   6.289   0.966   6.057  0.4722 -0.5266 -0.1619
 8428TIP3    H125227   6.323   0.910   6.127 -2.0001 -2.1602 -0.1168
 8428TIP3    H225228   6.253   1.042   6.103 -0.9753 -1.5022  0.4272
 8429TIP3   OH225229   5.134   3.162   0.657 -0.5033 -0.5020 -0.0998
 8429TIP3    H125230   5.081   3.085   0.635 -0.4167 -0.7441  0.5223
 8429TIP3    H225231   5.071   3.227   0.687 -0.7901  0.3452 -2.3662
 8430TIP3   OH225232   2.501   4.016   1.279  0.0561  0.4422  0.4330
 8430TIP3    H125233   2.431   4.065   1.322 -1.3609 -2.5320  1.8238
 8430TIP3    H225234   2.461   3.983   1.199  0.5861  0.5265  0.1326
 8431TIP3   OH225235   6.551   0.751   4.335 -0.3761  0.0701 -0.3854
 8431TIP3    H125236   6.625   0.783   4.387 -0.4895 -1.0695  0.5087
 8431TIP3    H225237   6.592   0.706   4.261 -0.1623 -0.4940  0.0697
 8432TIP3   OH225238   6.933   4.914   3.124 -0.3033  0.4997  0.0181
 8432TIP3    H125239   6.878   4.837   3.111  0.6432 -0.1914 -0.0154
 8432TIP3    H225240   7.009   4.898   3.068  0.0845  1.2720  0.3139
 8433TIP3   OH225241   0.394   4.825   2.929  0.1865 -0.2053 -0.9089
 8433TIP3    H125242   0.359   4.819   3.018 -0.7981 -4.6406 -1.3782
 8433TIP3    H225243   0.362   4.909   2.896 -1.9160  0.2445  1.9594
 8434TIP3   OH225244   2.740   7.124   1.026 -0.0118 -0.1930 -0.2949
 8434TIP3    H125245   2.819   7.129   0.972 -1.0981 -1.0291 -2.0841
 8434TIP3    H225246   2.714   7.032   1.021  0.1280 -0.4232  2.1798
 8435TIP3   OH225247   3.211   4.698   3.981  0.7254  0.2410  0.4237
 8435TIP3    H125248   3.246   4.723   3.895  1.0082 -1.3222  0.0632
 8435TIP3    H225249   3.147   4.630   3.962  2.5349 -1.9203  1.5623
 8436TIP3   OH225250   7.689   6.446   3.245 -0.5135  0.0180 -1.1356
 8436TIP3    H125251   7.642   6.502   3.307  0.3830  0.3448 -0.7376
 8436TIP3    H225252   7.736   6.383   3.299  1.1981  1.0223 -1.3876
 8437TIP3   OH225253   5.065   7.047   4.672 -0.3046 -0.1275 -0.1349
 8437TIP3    H125254   4.990   7.093   4.634  0.2722  1.4547  0.5389
 8437TIP3    H225255   5.028   6.996   4.744 -0.8632 -0.0891 -0.3908
 8438TIP3   OH225256   0.844   5.183   0.981  0.2714  0.1402 -0.2682
 8438TIP3    H125257   0.798   5.123   0.922  1.2812  1.1947 -2.2569
 8438TIP3    H225258   0.899   5.127   1.035 -1.1443 -0.9138  0.1257
 8439TIP3   OH225259   4.709   4.769   1.330  0.3850 -0.2436 -0.7194
 8439TIP3    H125260   4.788   4.725   1.364  1.3070 -0.6082 -3.1285
 8439TIP3    H225261   4.741   4.853   1.297 -0.6847  0.5845  0.2363
 8440TIP3   OH225262   6.698   3.565   1.567  0.0702 -0.0124 -0.0341
 8440TIP3    H125263   6.720   3.491   1.624  0.7445  0.1297 -0.1092
 8440TIP3    H225264   6.748   3.549   1.488  1.8380  1.5822  0.7018
 8441TIP3   OH225265   1.002   7.333   4.188 -0.0635 -0.0383 -0.1432
 8441TIP3    H125266   0.996   7.279   4.109 -1.2998  0.5412 -0.4589
 8441TIP3    H225267   1.017   7.422   4.156 -3.2014  0.6657  0.0793
 8442TIP3   OH225268   3.223   6.750   6.409  0.1268  0.1994 -0.1861
 8442TIP3    H125269   3.240   6.731   6.317  1.2833  2.7683 -0.5810
 8442TIP3    H225270   3.168   6.677   6.439  1.2799 -1.6799 -2.3688
 8443TIP3   OH225271   1.136   2.523   1.689 -0.1611 -0.5842 -0.4837
 8443TIP3    H125272   1.210   2.466   1.711  1.4283  1.5129 -0.0061
 8443TIP3    H225273   1.155   2.554   1.601  1.3701  2.4546  0.7685
 8444TIP3   OH225274   0.660   7.819   1.624 -0.2047  0.4789 -0.2905
 8444TIP3    H125275   0.578   7.803   1.577  0.5214  0.0882 -1.4403
 8444TIP3    H225276   0.695   7.732   1.642 -0.3900  0.6225  0.8675
 8445TIP3   OH225277   2.897   1.277   0.218  0.5985 -0.1783  0.0096
 8445TIP3    H125278   2.887   1.196   0.268 -3.0488 -0.5058 -1.0128
 8445TIP3    H225279   2.848   1.342   0.268  1.1168  0.7101 -0.6219
 8446TIP3   OH225280   5.911   3.052   3.358 -0.0956  0.1895  0.2912
 8446TIP3    H125281   5.932   3.112   3.430 -1.3331 -0.8918  1.5969
 8446TIP3    H225282   5.885   3.109   3.286  1.9797  1.3362  0.3522
 8447TIP3   OH225283   6.861   4.187   4.209 -0.2397 -0.2312  0.1098
 8447TIP3    H125284   6.937   4.204   4.153 -0.1871 -0.1985  0.1900
 8447TIP3    H225285   6.794   4.248   4.179 -1.0775 -1.8468 -1.5693
 8448TIP3   OH225286   5.126   5.444   5.402  0.3822  0.0874 -0.2854
 8448TIP3    H125287   5.154   5.459   5.312  0.7084  0.7898 -0.0762
 8448TIP3    H225288   5.177   5.507   5.454  1.0656 -1.0960  0.5298
 8449TIP3   OH225289   0.395   5.360   4.774  0.0207 -0.6850  0.4819
 8449TIP3    H125290   0.309   5.368   4.734 -0.2158 -1.1620  0.8841
 8449TIP3    H225291   0.388   5.409   4.856  0.6629  0.7375 -0.2808
 8450TIP3   OH225292   0.253   5.028   3.973  0.0639 -0.3286 -0.0188
 8450TIP3    H125293   0.178   5.087   3.965  0.1370 -0.0932  0.9206
 8450TIP3    H225294   0.327   5.078   3.937  0.1202  0.1563  0.7520
 8451TIP3   OH225295   0.332   2.393   0.049 -0.9086 -0.3986 -0.2661
 8451TIP3    H125296   0.254   2.434   0.013 -0.6834  0.6689  0.4322
 8451TIP3    H225297   0.405   2.445   0.014 -0.6130 -0.2647  0.5201
 8452TIP3   OH225298   4.432   2.362   6.769  0.0474 -0.0085 -0.1835
 8452TIP3    H125299   4.373   2.377   6.695  1.2519  0.7675 -1.0392
 8452TIP3    H225300   4.475   2.446   6.783  0.5435 -0.4040  0.7877
 8453TIP3   OH225301   0.382   6.010   2.059 -0.2001 -0.7638  0.0797
 8453TIP3    H125302   0.477   6.005   2.069 -0.2496 -1.8817  0.1747
 8453TIP3    H225303   0.360   5.934   2.006 -1.0034 -0.2808 -0.2991
 8454TIP3   OH225304   0.692   6.971   6.652 -0.0507 -0.3297  0.6955
 8454TIP3    H125305   0.676   6.969   6.557 -0.3951 -0.6197  0.7541
 8454TIP3    H225306   0.607   6.951   6.690 -0.4263  1.8817  1.1291
 8455TIP3   OH225307   3.864   1.915   1.121  0.3775 -0.1126 -0.4745
 8455TIP3    H125308   3.832   1.983   1.180 -1.2497 -0.9577 -0.3107
 8455TIP3    H225309   3.832   1.942   1.035 -0.1227 -0.5470 -0.4348
 8456TIP3   OH225310   0.586   1.565   3.272  0.5415  0.4783 -0.6138
 8456TIP3    H125311   0.541   1.599   3.195  2.0740  0.0523 -1.7614
 8456TIP3    H225312   0.668   1.529   3.238  1.2900  0.3035  1.2257
 8457TIP3   OH225313   5.687   6.672   5.744 -0.1091 -0.2080 -0.2466
 8457TIP3    H125314   5.634   6.737   5.697 -0.7800 -0.6848 -0.1573
 8457TIP3    H225315   5.738   6.629   5.676 -0.5128 -0.3699 -0.4510
 8458TIP3   OH225316   0.839   6.018   3.786  0.0746  0.0911 -0.2082
 8458TIP3    H125317   0.778   5.979   3.848 -0.0298  1.9788  0.9567
 8458TIP3    H225318   0.911   6.051   3.840  0.5867  0.6848 -1.2222
 8459TIP3   OH225319   8.267   2.351   1.791  0.0468 -0.2233  0.1999
 8459TIP3    H125320   8.210   2.419   1.754  0.2420 -0.1669  0.0008
 8459TIP3    H225321   8.221   2.322   1.870 -0.1076  0.0399  0.2101
 8460TIP3   OH225322   6.411   1.272   5.273 -0.3172  0.2569  0.1916
 8460TIP3    H125323   6.318   1.269   5.251 -0.4874 -0.6226  0.9636
 8460TIP3    H225324   6.418   1.226   5.357  0.7932  0.4386  0.2239
 8461TIP3   OH225325   1.246   1.619   1.944 -0.0795 -0.2295 -0.2925
 8461TIP3    H125326   1.230   1.677   1.870 -1.3093 -0.8082 -0.4978
 8461TIP3    H225327   1.267   1.678   2.016 -0.2251  0.4136 -0.7597
 8462TIP3   OH225328   4.398   2.701   3.002 -0.0174 -1.1030  0.0442
 8462TIP3    H125329   4.366   2.624   2.955  0.3498 -0.3478 -1.5417
 8462TIP3    H225330   4.400   2.675   3.094 -1.8601 -2.2836 -0.2099
 8463TIP3   OH225331   7.958   0.229   5.028  0.3563 -0.3687 -0.3205
 8463TIP3    H125332   7.987   0.311   4.987  0.4487 -0.4253 -0.3685
 8463TIP3    H225333   7.999   0.230   5.114  2.9454 -1.8341 -1.4481
 8464TIP3   OH225334   5.053   0.686   5.277 -0.6521  0.6408  0.5159
 8464TIP3    H125335   4.959   0.698   5.293 -1.1621 -2.6000  0.5870
 8464TIP3    H225336   5.059   0.603   5.230  2.2512  0.2390  1.3843
 8465TIP3   OH225337   4.287   3.395   3.396  0.3481  0.0163  0.2877
 8465TIP3    H125338   4.254   3.420   3.310  0.2716  0.1353  0.3510
 8465TIP3    H225339   4.217   3.343   3.435 -1.0097  2.6089  1.5613
 8466TIP3   OH225340   0.520   6.607   2.365  0.2124  0.1685 -0.0481
 8466TIP3    H125341   0.536   6.591   2.458  0.4578  0.3036 -0.0649
 8466TIP3    H225342   0.582   6.550   2.320  0.2507  0.2697 -0.1241
 8467TIP3   OH225343   4.548   1.299   0.391  0.2493 -0.0884  0.0195
 8467TIP3    H125344   4.541   1.331   0.481 -1.0151  0.0932 -0.1309
 8467TIP3    H225345   4.458   1.293   0.361  0.6898  1.7331 -1.9023
 8468TIP3   OH225346   3.298   3.884   1.664  0.5242 -0.0813 -0.5380
 8468TIP3    H125347   3.333   3.796   1.654 -2.5776 -1.3006 -1.8756
 8468TIP3    H225348   3.321   3.928   1.581 -0.5695 -0.6924 -1.1826
 8469TIP3   OH225349   8.123   3.539   0.153  0.3574  0.7065 -0.2805
 8469TIP3    H125350   8.079   3.615   0.192 -0.8480 -0.1520  0.0946
 8469TIP3    H225351   8.174   3.502   0.225  2.4523  2.1863 -0.9237
 8470TIP3   OH225352   4.529   4.696   1.855  0.0073  0.4702  0.3128
 8470TIP3    H125353   4.589   4.704   1.781 -0.9555  1.3967 -0.3961
 8470TIP3    H225354   4.444   4.721   1.820 -0.6855 -0.2062  1.4531
 8471TIP3   OH225355   7.383   7.625   2.628 -0.1853 -0.0977  0.0828
 8471TIP3    H125356   7.396   7.558   2.561 -1.5140 -0.6708  0.3671
 8471TIP3    H225357   7.471   7.643   2.662 -0.0070 -3.9714  2.1787
 8472TIP3   OH225358   7.698   1.725   1.433 -0.2461  0.1504 -0.2555
 8472TIP3    H125359   7.711   1.769   1.518  0.8740 -0.8920  0.1417
 8472TIP3    H225360   7.694   1.797   1.370  0.9694  0.8906  0.4500
 8473TIP3   OH225361   3.321   6.104   6.254 -0.1755 -0.1176  0.2222
 8473TIP3    H125362   3.272   6.184   6.240  0.5674  0.3201  0.0582
 8473TIP3    H225363   3.386   6.103   6.184  1.8015  0.6994  1.9445
 8474TIP3   OH225364   6.269   4.497   1.338  0.0505 -0.3068  0.1269
 8474TIP3    H125365   6.265   4.446   1.419  1.8908  0.3036  0.6467
 8474TIP3    H225366   6.184   4.541   1.333 -1.6251 -3.3422 -0.3574
 8475TIP3   OH225367   7.117   2.283   2.117 -0.4061  0.6046  0.6787
 8475TIP3    H125368   7.115   2.222   2.190 -0.2344  0.4533  0.5596
 8475TIP3    H225369   7.203   2.325   2.123 -0.2463  0.3309  0.3569
 8476TIP3   OH225370   2.893   2.531   1.145 -0.2318  0.2363  0.0440
 8476TIP3    H125371   2.938   2.557   1.065 -1.7386  2.5503 -0.1633
 8476TIP3    H225372   2.829   2.466   1.117  0.7155 -0.6111 -0.2093
 8477TIP3   OH225373   2.074   4.736  -0.017 -0.1116 -0.1746 -0.0859
 8477TIP3    H125374   2.098   4.759   0.072 -1.5736  0.0569  0.2706
 8477TIP3    H225375   1.987   4.697  -0.010 -0.3138 -0.0398 -1.4175
 8478TIP3   OH225376   6.923   3.526   4.415  0.2967 -0.6450  0.3963
 8478TIP3    H125377   6.878   3.598   4.460 -0.2646 -2.3055  2.7052
 8478TIP3    H225378   6.953   3.564   4.333 -0.4420  2.0639  1.2635
 8479TIP3   OH225379   6.582   5.073   4.298  0.0278  0.2873 -0.1748
 8479TIP3    H125380   6.636   4.994   4.300  1.3933  1.1777 -0.9833
 8479TIP3    H225381   6.527   5.066   4.376  0.4459 -1.2326  0.0070
 8480TIP3   OH225382   3.441   0.985   5.701  0.1392 -0.2700  0.8714
 8480TIP3    H125383   3.346   0.998   5.695  0.2341 -0.2516 -1.4522
 8480TIP3    H225384   3.468   1.038   5.776 -1.4006  1.5509  0.2144
 8481TIP3   OH225385   1.604   4.477   3.417 -0.1598  0.3211  0.3851
 8481TIP3    H125386   1.524   4.483   3.365 -0.1256  1.6380  0.4588
 8481TIP3    H225387   1.672   4.457   3.353 -0.3239  0.6111  0.1186
 8482TIP3   OH225388   4.873   1.409   2.736 -0.0662  0.5754  0.0012
 8482TIP3    H125389   4.896   1.403   2.829  1.4547  1.3843 -0.2867
 8482TIP3    H225390   4.926   1.340   2.694  0.8943  1.5787 -0.5055
 8483TIP3   OH225391   7.349   2.821   0.400  0.0942  0.1585 -0.0012
 8483TIP3    H125392   7.311   2.848   0.483  1.6056  0.6040  0.5635
 8483TIP3    H225393   7.336   2.726   0.397 -0.5275  0.2251  0.4353
 8484TIP3   OH225394   3.373   7.129   0.647  0.6071 -0.4730  0.1934
 8484TIP3    H125395   3.423   7.050   0.663  0.8519 -0.4554 -0.4705
 8484TIP3    H225396   3.306   7.103   0.583  0.3863 -0.2572  0.3309
 8485TIP3   OH225397   4.362   7.071   4.289  0.1646 -0.2202  0.3914
 8485TIP3    H125398   4.415   7.149   4.274 -0.2742 -0.1325 -0.7691
 8485TIP3    H225399   4.420   7.011   4.337  0.3428  0.9892  1.7670
 8486TIP3   OH225400   7.315   1.572   2.785 -0.2068 -0.3482  0.1834
 8486TIP3    H125401   7.294   1.650   2.733  0.0009  1.4025  2.5437
 8486TIP3    H225402   7.411   1.570   2.786 -0.2089 -1.0228 -0.3678
 8487TIP3   OH225403   0.015   4.597   4.023 -0.0377 -0.7008  0.3051
 8487TIP3    H125404   0.049   4.668   4.078 -0.0104  0.2034 -0.8517
 8487TIP3    H225405   0.071   4.522   4.044  1.7621  0.3548 -0.4661
 8488TIP3   OH225406   7.690   7.833   5.463  0.0577 -0.1028 -0.1250
 8488TIP3    H125407   7.600   7.824   5.433  0.0139 -3.2863  0.5815
 8488TIP3    H225408   7.710   7.749   5.504  3.9560 -0.2966 -1.9174
 8489TIP3   OH225409   5.689   1.023   0.757 -0.6386 -0.1435 -0.1966
 8489TIP3    H125410   5.611   1.017   0.701 -0.7469 -2.3066  0.1096
 8489TIP3    H225411   5.758   0.980   0.707  0.0618  0.6377  0.0709
 8490TIP3   OH225412   1.781   1.069   4.828 -0.1693  0.1230  0.4906
 8490TIP3    H125413   1.799   1.161   4.848  0.0472  0.0255  0.7479
 8490TIP3    H225414   1.755   1.070   4.736  1.2932  0.2554  0.0538
 8491TIP3   OH225415   4.690   5.424   2.917  0.2955  0.0008  0.6332
 8491TIP3    H125416   4.773   5.378   2.926  0.5078  0.2762  0.1090
 8491TIP3    H225417   4.628   5.373   2.970  0.7076 -0.4236  0.7077
 8492TIP3   OH225418   1.466   7.371   3.292 -0.1171  0.1765 -0.3876
 8492TIP3    H125419   1.396   7.357   3.356 -0.1656  3.2239  0.3728
 8492TIP3    H225420   1.437   7.447   3.242  0.5004 -1.4051 -3.3118
 8493TIP3   OH225421   7.069   2.935   5.570 -0.0455  0.4434  0.1520
 8493TIP3    H125422   7.054   2.974   5.484 -2.5293 -0.0542  0.2909
 8493TIP3    H225423   7.027   2.994   5.632  0.5135  0.0853  0.8969
 8494TIP3   OH225424   2.958   3.934   3.818  0.0057 -0.0796 -0.2509
 8494TIP3    H125425   2.866   3.960   3.807 -0.8038 -1.1025  2.9520
 8494TIP3    H225426   2.992   3.997   3.882  0.9711 -0.8077 -0.0381
 8495TIP3   OH225427   0.676   2.188   4.839  0.3112  0.2468 -0.6147
 8495TIP3    H125428   0.768   2.190   4.813 -0.0445 -0.8258 -2.0470
 8495TIP3    H225429   0.662   2.272   4.883  2.2933 -0.1127  0.8575
 8496TIP3   OH225430   7.550   7.572   6.649  0.6987 -0.7507  0.0188
 8496TIP3    H125431   7.513   7.500   6.598 -2.2509  0.7872 -0.2482
 8496TIP3    H225432   7.563   7.642   6.585 -2.4848  0.9990  1.0865
 8497TIP3   OH225433   4.707   3.163   5.269  0.2612  0.4754 -0.0103
 8497TIP3    H125434   4.725   3.210   5.188 -1.1714 -0.4256 -0.8965
 8497TIP3    H225435   4.793   3.148   5.308  1.1348 -0.3186 -2.0959
 8498TIP3   OH225436   1.365   3.569   1.930  0.1734 -0.4918 -0.4289
 8498TIP3    H125437   1.453   3.599   1.953  0.1558  0.2965 -1.3466
 8498TIP3    H225438   1.371   3.543   1.839 -0.3938 -1.0598 -0.3134
 8499TIP3   OH225439   6.675   4.997   1.841  0.1211  0.1732  0.2172
 8499TIP3    H125440   6.605   5.062   1.835  1.1750  1.2440 -1.4264
 8499TIP3    H225441   6.753   5.042   1.808  1.3713 -1.2909  1.0158
 8500TIP3   OH225442   3.345   7.332   1.768 -0.5173  0.1069  0.8216
 8500TIP3    H125443   3.269   7.341   1.826 -0.8073 -1.0558  0.6410
 8500TIP3    H225444   3.403   7.271   1.813  0.6894  1.5747  1.3146
 8501TIP3   OH225445   4.256   1.735   4.755 -0.6140 -0.0394  0.1265
 8501TIP3    H125446   4.217   1.688   4.829  0.3946  1.7095  1.8822
 8501TIP3    H225447   4.346   1.752   4.783  0.0720 -0.0950 -1.9227
 8502TIP3   OH225448   4.116   3.889   0.957  0.0828  0.1149  0.0598
 8502TIP3    H125449   4.054   3.877   1.028  0.2436  0.4601  0.2622
 8502TIP3    H225450   4.125   3.803   0.917 -0.1337 -0.0425  0.3532
 8503TIP3   OH225451   8.073   6.285   2.746  0.3374  0.3938  0.1398
 8503TIP3    H125452   8.130   6.223   2.701  0.0386 -0.1072  0.4526
 8503TIP3    H225453   8.092   6.272   2.839 -1.4185 -0.8984  0.3505
 8504TIP3   OH225454   0.659   3.827   2.858  0.0249  0.3048 -0.4856
 8504TIP3    H125455   0.677   3.894   2.924 -1.1442  1.1557 -0.9954
 8504TIP3    H225456   0.724   3.843   2.790  0.8435 -0.1863  0.1590
 8505TIP3   OH225457   2.000   3.845   1.392 -0.0648 -0.2718  0.2664
 8505TIP3    H125458   1.956   3.875   1.471 -0.9823  0.7342 -0.5873
 8505TIP3    H225459   2.080   3.897   1.388 -1.1116  1.3725 -0.6157
 8506TIP3   OH225460   0.552   4.168   6.573  0.4579  0.0375  0.2784
 8506TIP3    H125461   0.497   4.120   6.511  0.8510  0.5035 -0.4535
 8506TIP3    H225462   0.637   4.124   6.568  0.7375  0.6111 -0.1826
 8507TIP3   OH225463   1.647   1.317   4.035  0.2190 -0.2780 -0.1230
 8507TIP3    H125464   1.717   1.260   4.068  0.9211  0.7739  0.2465
 8507TIP3    H225465   1.616   1.273   3.956 -1.7416 -3.0813  1.9812
 8508TIP3   OH225466   4.116   5.246   0.914 -0.5993  0.7405 -0.2817
 8508TIP3    H125467   4.200   5.205   0.894 -0.6197  1.1101 -1.1644
 8508TIP3    H225468   4.059   5.173   0.941 -0.2362  0.3833 -0.4848
 8509TIP3   OH225469   0.580   2.000   4.038 -0.0576 -0.4384  0.0416
 8509TIP3    H125470   0.537   2.084   4.053 -0.0894 -0.2081 -1.2779
 8509TIP3    H225471   0.622   1.980   4.122  0.1452  1.0069  0.3154
 8510TIP3   OH225472   0.108   1.663   0.447 -0.0004 -0.0027  0.2652
 8510TIP3    H125473   0.144   1.728   0.508  0.5185 -0.9179  0.9545
 8510TIP3    H225474   0.179   1.646   0.386  0.7704 -1.7244  1.5580
 8511TIP3   OH225475   0.466   5.203   0.474  0.0586  0.3479 -0.1147
 8511TIP3    H125476   0.496   5.165   0.557  1.9135  0.2200 -0.7956
 8511TIP3    H225477   0.403   5.270   0.500 -0.1350 -0.3450  1.3380
 8512TIP3   OH225478   6.066   6.718   2.275 -0.3971 -0.1818 -0.1422
 8512TIP3    H125479   6.013   6.699   2.353  0.7130 -0.5837  0.5374
 8512TIP3    H225480   6.152   6.681   2.295  0.3498  1.0683 -0.9450
 8513TIP3   OH225481   0.590   7.008   3.911 -0.3922 -0.7606 -0.5057
 8513TIP3    H125482   0.649   7.054   3.970 -1.0636  1.4507 -1.4692
 8513TIP3    H225483   0.647   6.947   3.864  1.1683  1.1603 -1.2720
 8514TIP3   OH225484   8.015   1.293   2.679  0.2870  0.0675  0.1656
 8514TIP3    H125485   8.080   1.338   2.625  2.1803 -2.8027 -0.1722
 8514TIP3    H225486   7.995   1.355   2.749  2.0687  1.7519 -0.7187
 8515TIP3   OH225487   8.137   5.846   1.987 -0.0748 -0.1646 -0.3501
 8515TIP3    H125488   8.225   5.861   2.023 -0.9449  0.2535  1.7088
 8515TIP3    H225489   8.147   5.863   1.893  2.5695 -2.4315 -0.5967
 8516TIP3   OH225490   0.281   6.650   2.605  0.3098 -0.3062 -0.3872
 8516TIP3    H125491   0.218   6.662   2.676 -1.6743  1.9285 -2.3614
 8516TIP3    H225492   0.256   6.566   2.565 -0.7832  0.0459 -0.4842
 8517TIP3   OH225493   6.909   4.939   3.653 -0.0496 -0.2352  0.1307
 8517TIP3    H125494   6.817   4.933   3.676 -0.0717 -2.4720 -0.2977
 8517TIP3    H225495   6.910   4.973   3.564 -0.3478  1.3595  0.7164
 8518TIP3   OH225496   6.083   6.417   6.221 -0.1027 -0.0574 -0.4522
 8518TIP3    H125497   6.093   6.383   6.310  1.0842  1.6820  0.1515
 8518TIP3    H225498   5.996   6.389   6.194 -0.8938  0.1474  1.6502
 8519TIP3   OH225499   3.467   3.947   5.149 -0.3165  0.0553  0.5654
 8519TIP3    H125500   3.399   3.880   5.157  0.2761 -1.0954 -2.4596
 8519TIP3    H225501   3.546   3.905   5.183 -0.3518 -0.0335  0.5381
 8520TIP3   OH225502   6.984   3.033   6.753  0.5477  0.0040  0.5774
 8520TIP3    H125503   7.049   3.100   6.778  0.1157  0.0375  1.6686
 8520TIP3    H225504   7.013   3.004   6.667  0.9714  1.3251  0.2343
 8521TIP3   OH225505   1.044   0.115   0.917 -0.2070  0.0942 -0.3327
 8521TIP3    H125506   1.066   0.191   0.863  0.8955  0.1640  0.1732
 8521TIP3    H225507   1.048   0.148   1.007 -0.6234 -0.3491 -0.1486
 8522TIP3   OH225508   8.180   4.307   6.288 -0.0009  0.0488 -0.1506
 8522TIP3    H125509   8.097   4.347   6.316  0.8136  0.6341  1.5351
 8522TIP3    H225510   8.222   4.375   6.235 -0.0473  0.2256  0.0385
 8523TIP3   OH225511   1.791   3.511   2.458  0.3565 -0.2719  0.3720
 8523TIP3    H125512   1.780   3.417   2.468  0.6633 -0.2215  1.2912
 8523TIP3    H225513   1.737   3.549   2.527  0.2447  0.2246  0.0150
 8524TIP3   OH225514   7.587   5.145   6.663 -0.1085 -0.2340 -0.2387
 8524TIP3    H125515   7.615   5.232   6.634 -0.4528 -0.4050 -1.1122
 8524TIP3    H225516   7.527   5.163   6.736  0.3045  0.2255  0.0036
 8525TIP3   OH225517   5.910   4.379   3.437  0.4041  0.2453  0.2821
 8525TIP3    H125518   5.916   4.388   3.532  1.6540  2.6513  0.0527
 8525TIP3    H225519   5.938   4.464   3.403 -0.7931 -0.2678 -2.2432
 8526TIP3   OH225520   3.585   4.900   4.087  0.5248  0.5036 -0.0122
 8526TIP3    H125521   3.509   4.906   4.145 -2.8056  1.8591 -4.0315
 8526TIP3    H225522   3.638   4.977   4.109 -0.3197  0.6949  1.5154
 8527TIP3   OH225523   6.151   5.276   3.101 -0.8695  0.0968 -0.2512
 8527TIP3    H125524   6.092   5.279   3.176 -0.9121  1.8479 -0.3000
 8527TIP3    H225525   6.179   5.367   3.090  1.2073 -0.5654 -0.7375
 8528TIP3   OH225526   2.692   7.616   0.821 -0.3583 -0.3147  0.3209
 8528TIP3    H125527   2.619   7.563   0.853  0.1517 -1.3149 -0.1196
 8528TIP3    H225528   2.652   7.700   0.797 -1.2401 -0.6067  0.7223
 8529TIP3   OH225529   2.165   7.611   1.339  0.1269  0.3557  0.0659
 8529TIP3    H125530   2.179   7.516   1.334  0.2022  0.1954  2.4219
 8529TIP3    H225531   2.242   7.648   1.296 -0.4367 -0.5991 -1.9026
 8530TIP3   OH225532   7.494   5.291   4.574  0.0697  0.1115 -0.2923
 8530TIP3    H125533   7.519   5.203   4.600  2.2264  0.2306 -1.6814
 8530TIP3    H225534   7.408   5.281   4.534 -0.8628 -0.9015  1.8108
 8531TIP3   OH225535   2.596   2.330   3.624 -0.2457  0.4416 -0.3263
 8531TIP3    H125536   2.568   2.256   3.678  0.3789  0.6134  0.2473
 8531TIP3    H225537   2.608   2.402   3.686  0.6673  0.5936 -0.6566
 8532TIP3   OH225538   5.595   6.790   5.494  0.1681 -0.1485  0.3867
 8532TIP3    H125539   5.624   6.829   5.412 -1.4551  0.5896  0.1189
 8532TIP3    H225540   5.616   6.697   5.485  0.3372 -0.0240 -0.7056
 8533TIP3   OH225541   0.016   0.420   5.053  0.5317  0.1431  0.8389
 8533TIP3    H125542   0.094   0.445   5.005  0.7496 -0.3179  0.9463
 8533TIP3    H225543  -0.013   0.500   5.096  0.5555  0.4674  0.2512
 8534TIP3   OH225544   5.234   7.121   3.405  0.2204 -0.2217  0.2511
 8534TIP3    H125545   5.300   7.179   3.442  1.6679 -1.4926 -0.2152
 8534TIP3    H225546   5.223   7.151   3.315  0.8586 -0.5394  0.0569
 8535TIP3   OH225547   2.480   2.429   3.887  0.9172 -0.3880  0.0803
 8535TIP3    H125548   2.462   2.514   3.926 -0.0324 -0.5774  0.0815
 8535TIP3    H225549   2.397   2.383   3.891  1.5517 -1.5553  0.6579
 8536TIP3   OH225550   7.552   7.270   1.694  0.2476 -0.3239  0.8477
 8536TIP3    H125551   7.646   7.280   1.683  0.1865 -0.6075  0.0161
 8536TIP3    H225552   7.516   7.358   1.678  0.2718 -0.4638  0.0211
 8537TIP3   OH225553   6.752   2.873   0.690 -0.4551 -0.3972 -0.1137
 8537TIP3    H125554   6.779   2.801   0.632 -0.1278 -0.2189 -0.1863
 8537TIP3    H225555   6.776   2.842   0.778  1.0005  0.1984 -0.2719
 8538TIP3   OH225556   1.689   7.093   2.954 -0.1955 -0.2727  0.0738
 8538TIP3    H125557   1.704   7.179   2.915 -0.2242  0.4777  1.6239
 8538TIP3    H225558   1.776   7.058   2.972 -0.1887 -0.1621  0.2626
 8539TIP3   OH225559   5.297   1.491   2.098  0.1755 -0.4054  0.0084
 8539TIP3    H125560   5.217   1.453   2.060 -0.1114  0.4512 -0.2632
 8539TIP3    H225561   5.357   1.497   2.024  0.1707 -0.1917  0.0231
 8540TIP3   OH225562   5.690   7.694   4.704  0.3652 -0.2823 -0.4824
 8540TIP3    H125563   5.757   7.695   4.772  0.2374  0.5303 -0.3585
 8540TIP3    H225564   5.656   7.783   4.702  0.3067 -0.3076 -1.5490
 8541TIP3   OH225565   8.037   3.412   4.550  0.5697 -0.0451  0.2998
 8541TIP3    H125566   8.052   3.455   4.465 -1.5696  0.0175 -0.0861
 8541TIP3    H225567   8.022   3.485   4.611 -2.1471 -0.1269 -0.1730
 8542TIP3   OH225568   7.004   7.784   6.057 -0.3120 -0.1645 -0.1273
 8542TIP3    H125569   6.928   7.725   6.065 -0.0697 -0.2821  2.1939
 8542TIP3    H225570   7.076   7.735   6.096  0.6986  0.4045 -1.2349
 8543TIP3   OH225571   5.694   5.135   4.935 -0.1502  0.4083  0.4100
 8543TIP3    H125572   5.666   5.125   4.844 -1.1013  0.5991  0.6793
 8543TIP3    H225573   5.706   5.046   4.967  0.9422  0.3450 -0.1186
 8544TIP3   OH225574   2.304   3.679   5.420 -0.2598 -0.5021 -0.0672
 8544TIP3    H125575   2.252   3.642   5.491 -0.1688  0.0200  0.2717
 8544TIP3    H225576   2.256   3.757   5.393 -1.3065 -1.6992 -1.8623
 8545TIP3   OH225577   3.194   6.941   4.499  0.2649 -0.9722 -0.0986
 8545TIP3    H125578   3.138   6.901   4.434 -2.6239 -0.7893  2.0780
 8545TIP3    H225579   3.194   6.880   4.573  0.3197  0.4677  1.1609
 8546TIP3   OH225580   0.117   0.868   4.546  0.0245  0.0837 -0.2711
 8546TIP3    H125581   0.033   0.898   4.581 -0.4867 -0.2614 -1.1868
 8546TIP3    H225582   0.182   0.917   4.597 -0.7502  1.4576 -0.5452
 8547TIP3   OH225583   7.982   1.522   0.518  0.9205  0.2657  0.1903
 8547TIP3    H125584   8.060   1.577   0.506  1.0841 -0.1836 -0.9035
 8547TIP3    H225585   7.946   1.551   0.602  0.9786  2.0874 -0.3590
 8548TIP3   OH225586   4.283   1.930   5.000  0.0962  0.0390 -0.4902
 8548TIP3    H125587   4.271   1.984   4.922  2.0871  2.2137  0.6052
 8548TIP3    H225588   4.346   1.978   5.053 -0.3416 -1.9268  1.9732
 8549TIP3   OH225589   0.664   6.653   1.914 -0.2585  0.0224 -0.3649
 8549TIP3    H125590   0.754   6.621   1.924  0.0807  0.7741 -0.8988
 8549TIP3    H225591   0.609   6.578   1.937  0.5025 -0.4450 -0.0247
 8550TIP3   OH225592   4.631   3.829   0.556 -0.1590 -0.1111  0.5641
 8550TIP3    H125593   4.638   3.839   0.461 -2.3634  1.8349  0.5272
 8550TIP3    H225594   4.719   3.848   0.589  1.1918 -2.7929 -1.1200
 8551TIP3   OH225595   2.082   6.192   2.898 -0.9552 -0.5456 -0.3191
 8551TIP3    H125596   2.074   6.282   2.931  0.8883  0.2148 -1.7611
 8551TIP3    H225597   2.173   6.168   2.918 -1.0368 -1.5825 -1.1344
 8552TIP3   OH225598   2.630   5.629   5.025  0.0139 -0.5874  0.2190
 8552TIP3    H125599   2.585   5.684   5.089  0.5731 -0.7243  0.7488
 8552TIP3    H225600   2.563   5.569   4.993 -0.2006 -0.7457  0.9389
 8553TIP3   OH225601   0.471   7.346   0.497  0.2208  0.1185 -0.2298
 8553TIP3    H125602   0.559   7.312   0.511 -1.0400 -3.1629  0.7860
 8553TIP3    H225603   0.479   7.441   0.506  3.8943  0.1124 -1.9916
 8554TIP3   OH225604   5.688   0.582   2.971 -0.6078 -0.4052  0.4462
 8554TIP3    H125605   5.665   0.668   3.007  1.2376 -0.1162  1.0404
 8554TIP3    H225606   5.638   0.577   2.889 -0.5991  1.3461  0.2833
 8555TIP3   OH225607   2.078   7.223   0.665 -0.1317 -0.3752 -0.0399
 8555TIP3    H125608   2.153   7.283   0.672 -1.1681  1.3527 -2.3140
 8555TIP3    H225609   2.116   7.140   0.637  0.9784  0.3601 -0.7823
 8556TIP3   OH225610   8.124   0.890   0.642  0.1130  0.2494 -0.3061
 8556TIP3    H125611   8.172   0.944   0.579 -0.2410  1.2437  0.2518
 8556TIP3    H225612   8.086   0.953   0.703  2.8446 -0.7425  2.6911
 8557TIP3   OH225613   4.019   4.447   3.039 -0.1075  0.0259  0.3650
 8557TIP3    H125614   4.070   4.379   3.083  1.0598  0.8223  0.2923
 8557TIP3    H225615   3.993   4.406   2.956  0.2869 -0.4458  0.4642
 8558TIP3   OH225616   3.867   0.952   5.222  0.2359 -0.0964  0.1121
 8558TIP3    H125617   3.953   0.918   5.198  0.2942 -1.2257  1.7641
 8558TIP3    H225618   3.806   0.880   5.202 -0.0825  0.0271  0.6154
 8559TIP3   OH225619   1.786   5.794   5.723  0.4589  0.3569 -0.5628
 8559TIP3    H125620   1.838   5.714   5.732 -1.3406 -0.7143  1.2222
 8559TIP3    H225621   1.798   5.840   5.806  0.8982  1.6227 -1.2973
 8560TIP3   OH225622   5.741   6.074   3.117 -0.0211  0.2098  0.1728
 8560TIP3    H125623   5.651   6.086   3.087  0.2481 -0.0705 -0.7866
 8560TIP3    H225624   5.774   6.000   3.066  0.9105  0.6301  0.1366
 8561TIP3   OH225625   4.748   2.704   0.053  0.4138 -0.2224 -0.3413
 8561TIP3    H125626   4.694   2.658   0.117  0.6868 -0.6209 -0.3892
 8561TIP3    H225627   4.833   2.714   0.095  0.4788 -0.1378 -0.4903
 8562TIP3   OH225628   1.496   1.044   5.576  0.3012 -0.5356  0.0131
 8562TIP3    H125629   1.482   0.949   5.566  2.9289 -0.7711 -3.4053
 8562TIP3    H225630   1.516   1.074   5.487 -1.7050  3.5664  0.7489
 8563TIP3   OH225631   7.501   4.286   2.886  0.2001 -0.0734 -0.4644
 8563TIP3    H125632   7.533   4.343   2.816  0.3525  0.3524 -0.0516
 8563TIP3    H225633   7.577   4.234   2.912  0.5657  0.9311  0.5095
 8564TIP3   OH225634   7.817   7.651   3.320  0.1379  0.0119  0.6773
 8564TIP3    H125635   7.759   7.710   3.271  0.1608 -0.6583 -0.1853
 8564TIP3    H225636   7.785   7.563   3.299  0.5019 -0.3121  1.4334
 8565TIP3   OH225637   4.020   2.342   5.032  0.2647  0.1538 -0.8163
 8565TIP3    H125638   3.961   2.375   5.099 -0.6583  0.0487 -1.5588
 8565TIP3    H225639   4.096   2.310   5.080 -0.5739 -0.3398  0.2113
 8566TIP3   OH225640   3.126   6.311   3.098  0.3911  1.1549 -0.1847
 8566TIP3    H125641   3.083   6.241   3.148  1.7159 -0.1470 -0.7754
 8566TIP3    H225642   3.153   6.374   3.164  0.6370  0.2707  0.5886
 8567TIP3   OH225643   3.612   1.974   2.672  0.5324  0.3642  0.6253
 8567TIP3    H125644   3.663   1.895   2.654  2.3124  1.8750 -1.4359
 8567TIP3    H225645   3.670   2.027   2.727  0.0261  0.9307  0.6142
 8568TIP3   OH225646   4.938   7.104   1.018 -0.6166  0.1335  0.1346
 8568TIP3    H125647   4.853   7.129   1.054 -0.4926 -0.6241  1.0114
 8568TIP3    H225648   4.999   7.169   1.053 -0.4162 -0.8761  1.7726
 8569TIP3   OH225649   3.537   1.961   0.509 -0.2483  0.4520 -0.0744
 8569TIP3    H125650   3.531   1.917   0.594 -0.3929 -0.5947 -0.6161
 8569TIP3    H225651   3.621   1.933   0.474 -0.6648  0.0138 -0.7429
 8570TIP3   OH225652   2.106   6.529   1.456 -0.1853  1.1485  0.3179
 8570TIP3    H125653   2.058   6.549   1.537  0.2598  3.7527  0.0463
 8570TIP3    H225654   2.193   6.504   1.486 -0.8259 -0.7937  0.7024
 8571TIP3   OH225655   5.916   0.842   0.977 -0.1419  0.4990 -0.2986
 8571TIP3    H125656   5.952   0.831   0.889 -0.3713  1.4827 -0.5309
 8571TIP3    H225657   5.934   0.759   1.021 -0.2817 -0.1084 -1.3615
 8572TIP3   OH225658   5.156   4.983   5.149  0.3177  0.0631  0.0666
 8572TIP3    H125659   5.225   5.024   5.097  0.6379  0.2337  0.6160
 8572TIP3    H225660   5.147   4.895   5.111  0.7313  0.0908 -0.1073
 8573TIP3   OH225661   2.122   4.264   4.243 -0.1605 -0.3111 -0.3657
 8573TIP3    H125662   2.171   4.270   4.161 -0.4110  0.0327 -0.4925
 8573TIP3    H225663   2.132   4.349   4.284 -0.4892 -0.3002 -0.3038
 8574TIP3   OH225664   1.127   1.401   3.392  0.7013  0.1382 -0.2034
 8574TIP3    H125665   1.165   1.479   3.352  1.4303 -0.6803 -1.1693
 8574TIP3    H225666   1.033   1.415   3.387  0.8086  1.6413  1.0788
 8575TIP3   OH225667   0.938   3.169   6.292 -0.0861 -0.2863 -0.6531
 8575TIP3    H125668   0.905   3.176   6.202  0.2171 -2.3842 -0.9818
 8575TIP3    H225669   0.895   3.091   6.328  0.9938 -0.3932  0.4765
 8576TIP3   OH225670   2.539   5.006   5.929  0.1619 -0.3954 -0.4929
 8576TIP3    H125671   2.517   5.067   5.998  0.3454  2.3052 -2.6569
 8576TIP3    H225672   2.543   5.059   5.850 -0.8824 -3.4210 -2.7902
 8577TIP3   OH225673   0.259   5.152   6.742  0.0697  0.2738 -0.4781
 8577TIP3    H125674   0.216   5.067   6.732  0.3001  0.1308 -0.2898
 8577TIP3    H225675   0.235   5.201   6.664  0.0824 -0.0321 -0.6761
 8578TIP3   OH225676   1.642   1.694   3.174 -0.3370  0.4249 -0.3232
 8578TIP3    H125677   1.683   1.766   3.223  1.1305 -1.5643  1.5918
 8578TIP3    H225678   1.714   1.655   3.124 -0.9001 -0.2879 -0.6008
 8579TIP3   OH225679   5.416   5.347   6.048 -0.7902 -0.1953  0.2313
 8579TIP3    H125680   5.454   5.288   6.114 -0.6293  0.0494  0.3611
 8579TIP3    H225681   5.487   5.362   5.986 -0.5312  0.6095  0.7100
 8580TIP3   OH225682   1.472   2.766   5.603  0.0544  0.7778 -0.1501
 8580TIP3    H125683   1.432   2.692   5.650  0.0812  0.5488 -0.4790
 8580TIP3    H225684   1.494   2.730   5.517  1.0742  0.8765  0.0666
 8581TIP3   OH225685   1.410   5.866  -0.015 -0.1768  0.0652  0.0993
 8581TIP3    H125686   1.431   5.861   0.078 -0.9968  1.9452  0.4222
 8581TIP3    H225687   1.495   5.857  -0.059  0.8144  2.9154  1.2088
 8582TIP3   OH225688   7.072   1.396   1.178 -0.2290  0.1115 -0.1490
 8582TIP3    H125689   7.095   1.307   1.204 -1.2396 -0.2488 -0.4513
 8582TIP3    H225690   7.143   1.422   1.119  1.7111  0.6718  2.2376
 8583TIP3   OH225691   3.379   4.121   6.115 -0.0887 -0.2844 -0.6511
 8583TIP3    H125692   3.350   4.145   6.203  2.0483 -2.2899  0.7206
 8583TIP3    H225693   3.469   4.154   6.111 -1.0502  2.4266 -3.3026
 8584TIP3   OH225694   5.055   0.640   3.881  0.0720 -0.0099  0.7421
 8584TIP3    H125695   5.131   0.584   3.898 -0.1290 -0.3166  0.6441
 8584TIP3    H225696   4.985   0.602   3.934  0.3101  1.0296  1.8198
 8585TIP3   OH225697   7.247   5.104   6.500  0.2321 -0.0400  0.2581
 8585TIP3    H125698   7.220   5.196   6.505 -0.4523 -0.2163 -0.0739
 8585TIP3    H225699   7.299   5.099   6.420 -1.5943 -0.3803 -0.9784
 8586TIP3   OH225700   6.484   6.484   4.600  0.0208 -0.0439  0.4079
 8586TIP3    H125701   6.423   6.462   4.670 -0.3430  3.0882  1.1987
 8586TIP3    H225702   6.536   6.557   4.634  1.0735  0.4107 -1.9231
 8587TIP3   OH225703   2.219   4.855   4.514 -0.3315 -0.2031 -0.0374
 8587TIP3    H125704   2.157   4.850   4.442 -0.0284 -2.3666 -0.2172
 8587TIP3    H225705   2.305   4.847   4.471 -0.1460 -1.3667  0.5038
 8588TIP3   OH225706   6.467   7.737   1.415 -0.1553 -0.5788 -0.1966
 8588TIP3    H125707   6.493   7.739   1.506 -0.6321 -1.3390 -0.0302
 8588TIP3    H225708   6.409   7.813   1.404 -0.5128 -0.7795  0.2697
 8589TIP3   OH225709   0.305   2.540   3.749 -0.1197 -0.6395 -0.6752
 8589TIP3    H125710   0.266   2.457   3.721 -2.8073  1.0393 -2.3269
 8589TIP3    H225711   0.291   2.599   3.675 -0.7743  2.0432  1.4357
 8590TIP3   OH225712   3.147   0.407   6.046 -0.4720 -0.1135  0.0121
 8590TIP3    H125713   3.156   0.498   6.074  1.0094 -0.1653 -0.1847
 8590TIP3    H225714   3.237   0.378   6.033 -0.9839 -0.9889 -1.9230
 8591TIP3   OH225715   0.368   0.026   2.717 -0.2865  0.0486 -1.0520
 8591TIP3    H125716   0.369   0.121   2.725  0.1637 -0.0726  0.5128
 8591TIP3    H225717   0.410  -0.006   2.796 -0.0692 -1.4558 -1.7366
 8592TIP3   OH225718   7.940   0.958   0.169  0.2187 -0.5182  0.0148
 8592TIP3    H125719   8.030   0.979   0.193  0.2349 -0.6109  0.0354
 8592TIP3    H225720   7.891   1.040   0.183  0.0241 -0.8457  1.3849
 8593TIP3   OH225721   4.688   3.525   2.630 -0.1280  0.8299 -0.5955
 8593TIP3    H125722   4.671   3.604   2.578  0.4968  1.1398 -0.3408
 8593TIP3    H225723   4.601   3.490   2.650 -0.4400  1.8661 -0.0882
 8594TIP3   OH225724   0.953   7.259   1.032  0.1850  0.3887 -0.1930
 8594TIP3    H125725   0.859   7.266   1.049  0.1964  1.8739 -0.6067
 8594TIP3    H225726   0.982   7.188   1.089 -1.1755 -0.0864 -0.0423
 8595TIP3   OH225727   6.820   5.931   2.452  0.5009  0.4253 -0.2954
 8595TIP3    H125728   6.789   5.862   2.511  1.8567  0.3465  0.3502
 8595TIP3    H225729   6.909   5.905   2.429  0.7132  1.5175 -0.7497
 8596TIP3   OH225730   2.108   7.770   0.483 -0.3024  0.1180 -0.4747
 8596TIP3    H125731   2.058   7.758   0.564  0.4231 -1.4646 -0.2327
 8596TIP3    H225732   2.197   7.745   0.506 -0.0383 -0.1006 -1.6927
 8597TIP3   OH225733   5.348   2.939   0.670  0.0160 -0.3992 -0.0380
 8597TIP3    H125734   5.261   2.957   0.705  0.0795  0.9701 -0.5217
 8597TIP3    H225735   5.406   2.995   0.721  0.3456  0.1736 -1.0131
 8598TIP3   OH225736   5.828   1.960   6.069 -0.3297  0.4751  0.7741
 8598TIP3    H125737   5.866   2.038   6.108 -0.8051  0.7847  0.6251
 8598TIP3    H225738   5.892   1.891   6.087  0.8142  1.1916 -0.4102
 8599TIP3   OH225739   1.335   7.225   6.645  0.1832  0.6477 -0.0694
 8599TIP3    H125740   1.252   7.271   6.655  1.4460  2.6821  1.7342
 8599TIP3    H225741   1.358   7.197   6.733  0.2437 -2.2055 -0.8812
 8600TIP3   OH225742   4.381   2.100   3.412 -0.1931 -0.5806  0.1774
 8600TIP3    H125743   4.418   2.012   3.407 -0.5151 -0.6442 -2.5231
 8600TIP3    H225744   4.449   2.157   3.376 -0.6337  0.0650  0.3362
 8601TIP3   OH225745   7.758   5.387   4.509  0.3920  0.2640 -0.2748
 8601TIP3    H125746   7.778   5.355   4.421  2.5703 -1.8411  0.8582
 8601TIP3    H225747   7.672   5.350   4.529  1.4054 -2.3357 -0.2800
 8602TIP3   OH225748   3.957   3.289   6.410  0.1192  0.0365 -0.1819
 8602TIP3    H125749   3.916   3.366   6.369  0.6665  0.3926 -0.0676
 8602TIP3    H225750   3.884   3.241   6.448 -0.4069 -0.2462 -1.4782
 8603TIP3   OH225751   8.196   0.061   3.088 -0.0496  0.0976  0.2216
 8603TIP3    H125752   8.131  -0.008   3.101  0.3951 -0.1288  1.3150
 8603TIP3    H225753   8.254   0.055   3.164  1.7937 -0.2744 -1.1337
 8604TIP3   OH225754   4.041   5.881   5.890  0.4505 -0.0503 -0.5689
 8604TIP3    H125755   3.964   5.843   5.847  0.0176 -1.8786  1.6292
 8604TIP3    H225756   4.009   5.962   5.929 -0.3546 -0.7267  0.2098
 8605TIP3   OH225757   3.203   3.714   1.070  0.4191 -0.1284 -0.2437
 8605TIP3    H125758   3.291   3.710   1.109 -0.2507 -2.0907  1.2371
 8605TIP3    H225759   3.181   3.807   1.069  2.3581  0.3766 -0.3235
 8606TIP3   OH225760   0.228   4.254   6.333  0.1020  0.4672 -0.1486
 8606TIP3    H125761   0.322   4.269   6.322  0.3965  0.0541  1.5251
 8606TIP3    H225762   0.196   4.335   6.374  0.0802 -0.0488  0.8932
 8607TIP3   OH225763   0.580   5.107   1.221 -0.1144 -0.7753  0.6376
 8607TIP3    H125764   0.558   5.195   1.251  0.9286 -0.4644  0.5412
 8607TIP3    H225765   0.525   5.093   1.144 -0.3762 -0.2620  0.7264
 8608TIP3   OH225766   6.206   2.249   1.576 -0.3033 -0.2682 -0.4319
 8608TIP3    H125767   6.143   2.226   1.644 -0.2833 -1.0347 -0.6610
 8608TIP3    H225768   6.283   2.279   1.624 -0.9860  1.1207 -0.1569
 8609TIP3   OH225769   6.316   2.580   6.346 -0.4183 -0.1822  0.9625
 8609TIP3    H125770   6.341   2.611   6.260 -0.0369 -0.6536  0.8985
 8609TIP3    H225771   6.339   2.652   6.405 -1.8471  0.6659  0.5459
 8610TIP3   OH225772   4.722   2.179   5.385 -0.6853  0.3971  0.0182
 8610TIP3    H125773   4.787   2.146   5.323  0.8176 -0.0631  1.7728
 8610TIP3    H225774   4.697   2.103   5.437  1.2548  1.4437  2.7207
 8611TIP3   OH225775   0.364   7.176   1.269  0.3261  0.8312  0.3991
 8611TIP3    H125776   0.280   7.132   1.259  0.8983 -0.4809  1.2170
 8611TIP3    H225777   0.387   7.203   1.181 -2.6353  4.5406  0.4836
 8612TIP3   OH225778   2.127   3.431   1.071 -0.4121  0.0982 -0.8820
 8612TIP3    H125779   2.049   3.403   1.119 -0.9813  2.9739  0.0404
 8612TIP3    H225780   2.106   3.417   0.979 -1.6516  0.0006 -0.5990
 8613TIP3   OH225781   5.616   5.894   2.096  0.2023  0.1867  0.3541
 8613TIP3    H125782   5.652   5.955   2.160  0.6883 -1.7137  1.9700
 8613TIP3    H225783   5.570   5.828   2.148 -0.3315 -0.8466 -1.3315
 8614TIP3   OH225784   1.593   0.638   5.662  0.2144  0.0211 -0.3007
 8614TIP3    H125785   1.622   0.566   5.605 -0.3507 -0.1940 -0.3215
 8614TIP3    H225786   1.520   0.677   5.615 -0.3924 -0.2917  0.3750
 8615TIP3   OH225787   2.420   2.960   4.498 -0.2824 -0.1598  0.2202
 8615TIP3    H125788   2.504   2.993   4.527 -0.7108  2.1821 -1.0156
 8615TIP3    H225789   2.367   2.956   4.578  0.5827 -0.4482  0.7992
 8616TIP3   OH225790   0.523   1.213   1.537  0.3189 -0.1612  0.0754
 8616TIP3    H125791   0.597   1.262   1.503  0.2121  0.2309  0.4045
 8616TIP3    H225792   0.471   1.190   1.459  0.3176  0.3307 -0.0690
 8617TIP3   OH225793   5.356   0.091   5.124  0.0630 -0.0773 -0.0609
 8617TIP3    H125794   5.348   0.004   5.086  0.0358 -0.5453  0.9885
 8617TIP3    H225795   5.449   0.100   5.145 -0.1622 -0.4908  1.2470
 8618TIP3   OH225796   6.940   4.814   3.912  0.1877 -0.9208 -0.0648
 8618TIP3    H125797   6.887   4.869   3.969  1.0790 -0.6005  0.4843
 8618TIP3    H225798   6.925   4.848   3.824  0.4976  0.0253  0.2379
 8619TIP3   OH225799   1.077   5.064   5.826  0.2030  0.0886  0.3732
 8619TIP3    H125800   1.003   5.070   5.765  0.7388  1.5848 -0.1759
 8619TIP3    H225801   1.112   5.153   5.830  2.1996 -0.6489  0.3456
 8620TIP3   OH225802   0.469   4.454   4.203  0.2327  0.7779 -0.0819
 8620TIP3    H125803   0.511   4.491   4.126 -0.4670  0.1334 -0.7908
 8620TIP3    H225804   0.375   4.466   4.188  0.0957  1.0396  0.8769
 8621TIP3   OH225805   3.543   4.370   1.738  0.2841 -0.5484  0.1048
 8621TIP3    H125806   3.506   4.284   1.717  1.2671 -1.0394  0.2692
 8621TIP3    H225807   3.565   4.364   1.832 -0.2693  0.1355  0.2859
 8622TIP3   OH225808   6.507   2.477   3.950  0.0691 -0.1177  0.3019
 8622TIP3    H125809   6.574   2.432   3.899 -0.7449 -1.3669  0.2734
 8622TIP3    H225810   6.424   2.438   3.921 -0.6536  1.1434  0.5708
 8623TIP3   OH225811   4.480   6.143   1.582  0.1326 -0.1903 -0.1568
 8623TIP3    H125812   4.399   6.130   1.633  0.0051  2.1411  0.3510
 8623TIP3    H225813   4.454   6.127   1.492 -0.1898 -2.1665  0.2393
 8624TIP3   OH225814   1.000   4.068   2.650  0.4175  0.2320  0.4195
 8624TIP3    H125815   0.947   4.116   2.713 -0.3165 -0.5733  0.4355
 8624TIP3    H225816   0.940   4.004   2.611  1.1537 -0.0969 -0.2167
 8625TIP3   OH225817   3.309   6.461   5.938 -0.7186 -0.3142  0.2490
 8625TIP3    H125818   3.391   6.424   5.904  1.0514  2.7235  0.8203
 8625TIP3    H225819   3.276   6.515   5.866 -0.9767  0.2740  0.7987
 8626TIP3   OH225820   6.221   1.533   1.907  0.1760 -0.3907  0.2063
 8626TIP3    H125821   6.283   1.462   1.891  0.0917 -0.4675  0.2174
 8626TIP3    H225822   6.238   1.560   1.997 -1.8250 -2.4420  1.3087
 8627TIP3   OH225823   0.079   3.838   1.434  0.6234 -0.0357 -0.7450
 8627TIP3    H125824   0.003   3.870   1.386 -0.1377 -0.6056  0.0340
 8627TIP3    H225825   0.080   3.744   1.417  0.7109 -0.1453 -0.1488
 8628TIP3   OH225826   2.920   6.919   6.564  0.0962  0.1899 -0.0877
 8628TIP3    H125827   2.947   7.011   6.558 -0.5160  0.3542 -0.4007
 8628TIP3    H225828   2.988   6.877   6.616  0.7777  0.6646 -0.5865
 8629TIP3   OH225829   3.291   3.152   1.077  0.4399  0.4234 -0.3340
 8629TIP3    H125830   3.321   3.136   1.166  2.4755 -1.4480 -1.2637
 8629TIP3    H225831   3.354   3.213   1.041 -0.6057  1.4934 -0.4136
 8630TIP3   OH225832   3.340   4.977   4.520 -0.2124 -0.2676  0.8814
 8630TIP3    H125833   3.325   4.885   4.542  0.0818 -0.3108  0.8997
 8630TIP3    H225834   3.280   4.994   4.447 -0.2194 -0.4910  0.8340
 8631TIP3   OH225835   5.458   4.495   1.857  0.3523 -0.1410 -0.4605
 8631TIP3    H125836   5.438   4.521   1.947 -0.1215 -0.1380 -0.5656
 8631TIP3    H225837   5.550   4.469   1.860  0.2452 -0.4794  0.1045
 8632TIP3   OH225838   4.489   6.298   6.281  0.3171 -0.0842 -0.2193
 8632TIP3    H125839   4.522   6.349   6.207  0.1523  0.3200 -0.0182
 8632TIP3    H225840   4.394   6.302   6.272  0.3029 -0.3018 -0.1659
 8633TIP3   OH225841   4.518   3.098   4.464 -0.4404 -0.5884  0.1823
 8633TIP3    H125842   4.612   3.090   4.447 -0.2071 -0.1262  1.1769
 8633TIP3    H225843   4.512   3.122   4.556 -1.6077 -2.3736  0.6246
 8634TIP3   OH225844   5.958   0.582   3.162 -0.3277 -0.2910 -0.2487
 8634TIP3    H125845   5.951   0.488   3.175  0.3819 -0.4119 -0.6475
 8634TIP3    H225846   5.868   0.612   3.147 -0.4216 -1.1203 -1.4981
 8635TIP3   OH225847   3.714   2.207   5.014 -0.2693  0.0219 -0.4760
 8635TIP3    H125848   3.706   2.226   5.107  0.6592  1.1004 -0.5903
 8635TIP3    H225849   3.748   2.288   4.976  0.2045 -0.6907 -1.6164
 8636TIP3   OH225850   4.587   3.477   6.563 -0.3757 -0.3918 -0.0480
 8636TIP3    H125851   4.533   3.552   6.539 -0.4674 -0.5093 -0.2142
 8636TIP3    H225852   4.658   3.477   6.499  0.9251  0.9056  1.3293
 8637TIP3   OH225853   1.936   6.616   5.478 -0.1134 -0.1175  0.0598
 8637TIP3    H125854   1.897   6.688   5.429  0.4674  0.2758  0.1554
 8637TIP3    H225855   2.026   6.645   5.496 -0.1097 -0.5297  0.7810
 8638TIP3   OH225856   5.974   1.932   1.577  0.4910  0.0679 -0.5932
 8638TIP3    H125857   6.014   1.900   1.497 -0.0372  0.9027 -1.2011
 8638TIP3    H225858   6.043   1.925   1.643  1.8895  2.1290 -1.7645
 8639TIP3   OH225859   5.040   0.091   3.294 -0.2780  0.3294  0.2006
 8639TIP3    H125860   4.966   0.091   3.355  0.4051  1.6427  1.0624
 8639TIP3    H225861   5.099   0.158   3.327  1.6600 -1.1564 -0.0895
 8640TIP3   OH225862   2.823   4.373   0.970  0.6515  0.3000  0.4190
 8640TIP3    H125863   2.888   4.443   0.972  1.4569 -0.4303  2.3843
 8640TIP3    H225864   2.761   4.396   1.039 -0.2144  0.0710 -0.2591
 8641TIP3   OH225865   5.404   6.547   2.518 -0.0687  0.3846 -0.0882
 8641TIP3    H125866   5.383   6.564   2.426  0.0097 -0.8379 -0.3467
 8641TIP3    H225867   5.490   6.505   2.516 -0.7825 -1.1722  0.3938
 8642TIP3   OH225868   3.553   6.422   0.142  0.3730 -0.0190 -0.0224
 8642TIP3    H125869   3.598   6.429   0.226 -1.1072  1.9572  0.6891
 8642TIP3    H225870   3.621   6.398   0.080  2.0998  1.2696  1.2678
 8643TIP3   OH225871   4.068   6.238   2.381  0.1265  0.3596 -0.1720
 8643TIP3    H125872   4.070   6.154   2.427 -0.5036  0.7039  0.5086
 8643TIP3    H225873   4.159   6.267   2.380  0.1919  0.1981  0.5953
 8644TIP3   OH225874   7.570   5.909   1.699  0.0332  0.3893  0.2467
 8644TIP3    H125875   7.591   6.000   1.678 -1.0818  0.4534 -0.6673
 8644TIP3    H225876   7.617   5.892   1.781 -2.1440  2.7270  2.1170
 8645TIP3   OH225877   4.200   2.967   5.656  0.2080 -0.1928 -0.6739
 8645TIP3    H125878   4.118   2.999   5.620  0.0657  1.0570  0.6762
 8645TIP3    H225879   4.240   3.043   5.697  1.4207 -1.0645 -0.1666
 8646TIP3   OH225880   6.971   5.264   4.178  0.2703 -0.5799 -0.3383
 8646TIP3    H125881   7.046   5.319   4.196  0.3402 -0.6350 -0.4572
 8646TIP3    H225882   7.003   5.199   4.115 -0.1157 -0.0238 -1.1389
 8647TIP3   OH225883   0.124   7.289   5.092  0.3698 -0.3916 -0.9231
 8647TIP3    H125884   0.146   7.342   5.168  0.4542 -1.4324 -0.2067
 8647TIP3    H225885   0.052   7.233   5.121 -1.6859  1.2607 -2.5079
 8648TIP3   OH225886   7.132   2.462   6.192  0.4860  0.3979 -0.0305
 8648TIP3    H125887   7.091   2.460   6.106  0.7257 -0.2443 -0.1414
 8648TIP3    H225888   7.226   2.460   6.174  0.5542 -1.9139  0.2275
 8649TIP3   OH225889   6.235   4.295   6.039 -0.0233 -0.5463 -0.1261
 8649TIP3    H125890   6.243   4.294   5.944 -1.2136 -0.2035 -0.2471
 8649TIP3    H225891   6.324   4.310   6.070  0.3402 -0.4041 -1.1943
 8650TIP3   OH225892   0.625   5.835   6.562  0.0792  0.3148  0.7354
 8650TIP3    H125893   0.709   5.789   6.567  0.9500  1.8538  0.9800
 8650TIP3    H225894   0.607   5.840   6.468  0.6554  0.6040  0.6292
 8651TIP3   OH225895   5.153   0.976   4.241 -0.2907  0.0471  0.1065
 8651TIP3    H125896   5.220   0.956   4.306  0.4235  0.2814 -0.5428
 8651TIP3    H225897   5.072   0.940   4.278  0.2599 -0.5950  0.7185
 8652TIP3   OH225898   7.607   4.359   3.522  0.1249 -0.1281 -0.0597
 8652TIP3    H125899   7.555   4.363   3.441 -0.1573  1.4187  0.1673
 8652TIP3    H225900   7.560   4.415   3.583 -0.2789 -2.1478  1.5957
 8653TIP3   OH225901   1.379   4.946   6.167 -0.2673 -0.2393 -0.6980
 8653TIP3    H125902   1.432   4.877   6.205  0.9848  1.4805  0.8946
 8653TIP3    H225903   1.301   4.902   6.133  0.3563 -2.3614  0.4925
 8654TIP3   OH225904   7.034   4.307   2.600 -0.2556 -0.5526  0.4280
 8654TIP3    H125905   7.110   4.289   2.655  0.3255  0.9191  0.1681
 8654TIP3    H225906   7.071   4.325   2.513 -1.0687 -1.7482 -0.1850
 8655TIP3   OH225907   4.782   0.159   0.309 -0.1896 -0.2813  0.2372
 8655TIP3    H125908   4.715   0.149   0.242 -0.1207 -0.1475  0.1477
 8655TIP3    H225909   4.798   0.071   0.342 -0.2034 -0.3489  0.0593
 8656TIP3   OH225910   4.451   3.120   5.992  0.3425 -0.3517 -0.0676
 8656TIP3    H125911   4.389   3.164   5.935  0.6330 -1.2143 -1.0637
 8656TIP3    H225912   4.492   3.192   6.042  0.6678  0.5094 -1.5104
 8657TIP3   OH225913   0.677   4.695   3.075 -0.1478 -0.1292 -0.5842
 8657TIP3    H125914   0.600   4.655   3.034  0.2190 -0.4969 -0.9114
 8657TIP3    H225915   0.677   4.785   3.043 -1.4627  0.4138  0.8095
 8658TIP3   OH225916   8.107   3.564   4.100  0.5633  0.4809 -0.1951
 8658TIP3    H125917   8.035   3.568   4.037 -1.3976  1.7752  1.9537
 8658TIP3    H225918   8.133   3.471   4.100 -0.4541  0.1490 -1.6947
 8659TIP3   OH225919   0.110   2.421   6.271 -0.0645  0.2611 -0.0077
 8659TIP3    H125920   0.028   2.450   6.230 -0.0865  0.6742  0.3267
 8659TIP3    H225921   0.134   2.342   6.222  0.0786  0.9218 -1.0433
 8660TIP3   OH225922   3.753   4.096   0.816  0.2446 -0.2869  0.9388
 8660TIP3    H125923   3.843   4.098   0.784  0.0991  1.1818  0.5848
 8660TIP3    H225924   3.701   4.129   0.743 -0.3544  0.8398  1.8393
 8661TIP3   OH225925   4.787   3.460   3.490  0.3913 -0.0295 -0.3852
 8661TIP3    H125926   4.743   3.377   3.510  1.3416 -1.0363 -2.2050
 8661TIP3    H225927   4.844   3.439   3.416 -0.7465  2.6813 -2.1722
 8662TIP3   OH225928   1.023   7.799   5.849  0.0306 -0.0335  0.0838
 8662TIP3    H125929   1.008   7.749   5.929  1.3525 -0.2175  0.2323
 8662TIP3    H225930   1.071   7.877   5.878  3.5020 -1.6255 -0.8340
 8663TIP3   OH225931   3.873   5.973   0.759  0.2599 -0.0024  0.0226
 8663TIP3    H125932   3.966   5.958   0.774  0.0687 -1.0187  0.3060
 8663TIP3    H225933   3.869   6.041   0.692  1.2043 -0.1009 -0.1374
 8664TIP3   OH225934   4.498   0.549   2.235  0.0723  0.1173 -0.1930
 8664TIP3    H125935   4.478   0.561   2.328  0.9699 -1.4712  0.2313
 8664TIP3    H225936   4.568   0.612   2.218  1.5659 -1.1750  0.8450
 8665TIP3   OH225937   6.352   3.986   0.406  0.0074 -0.3855 -0.4989
 8665TIP3    H125938   6.299   4.006   0.329 -0.5865  0.2699  0.0655
 8665TIP3    H225939   6.387   3.898   0.389 -0.7193 -0.5587 -1.1732
 8666TIP3   OH225940   6.281   2.608   5.746  0.2108  0.5917  0.1476
 8666TIP3    H125941   6.205   2.627   5.691 -1.3272 -0.7491  1.6936
 8666TIP3    H225942   6.306   2.692   5.783 -0.2629  1.1090 -0.6800
 8667TIP3   OH225943   5.777   0.978   6.257  0.1987 -1.0087  0.6042
 8667TIP3    H125944   5.756   0.920   6.330  0.4423 -1.1041  0.5992
 8667TIP3    H225945   5.871   0.996   6.266  0.1921 -0.8718  0.4228
 8668TIP3   OH225946   3.981   1.886   5.857 -0.5068 -0.3158 -0.3767
 8668TIP3    H125947   3.917   1.815   5.861  0.1671 -0.8756  0.7583
 8668TIP3    H225948   4.030   1.870   5.776 -2.2349  0.5438 -1.6730
 8669TIP3   OH225949   4.477   4.344   1.484 -0.3549 -0.0834 -0.1183
 8669TIP3    H125950   4.539   4.416   1.472 -1.9376  1.7612  1.8165
 8669TIP3    H225951   4.410   4.380   1.542 -0.7999 -3.4057  1.6889
 8670TIP3   OH225952   0.532   4.216   5.397 -0.5821  0.1856  0.0217
 8670TIP3    H125953   0.520   4.126   5.428  2.0083  0.2378  1.4949
 8670TIP3    H225954   0.604   4.210   5.335  0.7147  1.3991  1.3363
 8671TIP3   OH225955   1.710   1.817   2.091 -0.6197 -0.2145 -0.0495
 8671TIP3    H125956   1.659   1.736   2.089  0.1425 -0.7119  0.4558
 8671TIP3    H225957   1.794   1.794   2.052 -0.2254  0.2120  0.5374
 8672TIP3   OH225958   2.811   0.111   4.287  0.2493  0.0743  0.0016
 8672TIP3    H125959   2.751   0.097   4.361  2.3156 -3.2906  1.2820
 8672TIP3    H225960   2.857   0.192   4.309  0.1178 -0.3266  1.9420
 8673TIP3   OH225961   0.129   4.153   3.716  0.3719  0.1459 -0.3689
 8673TIP3    H125962   0.165   4.067   3.738  0.0548  0.3445  1.0910
 8673TIP3    H225963   0.073   4.138   3.640  0.8207 -0.8061 -0.5188
 8674TIP3   OH225964   2.021   6.743   0.959 -0.5806  0.1064  0.2902
 8674TIP3    H125965   1.935   6.709   0.983 -1.0241  2.2075  2.0235
 8674TIP3    H225966   2.006   6.790   0.877 -1.6862  2.3936  1.7216
 8675TIP3   OH225967   6.580   0.140   3.905 -0.1139  0.0623 -0.0797
 8675TIP3    H125968   6.596   0.224   3.861  0.4372  0.3792  0.7076
 8675TIP3    H225969   6.624   0.076   3.849 -2.4990 -0.0784 -1.9925
 8676TIP3   OH225970   1.996   1.967   4.221  0.4472 -0.1724 -0.5102
 8676TIP3    H125971   2.068   1.997   4.277 -0.6118  1.4328  0.0559
 8676TIP3    H225972   2.020   1.999   4.134 -0.0315  1.2858 -0.1408
 8677TIP3   OH225973   7.364   7.340   4.909  0.1095 -0.3144 -0.1967
 8677TIP3    H125974   7.458   7.361   4.909 -0.0759  0.5771  0.5817
 8677TIP3    H225975   7.355   7.272   4.842  1.5395 -1.4822  0.7309
 8678TIP3   OH225976   3.775   3.216   5.618 -0.4796 -0.2977 -0.4243
 8678TIP3    H125977   3.786   3.307   5.648 -3.2467  0.0587 -0.1976
 8678TIP3    H225978   3.755   3.224   5.525  1.2143 -0.8768 -0.8700
 8679TIP3   OH225979   6.164   6.102   3.810 -0.3435 -0.1545 -0.1590
 8679TIP3    H125980   6.073   6.126   3.792  0.0613  1.1091 -0.6268
 8679TIP3    H225981   6.216   6.171   3.768  0.8948 -1.8142 -1.4509
 8680TIP3   OH225982   3.751   0.559   6.070  0.0995  0.1100  0.4398
 8680TIP3    H125983   3.831   0.571   6.122 -0.1057 -0.5262  0.9131
 8680TIP3    H225984   3.693   0.629   6.101  0.8728  1.3270 -0.7439
 8681TIP3   OH225985   3.855   0.894   1.313 -0.3411 -0.2795  0.0907
 8681TIP3    H125986   3.924   0.846   1.266  0.1463 -0.7776  1.2710
 8681TIP3    H225987   3.889   0.983   1.318  0.2528 -0.5305  0.7009
 8682TIP3   OH225988   1.445   2.127   0.413  0.6392  0.2640  0.2682
 8682TIP3    H125989   1.398   2.111   0.495 -0.9236 -0.1149 -0.6673
 8682TIP3    H225990   1.467   2.040   0.380  0.0269  0.3558 -0.3994
 8683TIP3   OH225991   4.787   7.092   1.654  0.7067  0.3957  0.0926
 8683TIP3    H125992   4.761   7.151   1.725 -0.7483 -0.5192  0.3872
 8683TIP3    H225993   4.714   7.097   1.591  0.8967 -0.5199 -0.2200
 8684TIP3   OH225994   3.478   6.448   3.331 -0.0607 -0.4716 -0.0374
 8684TIP3    H125995   3.547   6.484   3.386 -0.7291  0.8764 -0.0403
 8684TIP3    H225996   3.402   6.443   3.388 -0.9390  1.5447 -0.9186
 8685TIP3   OH225997   7.824   2.921   5.733 -0.1256  0.0603  0.7787
 8685TIP3    H125998   7.755   2.868   5.693  1.1419 -1.2763  0.2698
 8685TIP3    H225999   7.796   3.012   5.719 -3.1903 -0.3921  3.1397
 8686TIP3   OH226000   3.708   5.116   4.168  0.5528 -0.9543  0.0172
 8686TIP3    H126001   3.695   5.110   4.263 -3.6061  0.5426 -0.2448
 8686TIP3    H226002   3.705   5.210   4.149  2.4640 -1.1462 -1.5539
 8687TIP3   OH226003   8.082   2.454   0.114  0.0366  0.1398  0.6327
 8687TIP3    H126004   8.156   2.456   0.054  0.1851  0.0962  0.8145
 8687TIP3    H226005   8.043   2.541   0.106 -0.7504 -0.2977 -0.5269
 8688TIP3   OH226006   3.825   5.742   3.272 -0.3999  0.0772  0.5136
 8688TIP3    H126007   3.807   5.796   3.195  0.3657  1.1767  1.0722
 8688TIP3    H226008   3.899   5.785   3.314  1.1417 -2.1888  0.2827
 8689TIP3   OH226009   4.972   3.789   5.280  0.1884  0.2575 -0.3780
 8689TIP3    H126010   4.971   3.719   5.214 -1.0022  1.1911 -1.3902
 8689TIP3    H226011   4.986   3.869   5.230 -0.3795  0.9550  0.5504
 8690TIP3   OH226012   7.008   4.427   1.221  0.3369 -0.2445  0.7664
 8690TIP3    H126013   7.043   4.434   1.132 -1.9730 -1.9413 -0.3855
 8690TIP3    H226014   6.978   4.337   1.228 -2.6414  0.7070  1.9635
 8691TIP3   OH226015   3.864   3.389   0.978 -0.5570  0.5445 -0.4483
 8691TIP3    H126016   3.914   3.460   0.936  1.1691 -0.4530 -0.1681
 8691TIP3    H226017   3.875   3.314   0.918 -1.5710  0.2452 -0.2735
 8692TIP3   OH226018   2.332   6.925   2.518  0.2217 -0.0730  0.1666
 8692TIP3    H126019   2.310   6.947   2.427 -0.1287  0.6087  0.4092
 8692TIP3    H226020   2.414   6.876   2.511 -0.8050 -1.7609 -0.6723
 8693TIP3   OH226021   4.624   7.541   4.896  0.3065 -0.5284  0.7464
 8693TIP3    H126022   4.557   7.567   4.833  1.7108  2.1689  0.2018
 8693TIP3    H226023   4.601   7.588   4.976  2.2900  1.8119  0.0773
 8694TIP3   OH226024   2.177   0.403   6.305 -0.0422  0.0976 -0.4229
 8694TIP3    H126025   2.098   0.363   6.340  0.8038 -1.6706 -0.4347
 8694TIP3    H226026   2.243   0.334   6.308  1.3063  1.2876 -1.1428
 8695TIP3   OH226027   7.739   5.010   1.307 -0.1676  0.6082 -0.9793
 8695TIP3    H126028   7.673   5.052   1.362  0.0406  0.0115 -0.2650
 8695TIP3    H226029   7.689   4.969   1.236 -0.5547  0.2600 -0.5079
 8696TIP3   OH226030   7.600   0.264   6.654 -0.6999  0.4564 -0.2935
 8696TIP3    H126031   7.608   0.169   6.668  0.9691  0.6417  0.2043
 8696TIP3    H226032   7.507   0.282   6.667 -1.2969 -1.2960 -1.6387
 8697TIP3   OH226033   4.632   7.342   2.768  0.4521  0.0853  0.2291
 8697TIP3    H126034   4.612   7.434   2.782  1.4952  0.2715  0.6142
 8697TIP3    H226035   4.721   7.342   2.731 -0.2153 -0.6748 -1.5052
 8698TIP3   OH226036   5.027   5.114   3.118  0.5198 -0.1102  0.1279
 8698TIP3    H126037   4.993   5.033   3.156  0.8399 -0.7678 -0.9354
 8698TIP3    H226038   5.116   5.121   3.153  0.5316 -0.2676  0.1274
 8699TIP3   OH226039   7.746   6.973   4.548  0.3669  0.1366 -0.5257
 8699TIP3    H126040   7.690   6.980   4.625  1.0589 -1.5367  0.1635
 8699TIP3    H226041   7.687   6.943   4.479  0.4140 -1.8186  0.2436
 8700TIP3   OH226042   2.185   3.237   4.080 -0.0028 -0.2253 -0.3622
 8700TIP3    H126043   2.114   3.173   4.091  1.0788 -1.1778  1.3866
 8700TIP3    H226044   2.264   3.184   4.072  0.8407  0.8736  0.4657
 8701TIP3   OH226045   4.478   7.633   6.184 -0.5236 -0.2158 -0.7225
 8701TIP3    H126046   4.470   7.655   6.091  0.5874  3.0229 -0.1839
 8701TIP3    H226047   4.568   7.603   6.194 -0.0473  1.2349 -0.4432
 8702TIP3   OH226048   7.002   5.142   1.549  0.1881  0.1641 -0.0185
 8702TIP3    H126049   7.051   5.153   1.631  0.3695  0.2756 -0.1417
 8702TIP3    H226050   6.957   5.226   1.537  0.5837  0.3369 -0.3097
 8703TIP3   OH226051   5.726   0.591   5.297  0.4938 -0.0730  0.2334
 8703TIP3    H126052   5.760   0.571   5.210 -0.0101  0.4024 -0.0838
 8703TIP3    H226053   5.791   0.651   5.335 -0.8282  2.3726 -1.1059
 8704TIP3   OH226054   6.798   6.221   2.158 -0.0376  0.6577 -0.9769
 8704TIP3    H126055   6.728   6.285   2.148 -0.0798  0.6509 -0.7316
 8704TIP3    H226056   6.810   6.184   2.070 -1.1897 -0.2413 -0.7814
 8705TIP3   OH226057   2.485   7.749   3.155 -0.3318 -0.6123 -0.4562
 8705TIP3    H126058   2.391   7.765   3.157 -0.2425 -0.1770  0.6877
 8705TIP3    H226059   2.518   7.807   3.086 -0.9035 -0.8049 -0.8948
 8706TIP3   OH226060   2.856   5.677   3.599  0.1532 -0.0746 -0.5465
 8706TIP3    H126061   2.847   5.762   3.642  0.2290 -1.0573  1.5422
 8706TIP3    H226062   2.765   5.649   3.582  0.1270  0.3722 -1.1667
 8707TIP3   OH226063   0.828   7.053   5.723 -0.1051  0.0513 -0.3261
 8707TIP3    H126064   0.882   7.052   5.802 -0.3865  0.9684 -0.1130
 8707TIP3    H226065   0.872   7.114   5.664 -0.4804  0.1954 -0.4599
 8708TIP3   OH226066   4.850   5.644   0.647 -0.5247  0.6373 -0.1886
 8708TIP3    H126067   4.835   5.698   0.725  1.7046  0.9091  0.1153
 8708TIP3    H226068   4.849   5.554   0.680 -1.0175  0.6645 -0.1182
 8709TIP3   OH226069   3.249   3.623   0.616 -0.4655 -0.2521  0.2409
 8709TIP3    H126070   3.185   3.688   0.646 -1.0358 -1.1000  0.9105
 8709TIP3    H226071   3.208   3.538   0.635  0.0727 -0.8263 -1.0237
 8710TIP3   OH226072   5.827   5.880   5.242 -0.2779 -0.0038 -0.1196
 8710TIP3    H126073   5.813   5.916   5.154 -0.2806 -1.3112 -0.6741
 8710TIP3    H226074   5.747   5.830   5.260  0.7564 -1.8081 -0.4217
 8711TIP3   OH226075   3.948   7.739   3.251  0.0241  0.3245 -0.1572
 8711TIP3    H126076   3.919   7.733   3.159 -0.7861  1.0109  0.0380
 8711TIP3    H226077   3.871   7.711   3.302  0.4244  0.0851  0.3222
 8712TIP3   OH226078   2.479   0.748   5.442  0.2818  0.0190  0.0746
 8712TIP3    H126079   2.431   0.716   5.365  1.6017 -2.3122  0.1411
 8712TIP3    H226080   2.471   0.843   5.437 -0.7020 -0.1204 -2.2757
 8713TIP3   OH226081   2.304   1.485   6.461 -0.2424 -0.6339  0.6147
 8713TIP3    H126082   2.227   1.534   6.434 -1.4784 -1.1778  2.9380
 8713TIP3    H226083   2.298   1.401   6.415 -0.7486 -0.4607  0.3724
 8714TIP3   OH226084   5.560   6.881   3.392 -0.0487 -0.2238 -0.1192
 8714TIP3    H126085   5.589   6.920   3.475 -2.3421  2.0793 -0.2742
 8714TIP3    H226086   5.594   6.940   3.325 -0.3852 -0.6191 -0.6457
 8715TIP3   OH226087   5.188   4.623   5.944 -0.9079  0.1680 -0.1125
 8715TIP3    H126088   5.266   4.677   5.956 -1.1271  0.1402  1.7785
 8715TIP3    H226089   5.214   4.558   5.879 -0.3000  1.8522 -1.6609
 8716TIP3   OH226090   1.344   5.702   5.320  0.0284 -0.0699 -0.3867
 8716TIP3    H126091   1.388   5.724   5.238  2.8714 -0.2797  0.9650
 8716TIP3    H226092   1.369   5.611   5.337 -0.7389 -0.1157  0.5943
 8717TIP3   OH226093   4.397   7.074   0.229 -0.1250 -0.2860  0.3738
 8717TIP3    H126094   4.376   7.050   0.138  0.6332 -1.0005  0.3783
 8717TIP3    H226095   4.363   7.162   0.238 -0.6578 -0.3877 -0.4594
 8718TIP3   OH226096   5.334   0.143   1.256  0.2279 -0.2398  0.4847
 8718TIP3    H126097   5.429   0.145   1.260  0.1921  1.1713  1.9295
 8718TIP3    H226098   5.306   0.134   1.347 -1.0286 -1.0466  0.0486
 8719TIP3   OH226099   5.088   2.323   2.074 -0.6443  0.3422 -0.7272
 8719TIP3    H126100   5.149   2.396   2.068  0.3119 -0.4238 -0.5982
 8719TIP3    H226101   5.003   2.364   2.090  0.1188  1.3640  0.9795
 8720TIP3   OH226102   6.529   4.261   1.852  0.3189 -0.3338  0.3850
 8720TIP3    H126103   6.492   4.317   1.921  0.2878 -1.7833  1.5908
 8720TIP3    H226104   6.530   4.317   1.774 -0.7488  0.9808  1.2652
 8721TIP3   OH226105   6.822   4.434   2.064  0.2662  0.6115 -0.2904
 8721TIP3    H126106   6.802   4.349   2.104 -1.8168  2.2484  2.5085
 8721TIP3    H226107   6.753   4.446   1.998 -0.0179  0.5104 -0.0163
 8722TIP3   OH226108   8.166   4.402   2.787 -0.5931  0.5662  0.4032
 8722TIP3    H126109   8.172   4.347   2.865 -1.0779 -1.4784 -0.9210
 8722TIP3    H226110   8.207   4.484   2.812 -1.1075  0.1190  2.9220
 8723TIP3   OH226111   6.131   0.424   1.727 -0.3034 -0.0446 -0.1751
 8723TIP3    H126112   6.128   0.343   1.675  1.5140  0.0085 -0.4509
 8723TIP3    H226113   6.163   0.396   1.813 -0.8826  0.2120  0.1251
 8724TIP3   OH226114   8.006   2.054   0.583  0.3179  0.3064 -0.3357
 8724TIP3    H126115   7.930   2.009   0.546  1.2086 -2.0845  0.5270
 8724TIP3    H226116   7.972   2.099   0.660 -0.1804 -1.2688  0.4117
 8725TIP3   OH226117   3.729   0.156   6.453 -0.1403 -0.2725  0.0921
 8725TIP3    H126118   3.779   0.081   6.421  0.5681 -1.1089  2.8464
 8725TIP3    H226119   3.643   0.120   6.474 -0.0912 -0.1381  0.5480
 8726TIP3   OH226120   8.073   3.752   2.605 -0.4424  0.0886 -0.0370
 8726TIP3    H126121   8.127   3.711   2.538  0.3105 -1.9244  1.6852
 8726TIP3    H226122   8.013   3.683   2.633  0.2980  0.3395  2.3856
 8727TIP3   OH226123   5.778   3.264   4.071  0.2627 -0.8014  0.1981
 8727TIP3    H126124   5.725   3.310   4.137  0.6090 -0.6059  0.3401
 8727TIP3    H226125   5.860   3.244   4.115  0.8464  0.1137 -0.4243
 8728TIP3   OH226126   5.620   7.559   5.162 -0.3607  0.2351 -0.4215
 8728TIP3    H126127   5.701   7.513   5.185 -0.3834 -1.0071 -2.5600
 8728TIP3    H226128   5.645   7.652   5.160  0.7757 -0.0475 -0.0961
 8729TIP3   OH226129   1.534   3.609   6.558 -0.1342  0.4676  0.0358
 8729TIP3    H126130   1.458   3.655   6.594 -0.2220  0.1613  0.2462
 8729TIP3    H226131   1.533   3.629   6.465  0.3743  1.6867  0.2709
 8730TIP3   OH226132   3.347   0.402   4.461 -0.1926 -0.1547 -0.1238
 8730TIP3    H126133   3.296   0.480   4.439  2.2383  1.8508  0.8313
 8730TIP3    H226134   3.314   0.375   4.546 -1.3940 -0.5055 -0.6849
 8731TIP3   OH226135   3.784   1.152   5.728  0.0664  0.0402  0.1725
 8731TIP3    H126136   3.809   1.102   5.650 -1.4163 -1.2864  0.4925
 8731TIP3    H226137   3.867   1.174   5.770  0.8186 -2.7572  0.3652
 8732TIP3   OH226138   2.012   0.745   2.865  0.0117 -0.3321  0.3140
 8732TIP3    H126139   1.918   0.736   2.876  0.1943 -1.4734  1.0569
 8732TIP3    H226140   2.033   0.826   2.912 -0.6031 -0.0486  0.1074
 8733TIP3   OH226141   1.234   1.202   0.812 -0.4198 -0.0267  0.6326
 8733TIP3    H126142   1.156   1.178   0.863 -1.0195 -2.3163 -1.1920
 8733TIP3    H226143   1.245   1.130   0.750  3.3111  0.1023  0.9195
 8734TIP3   OH226144   3.773   2.464   5.216  0.4500  0.0828 -0.2107
 8734TIP3    H126145   3.801   2.555   5.226 -0.9888  0.5642 -0.4039
 8734TIP3    H226146   3.763   2.431   5.306  2.0097 -0.2413 -0.1322
 8735TIP3   OH226147   7.760   1.808   2.487 -0.4083  0.2592  0.5744
 8735TIP3    H126148   7.704   1.784   2.561 -2.5508  0.3754 -0.9333
 8735TIP3    H226149   7.769   1.727   2.437  1.4852  0.0430  1.1650
 8736TIP3   OH226150   1.393   1.524   6.082 -0.0408  0.1575 -0.1821
 8736TIP3    H126151   1.376   1.556   6.170 -1.4621 -1.6258  0.2637
 8736TIP3    H226152   1.423   1.433   6.094 -1.3108 -0.4890 -1.5320
 8737TIP3   OH226153   0.253   5.342   5.697  0.2840 -0.3978  0.2697
 8737TIP3    H126154   0.206   5.339   5.614  3.2083 -0.1672 -1.5228
 8737TIP3    H226155   0.320   5.273   5.689  0.2175 -0.8413  2.7401
 8738TIP3   OH226156   3.743   0.126   2.859 -0.4839  0.1058 -0.0078
 8738TIP3    H126157   3.734   0.043   2.905  1.7118  0.0702  0.5024
 8738TIP3    H226158   3.742   0.102   2.766  0.9845 -0.6582  0.1400
 8739TIP3   OH226159   7.158   7.391   5.938 -0.2500 -0.5823  0.5073
 8739TIP3    H126160   7.068   7.387   5.904 -0.8406 -1.6045  2.0403
 8739TIP3    H226161   7.211   7.417   5.863 -1.5883 -1.7784 -0.9308
 8740TIP3   OH226162   8.068   4.241   0.621 -0.0598 -0.5076  0.2392
 8740TIP3    H126163   7.990   4.273   0.665  0.6177 -0.2950  1.3189
 8740TIP3    H226164   8.107   4.318   0.580  1.2920  0.0631  2.4074
 8741TIP3   OH226165   7.758   6.254   3.989 -0.3341 -0.0552 -0.2841
 8741TIP3    H126166   7.783   6.339   4.025  0.0877 -0.3573  0.1505
 8741TIP3    H226167   7.822   6.193   4.026 -0.6095 -0.5538 -0.6252
 8742TIP3   OH226168   7.922   6.910   3.656  0.1703 -0.0372  0.7131
 8742TIP3    H126169   7.907   7.004   3.673 -0.0381 -0.1135  0.9622
 8742TIP3    H226170   7.837   6.877   3.628  0.3046 -0.1003  0.3836
 8743TIP3   OH226171   2.325   2.191   0.339 -0.0016  0.3680  0.1404
 8743TIP3    H126172   2.237   2.196   0.377 -0.3323 -1.8547 -0.2281
 8743TIP3    H226173   2.377   2.145   0.405  0.1682 -0.8236 -0.7872
 8744TIP3   OH226174   7.138   5.405   3.672  0.1109 -0.2091 -0.0153
 8744TIP3    H126175   7.220   5.367   3.702  0.5298  0.8527  0.2118
 8744TIP3    H226176   7.077   5.331   3.670  1.3340 -1.2286 -1.2593
 8745TIP3   OH226177   7.666   1.335   4.828  0.1470 -0.2141  0.3247
 8745TIP3    H126178   7.606   1.267   4.798 -1.4229  0.3533  2.0104
 8745TIP3    H226179   7.731   1.288   4.880 -1.2934 -0.4595  2.0273
 8746TIP3   OH226180   5.506   0.202   6.001 -0.5175 -0.7331 -0.3033
 8746TIP3    H126181   5.492   0.294   5.978  3.4947  0.8018  2.2872
 8746TIP3    H226182   5.530   0.160   5.918  3.2485  2.0906 -0.9499
 8747TIP3   OH226183   5.443   0.431   5.854  0.1896  0.3586 -0.1037
 8747TIP3    H126184   5.492   0.512   5.867  2.0386 -0.6623 -0.4470
 8747TIP3    H226185   5.439   0.420   5.759 -3.3997  1.9312 -0.3027
 8748TIP3   OH226186   0.847   3.495   0.429 -0.2992  0.0759 -0.2880
 8748TIP3    H126187   0.908   3.563   0.399 -0.2430 -0.4529 -1.4156
 8748TIP3    H226188   0.888   3.459   0.507 -0.2780  1.2658  0.2694
 8749TIP3   OH226189   7.837   1.004   6.375  0.1510  0.1019  0.4160
 8749TIP3    H126190   7.780   1.015   6.450 -1.0523 -2.3812 -0.0430
 8749TIP3    H226191   7.884   1.087   6.368 -1.1815  1.1203  2.6391
 8750TIP3   OH226192   0.892   6.687   5.848 -0.1408  0.4663  0.3677
 8750TIP3    H126193   0.870   6.604   5.890 -0.8509  0.8511  0.7627
 8750TIP3    H226194   0.982   6.674   5.817  0.0424 -0.1685  1.1291
 8751TIP3   OH226195   8.192   6.754   1.700  0.0854  0.4385  0.4646
 8751TIP3    H126196   8.099   6.777   1.705 -0.3890 -1.4955  2.8862
 8751TIP3    H226197   8.193   6.659   1.687  1.6911  0.3205  1.1652
 8752TIP3   OH226198   4.735   6.495   2.067 -0.8061  0.3392 -0.3607
 8752TIP3    H126199   4.702   6.444   1.992 -3.4951 -0.5350  1.2706
 8752TIP3    H226200   4.669   6.563   2.080  1.2191  2.4644 -0.6314
 8753TIP3   OH226201   2.019   0.989   2.662  0.9969 -0.2200  0.2260
 8753TIP3    H126202   2.084   1.032   2.605  1.7545  0.5996  1.6555
 8753TIP3    H226203   2.061   0.986   2.748 -0.0423 -1.6228  0.7160
 8754TIP3   OH226204   4.370   0.394   3.452  0.5704  0.1263  0.4217
 8754TIP3    H126205   4.335   0.332   3.516  1.7934 -1.0147  0.0273
 8754TIP3    H226206   4.450   0.353   3.420  0.6000  1.2103 -0.9891
 8755TIP3   OH226207   5.543   2.525   0.272  0.1180  0.5300 -0.3071
 8755TIP3    H126208   5.583   2.567   0.195 -1.4136  1.8303 -0.4427
 8755TIP3    H226209   5.564   2.584   0.344  0.3739  0.0287  0.0299
 8756TIP3   OH226210   3.628   0.045   4.403  0.4697 -0.6853 -0.1262
 8756TIP3    H126211   3.590   0.123   4.361  0.3659 -1.5321 -1.6821
 8756TIP3    H226212   3.710   0.075   4.441 -0.7085  0.7196  1.4751
 8757TIP3   OH226213   1.329   3.041   5.026 -0.0282 -0.1003  0.0216
 8757TIP3    H126214   1.269   3.114   5.010  1.0752  0.4909 -1.6656
 8757TIP3    H226215   1.271   2.968   5.050 -1.4962  0.3971 -1.7219
 8758TIP3   OH226216   0.536   2.770   6.166  0.3062 -0.2071 -0.0635
 8758TIP3    H126217   0.629   2.748   6.163  0.3861  0.1011 -2.6860
 8758TIP3    H226218   0.529   2.834   6.237  1.6734 -1.7960  1.5955
 8759TIP3   OH226219   6.735   2.782   2.084 -0.0344  0.1364  0.4989
 8759TIP3    H126220   6.758   2.698   2.044 -2.3321 -0.4149  0.1435
 8759TIP3    H226221   6.761   2.773   2.175  2.7128  0.3328 -0.1896
 8760TIP3   OH226222   0.923   7.412   3.650 -0.1382  0.4626  0.1861
 8760TIP3    H126223   0.971   7.479   3.602  0.7037 -0.0202  0.3442
 8760TIP3    H226224   0.903   7.452   3.735  3.1655 -0.5270  1.5614
 8761TIP3   OH226225   2.147   1.714   5.980 -0.0765  0.3732  0.2595
 8761TIP3    H126226   2.185   1.628   5.999 -1.3151 -0.0051  1.1840
 8761TIP3    H226227   2.145   1.719   5.885 -0.2035 -0.7227  0.1931
 8762TIP3   OH226228   5.891   7.774   5.200 -0.0900 -0.1097  0.2194
 8762TIP3    H126229   5.919   7.818   5.120  2.2310 -0.2610  0.8717
 8762TIP3    H226230   5.962   7.792   5.263 -1.4643 -0.6517  2.0028
 8763TIP3   OH226231   4.495   0.778   6.244  0.6045  0.3672  0.4127
 8763TIP3    H126232   4.542   0.824   6.173  0.7491  0.1033  0.3359
 8763TIP3    H226233   4.483   0.689   6.210 -1.5357  0.8884 -0.3095
 8764TIP3   OH226234   8.186   4.577   0.066 -0.3180  0.1599  0.1978
 8764TIP3    H126235   8.257   4.544   0.121 -1.0052  0.6138  1.4135
 8764TIP3    H226236   8.181   4.671   0.087 -1.2289  0.1436  0.0844
 8765TIP3   OH226237   3.164   7.647   4.792  0.2772  0.6307 -0.0321
 8765TIP3    H126238   3.175   7.742   4.798 -0.0018  0.5882  1.4895
 8765TIP3    H226239   3.143   7.620   4.881  0.7453 -0.9177 -0.3696
 8766TIP3   OH226240   4.543   7.447   5.538  0.4902 -0.1378  0.3308
 8766TIP3    H126241   4.522   7.541   5.539 -0.7389 -0.3899  0.3516
 8766TIP3    H226242   4.461   7.405   5.512  0.7066 -1.2764  1.4119
 8767TIP3   OH226243   6.059   0.364   3.864 -0.0175 -0.2627  0.2757
 8767TIP3    H126244   5.997   0.372   3.792  1.7636  2.9352 -1.1292
 8767TIP3    H226245   6.025   0.424   3.931 -0.2351 -1.1636  0.9897
 8768TIP3   OH226246   1.228   6.685   5.362 -0.0524  0.4018  0.5748
 8768TIP3    H126247   1.170   6.727   5.426  0.1036  1.3475  0.1077
 8768TIP3    H226248   1.169   6.631   5.308 -0.0300 -1.4924  2.3035
 8769TIP3   OH226249   2.726   1.448   4.415  0.0361 -0.0062  0.1912
 8769TIP3    H126250   2.806   1.500   4.406 -0.4566  0.8470  0.6556
 8769TIP3    H226251   2.710   1.444   4.509 -0.5986  0.0243  0.0860
 8770TIP3   OH226252   6.742   6.120   1.916  0.0382  0.1955 -0.2529
 8770TIP3    H126253   6.648   6.117   1.933  0.0304 -0.7496 -0.4110
 8770TIP3    H226254   6.756   6.052   1.850  1.1298 -1.1825  1.3128
 8771TIP3   OH226255   3.206   3.075   2.906 -0.2509 -0.4460  0.6387
 8771TIP3    H126256   3.137   3.134   2.938 -0.0094 -0.8732  2.0424
 8771TIP3    H226257   3.286   3.126   2.916 -0.2441 -0.3437  0.0585
 8772TIP3   OH226258   0.543   2.459   6.336 -0.2295 -0.4493  0.4487
 8772TIP3    H126259   0.610   2.422   6.279 -1.2212 -1.4385 -0.1131
 8772TIP3    H226260   0.470   2.480   6.278 -0.1624  1.3120  0.9377
 8773TIP3   OH226261   2.064   1.533   4.970  0.5849  0.0005  0.0987
 8773TIP3    H126262   2.082   1.621   5.003  1.0154  0.4666 -1.3275
 8773TIP3    H226263   2.100   1.474   5.037  0.1062  0.8829  1.1677
 8774TIP3   OH226264   4.687   6.817   4.070  0.1009 -0.7372  0.1085
 8774TIP3    H126265   4.677   6.727   4.101 -0.7413 -0.0370  2.0090
 8774TIP3    H226266   4.740   6.809   3.990 -0.7207 -2.9860 -0.2857
 8775TIP3   OH226267   0.041   3.853   5.262 -0.0888 -0.4173  0.1135
 8775TIP3    H126268   0.108   3.865   5.329  1.6253  0.5864 -1.6652
 8775TIP3    H226269  -0.014   3.931   5.269  0.3901 -0.0668  0.0548
 8776TIP3   OH226270   1.649  -0.012   2.689 -0.2311  0.0272  0.4165
 8776TIP3    H126271   1.725  -0.061   2.657 -0.8754 -1.1294  0.5877
 8776TIP3    H226272   1.657   0.074   2.649  0.1471 -0.6815 -1.1153
 8777TIP3   OH226273   1.177   6.100   2.757  0.1971 -0.7619 -0.5729
 8777TIP3    H126274   1.246   6.076   2.696  1.1202  0.1670  0.0791
 8777TIP3    H226275   1.211   6.075   2.843 -0.1275  0.0196 -0.2093
 8778TIP3   OH226276   7.364   3.217   5.993  0.1103  0.2197  0.1418
 8778TIP3    H126277   7.372   3.298   6.042  0.3674  2.3499 -3.1050
 8778TIP3    H226278   7.391   3.239   5.904 -0.4383 -3.2826 -1.0867
 8779TIP3   OH226279   3.447   4.459   2.745 -0.2821 -0.3861 -0.3298
 8779TIP3    H126280   3.375   4.478   2.685  0.3302 -0.7037 -1.1829
 8779TIP3    H226281   3.418   4.381   2.792 -0.4079 -0.6558 -0.8386
 8780TIP3   OH226282   4.597   4.619   3.588 -0.4790  0.3427  0.0085
 8780TIP3    H126283   4.553   4.534   3.591  1.8312 -0.8931  1.3710
 8780TIP3    H226284   4.660   4.612   3.517  0.4989  0.4855  0.8442
 8781TIP3   OH226285   3.776   5.862   1.576  0.4496  0.2472 -0.8204
 8781TIP3    H126286   3.704   5.830   1.630  0.7133  1.2893  0.1833
 8781TIP3    H226287   3.855   5.825   1.617  0.6225  0.7145 -0.7316
 8782TIP3   OH226288   7.805   1.869   0.536  0.2945  0.2273 -0.1395
 8782TIP3    H126289   7.826   1.835   0.449 -0.2172 -0.6808  0.0716
 8782TIP3    H226290   7.710   1.866   0.541  0.3603 -1.2251  0.9932
 8783TIP3   OH226291   2.553   4.591   5.342  0.0515  0.0204  0.0784
 8783TIP3    H126292   2.479   4.591   5.403  1.0428 -0.5716  1.3346
 8783TIP3    H226293   2.546   4.507   5.296 -0.7848  0.5318 -0.7753
 8784TIP3   OH226294   7.857   4.982   0.591  0.2528 -0.2135 -0.4843
 8784TIP3    H126295   7.835   4.976   0.684 -1.0261  0.6126 -0.7037
 8784TIP3    H226296   7.950   4.960   0.586  0.1922 -0.8619  0.9086
 8785TIP3   OH226297   4.609   5.397   4.730  0.1173  0.1036 -0.4825
 8785TIP3    H126298   4.564   5.323   4.688 -0.2568  0.5749 -0.9169
 8785TIP3    H226299   4.591   5.471   4.673  2.4917  0.0730 -1.3753
 8786TIP3   OH226300   2.701   0.671   0.138 -0.3492  0.8456 -0.4232
 8786TIP3    H126301   2.642   0.739   0.106 -0.6187  0.4658 -0.7375
 8786TIP3    H226302   2.660   0.639   0.219 -1.1546 -0.1812 -1.2177
 8787TIP3   OH226303   6.150   4.400   4.520 -0.6464  0.5498  0.5699
 8787TIP3    H126304   6.222   4.338   4.530  0.9406  2.3353  0.6644
 8787TIP3    H226305   6.078   4.347   4.484  0.5974 -1.3426  0.7284
 8788TIP3   OH226306   6.860   1.080   4.110  0.6876 -0.6148 -0.3374
 8788TIP3    H126307   6.899   1.090   4.197 -0.0080 -0.3664 -0.0486
 8788TIP3    H226308   6.788   1.143   4.109 -0.1995 -1.6196 -0.5809
 8789TIP3   OH226309   5.249   5.043   5.891 -0.4307 -0.2278  0.3080
 8789TIP3    H126310   5.175   5.018   5.836  0.9618  0.8284 -2.2159
 8789TIP3    H226311   5.210   5.066   5.975 -2.5326 -3.3282  0.3639
 8790TIP3   OH226312   3.681   2.650   5.489 -0.3052 -0.5101 -0.0240
 8790TIP3    H126313   3.774   2.637   5.507  0.5445  1.2812 -2.5965
 8790TIP3    H226314   3.648   2.698   5.565  0.9408 -0.7958  0.7191
 8791TIP3   OH226315   2.420   3.221   2.362 -0.4756  0.1210  0.1651
 8791TIP3    H126316   2.370   3.269   2.296  0.4739  0.4304 -0.3650
 8791TIP3    H226317   2.356   3.192   2.426 -1.6239 -1.1404 -1.4585
 8792TIP3   OH226318   5.140   1.458   0.998 -0.4034 -0.3003  0.4439
 8792TIP3    H126319   5.060   1.484   0.952  0.0367 -0.4580 -0.4246
 8792TIP3    H226320   5.111   1.389   1.058 -1.1424  0.5286  1.0538
 8793TIP3   OH226321   2.696   5.397   5.993  0.0919 -0.3260  0.5835
 8793TIP3    H126322   2.750   5.467   6.031 -0.5638  0.8367 -0.5405
 8793TIP3    H226323   2.751   5.360   5.924 -0.3337  0.5050 -0.2131
 8794TIP3   OH226324   2.849   1.124   1.242  0.2743  0.2913  0.2838
 8794TIP3    H126325   2.818   1.189   1.305  0.5879  0.6746  0.0432
 8794TIP3    H226326   2.772   1.105   1.188  0.4020  1.1034 -0.1914
 8795TIP3   OH226327   4.867   5.128   4.194 -0.1571 -0.0397  0.5455
 8795TIP3    H126328   4.777   5.094   4.188 -0.8910  1.9475 -0.5915
 8795TIP3    H226329   4.859   5.221   4.171  1.8628  0.7609  2.7625
 8796TIP3   OH226330   4.917   4.964   0.281  0.1981 -0.2815 -0.1203
 8796TIP3    H126331   4.900   4.870   0.272 -2.2653  0.1234 -0.4274
 8796TIP3    H226332   4.893   4.985   0.371  1.3558 -0.0438  0.1423
 8797TIP3   OH226333   4.576   5.841   1.823  0.1741 -0.5960  0.3143
 8797TIP3    H126334   4.542   5.802   1.904 -1.0044 -0.6256 -0.1792
 8797TIP3    H226335   4.550   5.933   1.828  3.6982  0.4927  1.8871
 8798TIP3   OH226336   2.310   1.345   2.637  0.0863  0.3666  0.4625
 8798TIP3    H126337   2.391   1.362   2.589 -0.5196 -0.1295 -0.7698
 8798TIP3    H226338   2.297   1.423   2.691  0.2680  1.3837 -0.9321
 8799TIP3   OH226339   4.588   4.952   5.699  0.1788 -0.2015 -0.0095
 8799TIP3    H126340   4.619   5.008   5.628 -0.0627 -2.4416 -2.0069
 8799TIP3    H226341   4.612   4.864   5.672  0.1958 -1.1547  2.8038
 8800TIP3   OH226342   7.452   1.284   0.865 -0.0710 -0.0519  0.3365
 8800TIP3    H126343   7.484   1.349   0.803 -1.2026 -0.4684 -0.7349
 8800TIP3    H226344   7.514   1.211   0.858  0.5845  0.4641  0.7357
 8801TIP3   OH226345   5.930   3.754   3.060 -0.3891 -0.2186  0.0676
 8801TIP3    H126346   5.994   3.813   3.101 -0.2001 -0.8340  0.6932
 8801TIP3    H226347   5.927   3.781   2.969  3.0926 -2.0766 -0.7669
 8802TIP3   OH226348   7.258   3.135   5.127 -0.0180 -0.2176  0.8393
 8802TIP3    H126349   7.249   3.219   5.172  0.7911  0.3645 -0.0335
 8802TIP3    H226350   7.239   3.156   5.035 -0.3052 -1.0946  0.6915
 8803TIP3   OH226351   3.161   2.420   0.786 -0.0870  0.8123  0.1717
 8803TIP3    H126352   3.226   2.364   0.743  0.5492  1.2606  0.5284
 8803TIP3    H226353   3.199   2.508   0.782 -1.7768  1.5351 -1.7950
 8804TIP3   OH226354   4.340   6.966   5.405  0.3333 -0.2206  0.5250
 8804TIP3    H126355   4.390   7.025   5.349 -1.7579 -0.8687 -2.2901
 8804TIP3    H226356   4.292   7.024   5.464  1.3835  0.6243  0.5731
 8805TIP3   OH226357   5.477   2.141   4.460  0.2500  0.1162  0.5800
 8805TIP3    H126358   5.532   2.145   4.539  2.0792  3.0549 -0.6777
 8805TIP3    H226359   5.390   2.168   4.491  0.4812 -0.5846  1.9101
 8806TIP3   OH226360   7.544   0.401   0.746  0.6342  0.0524  0.4884
 8806TIP3    H126361   7.581   0.458   0.813 -0.1184 -0.4218  1.3316
 8806TIP3    H226362   7.459   0.374   0.781 -0.7008  1.3779 -1.5525
 8807TIP3   OH226363   3.898   7.394   2.523  0.5915 -0.9269 -0.3565
 8807TIP3    H126364   3.864   7.322   2.575  1.3697 -0.5014  0.7713
 8807TIP3    H226365   3.821   7.447   2.502  0.3437 -0.7947  0.8548
 8808TIP3   OH226366   5.575   0.595   0.071 -0.1522 -0.1106  0.1123
 8808TIP3    H126367   5.504   0.660   0.080  0.5068  0.9209 -1.6872
 8808TIP3    H226368   5.552   0.545  -0.007 -1.1544 -2.8261  1.9767
 8809TIP3   OH226369   0.668   0.770   3.765  0.3169 -0.3239  1.0906
 8809TIP3    H126370   0.700   0.843   3.819 -1.0258  3.9321 -3.1708
 8809TIP3    H226371   0.745   0.740   3.716  0.5815 -0.8299  1.7948
 8810TIP3   OH226372   5.934   6.189   3.273 -0.0009  0.7322  0.0317
 8810TIP3    H126373   5.865   6.148   3.221  0.1378 -0.3825  0.7011
 8810TIP3    H226374   5.947   6.274   3.232  0.4344 -0.2838 -2.0401
 8811TIP3   OH226375   3.022   6.659   1.890  0.1355 -0.7061  1.0320
 8811TIP3    H126376   2.959   6.724   1.859  1.3498  0.3663  0.7156
 8811TIP3    H226377   3.018   6.589   1.824 -1.3244 -1.0828  1.4771
 8812TIP3   OH226378   1.093   4.579   6.198 -0.2701  0.0356  0.3899
 8812TIP3    H126379   1.034   4.555   6.270 -1.4415 -0.2862 -0.6561
 8812TIP3    H226380   1.163   4.514   6.202  0.6095  0.9842  2.2525
 8813TIP3   OH226381   1.218   1.796   1.724  0.3424  0.5341  0.1560
 8813TIP3    H126382   1.305   1.824   1.753 -0.1161  1.3024  0.8293
 8813TIP3    H226383   1.231   1.768   1.633  1.3986  0.0853  0.4245
 8814TIP3   OH226384   0.649   4.078   3.267  0.5233 -0.4513 -0.1479
 8814TIP3    H126385   0.560   4.113   3.270  0.5658 -0.1538 -1.6009
 8814TIP3    H226386   0.703   4.146   3.309 -0.1213 -1.4914  2.5875
 8815TIP3   OH226387   4.360   3.569   3.869 -0.5453 -0.0237 -0.7817
 8815TIP3    H126388   4.362   3.656   3.830  0.9312 -0.1556 -1.0312
 8815TIP3    H226389   4.376   3.509   3.796 -2.1827 -0.5894 -0.7411
 8816TIP3   OH226390   5.331   1.424   5.274  0.2002  0.0806  0.0569
 8816TIP3    H126391   5.358   1.488   5.339 -0.5159 -1.3448  1.8401
 8816TIP3    H226392   5.319   1.475   5.194 -2.4648  2.6016  1.8721
 8817TIP3   OH226393   3.194   6.959   1.773 -0.3227 -0.0366  0.2496
 8817TIP3    H126394   3.220   6.883   1.825 -2.0797 -1.0893 -0.3144
 8817TIP3    H226395   3.266   7.021   1.783  1.5169 -2.0440  0.1617
 8818TIP3   OH226396   7.277   4.219   0.582 -0.2883  0.3058  0.0853
 8818TIP3    H126397   7.295   4.139   0.632 -0.8178  0.8899  1.2639
 8818TIP3    H226398   7.220   4.191   0.511 -0.1325 -0.4338  0.2482
 8819TIP3   OH226399   7.583   5.602   0.129 -0.4042  0.0042 -0.5563
 8819TIP3    H126400   7.631   5.684   0.127 -0.9903  0.3393 -2.7003
 8819TIP3    H226401   7.541   5.602   0.215  3.4844 -0.4460  1.5585
 8820TIP3   OH226402   2.717   7.340   3.879  0.5689 -0.3617 -0.0903
 8820TIP3    H126403   2.638   7.379   3.843 -0.5219 -0.9796  1.5324
 8820TIP3    H226404   2.787   7.370   3.821 -0.8833 -0.1375 -1.8179
 8821TIP3   OH226405   5.764   4.288   1.427  0.2874 -0.5706 -0.7073
 8821TIP3    H126406   5.828   4.219   1.443  2.9874  1.7592 -0.7534
 8821TIP3    H226407   5.721   4.302   1.512 -0.4746 -2.3719 -0.7570
 8822TIP3   OH226408   2.070   4.048   5.663 -0.0795 -0.0051  0.2692
 8822TIP3    H126409   1.992   4.103   5.668  0.3460  0.5788  0.5140
 8822TIP3    H226410   2.143   4.109   5.667  0.3965 -0.5095 -0.3856
 8823TIP3   OH226411   0.777   0.572   2.870 -0.6733  0.6061  0.3603
 8823TIP3    H126412   0.871   0.590   2.872 -0.7993  1.2877  0.5665
 8823TIP3    H226413   0.770   0.481   2.841 -0.0081  1.1461 -1.6789
 8824TIP3   OH226414   2.803   4.693   5.311  0.8019 -0.4115 -0.0929
 8824TIP3    H126415   2.851   4.621   5.269  2.2646  0.4307  0.0641
 8824TIP3    H226416   2.713   4.661   5.316  0.4263 -0.5433 -4.0274
 8825TIP3   OH226417   7.537   0.181   2.309 -0.0322 -0.2696 -0.2646
 8825TIP3    H126418   7.546   0.232   2.229 -0.3835  0.3326  0.0795
 8825TIP3    H226419   7.606   0.114   2.302  0.9522  0.7232 -0.3525
 8826TIP3   OH226420   5.338   1.243   5.835  0.4749 -0.0594 -0.4542
 8826TIP3    H126421   5.303   1.306   5.771  1.4049  0.9484 -0.0079
 8826TIP3    H226422   5.263   1.190   5.860 -0.2413  0.5705 -1.1956
 8827TIP3   OH226423   6.686   1.379   6.281 -0.3107 -0.3627  0.3021
 8827TIP3    H126424   6.740   1.366   6.203 -0.7906 -0.0073 -0.1007
 8827TIP3    H226425   6.603   1.412   6.247 -0.9778 -1.3972  0.8560
 8828TIP3   OH226426   8.080   1.387   0.143 -0.5457  0.1616 -0.9425
 8828TIP3    H126427   8.114   1.432   0.221 -0.7123  1.5795 -1.6459
 8828TIP3    H226428   8.109   1.297   0.152  1.6226  0.8548 -0.4828
 8829TIP3   OH226429   5.980   5.045   1.202  0.4134 -0.2769 -0.2137
 8829TIP3    H126430   5.886   5.052   1.220  0.6712  0.6507  0.8395
 8829TIP3    H226431   5.990   4.959   1.160 -0.7606 -0.8048  0.5554
 8830TIP3   OH226432   0.687   6.051   5.348  0.6460  0.1276  0.1509
 8830TIP3    H126433   0.700   5.983   5.281 -0.8376  0.0731 -0.1152
 8830TIP3    H226434   0.771   6.095   5.353  1.0963 -0.5304 -1.0283
 8831TIP3   OH226435   8.100   0.996   3.759  0.7967  0.2230  0.3017
 8831TIP3    H126436   8.082   0.967   3.669 -0.5377  1.3780  0.1570
 8831TIP3    H226437   8.192   1.024   3.757  1.3625 -1.5424 -0.1879
 8832TIP3   OH226438   2.435   2.813   0.349 -0.0052  0.0708  0.1933
 8832TIP3    H126439   2.514   2.816   0.402  0.7293 -0.5986 -0.8033
 8832TIP3    H226440   2.453   2.871   0.275 -0.5041  0.0340  0.0347
 8833TIP3   OH226441   7.877   4.919   4.874 -0.1410  0.5411  0.7755
 8833TIP3    H126442   7.954   4.863   4.884  0.7861  1.6704  0.1579
 8833TIP3    H226443   7.912   5.006   4.856 -1.5647  1.1208  0.6439
 8834TIP3   OH226444   7.718   0.925   2.299 -0.1309 -0.1501  0.3979
 8834TIP3    H126445   7.666   0.917   2.379 -1.1376 -0.6039 -0.2790
 8834TIP3    H226446   7.744   0.835   2.278  0.5768  0.0266  0.4945
 8835TIP3   OH226447   0.566   0.583   2.243  0.2589  0.2728 -0.2241
 8835TIP3    H126448   0.587   0.545   2.158 -1.4030  0.2976 -0.6841
 8835TIP3    H226449   0.643   0.634   2.266  0.2407  1.4002 -2.3738
 8836TIP3   OH226450   3.226   3.072   0.156 -0.5272 -0.6534 -0.1379
 8836TIP3    H126451   3.308   3.106   0.120 -0.6208 -0.8359 -0.5275
 8836TIP3    H226452   3.236   3.082   0.250 -0.0666 -0.6447 -0.1818
 8837TIP3   OH226453   2.872   0.435   1.091  0.0938  0.1459 -0.1205
 8837TIP3    H126454   2.780   0.431   1.117 -0.4088 -0.0231 -1.7846
 8837TIP3    H226455   2.873   0.493   1.015  1.3569  0.1138 -0.1441
 8838TIP3   OH226456   4.664   7.054   5.888 -0.5535 -0.0910 -0.3875
 8838TIP3    H126457   4.660   7.145   5.859 -0.1906  1.1268  2.9396
 8838TIP3    H226458   4.742   7.050   5.943  1.4029 -3.3752 -3.0490
 8839TIP3   OH226459   3.071   3.945   2.882 -0.2860 -0.0914 -0.4579
 8839TIP3    H126460   3.028   3.891   2.948  0.7288  1.6942  1.7966
 8839TIP3    H226461   3.149   3.894   2.857 -0.7444 -0.8404 -0.3833
 8840TIP3   OH226462   8.136   7.728   6.702  0.0768 -0.7992 -0.4002
 8840TIP3    H126463   8.140   7.808   6.753  1.8832 -0.3802 -1.0965
 8840TIP3    H226464   8.048   7.728   6.663 -0.8724 -0.5126  1.6520
 8841TIP3   OH226465   3.930   2.986   5.630 -0.4386  0.5533 -0.5312
 8841TIP3    H126466   3.875   3.064   5.621 -1.1850 -0.1529 -2.6547
 8841TIP3    H226467   3.916   2.958   5.721 -2.0408  1.5186 -0.4291
 8842TIP3   OH226468   1.446   4.532   0.307 -0.0262  0.1002 -0.1792
 8842TIP3    H126469   1.384   4.601   0.280  0.8511  0.6247 -0.9353
 8842TIP3    H226470   1.531   4.564   0.276  0.6373 -0.5773  0.8935
 8843TIP3   OH226471   7.253   1.980   2.565 -0.4445  0.7206 -0.2014
 8843TIP3    H126472   7.231   1.941   2.650 -2.4467  0.2818 -0.8715
 8843TIP3    H226473   7.348   1.972   2.559 -0.5289 -1.9385  0.7553
 8844TIP3   OH226474   6.722   2.690   1.137  0.1856 -0.5376  0.3475
 8844TIP3    H126475   6.762   2.657   1.057  0.3876  0.2504  0.1113
 8844TIP3    H226476   6.632   2.713   1.112  0.2885 -0.1693  0.3128
 8845TIP3   OH226477   5.055   3.145   3.654  0.4272 -0.4230 -0.4565
 8845TIP3    H126478   5.086   3.055   3.647 -1.9857 -1.2570 -2.0598
 8845TIP3    H226479   5.053   3.164   3.748  2.2203 -1.5199 -0.1622
 8846TIP3   OH226480   5.092   4.525   3.816  0.4988 -0.6854  0.2099
 8846TIP3    H126481   5.119   4.572   3.737  1.3312  0.3209  1.0659
 8846TIP3    H226482   4.997   4.516   3.808  0.4748  0.1411 -0.5012
 8847TIP3   OH226483   2.252   7.011   0.592 -0.0607 -0.6373 -0.0768
 8847TIP3    H126484   2.336   7.027   0.634 -0.8086 -0.9670  1.6224
 8847TIP3    H226485   2.222   6.927   0.627 -1.2631 -0.3501 -0.3497
 8848TIP3   OH226486   6.007   2.888   5.090  0.0958  0.5409 -0.4633
 8848TIP3    H126487   5.918   2.923   5.095 -0.1155 -0.0320  3.1532
 8848TIP3    H226488   6.001   2.815   5.028 -2.6052 -0.8483  1.2088
 8849TIP3   OH226489   2.027   2.171   1.847 -0.1887  0.1191 -0.0341
 8849TIP3    H126490   2.070   2.230   1.909 -0.0301  0.3973 -0.4130
 8849TIP3    H226491   1.996   2.098   1.902  2.3203 -0.9950  0.0155
 8850TIP3   OH226492   3.394   3.410   1.177  0.1802 -0.4822  0.7127
 8850TIP3    H126493   3.371   3.407   1.270  0.3745 -1.3143  0.7479
 8850TIP3    H226494   3.482   3.449   1.176 -0.1239  0.2245  0.8039
 8851TIP3   OH226495   5.237   2.424   4.166  0.0649 -0.6513 -0.0629
 8851TIP3    H126496   5.265   2.513   4.188  1.2187 -0.7407 -1.0747
 8851TIP3    H226497   5.201   2.390   4.248  0.9479  0.2424  0.7287
 8852TIP3   OH226498   4.967   2.938   5.150  0.1182 -0.5033  0.0601
 8852TIP3    H126499   4.962   3.004   5.218  2.2949 -1.5581  1.3507
 8852TIP3    H226500   4.957   2.986   5.068 -1.4920  0.9333  1.0398
 8853TIP3   OH226501   6.663   0.315   5.793  0.0130  0.4739 -0.5783
 8853TIP3    H126502   6.618   0.300   5.877 -1.3012  1.3107 -1.1018
 8853TIP3    H226503   6.637   0.241   5.739 -0.0682  0.5269 -0.6124
 8854TIP3   OH226504   3.883   4.046   4.738 -0.3669  0.4544 -0.0862
 8854TIP3    H126505   3.950   4.011   4.796 -0.4854 -0.7996 -0.6607
 8854TIP3    H226506   3.801   4.013   4.775 -0.3687 -1.4094 -1.5975
 8855TIP3   OH226507   7.978   1.956   6.299 -0.3474  0.5442 -0.2094
 8855TIP3    H126508   8.007   1.973   6.389 -1.3553 -0.4175  0.3167
 8855TIP3    H226509   7.914   2.026   6.282  2.0359  2.6203 -1.3434
 8856TIP3   OH226510   5.177   7.602   6.015  0.1161  0.1660  0.3348
 8856TIP3    H126511   5.083   7.616   6.024  0.2128  0.4834  0.8860
 8856TIP3    H226512   5.194   7.607   5.921 -0.3487  0.5265  0.2714
 8857TIP3   OH226513   7.297   6.901   5.193  0.3351  0.6880 -0.3245
 8857TIP3    H126514   7.245   6.929   5.117  0.8176 -1.4713 -1.5208
 8857TIP3    H226515   7.233   6.886   5.262 -0.2301  1.5803 -0.6413
 8858TIP3   OH226516   8.009   4.717   6.699  0.5811  0.1579 -0.1350
 8858TIP3    H126517   8.080   4.771   6.664  0.4978  0.7129  0.5346
 8858TIP3    H226518   7.930   4.769   6.686  0.4211 -0.0540 -0.0209
 8859TIP3   OH226519   2.241   3.406   3.873  0.1610 -0.3279  0.3895
 8859TIP3    H126520   2.218   3.338   3.936  0.3370 -0.5063  0.2584
 8859TIP3    H226521   2.192   3.483   3.904  0.5978 -0.2876  1.0052
 8860TIP3   OH226522   7.866   0.653   3.900  0.0371  0.0932 -0.0715
 8860TIP3    H126523   7.797   0.716   3.880 -0.1169  0.4028  1.3303
 8860TIP3    H226524   7.917   0.695   3.970  2.2240  0.2768 -1.6630
 8861TIP3   OH226525   3.784   2.828   2.348 -0.3758 -0.0547  0.3200
 8861TIP3    H126526   3.837   2.866   2.418  0.9189 -0.8972 -0.1741
 8861TIP3    H226527   3.732   2.902   2.315  1.3184  1.0810  0.0683
 8862TIP3   OH226528   5.900   0.768   3.660 -0.5686 -0.1870 -0.3303
 8862TIP3    H126529   5.982   0.736   3.623 -0.0660  1.0610 -0.3302
 8862TIP3    H226530   5.862   0.691   3.703  0.6369 -0.7640 -0.2538
 8863TIP3   OH226531   4.259   4.823   0.898 -0.1009 -0.2963 -0.4223
 8863TIP3    H126532   4.302   4.812   0.814 -0.2535 -0.2123 -0.5114
 8863TIP3    H226533   4.261   4.735   0.938 -0.0605 -0.3435 -0.5288
 8864TIP3   OH226534   4.378   3.800   2.383  0.7170 -0.1292 -0.1077
 8864TIP3    H126535   4.389   3.735   2.452  0.6921 -1.0289 -0.9277
 8864TIP3    H226536   4.467   3.824   2.358  0.8508 -1.9353 -1.6791
 8865TIP3   OH226537   4.306   0.891   0.047  0.1904  0.4509 -0.3532
 8865TIP3    H126538   4.277   0.900  -0.043 -0.8833  0.5601 -0.0127
 8865TIP3    H226539   4.287   0.799   0.069  0.1473  0.5100 -0.1402
 8866TIP3   OH226540   1.711   5.843   3.622 -0.2306  0.2615 -0.5636
 8866TIP3    H126541   1.718   5.882   3.535 -1.0979  0.2347 -0.6475
 8866TIP3    H226542   1.795   5.799   3.635  0.3061  1.1261 -0.9577
 8867TIP3   OH226543   0.414   2.918   4.399  0.5300 -0.2180  0.1179
 8867TIP3    H126544   0.500   2.915   4.439  0.2767  0.7885  0.7802
 8867TIP3    H226545   0.429   2.954   4.311  0.5995  1.8909  0.9257
 8868TIP3   OH226546   1.481   5.929   1.102 -0.1753  0.2648 -0.8512
 8868TIP3    H126547   1.409   5.950   1.162  1.6209  1.3500  1.0633
 8868TIP3    H226548   1.441   5.874   1.035 -2.5163 -0.2022  0.7966
 8869TIP3   OH226549   0.625   3.635   4.980 -0.5775 -0.2344 -0.4101
 8869TIP3    H126550   0.579   3.672   4.904  0.0245 -0.0699 -0.7016
 8869TIP3    H226551   0.714   3.619   4.948 -0.6990 -1.5115 -0.1552
 8870TIP3   OH226552   1.394   0.022   4.855 -0.1420  0.0273  0.3930
 8870TIP3    H126553   1.387   0.106   4.899 -3.0364 -1.0552  2.3118
 8870TIP3    H226554   1.466  -0.023   4.900 -1.2602  0.0028  2.2595
 8871TIP3   OH226555   6.019   3.466   3.103  0.3102  0.1280  0.5834
 8871TIP3    H126556   5.969   3.524   3.044  0.1003 -1.0368 -0.4359
 8871TIP3    H226557   6.037   3.520   3.180  0.9731  1.8596 -0.7193
 8872TIP3   OH226558   7.508   5.278   0.340 -0.7956 -0.2637  0.0425
 8872TIP3    H126559   7.597   5.300   0.313 -1.2289 -0.6871 -1.9560
 8872TIP3    H226560   7.518   5.208   0.404  0.3249  0.6420  0.9019
 8873TIP3   OH226561   3.128   5.952   0.962  0.3844 -0.0413  0.3391
 8873TIP3    H126562   3.037   5.938   0.987 -0.0411  0.4632 -0.8510
 8873TIP3    H226563   3.177   5.940   1.043 -0.4444 -2.8888  0.5190
 8874TIP3   OH226564   0.964   5.657   4.846  0.3707 -0.1847 -0.4438
 8874TIP3    H126565   0.941   5.726   4.784 -1.1047  0.8042  1.0983
 8874TIP3    H226566   1.025   5.700   4.907  0.2013 -0.5156 -0.0378
 8875TIP3   OH226567   5.590   5.019   4.390 -0.2107 -0.2662  0.2080
 8875TIP3    H126568   5.654   5.023   4.461 -0.2936 -1.8094  0.4018
 8875TIP3    H226569   5.571   5.111   4.370  0.8026  0.2057  1.2754
 8876TIP3   OH226570   2.295   6.840   0.073  0.8324  0.0865  0.2674
 8876TIP3    H126571   2.261   6.772   0.015  0.9061 -0.9524  1.4021
 8876TIP3    H226572   2.219   6.864   0.127  1.0869  0.0862  0.6270
 8877TIP3   OH226573   8.133   4.871   2.734 -0.5140  0.1557 -0.7932
 8877TIP3    H126574   8.171   4.947   2.777  0.9072 -0.5331 -0.8029
 8877TIP3    H226575   8.096   4.820   2.805  0.4438 -0.2025 -0.5413
 8878TIP3   OH226576   5.411   0.639   0.785 -0.0451  0.3772  0.1174
 8878TIP3    H126577   5.405   0.648   0.880  2.1556  0.7793  0.2667
 8878TIP3    H226578   5.361   0.561   0.765  0.4936 -0.4368  1.7744
 8879TIP3   OH226579   8.049   1.043   5.221  0.1978 -1.0263  0.4737
 8879TIP3    H126580   8.134   1.009   5.192 -0.0626 -0.7519 -0.6431
 8879TIP3    H226581   8.070   1.122   5.270  0.5943 -0.9521  0.1912
 8880TIP3   OH226582   2.608   1.226   3.184 -0.5271 -0.2237 -0.0412
 8880TIP3    H126583   2.685   1.198   3.234 -0.4335 -0.4477 -0.3038
 8880TIP3    H226584   2.534   1.189   3.231 -0.3573 -1.6652 -0.8461
 8881TIP3   OH226585   4.082   7.117   3.514 -0.3421  0.6950  0.0830
 8881TIP3    H126586   4.047   7.038   3.474  2.5532  0.1904 -1.7423
 8881TIP3    H226587   4.076   7.183   3.445  0.0287  1.2369  0.5596
 8882TIP3   OH226588   8.051   6.060   2.563 -0.3664  0.2260  0.2069
 8882TIP3    H126589   8.133   6.040   2.608 -0.4182 -2.1394 -0.6063
 8882TIP3    H226590   8.064   6.147   2.525  1.2069  0.4872  1.3003
 8883TIP3   OH226591   7.858   3.953   0.099 -0.6982  0.3407 -0.4687
 8883TIP3    H126592   7.881   3.888   0.166  1.6596 -0.1665 -1.6926
 8883TIP3    H226593   7.802   3.904   0.038 -0.6407  0.0544 -0.2972
 8884TIP3   OH226594   1.938   2.620   4.392  0.1486  0.2940 -0.2254
 8884TIP3    H126595   1.954   2.714   4.390 -1.8701  0.6931 -3.3863
 8884TIP3    H226596   1.981   2.586   4.314 -2.3258 -0.7284 -1.2443
 8885TIP3   OH226597   7.560   3.241   0.087 -0.4428  0.2986  0.7338
 8885TIP3    H126598   7.573   3.160   0.135 -0.2834  0.1995  0.5262
 8885TIP3    H226599   7.649   3.271   0.067 -0.5123 -0.3173 -0.5940
 8886TIP3   OH226600   3.008   6.791   1.531 -0.7879 -0.4267 -0.1048
 8886TIP3    H126601   3.021   6.717   1.471  0.7885 -1.1394  1.0431
 8886TIP3    H226602   2.955   6.754   1.602  0.5251 -0.6769  0.7835
 8887TIP3   OH226603   2.230   7.767   3.798  0.0144  0.2116 -0.4288
 8887TIP3    H126604   2.199   7.736   3.713  0.3619 -0.5504 -0.2831
 8887TIP3    H226605   2.322   7.741   3.801  0.2472  1.0196 -0.1834
 8888TIP3   OH226606   3.210   5.344   4.617 -0.0591 -0.0470 -0.1065
 8888TIP3    H126607   3.225   5.386   4.533  1.7109  0.5988  0.4762
 8888TIP3    H226608   3.117   5.355   4.634 -0.3827  0.1049 -1.8020
 8889TIP3   OH226609   2.134   0.499   1.118 -0.4860 -0.5698 -0.4287
 8889TIP3    H126610   2.204   0.559   1.144  0.5822 -2.3008  0.8947
 8889TIP3    H226611   2.068   0.507   1.187 -0.8141 -0.1910 -0.7822
 8890TIP3   OH226612   7.325   1.008   5.014 -0.3994 -0.1140 -0.0880
 8890TIP3    H126613   7.414   0.973   5.020 -1.0574 -1.8533  0.3087
 8890TIP3    H226614   7.273   0.935   4.981 -1.9793  0.2746  1.3741
 8891TIP3   OH226615   1.448   0.693   2.324  0.0252 -0.0847 -0.0172
 8891TIP3    H126616   1.396   0.740   2.259  1.0195  0.3335 -0.5383
 8891TIP3    H226617   1.414   0.604   2.322 -1.2979  0.3796  0.3564
 8892TIP3   OH226618   4.879   4.013   3.982 -0.5357  0.1788  0.6871
 8892TIP3    H126619   4.793   4.054   3.976 -0.6081 -0.1160 -0.8793
 8892TIP3    H226620   4.861   3.919   3.985 -0.2773  0.1124  0.3025
 8893TIP3   OH226621   5.162   6.100   1.646 -1.0429 -0.2227  0.0989
 8893TIP3    H126622   5.248   6.141   1.656 -1.2198  0.9990 -2.5799
 8893TIP3    H226623   5.121   6.147   1.573 -3.3186 -1.9043  0.1808
 8894TIP3   OH226624   7.000   1.227   5.164 -0.5145  0.1219  0.1552
 8894TIP3    H126625   6.967   1.307   5.122 -0.0052  0.4867  0.4322
 8894TIP3    H226626   6.925   1.191   5.210 -0.5006  1.0403  0.9279
 8895TIP3   OH226627   3.868   5.499   0.272  0.3111 -0.9274  0.6039
 8895TIP3    H126628   3.819   5.574   0.308  2.0579  0.2213  0.7038
 8895TIP3    H226629   3.879   5.440   0.346  1.1139 -0.0666  1.2003
 8896TIP3   OH226630   8.056   1.801   3.171  0.2207  0.7508  0.2663
 8896TIP3    H126631   8.064   1.772   3.080 -0.4903  0.8196  0.1759
 8896TIP3    H226632   8.063   1.896   3.166 -2.0857  0.9503 -0.0117
 8897TIP3   OH226633   6.813   1.239   5.836 -0.0044 -0.0183 -0.5056
 8897TIP3    H126634   6.867   1.180   5.784 -1.0167  0.6991 -2.4555
 8897TIP3    H226635   6.766   1.292   5.772 -0.0262  2.1126  1.1525
 8898TIP3   OH226636   7.755   6.009   3.128  0.2005  0.1934 -0.1167
 8898TIP3    H126637   7.819   6.068   3.088 -1.0470  1.0096 -0.9741
 8898TIP3    H226638   7.789   5.921   3.110  0.3256  0.5679 -1.9509
 8899TIP3   OH226639   4.987   3.991   1.142  0.2582  0.1135 -0.1665
 8899TIP3    H126640   4.899   4.017   1.115  0.3250 -0.1577 -0.6593
 8899TIP3    H226641   4.992   3.898   1.121  1.1392  0.4221 -1.4700
 8900TIP3   OH226642   1.490   1.868   5.000 -0.0294  0.4775  0.1344
 8900TIP3    H126643   1.575   1.897   4.968 -0.2675 -0.1780 -1.1454
 8900TIP3    H226644   1.509   1.790   5.052  0.1142  0.0690 -0.5250
 8901TIP3   OH226645   1.747   7.655   2.903  0.4616 -0.4029 -0.0609
 8901TIP3    H126646   1.698   7.678   2.982  1.4196 -0.7892  0.6491
 8901TIP3    H226647   1.826   7.612   2.934  0.4053 -1.4428 -1.2636
 8902TIP3   OH226648   1.430   2.001   4.621  0.6847 -0.0450  0.0937
 8902TIP3    H126649   1.504   1.941   4.631  0.0374 -1.5965 -3.1042
 8902TIP3    H226650   1.459   2.065   4.556 -0.5177 -0.3220 -0.7580
 8903TIP3   OH226651   2.339   7.428   4.630  0.1403 -0.0955  0.3080
 8903TIP3    H126652   2.294   7.389   4.556 -0.0289 -0.5418  0.6414
 8903TIP3    H226653   2.291   7.509   4.647  0.1316 -0.0319 -0.0140
 8904TIP3   OH226654   3.830   7.036   1.748 -0.0126 -0.2113  0.7880
 8904TIP3    H126655   3.796   7.116   1.790  2.5435  1.6362 -0.3898
 8904TIP3    H226656   3.912   7.019   1.794  0.3080 -1.1638 -0.1300
 8905TIP3   OH226657   6.339   6.730   1.829  0.7164  0.6276 -0.2304
 8905TIP3    H126658   6.409   6.715   1.892  0.1002 -2.2570 -0.1031
 8905TIP3    H226659   6.261   6.692   1.869 -0.4265  1.6507 -1.3709
 8906TIP3   OH226660   2.580   7.627   2.523 -0.0860 -0.6052 -0.4191
 8906TIP3    H126661   2.577   7.553   2.462  0.2187  0.7851 -2.2088
 8906TIP3    H226662   2.672   7.653   2.525  0.4338 -2.1313  2.6780
 8907TIP3   OH226663   2.919   3.007   4.998 -0.9198 -0.3049  0.8521
 8907TIP3    H126664   2.951   3.091   5.031 -0.9215 -0.2140  0.6210
 8907TIP3    H226665   2.913   2.952   5.076 -2.7254  0.4753  1.3055
 8908TIP3   OH226666   1.293   1.033   1.096  0.1027  0.6626 -0.3379
 8908TIP3    H126667   1.220   1.095   1.087  0.2011  0.6870 -1.0515
 8908TIP3    H226668   1.252   0.953   1.131 -0.5055  0.2712 -1.8654
 8909TIP3   OH226669   2.659   6.775   6.569 -1.0520 -0.2697 -0.5755
 8909TIP3    H126670   2.753   6.782   6.549 -1.2524 -0.6081 -1.6407
 8909TIP3    H226671   2.656   6.777   6.665  0.0129  0.1449 -0.5337
 8910TIP3   OH226672   6.823   1.801   0.616  0.0138  0.0396  0.2892
 8910TIP3    H126673   6.807   1.875   0.557 -2.3310 -0.3944  0.2980
 8910TIP3    H226674   6.917   1.803   0.632 -0.0681  3.6363  1.1018
 8911TIP3   OH226675   1.563   4.182   6.772 -0.1887  0.3190  0.1075
 8911TIP3    H126676   1.510   4.215   6.699  0.6597  1.9969  0.2104
 8911TIP3    H226677   1.610   4.107   6.734  1.2728  1.9686 -1.5434
 8912TIP3   OH226678   4.810   5.920   1.737  0.0004  0.5754  0.6308
 8912TIP3    H126679   4.845   5.843   1.692 -0.4453  0.7531 -0.0384
 8912TIP3    H226680   4.723   5.893   1.767  0.4333  0.3430  1.7186
 8913TIP3   OH226681   6.100   1.873   4.613 -0.3168  0.4285  0.3528
 8913TIP3    H126682   6.010   1.894   4.590  0.2538  1.7328 -0.8387
 8913TIP3    H226683   6.133   1.952   4.657  0.2188 -0.0704  0.8806
 8914TIP3   OH226684   8.209   4.792   5.681  0.2958  0.4320 -0.5443
 8914TIP3    H126685   8.293   4.780   5.637  0.5586  0.1903  0.0164
 8914TIP3    H226686   8.167   4.864   5.633  0.4945  0.0558 -1.3022
 8915TIP3   OH226687   2.756   7.309   2.561  0.8857  0.4833 -0.0464
 8915TIP3    H126688   2.684   7.284   2.504  1.3425 -0.4439 -0.2349
 8915TIP3    H226689   2.715   7.361   2.631 -0.2853 -1.5567  0.8676
 8916TIP3   OH226690   7.631   6.755   5.651 -0.2479  0.1273  0.3937
 8916TIP3    H126691   7.705   6.718   5.603 -1.2213 -0.2600 -0.8843
 8916TIP3    H226692   7.622   6.843   5.617 -0.8301 -0.0846 -0.0176
 8917TIP3   OH226693   6.774   3.718   0.920 -0.2535  0.1068  1.0153
 8917TIP3    H126694   6.743   3.700   0.831 -2.0513 -1.3696  1.8621
 8917TIP3    H226695   6.865   3.688   0.920 -0.8429 -1.8942  0.1811
 8918TIP3   OH226696   1.164   2.432   3.531  0.0845 -0.2928 -0.2327
 8918TIP3    H126697   1.115   2.358   3.567 -1.1832 -0.4383 -2.1122
 8918TIP3    H226698   1.254   2.418   3.561 -0.7351 -0.7141  2.2543
 8919TIP3   OH226699   0.994   0.238   1.530  0.3263  0.1350 -0.3312
 8919TIP3    H126700   0.942   0.300   1.582 -1.5917 -1.3880 -0.3136
 8919TIP3    H226701   0.995   0.275   1.442  0.3545  0.8454 -0.0364
 8920TIP3   OH226702   7.098   3.124   2.591  0.3405  0.0097 -0.8378
 8920TIP3    H126703   7.047   3.043   2.587  1.2613 -0.7240  0.9091
 8920TIP3    H226704   7.065   3.170   2.668  0.6706  0.7035 -1.1001
 8921TIP3   OH226705   6.639   3.534   3.733 -0.1253  0.1690 -0.2302
 8921TIP3    H126706   6.679   3.596   3.673 -2.7829  1.8034 -0.4875
 8921TIP3    H226707   6.590   3.588   3.795 -0.0022 -1.5940  1.5181
 8922TIP3   OH226708   6.377   5.741   3.465 -0.2328  0.3974  0.1539
 8922TIP3    H126709   6.322   5.799   3.519  0.7525  1.4999  0.0073
 8922TIP3    H226710   6.320   5.667   3.445 -2.1676  2.1010 -1.1152
 8923TIP3   OH226711   2.067   0.522   3.316  0.2370 -0.0146 -0.1943
 8923TIP3    H126712   2.038   0.610   3.340  0.3056  0.3229 -1.3308
 8923TIP3    H226713   2.028   0.506   3.230  0.7356 -0.8539 -0.2728
 8924TIP3   OH226714   1.873   3.806   4.671 -0.2749  0.0507 -0.0284
 8924TIP3    H126715   1.883   3.779   4.580  1.0085  1.1132 -0.2211
 8924TIP3    H226716   1.810   3.879   4.667 -1.1231 -0.6552  0.0956
 8925TIP3   OH226717   1.976   2.034   2.094  0.4472  0.3415 -0.0449
 8925TIP3    H126718   1.927   2.084   2.159 -0.3111  0.8541 -0.9858
 8925TIP3    H226719   2.057   2.009   2.139 -0.9393 -1.1761  1.8228
 8926TIP3   OH226720   8.199   5.866   0.580  0.0655  0.4169 -0.0036
 8926TIP3    H126721   8.121   5.812   0.569  0.5176  0.1990 -2.9780
 8926TIP3    H226722   8.268   5.819   0.532  0.8227  2.8668 -1.5142
 8927TIP3   OH226723   6.249   0.394   0.806  0.0685 -0.0351  0.3249
 8927TIP3    H126724   6.238   0.301   0.826 -0.8339 -0.0401 -0.1593
 8927TIP3    H226725   6.191   0.409   0.731  0.3213  0.8868  0.3080
 8928TIP3   OH226726   3.403   1.574   2.032  0.4083 -0.2673  0.4217
 8928TIP3    H126727   3.329   1.625   2.001  0.4831 -1.3918 -1.8690
 8928TIP3    H226728   3.367   1.487   2.050  1.1230 -0.8564 -0.8117
 8929TIP3   OH226729   0.227   7.309   1.039 -0.0182 -0.3290 -0.0925
 8929TIP3    H126730   0.240   7.367   0.964 -0.4717  0.1241  0.1695
 8929TIP3    H226731   0.132   7.312   1.055  0.1609  0.2024  0.9721
 8930TIP3   OH226732   5.726   0.352   2.327 -0.1947 -0.0174  0.2561
 8930TIP3    H126733   5.775   0.418   2.375 -0.1295 -0.3066  0.5857
 8930TIP3    H226734   5.635   0.361   2.357  0.0951 -1.2331  1.6152
 8931TIP3   OH226735   4.522   2.477   4.494 -0.0641  0.2920 -0.4487
 8931TIP3    H126736   4.597   2.508   4.544  0.4341  0.8118 -1.4901
 8931TIP3    H226737   4.559   2.418   4.428 -0.9747 -2.7831  1.5263
 8932TIP3   OH226738   4.724   0.090   2.262 -0.8471 -0.4981 -0.3155
 8932TIP3    H126739   4.694   0.067   2.349 -1.1420  0.8056 -0.0613
 8932TIP3    H226740   4.659   0.051   2.203 -2.0274  0.7125  0.1503
 8933TIP3   OH226741   5.384   5.187   2.064 -0.3355  0.0022  0.3395
 8933TIP3    H126742   5.294   5.162   2.083 -0.1984 -0.1472  0.8087
 8933TIP3    H226743   5.437   5.132   2.122  0.0935 -0.3594 -0.3748
 8934TIP3   OH226744   4.823   5.617   6.706 -0.4306 -0.1488 -0.7449
 8934TIP3    H126745   4.792   5.630   6.616 -4.7209  1.0730  0.6762
 8934TIP3    H226746   4.825   5.522   6.717 -0.8222 -0.3006 -1.8254
 8935TIP3   OH226747   1.918   7.233   4.914  0.3351  0.1430 -0.4382
 8935TIP3    H126748   1.984   7.277   4.967 -0.0989  1.0781 -0.6472
 8935TIP3    H226749   1.907   7.288   4.837  0.1484 -0.6127 -0.9679
 8936TIP3   OH226750   6.631   3.971   0.819 -0.3561  0.3812 -0.4715
 8936TIP3    H126751   6.649   3.952   0.727  0.4706  0.3197 -0.3031
 8936TIP3    H226752   6.666   3.896   0.867 -0.7019  0.4546 -0.0979
 8937TIP3   OH226753   5.421   1.851   0.209  0.1664  0.0273 -0.0844
 8937TIP3    H126754   5.380   1.936   0.191  0.8059  0.5378  0.7857
 8937TIP3    H226755   5.350   1.788   0.202 -0.7778  0.8853  1.3784
 8938TIP3   OH226756   1.637   3.256   3.735  0.1332 -0.8014 -0.4536
 8938TIP3    H126757   1.597   3.170   3.750  2.3987 -2.0841 -1.2330
 8938TIP3    H226758   1.585   3.295   3.665 -0.1647 -2.1004 -0.9822
 8939TIP3   OH226759   0.499   2.460   1.669  0.0907  0.0676  0.1115
 8939TIP3    H126760   0.581   2.508   1.683  0.5858 -0.0346 -2.1021
 8939TIP3    H226761   0.431   2.527   1.675  0.5057  0.5052 -0.0289
 8940TIP3   OH226762   6.178   1.915   1.773  0.2479 -0.3424 -0.2154
 8940TIP3    H126763   6.268   1.894   1.749  0.4600 -0.2473  0.4813
 8940TIP3    H226764   6.175   2.011   1.769 -0.0060 -0.3699 -0.8621
 8941TIP3   OH226765   4.245   1.476   5.657  0.2863 -0.1119 -0.5087
 8941TIP3    H126766   4.255   1.423   5.578  1.3912 -0.7238  0.0132
 8941TIP3    H226767   4.271   1.564   5.630  1.1190 -0.4129 -0.7236
 8942TIP3   OH226768   0.457   7.169   3.711 -0.0270  0.7693 -0.7971
 8942TIP3    H126769   0.499   7.139   3.792  0.2665 -0.1922 -1.2923
 8942TIP3    H226770   0.508   7.245   3.684  0.4429  0.5434 -0.5609
 8943TIP3   OH226771   0.265   6.872   2.345 -0.1141 -0.4949  0.0116
 8943TIP3    H126772   0.252   6.893   2.438 -1.4963  0.9475 -0.4607
 8943TIP3    H226773   0.318   6.944   2.311 -0.3906 -0.5315 -0.5116
 8944TIP3   OH226774   1.188   3.515   3.269 -0.1825 -0.3340  0.1031
 8944TIP3    H126775   1.265   3.560   3.303 -0.8765  0.6630  0.4048
 8944TIP3    H226776   1.158   3.570   3.196  0.0448 -1.3145 -0.7487
 8945TIP3   OH226777   3.312   0.019   6.734 -0.4870  0.0700  0.0362
 8945TIP3    H126778   3.395   0.037   6.691  0.9715 -2.0848  1.7400
 8945TIP3    H226779   3.250   0.007   6.663  0.7249  1.2740 -1.2878
 8946TIP3   OH226780   2.316   7.446   6.433 -0.1437  0.4761  0.0418
 8946TIP3    H126781   2.379   7.492   6.488  2.1673 -1.6945 -0.6091
 8946TIP3    H226782   2.265   7.393   6.493  1.4144 -0.7986  0.3199
 8947TIP3   OH226783   5.783   0.813   2.386 -0.1924  0.3445  0.0623
 8947TIP3    H126784   5.817   0.892   2.427  0.6090 -0.5940  1.2931
 8947TIP3    H226785   5.691   0.809   2.414  0.2658 -0.1336  1.6240
 8948TIP3   OH226786   4.688   5.687   0.084  0.0711 -0.3042 -0.3664
 8948TIP3    H126787   4.622   5.619   0.102 -1.2646  0.9413 -0.3998
 8948TIP3    H226788   4.735   5.697   0.167 -1.3974  0.4652  0.4153
 8949TIP3   OH226789   4.620   1.405   3.878 -0.5082  0.2306  0.0243
 8949TIP3    H126790   4.572   1.363   3.949  0.2008  2.1953  1.7805
 8949TIP3    H226791   4.578   1.490   3.866 -0.1703  0.2231 -1.4444
 8950TIP3   OH226792   5.479   7.205   5.755 -0.3180 -0.1997  0.5324
 8950TIP3    H126793   5.523   7.289   5.768  1.1096 -0.4508 -1.9224
 8950TIP3    H226794   5.409   7.224   5.692 -0.1465 -0.7831  0.1524
 8951TIP3   OH226795   7.201   1.619   3.449  0.3990 -0.0228  0.1270
 8951TIP3    H126796   7.237   1.531   3.461 -0.0552 -0.1158  0.8910
 8951TIP3    H226797   7.107   1.609   3.467  0.4390  0.7276  0.8031
 8952TIP3   OH226798   6.387   6.667   5.294 -0.0923  0.0071 -0.6014
 8952TIP3    H126799   6.376   6.622   5.210 -1.5486  1.6620 -1.3510
 8952TIP3    H226800   6.389   6.596   5.359 -0.2181 -1.2318 -1.8897
 8953TIP3   OH226801   8.170   3.062   2.812 -0.4545 -0.0244  0.0241
 8953TIP3    H126802   8.245   3.004   2.821 -1.7703 -2.0365 -1.3502
 8953TIP3    H226803   8.197   3.126   2.747  0.4700  0.0175  0.4308
 8954TIP3   OH226804   5.070   0.226   0.193 -0.1172  0.0722  0.0881
 8954TIP3    H126805   5.123   0.269   0.261 -1.3726  2.0851 -0.1426
 8954TIP3    H226806   4.988   0.204   0.238  0.2497 -1.5219  0.0188
 8955TIP3   OH226807   3.035   3.351   5.389  0.2224  0.1961  0.1158
 8955TIP3    H126808   2.947   3.383   5.372  1.1475  3.5999  1.1093
 8955TIP3    H226809   3.044   3.351   5.484  0.8245 -1.7358  0.1161
 8956TIP3   OH226810   3.830   5.407   5.612  0.3161 -0.5523 -0.1559
 8956TIP3    H126811   3.834   5.485   5.557  0.4572  0.4322  1.1858
 8956TIP3    H226812   3.742   5.410   5.651  1.3720  0.7914  2.3908
 8957TIP3   OH226813   2.030   5.709   6.230  0.3460 -0.5421 -0.0130
 8957TIP3    H126814   2.066   5.794   6.203 -0.5916 -0.6093 -1.6604
 8957TIP3    H226815   2.050   5.651   6.156 -0.9239 -1.1970  0.1392
 8958TIP3   OH226816   6.799   1.959   4.960  0.0914 -0.0117  0.6357
 8958TIP3    H126817   6.836   1.929   5.044  0.2721  0.0984  0.5945
 8958TIP3    H226818   6.874   1.987   4.909 -0.0789  0.5568  0.6865
 8959TIP3   OH226819   6.986   3.081   0.859  0.0246 -0.2090  0.3000
 8959TIP3    H126820   7.024   3.147   0.801 -1.7578  0.5268 -0.0974
 8959TIP3    H226821   7.052   3.068   0.927  1.7637 -0.3903 -1.3307
 8960TIP3   OH226822   0.862   1.066   0.696  0.0550  0.1136  0.4012
 8960TIP3    H126823   0.922   1.067   0.771  0.9193  0.4454 -0.2767
 8960TIP3    H226824   0.818   0.981   0.701 -1.4616  0.9534  2.4688
 8961TIP3   OH226825   2.928   7.092   2.918 -0.0735 -0.9649  0.4046
 8961TIP3    H126826   2.890   7.049   2.841  1.2362  0.1040 -0.8842
 8961TIP3    H226827   3.012   7.048   2.932  0.7157  0.3402 -0.1707
 8962TIP3   OH226828   3.792   2.517   0.240  0.3522 -0.3346 -0.2889
 8962TIP3    H126829   3.800   2.489   0.148  1.9202 -1.3192  0.1080
 8962TIP3    H226830   3.788   2.436   0.290 -1.4673  0.1844  0.4964
 8963TIP3   OH226831   7.677   0.865   2.840 -0.2145  0.2174 -0.1314
 8963TIP3    H126832   7.759   0.913   2.850 -0.0338  0.4015 -2.0946
 8963TIP3    H226833   7.689   0.785   2.891  0.8000  0.7141  0.4200
 8964TIP3   OH226834   4.539   1.295   5.816  0.1727 -0.4005  0.5929
 8964TIP3    H126835   4.550   1.288   5.721 -0.7464 -1.4403  0.5485
 8964TIP3    H226836   4.559   1.386   5.836  0.6243 -0.2349 -0.5654
 8965TIP3   OH226837   1.768   0.964   3.146  0.0657 -0.1153 -0.7601
 8965TIP3    H126838   1.831   1.034   3.165  1.4705 -1.3836 -0.4871
 8965TIP3    H226839   1.693   1.008   3.107  0.1549  1.7393  1.0353
 8966TIP3   OH226840   2.533   5.737   2.775  0.1692  0.2911  0.5087
 8966TIP3    H126841   2.530   5.647   2.807  1.6681 -0.4658 -1.3353
 8966TIP3    H226842   2.461   5.743   2.713  2.6616 -1.1530 -2.8104
 8967TIP3   OH226843   0.150   2.696   1.717 -0.1204 -0.1138  0.1428
 8967TIP3    H126844   0.199   2.644   1.781  0.4224 -0.5435 -0.6044
 8967TIP3    H226845   0.059   2.669   1.729  0.2482 -1.9403 -0.8439
 8968TIP3   OH226846   2.606   0.564   5.648 -0.1499  0.4099  0.1842
 8968TIP3    H126847   2.555   0.606   5.580 -1.2294  1.1771  1.4095
 8968TIP3    H226848   2.540   0.529   5.709  0.7667  0.0298  0.9871
 8969TIP3   OH226849   1.001   5.651   3.722 -0.6209 -0.2814 -0.0606
 8969TIP3    H126850   1.005   5.668   3.628  1.0843  2.0904  0.3313
 8969TIP3    H226851   0.937   5.714   3.755  0.2042  0.2668  0.5543
 8970TIP3   OH226852   7.082   4.675   2.955  0.0494  0.6286 -0.3154
 8970TIP3    H126853   7.101   4.764   2.984 -0.3203  0.0085  2.0594
 8970TIP3    H226854   7.158   4.649   2.904  1.8753  1.1127  1.9927
 8971TIP3   OH226855   2.296   3.329   2.125 -0.6566 -0.2411 -0.2246
 8971TIP3    H126856   2.236   3.392   2.086  0.2033  0.4047 -0.5301
 8971TIP3    H226857   2.371   3.327   2.066  0.1508 -0.1321  0.7716
 8972TIP3   OH226858   3.388   2.550   4.205  0.4363  0.3484 -0.3257
 8972TIP3    H126859   3.415   2.466   4.168 -1.4921 -0.1272 -0.7356
 8972TIP3    H226860   3.294   2.554   4.191  0.0968  1.5377  1.8271
 8973TIP3   OH226861   2.009   3.410   6.704  0.2680 -0.2504  0.2592
 8973TIP3    H126862   1.938   3.470   6.681 -1.7132 -2.7601 -0.6861
 8973TIP3    H226863   2.008   3.405   6.799  1.4724  2.2463  0.4639
 8974TIP3   OH226864   7.759   4.992   0.879  0.1487  0.1363  0.1755
 8974TIP3    H126865   7.766   4.935   0.955  1.0624 -0.9991 -0.7084
 8974TIP3    H226866   7.666   4.997   0.860  0.0579 -1.3173  0.1233
 8975TIP3   OH226867   5.714   4.816   2.556  0.5025 -0.3763  0.2848
 8975TIP3    H126868   5.701   4.731   2.514  1.1378 -0.3155 -0.0474
 8975TIP3    H226869   5.727   4.877   2.484 -0.3942  0.0874  0.5070
 8976TIP3   OH226870   1.479   2.979   1.664 -0.2260 -0.3873  0.2024
 8976TIP3    H126871   1.459   2.977   1.758  0.0718  0.1321  0.2797
 8976TIP3    H226872   1.398   2.949   1.622 -0.2948 -0.8110  0.6341
 8977TIP3   OH226873   1.008   3.144   5.599  0.0009  0.0910 -0.4129
 8977TIP3    H126874   1.010   3.235   5.628 -1.0094 -0.1146  0.3852
 8977TIP3    H226875   1.099   3.115   5.605  0.2669  0.9207 -0.2602
 8978TIP3   OH226876   3.995   0.232   5.347 -0.3602  0.1170  0.7558
 8978TIP3    H126877   4.021   0.202   5.434  0.8709 -0.8171  0.0953
 8978TIP3    H226878   3.981   0.326   5.358  0.7198  0.1855  1.7610
 8979TIP3   OH226879   3.902   5.972   5.199  0.2869  0.4376 -0.4783
 8979TIP3    H126880   3.875   5.996   5.111 -0.7584  0.1145 -0.2561
 8979TIP3    H226881   3.995   5.997   5.203 -0.4453  3.5858 -0.5593
 8980TIP3   OH226882   2.730   6.578   6.114 -0.8634  0.1884 -0.0827
 8980TIP3    H126883   2.653   6.524   6.099 -0.8951  0.0750  0.4456
 8980TIP3    H226884   2.711   6.624   6.196 -0.5000  0.3872 -0.1083
 8981TIP3   OH226885   8.233   7.389   6.167 -0.4458 -0.3745 -0.0824
 8981TIP3    H126886   8.171   7.336   6.117  1.2663 -1.9808 -0.6636
 8981TIP3    H226887   8.310   7.396   6.110 -0.0431  1.4593  0.6300
 8982TIP3   OH226888   4.177   2.077   4.767  0.4051 -0.1181  0.0775
 8982TIP3    H126889   4.194   2.169   4.748  1.1960 -0.2031  0.3755
 8982TIP3    H226890   4.081   2.072   4.770  0.3490  0.6841  0.0254
 8983TIP3   OH226891   0.771   0.334   3.064  0.3496 -0.4479 -0.0923
 8983TIP3    H126892   0.701   0.283   3.106 -2.2215  0.9594 -2.3727
 8983TIP3    H226893   0.766   0.420   3.105 -0.4474  0.1577 -1.3971
 8984TIP3   OH226894   2.316   4.187   1.730 -0.1331  0.1190  0.2068
 8984TIP3    H126895   2.326   4.115   1.792  2.3035 -0.1898 -0.4412
 8984TIP3    H226896   2.275   4.257   1.781  0.9175 -0.4475  1.9131
 8985TIP3   OH226897   0.077   6.319   4.647 -0.6934  0.2520 -0.0981
 8985TIP3    H126898   0.126   6.242   4.674 -0.1322  0.7117  0.2093
 8985TIP3    H226899  -0.013   6.288   4.638 -0.8221 -0.0520  1.8277
 8986TIP3   OH226900   7.079   7.814   1.094 -0.1908  0.1416  0.0273
 8986TIP3    H126901   7.102   7.746   1.032  1.4067 -1.0392  1.8091
 8986TIP3    H226902   6.987   7.835   1.074 -0.8037 -2.6313 -0.4925
 8987TIP3   OH226903   3.529   4.035   4.202 -0.6153 -0.0166 -0.5402
 8987TIP3    H126904   3.459   3.976   4.231 -0.7385  0.4274  0.0859
 8987TIP3    H226905   3.489   4.122   4.207 -0.3499  0.1476 -1.1987
 8988TIP3   OH226906   6.258   3.136   4.178 -0.1541  0.4355  0.1196
 8988TIP3    H126907   6.238   3.058   4.127  1.4025 -0.2522  0.5305
 8988TIP3    H226908   6.190   3.138   4.246  0.3063 -1.0782  0.6644
 8989TIP3   OH226909   3.137   4.344   5.327  0.2101 -0.7545  0.0434
 8989TIP3    H126910   3.229   4.370   5.324 -0.3387  1.3301 -0.0219
 8989TIP3    H226911   3.113   4.346   5.419 -0.2937  0.8336 -0.0909
 8990TIP3   OH226912   7.580   6.090   0.032  0.2304 -0.4852 -0.0236
 8990TIP3    H126913   7.556   6.066   0.122 -0.1832  1.1197  0.3142
 8990TIP3    H226914   7.527   6.032  -0.023 -0.0466 -0.9926  0.7578
 8991TIP3   OH226915   5.736   1.274   1.246  0.3720  0.0902  0.0800
 8991TIP3    H126916   5.802   1.265   1.316  0.3665  1.9884  0.3767
 8991TIP3    H226917   5.775   1.229   1.171  2.4034  1.7429  0.0305
 8992TIP3   OH226918   4.798   5.405   4.917 -0.9249  0.0923 -0.2145
 8992TIP3    H126919   4.728   5.392   4.853  0.1753  0.3192 -1.5061
 8992TIP3    H226920   4.862   5.336   4.898 -0.0428  0.8587 -0.1363
 8993TIP3   OH226921   4.406   2.089   4.585 -0.8519 -0.2864  0.0008
 8993TIP3    H126922   4.326   2.066   4.633  0.2190  1.8966  3.1898
 8993TIP3    H226923   4.380   2.161   4.527 -1.4637 -0.5705 -0.0836
 8994TIP3   OH226924   4.894   2.788   6.646  0.0889  0.0948  0.1567
 8994TIP3    H126925   4.961   2.732   6.609 -0.1446 -0.4721  0.5827
 8994TIP3    H226926   4.814   2.765   6.599  0.1517  0.6375 -0.2227
 8995TIP3   OH226927   4.932   7.376   5.266  0.4371  0.3855 -0.5974
 8995TIP3    H126928   4.911   7.387   5.173  0.5551  1.2377 -0.5370
 8995TIP3    H226929   4.996   7.445   5.284  0.0666  0.5342  0.2254
 8996TIP3   OH226930   6.548   7.394   0.361 -0.1048 -0.1424 -0.3068
 8996TIP3    H126931   6.556   7.402   0.456  0.2441  2.3692 -0.4829
 8996TIP3    H226932   6.581   7.306   0.341  1.1592 -0.1972  1.7565
 8997TIP3   OH226933   3.969   5.427   1.337 -0.3835 -0.2915 -0.3398
 8997TIP3    H126934   3.988   5.481   1.413 -2.0339  0.6322 -0.5331
 8997TIP3    H226935   4.032   5.355   1.342 -0.1186  0.0205  1.5957
 8998TIP3   OH226936   1.500   2.852   4.476 -0.2017  0.3155  0.5479
 8998TIP3    H126937   1.414   2.871   4.513 -0.0331 -0.6054  1.4607
 8998TIP3    H226938   1.528   2.935   4.436 -1.4586  0.6460  0.3220
 8999TIP3   OH226939   1.963   3.030   6.207 -0.1910 -0.3652  0.1275
 8999TIP3    H126940   2.000   3.007   6.122 -0.2291  2.9083 -0.9164
 8999TIP3    H226941   1.871   3.005   6.201  0.0361 -1.1414 -0.3371
 9000TIP3   OH226942   5.005   6.156   3.625 -0.3823 -0.9912  0.2982
 9000TIP3    H126943   5.049   6.174   3.542  0.5634 -0.0191  0.9948
 9000TIP3    H226944   4.923   6.204   3.619  0.3832  0.3919  0.5484
 9001TIP3   OH226945   3.927   2.136   4.608  0.5764 -0.1357 -0.8363
 9001TIP3    H126946   4.014   2.167   4.581  0.5182  0.7199 -0.0966
 9001TIP3    H226947   3.896   2.202   4.670 -0.0940 -1.0590 -0.1544
 9002TIP3   OH226948   0.076   7.290   2.806  0.0590  0.1639 -0.1808
 9002TIP3    H126949   0.140   7.359   2.789  0.5327  0.3842  2.1620
 9002TIP3    H226950   0.068   7.243   2.723  0.8179  2.1184 -1.4213
 9003TIP3   OH226951   6.896   0.684   0.209 -0.6562 -0.2688 -0.0846
 9003TIP3    H126952   6.897   0.629   0.131 -1.8870  1.7828 -1.6717
 9003TIP3    H226953   6.845   0.761   0.183  1.5575  1.9775  1.7238
 9004TIP3   OH226954   1.450   7.597   1.901  0.3352  0.4106  0.0275
 9004TIP3    H126955   1.359   7.618   1.883 -0.4887  0.2184  3.4061
 9004TIP3    H226956   1.481   7.670   1.954  1.7636 -0.1810  0.0509
 9005TIP3   OH226957   7.422   1.694   1.106  0.0552  0.4044  0.1953
 9005TIP3    H126958   7.441   1.786   1.125  0.0501 -0.0570  2.9491
 9005TIP3    H226959   7.455   1.679   1.018  0.0071  3.0405 -0.3334
 9006TIP3   OH226960   0.078   1.138   2.826  0.2546  0.1096 -0.1320
 9006TIP3    H126961   0.165   1.175   2.812  0.4893 -0.0893  0.7746
 9006TIP3    H226962   0.024   1.213   2.851  1.0421 -0.2595  3.1273
 9007TIP3   OH226963   4.801   5.953   1.042 -0.5110  0.3362  0.5041
 9007TIP3    H126964   4.764   5.864   1.040 -1.6962  0.6491  3.4100
 9007TIP3    H226965   4.893   5.939   1.064 -0.4355 -0.2073 -0.1294
 9008TIP3   OH226966   8.189   2.828   4.087  0.3214 -0.0195  0.0110
 9008TIP3    H126967   8.135   2.754   4.113 -0.1974  0.4844  0.4019
 9008TIP3    H226968   8.211   2.812   3.995  1.5870 -1.4758  0.5277
 9009TIP3   OH226969   4.948   4.273   3.132 -0.2921  0.0324 -0.3715
 9009TIP3    H126970   4.858   4.265   3.166  0.2671  0.6960  1.3956
 9009TIP3    H226971   4.977   4.183   3.119 -0.5761 -0.2714  0.9127
 9010TIP3   OH226972   3.803   7.406   2.193  0.2595 -0.0713  0.6863
 9010TIP3    H126973   3.836   7.318   2.211  0.3263 -0.4627 -1.1571
 9010TIP3    H226974   3.719   7.410   2.239 -0.8915 -2.0059 -1.0423
 9011TIP3   OH226975   4.828   7.144   4.550 -0.0774 -0.7702 -0.1119
 9011TIP3    H126976   4.808   7.098   4.468  0.7669 -0.2649 -0.6232
 9011TIP3    H226977   4.743   7.155   4.593 -0.5342 -1.0592 -0.9140
 9012TIP3   OH226978   5.088   4.494   5.161 -0.4099  0.0075  0.0474
 9012TIP3    H126979   5.005   4.538   5.181  0.3881  0.7526  1.9719
 9012TIP3    H226980   5.070   4.401   5.175 -1.0675  0.0901 -0.1907
 9013TIP3   OH226981   0.750   0.710   1.778 -0.1131  0.0768 -0.0859
 9013TIP3    H126982   0.821   0.767   1.748 -0.8666  0.8909 -0.3685
 9013TIP3    H226983   0.697   0.766   1.834 -0.5418 -0.5193  0.1090
 9014TIP3   OH226984   4.617   1.711   4.659  0.2101 -0.5063 -0.0054
 9014TIP3    H126985   4.632   1.702   4.753 -1.8945 -1.1380  0.3274
 9014TIP3    H226986   4.626   1.622   4.625  1.1328 -0.2538 -0.4519
 9015TIP3   OH226987   7.539   2.161   6.422 -0.1029  0.0713  0.1035
 9015TIP3    H126988   7.571   2.079   6.384  0.3484  0.0552  0.5030
 9015TIP3    H226989   7.574   2.229   6.364 -0.6902 -0.0258 -0.3739
 9016TIP3   OH226990   3.865   3.215   1.649  0.0034 -0.5777 -0.2534
 9016TIP3    H126991   3.777   3.217   1.611  0.3333  0.7989 -1.0113
 9016TIP3    H226992   3.859   3.271   1.726  0.5083  0.5289 -1.0064
 9017TIP3   OH226993   4.129   4.787   3.339  0.4857  0.1687  0.0350
 9017TIP3    H126994   4.102   4.847   3.408  0.7050  1.7150 -1.1782
 9017TIP3    H226995   4.216   4.757   3.367 -0.5548 -1.4748  1.7930
 9018TIP3   OH226996   5.670   7.325   0.432 -0.3999 -0.7767  0.4547
 9018TIP3    H126997   5.756   7.285   0.443 -0.6733 -0.9825  1.9623
 9018TIP3    H226998   5.610   7.251   0.420 -0.3912 -0.6357 -0.5501
 9019TIP3   OH226999   0.330   0.046   5.845  0.2110 -0.0464 -0.3655
 9019TIP3    H127000   0.421   0.067   5.867  0.9552 -2.2066 -1.1782
 9019TIP3    H227001   0.322   0.070   5.753  0.6124 -1.7042 -0.8681
 9020TIP3   OH227002   6.585   6.314   6.260 -0.0207  0.3850  0.1853
 9020TIP3    H127003   6.650   6.352   6.201  0.1399  0.4178  0.3818
 9020TIP3    H227004   6.512   6.289   6.203  0.3905 -0.1528 -0.1113
 9021TIP3   OH227005   8.047   5.416   3.386 -0.2474 -0.4199  0.0767
 9021TIP3    H127006   7.957   5.425   3.354 -0.7745 -1.3807  1.1969
 9021TIP3    H227007   8.102   5.431   3.309 -1.2812  1.7695 -0.3328
 9022TIP3   OH227008   6.939   6.682   0.459  0.2466  0.2328  0.1971
 9022TIP3    H127009   6.853   6.680   0.416  1.1373 -1.9637 -1.6822
 9022TIP3    H227010   6.929   6.626   0.536 -0.3368  1.1561  0.8248
 9023TIP3   OH227011   7.444   0.760   0.646  0.4508 -0.2703  0.2247
 9023TIP3    H127012   7.459   0.825   0.577 -1.4429 -0.9191 -0.9025
 9023TIP3    H227013   7.507   0.691   0.628 -0.9160 -1.1053 -1.8524
 9024TIP3   OH227014   4.725   2.439   5.269  0.0324  0.1632 -0.0129
 9024TIP3    H127015   4.728   2.345   5.288 -0.8904  0.2061  0.4312
 9024TIP3    H227016   4.786   2.478   5.331  0.3757 -0.1388 -0.1589
 9025TIP3   OH227017   5.040   5.197   1.040 -0.3021  0.2652 -0.0501
 9025TIP3    H127018   5.108   5.167   0.979  0.6318 -2.4642  2.1829
 9025TIP3    H227019   5.084   5.262   1.094  0.2892 -0.8051  0.7754
 9026TIP3   OH227020   7.639   3.210   5.133  0.8460 -0.2889 -0.1161
 9026TIP3    H127021   7.712   3.153   5.158 -0.3168 -1.6301  0.3519
 9026TIP3    H227022   7.637   3.205   5.037  2.4901  1.2596 -0.2895
 9027TIP3   OH227023   3.783   3.887   6.608 -0.3671  0.8114  0.5026
 9027TIP3    H127024   3.809   3.795   6.598 -0.7281  0.8412 -0.9613
 9027TIP3    H227025   3.761   3.896   6.700 -1.9430 -1.0113  0.3575
 9028TIP3   OH227026   6.521   3.072   4.228  0.1711 -0.3471 -0.1542
 9028TIP3    H127027   6.425   3.074   4.221  0.1736 -0.1514 -0.1317
 9028TIP3    H227028   6.546   3.164   4.235  0.2846 -0.4368  0.8474
 9029TIP3   OH227029   1.713   3.122   1.135  0.0040  0.3385 -0.0398
 9029TIP3    H127030   1.764   3.203   1.144  0.5604 -0.1088  1.1605
 9029TIP3    H227031   1.779   3.052   1.136 -0.2147 -0.1113 -3.6625
 9030TIP3   OH227032   0.404   4.959   6.442 -0.1639  0.0556  0.2276
 9030TIP3    H127033   0.380   4.964   6.535  0.4455 -0.0856  0.3966
 9030TIP3    H227034   0.328   4.993   6.396 -0.0743  1.1319  0.8367
 9031TIP3   OH227035   1.036   1.837   0.250 -1.0251  0.3247 -0.3657
 9031TIP3    H127036   1.040   1.855   0.156  0.0776 -1.7644 -0.7883
 9031TIP3    H227037   1.015   1.744   0.255  0.2448  0.0854  1.4007
 9032TIP3   OH227038   4.999   5.554   5.816 -0.1342  0.4268  0.1292
 9032TIP3    H127039   5.062   5.483   5.801 -1.1952 -0.2885 -1.1777
 9032TIP3    H227040   5.031   5.598   5.895  0.6503 -1.4072  0.9018
 9033TIP3   OH227041   4.226   1.396   0.337 -0.2495  0.2279  0.2403
 9033TIP3    H127042   4.277   1.427   0.262 -0.1458 -0.3165  0.0846
 9033TIP3    H227043   4.271   1.431   0.413 -1.1033  1.9187  0.0127
 9034TIP3   OH227044   2.296   6.934   5.211  0.1104 -0.0501  0.1317
 9034TIP3    H127045   2.379   6.981   5.209 -0.0885  0.3419  0.6846
 9034TIP3    H227046   2.271   6.924   5.119 -0.5454  2.1851  0.0058
 9035TIP3   OH227047   7.288   7.606   5.694  0.3433 -0.1267 -1.2449
 9035TIP3    H127048   7.353   7.637   5.757  0.4110 -0.1373 -1.3088
 9035TIP3    H227049   7.210   7.659   5.711  0.9846  1.2896 -2.4887
 9036TIP3   OH227050   3.223   0.380   4.731 -0.2373 -0.3504  0.4440
 9036TIP3    H127051   3.137   0.390   4.774  0.5794  0.5459  1.9653
 9036TIP3    H227052   3.286   0.387   4.803  1.1468 -0.3092 -0.7423
 9037TIP3   OH227053   0.426   0.852   6.743  0.1982 -0.0952  0.0369
 9037TIP3    H127054   0.426   0.785   6.675 -1.5472 -0.6912  0.5916
 9037TIP3    H227055   0.340   0.846   6.785  0.8699  0.8720  1.6960
 9038TIP3   OH227056   6.317   5.275   0.869 -0.0841 -0.3542  0.3310
 9038TIP3    H127057   6.236   5.226   0.886 -0.4655 -1.4941 -3.7553
 9038TIP3    H227058   6.380   5.208   0.841  0.6253  1.0358 -1.5489
 9039TIP3   OH227059   3.274   1.462   4.619 -0.3678 -0.4462 -0.0714
 9039TIP3    H127060   3.302   1.395   4.682  0.8418 -0.7885 -0.9399
 9039TIP3    H227061   3.286   1.420   4.534  2.9564  1.6551 -0.8312
 9040TIP3   OH227062   3.856   5.147   5.870 -0.7034 -0.3085  0.4512
 9040TIP3    H127063   3.762   5.163   5.882 -1.0192 -1.5710 -0.1704
 9040TIP3    H227064   3.871   5.161   5.777  0.2540  2.2234  0.8967
 9041TIP3   OH227065   7.305   7.240   3.430 -0.1614  0.0899  0.1006
 9041TIP3    H127066   7.302   7.218   3.337 -0.2447 -2.2049  0.5967
 9041TIP3    H227067   7.226   7.199   3.467 -1.5120  3.0578  0.8394
 9042TIP3   OH227068   4.739   2.169   2.549 -0.2402  0.1502 -0.4604
 9042TIP3    H127069   4.658   2.195   2.505  0.0834  1.9971 -0.0686
 9042TIP3    H227070   4.724   2.080   2.578 -2.2149  0.5212 -0.2420
 9043TIP3   OH227071   5.856   3.230   3.151  0.2564 -0.3626  0.4828
 9043TIP3    H127072   5.895   3.316   3.141 -1.0558  0.1258 -0.8321
 9043TIP3    H227073   5.917   3.170   3.109 -0.5855  0.4630 -2.1116
 9044TIP3   OH227074   6.257   0.578   5.402  0.1588  0.6066 -0.9788
 9044TIP3    H127075   6.302   0.536   5.328 -0.9316 -0.1439 -1.2362
 9044TIP3    H227076   6.204   0.509   5.440  1.3901  0.7404  1.1217
 9045TIP3   OH227077   7.504   6.186   4.111  0.0908 -0.1229 -0.2924
 9045TIP3    H127078   7.567   6.234   4.058 -0.1092  1.0119  0.4610
 9045TIP3    H227079   7.514   6.222   4.199 -0.2873 -1.2589  0.2351
 9046TIP3   OH227080   3.432   7.034   6.278  0.4950  0.3596 -0.0392
 9046TIP3    H127081   3.337   7.046   6.265  0.8954  1.9067 -2.1543
 9046TIP3    H227082   3.452   7.086   6.356 -0.3270  0.4453  0.1262
 9047TIP3   OH227083   0.567   4.117   2.630  0.2039 -0.9667  0.0813
 9047TIP3    H127084   0.632   4.134   2.698 -0.2550 -0.8523  0.4994
 9047TIP3    H227085   0.581   4.185   2.565  0.7324 -1.1547 -0.0033
 9048TIP3   OH227086   0.828   4.987   0.547 -0.1021 -0.6496 -0.1462
 9048TIP3    H127087   0.889   4.948   0.610 -1.2265 -1.0634  0.7046
 9048TIP3    H227088   0.774   5.046   0.599  0.6837  1.0661 -1.1992
 9049TIP3   OH227089   2.972   0.622   0.120 -0.2776 -0.1986  0.0593
 9049TIP3    H127090   2.890   0.669   0.132 -0.8599 -1.4398  1.1724
 9049TIP3    H227091   3.001   0.600   0.209  0.3000 -1.3709 -0.3973
 9050TIP3   OH227092   8.209   4.955   5.220  0.1086 -0.5835 -0.5259
 9050TIP3    H127093   8.281   4.972   5.281  0.2580  1.5355 -1.2393
 9050TIP3    H227094   8.131   4.950   5.275  0.3220  0.7199 -0.0788
 9051TIP3   OH227095   1.514   5.083   4.497 -0.3112  0.1320  0.4478
 9051TIP3    H127096   1.609   5.091   4.494 -0.2548  0.2320  1.7887
 9051TIP3    H227097   1.490   5.048   4.411  0.9133  0.2410  0.0411
 9052TIP3   OH227098   5.406   6.112   6.652  0.1022 -0.3080  0.1893
 9052TIP3    H127099   5.398   6.073   6.738 -1.8256 -0.4816 -0.0209
 9052TIP3    H227100   5.353   6.057   6.595  1.2309 -0.1220 -1.0947
 9053TIP3   OH227101   3.930   5.497   1.090 -0.5112  0.1798 -0.3557
 9053TIP3    H127102   3.846   5.543   1.095 -1.8487 -2.0345 -0.5819
 9053TIP3    H227103   3.933   5.443   1.169 -1.3123 -2.7323 -2.1125
 9054TIP3   OH227104   4.807   6.245   6.424  0.7208  0.5607 -0.4044
 9054TIP3    H127105   4.761   6.300   6.360  0.2412 -0.7479 -1.2255
 9054TIP3    H227106   4.744   6.236   6.497  0.9678  1.4184 -0.0699
 9055TIP3   OH227107   2.862   7.767   1.793 -0.1972  0.6150  0.4203
 9055TIP3    H127108   2.769   7.746   1.782 -0.1214  0.2495  0.4528
 9055TIP3    H227109   2.896   7.777   1.704  0.1763 -1.2644  0.3141
 9056TIP3   OH227110   5.630   4.583   2.888 -0.8608  0.1146 -0.4016
 9056TIP3    H127111   5.562   4.561   2.824 -1.1149  2.5680 -1.0885
 9056TIP3    H227112   5.585   4.583   2.972 -1.0764 -0.8402 -0.5054
 9057TIP3   OH227113   2.133   2.860   0.720 -0.6774 -0.2965 -0.0558
 9057TIP3    H127114   2.062   2.807   0.755 -0.8248 -0.4438 -0.5718
 9057TIP3    H227115   2.100   2.892   0.636 -0.3340  0.0635 -0.0555
 9058TIP3   OH227116   0.360   1.726   5.130 -0.3453  0.0769  0.4498
 9058TIP3    H127117   0.403   1.810   5.111 -0.0968 -0.3611 -0.9726
 9058TIP3    H227118   0.267   1.748   5.135 -0.5718  0.1085 -2.3260
 9059TIP3   OH227119   4.049   6.478   5.374  0.2347  0.5305 -0.3338
 9059TIP3    H127120   4.026   6.393   5.410  0.2853  0.7104  0.1215
 9059TIP3    H227121   3.973   6.534   5.393 -0.1279  0.3919 -1.3122
 9060TIP3   OH227122   4.918   5.667   4.493 -0.3383 -0.4830 -0.4028
 9060TIP3    H127123   4.932   5.660   4.587 -0.0401 -2.9150 -0.5432
 9060TIP3    H227124   5.006   5.665   4.455 -0.4922 -1.3150 -0.7558
 9061TIP3   OH227125   0.591   1.059   5.388 -0.1830  0.2787  0.9650
 9061TIP3    H127126   0.590   0.993   5.319  1.5024 -1.7948  2.7433
 9061TIP3    H227127   0.653   1.125   5.357 -1.6838  0.9750 -0.7254
 9062TIP3   OH227128   5.271   4.292   1.722 -0.4621  0.2831  0.2009
 9062TIP3    H127129   5.295   4.240   1.799 -0.6975  0.5709  0.4752
 9062TIP3    H227130   5.339   4.358   1.715 -0.6677  0.5220  0.4219
 9063TIP3   OH227131   6.635   1.535   4.345 -0.9456 -0.1265 -0.2105
 9063TIP3    H127132   6.547   1.563   4.370 -0.7833 -0.3512  0.6390
 9063TIP3    H227133   6.628   1.440   4.333 -0.8672 -0.1137 -0.3630
 9064TIP3   OH227134   4.182   2.314   3.373 -0.4096 -0.2489 -0.3155
 9064TIP3    H127135   4.247   2.244   3.380  0.0229  0.3265  2.7515
 9064TIP3    H227136   4.099   2.269   3.360  0.0217 -1.2709  0.3558
 9065TIP3   OH227137   3.044   7.116   3.988 -0.1533 -0.3758  0.6306
 9065TIP3    H127138   3.024   7.025   4.008 -2.2797 -0.1766 -0.3645
 9065TIP3    H227139   3.013   7.166   4.063 -0.6329 -0.3325  0.4082
 9066TIP3   OH227140   4.508   2.081   5.077  0.3997 -0.7857  0.3308
 9066TIP3    H127141   4.547   2.160   5.041 -1.6208  0.0805 -0.1333
 9066TIP3    H227142   4.514   2.091   5.172 -0.2532  0.1859  0.2843
 9067TIP3   OH227143   3.121   5.009   2.610  0.0019 -0.3238  0.2109
 9067TIP3    H127144   3.176   4.952   2.664 -0.2877 -0.6386  0.1719
 9067TIP3    H227145   3.043   4.957   2.590  0.0707 -0.1840 -0.4535
 9068TIP3   OH227146   4.877   6.742   3.861 -0.1953 -0.3958 -0.3984
 9068TIP3    H127147   4.924   6.799   3.800 -0.4587  0.1608 -0.0890
 9068TIP3    H227148   4.941   6.723   3.930 -0.9203  1.8989  1.0215
 9069TIP3   OH227149   7.381   4.149   5.495  0.6157  0.3913 -0.2472
 9069TIP3    H127150   7.310   4.206   5.463  1.8673  0.1833 -3.8036
 9069TIP3    H227151   7.371   4.150   5.591 -4.2930  0.1720 -0.4995
 9070TIP3   OH227152   8.030   6.689   2.104 -0.1179 -0.6513 -0.1407
 9070TIP3    H127153   7.977   6.769   2.097 -0.8619 -1.1882 -0.8222
 9070TIP3    H227154   8.047   6.680   2.198  2.2180  1.7186 -0.2153
 9071TIP3   OH227155   5.036   2.254   3.075  0.0276  0.2296 -0.5980
 9071TIP3    H127156   5.020   2.213   2.990  1.4382 -0.9522 -0.3374
 9071TIP3    H227157   4.972   2.214   3.134 -0.8054  0.8880 -1.0423
 9072TIP3   OH227158   4.242   6.075   2.148  0.1498 -0.3200 -0.4153
 9072TIP3    H127159   4.235   5.985   2.181  0.7944 -0.9046 -1.8078
 9072TIP3    H227160   4.331   6.081   2.114  0.3915  1.1292  0.4023
 9073TIP3   OH227161   6.020   1.216   1.973 -0.4609 -0.1504 -0.0102
 9073TIP3    H127162   6.022   1.154   2.046  0.1132 -0.7261 -0.5098
 9073TIP3    H227163   6.009   1.301   2.015  0.1466 -0.4466  0.7785
 9074TIP3   OH227164   2.657   2.896   0.495 -0.2515 -0.1581  0.3918
 9074TIP3    H127165   2.680   2.853   0.578  0.9886  0.7654  0.5561
 9074TIP3    H227166   2.696   2.983   0.502 -0.3260  0.0132 -1.0773
 9075TIP3   OH227167   7.256   6.866   3.175  0.0621  0.0528  0.2036
 9075TIP3    H127168   7.163   6.889   3.176  0.0216 -0.1198  1.4969
 9075TIP3    H227169   7.280   6.857   3.267  1.0377 -1.2117 -0.1360
 9076TIP3   OH227170   1.863   1.489   1.246  0.6936 -0.3028  0.3601
 9076TIP3    H127171   1.770   1.475   1.262  0.5390  0.3247  0.0488
 9076TIP3    H227172   1.880   1.578   1.278  1.5922 -1.0357  2.0775
 9077TIP3   OH227173   5.534   0.445   4.678 -0.1042 -0.1983  0.5958
 9077TIP3    H127174   5.557   0.500   4.604 -1.9212 -0.7381 -0.4396
 9077TIP3    H227175   5.484   0.502   4.736 -3.1449 -0.8939 -1.0960
 9078TIP3   OH227176   0.454   5.143   5.659  0.3201 -0.0335 -0.8888
 9078TIP3    H127177   0.493   5.134   5.746 -0.6833 -0.2649 -0.4607
 9078TIP3    H227178   0.400   5.066   5.648 -0.3189  0.4639 -1.3302
 9079TIP3   OH227179   1.260   2.320   4.107 -0.4337  0.3156 -0.2804
 9079TIP3    H127180   1.209   2.240   4.116 -0.2537 -0.0130 -1.8574
 9079TIP3    H227181   1.311   2.307   4.027 -0.1305  1.8547 -0.3708
 9080TIP3   OH227182   4.262   2.918   6.553 -0.2179 -0.9701  0.5466
 9080TIP3    H127183   4.265   2.898   6.460 -0.2479 -0.7936  0.5083
 9080TIP3    H227184   4.287   2.836   6.596 -0.4085 -1.1117  0.3893
 9081TIP3   OH227185   8.293   0.706   5.574 -0.1680 -0.2404  0.1155
 9081TIP3    H127186   8.242   0.689   5.654 -0.9133  0.4964 -0.1953
 9081TIP3    H227187   8.239   0.766   5.523  0.9885  0.5200 -0.2528
 9082TIP3   OH227188   1.057   5.132   1.693 -0.1997 -0.0769 -0.4896
 9082TIP3    H127189   1.055   5.118   1.787 -0.1923  2.7641  0.0146
 9082TIP3    H227190   1.131   5.080   1.662 -1.2684 -2.4668  0.7278
 9083TIP3   OH227191   2.495   5.978   0.314 -0.7902 -0.3218  0.0938
 9083TIP3    H127192   2.427   6.014   0.256  0.4402  0.0985 -1.1372
 9083TIP3    H227193   2.556   6.051   0.327  0.6811 -1.3562 -0.7859
 9084TIP3   OH227194   6.631   3.536   5.141  0.5021 -0.4023 -0.4498
 9084TIP3    H127195   6.693   3.539   5.214  0.7182 -2.4164 -0.4818
 9084TIP3    H227196   6.686   3.538   5.063  0.4592 -0.9917 -0.4989
 9085TIP3   OH227197   3.696   1.067   3.135 -0.0332  0.1061 -0.1611
 9085TIP3    H127198   3.788   1.039   3.131  0.1091  0.5092  0.1911
 9085TIP3    H227199   3.652   1.013   3.069  0.7617  1.1162 -1.5825
 9086TIP3   OH227200   1.988   3.249   1.806 -0.6331 -0.6132  0.0916
 9086TIP3    H127201   2.029   3.224   1.889 -0.5521 -1.2942 -0.1500
 9086TIP3    H227202   2.055   3.234   1.740 -0.4562  0.6108 -0.0262
 9087TIP3   OH227203   1.258   6.898   4.943 -0.2606  0.0380 -0.1816
 9087TIP3    H127204   1.185   6.942   4.898 -1.2045 -1.2497  0.0115
 9087TIP3    H227205   1.250   6.926   5.034 -1.0079 -0.6830 -0.0109
 9088TIP3   OH227206   0.182   1.293   3.093 -0.2372 -0.3652  0.0430
 9088TIP3    H127207   0.168   1.264   3.183 -1.2158 -3.8111 -1.0721
 9088TIP3    H227208   0.096   1.284   3.051  0.5656 -0.5276 -1.6492
 9089TIP3   OH227209   0.041   2.093   0.468 -0.1667 -0.5294  0.8988
 9089TIP3    H127210   0.063   2.164   0.408 -1.0323 -0.7078  0.3542
 9089TIP3    H227211  -0.046   2.116   0.502 -0.2111 -1.0404  1.1469
 9090TIP3   OH227212   8.102   1.624   5.013  0.4066 -0.3663 -0.2396
 9090TIP3    H127213   8.104   1.661   4.924 -0.6442  0.1029 -0.0887
 9090TIP3    H227214   8.136   1.535   5.003  1.6441  0.1503 -0.8577
 9091TIP3   OH227215   2.353   6.130   1.267 -0.0185  0.2462  0.2261
 9091TIP3    H127216   2.433   6.144   1.317  0.1364  0.3075 -0.0416
 9091TIP3    H227217   2.284   6.167   1.322  0.3263  1.7098 -0.2916
 9092TIP3   OH227218   4.428   3.803   1.272 -0.0129 -0.0204 -0.1229
 9092TIP3    H127219   4.520   3.785   1.252 -0.6171 -1.6143 -1.7177
 9092TIP3    H227220   4.380   3.738   1.222 -1.9387 -1.1672  2.9251
 9093TIP3   OH227221   1.372   3.672   4.388  0.2431 -0.4025  0.3071
 9093TIP3    H127222   1.280   3.687   4.365  0.9285  1.5973 -1.5050
 9093TIP3    H227223   1.405   3.618   4.316  0.7257 -0.2740  0.4349
 9094TIP3   OH227224   5.774   7.687   6.245 -0.3440 -0.1006 -0.2346
 9094TIP3    H127225   5.728   7.687   6.329  0.6190  0.3830  0.3156
 9094TIP3    H227226   5.797   7.778   6.229 -0.2730 -0.2252 -0.8872
 9095TIP3   OH227227   5.818   7.117   3.643  0.2770  0.2787  0.1657
 9095TIP3    H127228   5.895   7.097   3.590  0.2729 -0.5594  0.4580
 9095TIP3    H227229   5.784   7.031   3.668 -0.6461  0.6430  0.1903
 9096TIP3   OH227230   3.432   2.448   5.584 -0.5673 -0.7064  0.6680
 9096TIP3    H127231   3.354   2.476   5.633  0.6433  0.7523  1.8445
 9096TIP3    H227232   3.400   2.437   5.494 -2.0609  0.2313  1.0350
 9097TIP3   OH227233   5.490   0.313   0.932 -0.2789 -0.2447 -0.2342
 9097TIP3    H127234   5.398   0.308   0.956 -0.3424  1.3958 -0.0663
 9097TIP3    H227235   5.520   0.397   0.966  0.8000  0.0991 -1.8855
 9098TIP3   OH227236   7.713   3.223   3.882  0.1218 -0.4601  0.2906
 9098TIP3    H127237   7.662   3.250   3.805  1.2643  0.0737 -0.2955
 9098TIP3    H227238   7.700   3.294   3.945  2.3318  1.1238 -0.8897
 9099TIP3   OH227239   5.767   4.377   3.096  0.3393  0.2054  0.2753
 9099TIP3    H127240   5.709   4.303   3.115  0.6656 -0.4367 -1.0930
 9099TIP3    H227241   5.756   4.436   3.170 -2.1231  0.1404  0.0289
 9100TIP3   OH227242   5.523   5.721   2.669  0.2786  0.0918 -0.4883
 9100TIP3    H127243   5.568   5.639   2.690  0.5849  0.2610 -0.4797
 9100TIP3    H227244   5.449   5.723   2.729  0.2423 -0.2029 -0.5193
 9101TIP3   OH227245   0.983   1.634   1.718  0.3207  0.0760  0.6818
 9101TIP3    H127246   1.067   1.679   1.726  0.0425  0.7529 -0.0968
 9101TIP3    H227247   0.936   1.681   1.648 -0.3347 -0.8653  0.4597
 9102TIP3   OH227248   2.528   0.241   0.277  0.9991 -0.0891  0.3334
 9102TIP3    H127249   2.598   0.287   0.232  2.6687 -1.8368  1.0060
 9102TIP3    H227250   2.558   0.151   0.282 -1.5910 -1.0368  0.1517
 9103TIP3   OH227251   7.960   5.039   0.172  0.1532  0.1108 -0.0828
 9103TIP3    H127252   7.880   5.004   0.211 -0.8780  1.1741 -1.1638
 9103TIP3    H227253   8.012   5.069   0.246  0.6804 -2.7522  0.8323
 9104TIP3   OH227254   5.725   3.559   3.732 -0.7293 -0.2528 -0.2521
 9104TIP3    H127255   5.736   3.476   3.779  1.3276  0.8324  1.3534
 9104TIP3    H227256   5.807   3.571   3.684 -0.8435  0.9879 -0.1778
 9105TIP3   OH227257   2.327   3.143   0.297  0.0145  0.2023  0.3076
 9105TIP3    H127258   2.331   3.078   0.367 -0.3831 -0.9105 -0.6723
 9105TIP3    H227259   2.395   3.116   0.235  0.0132  0.8653  0.0073
 9106TIP3   OH227260   0.343   4.885   5.102  0.6215 -0.2228 -0.5556
 9106TIP3    H127261   0.371   4.957   5.044 -0.8443  1.5701  0.8303
 9106TIP3    H227262   0.420   4.866   5.155  1.3917 -0.5350 -1.7417
 9107TIP3   OH227263   8.214   1.002   6.095 -0.5030  0.2321  0.6615
 9107TIP3    H127264   8.201   0.960   6.010 -0.5693  0.5835  0.4968
 9107TIP3    H227265   8.307   1.026   6.095 -0.5420  0.3858  0.6153
 9108TIP3   OH227266   7.602   5.037   4.469 -0.4426 -0.1619 -0.2042
 9108TIP3    H127267   7.576   4.952   4.434  1.0283 -0.3506 -0.9154
 9108TIP3    H227268   7.689   5.022   4.506 -0.6685  0.7683  0.7374
 9109TIP3   OH227269   6.011   7.010   2.352 -0.0041  0.3533  0.1328
 9109TIP3    H127270   6.034   6.932   2.303  2.7350  0.2515  1.3878
 9109TIP3    H227271   5.962   6.978   2.427 -1.4477  0.2052 -0.8260
 9110TIP3   OH227272   0.201   6.470   1.995 -0.3217  0.0522  0.0257
 9110TIP3    H127273   0.206   6.469   2.091  1.1438  4.1399  0.1768
 9110TIP3    H227274   0.120   6.517   1.976 -0.7998 -1.0680 -0.8308
 9111TIP3   OH227275   8.210   6.699   5.612 -0.0896  0.0169  0.0246
 9111TIP3    H127276   8.217   6.759   5.538  1.5659  0.0135  0.1334
 9111TIP3    H227277   8.197   6.756   5.688  0.3099  0.1634 -0.0158
 9112TIP3   OH227278   0.791   2.811   6.058 -0.2646 -0.6444  0.3807
 9112TIP3    H127279   0.853   2.752   6.100  1.8813  1.4414  0.3457
 9112TIP3    H227280   0.794   2.891   6.110 -3.1328 -0.4851  0.4723
 9113TIP3   OH227281   2.523   6.974   0.750 -0.9996 -0.4055 -0.2530
 9113TIP3    H127282   2.532   6.916   0.675  1.4980 -0.1100 -0.2629
 9113TIP3    H227283   2.586   6.941   0.814 -0.3976  1.5005  0.2159
 9114TIP3   OH227284   3.549   7.251   0.249 -0.6045  0.3040  0.0157
 9114TIP3    H127285   3.604   7.290   0.316 -0.1997  0.1665 -0.2332
 9114TIP3    H227286   3.467   7.301   0.252  0.4034  2.1567 -1.2964
 9115TIP3   OH227287   5.331   0.890   4.431 -0.2906  0.1991 -0.0450
 9115TIP3    H127288   5.399   0.825   4.449  1.3152  1.4685 -1.2279
 9115TIP3    H227289   5.328   0.944   4.510  0.8433  0.7666 -0.3751
 9116TIP3   OH227290   4.875   7.157   3.908 -0.2678 -0.2138 -0.1897
 9116TIP3    H127291   4.796   7.156   3.962 -0.1182  0.6306  0.0565
 9116TIP3    H227292   4.848   7.199   3.826  0.1594  1.0013  0.2787
 9117TIP3   OH227293   6.414   0.613   2.042 -0.5638  0.3708  0.7733
 9117TIP3    H127294   6.445   0.598   2.131  0.3391  0.2590  0.4527
 9117TIP3    H227295   6.382   0.703   2.042  4.1411  2.3115 -0.0040
 9118TIP3   OH227296   0.523   3.604   0.402 -0.0179  0.2647 -0.0682
 9118TIP3    H127297   0.464   3.587   0.476  0.3002  1.2307  0.4388
 9118TIP3    H227298   0.604   3.558   0.425 -0.1571 -0.0220 -0.1545
 9119TIP3   OH227299   4.131   4.528   2.423  0.1691  0.4433 -0.2887
 9119TIP3    H127300   4.151   4.552   2.333  0.0950  1.2491 -0.1044
 9119TIP3    H227301   4.173   4.597   2.476 -1.5322  1.1843  0.1821
 9120TIP3   OH227302   5.695   2.244   1.937  0.2948 -0.2752  0.6271
 9120TIP3    H127303   5.773   2.271   1.887  0.7150  0.9882  1.9036
 9120TIP3    H227304   5.625   2.242   1.872  0.8014  1.4715 -0.0452
 9121TIP3   OH227305   7.335   6.137   6.215 -0.2194 -0.3363  0.2245
 9121TIP3    H127306   7.425   6.169   6.214 -0.5517  0.7575 -2.1712
 9121TIP3    H227307   7.335   6.065   6.279  2.3412 -0.4023  0.2321
 9122TIP3   OH227308   4.231   5.196   5.067 -0.0519  0.0348  0.2657
 9122TIP3    H127309   4.205   5.205   4.976 -1.0757 -4.3582 -0.0885
 9122TIP3    H227310   4.327   5.196   5.065 -0.0572  1.3823 -0.5687
 9123TIP3   OH227311   7.248   3.187   0.430 -0.0182 -0.1178  0.2465
 9123TIP3    H127312   7.308   3.241   0.379 -0.5677  1.1506  0.8714
 9123TIP3    H227313   7.231   3.111   0.376  0.7074  0.3965 -0.7273
 9124TIP3   OH227314   1.700   1.294   6.584 -0.2183 -0.0518 -0.2665
 9124TIP3    H127315   1.739   1.229   6.642 -2.1821 -0.7026  0.4150
 9124TIP3    H227316   1.703   1.253   6.497 -1.8698 -1.3631  0.2245
 9125TIP3   OH227317   0.724   4.757   4.245  0.0157 -0.2708  0.3165
 9125TIP3    H127318   0.655   4.718   4.300 -0.2372  2.0048  1.7272
 9125TIP3    H227319   0.678   4.789   4.167  0.0035 -1.4557 -0.1814
 9126TIP3   OH227320   6.036   6.214   2.806 -0.7185 -0.4627 -0.5525
 9126TIP3    H127321   6.110   6.274   2.817 -0.3343 -1.2194  1.4122
 9126TIP3    H227322   5.959   6.268   2.827 -0.2788 -0.8619  2.5828
 9127TIP3   OH227323   4.537   3.724   5.580 -0.1118  0.5767 -0.0697
 9127TIP3    H127324   4.596   3.678   5.640  1.4304 -1.1103 -2.6630
 9127TIP3    H227325   4.589   3.798   5.549  0.4981 -0.5608 -1.8941
 9128TIP3   OH227326   1.952   0.557   1.318 -0.0205  0.5404 -0.7971
 9128TIP3    H127327   1.957   0.644   1.357 -1.7331  0.5110 -0.4526
 9128TIP3    H227328   1.967   0.497   1.391 -1.5703  0.5160 -0.4771
 9129TIP3   OH227329   0.027   2.483   2.210  0.1218 -0.6542  0.0395
 9129TIP3    H127330  -0.058   2.500   2.171 -0.6618 -1.2953  1.3787
 9129TIP3    H227331   0.040   2.388   2.200  0.9584 -0.4831 -0.6602
 9130TIP3   OH227332   5.093   4.184   1.545  0.6096 -0.3336 -0.1114
 9130TIP3    H127333   5.162   4.244   1.575  1.0863 -0.0661 -1.6908
 9130TIP3    H227334   5.070   4.134   1.624  2.1135  0.0639  0.6215
 9131TIP3   OH227335   3.241   2.674   0.862  0.3808  0.1035  0.1187
 9131TIP3    H127336   3.250   2.759   0.820 -0.5553 -0.2075 -0.7415
 9131TIP3    H227337   3.187   2.690   0.939  0.3166  0.3050  0.0309
 9132TIP3   OH227338   3.429   3.347   5.437 -0.1898  0.0002  0.7551
 9132TIP3    H127339   3.446   3.258   5.406 -0.4886 -0.4708  1.8616
 9132TIP3    H227340   3.372   3.385   5.371 -0.8856 -0.9980  0.7462
 9133TIP3   OH227341   4.595   0.394   6.001  0.9824  0.0461  0.4162
 9133TIP3    H127342   4.559   0.478   5.972  1.1181 -0.4215 -1.2191
 9133TIP3    H227343   4.526   0.354   6.054  0.0746  0.2811 -0.5539
 9134TIP3   OH227344   8.010   6.544   2.915 -0.0319 -0.1338  0.0820
 9134TIP3    H127345   8.093   6.497   2.910 -1.3039 -2.6381  1.0531
 9134TIP3    H227346   7.950   6.491   2.863 -1.4309  0.6607  0.8423
 9135TIP3   OH227347   2.356   6.230   5.573 -0.2076 -0.5057  0.1352
 9135TIP3    H127348   2.426   6.187   5.525 -1.1645 -1.3329 -0.5404
 9135TIP3    H227349   2.378   6.323   5.568  0.9721 -0.7673  0.1581
 9136TIP3   OH227350   0.035   5.077   2.881  0.6256 -0.5309 -0.4682
 9136TIP3    H127351   0.011   5.169   2.889  2.2712 -0.0388 -0.6634
 9136TIP3    H227352   0.052   5.048   2.971 -1.9868 -1.3244 -0.1447
 9137TIP3   OH227353   4.756   5.403   1.635 -1.0224 -0.3714 -0.4352
 9137TIP3    H127354   4.766   5.334   1.700 -0.2650 -0.3749 -0.5392
 9137TIP3    H227355   4.801   5.479   1.674 -0.1854 -0.4979 -1.1158
 9138TIP3   OH227356   3.027   1.842   5.780 -0.0880 -0.4318 -0.2880
 9138TIP3    H127357   2.963   1.772   5.797 -0.4237  0.1985  1.1489
 9138TIP3    H227358   3.026   1.852   5.685 -3.6735  0.9214 -0.2609
 9139TIP3   OH227359   3.495   5.822   3.113 -0.1532  0.1570 -0.1078
 9139TIP3    H127360   3.583   5.824   3.075  0.6272 -1.7241  1.4279
 9139TIP3    H227361   3.473   5.914   3.128  2.1017  0.6425  0.5974
 9140TIP3   OH227362   1.342   4.676   3.762 -0.3266  0.5686  0.0870
 9140TIP3    H127363   1.424   4.632   3.736 -0.8243 -1.4441  1.6668
 9140TIP3    H227364   1.356   4.768   3.739  1.7508  0.0189 -1.1357
 9141TIP3   OH227365   2.232   5.047   0.782  0.2753  0.1440 -0.0975
 9141TIP3    H127366   2.259   4.980   0.845 -1.5148  0.0497  0.6214
 9141TIP3    H227367   2.224   5.127   0.833  0.3736  0.4482 -0.5476
 9142TIP3   OH227368   6.823   1.564   0.140 -0.1360 -0.3766 -0.2636
 9142TIP3    H127369   6.730   1.553   0.117 -0.1824  1.4776 -1.1102
 9142TIP3    H227370   6.828   1.538   0.232 -1.3027 -1.3577 -0.4459
 9143TIP3   OH227371   2.636   3.413   3.709  0.0045  0.4467  0.2272
 9143TIP3    H127372   2.701   3.478   3.680 -1.0049  1.6863  0.6661
 9143TIP3    H227373   2.623   3.433   3.802  0.9576 -1.5382  0.8340
 9144TIP3   OH227374   4.310   1.500   0.575  0.2206  0.8496  0.2032
 9144TIP3    H127375   4.399   1.525   0.600  1.0386 -1.9349  0.4625
 9144TIP3    H227376   4.265   1.483   0.658  0.1558  0.1004  0.0208
 9145TIP3   OH227377   3.182   4.916   0.401  0.3686  0.1311  0.0053
 9145TIP3    H127378   3.277   4.927   0.404  0.2271  1.3212  0.4544
 9145TIP3    H227379   3.146   5.005   0.408 -0.7982 -0.3811  0.8889
 9146TIP3   OH227380   2.530   4.910   2.700  0.3157  0.7146  0.4673
 9146TIP3    H127381   2.497   4.965   2.629 -1.6146  0.8238  1.3761
 9146TIP3    H227382   2.548   4.971   2.771 -1.6304  0.2660  1.4054
 9147TIP3   OH227383   3.532   0.617   5.618 -0.4478 -0.1893  0.1190
 9147TIP3    H127384   3.594   0.634   5.689  0.0299 -1.9193  0.1529
 9147TIP3    H227385   3.540   0.693   5.561  2.6369 -0.8429 -0.5104
 9148TIP3   OH227386   5.826   2.376   5.526 -0.1709 -0.0937  0.3393
 9148TIP3    H127387   5.786   2.453   5.567 -0.6382  0.1525 -0.5471
 9148TIP3    H227388   5.852   2.321   5.599  2.3262  1.9269  1.1055
 9149TIP3   OH227389   4.745   2.408   6.262 -0.5938  0.3313 -0.0271
 9149TIP3    H127390   4.686   2.351   6.312 -1.3340 -0.4745 -1.7120
 9149TIP3    H227391   4.823   2.415   6.316 -1.6983  0.2974  1.6590
 9150TIP3   OH227392   7.537   5.577   5.661 -0.4012  0.2910 -0.2325
 9150TIP3    H127393   7.628   5.556   5.684  0.0294  0.5888 -1.5523
 9150TIP3    H227394   7.524   5.665   5.696 -0.1277  0.3078 -0.1677
 9151TIP3   OH227395   0.519   7.772   5.553 -0.4080 -0.2900 -0.3706
 9151TIP3    H127396   0.555   7.714   5.485  0.2537 -0.7522  0.3619
 9151TIP3    H227397   0.523   7.859   5.514  0.7966 -0.4324 -0.6087
 9152TIP3   OH227398   7.758   4.379   5.851 -0.0452  0.0043 -0.4830
 9152TIP3    H127399   7.727   4.390   5.761 -1.2037 -1.1612 -0.2458
 9152TIP3    H227400   7.711   4.303   5.885  0.3672  0.4060  1.1164
 9153TIP3   OH227401   1.895   1.332   3.441 -0.1633 -0.1213 -0.0172
 9153TIP3    H127402   1.837   1.354   3.514 -0.7422 -0.6676 -0.3056
 9153TIP3    H227403   1.910   1.238   3.449 -0.5734 -0.2662 -0.8340
 9154TIP3   OH227404   2.372   4.865   4.255 -0.2925  0.3649  0.1084
 9154TIP3    H127405   2.318   4.910   4.191  0.0053  1.1801  0.4053
 9154TIP3    H227406   2.428   4.934   4.292  0.5307 -0.3393  0.2306
 9155TIP3   OH227407   1.767   1.466   1.847  0.5424 -0.0331  0.3068
 9155TIP3    H127408   1.745   1.388   1.796 -0.1375  0.3404  0.0065
 9155TIP3    H227409   1.706   1.465   1.921  1.6377 -0.6607  1.2184
 9156TIP3   OH227410   7.130   6.465   2.148 -0.2317 -0.4454  0.0925
 9156TIP3    H127411   7.151   6.419   2.229  2.5528 -0.2979 -0.4422
 9156TIP3    H227412   7.137   6.558   2.170  0.6847 -0.4065 -0.3210
 9157TIP3   OH227413   1.974   2.328   2.160 -0.7061  0.2600 -0.2791
 9157TIP3    H127414   2.056   2.278   2.167 -1.1532 -0.4934 -0.3194
 9157TIP3    H227415   1.983   2.398   2.224 -0.6042 -0.6503  0.7251
 9158TIP3   OH227416   5.618   0.983   6.027 -0.2236  0.6446  0.2820
 9158TIP3    H127417   5.547   1.039   6.056  0.0041  0.5269  1.0873
 9158TIP3    H227418   5.687   0.996   6.091  0.0764 -0.0551  0.1121
 9159TIP3   OH227419   4.488   4.770   4.780  0.3583 -0.3135 -0.3456
 9159TIP3    H127420   4.452   4.685   4.806  1.3218 -0.1901  1.5394
 9159TIP3    H227421   4.580   4.765   4.804  0.7262  0.8291 -1.3933
 9160TIP3   OH227422   1.243   3.211   4.592 -0.4653 -0.1902 -0.1335
 9160TIP3    H127423   1.226   3.303   4.572  3.2049  0.5159 -0.6014
 9160TIP3    H227424   1.223   3.165   4.511 -1.8506  0.2255 -0.0527
 9161TIP3   OH227425   4.588   5.476   3.687  0.5410  0.1020  0.0253
 9161TIP3    H127426   4.542   5.525   3.755 -0.1025 -0.9759  0.3903
 9161TIP3    H227427   4.558   5.386   3.697  2.5304 -0.6134  0.1002
 9162TIP3   OH227428   7.064   4.581   4.975 -0.0656  0.1821  0.1841
 9162TIP3    H127429   7.113   4.537   5.044  1.0136  1.2470  0.1246
 9162TIP3    H227430   7.113   4.564   4.895 -0.1754  0.6909  0.0066
 9163TIP3   OH227431   6.198   5.106   5.302  0.0715  0.1028 -0.0949
 9163TIP3    H127432   6.158   5.054   5.233  0.7047 -1.4560  0.6644
 9163TIP3    H227433   6.233   5.041   5.364  0.4860  1.4344  1.1266
 9164TIP3   OH227434   7.089   1.936   1.980 -0.0785  0.5079 -0.0070
 9164TIP3    H127435   7.033   1.875   1.933 -0.4637  1.7666 -1.2658
 9164TIP3    H227436   7.052   2.022   1.961  1.1171  1.2266  0.7591
 9165TIP3   OH227437   6.893   6.881   2.969 -0.0282 -0.1205 -0.2244
 9165TIP3    H127438   6.809   6.914   2.937 -0.1005 -0.5762 -0.5137
 9165TIP3    H227439   6.890   6.787   2.952  0.2754 -0.2410  0.3590
 9166TIP3   OH227440   0.338   3.445   0.270  0.3054  0.5317  0.7468
 9166TIP3    H127441   0.340   3.452   0.175  1.4197 -2.4570  0.4425
 9166TIP3    H227442   0.413   3.497   0.300  0.9401  0.1370 -0.1357
 9167TIP3   OH227443   4.667   3.604   4.279  0.0153  0.6966 -0.9037
 9167TIP3    H127444   4.756   3.583   4.311 -0.4012  0.3935  0.1077
 9167TIP3    H227445   4.634   3.520   4.245 -0.0081  0.7322 -0.9690
 9168TIP3   OH227446   3.917   0.228   0.063 -0.1735  0.4307 -0.0026
 9168TIP3    H127447   3.978   0.156   0.077  1.6538  1.7500 -0.6926
 9168TIP3    H227448   3.837   0.201   0.107  0.2805 -2.1853 -0.6110
 9169TIP3   OH227449   1.823   6.819   1.328 -0.4971 -0.2329  0.6892
 9169TIP3    H127450   1.834   6.724   1.320  2.7911 -0.0224  1.2565
 9169TIP3    H227451   1.846   6.837   1.419 -0.2729  1.1849  0.3627
 9170TIP3   OH227452   2.251   6.299   4.943  0.0248  0.1029 -0.1375
 9170TIP3    H127453   2.275   6.387   4.915  0.4444  0.2223  0.5702
 9170TIP3    H227454   2.265   6.244   4.866  1.3496  0.3871 -0.1170
 9171TIP3   OH227455   2.808   3.348   1.661  0.3045 -0.1415 -0.2119
 9171TIP3    H127456   2.742   3.284   1.637  1.0544 -0.7556 -0.6614
 9171TIP3    H227457   2.820   3.401   1.582  0.2443  0.0670 -0.0825
 9172TIP3   OH227458   6.690   0.727   5.890  0.6725 -0.4712 -0.1898
 9172TIP3    H127459   6.649   0.785   5.826  1.1684  0.5176  0.3563
 9172TIP3    H227460   6.750   0.784   5.938  0.2431 -1.1571  1.2114
 9173TIP3   OH227461   7.234   2.551   2.831 -0.1266  0.0236 -0.4441
 9173TIP3    H127462   7.207   2.549   2.923 -0.7594  1.4163 -0.5606
 9173TIP3    H227463   7.299   2.482   2.823 -1.6909 -1.6395  0.5052
 9174TIP3   OH227464   0.195   4.060   3.224 -0.5830 -0.3440 -0.2026
 9174TIP3    H127465   0.189   4.100   3.311 -0.6667 -0.1152 -0.3126
 9174TIP3    H227466   0.105   4.039   3.201 -0.6046 -0.0290 -0.4076
 9175TIP3   OH227467   2.733   4.185   5.273  0.7753 -0.2543  0.0848
 9175TIP3    H127468   2.650   4.149   5.241  0.4343  0.7831 -0.2378
 9175TIP3    H227469   2.713   4.216   5.362  0.9611 -0.5101  0.2150
 9176TIP3   OH227470   1.148   3.204   1.235 -0.2049  0.2160  0.1953
 9176TIP3    H127471   1.133   3.175   1.145  0.1458 -0.9464  0.4938
 9176TIP3    H227472   1.238   3.178   1.253  0.7308  2.9655 -0.0377
 9177TIP3   OH227473   5.659   5.495   0.308  0.6223  0.2686  0.4133
 9177TIP3    H127474   5.582   5.547   0.328  0.0185 -0.1039 -0.8533
 9177TIP3    H227475   5.691   5.464   0.393  0.0628  1.3802  1.0344
 9178TIP3   OH227476   6.357   5.491   6.427  0.6033  0.3725  0.0948
 9178TIP3    H127477   6.371   5.584   6.406  0.0603  0.7172  1.1793
 9178TIP3    H227478   6.396   5.444   6.353 -2.4416  1.4866 -2.4721
 9179TIP3   OH227479   0.213   4.012   1.570  0.5213  0.5966  1.0282
 9179TIP3    H127480   0.171   3.941   1.521 -0.1528  1.2432  0.6364
 9179TIP3    H227481   0.153   4.030   1.642  0.5714  0.9264  0.9876
 9180TIP3   OH227482   1.435   1.897   0.293  0.4354  0.5223  0.1338
 9180TIP3    H127483   1.391   1.816   0.267  0.1557 -0.2193  2.6832
 9180TIP3    H227484   1.474   1.929   0.212 -0.3098 -1.6079 -1.1645
 9181TIP3   OH227485   2.301   6.590   4.570 -0.5029  0.4199  0.4545
 9181TIP3    H127486   2.365   6.524   4.593 -1.5881 -1.5892 -1.8543
 9181TIP3    H227487   2.216   6.547   4.584 -1.2347  1.2631 -1.1976
 9182TIP3   OH227488   5.357   2.350   3.561 -0.0023 -0.0294  0.2338
 9182TIP3    H127489   5.424   2.293   3.522 -0.2934 -0.3513  0.2011
 9182TIP3    H227490   5.306   2.380   3.486 -0.6086 -0.7074  0.3705
 9183TIP3   OH227491   7.796   5.028   2.725  0.0353 -0.7787 -0.0378
 9183TIP3    H127492   7.725   5.091   2.741  0.8223  0.0528  0.2656
 9183TIP3    H227493   7.806   5.026   2.630  0.3451 -0.0697 -0.0182
 9184TIP3   OH227494   2.485   2.063   3.730  0.1253  0.6115 -0.2245
 9184TIP3    H127495   2.455   1.975   3.754  0.3618  0.8879  1.2149
 9184TIP3    H227496   2.433   2.087   3.653 -0.8146 -0.3041  0.1034
 9185TIP3   OH227497   7.628   4.380   0.527 -0.1029  0.5227 -0.3314
 9185TIP3    H127498   7.615   4.285   0.519 -0.5940  0.7245 -2.3487
 9185TIP3    H227499   7.564   4.407   0.593  0.5322 -0.6153  0.8050
 9186TIP3   OH227500   3.925   1.498   2.847 -0.2157 -0.1586 -0.0428
 9186TIP3    H127501   4.003   1.532   2.891 -0.4909 -0.1436  0.4282
 9186TIP3    H227502   3.948   1.503   2.754  0.7166 -1.0469  0.1188
 9187TIP3   OH227503   1.616   6.845   6.307 -0.5112  0.0644  0.8241
 9187TIP3    H127504   1.683   6.786   6.340 -1.1552 -1.6764 -0.8204
 9187TIP3    H227505   1.642   6.863   6.217 -0.8416  1.5733  0.9951
 9188TIP3   OH227506   3.906   5.094   0.986 -0.0159  0.7001 -0.1549
 9188TIP3    H127507   3.847   5.153   0.939 -2.0339 -0.7434  0.4163
 9188TIP3    H227508   3.851   5.054   1.054  0.5245 -3.4894 -1.8744
 9189TIP3   OH227509   7.304   7.722   1.537  0.7194  0.3700 -0.0965
 9189TIP3    H127510   7.278   7.781   1.465  0.4298 -2.0289 -2.0932
 9189TIP3    H227511   7.377   7.671   1.501 -0.1955 -1.7030  0.8273
 9190TIP3   OH227512   1.997   0.266   2.073  0.0716  0.8203 -0.0873
 9190TIP3    H127513   2.026   0.357   2.076 -0.4634  1.0239 -0.7267
 9190TIP3    H227514   1.904   0.272   2.049 -0.2499  0.1558  0.9427
 9191TIP3   OH227515   4.866   7.498   2.307 -0.2707  0.1526  0.3038
 9191TIP3    H127516   4.948   7.484   2.354 -1.3173 -1.8455  1.6708
 9191TIP3    H227517   4.888   7.561   2.239  2.3025 -0.0444  0.8568
 9192TIP3   OH227518   4.416   2.161   3.727  0.7020  0.2996  0.1349
 9192TIP3    H127519   4.446   2.084   3.679 -1.7707 -0.5166 -0.2436
 9192TIP3    H227520   4.435   2.235   3.668  0.0394 -0.4178 -1.0301
 9193TIP3   OH227521   3.577   3.449   4.710 -0.2206  0.0542  0.0095
 9193TIP3    H127522   3.660   3.496   4.704  0.5702 -1.1278  0.9723
 9193TIP3    H227523   3.530   3.491   4.782 -0.1116  0.2319 -0.0237
 9194TIP3   OH227524   4.066   1.798   0.346 -0.4896 -0.6230  0.1688
 9194TIP3    H127525   4.094   1.784   0.256 -0.8900  0.7850 -0.1964
 9194TIP3    H227526   4.037   1.711   0.375 -1.9556 -0.8103 -1.6281
 9195TIP3   OH227527   7.570   7.687   5.126  0.0715  0.5196 -0.2905
 9195TIP3    H127528   7.657   7.708   5.160  0.5634  0.3792 -1.4151
 9195TIP3    H227529   7.531   7.771   5.103  0.7528  0.4648 -1.7388
 9196TIP3   OH227530   1.182   0.333   3.162 -0.3656 -0.3534  0.3002
 9196TIP3    H127531   1.157   0.423   3.140  0.3233  0.1016  1.3003
 9196TIP3    H227532   1.277   0.335   3.165 -0.3849 -0.6967  1.9580
 9197TIP3   OH227533   2.638   5.370   1.539 -0.1785  0.2024 -0.6629
 9197TIP3    H127534   2.596   5.439   1.591 -0.3576  0.1128 -0.6888
 9197TIP3    H227535   2.730   5.398   1.532 -0.0635  0.0178  0.0328
 9198TIP3   OH227536   2.454   4.111   3.060  0.2039  0.8052 -0.4197
 9198TIP3    H127537   2.443   4.061   3.141  0.1467  0.3695 -0.6912
 9198TIP3    H227538   2.529   4.168   3.078 -0.3496  1.3404  0.2382
 9199TIP3   OH227539   3.275   1.541   4.181 -0.6678  0.6387 -0.4787
 9199TIP3    H127540   3.216   1.615   4.166 -0.4788  0.8892 -0.0103
 9199TIP3    H227541   3.285   1.501   4.095 -0.3847  1.4484 -0.8323
 9200TIP3   OH227542   1.618   1.605   4.395  0.2435 -0.0466  0.2954
 9200TIP3    H127543   1.677   1.530   4.391  1.5574  0.8171  1.8317
 9200TIP3    H227544   1.675   1.681   4.380 -1.1332  0.6730 -1.7670
 9201TIP3   OH227545   3.044   5.712   2.420 -0.0398 -0.4246  0.3250
 9201TIP3    H127546   3.018   5.664   2.341 -2.4735 -1.3440  1.5749
 9201TIP3    H227547   3.084   5.645   2.475  1.0686  0.0859  0.1727
 9202TIP3   OH227548   7.826   4.682   2.762  0.3972  0.3218  0.1474
 9202TIP3    H127549   7.885   4.638   2.702  2.0765  0.8201  1.3521
 9202TIP3    H227550   7.818   4.623   2.837 -1.8436 -0.3969 -0.5770
 9203TIP3   OH227551   2.419   1.818   3.856 -0.7364  0.2730 -0.1751
 9203TIP3    H127552   2.397   1.797   3.947 -0.6456 -1.6074 -0.5496
 9203TIP3    H227553   2.352   1.774   3.804 -0.0659  0.2777 -1.0673
 9204TIP3   OH227554   0.819   7.259   2.067  0.2679  0.0065  0.1797
 9204TIP3    H127555   0.887   7.320   2.095  1.4038 -1.6742  1.2517
 9204TIP3    H227556   0.760   7.312   2.014  2.5890  1.4744 -1.1141
 9205TIP3   OH227557   4.178   6.039   0.253 -0.0306  0.6723  0.1923
 9205TIP3    H127558   4.156   6.013   0.164 -0.9481  0.5418  0.4403
 9205TIP3    H227559   4.136   5.972   0.308  1.4476  0.1221  0.6999
 9206TIP3   OH227560   3.393   2.058   5.418  0.1638  0.2789  0.2674
 9206TIP3    H127561   3.299   2.075   5.426  0.5782  2.5524  1.2190
 9206TIP3    H227562   3.412   1.994   5.487 -0.4675  0.8799  1.0162
 9207TIP3   OH227563   2.875   2.265   3.001  0.3040 -0.7747  0.2661
 9207TIP3    H127564   2.930   2.194   3.033  1.5237 -0.9173 -1.9078
 9207TIP3    H227565   2.937   2.325   2.959 -1.0649 -0.3349 -1.1992
 9208TIP3   OH227566   1.607   5.667   1.821 -0.4672  0.4242 -0.0642
 9208TIP3    H127567   1.691   5.651   1.863 -0.4006  0.4334 -0.1947
 9208TIP3    H227568   1.626   5.730   1.752 -0.7705  1.2743  0.6121
 9209TIP3   OH227569   3.604   7.240   5.101  0.2825  0.1097  0.0386
 9209TIP3    H127570   3.670   7.233   5.170  0.4117 -1.1279 -0.1785
 9209TIP3    H227571   3.524   7.205   5.141  0.3061 -0.4186 -0.3706
 9210TIP3   OH227572   6.817   3.233   4.200 -0.7209 -0.4043 -0.5099
 9210TIP3    H127573   6.807   3.167   4.132  1.4070 -0.7253 -0.5863
 9210TIP3    H227574   6.808   3.316   4.154  0.9519 -0.6141 -1.3202
 9211TIP3   OH227575   8.240   1.164   0.513 -0.0934 -0.1552  0.7483
 9211TIP3    H127576   8.243   1.242   0.569 -1.3780 -0.4636  1.2826
 9211TIP3    H227577   8.298   1.101   0.557  0.5271  0.3104  0.6041
 9212TIP3   OH227578   4.011   1.266   3.726  0.8507  0.0677  0.4864
 9212TIP3    H127579   3.997   1.332   3.793  0.1239 -0.4380  0.8497
 9212TIP3    H227580   3.941   1.281   3.663 -0.3402 -1.3639  1.4046
 9213TIP3   OH227581   5.382   2.093   1.125  0.8076 -0.1086  0.0254
 9213TIP3    H127582   5.332   2.134   1.054  0.2312 -1.1814 -0.2028
 9213TIP3    H227583   5.471   2.128   1.115  0.1525  1.7664  0.3908
 9214TIP3   OH227584   3.507   7.493   4.930  0.2351 -0.5565 -0.0994
 9214TIP3    H127585   3.496   7.418   4.989 -0.3684  0.3585  0.9804
 9214TIP3    H227586   3.424   7.541   4.936 -0.4214 -1.1802 -2.8115
 9215TIP3   OH227587   1.813   3.520   1.443  0.1490  0.2311  0.3721
 9215TIP3    H127588   1.792   3.602   1.400  1.1707  0.4759  0.3216
 9215TIP3    H227589   1.785   3.533   1.534 -0.7320  0.2103  0.1154
 9216TIP3   OH227590   5.900   5.178   2.480  0.5146 -1.0138  0.3802
 9216TIP3    H127591   5.887   5.191   2.387  2.0420  0.8112  0.3599
 9216TIP3    H227592   5.813   5.185   2.519  0.2180  1.7869 -0.5705
 9217TIP3   OH227593   4.876   5.766   5.412 -0.0651  0.1595  0.3912
 9217TIP3    H127594   4.867   5.759   5.507  1.0053 -1.2648  0.4157
 9217TIP3    H227595   4.832   5.688   5.378  1.7837 -0.7252 -0.1036
 9218TIP3   OH227596   7.179   2.512   0.956 -0.0655  0.3197 -0.2475
 9218TIP3    H127597   7.195   2.592   1.007 -0.3950  0.4840 -0.4000
 9218TIP3    H227598   7.106   2.470   1.000 -0.4616  0.5472 -0.6792
 9219TIP3   OH227599   1.344   3.713   4.722 -0.3217  0.2446 -0.2489
 9219TIP3    H127600   1.276   3.777   4.702 -0.2729  0.6590  0.8353
 9219TIP3    H227601   1.326   3.639   4.663 -1.6202  0.4053 -0.0805
 9220TIP3   OH227602   5.557   6.277   2.801  0.6699  0.0328 -0.1024
 9220TIP3    H127603   5.504   6.196   2.801 -0.5137  0.7801 -0.3396
 9220TIP3    H227604   5.639   6.252   2.844 -0.0097 -1.0881  0.5920
 9221TIP3   OH227605   2.188   2.690   3.056 -0.2264 -0.2415 -0.7381
 9221TIP3    H127606   2.132   2.763   3.079  1.9737  0.6583  2.3471
 9221TIP3    H227607   2.276   2.726   3.055  0.7140 -2.3616 -1.6277
 9222TIP3   OH227608   2.401   5.817   0.653 -0.7054  0.1854  0.3195
 9222TIP3    H127609   2.486   5.861   0.645 -0.1072 -0.5131  2.2944
 9222TIP3    H227610   2.342   5.886   0.683 -0.0395 -0.0350  2.2468
 9223TIP3   OH227611   2.525   0.639   2.183 -0.3592 -0.5202  0.1737
 9223TIP3    H127612   2.438   0.605   2.205 -0.0952 -1.1856  0.2393
 9223TIP3    H227613   2.583   0.563   2.192  0.2624 -0.0393  0.3275
 9224TIP3   OH227614   7.402   2.895   2.776  0.5666  0.1296 -0.3209
 9224TIP3    H127615   7.314   2.862   2.760  0.1473  1.1554 -0.2102
 9224TIP3    H227616   7.444   2.892   2.690 -0.6797  2.7304 -1.1280
 9225TIP3   OH227617   4.544   1.703   5.616  0.2716  0.0682  1.2745
 9225TIP3    H127618   4.460   1.686   5.574  0.0092  0.1360  1.7689
 9225TIP3    H227619   4.522   1.727   5.706  0.6465  2.2478  0.8490
 9226TIP3   OH227620   4.020   3.515   2.225  0.0160  0.0615  0.2072
 9226TIP3    H127621   4.000   3.425   2.199 -0.6357  0.4945 -0.8364
 9226TIP3    H227622   3.952   3.536   2.289 -0.3327  0.0802 -0.1611
 9227TIP3   OH227623   7.543   3.613   5.170  0.6111  0.5882 -0.2062
 9227TIP3    H127624   7.527   3.551   5.099  0.4471  0.4772 -0.0723
 9227TIP3    H227625   7.494   3.578   5.244  2.9314 -0.7810  0.7730
 9228TIP3   OH227626   4.738   6.246   3.868  0.9648  0.3333  0.1894
 9228TIP3    H127627   4.728   6.277   3.778  0.7647 -1.0126 -0.2699
 9228TIP3    H227628   4.718   6.322   3.922  1.5403  1.2894 -0.9031
 9229TIP3   OH227629   8.154   4.723   2.260 -0.1081 -0.2149  0.1169
 9229TIP3    H127630   8.203   4.751   2.337 -0.2517 -0.8760  0.4518
 9229TIP3    H227631   8.217   4.730   2.188 -0.3292  1.5965  0.0676
 9230TIP3   OH227632   5.054   5.356   0.701 -0.5208  0.5357 -0.1626
 9230TIP3    H127633   5.141   5.388   0.727  0.2290 -0.5552 -1.1924
 9230TIP3    H227634   5.048   5.378   0.608 -1.0136 -0.1033 -0.2884
 9231TIP3   OH227635   5.954   6.863   6.244 -0.1102 -0.1722  0.7716
 9231TIP3    H127636   5.974   6.801   6.315 -1.0752 -0.2711  0.9785
 9231TIP3    H227637   6.010   6.836   6.172  1.3369  0.2930  1.6774
 9232TIP3   OH227638   2.094   6.068   4.374 -0.3710 -0.0076  0.5422
 9232TIP3    H127639   2.147   5.990   4.385  0.0943  0.1756 -0.3078
 9232TIP3    H227640   2.019   6.055   4.431  1.7111  0.7750  3.6820
 9233TIP3   OH227641   6.590   1.002   1.958 -0.4797 -0.0663 -0.0434
 9233TIP3    H127642   6.674   0.980   1.998  0.0761  1.4556 -0.3065
 9233TIP3    H227643   6.607   0.999   1.864 -0.3582  1.4832 -0.0860
 9234TIP3   OH227644   2.011   7.041   1.930  0.2429 -0.2451  0.1289
 9234TIP3    H127645   1.994   7.107   1.863  1.3216 -1.3420 -1.3070
 9234TIP3    H227646   1.930   6.990   1.935 -0.6476  1.2292  1.3623
 9235TIP3   OH227647   0.498   3.011   6.043  0.1807 -0.3603  0.1396
 9235TIP3    H127648   0.405   2.996   6.060 -0.6434 -1.3174 -4.1676
 9235TIP3    H227649   0.537   2.924   6.046  0.7019 -0.1143  0.6358
 9236TIP3   OH227650   2.775   0.852   4.024  0.1848  0.2463 -0.5344
 9236TIP3    H127651   2.838   0.885   3.960 -1.2831  0.1056 -2.1296
 9236TIP3    H227652   2.789   0.907   4.101  0.3236  2.1545 -1.8371
 9237TIP3   OH227653   6.559   5.484   0.401 -0.1036  0.2906  0.5546
 9237TIP3    H127654   6.558   5.498   0.306 -1.2078  2.7556  0.8291
 9237TIP3    H227655   6.468   5.460   0.422  0.4558 -1.7351  0.8747
 9238TIP3   OH227656   7.897   6.884   3.996 -0.6821 -0.0274  0.3865
 9238TIP3    H127657   7.881   6.977   3.981  2.1432  0.7895  1.7969
 9238TIP3    H227658   7.879   6.843   3.912 -2.3227  1.6973 -0.1849
 9239TIP3   OH227659   3.712   5.210   0.852  0.0685 -0.5730 -0.3703
 9239TIP3    H127660   3.705   5.202   0.757  0.0064  0.9372 -0.5283
 9239TIP3    H227661   3.622   5.213   0.883  0.0886 -1.1744 -0.2489
 9240TIP3   OH227662   8.055   2.596   5.652  0.0497  0.0383 -0.2757
 9240TIP3    H127663   8.020   2.539   5.584  1.8725 -0.4848 -0.8244
 9240TIP3    H227664   8.042   2.685   5.618  0.1478 -0.1811 -0.8959
 9241TIP3   OH227665   3.705   3.997   3.153  0.5579 -0.2154 -0.0019
 9241TIP3    H127666   3.686   4.089   3.138 -0.5873 -0.3621  0.4325
 9241TIP3    H227667   3.665   3.952   3.079  0.6687 -0.4072  0.0534
 9242TIP3   OH227668   2.142   1.012   0.216  0.6452  0.3496 -0.2700
 9242TIP3    H127669   2.150   1.078   0.285  0.0116 -0.2409  0.3946
 9242TIP3    H227670   2.078   0.949   0.251  0.6961 -0.2303 -1.1874
 9243TIP3   OH227671   0.736   7.264   1.402  0.1823  0.7007  0.4937
 9243TIP3    H127672   0.657   7.224   1.439 -0.0156  0.7738  0.1523
 9243TIP3    H227673   0.705   7.343   1.357  0.3119  0.2171 -0.4705
 9244TIP3   OH227674   4.904   5.697   1.342 -0.6093  0.1612 -0.3057
 9244TIP3    H127675   4.820   5.741   1.329 -0.4395  1.6275  2.6549
 9244TIP3    H227676   4.967   5.769   1.350  0.8559 -0.8978 -1.6764
 9245TIP3   OH227677   6.598   5.925   4.904 -0.2411  0.2322  0.4308
 9245TIP3    H127678   6.677   5.872   4.889 -0.6155 -0.5442  1.1418
 9245TIP3    H227679   6.546   5.912   4.825 -0.3748 -0.5652  0.6339
 9246TIP3   OH227680   3.619   4.290   2.020 -0.5370 -0.1252  0.2030
 9246TIP3    H127681   3.669   4.320   2.095 -1.3949  2.0297 -0.0162
 9246TIP3    H227682   3.602   4.197   2.037  0.7825 -0.1052  1.7836
 9247TIP3   OH227683   8.022   3.252   0.924 -0.6271 -0.1026 -0.0556
 9247TIP3    H127684   7.972   3.172   0.909  0.1348 -0.3898 -1.1527
 9247TIP3    H227685   8.107   3.235   0.884 -1.0671  1.9458 -2.0604
 9248TIP3   OH227686   0.166   0.544   6.230 -0.0066  0.2016 -0.6778
 9248TIP3    H127687   0.096   0.571   6.290 -0.0496 -1.5416  0.0872
 9248TIP3    H227688   0.210   0.626   6.207 -1.7552  1.2382 -0.5061
 9249TIP3   OH227689   5.966   2.607   2.746  0.0121 -0.0150  0.0138
 9249TIP3    H127690   5.932   2.570   2.827 -0.6639  2.2144  0.8037
 9249TIP3    H227691   5.895   2.596   2.683 -0.1540 -0.1186  0.2189
 9250TIP3   OH227692   3.450   6.989   1.080 -0.5258 -0.8279  0.2284
 9250TIP3    H127693   3.452   7.047   1.157 -1.5429  0.5624 -0.7390
 9250TIP3    H227694   3.430   6.903   1.116 -3.4054  0.1852  1.4141
 9251TIP3   OH227695   4.829   4.796   5.567  0.6501  0.0314  0.3201
 9251TIP3    H127696   4.808   4.770   5.477  1.9855  0.6511 -0.2115
 9251TIP3    H227697   4.844   4.891   5.561 -0.4150  0.3007  1.4520
 9252TIP3   OH227698   0.974   3.663   3.076  0.6844  0.1866 -0.4256
 9252TIP3    H127699   1.056   3.705   3.100  0.5644 -0.7786  1.8948
 9252TIP3    H227700   0.906   3.719   3.114  0.4038 -0.4749  0.0592
 9253TIP3   OH227701   6.708   4.026   3.426 -0.3304  0.1389  0.1904
 9253TIP3    H127702   6.615   4.027   3.403 -0.3444 -1.1942  0.0959
 9253TIP3    H227703   6.725   3.936   3.455  0.5079  0.8423  2.0572
 9254TIP3   OH227704   5.749   6.919   2.163  0.3665 -0.1103  0.3137
 9254TIP3    H127705   5.710   7.005   2.148  0.4192 -0.1437 -0.0290
 9254TIP3    H227706   5.680   6.856   2.141 -0.1376 -0.1515  1.9091
 9255TIP3   OH227707   6.796   3.289   4.467  0.2009  0.1821 -0.2392
 9255TIP3    H127708   6.836   3.375   4.459  1.1336 -0.2604 -0.5279
 9255TIP3    H227709   6.799   3.253   4.378  0.9897 -0.6402  0.1081
 9256TIP3   OH227710   6.108   2.834   1.372  0.0848 -0.6071 -0.2944
 9256TIP3    H127711   6.152   2.900   1.320  1.3523 -1.2691 -0.1073
 9256TIP3    H227712   6.118   2.864   1.462 -1.2356  0.0297 -0.3399
 9257TIP3   OH227713   2.862   6.009   2.038  0.4513  0.2432  0.2253
 9257TIP3    H127714   2.948   6.018   1.997  0.0949 -1.2079 -0.9725
 9257TIP3    H227715   2.880   5.966   2.121  0.8037 -1.7611 -0.8121
 9258TIP3   OH227716   1.033   1.257   1.466 -0.2737  0.4351 -0.1078
 9258TIP3    H127717   1.088   1.335   1.472  0.7315 -0.1860 -0.8388
 9258TIP3    H227718   1.055   1.206   1.544 -0.9831  0.8999  0.4066
 9259TIP3   OH227719   8.282   3.148   2.221  0.3352 -0.0563  0.0226
 9259TIP3    H127720   8.255   3.111   2.305  0.6982  0.7356  0.5045
 9259TIP3    H227721   8.223   3.109   2.157 -1.2088  0.7605  0.8983
 9260TIP3   OH227722   4.020   3.581   5.281  0.1631  0.3051  0.7588
 9260TIP3    H127723   4.067   3.609   5.202 -2.3862  1.3209 -0.4988
 9260TIP3    H227724   3.986   3.662   5.318  0.1495 -0.3175  2.1619
 9261TIP3   OH227725   0.508   6.012   4.435 -0.0671  0.0727 -0.0120
 9261TIP3    H127726   0.585   6.029   4.381 -0.4098  1.3189 -0.1606
 9261TIP3    H227727   0.542   5.991   4.521  0.4543  0.2417 -0.1742
 9262TIP3   OH227728   5.772   5.027   6.303 -0.1195 -0.6089  0.7958
 9262TIP3    H127729   5.795   4.977   6.382  1.3854 -3.0979 -1.0722
 9262TIP3    H227730   5.710   4.972   6.256  1.5170 -0.8101 -1.3046
 9263TIP3   OH227731   2.167   3.902   5.466 -0.0571 -0.1666 -0.3305
 9263TIP3    H127732   2.149   3.955   5.389  1.2684  0.4581 -0.2499
 9263TIP3    H227733   2.119   3.946   5.537 -1.5415 -0.9322 -0.8283
 9264TIP3   OH227734   7.387   1.720   2.520 -0.5956  0.4121  0.1197
 9264TIP3    H127735   7.470   1.763   2.501 -0.1541 -1.1678 -1.7568
 9264TIP3    H227736   7.399   1.629   2.494 -2.2416 -0.3908  1.8357
 9265TIP3   OH227737   1.254   6.798   3.836  0.0710  0.1060 -0.5845
 9265TIP3    H127738   1.305   6.777   3.914 -0.2037 -0.7548 -0.6283
 9265TIP3    H227739   1.175   6.840   3.868  0.8093  1.4726 -0.5154
 9266TIP3   OH227740   7.674   7.809   2.795  0.1146  0.4155  0.7639
 9266TIP3    H127741   7.738   7.753   2.751 -2.4050 -0.5945 -1.9356
 9266TIP3    H227742   7.649   7.759   2.873 -0.3263 -1.1312 -0.3157
 9267TIP3   OH227743   3.033   3.190   5.127  0.1463 -0.2515 -0.6883
 9267TIP3    H127744   3.099   3.127   5.155 -0.3863 -0.9380 -0.9378
 9267TIP3    H227745   3.020   3.246   5.203  0.4466 -0.6016 -0.3727
 9268TIP3   OH227746   2.307   5.945   3.330  0.0154 -0.7912 -0.9112
 9268TIP3    H127747   2.222   5.977   3.359  0.5832  0.5146 -0.6041
 9268TIP3    H227748   2.301   5.850   3.335 -0.5187 -0.6700  1.7144
 9269TIP3   OH227749   2.544   4.979   0.396 -0.1584  0.5500 -0.0092
 9269TIP3    H127750   2.579   5.012   0.313  0.6244  1.1503  0.5414
 9269TIP3    H227751   2.572   5.044   0.461 -1.7215  0.6714  0.5673
 9270TIP3   OH227752   3.004   4.247   1.605 -0.1290 -0.6820  0.2027
 9270TIP3    H127753   2.943   4.313   1.638 -0.5154 -0.1801 -1.4568
 9270TIP3    H227754   2.956   4.164   1.614 -1.8785 -0.1264 -2.7147
 9271TIP3   OH227755   1.526   7.335   3.949  0.6682 -0.0817  0.1126
 9271TIP3    H127756   1.574   7.267   3.996  1.0008  0.9129  1.2278
 9271TIP3    H227757   1.480   7.384   4.017  0.2700  0.7007 -0.6980
 9272TIP3   OH227758   3.408   1.665   5.427 -0.3074 -0.0283 -0.1419
 9272TIP3    H127759   3.484   1.609   5.409  0.4004  0.4491  1.2067
 9272TIP3    H227760   3.413   1.733   5.361  1.5429  1.0344  0.9894
 9273TIP3   OH227761   6.104   5.272   1.786  0.6794  0.4756  0.1447
 9273TIP3    H127762   6.159   5.345   1.758  1.5206  0.0895  0.7564
 9273TIP3    H227763   6.120   5.204   1.720  0.5880  0.5229  0.0734
 9274TIP3   OH227764   7.296   4.254   3.056 -0.2856 -0.0055 -0.1961
 9274TIP3    H127765   7.371   4.284   3.004 -1.1100  0.9406 -0.8681
 9274TIP3    H227766   7.251   4.191   3.000  1.0760 -2.1690  0.9676
 9275TIP3   OH227767   8.059   1.673   5.789 -0.1547  0.1262  0.5806
 9275TIP3    H127768   8.028   1.754   5.830  0.0703  1.3376 -1.5127
 9275TIP3    H227769   8.127   1.702   5.728 -0.8288 -1.4817 -1.0189
 9276TIP3   OH227770   4.524   1.015   2.404  0.7927  0.2655  0.2037
 9276TIP3    H127771   4.584   1.079   2.367 -0.3101  1.0057 -0.3417
 9276TIP3    H227772   4.439   1.059   2.406 -0.0615 -1.2686 -0.4824
 9277TIP3   OH227773   8.213   3.597   2.114 -0.0655  0.2154 -0.3098
 9277TIP3    H127774   8.293   3.546   2.121 -0.7251 -0.7508  0.5224
 9277TIP3    H227775   8.150   3.538   2.073 -0.7360  0.4789  0.3168
 9278TIP3   OH227776   4.038   1.862   1.523  0.6739 -0.4897 -0.2203
 9278TIP3    H127777   4.045   1.783   1.578 -1.2854  0.5014  1.5637
 9278TIP3    H227778   3.944   1.875   1.512  0.9685  1.4049 -0.7593
 9279TIP3   OH227779   5.160   4.259   0.310  0.0688 -0.4224 -0.1850
 9279TIP3    H127780   5.222   4.188   0.326  0.3371 -0.3899 -1.0078
 9279TIP3    H227781   5.215   4.332   0.282 -0.2493 -0.0465  0.1699
 9280TIP3   OH227782   1.160   1.525   2.477  0.4047 -0.6472  0.1976
 9280TIP3    H127783   1.068   1.543   2.495  0.6419 -0.0240  0.8374
 9280TIP3    H227784   1.208   1.579   2.540  1.2362 -0.0629 -0.9121
 9281TIP3   OH227785   1.340   5.581   1.850 -0.2190  0.2973 -0.0732
 9281TIP3    H127786   1.435   5.591   1.843 -0.1438  0.1410  0.6391
 9281TIP3    H227787   1.317   5.522   1.778  0.1497  0.7284 -0.5571
 9282TIP3   OH227788   7.836   1.955   5.206  0.1073  0.2009 -0.5890
 9282TIP3    H127789   7.796   1.952   5.120  0.5065  1.0196 -0.8110
 9282TIP3    H227790   7.820   2.044   5.237  0.0850 -0.0433  0.1231
 9283TIP3   OH227791   6.432   2.430   4.943  0.4707 -0.2315 -0.7743
 9283TIP3    H127792   6.514   2.380   4.941  0.0659 -0.9203 -0.7516
 9283TIP3    H227793   6.369   2.372   4.900 -0.0338  0.2304 -0.6596
 9284TIP3   OH227794   7.524   0.527   2.772  0.3594 -0.0221  0.2261
 9284TIP3    H127795   7.536   0.601   2.832 -0.7875  0.1155  0.3124
 9284TIP3    H227796   7.503   0.453   2.829 -0.7716  0.1163  0.0157
 9285TIP3   OH227797   2.671   6.783   0.872  0.1785  0.1399 -0.2405
 9285TIP3    H127798   2.756   6.813   0.904  1.9560 -1.6025 -2.8918
 9285TIP3    H227799   2.684   6.691   0.849 -2.1476  0.0508 -1.6034
 9286TIP3   OH227800   8.069   6.933   0.081 -0.6385 -0.2973 -0.3363
 9286TIP3    H127801   8.007   6.862   0.095  0.3340 -1.1681 -0.3046
 9286TIP3    H227802   8.050   6.997   0.150 -2.2744  0.0312 -1.0543
 9287TIP3   OH227803   0.910   4.519   0.031 -0.2469  0.0993 -0.3512
 9287TIP3    H127804   0.987   4.573   0.046 -0.5383  1.0581 -1.9890
 9287TIP3    H227805   0.837   4.581   0.033 -0.8136 -0.5544 -0.2890
 9288TIP3   OH227806   6.685   6.864   5.180  0.0180  0.0568  0.5290
 9288TIP3    H127807   6.697   6.833   5.090 -0.5215 -0.2724  0.5640
 9288TIP3    H227808   6.643   6.790   5.225  0.1798  0.2622  1.0219
 9289TIP3   OH227809   0.629   6.283   0.924  0.2928  0.0443  0.4537
 9289TIP3    H127810   0.598   6.272   0.835  0.7864 -1.1835  0.4102
 9289TIP3    H227811   0.673   6.369   0.924  0.8119 -0.2027 -0.6449
 9290TIP3   OH227812   0.288   7.369   4.595 -0.0181  0.2238  0.2868
 9290TIP3    H127813   0.200   7.369   4.558  0.5833  1.1660 -1.2878
 9290TIP3    H227814   0.327   7.451   4.564  0.3034  1.5462  3.8115
 9291TIP3   OH227815   7.521   1.813   0.507 -0.1285 -0.7397  0.0445
 9291TIP3    H127816   7.525   1.723   0.541 -0.6435 -1.1743 -1.0095
 9291TIP3    H227817   7.460   1.808   0.434 -0.5881  0.5977  0.3184
 9292TIP3   OH227818   7.628   1.787   4.478  0.3588  0.1713  0.0341
 9292TIP3    H127819   7.603   1.713   4.533  1.5697 -0.2578  0.0377
 9292TIP3    H227820   7.718   1.768   4.452  1.0661  2.1295  0.8630
 9293TIP3   OH227821   0.453   4.626   6.745  0.1145  0.3473  0.5453
 9293TIP3    H127822   0.466   4.647   6.653  2.4537 -0.0635  0.7104
 9293TIP3    H227823   0.392   4.552   6.745  2.2669 -1.6002 -0.9605
 9294TIP3   OH227824   3.561   1.783   4.620 -0.2522 -0.1901 -0.0097
 9294TIP3    H127825   3.542   1.747   4.533  0.9188 -3.0796  0.8277
 9294TIP3    H227826   3.639   1.837   4.607 -0.4666 -0.0638 -0.8522
 9295TIP3   OH227827   1.534   0.138   2.394 -0.1932  0.2505  0.0475
 9295TIP3    H127828   1.519   0.044   2.395  0.4752  0.1369 -0.3463
 9295TIP3    H227829   1.495   0.167   2.311  2.0181 -0.1146 -1.2123
 9296TIP3   OH227830   6.638   5.291   3.053  0.1179  0.1555  0.3106
 9296TIP3    H127831   6.696   5.330   2.987  0.4962 -2.6499 -1.1788
 9296TIP3    H227832   6.560   5.265   3.004 -0.3464 -0.4332  1.3250
 9297TIP3   OH227833   0.772   1.422   5.762  0.6686 -0.2027  0.1717
 9297TIP3    H127834   0.723   1.343   5.742  1.9123 -0.4001 -2.6514
 9297TIP3    H227835   0.713   1.494   5.737  0.3793 -0.3067  0.5526
 9298TIP3   OH227836   2.943   1.630   0.746 -0.4807 -0.0046  0.7654
 9298TIP3    H127837   2.883   1.684   0.694  0.5571  0.1376 -0.3475
 9298TIP3    H227838   3.025   1.633   0.697  0.1048 -1.1365  1.6388
 9299TIP3   OH227839   1.116   6.608   3.674  0.5420 -0.2123 -0.4762
 9299TIP3    H127840   1.163   6.668   3.732  0.6744 -1.2876  0.5727
 9299TIP3    H227841   1.165   6.612   3.592  1.1183  0.3933 -0.1188
 9300TIP3   OH227842   5.310   5.322   6.365  0.1214 -0.5545  0.0550
 9300TIP3    H127843   5.256   5.243   6.363 -1.2142  0.1685  2.5710
 9300TIP3    H227844   5.381   5.304   6.305 -1.1713 -2.8933 -0.9072
 9301TIP3   OH227845   4.852   1.856   5.314  0.2617 -0.0802 -0.4825
 9301TIP3    H127846   4.891   1.941   5.335  0.0770  0.4214 -2.0322
 9301TIP3    H227847   4.812   1.827   5.396  1.5090  0.6739  0.4387
 9302TIP3   OH227848   1.989   5.778   1.155 -0.0693 -0.0997  0.2071
 9302TIP3    H127849   1.983   5.714   1.226  0.8434  0.0462  0.4163
 9302TIP3    H227850   1.986   5.725   1.075  0.9098 -0.4238  0.3820
 9303TIP3   OH227851   8.036   0.416   6.435  0.1718  0.1896  0.2799
 9303TIP3    H127852   8.051   0.322   6.443  1.1735  0.3511  0.4111
 9303TIP3    H227853   8.028   0.448   6.525 -0.3686  0.2128  0.2320
 9304TIP3   OH227854   3.011   6.075   4.445 -0.5836  0.1939  0.2458
 9304TIP3    H127855   2.995   6.008   4.378 -1.6828 -0.5167  1.1733
 9304TIP3    H227856   3.043   6.025   4.521  1.1164  1.0336  0.1354
 9305TIP3   OH227857   2.914   7.332   1.168  0.0817  0.6214 -0.0091
 9305TIP3    H127858   2.881   7.247   1.141  1.9323 -0.6620  1.4997
 9305TIP3    H227859   2.841   7.372   1.216 -1.2412  0.4917 -1.8098
 9306TIP3   OH227860   0.435   2.920   6.385  0.1743 -0.2580 -0.3593
 9306TIP3    H127861   0.397   3.007   6.399  0.8098 -0.1815  1.0763
 9306TIP3    H227862   0.524   2.927   6.421 -0.1551 -1.8227  0.8358
 9307TIP3   OH227863   2.004   1.272   0.634 -0.0159 -0.0968 -0.3955
 9307TIP3    H127864   1.976   1.364   0.629  1.1911  0.3044 -0.2859
 9307TIP3    H227865   2.076   1.274   0.697  0.6861 -0.9559 -1.1572
 9308TIP3   OH227866   3.480   7.002   3.010 -0.2875 -0.3037  0.7389
 9308TIP3    H127867   3.466   7.069   3.077  2.0635 -0.4647  1.5033
 9308TIP3    H227868   3.444   6.922   3.049 -1.0305  0.0504  0.7964
 9309TIP3   OH227869   4.666   3.719   5.002 -0.9032 -0.1134  0.8918
 9309TIP3    H127870   4.623   3.793   5.044 -0.9777 -0.4689  1.4647
 9309TIP3    H227871   4.610   3.698   4.927 -0.7821  0.5171  0.6222
 9310TIP3   OH227872   1.802   4.360   3.234  0.1170  0.1474  0.7637
 9310TIP3    H127873   1.888   4.325   3.209 -0.7814 -0.4851 -1.7017
 9310TIP3    H227874   1.800   4.448   3.196 -0.3762  0.0992  0.6782
 9311TIP3   OH227875   1.952   2.637   1.222  0.7052  0.3452  0.7201
 9311TIP3    H127876   1.955   2.624   1.317  0.2869  0.0613  0.6995
 9311TIP3    H227877   2.009   2.712   1.206  0.1330  0.9105  1.2910
 9312TIP3   OH227878   7.911   6.728   4.232 -0.0981  0.2229  0.4426
 9312TIP3    H127879   7.981   6.783   4.266 -0.1802  0.9782 -0.5556
 9312TIP3    H227880   7.882   6.772   4.152 -0.1830 -1.2552 -0.3940
 9313TIP3   OH227881   6.481   3.215   0.332  0.0525  0.9374 -0.0806
 9313TIP3    H127882   6.459   3.179   0.418  2.2941 -1.2550 -0.3091
 9313TIP3    H227883   6.503   3.306   0.350 -2.7127  1.4991  1.0626
 9314TIP3   OH227884   4.981   1.701   0.796  0.3491 -0.4249 -0.8170
 9314TIP3    H127885   4.945   1.615   0.819 -2.2987  0.9376  0.6487
 9314TIP3    H227886   4.930   1.729   0.720  0.9725  0.0044 -1.0862
 9315TIP3   OH227887   2.623   4.990   6.316  0.9523  0.0951 -0.1244
 9315TIP3    H127888   2.659   5.011   6.402  3.3122 -1.2293 -0.7077
 9315TIP3    H227889   2.684   5.031   6.254  3.0426 -4.1250 -1.1877
 9316TIP3   OH227890   0.859   0.561   5.966  0.1090  0.1401 -0.3162
 9316TIP3    H127891   0.864   0.621   5.892 -1.5554  0.6878 -0.0237
 9316TIP3    H227892   0.832   0.616   6.040  0.5053 -0.6170  0.4081
 9317TIP3   OH227893   4.723   6.225   5.219 -0.3717  0.2987  0.0086
 9317TIP3    H127894   4.641   6.272   5.207  0.7521  3.2259  2.5190
 9317TIP3    H227895   4.732   6.171   5.140 -3.7386  1.2551 -1.1881
 9318TIP3   OH227896   0.614   4.392   1.284 -0.0125 -0.0570  0.1769
 9318TIP3    H127897   0.683   4.456   1.262 -1.6885  1.5260 -0.7677
 9318TIP3    H227898   0.604   4.340   1.204  0.1202 -0.3263  0.3347
 9319TIP3   OH227899   0.900   1.495   4.982  0.4175  0.5623  0.1325
 9319TIP3    H127900   0.938   1.535   5.060  3.0759 -0.9255 -0.2830
 9319TIP3    H227901   0.921   1.556   4.911 -0.3102  0.9766  0.2564
 9320TIP3   OH227902   0.398   1.602   0.881 -0.5153 -0.3035 -0.0954
 9320TIP3    H127903   0.393   1.601   0.977  0.1281  1.1583 -0.0096
 9320TIP3    H227904   0.389   1.695   0.858  1.6256 -0.3282 -1.2748
 9321TIP3   OH227905   3.849   3.396   3.570 -0.6484 -0.3096  0.1206
 9321TIP3    H127906   3.785   3.461   3.540 -1.0178 -1.1065 -0.8528
 9321TIP3    H227907   3.841   3.324   3.508  2.6134  0.3695 -1.2382
 9322TIP3   OH227908   5.039   3.870   2.678  0.4661  0.1409  0.0070
 9322TIP3    H127909   5.062   3.957   2.712 -2.4882  0.7772  0.6564
 9322TIP3    H227910   5.017   3.818   2.755  1.3519 -0.9497 -0.4440
 9323TIP3   OH227911   2.468   7.847   2.667  0.6682 -0.1207 -0.0834
 9323TIP3    H127912   2.522   7.781   2.623 -0.0736 -0.5605 -0.3579
 9323TIP3    H227913   2.378   7.814   2.658  0.4451  0.0100  1.3600
 9324TIP3   OH227914   7.011   2.406   4.420  0.0372 -0.2000 -0.5006
 9324TIP3    H127915   6.983   2.317   4.398  0.1455 -0.4365  0.2882
 9324TIP3    H227916   6.933   2.448   4.456  0.2590 -0.3422  0.1730
 9325TIP3   OH227917   7.011   2.813   3.072 -0.1492 -0.1128 -0.1981
 9325TIP3    H127918   7.022   2.723   3.043 -0.4431  0.1145 -1.0265
 9325TIP3    H227919   6.930   2.842   3.032  0.8027  1.0650 -1.3564
 9326TIP3   OH227920   3.322   3.648   4.508  0.7386 -0.3381 -0.0368
 9326TIP3    H127921   3.297   3.728   4.463  0.4496  0.0175  0.7468
 9326TIP3    H227922   3.415   3.658   4.525  0.8712 -0.5145 -0.6147
 9327TIP3   OH227923   3.247   1.371   0.753  0.0797  0.3926 -0.5301
 9327TIP3    H127924   3.230   1.327   0.836 -1.3160  2.2943  0.2820
 9327TIP3    H227925   3.282   1.303   0.695 -0.7625 -1.4222  1.0136
 9328TIP3   OH227926   6.650   1.490   3.631  0.0677  0.4043  0.4258
 9328TIP3    H127927   6.588   1.558   3.660 -1.7305 -0.1114 -1.8787
 9328TIP3    H227928   6.732   1.512   3.676 -1.3565  2.0182  2.4590
 9329TIP3   OH227929   8.116   3.660   1.228  0.7420  0.0699 -0.5580
 9329TIP3    H127930   8.044   3.640   1.288  0.0218  0.3433 -1.2992
 9329TIP3    H227931   8.136   3.752   1.246  0.0514  0.3597 -1.1916
 9330TIP3   OH227932   2.066   0.247   1.036  0.4594  0.0545 -0.0591
 9330TIP3    H127933   2.125   0.322   1.037  0.7921 -0.2009 -0.2807
 9330TIP3    H227934   1.979   0.285   1.019  0.7599  0.3021 -1.0824
 9331TIP3   OH227935   2.045   7.443   6.580  0.3958 -0.1012 -0.7288
 9331TIP3    H127936   2.021   7.481   6.496 -1.6725  0.6701  0.1602
 9331TIP3    H227937   2.000   7.359   6.582  0.4394 -0.1177 -0.3992
 9332TIP3   OH227938   7.167   6.404   2.686 -0.0211  0.3055  0.0270
 9332TIP3    H127939   7.262   6.413   2.685  0.0751 -0.6499 -1.0892
 9332TIP3    H227940   7.141   6.405   2.594 -1.0870  0.4902  0.3109
 9333TIP3   OH227941   7.079   7.155   5.489 -0.5446  0.1749 -0.2696
 9333TIP3    H127942   7.061   7.177   5.397 -1.0190 -0.3840 -0.3169
 9333TIP3    H227943   6.993   7.140   5.527 -0.3177 -0.1065  0.1397
 9334TIP3   OH227944   6.692   2.969   6.728 -0.0635  0.4618  0.6754
 9334TIP3    H127945   6.657   2.922   6.804  0.4896  1.5504  1.6258
 9334TIP3    H227946   6.768   3.016   6.761  0.9776 -0.0559 -0.8520
 9335TIP3   OH227947   4.852   0.848   5.592  0.7148 -0.0960  0.1803
 9335TIP3    H127948   4.859   0.937   5.557  0.1207 -0.4162 -0.7905
 9335TIP3    H227949   4.827   0.794   5.517 -1.5875 -0.6612  1.2575
 9336TIP3   OH227950   0.427   0.771   0.062  0.2293  0.2409  0.4840
 9336TIP3    H127951   0.516   0.794   0.036  0.5077  0.0643  1.2627
 9336TIP3    H227952   0.387   0.736  -0.018  0.7986  0.4752  0.0905
 9337TIP3   OH227953   5.935   4.379   3.712 -0.0350  0.1399  0.6671
 9337TIP3    H127954   5.904   4.377   3.802  0.5914  1.7302  0.9584
 9337TIP3    H227955   5.926   4.471   3.686  2.7455  0.3666  0.2103
 9338TIP3   OH227956   8.016   4.569   5.672  0.5485 -0.4758  0.1978
 9338TIP3    H127957   7.925   4.597   5.665  0.4428 -0.3266  1.8133
 9338TIP3    H227958   8.061   4.642   5.713  1.2810 -0.7699 -0.0683
 9339TIP3   OH227959   6.891   4.577   5.955 -0.2769  0.1726  0.5080
 9339TIP3    H127960   6.971   4.614   5.992  0.6483  0.7721 -1.9339
 9339TIP3    H227961   6.841   4.652   5.925 -0.5635 -0.3050 -0.2434
 9340TIP3   OH227962   0.651   4.676   2.034 -0.2856  0.0608  0.3832
 9340TIP3    H127963   0.625   4.588   2.059  1.0987 -0.4978 -0.0475
 9340TIP3    H227964   0.612   4.733   2.100 -2.8097 -0.6563 -0.3810
 9341TIP3   OH227965   4.322   7.092   3.092  0.0697  0.7161 -0.0170
 9341TIP3    H127966   4.360   7.105   3.005 -0.5727  0.5642 -0.3254
 9341TIP3    H227967   4.331   6.998   3.109 -0.2661  0.6620 -0.1372
 9342TIP3   OH227968   6.990   2.383   3.759  0.2383  0.8799 -0.0356
 9342TIP3    H127969   7.076   2.347   3.736 -0.0003  0.2221  0.0930
 9342TIP3    H227970   6.974   2.451   3.693  0.2854  0.1241 -0.8456
 9343TIP3   OH227971   7.748   1.343   5.208  0.0779 -0.4562 -0.0170
 9343TIP3    H127972   7.714   1.426   5.172 -0.2736 -1.2464 -1.5946
 9343TIP3    H227973   7.795   1.303   5.135  0.3665 -1.6007  0.7738
 9344TIP3   OH227974   3.566   7.442   6.694 -0.6265 -0.3481  0.3833
 9344TIP3    H127975   3.513   7.383   6.747 -0.5788 -0.0795  0.7422
 9344TIP3    H227976   3.604   7.503   6.758  0.0194 -0.4642  0.1226
 9345TIP3   OH227977   4.549   1.885   1.347 -0.0340 -0.3746 -0.0029
 9345TIP3    H127978   4.541   1.873   1.252 -1.5758 -0.2177  0.0810
 9345TIP3    H227979   4.528   1.977   1.361  1.8493  0.0374  0.3570
 9346TIP3   OH227980   2.105   3.969   4.612 -0.1116 -0.0882  0.3548
 9346TIP3    H127981   2.049   3.899   4.645  0.2046 -1.2040 -1.3569
 9346TIP3    H227982   2.127   4.021   4.689 -0.5255 -1.7442  1.6341
 9347TIP3   OH227983   1.847   2.247   4.819 -0.8269  0.1366  0.1004
 9347TIP3    H127984   1.783   2.313   4.846 -0.6519  0.4254 -0.1895
 9347TIP3    H227985   1.885   2.282   4.738  0.6220  0.5809  0.9366
 9348TIP3   OH227986   2.129   4.767   4.001  0.1136 -0.2983  0.0645
 9348TIP3    H127987   2.163   4.844   4.047 -1.4611 -0.1726  1.0766
 9348TIP3    H227988   2.204   4.736   3.949  1.3157  0.8135  1.0455
 9349TIP3   OH227989   0.660   2.520   1.372 -0.5447 -0.5185  0.3442
 9349TIP3    H127990   0.694   2.596   1.419  1.7274 -0.7193 -0.8242
 9349TIP3    H227991   0.564   2.528   1.378 -0.3418  1.1789  2.1432
 9350TIP3   OH227992   1.648   2.855   2.959 -0.4667 -0.6266 -0.0217
 9350TIP3    H127993   1.619   2.815   2.877 -1.4485 -1.1821  0.5796
 9350TIP3    H227994   1.674   2.944   2.934  0.2149 -1.1158 -1.0986
 9351TIP3   OH227995   1.903   7.172   4.213 -0.2648 -0.0555 -0.2349
 9351TIP3    H127996   1.936   7.262   4.214  2.2817 -0.8194 -3.0324
 9351TIP3    H227997   1.807   7.182   4.210 -0.0607  2.5481 -0.4408
 9352TIP3   OH227998   2.288   2.784   6.569 -0.1385 -0.2258 -0.0218
 9352TIP3    H127999   2.229   2.710   6.584  1.4386 -1.2192  1.5948
 9352TIP3    H228000   2.231   2.852   6.532 -2.2810 -1.1654  1.3133
 9353TIP3   OH228001   1.253   3.953   2.532  0.6603 -0.5242  0.1235
 9353TIP3    H128002   1.170   3.991   2.561  1.7443  0.9460  1.4944
 9353TIP3    H228003   1.255   3.969   2.437 -0.4672 -0.3013  0.1252
 9354TIP3   OH228004   6.816   4.064   5.723  0.0925  0.1264 -0.2585
 9354TIP3    H128005   6.784   4.125   5.790  0.6900  1.9863 -1.5987
 9354TIP3    H228006   6.873   4.117   5.667  0.1723 -1.5387 -1.8421
 9355TIP3   OH228007   1.067   1.533   3.989  0.1171  0.1332 -0.2290
 9355TIP3    H128008   0.994   1.529   4.051  1.0366 -1.3959  0.8129
 9355TIP3    H228009   1.141   1.566   4.040  0.2906  1.2757 -1.1702
 9356TIP3   OH228010   2.606   0.114   3.020 -0.7397  0.5350  0.5540
 9356TIP3    H128011   2.521   0.139   2.985 -0.7577  0.0607  0.2408
 9356TIP3    H228012   2.586   0.062   3.098 -0.7442  0.3646  0.4412
 9357TIP3   OH228013   0.278   3.790   3.560 -0.4202  0.3286 -0.6030
 9357TIP3    H128014   0.260   3.706   3.601 -2.1426  0.1380 -1.6296
 9357TIP3    H228015   0.335   3.835   3.622 -1.5825 -0.5688  1.2367
 9358TIP3   OH228016   4.863   0.170   3.559 -1.0359 -0.1646  0.4627
 9358TIP3    H128017   4.925   0.223   3.608  0.0057  0.1493 -1.1215
 9358TIP3    H228018   4.871   0.082   3.596  2.7547 -0.9125 -1.6801
 9359TIP3   OH228019   6.856   4.410   4.626 -0.2339 -0.0896 -0.0715
 9359TIP3    H128020   6.913   4.373   4.558  0.3859  2.6311 -1.1898
 9359TIP3    H228021   6.912   4.419   4.702  0.2791  0.6837 -0.5298
 9360TIP3   OH228022   5.898   1.133   2.499 -0.1216  0.2532  0.2401
 9360TIP3    H128023   5.942   1.207   2.542  2.2391 -2.7054  3.4134
 9360TIP3    H228024   5.881   1.071   2.569 -0.7208 -2.8637 -2.4512
 9361TIP3   OH228025   1.201   3.338   6.105 -0.2282 -0.2170  0.1273
 9361TIP3    H128026   1.295   3.356   6.105 -0.8785  4.6761  0.7150
 9361TIP3    H228027   1.178   3.332   6.198 -0.6739  0.4697  0.0732
 9362TIP3   OH228028   2.967   3.320   0.648  0.6059 -0.1334 -0.2027
 9362TIP3    H128029   2.936   3.411   0.645 -0.7674 -0.6098 -2.2125
 9362TIP3    H228030   2.890   3.269   0.670  1.1234 -0.9207 -0.1813
 9363TIP3   OH228031   5.597   0.292   6.328  0.7502  0.0050  0.2983
 9363TIP3    H128032   5.522   0.294   6.269 -2.2125 -1.3146  3.6269
 9363TIP3    H228033   5.671   0.323   6.276 -1.8417  0.2835 -3.5493
 9364TIP3   OH228034   2.908   2.786   5.879 -0.5059  0.4036  0.4019
 9364TIP3    H128035   2.974   2.854   5.864  0.6940 -0.3847  1.8760
 9364TIP3    H228036   2.930   2.749   5.964 -1.6635 -1.2492  0.0333
 9365TIP3   OH228037   7.114   3.214   4.453  0.2769  0.1291 -0.8188
 9365TIP3    H128038   7.072   3.137   4.489  1.1138 -0.2125 -0.5400
 9365TIP3    H228039   7.059   3.287   4.480  0.0143 -0.2817 -0.2351
 9366TIP3   OH228040   4.332   5.070   3.443  0.2613  0.5910  0.2070
 9366TIP3    H128041   4.376   4.992   3.477  0.2092  1.5784  2.7939
 9366TIP3    H228042   4.238   5.051   3.452  0.2144  0.4248 -0.5402
 9367TIP3   OH228043   8.055   7.662   6.357  0.2410 -0.1262  0.3504
 9367TIP3    H128044   8.125   7.600   6.381  1.3305  0.0135 -2.1366
 9367TIP3    H228045   8.096   7.748   6.365  0.5560 -0.0621 -1.5055
 9368TIP3   OH228046   7.277   5.039   5.733  0.4633  0.2087 -0.3726
 9368TIP3    H128047   7.301   5.015   5.643  0.5487 -0.8591 -0.0825
 9368TIP3    H228048   7.306   4.965   5.786 -1.6829 -0.2561  0.2524
 9369TIP3   OH228049   5.712   4.894   1.867 -0.5575 -0.0453  0.3269
 9369TIP3    H128050   5.682   4.903   1.776  0.1481 -2.2352 -0.1889
 9369TIP3    H228051   5.801   4.861   1.859 -0.2034  0.4867  1.8383
 9370TIP3   OH228052   1.596   4.091   5.857  0.8472 -0.4721  0.7288
 9370TIP3    H128053   1.686   4.088   5.823  0.5175 -0.5357 -0.1798
 9370TIP3    H228054   1.551   4.021   5.810  0.2444 -0.2441  0.9579
 9371TIP3   OH228055   5.715   4.566   3.281  0.2996  0.0297 -0.3993
 9371TIP3    H128056   5.632   4.567   3.234  0.4628  0.3910 -0.6822
 9371TIP3    H228057   5.717   4.649   3.328 -0.1646 -0.5988  0.7919
 9372TIP3   OH228058   1.312   3.286   6.549  0.3916 -0.6619 -0.1217
 9372TIP3    H128059   1.288   3.361   6.496  0.5619 -0.7900 -0.3822
 9372TIP3    H228060   1.349   3.223   6.487  1.3762 -0.4814  0.2522
 9373TIP3   OH228061   1.695   7.003   4.568  0.3106 -0.3896  0.0259
 9373TIP3    H128062   1.785   7.035   4.571 -0.1577  1.4110 -1.9850
 9373TIP3    H228063   1.649   7.054   4.635  0.4743 -0.1277 -0.0608
 9374TIP3   OH228064   7.172   1.376   2.892 -0.1536  0.4022 -0.2018
 9374TIP3    H128065   7.219   1.453   2.861 -0.1474  0.1036 -0.9467
 9374TIP3    H228066   7.080   1.395   2.874  0.0495 -1.0523 -3.4107
 9375TIP3   OH228067   6.212   3.525   4.285  0.4325  0.2765 -0.1608
 9375TIP3    H128068   6.251   3.594   4.231 -1.0804  0.3112 -1.2718
 9375TIP3    H228069   6.125   3.557   4.306  0.9443  0.2292  2.3350
 9376TIP3   OH228070   4.905   2.188   0.456 -0.1670  0.2798  0.3186
 9376TIP3    H128071   4.972   2.162   0.520 -2.3600  1.3642  3.2743
 9376TIP3    H228072   4.952   2.244   0.394  1.9619 -0.3304  1.2693
 9377TIP3   OH228073   2.772   4.067   1.329  0.3091  0.4110  0.1749
 9377TIP3    H128074   2.676   4.061   1.328  0.3496 -1.9560  1.9157
 9377TIP3    H228075   2.795   4.073   1.422  1.9014  0.0733 -0.1679
 9378TIP3   OH228076   2.590   5.156   2.254 -0.3852  0.0140  0.3859
 9378TIP3    H128077   2.544   5.096   2.195 -1.0858 -1.4065  2.2968
 9378TIP3    H228078   2.616   5.229   2.197  0.2710 -1.9184 -1.9815
 9379TIP3   OH228079   7.690   5.058   1.632 -0.0233 -0.5545 -0.0349
 9379TIP3    H128080   7.636   5.127   1.592 -0.9711 -0.4905  1.2902
 9379TIP3    H228081   7.637   4.978   1.622 -0.0448 -0.6274  0.6284
 9380TIP3   OH228082   4.911   3.790   2.352  0.0365  0.4190 -0.0890
 9380TIP3    H128083   4.999   3.824   2.371 -0.0464  2.0726 -2.2668
 9380TIP3    H228084   4.924   3.735   2.275 -0.2390 -2.8638  2.0127
 9381TIP3   OH228085   7.728   6.025   5.859  0.0827  0.3121 -0.1967
 9381TIP3    H128086   7.822   6.031   5.846  0.2586  1.0527  1.2815
 9381TIP3    H228087   7.695   6.111   5.832 -0.3314 -0.2742 -1.6906
 9382TIP3   OH228088   4.809   1.638   5.536  0.5488 -0.1525  0.1415
 9382TIP3    H128089   4.716   1.640   5.561  0.2231  1.7625 -1.0437
 9382TIP3    H228090   4.854   1.611   5.616 -1.0113 -0.9810  0.7819
 9383TIP3   OH228091   4.569   2.501   4.138 -0.0084  0.2604 -0.0525
 9383TIP3    H128092   4.577   2.472   4.047  0.9171 -1.9523  0.6824
 9383TIP3    H228093   4.492   2.455   4.171  0.0250  0.5649  0.4569
 9384TIP3   OH228094   3.425   2.369   5.914 -0.0985 -0.5249 -0.1348
 9384TIP3    H128095   3.365   2.302   5.946  0.6939 -1.0739  0.2433
 9384TIP3    H228096   3.489   2.379   5.985  0.3890 -0.1314 -0.6272
 9385TIP3   OH228097   2.728   7.614   5.187  0.2019  0.2365  0.1387
 9385TIP3    H128098   2.756   7.679   5.251  0.8824 -1.0757  1.2136
 9385TIP3    H228099   2.733   7.531   5.233  0.2901 -0.6995 -1.4940
 9386TIP3   OH228100   4.719   3.060   4.998  0.4807  0.8035  0.4873
 9386TIP3    H128101   4.727   3.034   5.090  0.1706 -1.3274 -0.0233
 9386TIP3    H228102   4.627   3.081   4.987  0.3503  0.2679  0.5019
 9387TIP3   OH228103   7.275   3.972   1.060  0.1907  0.3749  0.4238
 9387TIP3    H128104   7.210   3.907   1.087 -2.6024  1.5176 -2.8856
 9387TIP3    H228105   7.249   4.053   1.104 -1.2255  1.0025 -1.4339
 9388TIP3   OH228106   7.642   4.822   5.862  0.5324 -0.4955 -0.5402
 9388TIP3    H128107   7.689   4.765   5.923  2.4195  1.0015 -0.5045
 9388TIP3    H228108   7.610   4.763   5.794 -0.6747 -2.0457  1.2687
 9389TIP3   OH228109   1.811   2.525   0.993  0.7106  0.0170 -0.0286
 9389TIP3    H128110   1.748   2.516   1.064  0.4192 -0.5549 -0.3529
 9389TIP3    H228111   1.858   2.441   0.993  0.5154 -0.0904 -0.6993
 9390TIP3   OH228112   3.975   0.674   4.201  0.0768  0.0113  0.3386
 9390TIP3    H128113   4.035   0.739   4.236 -0.5060 -0.1143  1.6328
 9390TIP3    H228114   3.889   0.718   4.201 -0.5645 -1.1249  2.4601
 9391TIP3   OH228115   5.710   5.117   0.629  0.2519 -0.5396  0.3261
 9391TIP3    H128116   5.785   5.069   0.595  0.9851 -0.5008  1.8336
 9391TIP3    H228117   5.649   5.122   0.555  2.0543  0.1610 -1.1806
 9392TIP3   OH228118   6.829   1.736   3.574  0.2306  0.1409  0.2512
 9392TIP3    H128119   6.768   1.685   3.521 -0.7993  1.4113  0.1587
 9392TIP3    H228120   6.873   1.793   3.511  0.2798  0.4091  0.5255
 9393TIP3   OH228121   4.487   7.311   4.231 -0.4515 -0.2121 -0.5959
 9393TIP3    H128122   4.556   7.329   4.167  2.4498 -0.4384  2.2355
 9393TIP3    H228123   4.477   7.392   4.280 -1.6124 -0.4449 -0.4213
 9394TIP3   OH228124   3.608   1.870   3.356 -0.0384  0.7902  0.6173
 9394TIP3    H128125   3.680   1.860   3.293 -1.0914 -2.0817 -0.3139
 9394TIP3    H228126   3.537   1.910   3.306 -0.5567 -0.6119  0.1858
 9395TIP3   OH228127   7.354   5.226   3.166  0.2251 -0.1024  1.0221
 9395TIP3    H128128   7.268   5.247   3.202 -0.4122 -0.7581 -0.0750
 9395TIP3    H228129   7.345   5.242   3.072  1.2029 -0.5130  0.8474
 9396TIP3   OH228130   5.715   1.755   3.073  0.3071  0.3639  0.4654
 9396TIP3    H128131   5.730   1.669   3.033  3.1368  0.7136  0.6189
 9396TIP3    H228132   5.728   1.741   3.166 -3.6352  0.1318  1.1555
 9397TIP3   OH228133   1.184   0.901   4.599  0.2861  0.3069  0.1380
 9397TIP3    H128134   1.098   0.876   4.565  0.0660 -0.0088  0.9103
 9397TIP3    H228135   1.201   0.986   4.559 -0.3418  0.3230 -0.1083
 9398TIP3   OH228136   7.568   0.836   3.591  0.1636  0.3914  0.3646
 9398TIP3    H128137   7.501   0.863   3.655 -0.1797  1.4915 -0.4298
 9398TIP3    H228138   7.567   0.905   3.525  0.2828 -0.8763 -1.0246
 9399TIP3   OH228139   2.404   0.171   0.554  0.4010  0.0044  0.1104
 9399TIP3    H128140   2.472   0.201   0.494 -0.5720  0.1291 -0.9625
 9399TIP3    H228141   2.386   0.247   0.609  0.3757  0.3078 -0.3138
 9400TIP3   OH228142   5.096   3.705   3.219  0.0049  0.0637 -0.6251
 9400TIP3    H128143   5.038   3.646   3.266  1.1271 -0.6014 -0.0274
 9400TIP3    H228144   5.178   3.656   3.210  1.1113  1.6738  0.2332
 9401TIP3   OH228145   4.170   6.058   0.729  0.0983  0.5166 -0.2061
 9401TIP3    H128146   4.130   6.125   0.673  0.3918  0.3747 -0.5799
 9401TIP3    H228147   4.179   6.101   0.814 -0.1386  0.8040 -0.3256
 9402TIP3   OH228148   7.143   5.865   3.802 -0.2599  0.2005  0.3464
 9402TIP3    H128149   7.146   5.854   3.707  0.0621 -0.8166  0.4652
 9402TIP3    H228150   7.212   5.808   3.835 -1.2108 -0.4398  1.2739
 9403TIP3   OH228151   4.120   7.319   2.789  0.3925 -0.4519  0.0692
 9403TIP3    H128152   4.041   7.285   2.831  0.5909  0.4361  1.2076
 9403TIP3    H228153   4.096   7.328   2.696 -0.9798  0.1456  0.4541
 9404TIP3   OH228154   7.510   4.068   1.285  0.3364 -0.5402 -0.0014
 9404TIP3    H128155   7.511   3.977   1.256  2.5475 -0.4772 -0.2667
 9404TIP3    H228156   7.541   4.118   1.209  1.0641  0.1996  0.7635
 9405TIP3   OH228157   6.567   3.519   2.292 -0.7451 -0.1033  0.2562
 9405TIP3    H128158   6.588   3.456   2.360  0.2342  1.5358  1.5694
 9405TIP3    H228159   6.569   3.469   2.211  1.0305 -1.5728  1.1222
 9406TIP3   OH228160   1.385   2.844   0.195  0.2436 -0.4009  0.0018
 9406TIP3    H128161   1.376   2.873   0.286  0.7309 -1.3516  0.3698
 9406TIP3    H228162   1.394   2.925   0.145  1.8046  0.0883  1.0136
 9407TIP3   OH228163   1.929   2.191   2.987 -0.3771 -0.0759  0.2221
 9407TIP3    H128164   2.016   2.155   3.004  0.1517  1.5703  1.2588
 9407TIP3    H228165   1.920   2.189   2.892  0.3590 -1.1997  0.1567
 9408TIP3   OH228166   0.418   2.712   2.486 -0.1680  0.3742 -0.1805
 9408TIP3    H128167   0.397   2.713   2.392  0.5750  1.5059 -0.3462
 9408TIP3    H228168   0.491   2.773   2.495  1.3742 -1.5063  0.7908
 9409TIP3   OH228169   6.410   3.875   2.953 -0.7602  0.0153  0.1784
 9409TIP3    H128170   6.355   3.931   2.898 -0.5116  0.6146  0.5350
 9409TIP3    H228171   6.499   3.906   2.939 -0.5695 -0.5681  0.0603
 9410TIP3   OH228172   2.121   4.714   5.594  0.3349  0.0673  0.0426
 9410TIP3    H128173   2.214   4.733   5.596  0.3915 -0.1162  2.1556
 9410TIP3    H228174   2.083   4.783   5.540  1.5019  1.2155  0.6263
 9411TIP3   OH228175   4.638   4.094   5.422 -0.2168  0.2647 -0.2969
 9411TIP3    H128176   4.588   4.164   5.382  0.8794  0.0226 -2.2083
 9411TIP3    H228177   4.699   4.138   5.481  0.0910  0.8900 -1.0717
 9412TIP3   OH228178   7.478   0.140   5.069 -0.7798 -0.0465  0.1889
 9412TIP3    H128179   7.491   0.202   5.141 -0.5810  1.7148 -1.3047
 9412TIP3    H228180   7.540   0.069   5.087  0.9080  1.4686  0.5515
 9413TIP3   OH228181   8.036   4.989   2.016  0.0065 -0.0896  0.4947
 9413TIP3    H128182   8.089   4.993   1.936 -1.2358 -0.3974 -0.3593
 9413TIP3    H228183   8.062   4.907   2.058  0.3979 -0.1064  0.2282
 9414TIP3   OH228184   3.286   6.810   1.976  0.0733 -0.2328  0.0106
 9414TIP3    H128185   3.345   6.787   2.048  0.8918 -1.7003 -1.0717
 9414TIP3    H228186   3.236   6.730   1.960 -2.9527  1.2178  1.4864
 9415TIP3   OH228187   6.255   6.366   2.022  0.0823  0.2506 -0.1142
 9415TIP3    H128188   6.323   6.329   2.078  1.7513  1.3032 -1.3148
 9415TIP3    H228189   6.301   6.386   1.940 -1.6835  1.0517 -0.9568
 9416TIP3   OH228190   0.719   3.618   5.808 -0.9632 -0.1440 -0.3820
 9416TIP3    H128191   0.751   3.554   5.872  0.2756  0.2273 -0.6004
 9416TIP3    H228192   0.670   3.565   5.745  0.7548 -1.0603 -1.0314
 9417TIP3   OH228193   1.284   5.171   2.374 -0.4462  0.4612 -0.1079
 9417TIP3    H128194   1.246   5.111   2.438  0.6789 -0.3038 -0.1360
 9417TIP3    H228195   1.281   5.123   2.291  1.7443 -0.1682  0.1222
 9418TIP3   OH228196   5.293   0.676   1.514  0.0800 -0.4513  0.1231
 9418TIP3    H128197   5.265   0.630   1.593 -0.1682 -2.2209 -0.9445
 9418TIP3    H228198   5.343   0.611   1.464  1.5997  1.0772 -0.4713
 9419TIP3   OH228199   1.293   3.912   1.352 -0.6325  0.6867 -0.7262
 9419TIP3    H128200   1.355   3.918   1.280 -0.9014 -0.7950 -1.0995
 9419TIP3    H228201   1.268   3.820   1.356 -0.2001  0.5965  1.6161
 9420TIP3   OH228202   6.506   5.574   1.806  0.2815 -0.1851 -0.1218
 9420TIP3    H128203   6.572   5.600   1.870 -1.3390  0.9481  1.1802
 9420TIP3    H228204   6.505   5.645   1.741  1.6544 -1.1482 -1.2519
 9421TIP3   OH228205   0.449   1.279   1.162 -0.2260 -0.6716  0.1543
 9421TIP3    H128206   0.426   1.367   1.132 -0.5553 -0.4143  1.1423
 9421TIP3    H228207   0.395   1.221   1.108 -3.1364 -0.0994  2.2003
 9422TIP3   OH228208   3.304   1.295   5.102  0.3955 -0.0450  0.1508
 9422TIP3    H128209   3.367   1.367   5.105  0.7229 -0.3507  0.9577
 9422TIP3    H228210   3.349   1.222   5.145 -0.5226 -0.2597  0.7727
 9423TIP3   OH228211   2.464   2.688   4.995 -0.3534  0.5385 -0.6301
 9423TIP3    H128212   2.417   2.671   4.913 -0.6323  1.8658 -0.7773
 9423TIP3    H228213   2.460   2.606   5.043 -0.3000 -0.2275 -1.8921
 9424TIP3   OH228214   2.312   4.193   0.718 -0.1894  0.1183  0.1300
 9424TIP3    H128215   2.368   4.260   0.758  2.7063 -1.4288 -1.0354
 9424TIP3    H228216   2.269   4.150   0.792  0.3696  1.2103  1.1095
 9425TIP3   OH228217   3.569   4.739   6.397  0.1810  0.3207  0.3730
 9425TIP3    H128218   3.542   4.752   6.306  0.6331  1.9415  0.4591
 9425TIP3    H228219   3.497   4.688   6.435 -0.9307  1.2583 -0.4008
 9426TIP3   OH228220   2.132   5.511   6.371 -0.0131 -0.2883 -0.8139
 9426TIP3    H128221   2.093   5.580   6.318 -2.1104 -1.7873 -1.3424
 9426TIP3    H228222   2.118   5.539   6.461 -1.3516 -0.2612 -1.0176
 9427TIP3   OH228223   1.313   3.555   2.259 -0.2884 -0.4464 -0.0514
 9427TIP3    H128224   1.269   3.537   2.343  0.1862 -0.0023  0.3000
 9427TIP3    H228225   1.400   3.586   2.284 -0.2230 -0.0828 -0.7117
 9428TIP3   OH228226   1.767   2.329   5.665  0.3261  0.0500  0.1607
 9428TIP3    H128227   1.673   2.328   5.648  0.1420 -2.4484  1.0041
 9428TIP3    H228228   1.776   2.366   5.752  0.1365  0.2212  0.1083
 9429TIP3   OH228229   5.711   6.187  -0.022  0.0921 -0.4070 -0.0714
 9429TIP3    H128230   5.633   6.225   0.018  0.9096 -0.0252  1.2148
 9429TIP3    H228231   5.747   6.129   0.045  1.1682 -0.2210 -0.4684
 9430TIP3   OH228232   2.943   6.261   2.186 -0.7222 -0.0253  0.2425
 9430TIP3    H128233   2.864   6.260   2.132 -0.7859  1.4231  0.2657
 9430TIP3    H228234   2.967   6.354   2.192  0.6159 -0.3791  0.7742
 9431TIP3   OH228235   5.663   7.677   1.986  0.0580  0.0733  0.8425
 9431TIP3    H128236   5.688   7.669   1.894  1.7694  3.4607  0.8421
 9431TIP3    H228237   5.745   7.663   2.034  0.3089  2.9351  1.4385
 9432TIP3   OH228238   3.528   2.569   6.265 -0.1651  0.1576 -0.3860
 9432TIP3    H128239   3.496   2.605   6.348  0.9019  1.0756 -0.3519
 9432TIP3    H228240   3.619   2.546   6.282 -0.1723 -0.4251 -1.0805
 9433TIP3   OH228241   0.843   7.717   5.679  0.3832  0.5988  0.5055
 9433TIP3    H128242   0.871   7.628   5.653 -0.6330  0.7736 -1.3770
 9433TIP3    H228243   0.908   7.744   5.744  2.4032 -0.4327 -0.9634
 9434TIP3   OH228244   3.545   2.590   3.842 -0.4761  0.0309 -0.3688
 9434TIP3    H128245   3.579   2.660   3.787 -1.9159  1.0590  0.0103
 9434TIP3    H228246   3.451   2.588   3.824 -0.4398 -2.0179 -0.5857
 9435TIP3   OH228247   1.491   0.175   2.842  0.2369  0.3760  0.3618
 9435TIP3    H128248   1.453   0.179   2.754 -1.5802 -2.0058  0.9243
 9435TIP3    H228249   1.547   0.097   2.840 -0.7610 -0.4002  1.6177
 9436TIP3   OH228250   7.755   4.094   5.474 -0.6995 -0.1734 -0.1841
 9436TIP3    H128251   7.715   4.172   5.513 -1.6267 -1.3633  1.3404
 9436TIP3    H228252   7.681   4.044   5.439 -0.3101 -1.1768  0.3886
 9437TIP3   OH228253   3.940   7.365   0.875  0.0686  0.1871  0.2852
 9437TIP3    H128254   3.921   7.313   0.797  2.4619 -0.1715 -0.1385
 9437TIP3    H228255   4.026   7.334   0.904  0.7776  2.6597  1.0824
 9438TIP3   OH228256   5.419   4.465   2.760 -0.1658 -0.1695 -0.2363
 9438TIP3    H128257   5.410   4.401   2.831 -0.5128  1.6937  1.5101
 9438TIP3    H228258   5.337   4.515   2.763  0.5102  1.0274 -0.8390
 9439TIP3   OH228259   4.924   1.885   4.835 -0.1921  0.2058 -0.3101
 9439TIP3    H128260   4.923   1.793   4.807  0.4944  0.1120 -0.0503
 9439TIP3    H228261   4.900   1.935   4.757 -2.3033 -0.2905 -0.0233
 9440TIP3   OH228262   7.899   1.172   6.071  0.2427  0.2023 -0.2480
 9440TIP3    H128263   7.970   1.174   6.135  0.2485  1.2530 -0.2640
 9440TIP3    H228264   7.939   1.207   5.991  0.6993 -2.6187 -1.3517
 9441TIP3   OH228265   5.543   6.541   2.956  0.1755 -0.0648 -0.1109
 9441TIP3    H128266   5.475   6.595   2.915 -1.1656 -0.4009  1.5633
 9441TIP3    H228267   5.567   6.478   2.888 -1.9919 -0.6233 -0.4479
 9442TIP3   OH228268   8.216   2.908   5.132  0.7662 -0.0491 -0.3525
 9442TIP3    H128269   8.128   2.870   5.127  0.3055  1.0029 -0.5326
 9442TIP3    H228270   8.203   3.000   5.113  1.9923  0.0363 -0.8380
 9443TIP3   OH228271   4.505   2.410   5.047  0.3609  0.0440  0.4045
 9443TIP3    H128272   4.560   2.462   5.106 -0.6594  0.9197  0.6183
 9443TIP3    H228273   4.545   2.422   4.961  1.3651 -0.5531  0.7620
 9444TIP3   OH228274   6.396   1.476   4.847  0.0157 -0.7287 -0.3125
 9444TIP3    H128275   6.466   1.525   4.805 -0.3366 -1.6196 -1.9978
 9444TIP3    H228276   6.423   1.471   4.939  0.3436  2.0564 -0.1572
 9445TIP3   OH228277   4.811   6.708   4.459  0.3690 -0.0897 -0.2734
 9445TIP3    H128278   4.719   6.712   4.488 -0.0585  0.5391 -1.6370
 9445TIP3    H228279   4.855   6.658   4.527 -1.3339 -1.9530 -0.4525
 9446TIP3   OH228280   4.089   7.640   3.769  0.1002  0.3212 -0.1086
 9446TIP3    H128281   4.023   7.596   3.821  0.1870  2.0366  1.5451
 9446TIP3    H228282   4.097   7.586   3.690 -0.4063 -2.0980  1.3738
 9447TIP3   OH228283   0.582   4.723   5.100  0.5123  0.0021  0.2161
 9447TIP3    H128284   0.585   4.810   5.139 -1.4581 -0.2430  1.0203
 9447TIP3    H228285   0.616   4.665   5.168  0.4054 -0.0342  0.2379
 9448TIP3   OH228286   0.190   2.881   5.145 -0.5795 -0.1152  0.3368
 9448TIP3    H128287   0.196   2.944   5.073 -0.3348 -2.2570 -1.6647
 9448TIP3    H228288   0.097   2.860   5.150 -0.6992  0.5718  1.1904
 9449TIP3   OH228289   8.037   2.198   0.935 -0.4086  0.2502  0.9804
 9449TIP3    H128290   8.057   2.127   0.995 -0.0141  0.7005  1.3929
 9449TIP3    H228291   7.952   2.174   0.897  0.4449 -1.2199 -0.0909
 9450TIP3   OH228292   8.218   4.367   3.068 -0.5876  0.1155 -0.3831
 9450TIP3    H128293   8.232   4.278   3.037 -0.8156 -0.7265  1.7852
 9450TIP3    H228294   8.130   4.366   3.105 -0.0614  0.8363  0.9575
 9451TIP3   OH228295   2.265   3.810   1.683 -0.0226 -0.0250  0.0763
 9451TIP3    H128296   2.322   3.862   1.739 -1.9537 -0.1275  2.2713
 9451TIP3    H228297   2.298   3.826   1.594  0.8530  3.1446  0.8529
 9452TIP3   OH228298   1.302   5.206   0.698  0.2636  0.3873  0.3134
 9452TIP3    H128299   1.343   5.144   0.758 -2.1066 -1.7266 -0.0465
 9452TIP3    H228300   1.211   5.212   0.728 -1.1086 -0.9318 -2.9961
 9453TIP3   OH228301   4.435   3.301   1.737  0.0954 -0.2061  0.3195
 9453TIP3    H128302   4.343   3.299   1.761 -0.2308  0.6104 -0.7556
 9453TIP3    H228303   4.477   3.353   1.805 -0.6329  1.2696 -0.3239
 9454TIP3   OH228304   3.322   6.422   2.923  0.3626 -0.2789 -1.1020
 9454TIP3    H128305   3.261   6.363   2.966  0.4097 -2.1178 -3.3815
 9454TIP3    H228306   3.269   6.469   2.858  0.9726 -0.4591 -1.7465
 9455TIP3   OH228307   4.190   1.854   1.285  0.3515  0.3770  0.7574
 9455TIP3    H128308   4.240   1.935   1.271  0.1592  0.4969  0.7560
 9455TIP3    H228309   4.162   1.859   1.376  2.2613 -0.7769  1.4587
 9456TIP3   OH228310   6.574   5.291   4.764  0.3871  0.0410  0.2538
 9456TIP3    H128311   6.660   5.303   4.725 -0.7925  1.4999 -2.1858
 9456TIP3    H228312   6.575   5.345   4.843  1.1353  1.6303 -0.7901
 9457TIP3   OH228313   3.586   3.773   1.455 -0.5103  0.3007 -0.5370
 9457TIP3    H128314   3.542   3.740   1.533  0.4362  1.9262  0.7550
 9457TIP3    H228315   3.650   3.706   1.433 -2.5298 -1.4033 -1.5665
 9458TIP3   OH228316   7.195   0.673   3.454  0.6810 -0.0371 -0.2531
 9458TIP3    H128317   7.180   0.595   3.402 -0.0663 -0.8829  1.1714
 9458TIP3    H228318   7.285   0.666   3.484  0.0993 -1.3571  1.3784
 9459TIP3   OH228319   7.068   0.712   6.502 -0.0915 -0.4356  0.1100
 9459TIP3    H128320   7.031   0.766   6.433  1.8140  1.1562  0.2664
 9459TIP3    H228321   7.076   0.625   6.463  0.0510  0.2196 -1.3524
 9460TIP3   OH228322   4.345   5.290   1.468 -0.5767 -0.9269 -0.1978
 9460TIP3    H128323   4.368   5.260   1.380  0.3390 -2.2525  0.4617
 9460TIP3    H228324   4.407   5.360   1.486 -0.6099 -0.8126 -0.5186
 9461TIP3   OH228325   0.951   2.934   2.133 -0.2541  0.3971 -0.6497
 9461TIP3    H128326   0.881   2.989   2.096  0.8155  0.7762 -2.2431
 9461TIP3    H228327   1.001   2.906   2.056  0.1068 -1.6249  0.2688
 9462TIP3   OH228328   0.686   0.572   3.182 -0.3342  0.5000  0.0363
 9462TIP3    H128329   0.598   0.555   3.148 -0.0752 -1.4156  0.2072
 9462TIP3    H228330   0.679   0.658   3.224 -1.9696  0.6409 -0.4438
 9463TIP3   OH228331   5.810   4.258   5.603 -0.3113 -0.3850 -0.6759
 9463TIP3    H128332   5.738   4.200   5.630 -0.9944  0.7631  0.0849
 9463TIP3    H228333   5.846   4.217   5.525 -1.4807 -1.2632 -0.7868
 9464TIP3   OH228334   1.116   4.947   0.153  0.0329  0.2904  0.3970
 9464TIP3    H128335   1.035   4.921   0.198 -0.2579  0.7463  0.1429
 9464TIP3    H228336   1.093   5.028   0.109  0.4658  0.1157 -0.1506
 9465TIP3   OH228337   3.683   5.433   1.867 -0.2099  0.1607 -0.8387
 9465TIP3    H128338   3.657   5.511   1.915 -0.4441 -0.9584  0.9498
 9465TIP3    H228339   3.603   5.402   1.826 -0.3740  0.2181 -0.5659
 9466TIP3   OH228340   1.930   0.604   5.854 -0.3328  0.1688 -0.1503
 9466TIP3    H128341   2.007   0.551   5.873  0.8872  1.4535 -1.3117
 9466TIP3    H228342   1.859   0.541   5.846  0.4467 -0.9963  1.5407
 9467TIP3   OH228343   0.824   6.715   2.275  0.1981 -0.4075  0.5265
 9467TIP3    H128344   0.741   6.759   2.295 -0.9799 -2.4924  0.5599
 9467TIP3    H228345   0.836   6.728   2.181 -1.3728 -1.8916  0.0618
 9468TIP3   OH228346   2.184   0.903   6.296  0.3997 -0.1668  0.3958
 9468TIP3    H128347   2.270   0.861   6.300  0.1500 -0.9403 -1.3713
 9468TIP3    H228348   2.123   0.830   6.281 -0.1693  0.6664 -1.6247
 9469TIP3   OH228349   2.124   1.498   3.873  0.5327 -1.0839  0.3104
 9469TIP3    H128350   2.185   1.547   3.819 -0.6500  0.0590 -0.0281
 9469TIP3    H228351   2.180   1.448   3.933  1.8290 -1.5887 -1.2694
 9470TIP3   OH228352   2.021   1.188   5.034 -0.1283  0.0703  0.2065
 9470TIP3    H128353   2.060   1.124   5.094 -0.6323 -0.1480  0.3129
 9470TIP3    H228354   1.993   1.260   5.091  2.2732  1.3707 -0.1253
 9471TIP3   OH228355   1.672   4.533   5.137 -0.0615 -1.0459 -0.6230
 9471TIP3    H128356   1.644   4.596   5.070 -0.7707 -0.4263  0.2387
 9471TIP3    H228357   1.758   4.503   5.107 -0.1734 -0.4563 -1.5810
 9472TIP3   OH228358   0.855   3.419   2.632  0.2664 -0.3913  0.2411
 9472TIP3    H128359   0.886   3.407   2.722  1.1246 -0.1220 -0.0078
 9472TIP3    H228360   0.921   3.375   2.578 -1.3647 -2.4588 -0.1649
 9473TIP3   OH228361   4.349   1.110   6.244 -0.0111 -0.0629 -0.3365
 9473TIP3    H128362   4.276   1.051   6.227 -0.6157  1.0305 -1.7003
 9473TIP3    H228363   4.310   1.198   6.246  1.1177  0.4565 -0.0988
 9474TIP3   OH228364   2.710   4.505   6.227 -0.1983 -0.9487 -0.0391
 9474TIP3    H128365   2.678   4.465   6.146 -0.0219  2.0658 -1.7527
 9474TIP3    H228366   2.650   4.579   6.243  0.0232 -1.2116  2.3888
 9475TIP3   OH228367   7.347   2.748   1.126 -0.0289 -0.0983 -0.2641
 9475TIP3    H128368   7.264   2.772   1.085  0.0980  0.4925 -0.1977
 9475TIP3    H228369   7.409   2.814   1.093 -0.0135  0.6362  1.1538
 9476TIP3   OH228370   7.038   4.889   6.565 -0.1146  0.2358  0.0700
 9476TIP3    H128371   7.100   4.959   6.547  2.9285 -1.9545  1.1970
 9476TIP3    H228372   7.052   4.825   6.495  0.7831 -1.4129  1.6804
 9477TIP3   OH228373   0.677   0.803   5.536  0.1604 -0.2731 -0.5730
 9477TIP3    H128374   0.626   0.728   5.505  1.6649 -0.5628 -2.5183
 9477TIP3    H228375   0.647   0.876   5.482  0.3053  0.0330 -0.2482
 9478TIP3   OH228376   6.093   5.849   4.297  0.6766 -0.5373  0.5042
 9478TIP3    H128377   6.078   5.866   4.391  0.0254 -1.6965  0.6346
 9478TIP3    H228378   6.177   5.803   4.294  1.1381  0.3021  0.4208
 9479TIP3   OH228379   5.534   1.621   1.589  0.2267  0.1937  0.0454
 9479TIP3    H128380   5.618   1.652   1.622  0.2083  1.0918 -0.6967
 9479TIP3    H228381   5.557   1.574   1.508  0.1298 -0.6347  0.4976
 9480TIP3   OH228382   6.598   6.962   1.014  0.4709  0.0346  0.1246
 9480TIP3    H128383   6.652   6.955   1.093 -0.1656  0.1199  0.5738
 9480TIP3    H228384   6.657   6.939   0.943  0.5769 -1.9110  0.7874
 9481TIP3   OH228385   5.934   3.899   2.067  0.9059  0.5774  0.4461
 9481TIP3    H128386   6.029   3.898   2.073  0.9756  0.7135 -0.4010
 9481TIP3    H228387   5.910   3.808   2.050  0.8751  0.5242  0.7734
 9482TIP3   OH228388   3.690   2.120   4.338  0.2556 -0.3789 -0.2248
 9482TIP3    H128389   3.715   2.109   4.246  0.5923  0.2521 -0.2144
 9482TIP3    H228390   3.732   2.046   4.383  2.0525  0.5836 -0.2267
 9483TIP3   OH228391   3.174   1.139   0.390 -0.3481  0.2074  0.1020
 9483TIP3    H128392   3.133   1.206   0.335  0.7779  1.0355  0.2374
 9483TIP3    H228393   3.247   1.106   0.337  0.0604  0.2182  0.6520
 9484TIP3   OH228394   2.097   5.446   0.164 -0.6677 -0.2604  0.1321
 9484TIP3    H128395   2.102   5.354   0.140 -0.3204 -0.2314  0.0927
 9484TIP3    H228396   2.086   5.492   0.080 -0.7267 -0.2576  0.1413
 9485TIP3   OH228397   1.204   6.814   2.292  0.0181  0.6690  0.1148
 9485TIP3    H128398   1.200   6.909   2.298  0.8768  0.7814 -0.9165
 9485TIP3    H228399   1.253   6.796   2.212  3.4146 -0.6096  2.2684
 9486TIP3   OH228400   6.823   1.721   1.373  0.0335 -0.2096  0.5673
 9486TIP3    H128401   6.801   1.680   1.290  0.5305  3.5462 -1.6698
 9486TIP3    H228402   6.916   1.703   1.385  0.2730  0.2645 -0.4423
 9487TIP3   OH228403   2.238   2.930   1.469 -0.0935  0.4770 -0.3587
 9487TIP3    H128404   2.279   2.989   1.532  0.0969  1.6701 -1.5654
 9487TIP3    H228405   2.153   2.908   1.509  0.5982  0.0698  0.9403
 9488TIP3   OH228406   3.918   4.065   5.211  0.0129  0.0762 -0.3583
 9488TIP3    H128407   3.884   4.133   5.153 -1.7626  1.3947  2.0483
 9488TIP3    H228408   3.971   4.112   5.275  1.5001 -1.2673 -0.5550
 9489TIP3   OH228409   1.951   3.744   0.383  0.5121  0.1567  0.1214
 9489TIP3    H128410   2.016   3.692   0.336  1.5660  1.4753  0.0742
 9489TIP3    H228411   2.002   3.807   0.434 -0.6873  0.2720  1.2337
 9490TIP3   OH228412   2.965   6.028   3.494 -0.0844  0.0393 -0.4375
 9490TIP3    H128413   2.880   6.072   3.504 -0.1720 -0.5020  1.6296
 9490TIP3    H228414   2.995   6.014   3.583  1.4716 -1.1955 -1.1147
 9491TIP3   OH228415   2.653   3.842   3.290  0.0910 -0.6264  0.3691
 9491TIP3    H128416   2.632   3.781   3.361  1.4775 -0.8873  0.5818
 9491TIP3    H228417   2.669   3.926   3.334  0.4525 -0.6641  0.3098
 9492TIP3   OH228418   7.013   7.520   1.797  0.6110  0.0711  0.1677
 9492TIP3    H128419   6.993   7.560   1.882 -2.0429 -0.2842 -0.1930
 9492TIP3    H228420   7.009   7.594   1.735  0.4531  0.0122  0.1061
 9493TIP3   OH228421   4.280   4.934   6.756  0.3582  0.2750 -0.2400
 9493TIP3    H128422   4.373   4.959   6.755  1.2679 -2.7223 -1.4801
 9493TIP3    H228423   4.265   4.897   6.669 -2.0404  0.6830 -0.0489
 9494TIP3   OH228424   4.981   6.282   5.941 -0.3320  0.4138 -0.1432
 9494TIP3    H128425   4.896   6.248   5.915 -0.0597  0.6406 -1.3713
 9494TIP3    H228426   4.965   6.323   6.026 -1.6448  1.2424 -0.7635
 9495TIP3   OH228427   2.258   0.456   3.863 -0.4348  0.6491 -0.2298
 9495TIP3    H128428   2.229   0.384   3.919  0.4768 -0.6869 -1.3961
 9495TIP3    H228429   2.345   0.478   3.895 -0.1949  0.3508 -0.6593
 9496TIP3   OH228430   3.640   3.866   0.606  1.0384 -0.2308  0.0026
 9496TIP3    H128431   3.723   3.911   0.620  0.9522  0.3918 -1.3538
 9496TIP3    H228432   3.664   3.777   0.583  1.2191 -0.8501  2.3536
 9497TIP3   OH228433   3.353   4.458   1.480  0.1499  0.0298 -0.1804
 9497TIP3    H128434   3.343   4.369   1.515  1.4802 -0.6407 -1.3826
 9497TIP3    H228435   3.399   4.506   1.549 -1.4447  0.1083  0.8871
 9498TIP3   OH228436   7.862   3.021   4.488  0.5114  0.4614 -0.6640
 9498TIP3    H128437   7.836   3.035   4.579 -0.2677 -2.4157 -0.3636
 9498TIP3    H228438   7.935   2.959   4.492 -0.0882 -0.3960 -2.0089
 9499TIP3   OH228439   0.809   4.175   2.300  0.6244 -0.0929  0.1375
 9499TIP3    H128440   0.825   4.083   2.321  1.0668 -0.0784 -0.1235
 9499TIP3    H228441   0.721   4.176   2.262  0.6949 -0.4355 -0.0363
 9500TIP3   OH228442   7.110   3.687   5.581  0.0006  0.0062 -0.0915
 9500TIP3    H128443   7.194   3.704   5.624 -0.1350 -0.0101  0.1828
 9500TIP3    H228444   7.093   3.767   5.532 -0.2167  0.3359  0.5070
 9501TIP3   OH228445   4.033   6.478   3.162  0.1801 -0.1444  0.0210
 9501TIP3    H128446   4.022   6.407   3.225 -0.1585 -0.3633 -0.2813
 9501TIP3    H228447   3.964   6.464   3.097 -0.4578  0.9562  0.4274
 9502TIP3   OH228448   1.761   7.525   2.293  0.7573  0.6234  0.3120
 9502TIP3    H128449   1.830   7.459   2.293  0.1082 -0.0691  0.4492
 9502TIP3    H228450   1.745   7.542   2.200  1.8640  1.6120  0.2750
 9503TIP3   OH228451   6.569   7.767   0.126 -0.5722 -0.0075 -0.3909
 9503TIP3    H128452   6.506   7.719   0.180 -0.6249  0.3375 -0.1421
 9503TIP3    H228453   6.592   7.843   0.179 -0.2664  0.0882 -0.6606
 9504TIP3   OH228454   1.197   1.678   4.765  0.3554 -0.5842 -0.2632
 9504TIP3    H128455   1.237   1.748   4.817  2.0507 -0.1026 -2.0685
 9504TIP3    H228456   1.269   1.643   4.713 -1.0199 -1.8253 -1.4244
 9505TIP3   OH228457   3.328   3.182   1.805  0.0747 -0.2275 -0.0946
 9505TIP3    H128458   3.248   3.182   1.753 -0.5443 -0.8443  0.7987
 9505TIP3    H228459   3.333   3.092   1.839 -1.0841  0.7788  3.1054
 9506TIP3   OH228460   3.022   2.407   4.600  0.4110  0.2602 -0.1769
 9506TIP3    H128461   3.117   2.406   4.589  0.5478  1.6756  0.6654
 9506TIP3    H228462   3.008   2.377   4.690  0.2592  2.5609  0.6149
 9507TIP3   OH228463   5.399   4.647   5.068 -0.1792  0.5476  0.3003
 9507TIP3    H128464   5.445   4.621   4.988 -2.3462 -0.4463 -0.7333
 9507TIP3    H228465   5.449   4.608   5.139  0.2426 -1.0040 -0.8022
 9508TIP3   OH228466   1.788   5.110   6.044 -0.2748 -0.1017 -0.4024
 9508TIP3    H128467   1.766   5.203   6.044  0.8064  0.1662 -0.5013
 9508TIP3    H228468   1.716   5.068   5.996 -0.9374  0.6339 -0.0704
 9509TIP3   OH228469   7.603   1.079   3.004 -0.1162 -0.8954 -0.1737
 9509TIP3    H128470   7.676   1.064   3.063 -0.2738 -0.5981  0.0962
 9509TIP3    H228471   7.624   1.025   2.927  0.0477 -1.3475  0.1782
 9510TIP3   OH228472   2.401   5.148   1.351 -0.0382 -0.3808  0.5468
 9510TIP3    H128473   2.454   5.108   1.420  1.4340 -0.6936 -0.7174
 9510TIP3    H228474   2.429   5.240   1.351 -1.7051  0.1877  1.8534
 9511TIP3   OH228475   7.925   7.629   2.916  0.0810 -0.3629  0.4376
 9511TIP3    H128476   7.915   7.622   2.821  0.6616 -1.9499  0.4678
 9511TIP3    H228477   8.007   7.585   2.935 -0.7125 -1.3207  1.8236
 9512TIP3   OH228478   1.099   6.844   5.513 -0.2522  0.4525  0.6248
 9512TIP3    H128479   1.143   6.873   5.593 -0.6209  1.7016  0.4047
 9512TIP3    H228480   1.089   6.924   5.462 -1.1586 -0.1170 -0.1135
 9513TIP3   OH228481   0.305   6.596   5.555  0.2225  0.3643 -0.2330
 9513TIP3    H128482   0.289   6.670   5.498  0.5614  1.4522  1.0381
 9513TIP3    H228483   0.292   6.519   5.499  0.0430  1.3683 -1.6147
 9514TIP3   OH228484   6.143   6.972   6.530 -0.7959 -0.0930  0.8606
 9514TIP3    H128485   6.147   7.059   6.570 -0.3689  0.5648 -0.5466
 9514TIP3    H228486   6.122   6.913   6.603  0.1606  1.0091  2.0798
 9515TIP3   OH228487   0.503   0.406   1.464 -0.1947  0.0129  0.4671
 9515TIP3    H128488   0.464   0.337   1.518  0.6576 -0.1824  0.8499
 9515TIP3    H228489   0.504   0.369   1.375 -1.0729  0.1104  0.4036
 9516TIP3   OH228490   0.769   5.608   3.904  0.6776 -0.3435  0.2818
 9516TIP3    H128491   0.776   5.633   3.996 -1.4851 -0.9234  0.6428
 9516TIP3    H228492   0.811   5.521   3.900 -1.3238 -1.4199  1.2775
 9517TIP3   OH228493   6.709   0.432   6.536 -0.0284  0.7260 -0.0596
 9517TIP3    H128494   6.732   0.472   6.452  0.4058 -2.0381 -1.3600
 9517TIP3    H228495   6.784   0.377   6.558 -1.1312 -0.4614  0.8823
 9518TIP3   OH228496   0.543   4.224   2.212 -0.3003 -0.0388  0.6597
 9518TIP3    H128497   0.458   4.267   2.202 -0.3151 -0.0435  0.7688
 9518TIP3    H228498   0.576   4.215   2.122 -1.6954 -2.6111  0.3164
 9519TIP3   OH228499   2.912   6.290   5.107 -0.3786  0.5013 -0.1522
 9519TIP3    H128500   2.943   6.363   5.160 -0.2099 -0.5964  1.3116
 9519TIP3    H228501   2.931   6.316   5.017 -1.3585  2.7307  0.2318
 9520TIP3   OH228502   6.754   3.119   6.381 -0.0561 -0.6113  0.0120
 9520TIP3    H128503   6.786   3.030   6.399  1.0215 -0.5973 -1.5777
 9520TIP3    H228504   6.683   3.106   6.319 -2.2960 -0.5315  2.4068
 9521TIP3   OH228505   8.014   3.619   4.351  0.4186  0.1686  0.3959
 9521TIP3    H128506   8.038   3.616   4.258 -1.0523  0.3839 -0.0118
 9521TIP3    H228507   7.924   3.652   4.352  0.8508  1.4116  1.9933
 9522TIP3   OH228508   0.622   5.826   3.790  0.0766  0.4027 -0.4654
 9522TIP3    H128509   0.601   5.795   3.702 -0.7673 -0.8929  0.1634
 9522TIP3    H228510   0.673   5.754   3.828  1.3184  1.3730 -0.2132
 9523TIP3   OH228511   5.182   6.669   6.686 -0.3079 -0.1382 -0.4129
 9523TIP3    H128512   5.173   6.574   6.694 -0.5781 -0.0208  0.9495
 9523TIP3    H228513   5.270   6.687   6.719 -0.0899  0.0443 -1.0892
 9524TIP3   OH228514   0.605   3.580   3.076  0.0104  0.4009  0.3548
 9524TIP3    H128515   0.595   3.494   3.036  0.8524  0.0620  0.8292
 9524TIP3    H228516   0.639   3.636   3.006 -3.1414  1.1097 -0.7515
 9525TIP3   OH228517   5.929   6.459   3.204 -0.0402  0.4664  0.1621
 9525TIP3    H128518   5.889   6.500   3.127 -0.7802  0.7713  0.6956
 9525TIP3    H228519   6.022   6.480   3.197 -0.4159  2.4016  0.5203
 9526TIP3   OH228520   4.877   5.896   3.431 -0.3659 -0.1771 -0.5806
 9526TIP3    H128521   4.930   5.836   3.378 -0.6662  1.5424 -2.9931
 9526TIP3    H228522   4.864   5.849   3.513  1.6292 -2.2731 -1.3278
 9527TIP3   OH228523   4.144   5.752   4.686 -0.2823  0.3972 -0.0608
 9527TIP3    H128524   4.063   5.765   4.636 -1.7597 -0.9757  1.8144
 9527TIP3    H228525   4.183   5.840   4.691 -1.2500  0.9643 -1.6124
 9528TIP3   OH228526   3.338   7.511   0.191 -1.1052 -0.0919 -0.0119
 9528TIP3    H128527   3.274   7.455   0.234  0.3408  0.7683  3.6520
 9528TIP3    H228528   3.307   7.600   0.207  0.1458  0.2882  0.4045
 9529TIP3   OH228529   4.076   2.077   6.488  0.1036 -0.3787  0.1979
 9529TIP3    H128530   4.110   2.090   6.577 -0.1181 -0.6113  0.3140
 9529TIP3    H228531   3.981   2.084   6.497  0.0620 -0.7122  0.0329
 9530TIP3   OH228532   1.734   1.241   5.532 -0.1223  0.0217 -0.1660
 9530TIP3    H128533   1.741   1.213   5.624  1.5311 -1.9588 -0.8263
 9530TIP3    H228534   1.650   1.208   5.503  0.4135 -1.5383 -0.0101
 9531TIP3   OH228535   1.282   6.421   4.813 -0.3497  0.8076  0.2654
 9531TIP3    H128536   1.221   6.347   4.806 -2.9366  2.8671 -0.6054
 9531TIP3    H228537   1.295   6.450   4.723  2.0524  0.4234  0.4191
 9532TIP3   OH228538   5.664   7.028   4.020 -0.0520 -0.0287  0.1484
 9532TIP3    H128539   5.587   7.020   3.963 -0.0855  0.5127  0.1115
 9532TIP3    H228540   5.628   7.056   4.104 -0.0489 -1.2495  0.5710
 9533TIP3   OH228541   3.444   4.948   0.982  0.4707 -0.4212  0.9244
 9533TIP3    H128542   3.383   4.881   0.951  0.3118  0.3215 -0.4302
 9533TIP3    H228543   3.528   4.923   0.944  0.8078 -0.8554  1.9280
 9534TIP3   OH228544   2.505   2.694   3.372 -0.3114  0.3308 -0.1971
 9534TIP3    H128545   2.487   2.602   3.349 -0.1992  0.3035 -0.1806
 9534TIP3    H228546   2.601   2.697   3.380 -0.3768  0.2336  0.7293
 9535TIP3   OH228547   2.826   2.440   5.548 -0.3071  0.2293 -0.1650
 9535TIP3    H128548   2.811   2.347   5.569 -0.9070  0.3898  0.1458
 9535TIP3    H228549   2.790   2.487   5.623  2.6842  0.6392  1.1751
 9536TIP3   OH228550   0.631   3.625   3.788  0.0079 -0.4732  0.1732
 9536TIP3    H128551   0.544   3.656   3.813  1.0407  1.9027  1.1230
 9536TIP3    H228552   0.619   3.587   3.701 -1.9368 -0.0734  0.2216
 9537TIP3   OH228553   3.028   6.591   6.569  0.1319  0.4238  0.2830
 9537TIP3    H128554   2.987   6.650   6.632 -0.2306 -0.7352  1.1580
 9537TIP3    H228555   2.961   6.526   6.548  0.6253  0.1171 -0.4037
 9538TIP3   OH228556   5.659   7.031   0.384 -0.4805 -0.2772 -0.4436
 9538TIP3    H128557   5.692   6.983   0.460 -0.4507  1.1265  0.4485
 9538TIP3    H228558   5.717   7.005   0.313  0.9678  0.1722  0.5341
 9539TIP3   OH228559   5.770   3.783   0.810  0.0029 -0.7367 -0.5938
 9539TIP3    H128560   5.697   3.793   0.871  0.2233 -2.8864  0.1107
 9539TIP3    H228561   5.728   3.774   0.724 -0.3806  0.8046 -0.5981
 9540TIP3   OH228562   0.176   6.329   0.372  0.4205 -0.1058  0.4954
 9540TIP3    H128563   0.197   6.415   0.409 -0.7008  1.1158 -1.5740
 9540TIP3    H228564   0.081   6.323   0.378  0.2092  0.0844 -1.9740
 9541TIP3   OH228565   6.737   3.907   3.967 -0.0920  0.9140  0.0598
 9541TIP3    H128566   6.818   3.908   4.018 -0.4549  0.4356  0.6586
 9541TIP3    H228567   6.669   3.934   4.028 -0.2016  2.7785 -0.8236
 9542TIP3   OH228568   0.317   0.325   0.705  0.4291 -0.8560 -1.0100
 9542TIP3    H128569   0.287   0.412   0.682 -0.5485 -0.8877  0.0678
 9542TIP3    H228570   0.282   0.268   0.637 -2.7053 -0.9976  0.5530
 9543TIP3   OH228571   1.964   1.556   4.108 -0.2285 -0.6215 -0.5604
 9543TIP3    H128572   1.996   1.519   4.025 -0.6441 -1.5332 -0.3297
 9543TIP3    H228573   2.043   1.586   4.153  0.0615 -0.6985 -1.0129
 9544TIP3   OH228574   4.913   4.275   0.152  0.2918 -0.9484 -0.1947
 9544TIP3    H128575   4.886   4.194   0.109 -0.7983 -1.2278  0.9451
 9544TIP3    H228576   5.000   4.256   0.188 -0.8990 -2.4999  2.1316
 9545TIP3   OH228577   1.968   7.248   0.298 -0.3171  0.2481 -0.4815
 9545TIP3    H128578   1.887   7.251   0.247  0.1651 -1.2288 -1.3824
 9545TIP3    H228579   1.939   7.259   0.388 -1.5675 -0.4049 -0.7728
 9546TIP3   OH228580   7.738   7.628   5.662 -0.2434 -0.4574 -0.1249
 9546TIP3    H128581   7.823   7.642   5.702  0.1424 -1.8075 -0.4193
 9546TIP3    H228582   7.744   7.542   5.621 -1.2024  0.1274 -1.5863
 9547TIP3   OH228583   5.511   1.630   3.470 -0.3272 -0.2878  0.2288
 9547TIP3    H128584   5.570   1.632   3.545 -0.9609 -2.5328  0.8625
 9547TIP3    H228585   5.458   1.551   3.483 -2.3435  0.7336 -1.1738
 9548TIP3   OH228586   1.254   5.339   2.802  0.0595  0.2602 -0.1930
 9548TIP3    H128587   1.191   5.317   2.871  0.5741  0.8388  0.4764
 9548TIP3    H228588   1.332   5.286   2.823  0.8605  1.7304  0.7187
 9549TIP3   OH228589   8.058   3.891   4.885  0.2565  0.0640  0.5839
 9549TIP3    H128590   8.036   3.890   4.979  2.2782  1.3071  1.1200
 9549TIP3    H228591   8.140   3.842   4.879  0.8173  1.0675 -0.3295
 9550TIP3   OH228592   1.176   3.788   5.603 -0.3618  0.2902  0.0076
 9550TIP3    H128593   1.122   3.866   5.616  1.8735  2.3308 -1.9169
 9550TIP3    H228594   1.179   3.775   5.508  2.7087  0.5330 -0.0303
 9551TIP3   OH228595   2.383   1.260   0.540 -0.0095 -0.2803  0.4150
 9551TIP3    H128596   2.389   1.350   0.571  0.9197  0.0102 -0.5599
 9551TIP3    H228597   2.467   1.242   0.500 -1.0998 -0.6268 -1.8974
 9552TIP3   OH228598   8.206   5.651   6.051 -0.0690 -0.1080  0.1436
 9552TIP3    H128599   8.252   5.698   6.120 -0.4166  0.3965  0.0400
 9552TIP3    H228600   8.251   5.676   5.970 -1.1320  1.1904 -0.0745
 9553TIP3   OH228601   5.442   2.175   6.064  0.1882 -0.0448 -0.4244
 9553TIP3    H128602   5.359   2.150   6.103 -0.4094  1.9352 -0.3199
 9553TIP3    H228603   5.490   2.093   6.055 -1.5420 -1.1570  0.0318
 9554TIP3   OH228604   3.007   2.407   5.884 -0.2974  0.3371  0.1278
 9554TIP3    H128605   2.928   2.439   5.928 -0.3995  1.0590 -0.5510
 9554TIP3    H228606   3.013   2.315   5.909 -1.5527  0.1825 -0.0860
 9555TIP3   OH228607   0.984   1.395   1.885  0.1642  0.3707  0.1665
 9555TIP3    H128608   0.999   1.471   1.828  0.1012 -0.4219 -0.9601
 9555TIP3    H228609   1.065   1.388   1.936  1.2353 -0.2337 -1.4892
 9556TIP3   OH228610   3.479   4.631   1.324  0.0431  0.4700  0.2271
 9556TIP3    H128611   3.513   4.644   1.413  0.8568 -1.9080  0.3366
 9556TIP3    H228612   3.400   4.578   1.336 -1.7437  2.7912 -0.3214
 9557TIP3   OH228613   3.919   7.407   3.059  0.7698 -0.4212  0.7496
 9557TIP3    H128614   3.993   7.351   3.083  1.0804 -0.6378 -0.6557
 9557TIP3    H228615   3.844   7.368   3.104  1.6123  0.3292  2.9424
 9558TIP3   OH228616   0.306   1.015   6.448  1.0511  0.3106 -0.1067
 9558TIP3    H128617   0.285   1.089   6.505  1.1974  0.4556 -0.2398
 9558TIP3    H228618   0.296   1.050   6.359 -0.5876 -0.3058 -0.1979
 9559TIP3   OH228619   4.763   5.011   0.510  0.0583 -0.2958 -0.4560
 9559TIP3    H128620   4.774   5.079   0.577 -0.0046  0.8876 -1.5938
 9559TIP3    H228621   4.696   5.047   0.451  0.8574 -0.8101 -1.7282
 9560TIP3   OH228622   2.598   1.968   2.236 -0.2795  0.1741  0.0877
 9560TIP3    H128623   2.517   1.968   2.185 -2.0292 -1.2583  2.6485
 9560TIP3    H228624   2.649   1.896   2.200 -0.3753  0.6796 -1.1274
 9561TIP3   OH228625   5.344   7.798   2.518  0.1195 -0.7778 -0.4974
 9561TIP3    H128626   5.271   7.752   2.560 -0.2343 -2.2370 -2.6116
 9561TIP3    H228627   5.422   7.762   2.560 -0.2797 -0.3042  0.7116
 9562TIP3   OH228628   4.214   7.146   5.607  0.5435 -0.2914 -0.0355
 9562TIP3    H128629   4.128   7.126   5.644  0.0414  1.5180 -0.1383
 9562TIP3    H228630   4.276   7.107   5.668 -0.3172  0.9316  1.6938
 9563TIP3   OH228631   4.351   2.874   6.062  0.2806  0.1376  0.1656
 9563TIP3    H128632   4.368   2.884   6.156  0.6577  1.0510  0.0145
 9563TIP3    H228633   4.365   2.961   6.026  0.2322 -0.2246 -0.7587
 9564TIP3   OH228634   2.378   7.167   5.650  0.2277 -0.0865  0.2914
 9564TIP3    H128635   2.393   7.225   5.724 -2.4232  0.4575  0.5047
 9564TIP3    H228636   2.331   7.092   5.687  0.7547 -0.8288 -0.5001
 9565TIP3   OH228637   7.446   4.898   1.514 -0.1719  0.3701  0.1586
 9565TIP3    H128638   7.513   4.846   1.468  0.8586  1.2385  0.6453
 9565TIP3    H228639   7.390   4.833   1.556 -1.1421 -0.4806 -2.2392
 9566TIP3   OH228640   6.165   5.218   2.393  0.1333 -0.6383  0.4480
 9566TIP3    H128641   6.158   5.132   2.351 -0.1212  0.5510 -2.1808
 9566TIP3    H228642   6.229   5.265   2.340  0.4610  0.7429  1.9813
 9567TIP3   OH228643   3.287   3.432   2.351 -0.0355  0.3961  0.0351
 9567TIP3    H128644   3.364   3.377   2.336 -0.2973 -0.6273  2.1601
 9567TIP3    H228645   3.240   3.431   2.268  2.6588  1.7997 -1.6478
 9568TIP3   OH228646   2.308   0.043   5.080  0.1857  0.4960  0.1055
 9568TIP3    H128647   2.380   0.058   5.141  0.4994 -0.1390 -0.0985
 9568TIP3    H228648   2.330  -0.040   5.037  0.1871  1.1313 -1.1689
 9569TIP3   OH228649   6.885   0.742   2.291 -0.3351 -0.0044  0.2118
 9569TIP3    H128650   6.974   0.707   2.302  0.4007  1.6819 -0.1294
 9569TIP3    H228651   6.848   0.741   2.379  0.5238  0.5633  0.5881
 9570TIP3   OH228652   5.224   6.545   5.354 -0.3307 -0.2374  0.0482
 9570TIP3    H128653   5.193   6.481   5.419  0.7432 -0.1942  0.6090
 9570TIP3    H228654   5.233   6.627   5.402 -2.0360  0.4694 -0.7421
 9571TIP3   OH228655   3.549   7.825   6.515  0.4271  0.3708 -0.2454
 9571TIP3    H128656   3.563   7.731   6.501 -0.4697  0.3976 -1.5181
 9571TIP3    H228657   3.465   7.831   6.560  1.1019  0.5242  1.0353
 9572TIP3   OH228658   3.809   2.497   6.317  0.5737 -0.8832 -0.1658
 9572TIP3    H128659   3.812   2.411   6.360  0.2597 -0.9392 -0.2529
 9572TIP3    H228660   3.832   2.559   6.386 -0.3599 -0.9317  0.1977
 9573TIP3   OH228661   5.808   1.578   1.434 -0.3569  0.0981 -0.1899
 9573TIP3    H128662   5.893   1.571   1.391  1.4014 -1.3084  3.0966
 9573TIP3    H228663   5.829   1.609   1.523 -3.2346 -0.5256  0.8199
 9574TIP3   OH228664   0.834   1.348   0.181 -0.2831 -0.4184 -0.7053
 9574TIP3    H128665   0.855   1.290   0.107  1.2550  0.0855 -0.6915
 9574TIP3    H228666   0.909   1.407   0.188 -0.4887 -0.3075  1.1308
 9575TIP3   OH228667   5.480   4.023   6.604 -0.4849  0.5048  0.0067
 9575TIP3    H128668   5.450   3.936   6.576 -0.9164  0.4256  0.7124
 9575TIP3    H228669   5.554   4.004   6.662 -1.5505  0.5271  1.4145
 9576TIP3   OH228670   6.610   0.658   3.395  0.1504 -0.0939  0.4997
 9576TIP3    H128671   6.599   0.563   3.387 -0.2241 -0.4804  3.8771
 9576TIP3    H228672   6.697   0.669   3.434 -0.2107  0.8405  1.0871
 9577TIP3   OH228673   2.477   7.613   1.043  0.0386  0.2174  0.0806
 9577TIP3    H128674   2.501   7.704   1.024 -0.7428  0.2960 -0.5556
 9577TIP3    H228675   2.448   7.614   1.134  0.9649  0.4126  0.3831
 9578TIP3   OH228676   5.506   0.838   0.620 -0.7178  0.1778  0.2706
 9578TIP3    H128677   5.597   0.810   0.630 -0.4185  1.6895  2.4227
 9578TIP3    H228678   5.455   0.772   0.668 -0.8244 -0.7423 -1.0457
 9579TIP3   OH228679   5.662   2.563   0.870  0.2441 -0.6990 -0.2236
 9579TIP3    H128680   5.634   2.606   0.951  1.9098 -0.2521  0.1616
 9579TIP3    H228681   5.597   2.589   0.805 -0.5216 -0.1801  0.7213
 9580TIP3   OH228682   6.562   3.159   2.290  0.1754 -0.2390 -0.3904
 9580TIP3    H128683   6.535   3.169   2.198 -0.3972  1.2923 -0.0822
 9580TIP3    H228684   6.517   3.081   2.320 -1.4245  0.4841 -0.8068
 9581TIP3   OH228685   4.856   5.295   2.633  0.3631  0.0614 -0.4428
 9581TIP3    H128686   4.859   5.263   2.723  1.1638 -0.7522 -0.7449
 9581TIP3    H228687   4.875   5.388   2.640 -0.2268  0.1363  0.2847
 9582TIP3   OH228688   4.998   4.426   3.423  0.0844  0.5360 -0.0403
 9582TIP3    H128689   5.058   4.386   3.360  0.2106  0.4793  0.1157
 9582TIP3    H228690   4.968   4.352   3.476  0.9986  0.7703  0.8222
 9583TIP3   OH228691   5.647   2.239   1.171 -0.0768 -0.0469  0.2013
 9583TIP3    H128692   5.674   2.232   1.080  1.0679  0.3266  0.4999
 9583TIP3    H228693   5.649   2.149   1.204  1.1937  0.0048  0.3143
 9584TIP3   OH228694   3.570   3.110   5.361  0.0242  0.3669 -0.3557
 9584TIP3    H128695   3.527   3.066   5.288  0.4471  0.7505 -0.8388
 9584TIP3    H228696   3.644   3.053   5.382 -1.4066 -1.0149  1.3535
 9585TIP3   OH228697   6.652   6.839   5.608  0.2018  0.3361 -0.5078
 9585TIP3    H128698   6.642   6.903   5.678  0.1347  0.9353 -1.0507
 9585TIP3    H228699   6.568   6.841   5.562  0.1754 -0.1940 -0.4885
 9586TIP3   OH228700   1.286   7.287   1.282 -0.2463 -0.0945  0.2975
 9586TIP3    H128701   1.329   7.343   1.348  0.3842  0.7339 -0.7760
 9586TIP3    H228702   1.195   7.315   1.282 -0.6623 -1.2891  2.0082
 9587TIP3   OH228703   0.844   6.342   4.980  0.3001 -0.1700  0.0924
 9587TIP3    H128704   0.829   6.429   5.017  1.4561  0.4678 -0.8666
 9587TIP3    H228705   0.927   6.314   5.019  0.9698  0.0447 -1.1412
 9588TIP3   OH228706   0.426   6.199   6.458  0.0231 -0.1702  0.5129
 9588TIP3    H128707   0.488   6.163   6.522 -1.3086  1.2635  2.7561
 9588TIP3    H228708   0.460   6.285   6.436  1.9358 -1.6111 -3.0169
 9589TIP3   OH228709   3.527   3.522   3.294 -0.2485 -0.1383 -0.2633
 9589TIP3    H128710   3.465   3.469   3.343 -0.7633 -0.0587 -0.8251
 9589TIP3    H228711   3.599   3.538   3.356 -0.3202 -1.0618  0.0685
 9590TIP3   OH228712   0.537   1.926   6.120 -1.1075 -0.0710  0.2482
 9590TIP3    H128713   0.496   1.973   6.193  0.1868  1.8915 -0.2174
 9590TIP3    H228714   0.618   1.891   6.156 -0.7933  0.3332 -0.0427
 9591TIP3   OH228715   6.409   2.644   3.542 -0.1971  0.0481  0.0092
 9591TIP3    H128716   6.459   2.655   3.462 -0.3816 -0.1519 -0.1354
 9591TIP3    H228717   6.325   2.686   3.525 -0.1181  0.2919  0.2140
 9592TIP3   OH228718   4.095   3.075   5.043  0.4726  0.2549  0.2764
 9592TIP3    H128719   4.036   3.072   5.119 -0.5168 -2.2510 -0.4833
 9592TIP3    H228720   4.135   3.162   5.046 -1.4726  1.1498  2.1883
 9593TIP3   OH228721   1.787   6.456   5.675 -0.0512  0.3830 -0.0166
 9593TIP3    H128722   1.702   6.465   5.633 -0.6256 -1.2449  0.6939
 9593TIP3    H228723   1.849   6.491   5.612 -1.0843  0.0274 -1.2775
 9594TIP3   OH228724   4.955   5.289   0.162  0.0018  0.6350 -0.4892
 9594TIP3    H128725   5.009   5.367   0.146  0.7791  0.3445  0.5555
 9594TIP3    H228726   4.892   5.288   0.090  0.3299  1.9185 -0.8278
 9595TIP3   OH228727   7.068   5.927   1.956  0.3229 -0.1615 -0.1531
 9595TIP3    H128728   7.061   6.021   1.969 -0.1025 -0.3683  1.3239
 9595TIP3    H228729   7.012   5.908   1.882  0.5149  0.7581 -0.5393
 9596TIP3   OH228730   6.983   6.439   3.658  0.1092  0.0658 -0.0766
 9596TIP3    H128731   7.026   6.376   3.600 -0.2958  0.7967 -1.2113
 9596TIP3    H228732   6.909   6.472   3.607 -1.8515 -1.1161  1.7902
 9597TIP3   OH228733   1.279   1.068   6.117 -0.6209 -0.7488 -0.1066
 9597TIP3    H128734   1.219   1.076   6.043 -0.5803 -1.4358 -0.2147
 9597TIP3    H228735   1.353   1.018   6.083  0.1086  0.2293 -0.0220
 9598TIP3   OH228736   4.240   0.574   4.885 -0.1194  0.3980  0.2533
 9598TIP3    H128737   4.301   0.508   4.917  0.4637  0.7805 -0.0566
 9598TIP3    H228738   4.157   0.551   4.926 -0.2920 -1.3990 -0.9827
 9599TIP3   OH228739   3.453   3.724   3.126  0.1387  0.4100  0.3870
 9599TIP3    H128740   3.471   3.659   3.195 -0.0767  0.9860  1.0004
 9599TIP3    H228741   3.520   3.708   3.060 -0.7425 -1.3500 -0.1362
 9600TIP3   OH228742   0.366   0.898   3.201  0.5159  0.1497 -0.3290
 9600TIP3    H128743   0.445   0.868   3.245  0.2125 -1.6598 -0.9500
 9600TIP3    H228744   0.371   0.860   3.113 -1.1865 -0.3116 -0.2641
 9601TIP3   OH228745   2.324   2.539   4.797  0.1653 -0.2320 -0.3906
 9601TIP3    H128746   2.355   2.455   4.832  0.0818 -0.3836 -0.6760
 9601TIP3    H228747   2.317   2.524   4.702 -0.4515 -0.0937 -0.3694
 9602TIP3   OH228748   0.666   2.482   0.808 -0.2708  0.3001  0.2852
 9602TIP3    H128749   0.712   2.562   0.830 -1.3116  0.9289  0.2375
 9602TIP3    H228750   0.633   2.449   0.891 -1.1446  0.7515  0.1257
 9603TIP3   OH228751   1.486   0.468   1.937  0.6172  0.1291  0.4282
 9603TIP3    H128752   1.507   0.449   2.029  0.8506 -2.4360 -0.0653
 9603TIP3    H228753   1.571   0.467   1.893  0.4729  0.9861  0.1226
 9604TIP3   OH228754   2.559   3.399   0.521 -0.4581  0.0945 -0.0255
 9604TIP3    H128755   2.648   3.388   0.555 -0.2888 -1.0387 -0.8073
 9604TIP3    H228756   2.550   3.333   0.452 -1.7105  0.5749 -0.3593
 9605TIP3   OH228757   5.814   5.335   4.518  0.0563 -0.2592  0.2004
 9605TIP3    H128758   5.843   5.427   4.517  0.4683 -0.3794 -1.4989
 9605TIP3    H228759   5.729   5.338   4.564 -0.3156  1.1088 -0.5078
 9606TIP3   OH228760   2.411   5.626   5.495  0.4564 -0.2399 -0.2524
 9606TIP3    H128761   2.364   5.702   5.530  0.3956  0.1566 -1.1777
 9606TIP3    H228762   2.363   5.551   5.530  0.4444  0.1312  0.5711
 9607TIP3   OH228763   1.536   4.500   3.692 -0.3001  0.4201  0.0326
 9607TIP3    H128764   1.629   4.503   3.716 -0.1570  0.2672 -0.4708
 9607TIP3    H228765   1.537   4.477   3.599 -0.9476 -3.6447  0.8395
 9608TIP3   OH228766   6.545   1.080   1.640 -0.5113  0.0761 -0.1046
 9608TIP3    H128767   6.602   1.004   1.635  1.5203  1.5608 -2.0866
 9608TIP3    H228768   6.480   1.066   1.570 -0.7400 -0.2654  0.1750
 9609TIP3   OH228769   4.926   2.452   5.009  0.0718 -0.0511 -0.3432
 9609TIP3    H128770   4.844   2.412   5.039  0.8318  0.5375  2.9212
 9609TIP3    H228771   4.915   2.546   5.026  1.6921 -0.0641  1.0793
 9610TIP3   OH228772   5.594   2.524   3.355  0.1093 -0.3642 -0.0600
 9610TIP3    H128773   5.641   2.482   3.283 -2.8440 -1.1785 -1.6883
 9610TIP3    H228774   5.531   2.582   3.312 -1.7183 -0.8270  1.8264
 9611TIP3   OH228775   1.224   1.146   0.298 -0.1084 -0.3162 -0.5064
 9611TIP3    H128776   1.305   1.192   0.274  0.6445 -1.4094 -0.1761
 9611TIP3    H228777   1.222   1.070   0.240 -0.6010 -0.5904 -0.1374
 9612TIP3   OH228778   1.696   7.535   2.038 -0.2461  0.0643  0.1094
 9612TIP3    H128779   1.618   7.589   2.026 -0.5554 -0.2410  0.7181
 9612TIP3    H228780   1.664   7.445   2.042  0.1533 -0.0770  0.2318
 9613TIP3   OH228781   7.386   0.904   1.143 -0.3795 -0.2557 -0.1802
 9613TIP3    H128782   7.436   0.883   1.064 -2.2899 -1.3153 -1.1774
 9613TIP3    H228783   7.339   0.984   1.121  2.4168  2.0548  1.5525
 9614TIP3   OH228784   5.146   5.431   3.675 -0.2517 -0.0179  0.1113
 9614TIP3    H128785   5.064   5.429   3.626  0.1642 -0.3728 -0.5806
 9614TIP3    H228786   5.164   5.524   3.687 -1.4556  0.0800  1.4876
 9615TIP3   OH228787   0.807   6.172   3.326  0.1776 -0.0473 -0.4334
 9615TIP3    H128788   0.873   6.142   3.388  1.1795 -0.0030 -1.4429
 9615TIP3    H228789   0.817   6.267   3.324 -2.0698  0.3274  1.7370
 9616TIP3   OH228790   0.176   6.514   6.387 -0.1881  0.1256 -0.1237
 9616TIP3    H128791   0.269   6.499   6.373 -0.6300 -1.3042 -1.9561
 9616TIP3    H228792   0.159   6.477   6.473  0.8409 -0.0199  0.0300
 9617TIP3   OH228793   5.485   0.540   3.303  0.3280  0.2331  0.3902
 9617TIP3    H128794   5.464   0.512   3.392  0.7295  1.1938  0.7986
 9617TIP3    H228795   5.512   0.631   3.312 -0.3773  0.5841 -0.8284
 9618TIP3   OH228796   6.422   3.779   1.982  1.0149 -0.3708  0.4205
 9618TIP3    H128797   6.477   3.731   1.919  2.2343 -1.4721  2.2368
 9618TIP3    H228798   6.475   3.854   2.008  0.5204  0.0686  0.1825
 9619TIP3   OH228799   4.382   1.143   0.164  0.1382  0.2564 -0.3538
 9619TIP3    H128800   4.421   1.214   0.114 -1.2640  1.1235 -0.2552
 9619TIP3    H228801   4.371   1.072   0.100  0.1896  0.6415 -0.7919
 9620TIP3   OH228802   5.713   2.426   3.728  0.1866  0.6824  0.0284
 9620TIP3    H128803   5.662   2.507   3.728 -0.4192  0.3117  0.6292
 9620TIP3    H228804   5.800   2.452   3.698  0.7634  2.0547  2.5551
 9621TIP3   OH228805   6.290   2.058   3.905 -0.0978 -0.1307  0.5225
 9621TIP3    H128806   6.379   2.092   3.912 -0.3756  1.0177 -1.1205
 9621TIP3    H228807   6.302   1.965   3.885  0.8491  0.4579 -2.1024
 9622TIP3   OH228808   7.284   5.246   2.210 -0.1434 -0.1048 -0.4315
 9622TIP3    H128809   7.325   5.170   2.251  0.0754 -0.4863 -1.3234
 9622TIP3    H228810   7.352   5.281   2.152 -0.2757  0.7196 -0.0937
 9623TIP3   OH228811   1.197   3.804   3.118 -0.3082 -0.2737 -0.8022
 9623TIP3    H128812   1.241   3.802   3.202 -2.4999  1.1824  0.4736
 9623TIP3    H228813   1.162   3.892   3.110 -1.2846 -0.7606 -2.6284
 9624TIP3   OH228814   3.220   3.018   5.236 -0.2619 -0.0608 -0.3583
 9624TIP3    H128815   3.235   2.998   5.329 -2.2946  0.6734  0.1850
 9624TIP3    H228816   3.292   2.974   5.190  0.4135 -1.0143  1.5018
 9625TIP3   OH228817   1.989   2.198   0.746  0.5709 -0.1409  0.5847
 9625TIP3    H128818   1.933   2.219   0.820 -0.1313  0.0556  0.0015
 9625TIP3    H228819   1.952   2.118   0.709  2.1113 -1.4363  1.6415
 9626TIP3   OH228820   6.626   2.820   4.254  0.9288 -0.8653 -0.1378
 9626TIP3    H128821   6.583   2.901   4.226  1.4717 -0.4912  0.0870
 9626TIP3    H228822   6.718   2.844   4.264  1.1554 -1.5939 -0.3861
 9627TIP3   OH228823   6.276   2.183   3.576  0.1577  0.4121 -0.3502
 9627TIP3    H128824   6.342   2.118   3.601 -0.1285 -1.1587 -3.2665
 9627TIP3    H228825   6.196   2.133   3.565 -1.5031  2.1896  2.4459
 9628TIP3   OH228826   7.155   0.240   0.271  0.1071 -0.9342  0.9564
 9628TIP3    H128827   7.250   0.245   0.269  0.2180 -2.2612  1.6307
 9628TIP3    H228828   7.129   0.223   0.180  0.1747  3.1412 -0.0134
 9629TIP3   OH228829   5.436   7.799   1.258  0.2087 -0.2532  0.1429
 9629TIP3    H128830   5.449   7.712   1.220 -2.6480  0.9587 -4.4079
 9629TIP3    H228831   5.349   7.825   1.228  1.1809  4.4265  0.6846
 9630TIP3   OH228832   1.666   5.685   1.228 -0.7204  0.3173  0.1013
 9630TIP3    H128833   1.629   5.759   1.276 -0.4297  0.4160  0.1767
 9630TIP3    H228834   1.655   5.708   1.136 -0.2213  0.6630  0.1250
 9631TIP3   OH228835   0.991   5.600   0.152  0.4873 -0.4772  0.3216
 9631TIP3    H128836   1.036   5.681   0.125 -0.6360  0.2245  0.4864
 9631TIP3    H228837   1.057   5.532   0.142  2.4075  0.8175  2.7666
 9632TIP3   OH228838   3.044   6.845   2.366  1.0251 -0.1348 -0.4807
 9632TIP3    H128839   3.091   6.762   2.363 -0.8275 -1.3118  1.1156
 9632TIP3    H228840   2.965   6.829   2.314 -0.6694 -0.3424  2.0055
 9633TIP3   OH228841   2.501   5.608   0.456  0.3996 -0.1246 -0.2363
 9633TIP3    H128842   2.532   5.683   0.506  0.8202  0.2058 -0.9753
 9633TIP3    H228843   2.412   5.632   0.430  0.3790 -0.0604 -0.1045
 9634TIP3   OH228844   4.142   3.566   4.792 -0.4455  0.3064 -0.2046
 9634TIP3    H128845   4.185   3.521   4.719 -0.8591  1.9113 -1.4975
 9634TIP3    H228846   4.056   3.525   4.799 -0.5721  0.4314 -0.9370
 9635TIP3   OH228847   7.425   7.323   6.138 -0.1138  0.1817 -0.0162
 9635TIP3    H128848   7.453   7.398   6.085 -0.9882  0.1270 -0.5819
 9635TIP3    H228849   7.389   7.262   6.074  1.2836 -1.0713  0.3395
 9636TIP3   OH228850   2.887   4.116   4.417  0.2694 -0.1176  0.5251
 9636TIP3    H128851   2.850   4.148   4.335  1.3070  1.1060  0.4996
 9636TIP3    H228852   2.820   4.138   4.483  0.9066  2.1833  0.4980
 9637TIP3   OH228853   5.363   2.036   2.264 -0.0804  0.0871  0.6470
 9637TIP3    H128854   5.340   2.128   2.280  0.4456  0.7109 -1.7926
 9637TIP3    H228855   5.450   2.040   2.225 -0.7761 -1.2605 -1.1886
 9638TIP3   OH228856   3.480   0.373   0.951 -0.0971  0.7411  0.2632
 9638TIP3    H128857   3.574   0.378   0.935 -0.2961  0.2921 -1.2013
 9638TIP3    H228858   3.449   0.463   0.940  0.0774  0.7992  0.2362
 9639TIP3   OH228859   3.490   6.024   5.657 -0.8098 -0.4128 -0.0657
 9639TIP3    H128860   3.517   5.977   5.578  0.4055 -1.5922  1.0007
 9639TIP3    H228861   3.559   6.004   5.721 -0.9130  1.8175  0.8169
 9640TIP3   OH228862   0.686   7.604   5.386  0.5272 -0.4702 -0.1246
 9640TIP3    H128863   0.717   7.516   5.409  1.1847 -0.6953 -1.7227
 9640TIP3    H228864   0.760   7.661   5.407  0.1662 -0.3163  0.7452
 9641TIP3   OH228865   5.801   0.499   5.741  0.0544 -0.5719 -0.3360
 9641TIP3    H128866   5.878   0.476   5.688  0.1561 -1.8576  0.3349
 9641TIP3    H228867   5.727   0.466   5.690  0.0007 -0.0946 -0.5748
 9642TIP3   OH228868   2.055   3.438   5.983 -0.1476  0.3789 -0.1960
 9642TIP3    H128869   2.118   3.499   5.944  0.6588 -0.4305 -0.2061
 9642TIP3    H228870   1.970   3.469   5.953  0.0161  2.8158  1.5821
 9643TIP3   OH228871   6.076   1.556   3.266 -0.1536 -0.1740  0.1327
 9643TIP3    H128872   6.029   1.624   3.315 -0.3950 -0.0133 -0.3164
 9643TIP3    H228873   6.009   1.491   3.245 -0.0013 -0.3599  0.2283
 9644TIP3   OH228874   6.667   1.090   6.092  0.2537 -0.3236  0.3933
 9644TIP3    H128875   6.706   1.013   6.050 -0.0001 -1.4211  2.0453
 9644TIP3    H228876   6.716   1.099   6.174 -1.6306 -0.5599  1.6044
 9645TIP3   OH228877   5.065   7.756   6.746 -0.5443  0.0650  0.3887
 9645TIP3    H128878   4.980   7.774   6.707 -0.7716 -0.5998  0.5704
 9645TIP3    H228879   5.088   7.837   6.792 -0.9847  0.3132  0.1752
 9646TIP3   OH228880   2.454   7.392   5.826 -0.1752 -0.1778 -0.4583
 9646TIP3    H128881   2.408   7.476   5.826  0.1363 -0.0048 -0.4425
 9646TIP3    H228882   2.543   7.413   5.796 -0.0711 -0.4858 -0.3716
 9647TIP3   OH228883   8.162   5.632   1.658  0.2807  0.0937 -0.0528
 9647TIP3    H128884   8.132   5.580   1.583  2.7983 -0.8404 -0.4791
 9647TIP3    H228885   8.247   5.667   1.632  1.9889 -1.5040  2.8652
 9648TIP3   OH228886   4.258   0.418   4.105  0.0601  0.1883  0.5537
 9648TIP3    H128887   4.175   0.441   4.064 -0.3784 -0.2482  1.1858
 9648TIP3    H228888   4.307   0.501   4.108  0.5220  0.0431 -1.7342
 9649TIP3   OH228889   0.285   4.591   3.370  0.6638  0.0848  0.0931
 9649TIP3    H128890   0.229   4.648   3.421 -0.3165 -0.6275 -0.1562
 9649TIP3    H228891   0.228   4.519   3.343  2.1307 -1.6992  1.4667
 9650TIP3   OH228892   5.354   4.533   6.417  0.4726  0.1923  0.2395
 9650TIP3    H128893   5.435   4.522   6.368  0.2269 -0.6363 -0.0076
 9650TIP3    H228894   5.297   4.462   6.384  0.4732 -0.7007  2.0656
 9651TIP3   OH228895   6.672   0.416   5.484 -0.0987  0.5498 -0.2721
 9651TIP3    H128896   6.684   0.380   5.396 -0.7459 -0.6289  0.0985
 9651TIP3    H228897   6.585   0.386   5.510 -0.4920  2.0548  0.2381
 9652TIP3   OH228898   0.413   3.603   6.706 -0.2207 -0.2042  0.7436
 9652TIP3    H128899   0.344   3.641   6.760 -0.4011  0.7639 -0.1240
 9652TIP3    H228900   0.447   3.677   6.655 -0.9711 -1.2694 -1.4550
 9653TIP3   OH228901   5.444   4.293   5.174  0.4576  0.6359 -0.1431
 9653TIP3    H128902   5.536   4.273   5.193  0.0699  0.2619  1.6091
 9653TIP3    H228903   5.424   4.368   5.229 -0.2653  0.7632 -0.5699
 9654TIP3   OH228904   0.032   3.073   5.574 -0.2489 -0.6810  0.3672
 9654TIP3    H128905  -0.052   3.068   5.619 -0.5706 -3.3953 -0.3535
 9654TIP3    H228906   0.097   3.061   5.643 -0.5483 -0.8128  0.6265
 9655TIP3   OH228907   2.081   7.286   4.493  0.5637  0.0381 -0.3310
 9655TIP3    H128908   2.020   7.357   4.474  1.7304  1.2091  0.1699
 9655TIP3    H228909   2.115   7.260   4.408 -2.0135 -1.9964 -0.8734
 9656TIP3   OH228910   2.452   2.625   4.486  0.0631 -0.0226  0.0179
 9656TIP3    H128911   2.439   2.720   4.479 -0.4503  0.0020  1.0352
 9656TIP3    H228912   2.536   2.616   4.530  0.1287 -0.0409 -0.1112
 9657TIP3   OH228913   5.022   2.394   1.340 -0.1815 -0.1936  0.1675
 9657TIP3    H128914   4.932   2.407   1.370 -0.2339 -0.0722 -0.0394
 9657TIP3    H228915   5.017   2.317   1.284 -0.1450 -0.2168  0.1961
 9658TIP3   OH228916   0.239   2.589   2.996  0.3939 -0.3517 -0.7117
 9658TIP3    H128917   0.259   2.518   3.056  0.4904  0.3125  0.0656
 9658TIP3    H228918   0.250   2.551   2.909  1.6678 -0.9484 -0.3128
 9659TIP3   OH228919   1.642   5.420   5.031  0.1427 -0.1305  0.1968
 9659TIP3    H128920   1.718   5.364   5.014 -0.4364 -0.7035 -0.6191
 9659TIP3    H228921   1.667   5.474   5.105  2.4108  1.6414 -1.7274
 9660TIP3   OH228922   3.170   0.774   2.135  0.6048 -0.3477 -0.3051
 9660TIP3    H128923   3.160   0.727   2.218  0.3709 -0.5751 -0.4611
 9660TIP3    H228924   3.231   0.720   2.084 -1.1352 -1.5168 -1.2341
 9661TIP3   OH228925   1.500   1.015   1.453 -0.1775  0.2345 -0.3418
 9661TIP3    H128926   1.558   0.976   1.519 -0.7725  0.6606  0.4486
 9661TIP3    H228927   1.558   1.033   1.379  0.3876 -0.8181 -0.1849
 9662TIP3   OH228928   1.695   1.598   4.065  0.2716  0.3217  1.1141
 9662TIP3    H128929   1.654   1.514   4.047 -0.8677  1.2804 -1.2238
 9662TIP3    H228930   1.787   1.578   4.084  0.7259 -1.2874 -2.1979
 9663TIP3   OH228931   3.625   3.022   5.738 -0.1580 -0.0752  0.3557
 9663TIP3    H128932   3.647   3.098   5.684 -0.6462 -0.3438 -0.2384
 9663TIP3    H228933   3.705   3.003   5.787  0.8585 -0.8197 -1.4748
 9664TIP3   OH228934   3.287   0.772   3.353 -0.2054 -0.7566 -0.2426
 9664TIP3    H128935   3.309   0.679   3.349  0.9685 -0.6361  1.8244
 9664TIP3    H228936   3.371   0.816   3.362 -0.8268 -0.0013  4.3369
 9665TIP3   OH228937   0.214   1.639   3.780 -0.6847  0.0441 -0.0494
 9665TIP3    H128938   0.190   1.641   3.872  0.5100  0.4498  0.2644
 9665TIP3    H228939   0.211   1.731   3.752  0.4567  0.1053 -0.0050
 9666TIP3   OH228940   6.788   3.304   3.748 -0.4409  0.1262 -0.3292
 9666TIP3    H128941   6.774   3.253   3.828 -0.3541  1.1397  0.3418
 9666TIP3    H228942   6.715   3.365   3.746 -0.4948  0.0491 -1.0873
 9667TIP3   OH228943   4.725   2.128   2.252 -0.2848  0.0739 -0.5832
 9667TIP3    H128944   4.714   2.035   2.230 -2.9098  0.5066 -1.4113
 9667TIP3    H228945   4.816   2.134   2.281  0.3803 -2.4996 -1.7657
 9668TIP3   OH228946   0.404   1.536   4.940 -0.1157  0.1137 -0.3188
 9668TIP3    H128947   0.491   1.499   4.953 -0.1676 -0.1784 -0.7923
 9668TIP3    H228948   0.381   1.572   5.026 -0.2224 -1.2973  0.2875
 9669TIP3   OH228949   6.185   7.213   6.757  0.2745 -0.5147 -0.7222
 9669TIP3    H128950   6.224   7.268   6.689  2.6658 -1.5073 -0.2536
 9669TIP3    H228951   6.187   7.268   6.836 -3.4961  1.0458 -1.4849
 9670TIP3   OH228952   0.184   4.934   2.665 -0.1799  0.1138  0.1542
 9670TIP3    H128953   0.122   4.980   2.721  0.5724 -1.5986  2.5572
 9670TIP3    H228954   0.211   4.999   2.601 -1.6809  1.9691  1.2889
 9671TIP3   OH228955   3.502   4.583   3.472 -0.0933  0.1263 -0.8236
 9671TIP3    H128956   3.596   4.600   3.465  0.3734 -1.8850 -0.0104
 9671TIP3    H228957   3.491   4.496   3.434 -1.1439 -0.9498  1.7612
 9672TIP3   OH228958   2.739   2.877   2.087 -0.3255  0.2992 -0.1397
 9672TIP3    H128959   2.714   2.956   2.040  0.8698  0.7166 -0.1066
 9672TIP3    H228960   2.833   2.885   2.099 -0.4510 -0.2640  1.4676
 9673TIP3   OH228961   5.447   2.082   2.852  0.1707  0.2178 -0.2486
 9673TIP3    H128962   5.425   2.095   2.760  1.3751 -2.2381 -0.9629
 9673TIP3    H228963   5.363   2.086   2.897 -0.5906  0.2909 -1.6061
 9674TIP3   OH228964   6.209   0.144   0.898 -0.0953 -0.1560  0.1242
 9674TIP3    H128965   6.165   0.115   0.978  1.9819 -0.8830  1.0612
 9674TIP3    H228966   6.193   0.073   0.835 -0.4591 -0.2986  0.3728
 9675TIP3   OH228967   3.181   1.512   5.355  0.2569  0.2458  0.2444
 9675TIP3    H128968   3.232   1.455   5.296 -0.5820 -0.0772 -0.1973
 9675TIP3    H228969   3.247   1.560   5.404  0.9915  0.2095 -0.6594
 9676TIP3   OH228970   1.111   3.277   3.206 -0.4934  0.1489  0.4106
 9676TIP3    H128971   1.127   3.259   3.113 -2.4110  2.1559 -0.4169
 9676TIP3    H228972   1.162   3.356   3.223  1.5061 -1.3239  1.7379
 9677TIP3   OH228973   7.656   7.652   2.118  0.6382  0.0598  0.2686
 9677TIP3    H128974   7.586   7.683   2.176 -0.6015 -1.0901 -0.5348
 9677TIP3    H228975   7.663   7.720   2.051 -0.8875 -0.5374 -0.5525
 9678TIP3   OH228976   7.389   5.876   4.850  0.0407  0.0690  0.5876
 9678TIP3    H128977   7.481   5.897   4.837  0.5759 -2.4831 -0.1119
 9678TIP3    H228978   7.357   5.852   4.763 -1.1257  0.2737  0.9384
 9679TIP3   OH228979   2.521   1.194   3.868 -0.2153 -0.5117  0.0602
 9679TIP3    H128980   2.589   1.206   3.933 -0.2662  0.4696 -0.0514
 9679TIP3    H228981   2.547   1.251   3.795 -1.6049  0.6147  0.3921
 9680TIP3   OH228982   6.601   7.463   1.506  0.6206 -0.0710 -0.1738
 9680TIP3    H128983   6.609   7.524   1.580  0.9652 -0.1630 -0.1327
 9680TIP3    H228984   6.511   7.475   1.475  1.0315  1.3199 -0.9238
 9681TIP3   OH228985   3.334   1.273   4.824  0.0824 -0.1376  0.1778
 9681TIP3    H128986   3.342   1.302   4.915 -1.3640 -0.5162  0.4442
 9681TIP3    H228987   3.297   1.185   4.830  1.1153 -0.6573 -0.7474
 9682TIP3   OH228988   4.498   1.100   3.776 -0.4429  0.2925  0.3937
 9682TIP3    H128989   4.478   1.184   3.818 -1.5760  0.2743 -0.0848
 9682TIP3    H228990   4.436   1.094   3.703 -0.6550 -1.1334  0.6622
 9683TIP3   OH228991   0.047   4.866   1.149  0.4458 -0.0633 -0.0796
 9683TIP3    H128992  -0.013   4.841   1.078  1.3737 -1.8806 -0.2893
 9683TIP3    H228993   0.127   4.894   1.105  1.2691 -1.8394  0.1878
 9684TIP3   OH228994   7.637   2.742   5.620 -0.4336 -0.0566 -0.5584
 9684TIP3    H128995   7.565   2.782   5.669  0.4731  1.6549 -0.5611
 9684TIP3    H228996   7.645   2.654   5.657 -1.3488  0.3558  0.6814
 9685TIP3   OH228997   3.272   1.288   6.012  0.6894  0.2881  0.3369
 9685TIP3    H128998   3.246   1.292   5.920 -0.6432 -0.2014  0.6717
 9685TIP3    H228999   3.314   1.372   6.029  0.9553  0.3866 -0.7085
 9686TIP3   OH229000   6.149   2.751   3.521 -0.1928  0.2253 -0.8838
 9686TIP3    H129001   6.055   2.764   3.511 -0.0664  2.3312  0.1018
 9686TIP3    H229002   6.164   2.746   3.615  0.7314  0.4275 -1.0050
 9687TIP3   OH229003   1.309   7.230   4.173  0.5381 -0.2485  0.4125
 9687TIP3    H129004   1.216   7.242   4.153  0.7176 -0.0267 -0.3362
 9687TIP3    H229005   1.337   7.314   4.209  0.5494 -0.1601  0.2017
 9688TIP3   OH229006   8.218   1.699   2.002 -0.0987  0.1781  0.3952
 9688TIP3    H129007   8.175   1.642   2.065  0.1514 -0.2215  0.2116
 9688TIP3    H229008   8.300   1.724   2.045  0.8286 -1.3708 -0.3692
 9689TIP3   OH229009   1.473   6.164   3.083 -0.5122 -0.1144  0.3636
 9689TIP3    H129010   1.501   6.205   3.002  0.4322 -0.2832  0.5984
 9689TIP3    H229011   1.394   6.115   3.059 -1.2946  1.2843 -0.0576
 9690TIP3   OH229012   5.753   0.965   0.463 -0.6698 -0.1348  0.0584
 9690TIP3    H129013   5.785   0.896   0.521 -0.4988 -0.3148 -0.2460
 9690TIP3    H229014   5.714   0.917   0.389 -0.5883  0.0962 -0.1333
 9691TIP3   OH229015   8.197   7.710   5.559 -0.3480 -0.1097  0.1069
 9691TIP3    H129016   8.134   7.686   5.492 -1.1274  1.5781  0.1765
 9691TIP3    H229017   8.244   7.785   5.521  0.5545 -0.3622  0.6818
 9692TIP3   OH229018   2.671   0.309   0.766  0.1891  0.3014  0.1746
 9692TIP3    H129019   2.685   0.334   0.675  2.9147  1.9741  0.9287
 9692TIP3    H229020   2.631   0.387   0.806 -1.4906 -0.6116  0.3582
 9693TIP3   OH229021   3.709   5.699   6.591  0.4573  0.2424 -0.6618
 9693TIP3    H129022   3.676   5.717   6.679 -1.2266 -1.2031 -0.9387
 9693TIP3    H229023   3.804   5.708   6.599  0.3809 -0.2106  1.4035
 9694TIP3   OH229024   4.339   1.716   3.313  0.2264  0.4416 -0.5064
 9694TIP3    H129025   4.425   1.729   3.353 -0.4904  0.9886  0.9313
 9694TIP3    H229026   4.358   1.679   3.227  1.9092  0.8487 -0.3483
 9695TIP3   OH229027   2.143   1.899   3.353 -0.3224  0.2419  0.2803
 9695TIP3    H129028   2.119   1.806   3.362 -1.7100  0.3033 -2.0851
 9695TIP3    H229029   2.234   1.897   3.323  0.0155 -0.2768  1.2665
 9696TIP3   OH229030   1.440   5.464   4.480  0.1530  0.3313 -0.2555
 9696TIP3    H129031   1.425   5.397   4.547 -0.0410 -0.5664 -1.1586
 9696TIP3    H229032   1.353   5.491   4.452  0.2242  1.3281  0.4285
 9697TIP3   OH229033   0.717   2.035   4.303  0.4517  0.2402  0.0080
 9697TIP3    H129034   0.632   2.024   4.344  0.0377  0.3343 -0.7940
 9697TIP3    H229035   0.761   2.102   4.355  0.2116 -0.1292  0.6881
 9698TIP3   OH229036   4.438   4.463   4.936 -1.0808  0.0801  0.2338
 9698TIP3    H129037   4.524   4.450   4.976 -1.4538 -0.1309  1.0006
 9698TIP3    H229038   4.376   4.435   5.004 -1.7955  1.5495  0.2166
 9699TIP3   OH229039   5.009   5.509   3.950  0.2662  0.0424 -0.0181
 9699TIP3    H129040   4.998   5.457   3.870  0.1817 -2.2907  1.4230
 9699TIP3    H229041   5.104   5.513   3.963  0.2336 -1.0801  0.6598
 9700TIP3   OH229042   2.647   5.494   6.366 -0.2249 -0.2279  0.1065
 9700TIP3    H129043   2.658   5.410   6.409  0.9747 -1.0724 -1.7382
 9700TIP3    H229044   2.569   5.484   6.311  0.7449 -0.6829 -1.2392
 9701TIP3   OH229045   2.171   6.691   0.610  0.4250 -0.4000 -0.4966
 9701TIP3    H129046   2.188   6.636   0.687 -1.3577 -3.4183 -2.0640
 9701TIP3    H229047   2.111   6.758   0.641 -0.3823 -1.6411  0.7493
 9702TIP3   OH229048   5.261   6.915   4.294 -0.0130 -0.5425  0.0787
 9702TIP3    H129049   5.184   6.861   4.309 -0.4290 -0.0850 -0.3967
 9702TIP3    H229050   5.315   6.863   4.233 -0.5841 -0.2676 -0.6739
 9703TIP3   OH229051   7.252   2.273   5.927  0.1893  0.0189  0.2637
 9703TIP3    H129052   7.324   2.315   5.975  0.7860 -0.7774  0.0889
 9703TIP3    H229053   7.268   2.294   5.835 -0.3969  0.7108  0.3108
 9704TIP3   OH229054   3.162   1.425   3.941 -0.0340  0.2108 -0.2418
 9704TIP3    H129055   3.077   1.421   3.897  0.3945 -0.0283 -1.0746
 9704TIP3    H229056   3.202   1.339   3.923  0.4298  0.3675  0.0309
 9705TIP3   OH229057   5.475   5.188   3.499  0.3459  0.4039  0.0399
 9705TIP3    H129058   5.411   5.118   3.491  0.2589  0.1971  1.9183
 9705TIP3    H229059   5.533   5.178   3.424  0.8450 -2.2474  0.6981
 9706TIP3   OH229060   2.979   7.655   6.559 -0.1255 -0.2616  0.5535
 9706TIP3    H129061   3.029   7.724   6.515 -0.3025  0.5499  1.5784
 9706TIP3    H229062   2.890   7.691   6.566  0.0115 -0.1692  1.9687
 9707TIP3   OH229063   7.926   6.855   6.757 -0.2609  0.9737  0.0854
 9707TIP3    H129064   8.000   6.912   6.738  0.0059  0.5689 -0.1026
 9707TIP3    H229065   7.905   6.814   6.673 -0.1045  0.3876  0.3309
 9708TIP3   OH229066   0.267   1.915   6.268 -0.5467  0.6336  0.1181
 9708TIP3    H129067   0.236   1.893   6.356 -0.8749  0.8818  0.0667
 9708TIP3    H229068   0.316   1.997   6.279  0.2765  0.1369  0.2332
 9709TIP3   OH229069   7.195   0.551   3.056 -0.1468  0.0579 -0.2308
 9709TIP3    H129070   7.136   0.485   3.019  0.9971 -1.6687  0.8825
 9709TIP3    H229071   7.178   0.546   3.151 -0.3354  1.6867 -0.1641
 9710TIP3   OH229072   2.871   1.957   5.153  0.1927  0.2373 -0.4790
 9710TIP3    H129073   2.807   2.016   5.113  0.2986  0.7995  0.1558
 9710TIP3    H229074   2.868   1.979   5.246  0.0531 -0.9449 -0.1906
 9711TIP3   OH229075   2.407   5.561   1.976  0.3971  0.0813 -0.8317
 9711TIP3    H129076   2.322   5.584   1.939 -0.4527 -0.9520  0.3761
 9711TIP3    H229077   2.466   5.629   1.944 -0.6033  0.1314 -2.7113
 9712TIP3   OH229078   7.225   0.755   0.876  0.5075  0.1559 -0.0045
 9712TIP3    H129079   7.253   0.811   0.949  1.5883 -1.3136  0.7582
 9712TIP3    H229080   7.297   0.759   0.814  0.6974 -0.5526  0.1633
 9713TIP3   OH229081   6.498   3.413   6.304  0.1620  0.0744 -0.0267
 9713TIP3    H129082   6.564   3.378   6.244 -0.9188 -0.9627 -0.6686
 9713TIP3    H229083   6.542   3.418   6.388  1.1273 -0.3760 -0.4859
 9714TIP3   OH229084   1.719   3.271   2.535 -0.3575 -0.1762  0.4348
 9714TIP3    H129085   1.625   3.280   2.554  0.2251  0.9323  3.4530
 9714TIP3    H229086   1.726   3.190   2.486 -2.9785  0.2642 -0.8440
 9715TIP3   OH229087   0.641   6.904   6.364  0.1187  0.3884 -0.2265
 9715TIP3    H129088   0.705   6.886   6.295 -0.7604 -1.3976 -0.6168
 9715TIP3    H229089   0.615   6.995   6.349  2.2936  1.0694 -0.2474
 9716TIP3   OH229090   6.719   0.169   0.943  0.0897 -0.1056 -0.5109
 9716TIP3    H129091   6.726   0.258   0.908 -0.4433 -0.2438 -0.9818
 9716TIP3    H229092   6.628   0.144   0.929  0.4313 -1.0458 -1.1814
 9717TIP3   OH229093   6.870   3.116   1.833  0.2142  0.0288  1.1621
 9717TIP3    H129094   6.834   3.095   1.919  0.3290  0.5406  1.3374
 9717TIP3    H229095   6.883   3.031   1.792 -1.9683 -0.1702  0.7562
 9718TIP3   OH229096   5.295   5.719   1.979 -0.3443 -0.0329 -0.0284
 9718TIP3    H129097   5.283   5.774   1.902  2.5971 -1.5697 -1.7624
 9718TIP3    H229098   5.265   5.633   1.952 -0.8134 -0.2502  1.1363
 9719TIP3   OH229099   7.815   5.503   0.467 -0.5423  0.0800 -0.0305
 9719TIP3    H129100   7.812   5.420   0.515 -0.2489 -0.4446 -0.8983
 9719TIP3    H229101   7.823   5.570   0.535 -1.0387 -0.5834  0.6957
 9720TIP3   OH229102   8.061   3.666   5.807  0.0771  0.0791 -0.6793
 9720TIP3    H129103   8.040   3.573   5.810 -0.3293  0.1931  0.2544
 9720TIP3    H229104   8.050   3.696   5.897  1.8457  0.6849 -0.6379
 9721TIP3   OH229105   0.104   4.006   6.742 -0.3729 -0.1494 -0.1881
 9721TIP3    H129106   0.135   3.953   6.669 -1.9420 -1.0298 -0.2493
 9721TIP3    H229107   0.009   4.009   6.732 -0.5423  0.5250  1.2730
 9722TIP3   OH229108   1.012   1.643   6.086  0.5569  0.1625 -0.0569
 9722TIP3    H129109   1.039   1.552   6.076 -2.1323 -0.5747 -1.8166
 9722TIP3    H229110   1.069   1.692   6.026  0.9242 -0.6165 -0.3617
 9723TIP3   OH229111   6.248   0.001   5.440 -0.0519  0.8220  0.2391
 9723TIP3    H129112   6.212  -0.068   5.384  1.7084  0.5565 -0.6173
 9723TIP3    H229113   6.249   0.078   5.384 -0.5342  1.1720  0.7020
 9724TIP3   OH229114   5.245   3.809   2.044 -0.4695 -0.1420 -0.0368
 9724TIP3    H129115   5.256   3.817   1.949  0.6141 -1.4105 -0.0448
 9724TIP3    H229116   5.175   3.871   2.066 -1.6667 -0.7890 -1.8387
 9725TIP3   OH229117   4.887   0.459   0.448  0.0564 -0.2822 -0.3083
 9725TIP3    H129118   4.841   0.376   0.438  1.0107 -0.9088  0.3710
 9725TIP3    H229119   4.820   0.519   0.482 -0.9734 -0.4002 -2.0213
 9726TIP3   OH229120   4.663   5.848   1.349  0.3112 -0.0656  0.3265
 9726TIP3    H129121   4.605   5.808   1.414 -1.0247 -1.4924 -1.6314
 9726TIP3    H229122   4.629   5.936   1.337  0.7626  0.3251  1.7429
 9727TIP3   OH229123   0.813   1.143   3.553  0.3030  0.4264  0.0723
 9727TIP3    H129124   0.872   1.178   3.487 -0.7822 -0.8321 -1.6247
 9727TIP3    H229125   0.838   1.051   3.560 -0.4949  0.2320  0.4164
 9728TIP3   OH229126   6.263   7.741   4.614 -0.1594 -0.0230 -0.3495
 9728TIP3    H129127   6.320   7.775   4.544  1.4920  1.3532  1.5363
 9728TIP3    H229128   6.324   7.708   4.679 -1.3980  2.2948  2.1682
 9729TIP3   OH229129   2.672   4.849   5.495 -0.2744 -0.6415  0.4088
 9729TIP3    H129130   2.707   4.801   5.570  0.7389 -1.5103 -0.5905
 9729TIP3    H229131   2.722   4.817   5.420  1.0545  2.5593 -0.2348
 9730TIP3   OH229132   3.699   6.716   5.757  0.5049 -0.1584 -0.4935
 9730TIP3    H129133   3.666   6.716   5.668 -0.1128 -0.0231 -0.2643
 9730TIP3    H229134   3.622   6.722   5.813  0.7833 -1.5660  0.0958
 9731TIP3   OH229135   7.690   1.601   5.618 -0.3168 -0.4343  0.0768
 9731TIP3    H129136   7.704   1.591   5.524  0.2969  1.6559 -0.1154
 9731TIP3    H229137   7.653   1.689   5.628 -0.3407 -0.5982  1.7901
 9732TIP3   OH229138   6.094   5.745   1.846  0.3657 -0.2855  0.1981
 9732TIP3    H129139   6.081   5.655   1.875  0.5956 -0.3868 -0.0071
 9732TIP3    H229140   6.011   5.789   1.865 -0.6467 -1.1339 -1.9602
 9733TIP3   OH229141   2.800   3.524   0.690 -0.2202 -0.6870 -0.1999
 9733TIP3    H129142   2.742   3.509   0.765  2.1851  0.5113  2.0603
 9733TIP3    H229143   2.797   3.618   0.675  0.5240 -0.7119 -0.5674
 9734TIP3   OH229144   8.124   3.222   0.353 -0.1760 -0.5276 -0.1336
 9734TIP3    H129145   8.191   3.211   0.285 -0.1397  0.8537 -0.3413
 9734TIP3    H229146   8.165   3.280   0.418 -0.5166 -1.1552  0.6595
 9735TIP3   OH229147   1.043   7.491   6.133 -0.9789  0.1747 -0.1517
 9735TIP3    H129148   1.013   7.444   6.056 -3.2194 -0.3057  0.9185
 9735TIP3    H229149   1.043   7.425   6.203  1.4774  0.4713  0.1971
 9736TIP3   OH229150   1.872   4.240   3.890  0.4801 -0.3890  0.4341
 9736TIP3    H129151   1.795   4.190   3.915 -0.2611  0.5124  0.0361
 9736TIP3    H229152   1.940   4.175   3.877 -0.6059 -1.3515 -0.6672
 9737TIP3   OH229153   1.081   4.350   0.544  0.1955  0.3302  0.9914
 9737TIP3    H129154   1.083   4.368   0.450 -1.8656  0.8081  0.9880
 9737TIP3    H229155   1.171   4.364   0.573  1.4203 -1.9820 -1.2509
 9738TIP3   OH229156   0.451   0.425   4.971 -0.4565 -0.4296  0.6586
 9738TIP3    H129157   0.392   0.478   4.918  1.8138  1.3773 -0.2009
 9738TIP3    H229158   0.455   0.340   4.926  0.3519  0.6144 -1.3408
 9739TIP3   OH229159   3.700   0.806   6.240  1.2366  0.1618 -0.2394
 9739TIP3    H129160   3.631   0.842   6.185  1.0787 -0.7782 -0.6673
 9739TIP3    H229161   3.688   0.849   6.325  0.9209  0.9442 -0.6718
 9740TIP3   OH229162   0.394   1.509   3.015  0.2623  0.0192  0.4611
 9740TIP3    H129163   0.321   1.457   3.051  0.4938  0.1422  1.1311
 9740TIP3    H229164   0.451   1.444   2.973  0.0705 -0.1533  0.4663
 9741TIP3   OH229165   1.423   5.902   4.248 -0.2686  0.2286 -0.0289
 9741TIP3    H129166   1.398   5.951   4.170  1.5939 -3.0693 -2.9862
 9741TIP3    H229167   1.507   5.939   4.274 -0.6596  1.0073  0.1771
 9742TIP3   OH229168   1.318   5.348   3.659  0.2128  0.5537 -0.1361
 9742TIP3    H129169   1.319   5.442   3.645  1.0506  0.5941  0.1533
 9742TIP3    H229170   1.255   5.315   3.594 -0.5310  1.3612  0.1591
 9743TIP3   OH229171   0.301   0.565   5.850 -0.1056  0.1075  0.5819
 9743TIP3    H129172   0.353   0.520   5.916 -0.1261 -1.0160 -0.1397
 9743TIP3    H229173   0.213   0.572   5.888 -0.5978 -2.1596  0.0204
 9744TIP3   OH229174   4.416   1.366   4.078  0.5635  0.6083 -0.2013
 9744TIP3    H129175   4.394   1.443   4.132 -1.2281  0.1759 -0.2635
 9744TIP3    H229176   4.333   1.340   4.039  1.0028 -1.7224  0.2732
 9745TIP3   OH229177   0.490   0.064   2.981  0.2285  0.3537 -0.5211
 9745TIP3    H129178   0.584   0.057   2.998  0.1727 -1.6819 -0.8960
 9745TIP3    H229179   0.465   0.146   3.025  2.5006  2.0228 -2.0729
 9746TIP3   OH229180   6.593   0.679   5.209  0.5123 -0.2637  0.4715
 9746TIP3    H129181   6.558   0.593   5.232  0.2000  0.1316  1.5411
 9746TIP3    H229182   6.533   0.711   5.141  1.2096 -1.2845 -0.6595
 9747TIP3   OH229183   7.618   0.059   0.259 -0.4611  0.0771  0.1884
 9747TIP3    H129184   7.607   0.012   0.177  0.9709  0.1084 -0.0419
 9747TIP3    H229185   7.611  -0.009   0.326 -1.9113  0.0929  0.0865
 9748TIP3   OH229186   3.811   3.390   5.353 -0.6124  0.4166  0.4469
 9748TIP3    H129187   3.750   3.453   5.390 -1.2270  1.0012 -1.4824
 9748TIP3    H229188   3.876   3.443   5.307  0.8101 -0.2436  1.5835
 9749TIP3   OH229189   5.574   0.642   4.226 -0.5606 -0.1032  0.1919
 9749TIP3    H129190   5.522   0.673   4.152  1.0041  0.8582 -0.5465
 9749TIP3    H229191   5.611   0.559   4.198 -0.9324 -0.3351  0.3728
 9750TIP3   OH229192   0.585   2.944   3.357 -0.0003  0.0393  0.4677
 9750TIP3    H129193   0.600   2.877   3.424 -0.6295  0.3073  0.8900
 9750TIP3    H229194   0.490   2.944   3.345  0.0286  0.6186  0.2273
 9751TIP3   OH229195   0.373   5.815   3.905  0.3265  0.0521 -0.0401
 9751TIP3    H129196   0.401   5.808   3.997  0.2982  0.6041  0.0185
 9751TIP3    H229197   0.455   5.819   3.856  0.3814  1.5589  0.1227
 9752TIP3   OH229198   7.530   4.786   4.312 -0.3745 -0.7014  0.4914
 9752TIP3    H129199   7.508   4.731   4.237 -0.9535  0.6518 -0.3817
 9752TIP3    H229200   7.626   4.789   4.313 -0.3597 -0.0900 -0.7195
 9753TIP3   OH229201   3.068   5.744   5.929 -0.5194 -0.0291  0.1280
 9753TIP3    H129202   3.135   5.679   5.948 -0.5668 -0.2025 -0.2821
 9753TIP3    H229203   3.087   5.772   5.839 -2.0154 -1.3244 -0.6484
 9754TIP3   OH229204   5.140   1.136   0.056  0.0097  0.9067 -0.4754
 9754TIP3    H129205   5.230   1.106   0.071 -1.0175 -0.9673  3.0573
 9754TIP3    H229206   5.135   1.219   0.103 -0.5249  0.1425  0.8497
 9755TIP3   OH229207   1.032   1.058   4.178 -0.0564  0.6482 -0.2233
 9755TIP3    H129208   1.048   1.018   4.093 -2.4088  0.9426 -0.8596
 9755TIP3    H229209   1.032   0.985   4.240  2.4195  0.5132 -0.2864
 9756TIP3   OH229210   3.599   3.621   2.899  0.1164  0.1333  0.3244
 9756TIP3    H129211   3.634   3.669   2.824  1.5992 -2.2305 -0.6498
 9756TIP3    H229212   3.549   3.549   2.860  1.5396 -1.5907  1.4965
 9757TIP3   OH229213   6.788   5.171   3.237 -0.1291  0.5679 -0.0095
 9757TIP3    H129214   6.786   5.075   3.241 -0.9512  0.5969  0.4732
 9757TIP3    H229215   6.724   5.194   3.170 -0.0910  0.7852  0.0281
 9758TIP3   OH229216   4.765   1.473   4.251  0.4414  0.2826  0.4678
 9758TIP3    H129217   4.834   1.517   4.202  1.8739  0.5217  2.6036
 9758TIP3    H229218   4.758   1.386   4.209  0.1646  1.1511 -1.3997
 9759TIP3   OH229219   3.029   4.487   4.031  0.2153  0.0398  0.0604
 9759TIP3    H129220   2.952   4.430   4.041  1.1626 -1.0787  1.5344
 9759TIP3    H229221   3.053   4.509   4.121  0.1976  2.3981 -0.4625
 9760TIP3   OH229222   5.358   7.256   2.658 -0.2797  0.0903  0.4124
 9760TIP3    H129223   5.453   7.253   2.673 -0.1903 -1.4943 -0.2479
 9760TIP3    H229224   5.349   7.266   2.563 -0.7622 -0.2737  0.4164
 9761TIP3   OH229225   0.679   1.704   1.555  0.9372 -0.3378 -0.5554
 9761TIP3    H129226   0.624   1.644   1.605 -0.7409  1.0286 -0.6320
 9761TIP3    H229227   0.731   1.648   1.498 -0.1285 -1.7255 -0.2182
 9762TIP3   OH229228   6.929   6.951   4.473  0.0395  0.1180  0.4512
 9762TIP3    H129229   6.928   7.002   4.391 -0.5233 -0.2407  0.2301
 9762TIP3    H229230   6.858   6.989   4.525 -1.4385 -1.4110 -0.3377
 9763TIP3   OH229231   2.940   5.522   0.615  0.4497 -0.7559  0.0075
 9763TIP3    H129232   3.034   5.522   0.603  0.4375  2.0948 -0.6352
 9763TIP3    H229233   2.905   5.495   0.530  0.6794  1.4406 -0.8305
 9764TIP3   OH229234   4.686   4.387   5.039  0.5435  0.0645  0.2571
 9764TIP3    H129235   4.738   4.351   5.110  0.3413 -0.4324  0.1573
 9764TIP3    H229236   4.745   4.449   4.995  2.1264 -2.5843 -1.6525
 9765TIP3   OH229237   1.275   7.545   4.370 -0.6818  0.0014 -0.2971
 9765TIP3    H129238   1.282   7.514   4.461  1.9625  0.5842 -0.2431
 9765TIP3    H229239   1.229   7.628   4.377  1.0673  0.9369  0.7868
 9766TIP3   OH229240   6.038   4.093   3.012 -0.1231  0.1088  0.1978
 9766TIP3    H129241   6.009   4.086   3.103  2.4438  0.8930  1.1680
 9766TIP3    H229242   5.958   4.109   2.962 -1.2825  3.6153  2.7848
 9767TIP3   OH229243   7.290   6.780   1.928  0.5622 -0.3270  0.1316
 9767TIP3    H129244   7.221   6.714   1.914  0.3528  0.1243 -1.1811
 9767TIP3    H229245   7.247   6.864   1.909  0.8707  0.1944  1.6164
 9768TIP3   OH229246   2.636   3.518   3.035  0.4325 -0.9086 -0.2358
 9768TIP3    H129247   2.709   3.488   2.981  1.8810  0.7779  0.6800
 9768TIP3    H229248   2.576   3.560   2.973  1.9983  0.8662 -0.6329
 9769TIP3   OH229249   2.582   6.862   1.622 -0.6039  0.0638  0.0146
 9769TIP3    H129250   2.490   6.846   1.641 -0.6774  0.0401 -0.3465
 9769TIP3    H229251   2.581   6.925   1.549 -0.3226  1.0438  0.8401
 9770TIP3   OH229252   5.594   4.468   6.259 -0.2638 -0.1507  0.5862
 9770TIP3    H129253   5.558   4.384   6.289  0.3263 -1.4088 -1.9451
 9770TIP3    H229254   5.664   4.444   6.198 -0.2463  2.1940 -0.4329
 9771TIP3   OH229255   0.459   6.128   5.493  0.2424 -0.3666 -0.3729
 9771TIP3    H129256   0.546   6.092   5.476  0.9673  1.5591 -1.1187
 9771TIP3    H229257   0.470   6.180   5.572 -0.6847 -1.4522  0.4998
 9772TIP3   OH229258   2.278   4.617   6.372 -0.0664  0.0649 -0.1524
 9772TIP3    H129259   2.275   4.700   6.324 -1.5991 -0.7473 -1.5540
 9772TIP3    H229260   2.369   4.609   6.400 -0.0325  2.5784  0.7306
 9773TIP3   OH229261   2.042   0.738   5.300  0.4269  0.2864 -0.5202
 9773TIP3    H129262   1.964   0.752   5.354 -0.3316 -0.7684 -1.3023
 9773TIP3    H229263   2.009   0.736   5.210  1.2542 -0.7933 -0.8166
 9774TIP3   OH229264   0.414   6.915   5.759 -0.1869 -0.2830  0.0517
 9774TIP3    H129265   0.405   7.005   5.728  0.6294 -0.2194 -0.0150
 9774TIP3    H229266   0.508   6.897   5.754 -0.4547 -1.5565 -1.1644
 9775TIP3   OH229267   1.362   5.025   0.361  0.5411 -0.0321 -0.8259
 9775TIP3    H129268   1.417   5.085   0.411  1.1192 -0.6154 -0.7562
 9775TIP3    H229269   1.348   4.950   0.420 -0.3295  0.1108 -0.8409
 9776TIP3   OH229270   2.216   1.306   3.024  0.2439 -0.2166  0.3080
 9776TIP3    H129271   2.258   1.250   3.089  2.5235  0.3196 -0.5962
 9776TIP3    H229272   2.204   1.249   2.948  0.1789 -0.1375  0.2597
 9777TIP3   OH229273   2.499   6.492   3.319 -0.0854 -0.3985 -0.3934
 9777TIP3    H129274   2.486   6.480   3.225 -1.8542  0.2476 -0.2687
 9777TIP3    H229275   2.494   6.404   3.355 -2.8304 -0.4143 -0.5842
 9778TIP3   OH229276   4.143   5.355   0.456  0.0504  0.5835 -0.3115
 9778TIP3    H129277   4.120   5.335   0.365 -0.3992 -1.2354  0.1439
 9778TIP3    H229278   4.148   5.269   0.498 -1.4647  1.4424  1.7833
 9779TIP3   OH229279   6.612   1.391   2.549  0.1682 -0.2777 -0.2047
 9779TIP3    H129280   6.562   1.452   2.494 -1.9051 -1.0788  0.6977
 9779TIP3    H229281   6.662   1.448   2.607 -1.2273  0.6128  0.1771
 9780TIP3   OH229282   3.248   5.229   2.503  1.1387  0.5439  0.3414
 9780TIP3    H129283   3.331   5.247   2.548  0.6693 -1.1070  1.9886
 9780TIP3    H229284   3.204   5.166   2.560  0.9707 -2.5959 -2.9423
 9781TIP3   OH229285   1.767   4.897   5.854  0.1105 -0.3036  0.4734
 9781TIP3    H129286   1.773   4.915   5.760 -0.8705  1.4408  0.6889
 9781TIP3    H229287   1.850   4.856   5.876  1.0855  0.8628 -0.8457
 9782TIP3   OH229288   6.034   2.606   0.924 -0.7025 -0.1882  0.2602
 9782TIP3    H129289   5.944   2.635   0.942 -1.0267 -0.2343 -1.1586
 9782TIP3    H229290   6.088   2.658   0.983 -1.4949  1.4747 -0.3909
 9783TIP3   OH229291   4.294   1.659   1.020 -0.0209  0.1663 -0.1781
 9783TIP3    H129292   4.313   1.654   1.113 -0.3548  0.1085 -0.1136
 9783TIP3    H229293   4.213   1.709   1.014  0.1207  0.3657 -0.4504
 9784TIP3   OH229294   1.026   5.425   1.905 -0.2698 -0.2745  0.1558
 9784TIP3    H129295   0.992   5.379   1.982  1.0490 -1.7794 -0.1097
 9784TIP3    H229296   1.105   5.377   1.881  0.7039  1.6291 -0.6942
 9785TIP3   OH229297   4.944   3.031   4.164  0.1613 -0.4293 -0.3171
 9785TIP3    H129298   4.894   3.052   4.242 -0.1786 -0.0694 -0.6267
 9785TIP3    H229299   4.916   2.943   4.139  1.2986 -1.1248  0.7585
 9786TIP3   OH229300   6.451   0.334   5.984  0.5769 -0.5775  0.1368
 9786TIP3    H129301   6.433   0.394   6.057  2.7916 -1.5291  1.5687
 9786TIP3    H229302   6.390   0.261   5.997 -0.4430  0.1894 -0.1986
 9787TIP3   OH229303   3.925   1.422   1.353  0.1935 -0.3411 -0.2827
 9787TIP3    H129304   3.996   1.391   1.410 -1.0056  0.9333  1.9990
 9787TIP3    H229305   3.969   1.439   1.269  2.2495 -1.2171  0.5339
 9788TIP3   OH229306   2.877   2.244   0.914  0.2167 -0.6097 -0.5140
 9788TIP3    H129307   2.820   2.174   0.944  0.0477 -0.2040  0.1548
 9788TIP3    H229308   2.840   2.272   0.830  0.9148 -2.0184 -1.3187
 9789TIP3   OH229309   1.979   1.770   3.721  0.4944  0.5906 -0.2201
 9789TIP3    H129310   1.918   1.746   3.651 -0.7459  2.0999  0.2933
 9789TIP3    H229311   1.990   1.864   3.712  3.2915  0.2810 -0.6698
 9790TIP3   OH229312   2.758   0.064   5.343 -0.0381  0.1681  0.7808
 9790TIP3    H129313   2.804   0.120   5.405  0.2895  0.2802  0.4353
 9790TIP3    H229314   2.827   0.017   5.297 -0.2055  1.1254 -0.4997
 9791TIP3   OH229315   0.624   1.648   5.729 -0.1261 -0.0391 -0.2747
 9791TIP3    H129316   0.548   1.697   5.697 -0.5203 -0.7524 -0.4378
 9791TIP3    H229317   0.676   1.713   5.776 -1.7795  0.0850  1.5001
 9792TIP3   OH229318   2.557   3.298   5.565  0.3050  0.0415 -0.2924
 9792TIP3    H129319   2.522   3.384   5.544 -1.5218 -0.9372 -1.4327
 9792TIP3    H229320   2.640   3.294   5.518  0.2283  1.0289 -0.5381
 9793TIP3   OH229321   2.632   3.159   0.372 -0.3584 -0.2770  0.2223
 9793TIP3    H129322   2.690   3.201   0.309  0.3130  0.3488  1.2421
 9793TIP3    H229323   2.593   3.086   0.323  1.6132 -0.9954 -0.3823
 9794TIP3   OH229324   3.503   4.928   3.787 -0.0724 -0.6194  0.1274
 9794TIP3    H129325   3.519   5.022   3.794 -2.8222 -0.1537  1.9386
 9794TIP3    H229326   3.494   4.898   3.878 -0.1140 -2.4802 -0.4388
 9795TIP3   OH229327   3.251   5.495   2.949  0.1922 -0.2168 -0.1603
 9795TIP3    H129328   3.245   5.516   3.042 -1.1123  0.2228 -0.3143
 9795TIP3    H229329   3.278   5.577   2.908 -1.6740  0.3271 -0.4066
 9796TIP3   OH229330   1.602   7.726   0.800 -0.2283 -0.2292  0.3094
 9796TIP3    H129331   1.615   7.819   0.785  0.2858 -0.6446 -2.3344
 9796TIP3    H229332   1.611   7.715   0.895  0.3082  2.2860  0.6105
 9797TIP3   OH229333   1.265   4.365   3.725 -0.2627  0.2905  0.1387
 9797TIP3    H129334   1.325   4.436   3.746 -0.4776  0.7617 -0.8270
 9797TIP3    H229335   1.300   4.326   3.645 -1.2336  0.5785 -0.4433
 9798TIP3   OH229336   6.237   6.129   2.537 -0.3973  0.0981 -0.2597
 9798TIP3    H129337   6.197   6.086   2.613  0.2863  0.6168  0.4097
 9798TIP3    H229338   6.304   6.068   2.507  2.4141  1.6285  2.2886
 9799TIP3   OH229339   7.249   0.527   1.791 -0.4852 -0.6708 -0.5042
 9799TIP3    H129340   7.333   0.510   1.749 -0.8575 -0.8511 -1.1893
 9799TIP3    H229341   7.187   0.469   1.745 -1.2803  0.5948 -1.0721
 9800TIP3   OH229342   7.041   3.459   3.016 -0.1046  0.2930  0.2570
 9800TIP3    H129343   7.040   3.442   3.110  0.0067 -2.0493 -0.0973
 9800TIP3    H229344   7.113   3.404   2.983  2.5597  3.9942 -0.7748
 9801TIP3   OH229345   1.048   6.900   0.970 -0.3969  0.0775 -0.1275
 9801TIP3    H129346   0.971   6.923   0.917 -0.1311  0.4879 -0.3400
 9801TIP3    H229347   1.042   6.956   1.047 -0.1797  0.2933 -0.2643
 9802TIP3   OH229348   6.714   0.848   1.658 -0.4048 -0.1257 -1.1818
 9802TIP3    H129349   6.704   0.772   1.717  2.0916  0.0079 -0.5068
 9802TIP3    H229350   6.666   0.823   1.579 -1.7163 -1.3592 -0.0532
 9803TIP3   OH229351   0.379   1.361   5.764 -0.7427 -0.3772 -0.0685
 9803TIP3    H129352   0.441   1.332   5.697  0.3772  0.4690  0.5592
 9803TIP3    H229353   0.371   1.455   5.749 -2.8426 -0.6191 -0.8800
 9804TIP3   OH229354   7.764   4.656   5.642 -0.0783 -0.0822  0.4997
 9804TIP3    H129355   7.767   4.722   5.572  1.7840  0.0528  0.6695
 9804TIP3    H229356   7.670   4.638   5.653 -0.5892  1.8431 -0.1964
 9805TIP3   OH229357   1.476   2.638   5.361 -0.2958  0.5247  0.4021
 9805TIP3    H129358   1.474   2.589   5.279 -0.9238 -2.2610  1.9706
 9805TIP3    H229359   1.401   2.697   5.355 -1.4342 -0.9346 -0.3049
 9806TIP3   OH229360   6.099   5.767   1.026  0.1984 -0.3250 -0.2258
 9806TIP3    H129361   6.113   5.726   1.111 -1.1537 -1.2245 -0.4153
 9806TIP3    H229362   6.036   5.838   1.043  0.6962  0.1484 -0.3153
 9807TIP3   OH229363   4.612   1.103   4.870 -0.3923 -0.1974 -0.1360
 9807TIP3    H129364   4.585   1.013   4.851 -1.6454  0.2333 -0.4821
 9807TIP3    H229365   4.661   1.130   4.792 -2.2721  0.2819 -1.2021
 9808TIP3   OH229366   2.893   0.064   3.294  0.0253  0.5133  0.1611
 9808TIP3    H129367   2.963   0.122   3.265 -0.7449  1.8519  0.9149
 9808TIP3    H229368   2.844   0.115   3.358 -0.6269 -1.0072  0.9304
 9809TIP3   OH229369   4.140   3.358   1.074  0.3843  0.2047  0.1347
 9809TIP3    H129370   4.219   3.341   1.024  0.6492 -0.5429  0.7837
 9809TIP3    H229371   4.097   3.273   1.080 -2.1343  1.0534 -2.8951
 9810TIP3   OH229372   0.840   3.606   4.622  0.1990 -0.1260 -0.0882
 9810TIP3    H129373   0.851   3.585   4.714  0.8545 -0.2406 -0.1928
 9810TIP3    H229374   0.749   3.638   4.615  0.1844 -0.0137  0.6086
 9811TIP3   OH229375   1.150   6.079   1.925 -0.6189 -0.2348  0.3410
 9811TIP3    H129376   1.164   6.061   1.832 -0.0481  0.4761  0.2758
 9811TIP3    H229377   1.231   6.052   1.968 -0.3055  0.7977  0.4254
 9812TIP3   OH229378   6.587   6.284   4.207  0.0970  0.7599 -0.1019
 9812TIP3    H129379   6.633   6.329   4.278 -0.0200 -0.8001  1.0184
 9812TIP3    H229380   6.618   6.194   4.212 -3.9313 -0.7601  1.5529
 9813TIP3   OH229381   6.028   5.647   5.437  0.1246  0.0587 -0.5961
 9813TIP3    H129382   6.105   5.599   5.470  0.5714  0.1081 -1.5252
 9813TIP3    H229383   6.051   5.669   5.346 -1.7116 -1.4998 -1.5123
 9814TIP3   OH229384   4.577   1.384   6.743  0.4542 -0.0507 -0.2976
 9814TIP3    H129385   4.553   1.372   6.835  0.3184  0.8999 -0.1910
 9814TIP3    H229386   4.631   1.309   6.721  0.8206 -0.0800  0.6813
 9815TIP3   OH229387   0.177   5.006   5.951 -0.0838 -0.1276  0.6515
 9815TIP3    H129388   0.262   4.963   5.939 -0.0410 -0.3124  1.5469
 9815TIP3    H229389   0.115   4.935   5.963 -0.2292  0.0259  0.8165
 9816TIP3   OH229390   7.012   4.779   0.936  0.0239  0.6010 -0.2062
 9816TIP3    H129391   7.027   4.836   1.011 -0.6791  1.9826 -1.0621
 9816TIP3    H229392   6.930   4.812   0.898 -0.5192 -1.1464 -0.6113
 9817TIP3   OH229393   6.177   6.969   1.757  1.1928  0.2981  0.0759
 9817TIP3    H129394   6.204   6.885   1.794 -1.5065 -0.6832  0.0128
 9817TIP3    H229395   6.259   7.014   1.739  2.7238 -1.9780  0.8797
 9818TIP3   OH229396   3.824   4.225   4.125  0.2287 -0.0274 -0.4451
 9818TIP3    H129397   3.816   4.208   4.219 -0.9211  1.2751 -0.2808
 9818TIP3    H229398   3.742   4.192   4.088  0.4015  0.0587 -0.9063
 9819TIP3   OH229399   0.297   2.118   5.833 -0.4997 -0.1092  0.2512
 9819TIP3    H129400   0.384   2.097   5.867 -0.5324 -1.2250 -0.2981
 9819TIP3    H229401   0.313   2.183   5.764 -0.2648  0.8187  1.1587
 9820TIP3   OH229402   4.119   7.139   4.476 -0.0496 -0.2073 -0.4578
 9820TIP3    H129403   4.205   7.117   4.442  0.0393  1.5126 -1.4756
 9820TIP3    H229404   4.083   7.056   4.506  1.6863 -1.0611 -0.6169
 9821TIP3   OH229405   5.817   2.591   4.152 -0.1681 -0.1007  0.2857
 9821TIP3    H129406   5.910   2.591   4.174 -0.6757 -1.7827  2.7763
 9821TIP3    H229407   5.788   2.502   4.170 -2.2653  0.3592 -0.5394
 9822TIP3   OH229408   0.576   6.603   5.795  0.8580  0.1127  0.4960
 9822TIP3    H129409   0.541   6.614   5.883  4.0669  0.5418  1.8305
 9822TIP3    H229410   0.583   6.693   5.761  0.3690 -0.0006  0.0721
 9823TIP3   OH229411   2.878   5.273   6.218  0.3129  0.6064 -0.1830
 9823TIP3    H129412   2.905   5.268   6.126  0.2914  1.0876 -0.2167
 9823TIP3    H229413   2.862   5.366   6.233  0.2962  0.5260  0.3025
 9824TIP3   OH229414   5.641   3.852   4.048  0.3359  0.0578 -0.0956
 9824TIP3    H129415   5.642   3.943   4.080  1.1459  0.2763 -0.7078
 9824TIP3    H229416   5.584   3.806   4.109  1.7903  0.4680  1.6268
 9825TIP3   OH229417   6.001   0.838   3.242 -0.4116  0.2124  0.9520
 9825TIP3    H129418   6.090   0.871   3.229 -0.2352 -0.2888  0.8754
 9825TIP3    H229419   6.003   0.748   3.209 -1.5510  0.9344 -1.2786
 9826TIP3   OH229420   2.394   5.560   3.705 -0.1221 -0.0759 -0.2395
 9826TIP3    H129421   2.411   5.619   3.631  0.9509  0.3134  0.2890
 9826TIP3    H229422   2.401   5.616   3.782 -2.3054 -0.2517  0.1445
 9827TIP3   OH229423   4.234   7.375   6.589 -0.0087 -0.0802  0.3820
 9827TIP3    H129424   4.147   7.365   6.552 -1.2001 -2.0642  3.3130
 9827TIP3    H229425   4.286   7.305   6.550 -0.6808 -0.9022  0.9224
 9828TIP3   OH229426   1.079   4.657   5.133 -0.6275 -0.2123  0.4717
 9828TIP3    H129427   1.140   4.604   5.081 -1.5364 -2.3084  1.4306
 9828TIP3    H229428   1.109   4.747   5.120  3.5258 -1.1418  1.9294
 9829TIP3   OH229429   0.130   3.385   0.046 -0.2976 -0.0419 -0.1917
 9829TIP3    H129430   0.129   3.404   0.139  0.1893 -2.4018  0.3669
 9829TIP3    H229431   0.042   3.350   0.028 -1.4260  3.0058 -1.3380
 9830TIP3   OH229432   2.874   5.553   6.176  0.3622 -0.2392  0.3158
 9830TIP3    H129433   2.800   5.578   6.232  0.4951  0.9469 -0.0046
 9830TIP3    H229434   2.931   5.630   6.177  0.5853 -0.3657 -1.0891
 9831TIP3   OH229435   8.083   5.469   0.439 -0.7690 -0.4252  0.4326
 9831TIP3    H129436   8.093   5.541   0.502 -0.2234 -0.2470  0.1417
 9831TIP3    H229437   7.991   5.474   0.413 -0.4603  0.9439 -0.5059
 9832TIP3   OH229438   1.737   6.584   2.388  0.6238 -0.6129  0.0396
 9832TIP3    H129439   1.642   6.595   2.393  0.6173  1.1857 -2.2010
 9832TIP3    H229440   1.750   6.525   2.314  1.2523 -1.2087  0.6188
 9833TIP3   OH229441   4.113   2.316   6.357 -0.0857 -0.2442 -0.2977
 9833TIP3    H129442   4.104   2.231   6.401  0.9703 -0.1712  0.0936
 9833TIP3    H229443   4.073   2.302   6.271  1.0438 -1.4943 -0.6652
 9834TIP3   OH229444   3.382   6.862   4.110  0.1102  1.0109  0.2510
 9834TIP3    H129445   3.315   6.871   4.177 -1.4044  1.4305 -1.2618
 9834TIP3    H229446   3.351   6.917   4.038  1.1618 -0.2277 -1.1939
 9835TIP3   OH229447   7.347   5.265   4.106  0.0676 -0.6631 -0.3428
 9835TIP3    H129448   7.419   5.286   4.166 -0.4662  0.5308 -0.0900
 9835TIP3    H229449   7.325   5.174   4.126 -0.9442  0.0533  2.2124
 9836TIP3   OH229450   7.912   2.356   1.473  0.0602 -0.0472  0.1738
 9836TIP3    H129451   7.972   2.429   1.457  2.9183 -1.7569  2.2440
 9836TIP3    H229452   7.892   2.322   1.385 -1.6697  3.2596 -0.8893
 9837TIP3   OH229453   1.814   1.352   6.037 -0.1753  0.5058 -0.0986
 9837TIP3    H129454   1.720   1.349   6.058 -0.2776 -0.1307 -0.6330
 9837TIP3    H229455   1.820   1.418   5.968 -0.1828  0.7587  0.1377
 9838TIP3   OH229456   1.298   6.358   1.162 -0.7795 -0.1699 -0.7562
 9838TIP3    H129457   1.261   6.363   1.251  0.3638  0.8602 -0.3205
 9838TIP3    H229458   1.257   6.431   1.115  0.1060  0.5135 -0.4869
 9839TIP3   OH229459   6.562   4.257   3.215  0.5897  0.0706  0.2838
 9839TIP3    H129460   6.622   4.233   3.145  0.4667  0.9715 -0.1358
 9839TIP3    H229461   6.483   4.287   3.171  0.6385  0.9837  0.7923
 9840TIP3   OH229462   3.149   6.076   2.304  0.0933 -0.6495  0.1179
 9840TIP3    H129463   3.069   6.039   2.342  0.6142 -0.0705  1.8600
 9840TIP3    H229464   3.119   6.150   2.251 -0.5881 -0.9836  0.0317
 9841TIP3   OH229465   1.803   2.485   3.760  0.0417  0.1210  0.2360
 9841TIP3    H129466   1.867   2.475   3.831  0.3775  2.8740  0.4184
 9841TIP3    H229467   1.735   2.420   3.780 -0.1173  1.0904  3.3590
 9842TIP3   OH229468   1.478   3.414   1.035  1.1470 -0.1413 -0.4569
 9842TIP3    H129469   1.399   3.417   0.981  0.4930 -0.0332  0.4852
 9842TIP3    H229470   1.519   3.330   1.012  0.4610 -0.4612 -0.5425
 9843TIP3   OH229471   8.117   3.979   6.669  0.0988 -0.3602  0.2876
 9843TIP3    H129472   8.125   3.932   6.586  0.8057 -0.5332  0.4521
 9843TIP3    H229473   8.052   3.929   6.719 -2.4357  1.2170 -1.1677
 9844TIP3   OH229474   5.333   6.448   1.476 -0.3183 -1.1390 -0.6012
 9844TIP3    H129475   5.254   6.502   1.467  0.2721 -0.2481 -0.4772
 9844TIP3    H229476   5.319   6.398   1.556 -0.8891 -1.2264 -0.7475
 9845TIP3   OH229477   2.598   1.079   0.196  0.3826 -0.7967  0.8620
 9845TIP3    H129478   2.613   1.091   0.103 -3.8073  0.9371  0.1727
 9845TIP3    H229479   2.575   0.986   0.205 -1.9991 -0.4186 -0.4778
 9846TIP3   OH229480   3.679   2.581   1.528  0.4880  0.5286  0.6466
 9846TIP3    H129481   3.606   2.643   1.524  0.3249  0.4584  2.0034
 9846TIP3    H229482   3.741   2.620   1.589  1.0085 -0.0157  0.4804
 9847TIP3   OH229483   1.434   2.440   0.402 -0.2224 -0.4199  0.5027
 9847TIP3    H129484   1.359   2.448   0.461 -0.3767 -0.7838  0.3557
 9847TIP3    H229485   1.448   2.346   0.393  0.9836 -0.3583  1.4498
 9848TIP3   OH229486   1.316   6.906   5.204 -0.0402  0.6124 -0.3020
 9848TIP3    H129487   1.402   6.895   5.163 -0.5835  0.7340 -1.5002
 9848TIP3    H229488   1.310   6.833   5.266  2.1192  2.1878  2.0155
 9849TIP3   OH229489   5.783   5.892   0.469  0.1018 -0.0003 -0.4373
 9849TIP3    H129490   5.858   5.946   0.496  2.8234 -0.8400 -5.1851
 9849TIP3    H229491   5.712   5.955   0.458  2.1842  2.2106 -2.4765
 9850TIP3   OH229492   6.337   7.472   5.540 -0.2265  0.3161  0.4693
 9850TIP3    H129493   6.419   7.507   5.507  0.1796 -0.3280  0.7696
 9850TIP3    H229494   6.315   7.529   5.614  0.3210  0.0822  0.8256
 9851TIP3   OH229495   4.714   3.913   6.656  0.1416  0.2703  0.2314
 9851TIP3    H129496   4.696   3.997   6.696  0.1437  0.3170  0.1347
 9851TIP3    H229497   4.797   3.926   6.609  0.1720  0.1979  0.2646
 9852TIP3   OH229498   1.305   6.569   3.467 -0.2679 -0.0174  0.0237
 9852TIP3    H129499   1.270   6.645   3.419  0.4422 -0.1501 -0.7420
 9852TIP3    H229500   1.366   6.529   3.405 -0.8526 -1.3950  0.3137
 9853TIP3   OH229501   6.033   0.048   6.152 -0.5799 -0.3108 -0.3564
 9853TIP3    H129502   6.052   0.130   6.107  0.3690  0.8746  2.0581
 9853TIP3    H229503   6.115  -0.001   6.148 -0.3258  0.0244  0.4618
 9854TIP3   OH229504   6.618   7.741   0.503 -0.2188  0.3707 -0.0866
 9854TIP3    H129505   6.703   7.773   0.531  0.0890  0.6913 -1.3367
 9854TIP3    H229506   6.555   7.789   0.557  0.2793  2.3802 -1.2257
 9855TIP3   OH229507   0.276   6.017   5.293  0.5039  0.3565 -0.1568
 9855TIP3    H129508   0.339   6.034   5.363  1.7240 -0.4800 -1.0306
 9855TIP3    H229509   0.318   6.051   5.214 -0.3142  0.1449 -0.6941
 9856TIP3   OH229510   6.468   2.799   1.072 -0.0955  0.1232  0.1634
 9856TIP3    H129511   6.419   2.779   0.993 -1.9716 -0.8523  1.4959
 9856TIP3    H229512   6.425   2.875   1.110 -0.2424 -0.3749  1.0400
 9857TIP3   OH229513   5.409   1.683   2.614  0.3673  0.2133 -0.0039
 9857TIP3    H129514   5.426   1.725   2.698  0.1651  1.0055 -0.3466
 9857TIP3    H229515   5.492   1.640   2.592 -0.0941 -1.5210  1.4145
 9858TIP3   OH229516   5.312   2.284  -0.006  0.3069 -0.3835 -0.1441
 9858TIP3    H129517   5.316   2.347   0.066  0.5694  0.5211 -0.9343
 9858TIP3    H229518   5.224   2.247  -0.001 -0.1037  0.5822 -0.1225
 9859TIP3   OH229519   6.365   5.788   1.379  0.7420 -0.6246 -0.6132
 9859TIP3    H129520   6.285   5.735   1.373 -0.0294 -0.1516  2.9267
 9859TIP3    H229521   6.405   5.781   1.293 -2.2773 -2.2142 -2.0642
 9860TIP3   OH229522   2.827   4.138   2.623 -0.0293 -0.1723 -0.6035
 9860TIP3    H129523   2.808   4.053   2.584 -3.4874 -1.5047  3.2485
 9860TIP3    H229524   2.778   4.138   2.706  2.1170  4.4729  1.0247
 9861TIP3   OH229525   5.438   2.929   3.640 -0.5018 -0.2762  0.2599
 9861TIP3    H129526   5.400   2.945   3.726  0.4413  1.5885  0.3671
 9861TIP3    H229527   5.532   2.930   3.655 -0.3096  0.9637 -0.9263
 9862TIP3   OH229528   1.051   5.306   6.254 -0.7387  0.1360  0.6577
 9862TIP3    H129529   1.064   5.222   6.210 -2.0147 -0.6291  1.6604
 9862TIP3    H229530   1.124   5.360   6.225  0.3116 -1.4331  0.2606
 9863TIP3   OH229531   7.499   2.967   5.163 -0.5518  0.0700 -0.4081
 9863TIP3    H129532   7.501   3.062   5.164  0.1634  0.0705 -0.8155
 9863TIP3    H229533   7.407   2.944   5.153 -1.0695  0.6596  2.3633
 9864TIP3   OH229534   7.035   0.244   0.962  0.5740 -0.2162  0.2562
 9864TIP3    H129535   7.083   0.310   1.013  0.2406 -0.5925  1.0822
 9864TIP3    H229536   6.996   0.187   1.028 -0.5298 -0.2617 -0.4001
 9865TIP3   OH229537   2.647   1.734   1.924  0.4431 -0.0193  0.2082
 9865TIP3    H129538   2.728   1.691   1.897 -0.4594 -1.3008 -0.5697
 9865TIP3    H229539   2.647   1.817   1.876  0.9355 -0.3484 -0.3720
 9866TIP3   OH229540   5.517   6.745   1.178  0.1319 -0.1678  0.3597
 9866TIP3    H129541   5.603   6.773   1.208  0.3349 -2.1254  1.7903
 9866TIP3    H229542   5.462   6.748   1.256 -0.7044 -0.4119 -0.1993
 9867TIP3   OH229543   3.526   2.754   0.549 -0.7279  0.2536 -1.0369
 9867TIP3    H129544   3.490   2.675   0.509  0.3888 -0.5673 -0.4948
 9867TIP3    H229545   3.528   2.818   0.478  0.9041 -1.0573 -2.2609
 9868TIP3   OH229546   2.802   5.133   3.220 -0.0359  0.5554 -0.1955
 9868TIP3    H129547   2.711   5.130   3.190 -0.0899 -0.3303  0.0113
 9868TIP3    H229548   2.853   5.151   3.142 -0.2017 -1.4044 -0.8149
 9869TIP3   OH229549   3.614   1.543   5.714  0.1553 -0.2129 -0.1046
 9869TIP3    H129550   3.602   1.558   5.620 -2.7907 -2.1386 -0.1396
 9869TIP3    H229551   3.572   1.618   5.756  0.4282  0.0574 -0.3123
 9870TIP3   OH229552   3.257   7.624   1.957 -0.0521 -0.4514 -0.0335
 9870TIP3    H129553   3.269   7.699   1.898 -0.2289 -1.2066 -1.0605
 9870TIP3    H229554   3.346   7.598   1.981  0.1877 -1.6676 -1.9882
 9871TIP3   OH229555   1.257   2.554   1.431 -0.2250 -0.0433 -0.0518
 9871TIP3    H129556   1.258   2.598   1.346  0.8143 -0.2085 -0.1272
 9871TIP3    H229557   1.318   2.481   1.422 -1.2986 -1.0202  0.3427
 9872TIP3   OH229558   5.741   2.291   3.442  0.5923  0.1842  0.2366
 9872TIP3    H129559   5.678   2.362   3.430 -0.4068 -0.7338 -0.1106
 9872TIP3    H229560   5.809   2.329   3.499  0.0657  1.3899  0.0972
 9873TIP3   OH229561   2.928   7.604   5.495  0.2354  0.5145  0.0989
 9873TIP3    H129562   2.885   7.525   5.462  0.4060  1.3763 -2.4085
 9873TIP3    H229563   2.866   7.674   5.477  0.2393  1.0703  1.9729
 9874TIP3   OH229564   6.369   0.936   5.114 -0.0553 -0.4795 -0.0264
 9874TIP3    H129565   6.296   0.946   5.175 -1.7422  1.1332 -2.2105
 9874TIP3    H229566   6.357   0.849   5.077 -0.6980 -0.3486 -0.1393
 9875TIP3   OH229567   6.931   1.568   6.213 -0.3657  0.1424  0.1352
 9875TIP3    H129568   7.022   1.584   6.187 -0.1080 -0.6298  0.5245
 9875TIP3    H229569   6.886   1.551   6.130 -0.0602  0.0840 -0.0231
 9876TIP3   OH229570   3.163   2.183   5.461 -0.7156  0.2728  0.3977
 9876TIP3    H129571   3.183   2.234   5.382 -0.8387 -0.2700  0.0112
 9876TIP3    H229572   3.157   2.248   5.530  0.6475  0.6523  0.2048
 9877TIP3   OH229573   4.909   3.491   0.519 -0.1744 -0.2441 -0.3163
 9877TIP3    H129574   4.899   3.431   0.592 -0.5420 -0.4962 -0.5670
 9877TIP3    H229575   5.000   3.519   0.522 -0.5254  0.8320  1.0643
 9878TIP3   OH229576   6.555   2.358   3.136 -0.6900 -0.0513 -0.0543
 9878TIP3    H129577   6.588   2.437   3.093 -3.2494 -0.1376 -2.4549
 9878TIP3    H229578   6.503   2.390   3.210 -1.4155  0.5184 -0.7959
 9879TIP3   OH229579   3.252   2.432   1.536  0.5243 -0.3785 -0.3742
 9879TIP3    H129580   3.206   2.436   1.453  0.8653 -0.8335 -0.5902
 9879TIP3    H229581   3.185   2.450   1.602  0.4298  0.8465 -0.7958
 9880TIP3   OH229582   6.014   3.328   6.482 -0.3137  0.0391 -0.2233
 9880TIP3    H129583   6.069   3.396   6.442  1.3916  0.5711  2.7356
 9880TIP3    H229584   6.074   3.254   6.495 -1.2964 -0.7810 -0.3059
 9881TIP3   OH229585   8.034   3.408   2.016 -0.1540  0.1417 -0.6504
 9881TIP3    H129586   8.035   3.336   1.954  0.5206 -1.2318  0.8975
 9881TIP3    H229587   7.958   3.391   2.072  1.1994 -0.5915  1.0477
 9882TIP3   OH229588   5.335   4.999   0.557 -0.1418 -0.0390 -0.2660
 9882TIP3    H129589   5.302   4.942   0.488 -0.7382 -0.3765  0.2854
 9882TIP3    H229590   5.347   4.942   0.633  1.7186  0.0825 -0.4262
 9883TIP3   OH229591   6.800   0.289   2.373 -0.1877  0.0409 -0.3101
 9883TIP3    H129592   6.747   0.320   2.299  0.3034 -1.7436 -1.4808
 9883TIP3    H229593   6.890   0.290   2.339  0.1276 -0.1598  0.5047
 9884TIP3   OH229594   2.191   7.705   5.711  0.5803 -0.0520  0.0646
 9884TIP3    H129595   2.285   7.712   5.725  0.6428 -0.3162 -0.1982
 9884TIP3    H229596   2.167   7.785   5.664  0.4288  0.6687  1.3418
 9885TIP3   OH229597   0.595   5.605   6.749  0.4030 -0.0782 -0.0355
 9885TIP3    H129598   0.638   5.547   6.812 -2.5435 -1.4597  0.8672
 9885TIP3    H229599   0.575   5.548   6.674 -0.0149  0.4974 -0.3637
 9886TIP3   OH229600   6.207   6.010   1.476  0.1602 -0.5893 -0.4307
 9886TIP3    H129601   6.247   6.082   1.524  0.2469 -0.0160 -1.3449
 9886TIP3    H229602   6.279   5.948   1.462  0.2643 -0.4936 -0.3221
 9887TIP3   OH229603   3.030   0.044   1.319 -0.1711  0.8759 -0.4211
 9887TIP3    H129604   3.046   0.132   1.286 -2.7703  1.6057  0.0368
 9887TIP3    H229605   2.964   0.008   1.259  0.1027 -0.3843  0.0054
 9888TIP3   OH229606   2.309   5.900   2.642  0.0147 -0.1227  0.2717
 9888TIP3    H129607   2.354   5.921   2.560  0.1917  1.7875  0.8195
 9888TIP3    H229608   2.227   5.858   2.615 -0.1907  0.9887 -0.9033
 9889TIP3   OH229609   0.543   0.955   6.147  0.2390 -0.1815 -0.0025
 9889TIP3    H129610   0.526   1.026   6.086 -2.3378 -0.6983  0.0026
 9889TIP3    H229611   0.538   0.995   6.234 -1.0440 -0.3091 -0.0053
 9890TIP3   OH229612   7.599   0.583   0.310  0.4632 -0.1774  0.0428
 9890TIP3    H129613   7.689   0.586   0.342  0.4084  0.0175  0.1764
 9890TIP3    H229614   7.548   0.550   0.384  0.5038 -0.8358 -0.2104
 9891TIP3   OH229615   0.927   2.706   1.943  0.9242 -0.1384  0.3749
 9891TIP3    H129616   0.877   2.681   2.021  1.8248  1.3602  1.4961
 9891TIP3    H229617   1.016   2.675   1.961  1.6431  2.0889  0.9844
 9892TIP3   OH229618   4.977   4.952   1.635 -0.1244  0.3827 -0.4443
 9892TIP3    H129619   4.919   5.025   1.615  0.5560  1.8287  2.4014
 9892TIP3    H229620   5.065   4.990   1.632  0.6271 -1.2771 -2.5734
 9893TIP3   OH229621   4.048   5.319   2.641 -0.0933  0.1308  0.5392
 9893TIP3    H129622   4.111   5.330   2.712 -1.3226 -0.1680  1.7171
 9893TIP3    H229623   3.998   5.242   2.665 -1.2828  0.6858 -0.0863
 9894TIP3   OH229624   4.420   2.372   0.375  0.8178 -0.6088  0.5371
 9894TIP3    H129625   4.343   2.418   0.409  0.2078 -0.9739 -0.3202
 9894TIP3    H229626   4.387   2.287   0.347  1.4425 -0.6009 -0.2623
 9895TIP3   OH229627   6.140   2.594   4.696 -0.9153 -0.0393 -0.0341
 9895TIP3    H129628   6.197   2.668   4.676 -1.5821  0.4551 -0.1196
 9895TIP3    H229629   6.196   2.517   4.683 -0.0411  0.4614  0.6521
 9896TIP3   OH229630   4.870   2.121   5.153 -0.4333 -0.6346 -0.8130
 9896TIP3    H129631   4.805   2.106   5.085  0.2935  0.2081 -1.7323
 9896TIP3    H229632   4.953   2.127   5.106  0.3397 -1.6896  0.3229
 9897TIP3   OH229633   3.602   7.646   2.871 -0.4181 -0.0075  0.1150
 9897TIP3    H129634   3.533   7.636   2.805 -0.6809  0.1187  0.3705
 9897TIP3    H229635   3.555   7.650   2.954 -0.0224 -1.8238  0.4805
 9898TIP3   OH229636   6.277   6.367   2.745  0.1352  0.8903  0.0598
 9898TIP3    H129637   6.339   6.333   2.810 -1.6791 -0.4947  1.1416
 9898TIP3    H229638   6.333   6.404   2.676  2.2341 -1.9913  0.0391
 9899TIP3   OH229639   0.755   0.316   2.532  0.2591 -0.2311 -0.1133
 9899TIP3    H129640   0.809   0.310   2.611  1.6993  0.5122 -1.0149
 9899TIP3    H229641   0.713   0.401   2.539  1.2442  0.3128 -0.6620
 9900TIP3   OH229642   6.210   6.139   6.387 -0.2664 -0.4782 -0.9860
 9900TIP3    H129643   6.259   6.120   6.466  1.1527  0.8771 -1.4869
 9900TIP3    H229644   6.135   6.191   6.416  0.3894  0.2373 -0.5390
 9901TIP3   OH229645   5.108   4.080   5.503 -0.4406 -0.1445 -0.5894
 9901TIP3    H129646   5.135   4.162   5.543 -0.5543 -0.3840 -0.0154
 9901TIP3    H229647   5.149   4.081   5.416  0.1990  0.1612 -0.2894
 9902TIP3   OH229648   6.028   3.936   4.828 -0.2499 -0.4342  0.4931
 9902TIP3    H129649   6.070   4.007   4.876 -1.9818  1.4124 -0.5643
 9902TIP3    H229650   6.099   3.892   4.783  1.4183 -1.9823  4.1843
 9903TIP3   OH229651   0.686   3.280   4.882 -0.4904  0.7483  0.2616
 9903TIP3    H129652   0.618   3.229   4.927 -2.3408  0.9227 -2.1670
 9903TIP3    H229653   0.719   3.221   4.815 -0.0203  1.5212 -0.1948
 9904TIP3   OH229654   4.069   2.487   5.331 -0.2110 -0.5264 -0.4828
 9904TIP3    H129655   4.161   2.504   5.353 -0.1222 -1.6114  0.0672
 9904TIP3    H229656   4.054   2.397   5.360 -2.0042  0.2491  1.2801
 9905TIP3   OH229657   5.625   7.140   1.135 -0.0853 -0.1489 -0.3571
 9905TIP3    H129658   5.570   7.134   1.213  1.0677  1.0220  0.5985
 9905TIP3    H229659   5.581   7.204   1.079 -0.5580 -0.4691 -0.3509
 9906TIP3   OH229660   0.032   1.380   3.782 -0.3421  0.2713 -0.0791
 9906TIP3    H129661  -0.012   1.418   3.858  0.9508  0.4848  0.5751
 9906TIP3    H229662   0.087   1.450   3.748 -0.2808 -0.0795 -0.7152
 9907TIP3   OH229663   4.085   1.499   2.311  0.3804 -0.2991  0.1498
 9907TIP3    H129664   4.032   1.430   2.351 -0.0579 -0.3677 -0.5402
 9907TIP3    H229665   4.169   1.495   2.358  0.1989 -0.9873  0.4317
 9908TIP3   OH229666   8.004   3.232   1.792  0.4999 -0.1884  0.1637
 9908TIP3    H129667   7.933   3.235   1.728  0.9664  1.7504 -0.3268
 9908TIP3    H229668   8.083   3.255   1.742  0.6266  3.1347  1.6685
 9909TIP3   OH229669   1.289   3.038   6.698 -0.9327 -0.2708 -0.0880
 9909TIP3    H129670   1.260   3.122   6.663 -1.2136 -0.7294 -0.9986
 9909TIP3    H229671   1.218   3.010   6.756 -1.7433 -0.7649 -1.2774
 9910TIP3   OH229672   2.856   3.725   6.113  0.1291  0.3919 -0.0416
 9910TIP3    H129673   2.865   3.639   6.155 -2.0081  0.0337 -0.1721
 9910TIP3    H229674   2.804   3.707   6.034  1.4710  1.5141 -1.2308
 9911TIP3   OH229675   2.085   6.911   3.598  0.0216  0.1349  0.1406
 9911TIP3    H129676   2.060   6.914   3.691 -2.2921 -0.3365 -0.4114
 9911TIP3    H229677   2.088   6.818   3.577 -0.7187  0.2621 -0.5569
 9912TIP3   OH229678   7.439   6.744   3.626  0.1709  0.6954 -0.2573
 9912TIP3    H129679   7.382   6.770   3.554  0.2528  0.8690 -0.2589
 9912TIP3    H229680   7.388   6.680   3.675 -0.1908  1.1646 -0.0112
 9913TIP3   OH229681   2.736   2.592   5.765  0.0403 -0.3875  0.3459
 9913TIP3    H129682   2.792   2.658   5.807 -0.7434 -0.0180  0.8267
 9913TIP3    H229683   2.675   2.566   5.833 -0.8341 -0.2590 -0.3733
 9914TIP3   OH229684   5.154   4.006   4.464  0.0746 -0.4227 -0.4600
 9914TIP3    H129685   5.210   4.005   4.386  1.1218 -1.2811  0.2732
 9914TIP3    H229686   5.165   4.093   4.501  2.5916 -1.1749  0.7917
 9915TIP3   OH229687   1.779   6.578   0.779  0.1795 -0.1007  0.3550
 9915TIP3    H129688   1.868   6.556   0.754 -0.8621 -3.2315 -1.1364
 9915TIP3    H229689   1.771   6.548   0.869  0.0385 -2.1062 -0.2747
 9916TIP3   OH229690   4.557   0.300   5.226  0.3398  0.2673  0.2449
 9916TIP3    H129691   4.604   0.375   5.261  0.6057 -0.1811  0.8688
 9916TIP3    H229692   4.467   0.310   5.258  0.5920 -0.1654  1.1152
 9917TIP3   OH229693   7.726   1.287   3.741 -0.5041  0.7529  0.0834
 9917TIP3    H129694   7.663   1.292   3.670  2.7774  1.4385 -3.0483
 9917TIP3    H229695   7.766   1.374   3.745  0.2291  0.3802  1.9758
 9918TIP3   OH229696   7.471   2.897   5.795  0.5857 -0.1941  0.7380
 9918TIP3    H129697   7.475   2.925   5.887 -0.0293  1.5448  0.2599
 9918TIP3    H229698   7.411   2.958   5.754 -1.2228 -2.5172 -0.2971
 9919TIP3   OH229699   2.755   5.580   0.844 -0.0454 -0.3630 -0.3079
 9919TIP3    H129700   2.723   5.654   0.792  0.0785  0.7287  1.0802
 9919TIP3    H229701   2.844   5.564   0.812  0.8694  1.7319  0.9215
 9920TIP3   OH229702   2.783   1.614   6.319  0.9366  0.2543  0.1851
 9920TIP3    H129703   2.791   1.520   6.304  0.9698  0.6422 -2.9430
 9920TIP3    H229704   2.697   1.637   6.283  1.0408  1.4561  0.6642
 9921TIP3   OH229705   0.954   2.263   0.155 -0.5600  0.3919 -0.2601
 9921TIP3    H129706   0.964   2.355   0.180  1.3757  0.0915  0.2105
 9921TIP3    H229707   0.997   2.214   0.225 -0.0157 -0.7820 -1.3753
 9922TIP3   OH229708   6.128   5.049   5.655 -0.4824 -0.6531 -0.4091
 9922TIP3    H129709   6.076   5.033   5.733 -0.4250 -0.0242 -0.2355
 9922TIP3    H229710   6.095   5.132   5.620  0.2096 -0.3838 -0.4491
 9923TIP3   OH229711   1.031   7.043   1.957  0.0314  0.1272  0.0441
 9923TIP3    H129712   0.963   7.034   2.023 -1.4809  0.2463 -1.4326
 9923TIP3    H229713   0.984   7.056   1.875  1.7369  5.5736 -0.4783
 9924TIP3   OH229714   7.011   1.116   1.993 -0.4647  0.4902 -0.2150
 9924TIP3    H129715   7.106   1.115   2.003 -0.5938 -0.3781  1.3242
 9924TIP3    H229716   6.989   1.029   1.959 -0.9095 -0.6271  2.6166
 9925TIP3   OH229717   2.486   4.010   3.713  0.2263  0.4246 -0.1291
 9925TIP3    H129718   2.426   3.970   3.651  1.6261 -0.1031 -1.2032
 9925TIP3    H229719   2.470   4.104   3.706  1.1571  0.4810 -2.2118
 9926TIP3   OH229720   6.065   7.058   0.910 -0.2478  0.2800  0.1280
 9926TIP3    H129721   6.159   7.037   0.916 -0.1580  1.0300  2.2397
 9926TIP3    H229722   6.062   7.153   0.919 -1.1854  0.3559 -0.8232
 9927TIP3   OH229723   7.871   3.544   2.620  0.6755  0.1510 -0.1027
 9927TIP3    H129724   7.858   3.560   2.713  0.4118 -0.6731  0.0113
 9927TIP3    H229725   7.785   3.559   2.581  0.8941  0.9493 -0.2825
 9928TIP3   OH229726   4.979   2.980   2.535 -0.1442 -0.8970  0.1347
 9928TIP3    H129727   5.068   2.955   2.560  0.0618  1.0779  1.5189
 9928TIP3    H229728   4.926   2.965   2.614 -1.3201 -3.0156 -0.9532
 9929TIP3   OH229729   4.362   7.148   3.662  0.8130  0.8035  0.5291
 9929TIP3    H129730   4.290   7.162   3.601  0.5360 -1.1974  0.3289
 9929TIP3    H229731   4.338   7.199   3.739  0.2231  1.8171 -0.2907
 9930TIP3   OH229732   7.259   1.150   0.632 -0.3041 -0.4247 -0.6243
 9930TIP3    H129733   7.301   1.135   0.548 -0.7676  1.1464 -1.1684
 9930TIP3    H229734   7.332   1.171   0.692 -0.1729  0.9296 -1.2356
 9931TIP3   OH229735   1.811   0.355   5.921 -0.2253 -0.3480  0.0831
 9931TIP3    H129736   1.797   0.261   5.926  1.8073 -0.7624 -0.9561
 9931TIP3    H229737   1.905   0.366   5.930 -0.4027  1.5789  0.0347
 9932TIP3   OH229738   1.265   1.944   4.864  0.1174  0.4224  0.0734
 9932TIP3    H129739   1.329   1.936   4.934  0.9459 -0.2885 -0.7262
 9932TIP3    H229740   1.316   1.969   4.787 -0.0024 -2.9862 -1.2972
 9933TIP3   OH229741   5.657   7.588   0.852 -0.0286 -0.1545  0.3258
 9933TIP3    H129742   5.721   7.655   0.878 -2.2353  1.7705  1.1661
 9933TIP3    H229743   5.663   7.585   0.757  1.4770 -0.2084  0.4072
 9934TIP3   OH229744   6.204   6.371   0.561 -0.7492  0.1246 -0.4803
 9934TIP3    H129745   6.244   6.457   0.574  1.1853 -0.7637 -0.1426
 9934TIP3    H229746   6.123   6.374   0.612  0.8945  0.7014  2.3062
 9935TIP3   OH229747   7.450   6.727   2.320 -0.0403  0.2229 -0.1403
 9935TIP3    H129748   7.468   6.633   2.327 -0.1865  0.3437  2.6910
 9935TIP3    H229749   7.534   6.765   2.293  1.3851 -0.2924  3.1609
 9936TIP3   OH229750   5.620   0.243   4.823 -0.1950  0.1329  0.4838
 9936TIP3    H129751   5.571   0.244   4.906 -2.5310  0.8612 -0.8067
 9936TIP3    H229752   5.582   0.314   4.772  1.6040  0.0950 -1.0131
 9937TIP3   OH229753   5.050   3.935   0.648  0.0784 -0.1100  0.3378
 9937TIP3    H129754   4.966   3.913   0.687 -0.2182  0.7644  0.2099
 9937TIP3    H229755   5.075   4.017   0.690 -0.2419  0.8519 -1.2579
 9938TIP3   OH229756   6.994   0.962   1.544 -0.4767 -0.3982 -0.2095
 9938TIP3    H129757   6.990   1.045   1.592 -1.6561 -1.0902  0.9509
 9938TIP3    H229758   6.904   0.944   1.518 -0.1701 -1.1189 -0.8059
 9939TIP3   OH229759   1.729   2.057   2.514 -0.5177  0.6874 -0.2459
 9939TIP3    H129760   1.758   1.983   2.460 -0.8211  1.1807 -1.1106
 9939TIP3    H229761   1.655   2.094   2.465  0.1451  2.0644 -0.2399
 9940TIP3   OH229762   2.932   6.231   6.435 -0.2690  0.3609  0.3181
 9940TIP3    H129763   2.863   6.182   6.391  1.3276 -0.5417 -1.2822
 9940TIP3    H229764   2.990   6.164   6.471  0.7414  1.0759  0.0606
 9941TIP3   OH229765   0.745   5.991   4.899  0.3873  0.0526 -0.0483
 9941TIP3    H129766   0.706   5.924   4.954 -1.3479  0.4565 -0.7337
 9941TIP3    H229767   0.829   6.010   4.941 -0.5724 -0.1184  2.0931
 9942TIP3   OH229768   7.687   5.785   2.303  0.1017  0.2996 -0.1308
 9942TIP3    H129769   7.776   5.776   2.337 -0.2128  0.3582  0.7346
 9942TIP3    H229770   7.679   5.878   2.280  0.5461  0.1210 -1.0432
 9943TIP3   OH229771   1.121   0.544   4.004 -0.2591  0.3075 -0.5078
 9943TIP3    H129772   1.179   0.587   4.067 -0.2551  0.2638 -0.4820
 9943TIP3    H229773   1.033   0.570   4.032 -0.2571  0.2935 -0.4882
 9944TIP3   OH229774   7.511   7.044   5.073  0.2329 -0.0117 -0.0122
 9944TIP3    H129775   7.473   6.959   5.094  3.9675 -1.6097  1.2657
 9944TIP3    H229776   7.459   7.107   5.123 -1.1240 -1.8555  1.0034
 9945TIP3   OH229777   5.727   0.465   0.546 -0.4387 -0.0196  0.2880
 9945TIP3    H129778   5.697   0.387   0.593 -0.6824 -0.1983 -0.1585
 9945TIP3    H229779   5.693   0.454   0.457  0.1440  0.2426  0.0285
 9946TIP3   OH229780   7.474   4.576   3.699 -0.5539  0.0023 -0.0938
 9946TIP3    H129781   7.479   4.631   3.777 -0.9716  0.1053 -0.1365
 9946TIP3    H229782   7.519   4.626   3.631 -0.0517 -0.1568  0.1173
 9947TIP3   OH229783   0.395   7.507   2.971 -0.0870 -0.4156 -0.1054
 9947TIP3    H129784   0.417   7.471   3.057  3.2835  1.6671  0.1019
 9947TIP3    H229785   0.312   7.553   2.985  0.9856  0.9515  2.4751
 9948TIP3   OH229786   2.053   4.436   5.518 -0.5897 -0.2516 -0.2281
 9948TIP3    H129787   1.960   4.427   5.495 -0.2013  0.7288 -2.4586
 9948TIP3    H229788   2.073   4.528   5.502  0.4364 -0.0540  1.7909
 9949TIP3   OH229789   1.722   0.403   5.575  0.5115  0.1832 -0.3931
 9949TIP3    H129790   1.738   0.334   5.640 -1.7302  0.6136  0.7202
 9949TIP3    H229791   1.809   0.427   5.544  1.4433 -2.3815 -0.0332
 9950TIP3   OH229792   3.299   4.061   1.428  0.2113  0.3923  0.3687
 9950TIP3    H129793   3.355   4.111   1.368 -0.6495  0.9143 -0.0271
 9950TIP3    H229794   3.276   4.124   1.496  2.4398 -0.6034  2.1694
 9951TIP3   OH229795   4.314   0.753   0.627 -0.2087  0.1032  0.0371
 9951TIP3    H129796   4.397   0.710   0.649  0.6298  0.0988 -2.7707
 9951TIP3    H229797   4.332   0.799   0.545 -3.4078 -1.3048 -1.6168
 9952TIP3   OH229798   5.232   3.902   1.755  0.3357  0.0155  0.0416
 9952TIP3    H129799   5.298   3.971   1.768  0.4842 -0.2690  0.8351
 9952TIP3    H229800   5.148   3.946   1.768  0.4666 -0.1858  1.7106
 9953TIP3   OH229801   4.247   2.311   2.361  0.0516  0.1127  0.8914
 9953TIP3    H129802   4.176   2.289   2.421  0.1410  1.2582  1.4408
 9953TIP3    H229803   4.210   2.298   2.274 -0.3310 -0.7933  1.1826
 9954TIP3   OH229804   0.108   6.673   2.821  0.1604 -0.0021 -0.5293
 9954TIP3    H129805   0.139   6.763   2.831  0.2372 -0.0712 -0.1408
 9954TIP3    H229806   0.014   6.682   2.807 -0.1130  0.0638  1.1538
 9955TIP3   OH229807   3.592   1.710   6.198 -0.5893 -0.2219  0.3350
 9955TIP3    H129808   3.669   1.735   6.146 -2.0348  0.6682 -1.5034
 9955TIP3    H229809   3.589   1.614   6.192  1.5063 -0.4960  2.2366
 9956TIP3   OH229810   2.126   1.506   1.476 -0.4099 -0.0881 -0.3119
 9956TIP3    H129811   2.206   1.512   1.529 -0.6900  0.2948  0.0752
 9956TIP3    H229812   2.072   1.442   1.521 -0.8681  0.6249  0.1677
 9957TIP3   OH229813   2.186   3.821   6.571  0.6778  0.2989  0.2024
 9957TIP3    H129814   2.128   3.837   6.645  1.1607  0.3890  0.5720
 9957TIP3    H229815   2.188   3.905   6.524 -0.9748 -0.2436 -0.9079
 9958TIP3   OH229816   4.465   0.924   3.437  0.2739  0.1939 -0.5048
 9958TIP3    H129817   4.472   0.919   3.341 -0.3527  0.0957 -0.5500
 9958TIP3    H229818   4.398   0.991   3.452 -0.5695 -0.6981 -0.1742
 9959TIP3   OH229819   3.621   6.860   0.046 -0.6826  0.0221  0.1979
 9959TIP3    H129820   3.568   6.898   0.116 -0.7508 -1.6556  1.1278
 9959TIP3    H229821   3.561   6.853  -0.028 -0.2119  3.1749 -0.5849
 9960TIP3   OH229822   4.283   1.346   5.423  0.5818  0.0221 -0.0624
 9960TIP3    H129823   4.254   1.261   5.390 -1.8271  1.1390 -0.9873
 9960TIP3    H229824   4.330   1.386   5.350  0.4484  0.0728 -0.1206
 9961TIP3   OH229825   2.164   2.668   4.552 -0.2281 -0.4834 -0.0724
 9961TIP3    H129826   2.239   2.614   4.528  0.3479  0.1073  0.3786
 9961TIP3    H229827   2.091   2.631   4.502 -0.0855 -2.3581  1.0208
 9962TIP3   OH229828   4.003   4.894   0.753  0.1630  0.0149 -0.1913
 9962TIP3    H129829   3.976   4.820   0.808  0.7229  0.2991  0.4891
 9962TIP3    H229830   4.063   4.944   0.809 -0.3484  1.0846 -0.5832
 9963TIP3   OH229831   5.410   1.424   3.609 -0.1787 -0.2818  0.4388
 9963TIP3    H129832   5.376   1.480   3.679 -0.7473 -0.3130  0.1909
 9963TIP3    H229833   5.356   1.345   3.613 -1.6524  0.5530 -1.3841
 9964TIP3   OH229834   5.902   1.852   3.697 -0.2401  0.5122  0.1402
 9964TIP3    H129835   5.819   1.898   3.699  0.8873  2.6362  0.8917
 9964TIP3    H229836   5.959   1.901   3.756  1.1562 -1.7084  0.7710
 9965TIP3   OH229837   8.291   0.653   5.173  0.5553  0.1175  0.3357
 9965TIP3    H129838   8.276   0.725   5.235 -0.5153 -0.0728  0.3161
 9965TIP3    H229839   8.320   0.695   5.093  0.7854  0.4541  0.5927
 9966TIP3   OH229840   3.969   4.331   1.422 -0.2395 -0.1205  0.7228
 9966TIP3    H129841   4.020   4.328   1.503  0.5924  3.1540  0.4350
 9966TIP3    H229842   3.888   4.375   1.446  0.1297  1.1270 -0.2513
 9967TIP3   OH229843   1.241   4.120   2.298 -0.2300  0.0389 -0.2187
 9967TIP3    H129844   1.313   4.145   2.240 -0.2840 -0.2416 -0.4063
 9967TIP3    H229845   1.190   4.057   2.247 -1.1792  0.9789 -0.4794
 9968TIP3   OH229846   4.664   5.125   1.404  0.4595 -0.0596 -0.2937
 9968TIP3    H129847   4.666   5.211   1.445  3.0315  0.5050 -1.4152
 9968TIP3    H229848   4.615   5.070   1.466 -0.5471  1.9765  0.8187
 9969TIP3   OH229849   5.874   0.436   1.585 -0.6217  0.2805 -0.2993
 9969TIP3    H129850   5.945   0.469   1.641 -0.0591 -0.4398 -0.5729
 9969TIP3    H229851   5.824   0.377   1.642 -0.5051  0.1440 -0.3372
 9970TIP3   OH229852   3.831   5.957   6.266 -0.2942 -0.3689 -0.2115
 9970TIP3    H129853   3.840   6.019   6.194 -1.3027 -0.2824 -0.2787
 9970TIP3    H229854   3.839   5.871   6.225  0.1409 -0.3054 -0.2656
 9971TIP3   OH229855   2.555   6.826   0.524  0.7353  0.5034 -0.6032
 9971TIP3    H129856   2.520   6.737   0.522 -2.6425  1.6895 -0.5751
 9971TIP3    H229857   2.561   6.852   0.433 -1.7912  1.3823 -0.5908
 9972TIP3   OH229858   3.754   4.055   5.898  0.4474  0.2990  0.0045
 9972TIP3    H129859   3.709   4.128   5.942 -0.4085  0.0556 -0.4362
 9972TIP3    H229860   3.846   4.070   5.916  0.1176 -0.0489  2.2554
 9973TIP3   OH229861   5.873   2.804   3.486 -0.0326 -0.0763  0.5011
 9973TIP3    H129862   5.876   2.875   3.422  1.1172  0.7577  1.4377
 9973TIP3    H229863   5.783   2.802   3.517 -0.2066  0.5914  0.0476
 9974TIP3   OH229864   6.776   3.471   4.040  0.2025 -0.3572 -0.5097
 9974TIP3    H129865   6.766   3.509   3.953  0.0340  1.5619  0.3017
 9974TIP3    H229866   6.855   3.511   4.075  0.1284 -0.9133  0.3253
 9975TIP3   OH229867   1.758   0.961   6.169  0.7125 -0.5240  0.1358
 9975TIP3    H129868   1.843   0.995   6.197  0.9089  0.1310 -1.1862
 9975TIP3    H229869   1.774   0.868   6.152  0.7514 -0.7777  1.4492
 9976TIP3   OH229870   5.876   0.950   2.735  0.2479 -0.0064 -0.3224
 9976TIP3    H129871   5.949   0.988   2.784 -0.1912 -0.9900  1.2073
 9976TIP3    H229872   5.875   0.858   2.763 -1.3106 -0.1024 -0.6079
 9977TIP3   OH229873   1.442   2.182   2.525 -0.1687 -0.3426 -0.7800
 9977TIP3    H129874   1.486   2.264   2.503 -0.2741 -0.5098 -1.6482
 9977TIP3    H229875   1.365   2.210   2.575  0.2294  0.0333 -0.3746
 9978TIP3   OH229876   7.662   7.246   1.381 -0.1628 -0.1474 -0.0657
 9978TIP3    H129877   7.614   7.302   1.320 -1.5940  1.4586  2.3298
 9978TIP3    H229878   7.753   7.272   1.372 -0.2929 -0.1434 -1.6423
 9979TIP3   OH229879   6.632   4.804   4.841  0.0429  0.2344  0.1818
 9979TIP3    H129880   6.624   4.898   4.854  1.2217  0.2383  1.0827
 9979TIP3    H229881   6.725   4.790   4.822 -0.1219 -0.7355  0.0082
 9980TIP3   OH229882   7.855   2.052   4.083  0.6706  0.7230  0.2377
 9980TIP3    H129883   7.769   2.061   4.126  0.2049 -0.3867 -0.4231
 9980TIP3    H229884   7.869   2.137   4.041 -0.7228  0.5085 -0.7281
 9981TIP3   OH229885   1.225   2.200   2.677 -0.1800  0.4424  0.4978
 9981TIP3    H129886   1.138   2.226   2.646  0.3307  1.0649 -0.4662
 9981TIP3    H229887   1.208   2.129   2.739 -1.4877  1.7411  1.6784
 9982TIP3   OH229888   7.341   4.934   3.782 -1.0024  0.1201  0.0366
 9982TIP3    H129889   7.430   4.916   3.810 -0.8032 -0.1404 -0.7636
 9982TIP3    H229890   7.287   4.907   3.856 -0.4630 -0.3189  0.2740
 9983TIP3   OH229891   4.428   0.786   2.807 -0.5069  0.5989 -0.5268
 9983TIP3    H129892   4.440   0.783   2.902 -0.1711 -1.8819 -0.5886
 9983TIP3    H229893   4.357   0.724   2.789 -0.3727  0.8000 -1.9137
 9984TIP3   OH229894   0.552   6.910   1.218 -0.1787  0.2964 -0.1644
 9984TIP3    H129895   0.508   6.842   1.269  0.4026 -0.9432 -1.2497
 9984TIP3    H229896   0.482   6.956   1.173 -0.5294 -0.0423  0.0291
 9985TIP3   OH229897   5.208   5.516   5.158  0.7551 -0.1419 -0.1739
 9985TIP3    H129898   5.210   5.567   5.077 -2.1018  1.2460  0.4856
 9985TIP3    H229899   5.293   5.471   5.161  1.5855  1.0210 -3.0797
 9986TIP3   OH229900   7.039   1.983   3.780 -0.1160  0.4133 -0.4327
 9986TIP3    H129901   7.124   1.973   3.737  0.1189  1.6080 -0.2794
 9986TIP3    H229902   7.060   2.022   3.865 -0.6194 -1.4045  0.5619
 9987TIP3   OH229903   7.520   2.467   5.251 -0.1631 -0.7892 -0.5618
 9987TIP3    H129904   7.467   2.474   5.330 -0.4576 -1.0948 -0.7260
 9987TIP3    H229905   7.557   2.554   5.238  0.4911 -0.9161  0.3256
 9988TIP3   OH229906   2.743   1.347   6.357  0.1462  0.5347 -0.0953
 9988TIP3    H129907   2.673   1.324   6.295 -0.2663 -1.0923  0.9311
 9988TIP3    H229908   2.783   1.264   6.381  0.5541  1.1549  1.5248
 9989TIP3   OH229909   7.688   2.417   0.159 -0.2553  0.5568 -0.0753
 9989TIP3    H129910   7.637   2.465   0.094  0.4790  0.6623 -0.5884
 9989TIP3    H229911   7.623   2.361   0.203 -1.0954  1.8888  0.4439
 9990TIP3   OH229912   7.552   5.465   3.214  0.1951 -0.5518  0.6926
 9990TIP3    H129913   7.502   5.396   3.257  0.7866  0.7053  3.5885
 9990TIP3    H229914   7.487   5.529   3.187 -0.0475 -0.2325  1.9612
 9991TIP3   OH229915   7.044   5.688   6.049  0.1077  0.1652 -0.0464
 9991TIP3    H129916   7.050   5.633   5.971 -1.2786  0.1150 -0.1349
 9991TIP3    H229917   7.123   5.667   6.099  0.1066 -1.1631 -0.5711
 9992TIP3   OH229918   1.423   7.515   4.125  0.2082 -0.3825 -0.4671
 9992TIP3    H129919   1.385   7.536   4.210  1.2563  0.2468 -0.1419
 9992TIP3    H229920   1.449   7.600   4.089  1.7820 -0.8402 -0.4526
 9993TIP3   OH229921   6.971   7.745   0.200  0.1029 -0.7462  0.1348
 9993TIP3    H129922   7.018   7.662   0.189  1.7254  0.1125  0.3168
 9993TIP3    H229923   6.959   7.754   0.294 -0.2117 -0.8388  0.1052
 9994TIP3   OH229924   0.378   5.589   1.254 -0.0035  0.2731 -0.6994
 9994TIP3    H129925   0.361   5.656   1.319 -1.0377 -0.2707 -0.3829
 9994TIP3    H229926   0.426   5.634   1.184 -2.2592  1.8324 -1.3782
 9995TIP3   OH229927   3.315   3.959   4.487  0.0946  0.1610  0.4147
 9995TIP3    H129928   3.392   4.002   4.527 -0.5970 -0.1028  2.1200
 9995TIP3    H229929   3.241   4.014   4.513 -0.3182  0.3929 -1.1877
 9996TIP3   OH229930   0.253   5.232   2.369  0.9162  0.4729  0.1242
 9996TIP3    H129931   0.188   5.292   2.331 -0.1493 -1.6406 -1.5792
 9996TIP3    H229932   0.203   5.178   2.430  1.2478 -0.5776 -0.5252
 9997TIP3   OH229933   2.032   6.437   0.834  0.9591 -0.3286  0.0481
 9997TIP3    H129934   2.126   6.451   0.837  1.3491 -2.3417 -0.9978
 9997TIP3    H229935   2.013   6.382   0.911  1.1124 -2.0730 -1.1085
 9998TIP3   OH229936   6.539   2.509   0.621  0.0662 -0.1659 -0.0615
 9998TIP3    H129937   6.498   2.507   0.708 -0.9930 -0.3225 -0.5520
 9998TIP3    H229938   6.581   2.423   0.612 -0.8994 -0.6276 -0.2076
 9999TIP3   OH229939   0.429   2.157   4.738 -0.2156 -0.2318 -0.1007
 9999TIP3    H129940   0.409   2.247   4.714  0.0554 -0.5624 -1.7005
 9999TIP3    H229941   0.520   2.159   4.768  0.6200 -0.2945 -2.3974
10000TIP3   OH229942   7.050   3.944   2.235 -0.3697 -0.3984  0.1099
10000TIP3    H129943   7.008   3.875   2.287 -1.3723  0.9345  1.1393
10000TIP3    H229944   7.130   3.964   2.282  1.4467 -2.7635 -1.7181
10001TIP3   OH229945   5.529   3.991   4.860  0.4945  0.0155 -0.4883
10001TIP3    H129946   5.529   3.966   4.953  2.4823  0.8193 -0.2108
10001TIP3    H229947   5.607   3.949   4.824  1.3193  1.9181 -1.0899
10002TIP3   OH229948   7.930   5.701   2.074  0.3844 -0.6190 -0.1654
10002TIP3    H129949   7.919   5.759   2.150 -0.0773 -0.2830 -0.4839
10002TIP3    H229950   8.017   5.722   2.040 -0.7808  1.8830 -1.9079
10003TIP3   OH229951   4.936   3.853   6.141  0.3861  0.4436 -0.0975
10003TIP3    H129952   4.894   3.928   6.183  2.9055  2.6584 -1.2402
10003TIP3    H229953   4.899   3.851   6.053 -0.6973 -0.5809  0.3627
10004TIP3   OH229954   5.913   5.187   4.316 -1.0079  0.3215  0.0153
10004TIP3    H129955   5.982   5.248   4.290 -0.2630 -0.7774 -0.6665
10004TIP3    H229956   5.875   5.225   4.395  1.3157  0.2615  1.2413
10005TIP3   OH229957   8.115   5.478   3.654  0.3212  0.1121 -0.1830
10005TIP3    H129958   8.075   5.448   3.573  0.1563 -1.5735  0.4849
10005TIP3    H229959   8.203   5.508   3.628  0.6186 -1.3009 -0.8572
10006TIP3   OH229960   5.619   2.983   3.346 -0.1427  0.1694 -0.3175
10006TIP3    H129961   5.708   2.991   3.379 -0.0626  0.6260 -0.6339
10006TIP3    H229962   5.565   3.028   3.411  0.1551  2.1931 -1.3976
10007TIP3   OH229963   4.915   0.862   3.577  0.7338 -0.2959 -0.1003
10007TIP3    H129964   4.861   0.920   3.630 -0.0003 -1.6512  0.6898
10007TIP3    H229965   4.867   0.779   3.575  0.6762 -0.2986 -2.9865
10008TIP3   OH229966   3.335   2.753   0.174  0.2288  0.4410 -0.2117
10008TIP3    H129967   3.336   2.823   0.239 -1.4280 -0.8280  1.2822
10008TIP3    H229968   3.398   2.689   0.206 -0.9425 -0.4125  0.4715
10009TIP3   OH229969   2.062   5.856   3.080 -0.1282  0.1096 -0.4371
10009TIP3    H129970   2.034   5.946   3.098  0.0441 -0.1122  1.0441
10009TIP3    H229971   1.983   5.803   3.092 -0.1104 -0.0005 -0.7942
10010TIP3   OH229972   1.309   6.215   5.385 -0.0154 -0.6938  0.3320
10010TIP3    H129973   1.330   6.291   5.331  0.9941 -0.5603  0.9005
10010TIP3    H229974   1.286   6.146   5.322  1.4980 -0.6486 -0.3081
10011TIP3   OH229975   6.244   2.787   2.866  0.2936  0.0459 -0.0704
10011TIP3    H129976   6.158   2.828   2.859  0.0432 -0.2906  0.8096
10011TIP3    H229977   6.239   2.710   2.810  0.1068  0.1753 -0.2300
10012TIP3   OH229978   2.274   0.115   3.374  0.1907  0.4073 -0.4403
10012TIP3    H129979   2.270   0.086   3.466  0.6755  1.8762  0.0669
10012TIP3    H229980   2.283   0.210   3.379 -1.2467  0.6878 -2.0399
10013TIP3   OH229981   4.761   1.818   0.663  0.5289  0.6740  0.5723
10013TIP3    H129982   4.680   1.857   0.695  0.6079  2.4707 -1.2142
10013TIP3    H229983   4.796   1.882   0.601  1.8684 -1.2787 -0.8186
10014TIP3   OH229984   6.691   1.594   3.362  0.1426  0.1383 -0.0983
10014TIP3    H129985   6.610   1.556   3.397 -0.4256  1.6599  0.2956
10014TIP3    H229986   6.662   1.654   3.294  1.0724 -0.5340 -1.1342
10015TIP3   OH229987   6.457   7.495   2.289 -0.3784  0.3559 -0.3521
10015TIP3    H129988   6.364   7.486   2.267 -0.4451  0.1638 -0.0041
10015TIP3    H229989   6.461   7.475   2.383 -0.0871  1.0506 -0.2100
10016TIP3   OH229990   0.103   6.377   2.829 -0.7274 -0.4828 -0.0965
10016TIP3    H129991   0.195   6.356   2.811  0.4105  2.3882  1.6759
10016TIP3    H229992   0.101   6.472   2.837 -4.2194 -0.2837 -1.5586
10017TIP3   OH229993   7.430   6.376   5.009  0.0924  0.2356  0.0984
10017TIP3    H129994   7.507   6.327   4.982  0.0143  0.8454 -1.3231
10017TIP3    H229995   7.451   6.408   5.097  2.0133  1.4683 -0.7402
10018TIP3   OH229996   0.324   2.948   1.037  0.1384  0.3742 -0.0474
10018TIP3    H129997   0.255   2.949   1.102 -0.1922 -1.3776 -0.3029
10018TIP3    H229998   0.369   3.032   1.047 -1.1516  0.9643  1.0509
10019TIP3   OH229999   7.893   5.102   3.209 -0.2019  0.0736 -0.1913
10019TIP3    H130000   7.807   5.144   3.216 -0.8299 -1.1508 -0.2977
10019TIP3    H230001   7.884   5.042   3.135  0.2254 -1.2261  0.7684
10020TIP3   OH230002   4.397   2.749   0.310 -0.8464  0.3409 -0.2288
10020TIP3    H130003   4.363   2.700   0.385 -0.5026 -0.0881 -0.3428
10020TIP3    H230004   4.325   2.751   0.247 -0.5678 -0.9041 -0.6325
10021TIP3   OH230005   3.458   3.824   4.802  0.5710  0.7037  0.6810
10021TIP3    H130006   3.374   3.868   4.818 -0.3263 -0.1611 -1.2655
10021TIP3    H230007   3.449   3.739   4.844 -0.0863  0.1108 -0.5889
10022TIP3   OH230008   1.014   2.592   5.493 -0.3025 -0.1211  0.0033
10022TIP3    H130009   1.050   2.643   5.567  1.2010  0.5446 -1.1363
10022TIP3    H230010   0.942   2.646   5.460 -0.8132 -0.2960  0.8030
10023TIP3   OH230011   5.284   0.020   1.519  0.3195 -0.6166  0.0327
10023TIP3    H130012   5.279  -0.001   1.612 -0.7929  0.3315  0.2154
10023TIP3    H230013   5.195   0.046   1.495  1.2117  2.4708 -0.4636
10024TIP3   OH230014   2.789   6.560   0.722  0.2744  0.3609  0.3002
10024TIP3    H130015   2.855   6.491   0.716 -0.7001 -0.4661 -3.0241
10024TIP3    H230016   2.798   6.609   0.640 -2.9962  0.3455 -0.2007
10025TIP3   OH230017   4.802   4.776   3.692 -0.3868 -0.2720 -0.1756
10025TIP3    H130018   4.720   4.759   3.645 -0.9074 -0.8444  0.9028
10025TIP3    H230019   4.781   4.759   3.784  0.9466 -0.4223  0.1188
10026TIP3   OH230020   1.346   7.405   3.753 -0.0021  0.1543  0.1961
10026TIP3    H130021   1.386   7.477   3.704 -2.0056  0.3298 -1.3488
10026TIP3    H230022   1.390   7.406   3.838  1.7385  1.6025 -0.6456
10027TIP3   OH230023   0.633   6.363   1.203  0.4392 -0.3144 -0.2021
10027TIP3    H130024   0.640   6.313   1.121  0.2049  0.4634 -0.7113
10027TIP3    H230025   0.721   6.360   1.241  0.4651 -0.9689 -0.3118
10028TIP3   OH230026   5.380   4.481   3.328  0.3232  0.6125 -0.1182
10028TIP3    H130027   5.330   4.424   3.270  0.2495  2.0159 -1.5174
10028TIP3    H230028   5.413   4.423   3.397 -0.1233 -1.0081 -1.2083
10029TIP3   OH230029   5.760   1.394   6.666  0.0392 -0.7376 -0.2469
10029TIP3    H130030   5.762   1.387   6.570 -0.4935 -0.5512 -0.2709
10029TIP3    H230031   5.675   1.359   6.692 -0.6559  0.9943 -0.0061
10030TIP3   OH230032   8.211   1.136   4.627  0.1652 -0.0150 -0.2426
10030TIP3    H130033   8.117   1.147   4.642  0.2325  1.4352 -0.7017
10030TIP3    H230034   8.218   1.116   4.533  0.3208 -0.0094 -0.2316
10031TIP3   OH230035   7.461   2.520   0.971 -0.0166 -0.1935  0.6757
10031TIP3    H130036   7.366   2.514   0.986 -0.5190  0.8748 -1.6342
10031TIP3    H230037   7.486   2.603   1.013 -0.5750  0.6691 -0.6521
10032TIP3   OH230038   7.716   1.102   4.143 -0.0982  0.3972  0.2681
10032TIP3    H130039   7.656   1.076   4.072 -1.0119 -0.3030  1.2599
10032TIP3    H230040   7.785   1.036   4.141 -1.4227 -1.1150  1.5666
10033TIP3   OH230041   1.969   5.318   3.732  0.2821 -0.1109 -0.2668
10033TIP3    H130042   1.966   5.328   3.637  0.6045  0.7442 -0.1923
10033TIP3    H230043   2.063   5.321   3.753  0.2480 -0.9088  0.0182
10034TIP3   OH230044   7.718   3.263   2.758 -0.2674  0.3353  0.0338
10034TIP3    H130045   7.794   3.299   2.803 -0.5353  0.2760  0.5299
10034TIP3    H230046   7.712   3.173   2.788 -0.4779  0.3104 -0.0807
10035TIP3   OH230047   5.338   6.898   1.957  0.7439 -0.1598 -0.2733
10035TIP3    H130048   5.245   6.876   1.954  0.5272  0.7534 -1.0962
10035TIP3    H230049   5.347   6.971   1.895  2.1143 -0.6293 -0.6759
10036TIP3   OH230050   6.254   6.937   0.258 -0.0761 -0.1685  0.3195
10036TIP3    H130051   6.253   6.854   0.211 -1.1111 -0.4121  0.7498
10036TIP3    H230052   6.177   6.984   0.226 -0.4295 -0.0666  1.2740
10037TIP3   OH230053   5.077   6.802   1.877 -0.5720 -0.1009 -0.1274
10037TIP3    H130054   5.048   6.722   1.921 -1.7624  0.4127  0.0602
10037TIP3    H230055   5.025   6.872   1.916 -0.3734  0.6131 -1.0883
10038TIP3   OH230056   2.873   1.719   0.302  0.0955 -0.0773  0.5384
10038TIP3    H130057   2.805   1.746   0.240  1.3394 -0.9696 -1.2963
10038TIP3    H230058   2.847   1.631   0.329 -1.2150  0.8334  2.5176
10039TIP3   OH230059   1.834   3.566   5.868 -0.5244 -0.2255  0.4076
10039TIP3    H130060   1.759   3.616   5.834  0.1376 -0.6466 -1.8297
10039TIP3    H230061   1.854   3.503   5.799  2.0463  0.0321  0.8364
10040TIP3   OH230062   5.826   4.832   5.304 -0.2319  0.3175 -0.2034
10040TIP3    H130063   5.804   4.803   5.393  0.5935 -0.3852 -0.2166
10040TIP3    H230064   5.904   4.781   5.281  0.2288  1.3088 -0.9002
10041TIP3   OH230065   6.803   3.909   5.307 -0.0205 -0.1924  0.3582
10041TIP3    H130066   6.801   4.003   5.322 -0.2002 -0.1693  0.1902
10041TIP3    H230067   6.712   3.881   5.315 -0.1765 -0.1254 -1.0169
10042TIP3   OH230068   4.027   1.084   2.103  0.4594  0.4002 -0.2616
10042TIP3    H130069   4.081   1.027   2.048  1.2599  2.7607 -2.1195
10042TIP3    H230070   4.012   1.033   2.183  3.1996 -1.4089 -0.7378
10043TIP3   OH230071   1.711   0.092   6.083  0.2802  0.3898  0.5851
10043TIP3    H130072   1.619   0.078   6.061  0.5034 -1.3493  0.6414
10043TIP3    H230073   1.713   0.099   6.179 -0.0634  2.9829  0.4775
10044TIP3   OH230074   6.713   6.922   2.337  0.1621  0.0519  0.0023
10044TIP3    H130075   6.763   6.873   2.271  1.7387 -1.0362  1.8898
10044TIP3    H230076   6.713   7.012   2.305  3.5746  0.1683 -0.0599
10045TIP3   OH230077   2.107   4.262   3.648 -0.1695 -0.9605 -0.3266
10045TIP3    H130078   2.083   4.170   3.635 -0.3088 -0.8555 -0.8255
10045TIP3    H230079   2.170   4.281   3.579  0.4947 -0.9075  0.2847
10046TIP3   OH230080   6.658   4.333   4.918  1.1973 -0.5196 -0.5111
10046TIP3    H130081   6.672   4.389   4.994  0.5753  1.5404 -1.8229
10046TIP3    H230082   6.595   4.267   4.948  0.7432  0.4225  0.6820
10047TIP3   OH230083   0.182   5.297   3.979  0.2013  0.0535 -0.5068
10047TIP3    H130084   0.155   5.290   3.888 -1.5020 -3.5076  0.0882
10047TIP3    H230085   0.111   5.346   4.021 -2.5853 -3.8068 -0.1292
10048TIP3   OH230086   5.393   1.072   2.065 -0.5061  0.0066 -0.2283
10048TIP3    H130087   5.433   1.156   2.046  0.3894 -0.7601 -1.9364
10048TIP3    H230088   5.383   1.071   2.161  1.8204  1.0031  0.0706
10049TIP3   OH230089   6.952   5.425   3.069 -0.7980  0.0721 -0.5970
10049TIP3    H130090   6.898   5.445   3.145  0.2961  0.2240  0.1642
10049TIP3    H230091   6.916   5.343   3.035 -2.5725  1.0476 -1.1517
10050TIP3   OH230092   7.787   5.880   0.725  0.2355  0.1448 -0.4455
10050TIP3    H130093   7.757   5.841   0.643  1.8639 -1.6608 -0.2426
10050TIP3    H230094   7.818   5.967   0.701 -0.6139  0.1873 -1.4663
10051TIP3   OH230095   7.799   4.740   4.293  0.1298  0.0480 -0.1049
10051TIP3    H130096   7.831   4.652   4.311 -0.0941  0.0451  0.2872
10051TIP3    H230097   7.872   4.797   4.314 -0.5076  0.1497  2.0533
10052TIP3   OH230098   5.620   6.642   6.656 -1.1968 -0.0050  0.0787
10052TIP3    H130099   5.669   6.562   6.640 -0.1633  0.5960  0.1305
10052TIP3    H230100   5.598   6.639   6.749  0.5679  0.6681  0.5628
10053TIP3   OH230101   4.655   4.168   2.972 -0.1380  0.2939  0.5410
10053TIP3    H130102   4.682   4.178   2.881 -0.7970  0.2594  0.3393
10053TIP3    H230103   4.723   4.113   3.011  0.5562  0.9574  0.2713
10054TIP3   OH230104   5.485   6.177   3.080 -0.2341 -0.3200  0.0712
10054TIP3    H130105   5.404   6.134   3.052  0.2209 -1.6459  0.7412
10054TIP3    H230106   5.470   6.199   3.172  0.1332 -0.5052  0.1767
10055TIP3   OH230107   1.728   3.466   4.515 -0.0094 -0.1078  0.2019
10055TIP3    H130108   1.699   3.379   4.543 -1.4481  0.5366  0.7983
10055TIP3    H230109   1.822   3.467   4.535  0.1473 -1.6675 -0.2523
10056TIP3   OH230110   4.426   4.985   6.306  0.1588  0.2436 -0.0099
10056TIP3    H130111   4.480   5.045   6.358  0.0319  1.1578 -0.9043
10056TIP3    H230112   4.477   4.904   6.303  1.1825  0.8756 -0.2847
10057TIP3   OH230113   2.120   5.809   6.535 -0.0413 -0.8569  0.1386
10057TIP3    H130114   2.036   5.777   6.566 -0.3018 -1.2643 -0.9248
10057TIP3    H230115   2.138   5.887   6.587 -1.2726 -0.5335  0.1022
10058TIP3   OH230116   3.118   7.622   4.385 -0.2278  0.3468 -0.3470
10058TIP3    H130117   3.130   7.606   4.291 -0.9294  1.0599 -0.5716
10058TIP3    H230118   3.023   7.633   4.394  0.0697  3.2226 -0.0561
10059TIP3   OH230119   3.620   4.215   3.883  0.6384  0.0458  0.5137
10059TIP3    H130120   3.534   4.173   3.883  0.4678  0.3658 -0.4694
10059TIP3    H230121   3.608   4.296   3.932  0.2083  0.3999 -0.1589
10060TIP3   OH230122   2.089   4.171   0.250 -0.7070 -0.0793 -0.2671
10060TIP3    H130123   2.179   4.147   0.230 -0.5139  0.3494  0.0884
10060TIP3    H230124   2.074   4.136   0.337 -0.6954  0.3612 -0.0884
10061TIP3   OH230125   6.075   2.907   5.354  0.0825 -0.0674  0.6378
10061TIP3    H130126   6.163   2.944   5.363  0.2183 -0.3516  0.4859
10061TIP3    H230127   6.072   2.872   5.265  0.2523 -1.1683  1.0443
10062TIP3   OH230128   0.339   2.670   6.474 -0.5687  0.2201 -0.4060
10062TIP3    H130129   0.379   2.725   6.542  2.7320 -0.1795 -1.8347
10062TIP3    H230130   0.278   2.728   6.429  0.2779  1.7006  0.2832
10063TIP3   OH230131   4.912   3.637   1.775 -0.8822 -0.0781  0.4009
10063TIP3    H130132   4.849   3.588   1.828 -1.2438  0.9519  0.9439
10063TIP3    H230133   4.867   3.718   1.752 -0.2233  0.0993 -0.3140
10064TIP3   OH230134   4.232   4.181   2.857  0.2891  0.0274  0.0254
10064TIP3    H130135   4.269   4.126   2.926 -0.2839 -1.3213 -0.7021
10064TIP3    H230136   4.307   4.220   2.813  0.8602 -2.2266 -1.0833
10065TIP3   OH230137   5.330   7.281   6.625  0.2253 -0.4072 -0.9630
10065TIP3    H130138   5.268   7.354   6.630 -0.8043 -1.3402  0.7785
10065TIP3    H230139   5.407   7.312   6.671 -0.8576 -0.9439  1.3784
10066TIP3   OH230140   3.431   7.242   3.153  0.1428  0.5872  0.0031
10066TIP3    H130141   3.431   7.224   3.247 -0.6031 -3.5699 -0.5924
10066TIP3    H230142   3.345   7.280   3.136  0.6790  2.4002  1.0628
10067TIP3   OH230143   4.719   7.151   0.491  0.0655 -0.2018  0.4135
10067TIP3    H130144   4.668   7.232   0.489  1.0769  0.4551 -1.7280
10067TIP3    H230145   4.790   7.169   0.552 -0.7615 -0.1822  1.3956
10068TIP3   OH230146   5.553   5.243   3.139 -0.1418  0.2469 -0.3341
10068TIP3    H130147   5.574   5.335   3.125 -0.5698  0.2633 -0.8993
10068TIP3    H230148   5.632   5.196   3.109 -0.1934  0.3986 -0.7235
10069TIP3   OH230149   0.651   5.600   0.214  0.3412  0.2738  0.3702
10069TIP3    H130150   0.628   5.622   0.305  2.7068 -2.0922  1.6817
10069TIP3    H230151   0.630   5.506   0.207  0.5740  0.3347 -1.4216
10070TIP3   OH230152   5.551   3.722   1.786  0.5372  0.5303  0.3490
10070TIP3    H130153   5.496   3.649   1.817 -0.0682  0.6441 -0.4349
10070TIP3    H230154   5.590   3.757   1.866 -1.0686  0.8767  1.0278
10071TIP3   OH230155   0.723   6.877   2.659  1.0024  0.3156 -0.0704
10071TIP3    H130156   0.802   6.877   2.606  1.2630 -1.6930  0.2447
10071TIP3    H230157   0.651   6.877   2.596  1.2889 -0.5011 -0.3964
10072TIP3   OH230158   4.253   7.288   1.525 -0.3864 -0.1415 -0.6389
10072TIP3    H130159   4.294   7.371   1.501  0.6063  0.0008  1.3319
10072TIP3    H230160   4.271   7.229   1.452  1.0587  0.6774 -0.9703
10073TIP3   OH230161   7.765   2.559   0.729 -0.1165  0.0994  0.1712
10073TIP3    H130162   7.704   2.546   0.656 -1.8552 -2.2171  1.8431
10073TIP3    H230163   7.819   2.480   0.729  1.2573  1.0120  0.2091
10074TIP3   OH230164   5.462   4.760   1.925 -0.6311  0.1612  0.0114
10074TIP3    H130165   5.435   4.729   1.838 -0.1258  0.5499 -0.2904
10074TIP3    H230166   5.545   4.804   1.910 -0.9832  1.0326  0.5515
10075TIP3   OH230167   5.579   7.462   6.037  0.1160 -0.1709  0.2141
10075TIP3    H130168   5.537   7.465   6.123  2.4409 -0.0145  1.4012
10075TIP3    H230169   5.576   7.552   6.005  0.0339 -0.0668  0.5128
10076TIP3   OH230170   5.317   4.914   3.741 -0.0422 -0.2640  0.5609
10076TIP3    H130171   5.241   4.887   3.793  0.7059  0.7804  2.2318
10076TIP3    H230172   5.280   4.931   3.654 -1.5275 -0.8430  1.0357
10077TIP3   OH230173   4.905   5.489   3.449  0.0808 -0.4528  0.5024
10077TIP3    H130174   4.885   5.573   3.490 -1.6298  0.2645 -1.6010
10077TIP3    H230175   4.824   5.464   3.404  1.2063 -2.1515 -0.7344
10078TIP3   OH230176   4.001   5.938   3.417  0.1798  0.7996  0.3577
10078TIP3    H130177   4.057   5.989   3.359  1.8631 -0.8200  0.4693
10078TIP3    H230178   4.058   5.868   3.451 -2.2703 -1.9658 -0.8202
10079TIP3   OH230179   7.057   3.675   0.821  0.3509  0.8196  0.1859
10079TIP3    H130180   7.015   3.733   0.758 -0.0817  2.7236  2.0892
10079TIP3    H230181   7.129   3.635   0.773 -0.0527  2.0608 -1.5356
10080TIP3   OH230182   8.079   6.928   3.126  0.0921  0.4793 -0.3190
10080TIP3    H130183   8.141   6.974   3.069  0.7974 -1.0258 -0.7978
10080TIP3    H230184   8.113   6.839   3.133 -0.6382  0.2887  1.4944
10081TIP3   OH230185   4.228   2.392   6.590  0.4857  0.5420  0.3136
10081TIP3    H130186   4.179   2.457   6.640  0.1181 -0.8426  1.8449
10081TIP3    H230187   4.169   2.366   6.519 -0.1884  0.3604  0.9336
10082TIP3   OH230188   5.341   4.059   2.530  0.2893 -0.0645 -0.2531
10082TIP3    H130189   5.317   3.989   2.469 -0.0910 -0.2555  0.1083
10082TIP3    H230190   5.400   4.115   2.481 -0.1692 -0.1108 -0.8621
10083TIP3   OH230191   2.299   6.582   6.672  0.1989 -0.0161 -0.4364
10083TIP3    H130192   2.219   6.616   6.713  0.8340  1.2811 -0.2421
10083TIP3    H230193   2.271   6.499   6.633 -0.8277 -0.4876  1.1681
10084TIP3   OH230194   3.602   4.670   3.145 -0.0547 -0.5001  0.1208
10084TIP3    H130195   3.536   4.606   3.169  0.4509 -0.1998  2.6253
10084TIP3    H230196   3.679   4.645   3.197  0.5904  1.3038  0.0898
10085TIP3   OH230197   1.711   6.268   5.125 -0.0915 -0.0713 -0.1894
10085TIP3    H130198   1.714   6.336   5.193  0.1743  1.2854 -1.4849
10085TIP3    H230199   1.803   6.254   5.102 -0.2626  1.3710 -1.9920
10086TIP3   OH230200   4.726   6.549   6.698 -0.2226 -0.0455  0.3904
10086TIP3    H130201   4.642   6.564   6.656 -0.0009 -0.0271 -0.0548
10086TIP3    H230202   4.789   6.595   6.642  0.3736 -1.9226 -0.5442
10087TIP3   OH230203   2.475   1.678   1.385 -0.4156  0.3315 -0.1497
10087TIP3    H130204   2.452   1.611   1.451 -0.9914  0.0358 -0.6369
10087TIP3    H230205   2.542   1.731   1.427  0.7756 -1.1425 -0.0971
10088TIP3   OH230206   0.615   1.397   0.924 -0.1232  0.0506 -0.2963
10088TIP3    H130207   0.652   1.370   0.840 -0.8292 -0.0061 -0.5889
10088TIP3    H230208   0.568   1.478   0.905  2.3816  1.8963  0.6407
10089TIP3   OH230209   2.546   1.107   2.915 -0.0571 -0.5648  0.3471
10089TIP3    H130210   2.611   1.041   2.939  0.5339 -0.2117 -0.2281
10089TIP3    H230211   2.544   1.167   2.989  1.6187  0.4207 -0.3590
10090TIP3   OH230212   5.429   7.074   4.750 -0.3033 -0.1528 -0.6218
10090TIP3    H130213   5.387   7.085   4.664 -0.3551  2.7696 -0.3192
10090TIP3    H230214   5.360   7.095   4.813  0.9605  2.9537 -0.0743
10091TIP3   OH230215   5.062   6.701   5.179  0.1787  0.3408 -0.0846
10091TIP3    H130216   5.105   6.660   5.253  0.1239  0.0961 -0.1871
10091TIP3    H230217   5.052   6.631   5.115 -0.8800  0.2516  0.1607
10092TIP3   OH230218   1.475   0.296   6.144  0.1194 -0.0862  0.4024
10092TIP3    H130219   1.442   0.247   6.220  0.0876 -0.1920  0.3196
10092TIP3    H230220   1.410   0.282   6.076  0.9510 -1.3485 -0.1679
10093TIP3   OH230221   2.121   4.546   0.774 -0.3387 -0.3556 -0.6080
10093TIP3    H130222   2.090   4.486   0.841 -2.0763  1.2875  0.1582
10093TIP3    H230223   2.208   4.572   0.804 -1.5085  1.2523  1.7809
10094TIP3   OH230224   4.035   6.759   1.824 -0.3956  0.1206  0.7585
10094TIP3    H130225   4.088   6.801   1.756 -0.3252 -0.9939  0.1053
10094TIP3    H230226   4.013   6.830   1.884  0.9313  0.8114  0.4652
10095TIP3   OH230227   2.758   2.294   2.030  0.2031 -0.0168  0.3436
10095TIP3    H130228   2.756   2.260   1.940  0.5932 -3.7528  1.5736
10095TIP3    H230229   2.671   2.277   2.064  0.6202 -0.3830  1.2397
10096TIP3   OH230230   2.899   5.651   5.474  0.2007  0.2964  0.2263
10096TIP3    H130231   2.963   5.677   5.541  0.2813  1.5248 -0.3024
10096TIP3    H230232   2.815   5.655   5.519  0.3137  0.4901  0.4263
10097TIP3   OH230233   2.957   6.501   4.046 -0.2699 -0.2527  0.0294
10097TIP3    H130234   2.969   6.445   4.121 -0.8080 -0.5164 -0.0723
10097TIP3    H230235   2.877   6.550   4.066 -0.7867 -0.7985 -0.6490
10098TIP3   OH230236   0.958   0.456  -0.005  0.0065 -0.6145  0.3458
10098TIP3    H130237   0.885   0.415   0.042 -0.5204 -1.1513 -0.8978
10098TIP3    H230238   1.018   0.384  -0.022  0.3914 -0.3439  0.5454
10099TIP3   OH230239   2.151   5.426   4.628 -0.0022 -0.1608 -0.6739
10099TIP3    H130240   2.167   5.368   4.703 -2.3840  0.1440  0.1501
10099TIP3    H230241   2.237   5.435   4.586  1.3330 -0.6767  1.7528
10100TIP3   OH230242   3.228   4.665   5.337  0.2655 -0.2030  0.0646
10100TIP3    H130243   3.158   4.728   5.352 -0.4345 -1.3393  1.8479
10100TIP3    H230244   3.294   4.686   5.402  2.5824  2.0052 -2.6940
10101TIP3   OH230245   3.805   6.563   6.781  1.0003 -0.3325 -0.0637
10101TIP3    H130246   3.715   6.538   6.763  0.2756  1.7657  0.4083
10101TIP3    H230247   3.858   6.500   6.731 -0.7323 -0.9004 -1.2632
10102TIP3   OH230248   3.237   6.295   5.351  0.4636 -0.5730 -0.4723
10102TIP3    H130249   3.316   6.349   5.352  0.1291 -0.0443 -1.5890
10102TIP3    H230250   3.181   6.335   5.418 -0.5668  1.7479 -2.5415
10103TIP3   OH230251   2.910   5.882   4.278  0.2178  0.5813  0.0135
10103TIP3    H130252   2.866   5.798   4.292  1.2494 -0.1244 -0.7828
10103TIP3    H230253   2.869   5.918   4.199 -1.5491  1.7691  1.4186
10104TIP3   OH230254   2.585   4.942   3.199 -0.3270 -0.5037  0.4291
10104TIP3    H130255   2.548   5.013   3.252 -1.5347  0.0191 -1.0382
10104TIP3    H230256   2.588   4.978   3.110  1.8810 -1.2571  0.1536
10105TIP3   OH230257   7.082   1.445   5.837  0.4019  0.6984 -0.3456
10105TIP3    H130258   7.010   1.392   5.870  0.0713  0.4898 -1.3733
10105TIP3    H230259   7.039   1.518   5.792  0.8485  1.0931 -0.1465
10106TIP3   OH230260   6.689   6.796   0.445 -0.0414  0.1445 -0.2521
10106TIP3    H130261   6.752   6.867   0.458  0.4296 -0.6020  2.0117
10106TIP3    H230262   6.603   6.836   0.461  0.2055  0.2891  0.7820
10107TIP3   OH230263   4.464   2.521   2.500  0.0279 -0.1369  0.5435
10107TIP3    H130264   4.558   2.504   2.493  0.0999  0.4620 -0.0280
10107TIP3    H230265   4.452   2.551   2.590  0.1686 -1.4395  1.0224
10108TIP3   OH230266   3.166   0.618   4.491  0.4093 -0.4869 -0.4330
10108TIP3    H130267   3.117   0.624   4.573 -0.1185 -0.4259 -0.7446
10108TIP3    H230268   3.098   0.616   4.423  0.8034 -1.5507 -0.8194
10109TIP3   OH230269   7.850   2.837   6.028  0.2848  0.0660 -0.0423
10109TIP3    H130270   7.843   2.901   5.957  0.8443  2.1258  1.6350
10109TIP3    H230271   7.935   2.795   6.015 -0.2586 -0.6662 -1.3899
10110TIP3   OH230272   7.940   3.844   4.563  0.2955  0.5049  0.4833
10110TIP3    H130273   7.970   3.880   4.479  0.8288  2.3574  1.4057
10110TIP3    H230274   7.901   3.919   4.608 -1.6316 -0.8478  1.1999
10111TIP3   OH230275   1.940   0.652   4.615  0.5164  0.1046 -0.2694
10111TIP3    H130276   2.004   0.637   4.545  1.0710  2.3587 -0.3401
10111TIP3    H230277   1.873   0.709   4.574 -0.8466 -1.1134  0.1814
10112TIP3   OH230278   0.723   1.677   4.153 -0.1287 -0.0839  0.1865
10112TIP3    H130279   0.757   1.701   4.068  0.0262  1.8689  0.7533
10112TIP3    H230280   0.768   1.735   4.215 -3.2440  1.5924  1.1372
10113TIP3   OH230281   0.143   4.713   6.137  0.5826  0.5852 -0.0987
10113TIP3    H130282   0.072   4.744   6.081 -0.9863 -1.9472  0.3153
10113TIP3    H230283   0.105   4.711   6.225  2.3082  2.3747  0.7892
10114TIP3   OH230284   4.932   5.876   6.697 -0.4853 -0.4375 -0.2144
10114TIP3    H130285   4.960   5.911   6.781  1.3328  0.3644 -1.1036
10114TIP3    H230286   4.887   5.794   6.719 -0.6478  0.0824  1.5596
10115TIP3   OH230287   1.173   0.759   3.761 -0.3492 -0.4986  0.1541
10115TIP3    H130288   1.214   0.673   3.750  2.7030  0.5795  1.8112
10115TIP3    H230289   1.212   0.812   3.691 -3.2119 -0.6743 -1.7015
10116TIP3   OH230290   7.468   4.619   4.100  0.1871 -0.0601  0.3092
10116TIP3    H130291   7.499   4.529   4.110  1.2552 -0.1824 -2.9779
10116TIP3    H230292   7.375   4.611   4.080  0.2759 -0.4316  0.0442
10117TIP3   OH230293   4.793   0.916   1.366 -0.1969 -0.1671 -0.6372
10117TIP3    H130294   4.847   0.966   1.305 -0.1360 -0.1055 -0.5333
10117TIP3    H230295   4.851   0.897   1.440 -0.1243 -0.6673 -0.8189
10118TIP3   OH230296   2.078   7.143   5.165  0.0406 -0.0953  0.0926
10118TIP3    H130297   2.105   7.064   5.211 -0.9654 -1.0301 -0.8707
10118TIP3    H230298   2.160   7.187   5.142  0.5809 -0.1274  1.8392
10119TIP3   OH230299   4.203   5.417   5.430  0.0596 -0.1043 -0.0634
10119TIP3    H130300   4.283   5.390   5.386  0.8374  1.2521  0.4583
10119TIP3    H230301   4.217   5.393   5.522  0.4440  1.3178  0.2656
10120TIP3   OH230302   6.488   5.838   1.623 -0.4347  0.0952 -0.7112
10120TIP3    H130303   6.571   5.883   1.606  0.0658 -1.5914 -3.3787
10120TIP3    H230304   6.451   5.822   1.536 -2.5039 -1.1192  0.3128
10121TIP3   OH230305   2.828   5.138   1.580 -0.0185 -0.1266  0.4822
10121TIP3    H130306   2.764   5.182   1.523  0.9546 -0.8512 -1.2363
10121TIP3    H230307   2.903   5.198   1.583  0.7771 -1.0210 -0.7745
10122TIP3   OH230308   4.502   1.786   3.688  0.4134 -0.0708  0.3650
10122TIP3    H130309   4.408   1.772   3.689  0.3432 -0.2399 -2.1166
10122TIP3    H230310   4.538   1.711   3.641  1.6904  0.4866  0.3876
10123TIP3   OH230311   7.567   3.492   4.771 -0.3123 -0.4818 -0.2179
10123TIP3    H130312   7.552   3.421   4.709  1.3527 -1.4915  0.4773
10123TIP3    H230313   7.597   3.565   4.717 -0.6017 -0.7744 -0.7777
10124TIP3   OH230314   4.757   3.856   1.743  0.2605  0.4057 -0.1950
10124TIP3    H130315   4.739   3.857   1.837  1.0193  0.2756 -0.0452
10124TIP3    H230316   4.673   3.878   1.703  0.1698  1.4846  0.5462
10125TIP3   OH230317   0.867   7.753   0.385 -0.3743 -0.5488 -0.0110
10125TIP3    H130318   0.815   7.677   0.360 -1.0877 -0.1368  0.1954
10125TIP3    H230319   0.939   7.717   0.437  0.0728 -1.2200 -1.0519
10126TIP3   OH230320   2.208   7.726   0.211  0.1544  0.4173 -0.9391
10126TIP3    H130321   2.194   7.725   0.306  0.1103  0.6217 -0.9427
10126TIP3    H230322   2.300   7.749   0.200  0.2827 -0.0696 -0.9370
10127TIP3   OH230323   6.178   4.794   3.145  0.5865  0.7303  0.1959
10127TIP3    H130324   6.229   4.846   3.083 -2.4276  2.5432 -0.9678
10127TIP3    H230325   6.107   4.757   3.093  1.0637 -2.4322  1.5599
10128TIP3   OH230326   5.151   7.459   0.945  0.0064  0.2794 -0.4569
10128TIP3    H130327   5.112   7.499   0.868 -1.5936 -0.2499  0.0339
10128TIP3    H230328   5.136   7.522   1.015  1.2363  0.6499 -0.4952
10129TIP3   OH230329   5.928   5.271   5.301 -0.0776  0.4461  0.0619
10129TIP3    H130330   5.955   5.298   5.389  0.1856 -0.0643  0.1398
10129TIP3    H230331   5.982   5.195   5.281 -0.6306  0.1322 -0.2614
10130TIP3   OH230332   4.271   7.231   5.963  0.1577  0.0274 -0.0321
10130TIP3    H130333   4.252   7.166   6.030  0.5391 -0.3575 -0.2893
10130TIP3    H230334   4.185   7.260   5.931 -0.0142 -0.8344 -0.3737
10131TIP3   OH230335   2.451   7.690   5.720 -0.2609  0.3908 -0.5775
10131TIP3    H130336   2.507   7.741   5.661  0.4878 -0.2211 -0.4115
10131TIP3    H230337   2.483   7.711   5.808  1.3498 -1.7728 -0.5623
10132TIP3   OH230338   7.732   6.152   0.561 -0.4405  0.4756  0.0279
10132TIP3    H130339   7.732   6.161   0.466 -3.0152  0.5271 -0.0417
10132TIP3    H230340   7.822   6.173   0.588  0.1409  1.2160 -2.3051
10133TIP3   OH230341   4.968   3.448   3.267 -0.3437 -0.2467  0.1296
10133TIP3    H130342   4.894   3.405   3.223 -1.4225  1.9032 -0.2651
10133TIP3    H230343   5.036   3.381   3.268 -0.9431 -1.0696 -3.0516
10134TIP3   OH230344   5.218   1.863   1.492 -0.1610  0.0396 -0.2354
10134TIP3    H130345   5.221   1.784   1.438  1.2542 -0.0813  0.0019
10134TIP3    H230346   5.203   1.934   1.429 -1.1779 -0.3567 -0.4782
10135TIP3   OH230347   8.220   3.304   1.637 -0.2470 -0.2946 -0.1395
10135TIP3    H130348   8.179   3.346   1.561 -1.3760  0.0221  0.6053
10135TIP3    H230349   8.308   3.340   1.640 -0.3383  0.0333 -1.0307
10136TIP3   OH230350   4.871   2.348   4.381 -0.0129 -0.3443  0.0961
10136TIP3    H130351   4.856   2.426   4.328 -1.3153 -2.0152 -2.1523
10136TIP3    H230352   4.808   2.284   4.349  0.8369 -2.2871  2.0144
10137TIP3   OH230353   3.909   2.698   5.252 -0.4626 -0.0307 -0.4593
10137TIP3    H130354   3.965   2.631   5.291 -1.5197 -0.9684 -0.5144
10137TIP3    H230355   3.964   2.739   5.185  0.5374 -0.1094  0.2782
10138TIP3   OH230356   5.117   5.632   0.964  0.0525 -0.3965  0.2255
10138TIP3    H130357   5.091   5.706   1.017  0.3761 -0.3736  0.3571
10138TIP3    H230358   5.104   5.661   0.874 -0.6878 -0.5079  0.2913
10139TIP3   OH230359   7.940   7.263   0.539 -0.1843  0.1320 -0.2034
10139TIP3    H130360   7.976   7.214   0.466 -0.1358  1.0538 -0.8156
10139TIP3    H230361   7.861   7.303   0.504  0.5608  1.7018 -0.1963
10140TIP3   OH230362   2.883   0.540   3.028 -0.3879 -0.4679  0.1730
10140TIP3    H130363   2.803   0.520   2.980 -0.3527  0.3735 -0.2556
10140TIP3    H230364   2.908   0.457   3.068 -1.8389 -0.5938  0.8759
10141TIP3   OH230365   6.221   2.078   4.767  0.3970 -0.1840 -0.2883
10141TIP3    H130366   6.216   2.149   4.830 -0.1903 -1.7054  1.4581
10141TIP3    H230367   6.279   2.111   4.698  3.7140  0.4440  2.5517
10142TIP3   OH230368   5.810   7.271   2.443 -0.2178 -0.3502 -0.3713
10142TIP3    H130369   5.861   7.195   2.474  0.5400  0.4903  0.5216
10142TIP3    H230370   5.877   7.335   2.418 -0.8488 -0.0640 -1.3559
10143TIP3   OH230371   1.902   6.759   5.886 -0.0246 -0.2403  0.0259
10143TIP3    H130372   1.808   6.779   5.888 -0.0275 -0.2558  0.0432
10143TIP3    H230373   1.938   6.807   5.961  0.0065 -0.1062 -0.0737
10144TIP3   OH230374   7.390   2.104   4.519 -0.1717  0.0798 -0.2480
10144TIP3    H130375   7.353   2.180   4.475 -1.6948  0.2390  1.1742
10144TIP3    H230376   7.481   2.100   4.489 -0.4852  1.5355 -1.5237
10145TIP3   OH230377   0.669   7.563   0.368 -0.3037 -0.0671 -0.2404
10145TIP3    H130378   0.585   7.558   0.322 -0.9290 -1.1364  0.9732
10145TIP3    H230379   0.700   7.473   0.371  0.4202  0.1862  0.1855
10146TIP3   OH230380   4.214   1.518   6.543 -0.2115 -0.1782 -0.2754
10146TIP3    H130381   4.127   1.535   6.506 -0.1568  0.4066 -0.1455
10146TIP3    H230382   4.224   1.585   6.611 -0.6667 -1.7342  1.4112
10147TIP3   OH230383   6.270   1.623   5.222  0.0769 -0.5957  0.1656
10147TIP3    H130384   6.231   1.596   5.305 -0.6129  1.6612  0.6374
10147TIP3    H230385   6.361   1.645   5.244  0.8031 -2.8243 -0.3227
10148TIP3   OH230386   1.602   3.165   0.292 -0.4216  0.4872  0.1447
10148TIP3    H130387   1.620   3.149   0.384 -1.8869  0.8404  0.5114
10148TIP3    H230388   1.595   3.260   0.285 -3.3023  0.3763  0.3129
10149TIP3   OH230389   3.707   7.740   2.584 -0.3030 -0.4533  0.1937
10149TIP3    H130390   3.680   7.693   2.663 -3.0350 -2.7563 -1.9138
10149TIP3    H230391   3.625   7.767   2.543  1.0690  3.8764 -0.2592
10150TIP3   OH230392   5.026   4.683   3.575  0.4754 -1.2309  0.1269
10150TIP3    H130393   4.948   4.721   3.616  0.8895 -0.2298  0.0252
10150TIP3    H230394   4.993   4.608   3.526  0.0226 -2.7717  2.6494
10151TIP3   OH230395   6.341   3.589   2.431 -0.5154 -0.2803 -0.0486
10151TIP3    H130396   6.389   3.531   2.490 -0.9976 -0.2224  0.4065
10151TIP3    H230397   6.402   3.604   2.358  0.2466 -0.0250  0.6228
10152TIP3   OH230398   4.367   5.843   0.699  0.1977  0.2429 -0.1270
10152TIP3    H130399   4.311   5.769   0.676  1.6212 -0.3952 -1.7000
10152TIP3    H230400   4.309   5.919   0.697 -1.0492 -0.6608  0.4362
10153TIP3   OH230401   0.066   2.481   5.441 -0.2456  0.1272  0.0736
10153TIP3    H130402   0.097   2.519   5.359 -1.9397 -0.7679 -1.0489
10153TIP3    H230403   0.122   2.519   5.508  3.1307 -1.2392 -1.7407
10154TIP3   OH230404   2.348   3.997   0.510 -0.3037 -0.8694 -0.5598
10154TIP3    H130405   2.320   4.069   0.566  0.8924 -0.2156 -0.7633
10154TIP3    H230406   2.296   3.922   0.540  0.0748 -0.4775  1.2143
10155TIP3   OH230407   1.353   2.125   1.228  0.0110  0.5354  0.2207
10155TIP3    H130408   1.288   2.099   1.293  0.4891 -1.3311 -0.0023
10155TIP3    H230409   1.359   2.051   1.168  0.3624  1.7877 -1.3540
10156TIP3   OH230410   2.984   1.432   4.684 -0.4455  0.2380 -0.3987
10156TIP3    H130411   2.934   1.493   4.629  0.6021  2.5951  1.0722
10156TIP3    H230412   3.075   1.453   4.665 -0.0517 -1.0225  0.0370
10157TIP3   OH230413   1.689   2.283   0.875  0.0071  0.2436  0.1379
10157TIP3    H130414   1.605   2.251   0.844 -0.2829  1.7171 -0.6971
10157TIP3    H230415   1.668   2.356   0.933  0.6771 -0.4466  1.2990
10158TIP3   OH230416   2.587   0.716   6.721  0.2077 -0.0103 -0.3548
10158TIP3    H130417   2.501   0.739   6.687 -0.2700 -1.1386  0.0499
10158TIP3    H230418   2.640   0.795   6.708 -0.6698  0.4429 -1.3029
10159TIP3   OH230419   5.260   4.109   5.280  0.2890  0.3938 -0.1216
10159TIP3    H130420   5.319   4.164   5.228  0.1389 -0.9372 -1.7741
10159TIP3    H230421   5.307   4.027   5.293 -0.2331  0.2059  0.6862
10160TIP3   OH230422   5.301   7.649   3.918 -0.0911  0.0293 -0.4116
10160TIP3    H130423   5.391   7.645   3.950 -0.0003  1.3676 -0.4612
10160TIP3    H230424   5.310   7.648   3.823 -0.2549 -1.7233 -0.4536
10161TIP3   OH230425   4.673   7.782   3.551  0.0481 -0.2145  0.0602
10161TIP3    H130426   4.630   7.831   3.482 -1.6147 -2.6275 -0.7123
10161TIP3    H230427   4.752   7.747   3.510  0.5332  0.6455  0.2324
10162TIP3   OH230428   8.151   7.780   0.966 -0.0314  1.0178  0.1710
10162TIP3    H130429   8.106   7.784   0.881  1.3054 -1.9068 -0.8148
10162TIP3    H230430   8.244   7.780   0.943  0.3504 -0.6992  1.5262
10163TIP3   OH230431   3.855   3.978   1.206 -0.8039 -0.4631 -0.4156
10163TIP3    H130432   3.908   3.906   1.240 -2.3719 -0.2319  2.9611
10163TIP3    H230433   3.772   3.937   1.181 -1.5022  0.0332  0.9984
10164TIP3   OH230434   5.215   6.357   1.718 -0.5378 -0.4932 -0.2883
10164TIP3    H130435   5.130   6.322   1.744 -0.0624 -1.4312  0.0486
10164TIP3    H230436   5.271   6.344   1.794 -0.1150  0.2401 -0.4613
10165TIP3   OH230437   0.897   6.100   2.783 -0.4712  0.3262  0.0763
10165TIP3    H130438   0.896   6.142   2.869 -2.1114  0.0801  0.2026
10165TIP3    H230439   0.988   6.071   2.772 -0.2611  0.2010  1.8105
10166TIP3   OH230440   4.052   3.332   3.883 -0.3547 -0.5514  0.2116
10166TIP3    H130441   4.052   3.422   3.918  0.4389 -0.6013  0.3427
10166TIP3    H230442   4.060   3.276   3.960 -1.8180 -0.7841  0.2194
10167TIP3   OH230443   3.322   1.395   2.845 -0.3092  0.2325  0.5153
10167TIP3    H130444   3.368   1.464   2.893 -0.8671  1.9504 -1.3031
10167TIP3    H230445   3.249   1.371   2.902  0.2699  0.6570  1.4626
10168TIP3   OH230446   7.877   3.567   1.350  0.2335 -0.6299 -0.3453
10168TIP3    H130447   7.844   3.646   1.392  2.5498  1.3065 -1.8731
10168TIP3    H230448   7.800   3.524   1.313 -1.1558  0.5051  1.1448
10169TIP3   OH230449   8.301   3.701   5.015 -0.5104 -0.1766  0.0057
10169TIP3    H130450   8.248   3.622   5.023 -0.9867  0.0274 -0.9603
10169TIP3    H230451   8.321   3.727   5.105  1.4420 -2.5557  0.3572
10170TIP3   OH230452   5.757   2.419   3.140  0.0922 -0.0210  0.3774
10170TIP3    H130453   5.837   2.431   3.089  1.1739  0.3752  2.0933
10170TIP3    H230454   5.708   2.352   3.092  1.6888 -0.6599 -0.4501
10171TIP3   OH230455   3.508   4.286   3.431 -0.0669  0.2463 -0.1469
10171TIP3    H130456   3.438   4.220   3.431  0.2026 -0.0873 -1.6470
10171TIP3    H230457   3.559   4.268   3.510  0.5382 -1.9651 -0.9695
10172TIP3   OH230458   7.140   3.878   0.012 -0.0839  0.2476 -0.3983
10172TIP3    H130459   7.187   3.934   0.074  0.6793  0.8043 -1.4538
10172TIP3    H230460   7.205   3.814  -0.017 -1.3025 -2.3083  1.9634
10173TIP3   OH230461   5.589   4.100   0.913 -0.6754 -0.2359  0.3764
10173TIP3    H130462   5.666   4.091   0.969 -0.4684 -1.1991 -0.0454
10173TIP3    H230463   5.625   4.117   0.826 -0.8696 -2.0513 -0.0950
10174TIP3   OH230464   4.411   7.598   1.776 -0.2398 -0.3491  0.4790
10174TIP3    H130465   4.318   7.598   1.798 -0.5482  0.8991 -0.6592
10174TIP3    H230466   4.453   7.549   1.847 -1.2468  2.4519  3.2106
10175TIP3   OH230467   4.441   1.968   2.521 -0.6593  0.1896 -0.4999
10175TIP3    H130468   4.451   2.060   2.497 -0.9332  0.1210 -0.8912
10175TIP3    H230469   4.374   1.969   2.589 -1.7190  0.1540 -1.5069
10176TIP3   OH230470   1.193   4.091   3.089  0.3452  0.6349 -0.4090
10176TIP3    H130471   1.248   4.147   3.035  1.5768  1.7724  1.8823
10176TIP3    H230472   1.115   4.144   3.106  0.6131  0.8710  0.1051
10177TIP3   OH230473   5.483   1.500   4.976  0.4000 -0.0254  0.3632
10177TIP3    H130474   5.430   1.552   5.036 -0.1953 -0.6021  0.3579
10177TIP3    H230475   5.431   1.495   4.896  0.7662 -0.0371  0.1241
10178TIP3   OH230476   4.726   2.837   4.071  0.0941 -0.1285  0.0361
10178TIP3    H130477   4.739   2.773   4.140 -3.9364 -0.4379  0.7678
10178TIP3    H230478   4.731   2.787   3.990  0.2963 -0.7092  0.4041
10179TIP3   OH230479   0.069   2.039   3.267  0.3383  0.3351 -0.6526
10179TIP3    H130480  -0.019   2.060   3.298  0.7206  1.1825 -0.0782
10179TIP3    H230481   0.115   2.123   3.270  1.0661 -0.0330 -1.2744
10180TIP3   OH230482   6.893   5.216   2.887 -0.1105  0.6339  0.0308
10180TIP3    H130483   6.892   5.188   2.795 -2.4134  0.9617 -0.1115
10180TIP3    H230484   6.917   5.137   2.936 -0.3127  0.0527 -0.7741
10181TIP3   OH230485   5.168   0.773   6.415 -0.5586  0.3345 -0.2220
10181TIP3    H130486   5.149   0.788   6.322  0.4838 -0.6761 -0.6306
10181TIP3    H230487   5.109   0.703   6.441 -0.6461  0.4142 -0.2069
10182TIP3   OH230488   1.962   1.672   5.228 -0.3001  0.6282  0.0915
10182TIP3    H130489   2.033   1.702   5.286  0.7951 -0.8808 -0.4126
10182TIP3    H230490   1.950   1.744   5.166 -1.4032  2.2335  2.0258
10183TIP3   OH230491   6.332   2.134   5.775 -0.2447 -0.2198  0.0785
10183TIP3    H130492   6.308   2.046   5.747 -3.1600  0.7406 -0.6851
10183TIP3    H230493   6.293   2.143   5.862 -0.7234  0.6191 -0.2156
10184TIP3   OH230494   1.071   0.449   1.316  0.5825 -0.1658 -0.1342
10184TIP3    H130495   1.098   0.537   1.288  1.6797 -0.9504 -1.7057
10184TIP3    H230496   1.152   0.406   1.342 -0.1107 -0.3064  2.0088
10185TIP3   OH230497   3.491   0.068   0.996  0.2892  0.1408 -0.2632
10185TIP3    H130498   3.531   0.155   0.996  1.6567 -0.4563  0.4029
10185TIP3    H230499   3.421   0.073   0.931 -1.2834  2.4337  1.4372
10186TIP3   OH230500   7.345   6.224   3.784 -0.3426  0.2890 -0.3209
10186TIP3    H130501   7.382   6.160   3.845 -0.7483 -0.4223 -0.8061
10186TIP3    H230502   7.334   6.304   3.836 -1.2823 -0.4918  0.7146
10187TIP3   OH230503   1.031   7.423   1.785 -0.1952 -0.1760 -0.5125
10187TIP3    H130504   0.948   7.394   1.747  0.6930  0.1038 -2.8707
10187TIP3    H230505   1.096   7.362   1.749  0.7093  0.0241  0.7403
10188TIP3   OH230506   4.377   2.543   3.835  0.2329 -0.7097 -0.3193
10188TIP3    H130507   4.295   2.583   3.864 -0.6179 -1.4128 -1.6291
10188TIP3    H230508   4.384   2.463   3.886  1.0285  0.1910  1.0389
10189TIP3   OH230509   1.314   0.921   0.145  0.1925  0.0590  0.3672
10189TIP3    H130510   1.259   0.879   0.079  0.5555 -1.8335  1.2106
10189TIP3    H230511   1.389   0.955   0.097  0.2433 -0.9152 -0.2571
10190TIP3   OH230512   3.853   3.843   3.350  0.4784 -0.1572 -0.0570
10190TIP3    H130513   3.854   3.914   3.286  2.1442  0.3092  0.4295
10190TIP3    H230514   3.918   3.780   3.318  2.0615  0.5388  1.5808
10191TIP3   OH230515   0.176   6.987   4.819  0.3430 -1.0317 -0.5018
10191TIP3    H130516   0.220   7.033   4.749  1.8371 -1.8021 -0.1106
10191TIP3    H230517   0.123   6.921   4.775 -0.8026  0.1786 -0.9955
10192TIP3   OH230518   2.532   4.068   6.395 -0.2889  0.3764  0.8107
10192TIP3    H130519   2.562   4.126   6.325 -0.0269  1.8553  2.0963
10192TIP3    H230520   2.548   4.117   6.476 -1.9080 -0.6719  1.8361
10193TIP3   OH230521   0.139   3.858   6.500  0.3608 -0.0624  0.1061
10193TIP3    H130522   0.150   3.784   6.440 -0.4815 -0.6589  0.6711
10193TIP3    H230523   0.047   3.883   6.490  0.1687 -0.2738  1.2631
10194TIP3   OH230524   5.884   3.457   2.304 -0.3687 -0.1419 -0.1745
10194TIP3    H130525   5.962   3.491   2.349 -0.5009  0.9767 -0.7839
10194TIP3    H230526   5.860   3.380   2.356  1.0224 -0.4053  0.1409
10195TIP3   OH230527   2.236   6.352   6.319 -0.6106 -0.1669 -0.1554
10195TIP3    H130528   2.174   6.289   6.283 -0.8336 -0.4358  0.6671
10195TIP3    H230529   2.189   6.393   6.392 -0.8451  1.7034 -1.2856
10196TIP3   OH230530   4.689   1.402   1.266 -0.2222 -0.4664  0.2855
10196TIP3    H130531   4.668   1.467   1.198 -0.6921  1.1877  1.9223
10196TIP3    H230532   4.782   1.384   1.253  0.1810  1.3366  0.3864
10197TIP3   OH230533   2.888   0.365   4.381 -0.1847 -0.6052  0.3972
10197TIP3    H130534   2.930   0.435   4.330  0.5627 -1.4962 -0.2510
10197TIP3    H230535   2.956   0.336   4.441  0.4121 -2.4908 -1.0848
10198TIP3   OH230536   2.825   7.028   4.465 -0.1318 -0.3016  0.1941
10198TIP3    H130537   2.757   6.995   4.406 -0.1983 -0.8561  0.5787
10198TIP3    H230538   2.891   7.065   4.406 -1.0611  0.8762 -0.1690
10199TIP3   OH230539   8.074   2.091   3.156  0.0962  0.2526  0.0891
10199TIP3    H130540   7.991   2.138   3.166 -0.1365  0.2370 -1.4428
10199TIP3    H230541   8.112   2.127   3.076  0.7161 -0.9805 -0.1959
10200TIP3   OH230542   6.897   5.533   1.717 -0.4927 -0.0428  0.0261
10200TIP3    H130543   6.943   5.526   1.801 -0.8504  1.0663  0.3403
10200TIP3    H230544   6.888   5.627   1.703 -2.0329 -0.2189 -0.3739
10201TIP3   OH230545   6.466   3.014   1.686 -0.3238  0.6131 -0.0752
10201TIP3    H130546   6.376   2.983   1.693  0.2687 -1.7356 -1.6516
10201TIP3    H230547   6.504   2.998   1.772 -1.2258  1.0965  0.4276
10202TIP3   OH230548   1.383   3.027   3.878 -0.0468  0.1666 -0.8977
10202TIP3    H130549   1.300   3.017   3.832 -1.1561  0.1164  1.0015
10202TIP3    H230550   1.448   3.038   3.809 -2.0450  3.8936 -2.4627
10203TIP3   OH230551   0.109   4.008   0.544 -0.4559 -0.7679 -0.1523
10203TIP3    H130552   0.073   4.031   0.458 -2.4535  0.0734  0.8314
10203TIP3    H230553   0.134   4.091   0.583  2.1523 -1.2855 -0.5436
10204TIP3   OH230554   1.791   2.151   6.167  0.3058  0.7444 -0.3085
10204TIP3    H130555   1.802   2.066   6.125 -0.8305 -0.3577  1.5211
10204TIP3    H230556   1.703   2.180   6.142  0.5543  1.2299 -0.6410
10205TIP3   OH230557   2.948   2.757   6.124 -0.3959  0.2567 -0.1038
10205TIP3    H130558   2.976   2.820   6.191 -0.8079 -1.1987  1.5268
10205TIP3    H230559   2.906   2.687   6.174  1.4032 -2.0746 -1.6413
10206TIP3   OH230560   3.851   4.064   1.720 -0.4421  0.4676 -0.2959
10206TIP3    H130561   3.809   4.142   1.756  0.7712  0.9814  0.0537
10206TIP3    H230562   3.811   4.053   1.633 -0.8323  1.3071 -0.2324
10207TIP3   OH230563   6.233   7.678   3.948  0.2851 -0.3680 -0.5704
10207TIP3    H130564   6.169   7.720   4.005 -1.5291 -0.8429 -2.1436
10207TIP3    H230565   6.238   7.734   3.871  0.0267 -1.5054 -1.4474
10208TIP3   OH230566   2.845   6.736   2.145 -0.0300  0.1343  0.1888
10208TIP3    H130567   2.769   6.686   2.173 -0.1530  0.6933  0.9027
10208TIP3    H230568   2.911   6.670   2.125 -0.9075 -0.3823 -1.1024
10209TIP3   OH230569   3.410   2.094   0.319 -0.0143  0.3612  0.2374
10209TIP3    H130570   3.458   2.047   0.387  0.2023 -1.7771 -1.2983
10209TIP3    H230571   3.333   2.040   0.301 -0.5953  1.4019 -0.5302
10210TIP3   OH230572   1.684   4.393   4.122 -0.2451  0.2929  0.4629
10210TIP3    H130573   1.697   4.404   4.216 -0.1388 -0.6689  0.5683
10210TIP3    H230574   1.727   4.310   4.101  1.6048  1.5060 -0.8409
10211TIP3   OH230575   0.956   1.938   4.190 -0.3289 -0.1574  0.2647
10211TIP3    H130576   0.934   1.892   4.108 -1.4698  0.2467  0.3194
10211TIP3    H230577   0.872   1.973   4.220 -0.2038 -1.4373  2.3300
10212TIP3   OH230578   4.031   5.619   1.532 -0.3982 -0.0965 -0.0922
10212TIP3    H130579   3.991   5.640   1.617 -1.3873 -0.3515 -0.4858
10212TIP3    H230580   4.088   5.694   1.514 -0.1485 -0.0558  0.8114
10213TIP3   OH230581   0.544   2.768   1.116 -0.1866 -0.0278 -0.7609
10213TIP3    H130582   0.635   2.776   1.142 -0.4063  0.7498 -0.1927
10213TIP3    H230583   0.535   2.824   1.039 -0.6267  1.5393  0.3803
10214TIP3   OH230584   4.323   1.792   1.960  0.2185 -0.5464  0.5548
10214TIP3    H130585   4.325   1.883   1.931  1.0392 -0.7039  0.0961
10214TIP3    H230586   4.415   1.765   1.961 -0.0005 -1.3117  0.8901
10215TIP3   OH230587   1.930   4.023   4.282  0.1851 -0.1843 -0.0655
10215TIP3    H130588   1.999   4.087   4.263 -0.2337  0.2116 -0.2625
10215TIP3    H230589   1.976   3.939   4.282  0.6450  0.0576 -0.3628
10216TIP3   OH230590   1.414   5.545   1.143 -0.1019 -0.1721 -0.3439
10216TIP3    H130591   1.404   5.557   1.237 -0.0215 -1.6019 -0.1204
10216TIP3    H230592   1.509   5.539   1.130 -0.1252 -0.2697 -0.4693
10217TIP3   OH230593   3.763   0.782   3.708 -0.6408  0.0189  0.0730
10217TIP3    H130594   3.781   0.780   3.614 -0.9930  0.1883  0.0001
10217TIP3    H230595   3.841   0.743   3.748 -0.3366  0.2672 -0.2638
10218TIP3   OH230596   3.428   2.231   1.444 -0.1985 -0.5666 -0.8131
10218TIP3    H130597   3.511   2.272   1.420 -0.0391 -0.8129 -0.6755
10218TIP3    H230598   3.385   2.296   1.499  0.3236 -0.8319 -0.0839
10219TIP3   OH230599   5.889   1.217   1.492 -0.1382  0.1649 -0.7774
10219TIP3    H130600   5.910   1.171   1.573 -1.1706  0.1855 -0.4787
10219TIP3    H230601   5.953   1.288   1.487  0.6472 -0.5177 -0.5783
10220TIP3   OH230602   6.535   6.412   1.418  0.2812 -0.2063 -0.1457
10220TIP3    H130603   6.452   6.433   1.459  0.4764 -2.1739  1.4446
10220TIP3    H230604   6.526   6.320   1.392  1.1819  0.1927 -2.0401
10221TIP3   OH230605   6.011   6.252   0.086  0.0764  0.4181 -0.5555
10221TIP3    H130606   6.063   6.255   0.167 -1.1747 -1.2726  0.3713
10221TIP3    H230607   5.963   6.169   0.092 -0.8738  0.7820 -2.5399
10222TIP3   OH230608   0.739   1.535   2.148 -0.0080  0.3849 -0.1512
10222TIP3    H130609   0.780   1.567   2.068 -0.2717  0.2323 -0.3497
10222TIP3    H230610   0.703   1.613   2.190 -0.2873  0.4069 -0.4237
10223TIP3   OH230611   7.529   3.941   5.372  0.0457  0.4476  0.1774
10223TIP3    H130612   7.455   4.002   5.371  0.2846  0.7397 -0.3424
10223TIP3    H230613   7.498   3.865   5.323 -0.4284 -0.0775  1.2590
10224TIP3   OH230614   4.281   3.271   5.827 -0.0113 -0.3084  0.2639
10224TIP3    H130615   4.274   3.293   5.734  1.2998 -0.9586 -0.0072
10224TIP3    H230616   4.335   3.341   5.864  0.8846 -0.9386  0.1811
10225TIP3   OH230617   0.385   1.208   4.385  0.2271  0.3293 -0.4199
10225TIP3    H130618   0.357   1.130   4.336  0.1149  0.7777 -1.0896
10225TIP3    H230619   0.331   1.207   4.464  1.7164 -1.4413  0.6532
10226TIP3   OH230620   7.671   6.700   1.559 -0.1690  0.4124 -0.4599
10226TIP3    H130621   7.638   6.636   1.622  0.7767  0.2184 -0.1449
10226TIP3    H230622   7.598   6.762   1.548 -1.0329 -0.5947 -0.6271
10227TIP3   OH230623   0.888   6.845   5.044 -0.2335  0.0653  0.5098
10227TIP3    H130624   0.845   6.914   5.094  0.5432  0.5913  0.4813
10227TIP3    H230625   0.890   6.878   4.954  1.8655  0.9314  0.8089
10228TIP3   OH230626   5.322   4.016   1.377 -0.2669 -0.3326 -0.6831
10228TIP3    H130627   5.296   4.041   1.289 -0.0281  2.8391  0.0107
10228TIP3    H230628   5.240   3.998   1.423 -0.5639  0.1253 -1.0238
10229TIP3   OH230629   4.590   4.207   6.037  0.1720 -0.2910  0.1139
10229TIP3    H130630   4.570   4.236   6.126  1.9932  0.8355  0.1971
10229TIP3    H230631   4.623   4.286   5.993  1.7019 -1.3843 -0.7943
10230TIP3   OH230632   5.656   5.808   4.570  0.1923 -0.1397 -0.1992
10230TIP3    H130633   5.692   5.884   4.616 -0.1236 -0.1569  0.0815
10230TIP3    H230634   5.563   5.806   4.595  0.3034 -0.9134  0.2161
10231TIP3   OH230635   3.368   5.076   5.664  0.1587  0.5088 -0.2106
10231TIP3    H130636   3.459   5.092   5.638  0.0926  2.2529  0.4757
10231TIP3    H230637   3.323   5.055   5.583  0.7514  1.8834 -0.9404
10232TIP3   OH230638   6.167   6.621   0.735  0.0682  0.4474 -0.2545
10232TIP3    H130639   6.084   6.573   0.734  0.0714  0.4568 -1.1036
10232TIP3    H230640   6.194   6.619   0.827  0.4436 -1.8146 -0.3614
10233TIP3   OH230641   7.062   0.014   3.456 -0.2315  0.2822  0.1535
10233TIP3    H130642   7.007   0.093   3.449  0.0514  0.3582 -1.9055
10233TIP3    H230643   7.149   0.043   3.428 -0.3378 -0.9330 -1.5848
10234TIP3   OH230644   3.812   4.819   4.942 -0.5043 -0.1045  0.6616
10234TIP3    H130645   3.868   4.780   5.009 -0.2616  1.1618  1.2158
10234TIP3    H230646   3.813   4.755   4.870 -1.2883 -1.7898  2.0818
10235TIP3   OH230647   1.149   5.920   3.505 -0.2831  0.6569  0.1480
10235TIP3    H130648   1.196   5.969   3.572 -0.4975 -0.6301  1.2912
10235TIP3    H230649   1.217   5.880   3.452 -0.1102  1.7318 -0.4588
10236TIP3   OH230650   1.371   4.169   0.646  0.4945 -0.7200  0.4725
10236TIP3    H130651   1.353   4.183   0.739  0.3783 -0.1974  0.3745
10236TIP3    H230652   1.380   4.257   0.610  0.0961 -0.9109 -0.0988
10237TIP3   OH230653   7.541   5.985   5.509  0.1638 -0.2712 -0.1584
10237TIP3    H130654   7.509   6.037   5.582 -0.1526  0.6590 -0.9332
10237TIP3    H230655   7.487   5.907   5.509 -0.8206  0.3955 -0.2736
10238TIP3   OH230656   0.910   6.997   2.482  0.2564  0.0605  0.2274
10238TIP3    H130657   0.914   7.093   2.485  1.1142  0.0288  0.2194
10238TIP3    H230658   0.959   6.974   2.403  0.1366 -0.3906  0.2839
10239TIP3   OH230659   3.698   5.734   0.364 -1.3260 -0.0454  0.1848
10239TIP3    H130660   3.609   5.700   0.351 -1.4343  0.6654 -1.0676
10239TIP3    H230661   3.716   5.717   0.457 -2.1302 -1.6633  0.0926
10240TIP3   OH230662   7.080   4.628   4.531 -0.5647  0.0437 -0.3821
10240TIP3    H130663   7.137   4.647   4.457 -0.8866 -0.9606 -0.8978
10240TIP3    H230664   7.044   4.542   4.513  0.1168 -0.6717  1.4185
10241TIP3   OH230665   7.730   4.594   0.373  0.1024 -0.3043  0.1354
10241TIP3    H130666   7.688   4.602   0.287  1.0549 -0.6768 -0.3738
10241TIP3    H230667   7.681   4.524   0.417  1.0562 -1.7271 -1.0008
10242TIP3   OH230668   2.473   1.255   4.826 -0.3520  0.1373  0.1657
10242TIP3    H130669   2.555   1.210   4.848 -0.6274 -1.4952 -1.8707
10242TIP3    H230670   2.409   1.185   4.816 -1.3115  1.1594 -1.0645
10243TIP3   OH230671   2.792   1.722   3.330  0.3304  0.1327  0.2041
10243TIP3    H130672   2.786   1.761   3.417  1.7217 -1.7516  1.2254
10243TIP3    H230673   2.760   1.633   3.342  0.3996 -0.1077 -1.2598
10244TIP3   OH230674   0.866   1.467   3.381 -0.4914  0.0201  0.5692
10244TIP3    H130675   0.878   1.561   3.369 -2.0123  0.1851  0.1186
10244TIP3    H230676   0.803   1.460   3.453 -1.0333 -0.6215  0.0397
10245TIP3   OH230677   1.473   3.245   6.031  0.4770 -0.5888 -0.4671
10245TIP3    H130678   1.460   3.151   6.015 -0.6865 -0.5894  0.3699
10245TIP3    H230679   1.427   3.287   5.958  0.5463 -0.6701 -0.5577
10246TIP3   OH230680   3.920   3.444   0.154  0.3692 -0.1886 -0.4776
10246TIP3    H130681   3.830   3.467   0.130  0.5069 -0.0033 -0.8275
10246TIP3    H230682   3.967   3.528   0.149  0.3406 -0.0818  0.7368
10247TIP3   OH230683   8.119   1.491   2.154 -0.0065  0.0364  0.0831
10247TIP3    H130684   8.191   1.430   2.167  0.7133  0.5244 -1.3681
10247TIP3    H230685   8.046   1.436   2.126  0.0224 -0.3706  0.7831
10248TIP3   OH230686   3.894   4.539   4.377 -0.0488  0.1290 -0.2110
10248TIP3    H130687   3.926   4.590   4.451 -0.9056  1.9148 -0.9947
10248TIP3    H230688   3.969   4.533   4.318 -0.1530  1.3476 -0.5127
10249TIP3   OH230689   6.856   7.108   5.641 -0.7877  0.4324 -0.3599
10249TIP3    H130690   6.834   7.058   5.562 -3.2245  0.3749  0.2855
10249TIP3    H230691   6.823   7.196   5.624  0.6403  1.0141 -0.2364
10250TIP3   OH230692   0.151   7.005   5.100  0.5930 -0.8461 -0.7942
10250TIP3    H130693   0.235   7.033   5.137  0.5594  0.3166 -1.5532
10250TIP3    H230694   0.155   7.030   5.008 -0.4519 -1.0788 -0.9210
10251TIP3   OH230695   2.528   0.131   1.168  0.1759 -0.0746  0.0902
10251TIP3    H130696   2.438   0.139   1.135  0.1089 -0.3942  0.1909
10251TIP3    H230697   2.565   0.057   1.119  0.9643  1.1612 -1.2486
10252TIP3   OH230698   2.212   4.402   5.009 -1.1328  0.3295 -0.1815
10252TIP3    H130699   2.187   4.492   5.028 -0.3426  0.9191 -1.7246
10252TIP3    H230700   2.190   4.391   4.916 -1.7055 -1.2488  0.1073
10253TIP3   OH230701   3.335   0.173   3.215  0.3842  0.2963 -0.3816
10253TIP3    H130702   3.260   0.154   3.159  1.4921 -1.4475 -1.3463
10253TIP3    H230703   3.385   0.239   3.166 -0.4477  1.4149  0.2352
10254TIP3   OH230704   8.045   7.742   1.711  0.3157  0.2403 -0.0893
10254TIP3    H130705   8.090   7.668   1.670  0.0848  0.6849 -1.1943
10254TIP3    H230706   8.046   7.810   1.644 -1.0142  0.6419  0.2714
10255TIP3   OH230707   0.831   5.795   1.072  0.3794 -0.4933  0.3546
10255TIP3    H130708   0.829   5.887   1.048 -0.3929  0.0207  2.1625
10255TIP3    H230709   0.873   5.793   1.158  2.7741 -2.1724 -0.7385
10256TIP3   OH230710   6.644   7.678   3.663  0.3618 -0.5898 -0.8723
10256TIP3    H130711   6.728   7.688   3.618  2.4496  0.4571  2.8066
10256TIP3    H230712   6.597   7.759   3.644  2.5992  1.3496  1.2487
10257TIP3   OH230713   1.412   3.374   3.638  0.2609 -0.3660 -0.4308
10257TIP3    H130714   1.324   3.358   3.606  0.2754  0.9229 -1.1819
10257TIP3    H230715   1.399   3.409   3.727  0.0441 -0.6793 -0.3396
10258TIP3   OH230716   2.782   2.618   0.616 -0.0084 -0.3031 -0.5724
10258TIP3    H130717   2.783   2.650   0.526 -0.5225  3.0475  0.4659
10258TIP3    H230718   2.689   2.599   0.634 -0.3698  1.6794 -0.0327
10259TIP3   OH230719   1.538   7.458   2.744  0.1997  0.4067 -0.1568
10259TIP3    H130720   1.511   7.376   2.702 -0.7020  0.8027 -0.3800
10259TIP3    H230721   1.529   7.442   2.838 -0.2222  0.3315 -0.2092
10260TIP3   OH230722   6.849   7.406   2.686 -0.0395 -0.4494 -0.4645
10260TIP3    H130723   6.764   7.424   2.725 -0.3794  0.5105 -1.5911
10260TIP3    H230724   6.886   7.335   2.740 -0.7681  0.3321  1.1281
10261TIP3   OH230725   1.788   7.496   5.167 -0.4742 -0.1039  0.8580
10261TIP3    H130726   1.882   7.518   5.170  0.0388 -2.1446  0.8066
10261TIP3    H230727   1.745   7.573   5.205  1.2348  0.7428  1.2021
10262TIP3   OH230728   6.852   0.528   1.739 -0.0357  0.2393 -0.4452
10262TIP3    H130729   6.864   0.441   1.776 -0.2759  0.6394  0.6067
10262TIP3    H230730   6.769   0.559   1.776 -0.1604  0.7603 -1.1264
10263TIP3   OH230731   8.079   7.318   3.133  0.3529 -0.5816 -0.0313
10263TIP3    H130732   8.126   7.372   3.069 -0.6065  0.4622  0.1105
10263TIP3    H230733   8.141   7.305   3.204  0.5911  0.4346 -0.0328
10264TIP3   OH230734   0.901   3.113   4.516 -0.4030 -0.1058  0.2137
10264TIP3    H130735   0.979   3.128   4.464  0.0815  1.4119  1.3081
10264TIP3    H230736   0.829   3.142   4.460 -0.4919 -3.2876 -1.5660
10265TIP3   OH230737   0.131   1.186   2.466 -0.1541  0.0853  0.0987
10265TIP3    H130738   0.087   1.109   2.503 -1.3642  0.3937 -0.6188
10265TIP3    H230739   0.152   1.240   2.542  0.1763 -0.6723  0.5611
10266TIP3   OH230740   0.130   1.606   0.098  0.2426 -0.1760 -0.2211
10266TIP3    H130741   0.043   1.635   0.125  0.5959  1.4459 -0.7503
10266TIP3    H230742   0.150   1.657   0.020  2.6398  1.2852  1.2181
10267TIP3   OH230743   5.977   1.139   6.045  0.6526 -0.1539  0.3309
10267TIP3    H130744   5.892   1.178   6.064  1.3331  1.0317  1.1050
10267TIP3    H230745   6.032   1.213   6.018  1.3978 -0.9185 -0.3151
10268TIP3   OH230746   0.315   1.874   4.047 -0.6233  0.1112  0.1992
10268TIP3    H130747   0.410   1.886   4.053 -0.5322 -0.5083  0.0842
10268TIP3    H230748   0.304   1.781   4.026 -1.2748  0.0335  0.8502
10269TIP3   OH230749   0.070   0.330   4.489 -0.0890 -0.1213  0.3579
10269TIP3    H130750   0.092   0.329   4.396  1.5312  0.1926  0.7014
10269TIP3    H230751   0.031   0.244   4.505  1.7777 -1.1346 -0.1748
10270TIP3   OH230752   2.866   4.093   0.537 -0.4877 -0.1533  0.4066
10270TIP3    H130753   2.796   4.053   0.485 -0.5066 -0.1186  0.4053
10270TIP3    H230754   2.881   4.031   0.609  2.6434 -2.5515 -2.0188
10271TIP3   OH230755   5.340   2.871   6.640 -0.2103 -0.2369  0.5243
10271TIP3    H130756   5.395   2.797   6.666 -0.7855 -0.9207 -0.1839
10271TIP3    H230757   5.336   2.926   6.718  1.4102 -0.2120  0.6128
10272TIP3   OH230758   3.987   4.217   5.899 -0.4110  0.7793  0.5207
10272TIP3    H130759   4.006   4.288   5.961 -1.2358 -0.3474  2.1530
10272TIP3    H230760   4.032   4.140   5.935 -2.0339 -0.2251  0.5049
10273TIP3   OH230761   5.318   7.314   3.157 -0.1241  0.1594 -0.6583
10273TIP3    H130762   5.383   7.383   3.144  0.8756 -0.2474  1.6719
10273TIP3    H230763   5.238   7.361   3.179  0.0583  0.6133 -0.9412
10274TIP3   OH230764   0.501   0.482   2.496 -0.2673  0.2473  0.5311
10274TIP3    H130765   0.488   0.524   2.411 -0.0451 -1.4545 -0.3893
10274TIP3    H230766   0.415   0.447   2.519 -0.1308 -0.0742  0.5607
10275TIP3   OH230767  -0.009   6.033   4.362  0.0466  0.1026 -0.1872
10275TIP3    H130768  -0.030   6.084   4.441 -0.2560 -0.0514 -0.1692
10275TIP3    H230769   0.074   5.991   4.384 -0.4657 -0.6384  0.3929
10276TIP3   OH230770   5.771   5.337   5.088  0.4522  0.1166 -0.3492
10276TIP3    H130771   5.752   5.254   5.044  1.7098 -0.2587 -0.2181
10276TIP3    H230772   5.813   5.312   5.170  0.5346  0.8762 -0.1529
10277TIP3   OH230773   7.933   0.682   0.862 -0.4336  0.0238  0.1530
10277TIP3    H130774   7.960   0.655   0.774 -0.9589  0.4244 -0.1396
10277TIP3    H230775   7.926   0.778   0.857  0.1128  0.1058  0.8008
10278TIP3   OH230776   0.058   4.273   5.146  0.0454  0.2203  0.3509
10278TIP3    H130777   0.041   4.231   5.231 -0.2000 -0.0741  0.1543
10278TIP3    H230778   0.058   4.201   5.083  0.8826  0.3483  0.1849
10279TIP3   OH230779   6.158   7.140   6.008  0.2029  0.0204  0.4828
10279TIP3    H130780   6.159   7.048   5.982 -1.6455  0.0570  0.1385
10279TIP3    H230781   6.123   7.140   6.097 -0.3622  0.4033  0.2709
10280TIP3   OH230782   4.938   4.136   4.780 -0.0003 -0.3152 -0.4972
10280TIP3    H130783   4.926   4.176   4.694  0.7136 -0.5113 -0.6855
10280TIP3    H230784   4.981   4.204   4.832 -1.7554  0.3681  0.1706
10281TIP3   OH230785   7.158   0.956   4.546 -0.0098  0.1484 -0.2827
10281TIP3    H130786   7.173   0.862   4.556  1.8268  0.3072 -1.1570
10281TIP3    H230787   7.164   0.972   4.452  1.0241  1.3116 -0.0493
10282TIP3   OH230788   7.864   6.953   6.255 -0.7908 -0.2399 -0.5142
10282TIP3    H130789   7.862   6.896   6.332  0.0650 -0.2559 -0.4954
10282TIP3    H230790   7.775   6.949   6.220 -1.4505  0.4860  0.9898
10283TIP3   OH230791   1.789   0.257   0.973  0.2732 -0.3942 -0.2141
10283TIP3    H130792   1.795   0.162   0.958 -1.8471 -0.7583  0.7891
10283TIP3    H230793   1.702   0.281   0.939 -0.2347  0.6985  1.6908
10284TIP3   OH230794   8.253   5.105   5.549 -0.2803  0.3711 -0.1452
10284TIP3    H130795   8.283   5.196   5.550 -1.7724  0.8801  0.1047
10284TIP3    H230796   8.297   5.066   5.473 -0.1733  1.4824 -0.6668
10285TIP3   OH230797   6.861   0.929   5.955 -0.5435 -0.1686  0.2422
10285TIP3    H130798   6.943   0.910   6.000 -1.6124  0.8892  2.8468
10285TIP3    H230799   6.888   0.966   5.871  1.7125  1.4052  1.5563
10286TIP3   OH230800   6.201   4.831   4.983 -0.6578  0.4427 -0.2435
10286TIP3    H130801   6.127   4.782   4.948 -1.7343  0.3688  1.9162
10286TIP3    H230802   6.160   4.904   5.031  0.7878  1.7671 -0.9527
10287TIP3   OH230803   4.794   3.085   6.476 -0.9353  0.2944 -0.1172
10287TIP3    H130804   4.755   3.057   6.559 -0.5109  2.3955  0.8600
10287TIP3    H230805   4.722   3.127   6.428 -0.7633  0.7346  0.0058
10288TIP3   OH230806   6.635   0.616   1.110 -0.0179  0.0849 -1.2189
10288TIP3    H130807   6.594   0.698   1.134  0.0785 -0.5511  1.4435
10288TIP3    H230808   6.729   0.635   1.111  0.0251 -0.1123 -0.1887
10289TIP3   OH230809   5.055   6.385   5.512  0.3513  0.1262  0.0366
10289TIP3    H130810   5.000   6.457   5.481 -0.5055 -0.6632 -0.3380
10289TIP3    H230811   5.056   6.395   5.608  0.0237  0.4845  0.0016
10290TIP3   OH230812   0.528   7.276   3.409 -0.6782  0.1171 -0.2465
10290TIP3    H130813   0.472   7.328   3.467 -0.2046  0.5023 -0.1222
10290TIP3    H230814   0.617   7.297   3.437 -0.4793 -1.5851  0.5089
10291TIP3   OH230815   3.353   0.537   3.417 -0.0200  0.0823 -0.3550
10291TIP3    H130816   3.442   0.555   3.388 -0.4013  1.8570 -0.5599
10291TIP3    H230817   3.338   0.445   3.394  1.5644 -0.0874 -0.7986
10292TIP3   OH230818   4.182   0.400   1.360  0.4062  0.6629 -0.6037
10292TIP3    H130819   4.098   0.441   1.337 -0.8860 -0.7347  1.2462
10292TIP3    H230820   4.248   0.456   1.320 -1.4137  0.9796 -3.4631
10293TIP3   OH230821   4.053   3.576   4.089 -0.5110  0.5220 -0.1274
10293TIP3    H130822   4.066   3.657   4.039 -1.7711  1.2150  0.5924
10293TIP3    H230823   4.036   3.606   4.179  0.7046 -0.6417  0.5177
10294TIP3   OH230824   0.211   3.617   1.813 -0.2889  0.3206 -0.2945
10294TIP3    H130825   0.286   3.666   1.849  1.0282  0.2835 -2.7880
10294TIP3    H230826   0.156   3.684   1.774  1.6862  0.0090 -4.0182
10295TIP3   OH230827   7.062   6.703   0.144 -0.4256  0.2230 -0.1588
10295TIP3    H130828   7.078   6.741   0.230  0.4116 -1.3501  0.4066
10295TIP3    H230829   6.975   6.663   0.152 -0.1700 -0.2935  0.1107
10296TIP3   OH230830   2.598   2.935   5.256 -0.3876 -0.2205  0.8956
10296TIP3    H130831   2.663   2.977   5.313  0.0197  0.2156  0.1169
10296TIP3    H230832   2.564   3.006   5.202  0.3300 -0.8814 -0.4613
10297TIP3   OH230833   5.933   3.082   1.710  0.0446 -0.1373  0.2639
10297TIP3    H130834   5.927   2.987   1.725  0.1188 -0.5583 -1.9551
10297TIP3    H230835   5.845   3.114   1.726 -0.3005 -0.8188 -0.1740
10298TIP3   OH230836   0.801   3.273   6.682 -0.4110  0.2432  0.0300
10298TIP3    H130837   0.742   3.291   6.609 -1.0044 -1.8940 -0.0870
10298TIP3    H230838   0.784   3.343   6.745 -1.2731  1.0401 -1.0643
10299TIP3   OH230839   0.084   0.125   1.385 -0.2180  0.1276  0.2815
10299TIP3    H130840   0.168   0.116   1.341  0.0398  1.8754  0.3679
10299TIP3    H230841   0.020   0.090   1.322  0.4337 -0.0009 -0.3154
10300TIP3   OH230842   3.933   3.687   2.937 -0.2475  0.4086  0.2691
10300TIP3    H130843   4.015   3.638   2.935 -0.1639  0.4504  1.7606
10300TIP3    H230844   3.904   3.683   3.028 -1.6407  0.8378 -0.1213
10301TIP3   OH230845   4.138   5.834   6.209  0.0444 -1.1343  0.0964
10301TIP3    H130846   4.202   5.783   6.259  0.1211  0.2881  1.5227
10301TIP3    H230847   4.178   5.921   6.201 -0.9618 -0.7131 -0.5185
10302TIP3   OH230848   4.786   4.007   2.482 -0.4785  0.3009  0.4730
10302TIP3    H130849   4.867   4.040   2.522 -0.0829  1.4045 -1.1506
10302TIP3    H230850   4.811   3.925   2.440 -0.4238  0.1939  0.7093
10303TIP3   OH230851   2.702   1.158   5.369  0.4163 -0.1742  0.2306
10303TIP3    H130852   2.632   1.218   5.345 -0.2710 -1.1430 -0.2782
10303TIP3    H230853   2.778   1.188   5.321  0.1668  0.4727  0.2375
10304TIP3   OH230854   1.503   4.304   1.184  0.6174 -0.5684 -0.3640
10304TIP3    H130855   1.563   4.366   1.225  1.2615  0.2069 -2.3698
10304TIP3    H230856   1.422   4.354   1.171  0.3411 -0.8769  0.1378
10305TIP3   OH230857   4.179   6.588   4.116  0.1230 -0.1374  0.4664
10305TIP3    H130858   4.249   6.619   4.059 -1.5248  0.6888 -1.2077
10305TIP3    H230859   4.177   6.650   4.189  1.3118 -0.3591  0.7056
10306TIP3   OH230860   4.288   0.339   0.064  0.2675  0.1314  0.5233
10306TIP3    H130861   4.380   0.347   0.087  0.3493  0.9269 -0.0511
10306TIP3    H230862   4.255   0.429   0.064 -0.4557 -0.1236  0.4927
10307TIP3   OH230863   1.568   5.949   1.383  0.9175  0.4791  0.1974
10307TIP3    H130864   1.518   5.997   1.315 -0.5331  0.9832  1.5525
10307TIP3    H230865   1.522   5.969   1.464  0.3881 -3.0258  0.9109
10308TIP3   OH230866   2.361   0.847   4.346 -0.2292  0.2681  0.3845
10308TIP3    H130867   2.407   0.915   4.297  2.5085 -0.6732  1.4752
10308TIP3    H230868   2.421   0.772   4.345 -0.7985 -0.3861  3.6396
10309TIP3   OH230869   7.756   5.505   2.764  0.2783 -0.0487 -0.4569
10309TIP3    H130870   7.698   5.430   2.752 -0.0439  0.2311 -0.6541
10309TIP3    H230871   7.710   5.578   2.722 -0.4849  0.7696  1.6900
10310TIP3   OH230872   2.738   4.422   2.884  0.2393  0.2373 -0.3063
10310TIP3    H130873   2.783   4.483   2.826  0.5929  0.0396 -0.2430
10310TIP3    H230874   2.728   4.470   2.966  0.8848  0.0696 -0.1257
10311TIP3   OH230875   4.569   5.884   5.084 -0.1334  0.3892 -0.1684
10311TIP3    H130876   4.559   5.861   5.177 -0.3199  1.7680  0.1762
10311TIP3    H230877   4.494   5.844   5.041  0.2412 -0.7156  0.1776
10312TIP3   OH230878   2.701   3.466   3.300 -0.3891  0.7340  0.0068
10312TIP3    H130879   2.787   3.501   3.323 -0.5015  0.5897  0.6768
10312TIP3    H230880   2.693   3.481   3.206  1.1779 -0.9330 -0.4694
10313TIP3   OH230881   4.652   0.353   3.142 -0.0084  0.4562  0.6154
10313TIP3    H130882   4.682   0.262   3.133  0.1493  0.6822 -2.1108
10313TIP3    H230883   4.727   0.400   3.178  0.1207 -0.3556  1.4555
10314TIP3   OH230884   3.905   5.120   4.466  0.3470  0.2749  0.6360
10314TIP3    H130885   3.928   5.187   4.402 -0.0469  1.5828  1.8071
10314TIP3    H230886   3.987   5.075   4.484  0.4106 -0.3293 -0.9703
10315TIP3   OH230887   2.460   6.939   4.059  0.6074 -0.1946 -0.3664
10315TIP3    H130888   2.537   6.965   4.007  1.1203  0.7948  0.8268
10315TIP3    H230889   2.387   6.983   4.016  1.1216  1.1784  0.1006
10316TIP3   OH230890   0.741   6.101   1.384 -0.5277  0.1756  0.4207
10316TIP3    H130891   0.785   6.183   1.360  0.8157 -0.4566  0.6415
10316TIP3    H230892   0.718   6.112   1.476 -0.4911  0.3628  0.4080
10317TIP3   OH230893   4.826   1.947   1.945 -1.0099  0.2643 -0.2458
10317TIP3    H130894   4.840   2.041   1.957 -0.9831  0.3479 -0.9393
10317TIP3    H230895   4.823   1.934   1.851 -1.0282 -0.4336 -0.1567
10318TIP3   OH230896   2.854   4.847   4.206  0.4846  0.1727  0.1001
10318TIP3    H130897   2.820   4.893   4.129  1.1166 -0.9429 -0.8743
10318TIP3    H230898   2.892   4.916   4.261  1.4883  0.8266 -1.3700
10319TIP3   OH230899   4.065   0.469   5.136  0.3674  0.0510  0.2334
10319TIP3    H130900   4.126   0.394   5.138  1.5263  0.9628  2.6086
10319TIP3    H230901   4.034   0.477   5.226 -1.6493  0.9659 -0.4981
10320TIP3   OH230902   3.080   2.127   5.809  0.7415 -0.3862 -0.3198
10320TIP3    H130903   2.994   2.141   5.769  0.2747 -0.9170  0.4643
10320TIP3    H230904   3.098   2.034   5.794  0.8657 -0.4301  0.0933
10321TIP3   OH230905   0.758   0.154   5.474  0.4834 -0.4506  0.2255
10321TIP3    H130906   0.780   0.132   5.564  0.2211 -2.1558 -0.1050
10321TIP3    H230907   0.794   0.083   5.422  1.6589  1.0785 -1.1622
10322TIP3   OH230908   6.622   2.457   2.213 -0.1968 -0.0533  0.1397
10322TIP3    H130909   6.711   2.479   2.186  0.2847 -1.9188  0.0442
10322TIP3    H230910   6.567   2.478   2.137  0.0798  1.4143  0.3177
10323TIP3   OH230911   1.042   7.062   1.191 -0.0556 -0.4586 -0.4615
10323TIP3    H130912   1.074   7.105   1.270  0.4824 -0.8747 -0.4455
10323TIP3    H230913   0.974   7.002   1.222  1.1933 -1.7391 -0.0948
10324TIP3   OH230914   5.149   5.700   4.281  0.5942 -0.0900 -0.4363
10324TIP3    H130915   5.072   5.723   4.229 -0.4612  0.1048  1.1495
10324TIP3    H230916   5.214   5.672   4.217 -0.0513  1.7769 -1.9932
10325TIP3   OH230917   2.798   3.272   0.165 -0.5909  0.2327 -0.2233
10325TIP3    H130918   2.805   3.312   0.079 -1.4782  1.6882  0.3403
10325TIP3    H230919   2.821   3.343   0.226 -0.8412 -0.5181  0.7708
10326TIP3   OH230920   8.068   2.512   5.917 -0.1489 -1.1949  0.0762
10326TIP3    H130921   8.061   2.548   5.828  0.1650 -0.5054  0.3250
10326TIP3    H230922   8.031   2.424   5.910  0.9008 -1.5774 -0.9967
10327TIP3   OH230923   7.750   3.972   5.754  0.1807 -0.0886  0.8296
10327TIP3    H130924   7.743   3.885   5.713 -1.2335 -0.3857  1.6520
10327TIP3    H230925   7.759   4.032   5.680  1.7780 -0.9493  0.2594
10328TIP3   OH230926   1.327   3.058   3.451  0.5693  0.2845  0.1665
10328TIP3    H130927   1.315   3.067   3.357 -0.7479  2.8066  0.4788
10328TIP3    H230928   1.343   2.965   3.465  0.2878 -0.2251 -2.4836
10329TIP3   OH230929   0.852   1.846   5.864  0.0229 -0.3096  0.1752
10329TIP3    H130930   0.899   1.912   5.914  0.4337 -0.8205  0.4676
10329TIP3    H230931   0.881   1.762   5.900 -0.3899 -0.6583 -0.2811
10330TIP3   OH230932   3.897   6.920   6.176 -0.0108  0.0944 -0.2065
10330TIP3    H130933   3.981   6.941   6.218  0.0009  0.8743 -0.6038
10330TIP3    H230934   3.832   6.970   6.225  0.0256  1.1709 -1.2165
10331TIP3   OH230935   5.413   4.042   1.887 -0.1802  0.0150  0.1999
10331TIP3    H130936   5.450   4.011   1.969 -0.8834  1.8479  1.2836
10331TIP3    H230937   5.462   4.122   1.867 -2.5357  1.7689  0.9758
10332TIP3   OH230938   4.469   0.357   2.827 -0.3338 -0.1114  0.0481
10332TIP3    H130939   4.473   0.426   2.893  0.1471 -0.1875  0.1027
10332TIP3    H230940   4.502   0.397   2.747  0.1058 -0.3279  0.1226
10333TIP3   OH230941   7.087   7.082   3.514  0.2342  1.0997  0.4571
10333TIP3    H130942   7.049   7.110   3.431 -0.1001  0.3245  0.3494
10333TIP3    H230943   7.015   7.042   3.562  1.1234 -1.5290 -0.2582
10334TIP3   OH230944   7.715   2.774   3.638 -0.3500  0.1059 -0.8110
10334TIP3    H130945   7.741   2.829   3.564  1.5024  1.4560  0.7426
10334TIP3    H230946   7.704   2.835   3.711  0.6158 -1.4399  0.7024
10335TIP3   OH230947   6.385   1.437   6.104  0.3519 -0.8144 -0.1791
10335TIP3    H130948   6.405   1.368   6.041 -0.9683 -0.5778 -0.8969
10335TIP3    H230949   6.289   1.446   6.100  0.6141  2.5102 -1.7116
10336TIP3   OH230950   2.645   1.998   3.205 -0.0348  0.3750 -0.0946
10336TIP3    H130951   2.657   1.998   3.300 -0.6313 -1.3227  0.0123
10336TIP3    H230952   2.677   1.912   3.177 -0.1476  0.7372 -1.4040
10337TIP3   OH230953   3.794   7.238   3.313  0.3241  0.5718  0.3991
10337TIP3    H130954   3.738   7.310   3.283 -0.4742  0.7106  2.1191
10337TIP3    H230955   3.865   7.281   3.360  0.6319  0.2907  0.1903
10338TIP3   OH230956   2.196   7.298   1.985  0.0234 -0.1860 -0.1400
10338TIP3    H130957   2.258   7.225   1.981  1.6316  1.0613  0.8174
10338TIP3    H230958   2.121   7.269   1.932 -0.3600 -3.3613  1.8882
10339TIP3   OH230959   0.039   6.130   5.442  0.0722  0.2951 -0.1765
10339TIP3    H130960   0.079   6.121   5.529  1.2752  3.7082 -0.2031
10339TIP3    H230961   0.111   6.118   5.381 -0.4262 -0.3919 -0.6438
10340TIP3   OH230962   2.729   6.387   6.672 -1.0578  0.3038  0.3459
10340TIP3    H130963   2.667   6.410   6.602  1.0129  1.4798 -1.1975
10340TIP3    H230964   2.791   6.327   6.631 -0.4347  0.1385  1.4880
10341TIP3   OH230965   7.313   6.715   2.759  0.0348  0.2448 -0.1393
10341TIP3    H130966   7.250   6.644   2.768  0.9165 -0.7449 -1.4064
10341TIP3    H230967   7.350   6.726   2.846 -1.2555  0.2738  0.4333
10342TIP3   OH230968   0.070   5.658   2.209 -0.0716  0.3497 -0.0944
10342TIP3    H130969   0.054   5.568   2.238 -0.8170  0.0914 -1.2443
10342TIP3    H230970  -0.012   5.704   2.228 -0.3348  0.3350 -1.1706
10343TIP3   OH230971   2.837   3.660   4.709  0.6584  0.3818  0.7732
10343TIP3    H130972   2.917   3.613   4.730  0.1391  0.2290  2.6375
10343TIP3    H230973   2.767   3.596   4.722  0.2152  0.4596 -0.9950
10344TIP3   OH230974   4.578   0.420   3.952  0.6466  0.0358  0.2169
10344TIP3    H130975   4.636   0.398   3.879  0.6304  0.7356 -0.0107
10344TIP3    H230976   4.503   0.464   3.911  1.1883  1.5148  0.7410
10345TIP3   OH230977   2.992   3.390   4.818 -0.1008 -0.3275  0.4056
10345TIP3    H130978   3.042   3.433   4.748 -1.7799  2.2378  0.6487
10345TIP3    H230979   3.051   3.391   4.893  0.8108 -0.8112 -0.2788
10346TIP3   OH230980   4.063   5.008   3.497 -0.6213  0.2734 -0.0234
10346TIP3    H130981   3.980   4.996   3.543 -0.1655  0.5103  0.8710
10346TIP3    H230982   4.039   5.052   3.415 -1.6061 -1.3892 -0.6783
10347TIP3   OH230983   1.131   2.658   4.101  0.1857  0.0616  0.0696
10347TIP3    H130984   1.211   2.657   4.154  0.3745 -0.0499 -0.2183
10347TIP3    H230985   1.115   2.751   4.084  0.0824  0.1038  0.3810
10348TIP3   OH230986   7.026   1.694   5.782 -0.2183  0.2496 -0.3330
10348TIP3    H130987   6.999   1.763   5.843  0.0733 -0.5053  0.6739
10348TIP3    H230988   7.114   1.718   5.755  0.8740 -0.9802  1.9471
10349TIP3   OH230989   2.266   3.680   4.474 -0.0366 -0.6444  0.2181
10349TIP3    H130990   2.361   3.668   4.472  0.1798  1.0120 -0.7178
10349TIP3    H230991   2.238   3.667   4.384 -0.7172 -1.0224  0.4673
10350TIP3   OH230992   3.548   6.495   3.964  0.4884 -0.0762  0.0106
10350TIP3    H130993   3.457   6.485   3.992  0.8687  0.3286  1.4772
10350TIP3    H230994   3.589   6.547   4.033  2.3732 -2.1115  0.5450
10351TIP3   OH230995   1.372   0.864   3.597 -0.3809  0.5345 -0.4487
10351TIP3    H130996   1.441   0.904   3.650  0.3795  1.9518 -2.3735
10351TIP3    H230997   1.411   0.784   3.563 -0.0845  0.7243 -0.5655
10352TIP3   OH230998   4.379   2.995   0.227 -0.4803 -0.6647 -0.3102
10352TIP3    H130999   4.368   3.058   0.298  1.7352  0.1683 -0.6342
10352TIP3    H231000   4.388   2.911   0.271 -0.4790 -0.3467  0.3175
10353TIP3   OH231001   7.881   2.313  -0.006  0.3847 -0.3667  0.3380
10353TIP3    H131002   7.811   2.354   0.046  2.2134  0.5386  2.2457
10353TIP3    H231003   7.962   2.349   0.031  1.8759 -0.9808 -2.1082
10354TIP3   OH231004   0.673   5.039   2.966  0.1574 -0.1648  0.1498
10354TIP3    H131005   0.593   5.029   3.017 -0.1943 -0.1532 -0.3923
10354TIP3    H231006   0.643   5.065   2.879  0.7496 -0.1728 -0.0608
10355TIP3   OH231007   7.264   0.908   5.664 -0.3175  0.1442 -0.2345
10355TIP3    H131008   7.271   0.951   5.750  0.1988  0.0891 -0.2490
10355TIP3    H231009   7.249   0.815   5.685 -0.0323  0.1048 -0.2029
10356TIP3   OH231010   6.728   3.414   0.992  0.1117  0.4026  0.0021
10356TIP3    H131011   6.808   3.410   1.043  0.1800 -0.3705 -0.1544
10356TIP3    H231012   6.755   3.447   0.907  0.0429  1.4173  0.3587
10357TIP3   OH231013   7.113   0.041   4.477  0.1134  0.3724  0.0088
10357TIP3    H131014   7.183  -0.023   4.465 -0.1783  0.0275  0.1283
10357TIP3    H231015   7.068   0.045   4.393  1.7521  2.3929 -0.8562
10358TIP3   OH231016   6.314   1.661   3.167 -0.1524 -0.3770 -0.3221
10358TIP3    H131017   6.257   1.589   3.193  0.3023 -0.4004  0.6935
10358TIP3    H231018   6.258   1.739   3.170 -0.4160 -0.5613 -0.4897
10359TIP3   OH231019   6.875   2.866   6.386 -0.3805 -0.1217 -0.5281
10359TIP3    H131020   6.957   2.898   6.423  0.1359 -1.1366 -0.7611
10359TIP3    H231021   6.837   2.811   6.454  1.2894 -3.2152 -1.8511
10360TIP3   OH231022   6.066   0.965   2.931  0.1829  0.5012  0.2354
10360TIP3    H131023   6.096   0.874   2.931  2.2664  1.0550  3.5751
10360TIP3    H231024   6.131   1.012   2.878  0.5679  0.4245  0.6348
10361TIP3   OH231025   1.012   5.566   1.393 -0.0507 -0.3998 -0.3220
10361TIP3    H131026   1.006   5.527   1.305 -2.3180 -0.3360 -0.2707
10361TIP3    H231027   0.946   5.635   1.393  0.6810  0.3402  1.1065
10362TIP3   OH231028   0.550   6.136   3.077 -0.2788  0.1417 -0.7880
10362TIP3    H131029   0.613   6.207   3.064  0.8833 -0.9350 -1.2010
10362TIP3    H231030   0.565   6.076   3.004 -0.0583 -1.3703  0.4369
10363TIP3   OH231031   4.744   3.891   2.881 -0.0714  0.2786  0.3080
10363TIP3    H131032   4.749   3.911   2.974 -0.4726  0.7566  0.2329
10363TIP3    H231033   4.790   3.808   2.871  1.2247  0.9319  0.7117
10364TIP3   OH231034   6.920   4.630   3.334 -0.1938 -0.6065  0.3046
10364TIP3    H131035   6.853   4.695   3.313  1.3290  0.8539 -0.2300
10364TIP3    H231036   6.915   4.566   3.263  0.8182  1.0238 -1.3417
10365TIP3   OH231037   6.590   2.395   6.409 -0.1246  0.3925  0.2034
10365TIP3    H131038   6.502   2.383   6.444  0.8560 -0.9551  2.3763
10365TIP3    H231039   6.610   2.313   6.364  0.2729  0.4284  0.3100
10366TIP3   OH231040   7.742   6.055   5.316  0.0159  0.3855 -0.3869
10366TIP3    H131041   7.788   6.121   5.367 -0.2247  0.3454 -0.1129
10366TIP3    H231042   7.669   6.028   5.372 -0.5764  0.7403 -0.9794
10367TIP3   OH231043   8.177   0.532   2.878 -0.0022  0.6365 -0.2050
10367TIP3    H131044   8.183   0.583   2.798  2.4229  2.6956  1.1416
10367TIP3    H231045   8.140   0.592   2.943  2.9070  0.8080  1.4353
10368TIP3   OH231046   7.602   5.712   1.195 -0.1562 -0.3991  0.0581
10368TIP3    H131047   7.607   5.714   1.291 -0.2818  1.0426  0.0625
10368TIP3    H231048   7.538   5.781   1.174 -1.1399 -1.5935 -1.0192
10369TIP3   OH231049   3.464   6.038   1.474  0.6150  0.6935 -0.3398
10369TIP3    H131050   3.516   6.064   1.398  1.5775  2.1225  0.7598
10369TIP3    H231051   3.380   6.082   1.461  0.6173  0.5780 -0.7765
10370TIP3   OH231052   1.649   4.147   3.127  0.0526 -1.2897  0.4296
10370TIP3    H131053   1.574   4.122   3.180  0.3454  0.8243  1.9903
10370TIP3    H231054   1.688   4.221   3.173  0.8019  0.2288 -2.3506
10371TIP3   OH231055   0.231   0.283   6.204 -0.2067 -0.0234  0.2321
10371TIP3    H131056   0.205   0.375   6.209  0.9189  0.2342  1.9744
10371TIP3    H231057   0.321   0.281   6.235 -0.1870 -1.7081  0.1617
10372TIP3   OH231058   2.976   4.620   4.309  0.2992 -0.4496 -0.0364
10372TIP3    H131059   2.966   4.674   4.388 -0.2569  0.2000 -0.5326
10372TIP3    H231060   2.960   4.681   4.237 -1.2537 -1.4636 -0.5968
10373TIP3   OH231061   2.638   5.799   0.152  0.2200  0.1311 -0.3704
10373TIP3    H131062   2.585   5.873   0.180  0.4383  0.7928 -1.6331
10373TIP3    H231063   2.675   5.764   0.233  1.4611  2.4372  0.1538
10374TIP3   OH231064   0.732   5.286   3.589  0.0994 -0.0395  0.2718
10374TIP3    H131065   0.769   5.253   3.671  1.5828 -1.3271 -0.8665
10374TIP3    H231066   0.670   5.355   3.617  1.4585  0.4210  2.3852
10375TIP3   OH231067   8.020   5.370   2.711  0.1749 -0.0392 -0.2353
10375TIP3    H131068   7.934   5.398   2.740 -0.2208 -0.9627 -0.4882
10375TIP3    H231069   8.015   5.274   2.707  0.9949 -0.0714 -0.9022
10376TIP3   OH231070   7.303   2.124   4.790  0.0920  0.0317 -0.9802
10376TIP3    H131071   7.360   2.091   4.859  0.0338 -0.5966 -1.2222
10376TIP3    H231072   7.363   2.147   4.719  0.0504 -0.7347 -1.2773
10377TIP3   OH231073   2.649   6.840   2.522  0.4513 -0.5327 -0.2617
10377TIP3    H131074   2.584   6.783   2.481  0.3814 -0.1989 -0.6145
10377TIP3    H231075   2.704   6.781   2.574  0.0140 -0.8457 -0.1548
10378TIP3   OH231076   5.770   1.147   3.528 -0.3298 -0.6392 -0.2785
10378TIP3    H131077   5.719   1.078   3.570 -0.0510 -1.1708 -0.8148
10378TIP3    H231078   5.851   1.105   3.500 -0.0362 -0.0339 -0.3591
10379TIP3   OH231079   0.633   4.434   6.570 -0.1426  0.7620  0.0391
10379TIP3    H131080   0.602   4.345   6.587  1.8638 -0.0344 -0.1606
10379TIP3    H231081   0.587   4.489   6.633 -1.1625 -0.4713  0.3874
10380TIP3   OH231082   5.933   1.713   0.605  0.0837 -0.4360 -0.0053
10380TIP3    H131083   5.930   1.684   0.514 -0.3982 -1.3113  0.2774
10380TIP3    H231084   5.849   1.687   0.642 -0.2931  1.1479  0.3429
10381TIP3   OH231085   5.185   4.181   3.500 -0.1074 -0.0051 -0.2062
10381TIP3    H131086   5.265   4.233   3.505  1.2096 -1.9679  0.5257
10381TIP3    H231087   5.196   4.130   3.419 -0.0346 -1.0928  0.4596
10382TIP3   OH231088   3.819   5.654   5.465  0.3583 -0.4794  0.1132
10382TIP3    H131089   3.895   5.654   5.407 -0.9583  0.2415 -1.7251
10382TIP3    H231090   3.744   5.660   5.406 -1.2805 -3.0311  1.7364
10383TIP3   OH231091   6.754   2.365   2.563 -0.2370  0.3464  0.3624
10383TIP3    H131092   6.777   2.295   2.501 -0.1814  0.1379  0.6142
10383TIP3    H231093   6.660   2.377   2.551  0.2349  2.4912 -2.0025
10384TIP3   OH231094   6.729   5.289   3.739 -0.2528 -0.2899 -0.4089
10384TIP3    H131095   6.778   5.310   3.818  1.1542 -0.4058 -1.2008
10384TIP3    H231096   6.662   5.356   3.733  0.0545  0.1122  0.5273
10385TIP3   OH231097   4.206   5.923   3.181  0.2995  0.5231 -0.5663
10385TIP3    H131098   4.189   5.984   3.109 -1.5941  2.9481  1.7480
10385TIP3    H231099   4.283   5.960   3.226  2.1342 -1.5538 -1.7763
10386TIP3   OH231100   4.088   2.022   3.093 -0.0677 -0.2428  0.2263
10386TIP3    H131101   4.167   2.007   3.144  0.5213 -0.0969 -0.6232
10386TIP3    H231102   4.031   2.073   3.151  1.1186  1.0832  0.2893
10387TIP3   OH231103   0.968   7.372   0.773  0.3098  0.4732  0.3899
10387TIP3    H131104   0.958   7.319   0.853 -0.2993 -0.7028 -0.4358
10387TIP3    H231105   1.034   7.325   0.722  0.8879  1.3673  0.2987
10388TIP3   OH231106   4.816   0.968   2.255 -0.4340  0.4425  0.0646
10388TIP3    H131107   4.808   1.000   2.344 -1.7834  1.6212 -0.4458
10388TIP3    H231108   4.838   1.045   2.203  2.2292 -0.5186 -0.4443
10389TIP3   OH231109   3.597   4.311   2.514  0.5576 -0.1854 -0.2030
10389TIP3    H131110   3.579   4.404   2.505 -0.9446 -0.5753 -1.7128
10389TIP3    H231111   3.673   4.307   2.571 -1.6426  1.7969  3.1995
10390TIP3   OH231112   6.415   0.081   4.115  0.3638  0.2045  0.0514
10390TIP3    H131113   6.481   0.081   4.185  0.6273 -0.0384 -0.1898
10390TIP3    H231114   6.467   0.079   4.034  0.0769  1.4318 -0.1798
10391TIP3   OH231115   8.244   3.337   0.567 -0.1257 -0.1658 -0.4570
10391TIP3    H131116   8.279   3.410   0.618 -0.2019 -0.7240  0.4159
10391TIP3    H231117   8.181   3.295   0.626 -0.0282 -0.9849 -0.9219
10392TIP3   OH231118   0.173   2.088   2.005  0.4031  0.4400 -0.1303
10392TIP3    H131119   0.184   2.025   1.933 -1.6545  0.3211 -0.3997
10392TIP3    H231120   0.079   2.098   2.013  0.6324  1.4429  1.7322
10393TIP3   OH231121   6.467   1.271   3.701  0.3492  0.5203  0.0185
10393TIP3    H131122   6.521   1.209   3.750  0.3053  0.7282  0.3336
10393TIP3    H231123   6.509   1.278   3.616 -0.3313 -0.8996 -0.4803
10394TIP3   OH231124   3.664   7.533   6.458 -0.9701 -0.9969  0.2662
10394TIP3    H131125   3.615   7.513   6.537 -0.0328 -0.4869  1.0018
10394TIP3    H231126   3.755   7.513   6.480 -0.5501  0.1239 -0.3220
10395TIP3   OH231127   8.138   2.439   2.445  0.4084 -0.3831  0.1115
10395TIP3    H131128   8.193   2.453   2.368  1.0366 -0.4235  0.5447
10395TIP3    H231129   8.085   2.362   2.423  1.2561 -0.9758  0.0770
10396TIP3   OH231130   7.087   2.444   1.674  0.2751 -0.0260  0.6570
10396TIP3    H131131   7.010   2.433   1.617 -0.9192 -1.2002  2.3702
10396TIP3    H231132   7.073   2.380   1.744  2.4348  0.3231  1.4725
10397TIP3   OH231133   7.728   7.593   0.304 -0.6881 -0.1113 -0.6174
10397TIP3    H131134   7.766   7.639   0.228  1.4448 -1.9095 -0.7415
10397TIP3    H231135   7.683   7.518   0.266 -1.6423  0.2564 -0.2283
10398TIP3   OH231136   1.166   7.427   1.011 -0.1726  0.5886  0.1675
10398TIP3    H131137   1.083   7.381   1.018 -0.2558  0.8154  0.6979
10398TIP3    H231138   1.232   7.363   1.039 -0.2579  0.7012  0.6204
10399TIP3   OH231139   5.794   1.737   1.679 -0.1764 -0.0528 -0.8110
10399TIP3    H131140   5.723   1.798   1.698 -1.9102 -2.0407 -0.5094
10399TIP3    H231141   5.856   1.787   1.626 -0.8342  2.3200  0.5210
10400TIP3   OH231142   5.644   4.747   1.221  0.4175  0.0891 -0.1717
10400TIP3    H131143   5.644   4.736   1.126  0.8344  2.7333 -0.5473
10400TIP3    H231144   5.692   4.828   1.236  0.4011 -0.2803  2.3197
10401TIP3   OH231145   0.782   6.872   0.081  0.2325  0.2402 -0.2974
10401TIP3    H131146   0.738   6.787   0.081 -2.4064  1.4820  1.2039
10401TIP3    H231147   0.845   6.867   0.153  1.1747 -0.8950 -1.1724
10402TIP3   OH231148   4.856   4.946   2.287  0.0558 -0.2664  0.3584
10402TIP3    H131149   4.832   5.002   2.360  0.6278  1.5601 -0.7915
10402TIP3    H231150   4.781   4.950   2.227 -0.8324 -2.5284  1.2041
10403TIP3   OH231151   0.598   5.789   6.276 -0.2394 -0.5433 -0.4215
10403TIP3    H131152   0.529   5.846   6.241 -1.9477 -0.3566  2.8554
10403TIP3    H231153   0.619   5.730   6.203 -2.4505  0.6829 -2.1953
10404TIP3   OH231154   4.888   1.092   0.165 -0.5611  0.0806 -0.0616
10404TIP3    H131155   4.831   1.169   0.167 -0.3774  0.2083  0.6499
10404TIP3    H231156   4.970   1.124   0.128 -0.7718  0.0186 -0.5911
10405TIP3   OH231157   3.696   5.439   1.405 -0.3700 -0.1303 -0.2808
10405TIP3    H131158   3.670   5.364   1.352  0.4275  0.0175 -0.8962
10405TIP3    H231159   3.789   5.449   1.389 -0.1883  0.1766  0.8387
10406TIP3   OH231160   1.322   1.439   6.443  0.6893  0.2962  0.2032
10406TIP3    H131161   1.350   1.361   6.396 -0.0346  1.6902 -2.8003
10406TIP3    H231162   1.377   1.509   6.408 -0.3675  1.5413  0.9239
10407TIP3   OH231163   2.905   6.201   2.917 -0.3295 -0.0238 -0.2767
10407TIP3    H131164   2.837   6.186   2.983 -1.1878  1.4323 -0.7856
10407TIP3    H231165   2.975   6.245   2.965 -0.7040  0.5009 -0.2021
10408TIP3   OH231166   8.052   0.434   4.294 -0.2460  0.4894  0.7967
10408TIP3    H131167   8.060   0.516   4.246 -0.1337  0.0247  0.0094
10408TIP3    H231168   7.984   0.452   4.359 -1.1399  0.8318 -0.1960
10409TIP3   OH231169   4.534   6.919   0.502 -0.5695 -0.3487  0.0595
10409TIP3    H131170   4.591   6.995   0.493  1.1571 -1.5314  0.2863
10409TIP3    H231171   4.458   6.938   0.447  0.6414  0.7893 -1.3046
10410TIP3   OH231172   7.451   7.296   2.838  0.4709  0.4746  0.0019
10410TIP3    H131173   7.490   7.305   2.925 -1.6765  0.8664  0.9864
10410TIP3    H231174   7.484   7.213   2.805  0.9303  0.0807  1.4073
10411TIP3   OH231175   0.593   6.844   0.685  0.1166 -0.0194 -0.1266
10411TIP3    H131176   0.590   6.904   0.610 -0.6507 -0.3083 -0.3401
10411TIP3    H231177   0.503   6.843   0.718  0.2016 -0.7622  0.1051
10412TIP3   OH231178   0.067   7.065   5.730  0.0053  0.2510 -0.0461
10412TIP3    H131179   0.083   7.007   5.804 -0.9222  3.2172  2.7265
10412TIP3    H231180  -0.028   7.068   5.722  0.0711  0.7207 -0.7032
10413TIP3   OH231181   2.902   1.983   0.691 -0.0946  0.0859  0.0977
10413TIP3    H131182   2.982   2.013   0.734  0.6263 -0.8936 -0.5392
10413TIP3    H231183   2.836   2.048   0.716  1.1419  1.5548 -0.2869
10414TIP3   OH231184   5.552   0.016   0.957  0.4833 -0.1390  0.1437
10414TIP3    H131185   5.612   0.080   0.918 -0.3563 -0.0325 -1.0466
10414TIP3    H231186   5.581  -0.068   0.921  0.0512 -0.1091 -0.2877
10415TIP3   OH231187   3.812   3.590   6.440 -0.2801  0.1681  0.1230
10415TIP3    H131188   3.718   3.606   6.444 -0.0499  3.2938 -2.5684
10415TIP3    H231189   3.843   3.608   6.529 -1.9270  1.8610  0.4229
10416TIP3   OH231190   7.572   6.823   4.321 -0.1256  0.4193 -0.1804
10416TIP3    H131191   7.479   6.837   4.337 -0.6431 -0.5167 -1.9957
10416TIP3    H231192   7.606   6.910   4.301 -0.4872  0.8384  0.9598
10417TIP3   OH231193   1.372   6.117   1.270 -0.3186 -0.2129  0.2705
10417TIP3    H131194   1.392   6.169   1.349  1.7492 -1.3600  0.5681
10417TIP3    H231195   1.357   6.183   1.202  1.2865  0.8237  0.8531
10418TIP3   OH231196   2.765   1.192   2.729 -0.1684 -0.2278  0.5779
10418TIP3    H131197   2.707   1.140   2.674  0.0445 -0.1655  0.2893
10418TIP3    H231198   2.723   1.193   2.815  1.1417 -3.1414  1.3638
10419TIP3   OH231199   7.203   6.972   0.576 -0.1037  0.3533  0.8064
10419TIP3    H131200   7.229   7.064   0.566 -1.2366  0.7755  1.5220
10419TIP3    H231201   7.285   6.923   0.569  0.7523  1.5411  1.9202
10420TIP3   OH231202   3.230   4.202   6.361  0.1673  0.1689  0.5607
10420TIP3    H131203   3.191   4.289   6.364 -1.4710 -0.5295  1.1116
10420TIP3    H231204   3.202   4.161   6.442  0.7122 -0.9433  0.2063
10421TIP3   OH231205   1.620   3.914   0.990 -0.1450  0.0271 -0.5319
10421TIP3    H131206   1.556   3.843   0.996 -2.2919  1.9090  0.5009
10421TIP3    H231207   1.606   3.951   0.903 -0.0952  0.0987 -0.5094
10422TIP3   OH231208   7.957   5.607   2.531  0.0446  0.6013 -0.4888
10422TIP3    H131209   7.865   5.598   2.556  0.5364 -0.5587  1.0282
10422TIP3    H231210   7.977   5.526   2.483  1.1224 -0.8281  2.1698
10423TIP3   OH231211   2.558   1.691   0.783 -0.4560 -0.0362  0.1619
10423TIP3    H131212   2.592   1.721   0.867 -1.3447  0.1167  0.4806
10423TIP3    H231213   2.547   1.597   0.794  0.3518 -0.1751 -0.1280
10424TIP3   OH231214   4.687   0.085   3.816 -0.6526  0.1876 -0.4221
10424TIP3    H131215   4.710   0.165   3.863 -0.1365 -0.1830 -0.0362
10424TIP3    H231216   4.756   0.023   3.839 -2.3361 -1.1655  1.3052
10425TIP3   OH231217   8.182   5.508   5.714 -0.1052 -0.1507  0.3983
10425TIP3    H131218   8.267   5.523   5.756 -0.8191  0.7117  1.6081
10425TIP3    H231219   8.138   5.593   5.715 -1.8257 -0.9725  1.7979
10426TIP3   OH231220   2.712   0.391   0.142  0.3513  0.0503  0.3614
10426TIP3    H131221   2.787   0.364   0.194 -0.4132 -0.4902  1.2088
10426TIP3    H231222   2.731   0.481   0.117  1.5621 -0.2867  0.0255
10427TIP3   OH231223   2.183   0.710   2.638  0.0378 -0.0380  0.1620
10427TIP3    H131224   2.126   0.701   2.715 -2.3346  2.5542 -1.1015
10427TIP3    H231225   2.258   0.761   2.669  0.1627 -0.8026  1.1744
10428TIP3   OH231226   4.887   1.367   0.403  0.2741 -0.1617  0.2783
10428TIP3    H131227   4.858   1.310   0.475  1.1184  1.2246  1.8085
10428TIP3    H231228   4.806   1.405   0.368 -0.1619 -0.9621  0.3940
10429TIP3   OH231229   4.112   2.160   3.837  0.9665 -0.0834  0.0413
10429TIP3    H131230   4.118   2.091   3.771 -0.2309 -0.3557  0.1867
10429TIP3    H231231   4.084   2.238   3.788  0.4123 -0.2015  0.1556
10430TIP3   OH231232   6.742   7.299   6.316 -0.0618 -0.2482  0.1728
10430TIP3    H131233   6.715   7.225   6.370 -2.0670  0.1954 -0.1395
10430TIP3    H231234   6.825   7.328   6.354 -0.0200 -1.6807  1.2420
10431TIP3   OH231235   3.769   7.494   5.874 -0.0572 -0.1995  0.1772
10431TIP3    H131236   3.692   7.441   5.891 -0.1838 -0.2096 -0.4298
10431TIP3    H231237   3.754   7.575   5.923 -1.5639  0.8013 -1.8121
10432TIP3   OH231238   7.854   4.949   2.987  0.4970 -0.4103 -0.1457
10432TIP3    H131239   7.847   4.986   2.899 -2.8193 -0.3571  0.0110
10432TIP3    H231240   7.885   4.860   2.974 -0.3370 -0.5341 -1.4530
10433TIP3   OH231241   1.620   6.405   1.803  0.1969 -0.1896  0.2783
10433TIP3    H131242   1.603   6.336   1.867  0.7917  2.0188  3.0225
10433TIP3    H231243   1.714   6.397   1.784  0.0538 -0.7371 -0.2558
10434TIP3   OH231244   2.646   4.452   2.585  0.1480  0.0945 -0.0104
10434TIP3    H131245   2.610   4.371   2.549 -0.0629 -0.0897  0.5919
10434TIP3    H231246   2.635   4.443   2.680  3.1037 -0.6244  0.3776
10435TIP3   OH231247   5.605   7.327   4.096  0.4394  0.2299 -0.0294
10435TIP3    H131248   5.600   7.319   4.001 -2.3589 -0.0427  0.0571
10435TIP3    H231249   5.520   7.361   4.122  0.3266 -1.6733  2.5287
10436TIP3   OH231250   4.063   7.432   0.425  0.4643 -0.0369  0.2468
10436TIP3    H131251   4.038   7.430   0.333 -0.9940  0.6428  0.5903
10436TIP3    H231252   3.989   7.393   0.471  0.6663  0.6726  1.2142
10437TIP3   OH231253   7.562   2.395   4.228 -0.3072  0.7594 -0.4511
10437TIP3    H131254   7.478   2.409   4.272  0.9176  2.0355  1.6461
10437TIP3    H231255   7.564   2.461   4.159 -1.1247  0.5217 -0.7168
10438TIP3   OH231256   2.669   1.916   5.964 -0.2100  1.0369 -0.0607
10438TIP3    H131257   2.671   1.975   5.888 -0.8905  0.0050 -0.9048
10438TIP3    H231258   2.677   1.828   5.927 -1.0021  0.4834  1.0117
10439TIP3   OH231259   2.793   5.969   3.765  0.2073 -0.5098 -0.0729
10439TIP3    H131260   2.791   6.048   3.819  1.6852 -1.1014  0.8979
10439TIP3    H231261   2.775   6.001   3.676 -3.0303  0.3883  0.7554
10440TIP3   OH231262   4.810   4.985   1.872 -0.3641  0.0694 -0.5435
10440TIP3    H131263   4.847   4.916   1.927  1.3958  1.3989  0.0412
10440TIP3    H231264   4.869   4.990   1.797 -1.4690 -0.1965 -1.4546
10441TIP3   OH231265   5.145   7.495   6.688 -0.2317 -0.8648 -0.0414
10441TIP3    H131266   5.161   7.472   6.780  0.6614  0.3097  0.1283
10441TIP3    H231267   5.110   7.584   6.692  1.4623 -0.1109 -0.8925
10442TIP3   OH231268   7.036   5.980   6.045 -0.3781  0.3365 -0.8813
10442TIP3    H131269   7.018   5.887   6.048 -2.1937  0.6856  0.1458
10442TIP3    H231270   6.971   6.020   6.102 -0.0563  2.3005 -1.7813
10443TIP3   OH231271   3.423   1.261   3.377 -0.3938 -0.0825  1.1682
10443TIP3    H131272   3.424   1.228   3.287  1.4068 -0.1405  1.1787
10443TIP3    H231273   3.364   1.201   3.423 -0.1254 -0.9833  0.3675
10444TIP3   OH231274   6.628   2.318   5.568  0.2496 -0.1376 -0.0651
10444TIP3    H131275   6.655   2.400   5.527 -1.3816  0.3933 -0.1187
10444TIP3    H231276   6.541   2.336   5.604  1.1121 -0.9110  2.6553
10445TIP3   OH231277   8.125   1.649   3.544 -0.3959 -0.0896 -0.2524
10445TIP3    H131278   8.181   1.578   3.513 -0.9046 -1.3946  1.6760
10445TIP3    H231279   8.164   1.728   3.505  1.5950 -1.1494 -0.5476
10446TIP3   OH231280   6.820   1.723   4.450  0.5250 -0.1415  0.3556
10446TIP3    H131281   6.766   1.727   4.529  1.1042 -0.1126  0.7520
10446TIP3    H231282   6.779   1.655   4.396 -2.4085  2.5939 -1.2282
10447TIP3   OH231283   7.830   0.120   3.294 -0.3628 -0.1958 -0.2488
10447TIP3    H131284   7.757   0.092   3.349 -0.8591  0.1149 -0.7451
10447TIP3    H231285   7.789   0.154   3.215  0.3639 -3.0247 -2.0044
10448TIP3   OH231286   6.455   6.595   1.065 -0.1490 -0.1437 -0.3026
10448TIP3    H131287   6.520   6.619   0.999 -0.3537 -0.0604 -0.4769
10448TIP3    H231288   6.378   6.570   1.014  0.2591 -1.7852 -0.1508
10449TIP3   OH231289   6.346   0.335   6.513 -0.2585  0.2414  0.5013
10449TIP3    H131290   6.424   0.320   6.566  0.3706  2.4961  0.2881
10449TIP3    H231291   6.370   0.306   6.425  0.5811  1.4923  0.3009
10450TIP3   OH231292   8.169   1.338   5.074  0.0984  0.1397  0.1910
10450TIP3    H131293   8.219   1.391   5.137  0.2108 -0.1113  0.3136
10450TIP3    H231294   8.229   1.268   5.048 -0.0577  0.0595  0.0466
10451TIP3   OH231295   8.105   4.093   1.749 -0.3909 -0.5832  0.3941
10451TIP3    H131296   8.048   4.031   1.703 -2.3391  0.2452  1.5928
10451TIP3    H231297   8.079   4.087   1.841  0.3732  0.9737  0.7487
10452TIP3   OH231298   3.645   4.419   1.323 -0.2571  0.1606  0.2541
10452TIP3    H131299   3.684   4.422   1.410  0.9794  1.4088 -0.2891
10452TIP3    H231300   3.597   4.501   1.315  0.6710  0.6550 -0.6390
10453TIP3   OH231301   3.623   3.535   4.403 -0.5079 -0.1758  0.1516
10453TIP3    H131302   3.544   3.490   4.432 -1.1594  1.7435  1.5744
10453TIP3    H231303   3.604   3.628   4.416  0.5761  0.6328 -3.1032
10454TIP3   OH231304   7.656   3.792   5.566 -0.2028 -0.0901  0.3669
10454TIP3    H131305   7.591   3.733   5.604 -0.8074  0.7485  0.6741
10454TIP3    H231306   7.606   3.848   5.507  0.6648 -1.1523 -1.4780
10455TIP3   OH231307   4.487   1.534   6.448  0.2833  0.2694 -0.7302
10455TIP3    H131308   4.427   1.544   6.522  0.0654 -0.4791 -0.7990
10455TIP3    H231309   4.533   1.452   6.465  0.2407  0.0928 -1.4092
10456TIP3   OH231310   6.645   0.090   2.689  0.2382 -0.5130  0.4003
10456TIP3    H131311   6.621   0.171   2.644 -1.1568 -0.4028  1.2566
10456TIP3    H231312   6.591   0.023   2.647  2.3019 -1.2866 -1.1668
10457TIP3   OH231313   0.531   0.231   3.612  0.0897  0.3425  0.4162
10457TIP3    H131314   0.571   0.297   3.555  0.0568 -0.2489 -0.3229
10457TIP3    H231315   0.456   0.198   3.561  2.4729 -3.2463 -1.2309
10458TIP3   OH231316   5.798   7.689   4.334  0.2033  0.1868  0.2439
10458TIP3    H131317   5.854   7.767   4.337 -0.2563  0.7014 -2.1763
10458TIP3    H231318   5.709   7.723   4.343  0.1164 -0.4034  1.9636
10459TIP3   OH231319   0.410   7.557   0.248 -0.0286 -0.3076  0.4267
10459TIP3    H131320   0.348   7.500   0.202  1.0224  1.2870 -3.3024
10459TIP3    H231321   0.354   7.614   0.301 -1.6106 -0.4905 -0.9456
10460TIP3   OH231322   2.073   1.395   2.499  0.1990 -0.5803 -0.1520
10460TIP3    H131323   2.106   1.440   2.422 -2.1340 -0.0833 -0.9441
10460TIP3    H231324   2.149   1.386   2.557  1.6138  0.5983 -1.7516
10461TIP3   OH231325   8.050   7.190   0.247 -0.0329 -0.0166 -0.1281
10461TIP3    H131326   8.138   7.176   0.283 -0.7740 -0.6003  1.5630
10461TIP3    H231327   8.065   7.246   0.171  1.7020  0.9745  0.8411
10462TIP3   OH231328   3.600   1.415   4.543 -0.3291 -0.3369  0.1813
10462TIP3    H131329   3.665   1.461   4.596 -1.6784  0.7839  0.9102
10462TIP3    H231330   3.635   1.326   4.534  0.8702 -0.0020  1.2812
10463TIP3   OH231331   1.317   4.382   6.126  0.7044 -0.2983 -0.7558
10463TIP3    H131332   1.410   4.360   6.115  1.2514  0.9096  0.8562
10463TIP3    H231333   1.288   4.326   6.198  0.8948  1.0029  0.3775
10464TIP3   OH231334   5.265   1.612   2.951  0.9381  0.5269  0.0214
10464TIP3    H131335   5.278   1.520   2.931  0.4012  0.1124  1.4016
10464TIP3    H231336   5.336   1.657   2.907  1.0601 -0.5120 -0.8887
10465TIP3   OH231337   0.227   1.169   4.610  0.0049 -0.8292  0.2384
10465TIP3    H131338   0.150   1.123   4.642 -1.4609  1.7686  0.7793
10465TIP3    H231339   0.248   1.231   4.679  1.5253 -0.3156 -0.6432
10466TIP3   OH231340   6.843   6.342   4.813 -0.3927  0.7335 -0.9035
10466TIP3    H131341   6.899   6.264   4.807 -1.3731  0.0450 -1.3300
10466TIP3    H231342   6.794   6.343   4.731 -2.3878  0.2203  0.2132
10467TIP3   OH231343   0.689   2.877   3.831  0.1355  0.1985 -0.0401
10467TIP3    H131344   0.760   2.813   3.838  0.9722  0.8985 -1.6363
10467TIP3    H231345   0.719   2.951   3.884  0.2600  0.1897 -0.0958
10468TIP3   OH231346   2.710   2.663   3.812  0.3496  0.1030 -0.4994
10468TIP3    H131347   2.619   2.664   3.843  1.0223 -1.0134  1.7482
10468TIP3    H231348   2.747   2.746   3.842  0.5765 -0.3034  0.3867
10469TIP3   OH231349   2.716   5.228   3.906  0.3589  0.4689 -0.0987
10469TIP3    H131350   2.690   5.275   3.986  0.3170 -0.6361  0.5567
10469TIP3    H231351   2.779   5.162   3.936  0.1652 -0.1186 -0.9471
10470TIP3   OH231352   5.986   4.706   1.336  0.2638 -0.1156  0.2377
10470TIP3    H131353   5.951   4.761   1.406  1.0903  1.4562 -0.5257
10470TIP3    H231354   5.913   4.651   1.309 -0.7630  0.9918  0.6812
10471TIP3   OH231355   1.042   0.674   5.501  0.3346 -0.0485 -0.9055
10471TIP3    H131356   0.996   0.631   5.573  0.5736 -1.1132 -1.3741
10471TIP3    H231357   1.109   0.727   5.544 -2.2439  2.8274 -0.0961
10472TIP3   OH231358   7.864   0.527   0.362 -0.3573  0.1635  0.4739
10472TIP3    H131359   7.873   0.526   0.266 -3.7844  2.1663 -0.0177
10472TIP3    H231360   7.881   0.436   0.388 -0.0999 -0.6101 -2.0957
10473TIP3   OH231361   6.567   1.239   6.706 -0.7171  0.1124  0.5966
10473TIP3    H131362   6.525   1.300   6.647 -0.1291  2.6167  2.5846
10473TIP3    H231363   6.654   1.277   6.722  0.3047 -2.1000  0.7202
10474TIP3   OH231364   7.978   5.214   5.310 -0.1622  0.4916 -0.7302
10474TIP3    H131365   8.017   5.267   5.380 -0.0850  0.8322 -1.0298
10474TIP3    H231366   8.019   5.246   5.230 -0.8208  0.6337 -1.0167
10475TIP3   OH231367   4.734   2.775   2.085 -0.0374 -0.1018  0.1889
10475TIP3    H131368   4.693   2.833   2.150 -1.1732 -0.1123 -0.4949
10475TIP3    H231369   4.819   2.753   2.123 -0.9889 -0.7617  2.0708
10476TIP3   OH231370   4.114   6.150   3.841 -0.5597 -0.1349  0.0944
10476TIP3    H131371   4.191   6.193   3.879 -0.7058  0.2415 -0.0263
10476TIP3    H231372   4.051   6.221   3.828 -1.5904 -0.6748  1.7978
10477TIP3   OH231373   5.606   6.083   1.907 -0.7802  0.7216  0.1895
10477TIP3    H131374   5.695   6.115   1.916 -0.3820  0.2883 -1.7049
10477TIP3    H231375   5.596   6.018   1.976 -0.4481  2.3822  1.8842
10478TIP3   OH231376   8.144   5.351   4.041 -0.5302  0.4638 -0.2300
10478TIP3    H131377   8.195   5.394   4.110 -1.1033  1.5955 -0.4810
10478TIP3    H231378   8.083   5.295   4.089  1.1436 -1.1910  0.0596
10479TIP3   OH231379   1.248   5.924   5.445  0.2000 -0.1460 -0.4450
10479TIP3    H131380   1.320   5.941   5.506 -1.0226  1.9725  0.5242
10479TIP3    H231381   1.271   5.842   5.403  2.8572  0.1399  0.2876
10480TIP3   OH231382   6.931   0.284   6.601 -0.2509 -0.3547  0.2771
10480TIP3    H131383   6.999   0.301   6.665  0.5559 -1.6908 -0.1862
10480TIP3    H231384   6.900   0.196   6.621  0.6308 -1.1682 -1.6751
10481TIP3   OH231385   4.259   3.141   4.378  0.0178  0.0436  0.1734
10481TIP3    H131386   4.192   3.084   4.416 -0.0444  0.5162  0.7713
10481TIP3    H231387   4.340   3.113   4.420 -0.0495  0.5563  0.6481
10482TIP3   OH231388   6.824   4.823   1.183 -0.0564  0.1544 -0.7249
10482TIP3    H131389   6.857   4.861   1.265 -2.6248  0.2515  0.3607
10482TIP3    H231390   6.771   4.893   1.145  2.5527  0.7956 -3.5548
10483TIP3   OH231391   5.858   1.202   0.497 -0.2556  0.3806 -0.1882
10483TIP3    H131392   5.827   1.112   0.504 -0.0277  0.2679 -0.6653
10483TIP3    H231393   5.839   1.228   0.407  1.4100  0.1692 -0.6290
10484TIP3   OH231394   6.658   0.662   1.871 -0.6210 -0.7045  0.4363
10484TIP3    H131395   6.582   0.626   1.916  1.6999 -3.8958  2.1976
10484TIP3    H231396   6.701   0.718   1.936 -1.0769  0.5878 -0.3416
10485TIP3   OH231397   7.275   0.783   4.858 -0.1899 -0.0284  0.0914
10485TIP3    H131398   7.189   0.744   4.849 -0.3586  0.6718 -1.7325
10485TIP3    H231399   7.336   0.709   4.851 -0.6173 -0.4425  0.7045
10486TIP3   OH231400   3.574   1.541   2.597 -0.1010 -0.3838  0.4553
10486TIP3    H131401   3.627   1.467   2.566  1.2111  1.0006 -0.8201
10486TIP3    H231402   3.540   1.581   2.517 -0.0383  0.8973  1.0400
10487TIP3   OH231403   4.851   5.421   6.098 -0.2864  0.0654  0.3676
10487TIP3    H131404   4.897   5.504   6.111 -0.3622  0.2774 -0.6841
10487TIP3    H231405   4.888   5.363   6.165 -0.1995  0.9233  1.0861
10488TIP3   OH231406   0.141   0.559   6.611  0.6818  0.4384 -0.0621
10488TIP3    H131407   0.108   0.648   6.594 -0.1809  0.0518 -0.4823
10488TIP3    H231408   0.122   0.544   6.703 -3.5980 -1.0117 -0.9279
10489TIP3   OH231409   4.316   0.699   6.438 -0.4716 -0.1344  0.0846
10489TIP3    H131410   4.330   0.605   6.426 -0.0880  0.0653 -1.2772
10489TIP3    H231411   4.368   0.739   6.368 -0.6797  1.0900  0.6122
10490TIP3   OH231412   6.269   0.260   3.682 -0.3119 -0.3154  0.6567
10490TIP3    H131413   6.349   0.289   3.726 -0.1346 -1.2998  1.0049
10490TIP3    H231414   6.200   0.315   3.719  0.3659  1.6786 -0.7963
10491TIP3   OH231415   8.298   5.115   1.528 -0.3570  0.0919 -0.2883
10491TIP3    H131416   8.273   5.207   1.519 -1.8862 -0.1344  1.1416
10491TIP3    H231417   8.237   5.067   1.473 -1.1815 -0.2315  0.8678
10492TIP3   OH231418   2.926   1.300   1.724 -0.2780  0.4863  0.0144
10492TIP3    H131419   2.980   1.336   1.794 -2.5614  2.6846  0.7407
10492TIP3    H231420   2.915   1.208   1.747  1.4862  0.4495  0.8699
10493TIP3   OH231421   3.654   6.247   3.220 -0.0519  0.1727 -0.2105
10493TIP3    H131422   3.596   6.192   3.169  0.5548  0.2187 -0.9652
10493TIP3    H231423   3.596   6.294   3.280 -0.9337  0.9585 -1.6171
10494TIP3   OH231424   3.639   6.379   6.599  0.1290  0.2808 -0.1053
10494TIP3    H131425   3.710   6.331   6.557  0.8345  0.9671  0.2725
10494TIP3    H231426   3.593   6.313   6.651 -0.0592 -0.3414 -1.0385
10495TIP3   OH231427   1.080   6.024   0.564  0.2871 -0.7016  0.1263
10495TIP3    H131428   1.167   6.059   0.544  0.6085 -1.6159 -0.1531
10495TIP3    H231429   1.072   6.033   0.659  0.3928  0.0407  0.0665
10496TIP3   OH231430   4.006   3.613   1.574  0.4118 -0.4361 -0.1243
10496TIP3    H131431   4.096   3.578   1.576  0.6868  0.2889  1.1427
10496TIP3    H231432   3.986   3.632   1.666 -0.6838  0.3335 -0.5117
10497TIP3   OH231433   3.508   7.653   0.822  0.0434 -0.6375 -0.3502
10497TIP3    H131434   3.573   7.589   0.847  0.8657  0.2282 -0.2143
10497TIP3    H231435   3.452   7.662   0.899 -0.4678 -1.6385 -0.5896
10498TIP3   OH231436   8.117   2.359   6.484 -0.4950  0.3143 -0.3014
10498TIP3    H131437   8.184   2.302   6.519 -0.8457 -1.5313 -2.4352
10498TIP3    H231438   8.153   2.448   6.495  0.8693 -0.3844  1.3888
10499TIP3   OH231439   2.154   1.567   1.764 -0.2358  0.0977  0.3704
10499TIP3    H131440   2.228   1.611   1.807  0.6234  0.2972 -1.2414
10499TIP3    H231441   2.141   1.487   1.815 -0.1603  0.9706  1.8169
10500TIP3   OH231442   6.821   0.561   2.112  0.5006 -0.8530  0.1446
10500TIP3    H131443   6.898   0.511   2.084  1.0526  0.3004 -0.4506
10500TIP3    H231444   6.857   0.634   2.162 -0.0740  0.5889 -1.4483
10501TIP3   OH231445   4.758   2.812   5.373  0.1805 -0.2238 -0.2378
10501TIP3    H131446   4.745   2.723   5.405  0.2055 -0.7059 -1.5256
10501TIP3    H231447   4.848   2.833   5.395  0.0795 -0.3857  0.3543
10502TIP3   OH231448   4.706   4.744   0.530 -0.0736  0.0765  0.1087
10502TIP3    H131449   4.727   4.837   0.539  1.8089 -0.2446 -0.6183
10502TIP3    H231450   4.791   4.699   0.534 -0.9376 -1.6185  0.4104
10503TIP3   OH231451   8.224   2.132   6.110 -0.5343  0.5834 -0.6111
10503TIP3    H131452   8.157   2.188   6.149  0.9002  2.2691 -0.4810
10503TIP3    H231453   8.247   2.070   6.179  2.0387  3.5728  1.4585
10504TIP3   OH231454   2.658   2.669   1.516  0.0146  0.0431 -0.8464
10504TIP3    H131455   2.709   2.698   1.592 -0.6936  0.2315 -0.4334
10504TIP3    H231456   2.571   2.707   1.530 -0.2781 -0.3901 -1.4664
10505TIP3   OH231457   0.442   3.190   1.827  0.0222  0.3185 -0.0076
10505TIP3    H131458   0.449   3.097   1.848  0.8838  0.4822  0.4672
10505TIP3    H231459   0.468   3.196   1.736  2.3065  0.3752  0.6031
10506TIP3   OH231460   0.449   4.336   0.906  0.6591 -0.7452  0.2204
10506TIP3    H131461   0.528   4.315   0.956  0.9184  0.3526  0.3051
10506TIP3    H231462   0.377   4.299   0.958  0.9680 -0.0658  1.1674
10507TIP3   OH231463   5.475   1.752   1.975  0.2793  0.2057  0.4702
10507TIP3    H131464   5.383   1.772   1.995  0.1982  0.3986 -0.0732
10507TIP3    H231465   5.472   1.663   1.940 -0.1614  1.2804 -2.5201
10508TIP3   OH231466   6.553   5.464   6.213 -0.4109  0.0767  0.6545
10508TIP3    H131467   6.585   5.541   6.260  0.2770  0.6369 -0.6833
10508TIP3    H231468   6.612   5.454   6.138 -1.4824 -0.7605 -0.1267
10509TIP3   OH231469   0.594   4.151   3.723 -0.2258 -0.7140  0.6428
10509TIP3    H131470   0.583   4.195   3.807  0.9678  1.2644 -0.1661
10509TIP3    H231471   0.685   4.122   3.723  0.3436  0.9254 -0.6358
10510TIP3   OH231472   3.152   5.815   5.580 -0.0115  0.0706 -0.8564
10510TIP3    H131473   3.203   5.880   5.531  1.8519 -1.9580 -1.7671
10510TIP3    H231474   3.202   5.734   5.572 -1.1289 -1.0385  2.0291
10511TIP3   OH231475   6.255   7.199   5.634 -0.3157  0.3235 -0.5408
10511TIP3    H131476   6.267   7.293   5.646  0.5725  0.1527 -0.0511
10511TIP3    H231477   6.160   7.189   5.628 -0.4181  1.2648 -0.7313
10512TIP3   OH231478   2.264   6.259   5.218 -0.0840  0.2541 -0.2227
10512TIP3    H131479   2.343   6.304   5.247 -0.7419  1.3912 -0.1340
10512TIP3    H231480   2.257   6.280   5.125 -0.4285  0.4067 -0.1651
10513TIP3   OH231481   7.095   5.652   0.275 -0.0189 -0.2228 -0.3097
10513TIP3    H131482   7.127   5.740   0.258  3.4972 -1.5026 -1.1959
10513TIP3    H231483   7.145   5.622   0.351 -1.7693 -1.1947  0.5184
10514TIP3   OH231484   1.505   4.048   1.215  0.0210  0.0944  0.0284
10514TIP3    H131485   1.575   4.011   1.161 -1.2885 -1.0684 -0.9482
10514TIP3    H231486   1.511   4.143   1.201  1.6415  0.0549  0.3009
10515TIP3   OH231487   8.116   3.901   1.353  0.7370  0.0188  0.2948
10515TIP3    H131488   8.090   3.888   1.444  0.4025 -0.5237  0.1229
10515TIP3    H231489   8.036   3.928   1.308  1.1656  1.5651  0.4053
10516TIP3   OH231490   2.927   7.599   4.093 -0.1778  0.0082 -0.0236
10516TIP3    H131491   2.956   7.617   4.003 -0.3328 -0.1945 -0.1139
10516TIP3    H231492   2.848   7.652   4.103  0.1574  0.4761  0.1852
10517TIP3   OH231493   7.230   7.298   0.637  0.1755 -0.2500 -0.4738
10517TIP3    H131494   7.318   7.283   0.601  0.3986  0.0879 -0.0816
10517TIP3    H231495   7.246   7.342   0.720 -0.3193 -1.3494  0.2287
10518TIP3   OH231496   8.126   1.748   0.475  0.4519 -0.1518 -0.4859
10518TIP3    H131497   8.221   1.745   0.459  0.8831 -1.0827  1.9567
10518TIP3    H231498   8.099   1.831   0.434  2.5974  0.9013  0.0396
10519TIP3   OH231499   0.591   7.154   6.293  0.6557 -0.1273  0.3209
10519TIP3    H131500   0.555   7.206   6.222 -0.3892 -1.2194  0.0248
10519TIP3    H231501   0.673   7.198   6.315  0.1943  1.1684 -0.4418
10520TIP3   OH231502   3.671   2.167   1.037  0.2267 -0.0017  0.6699
10520TIP3    H131503   3.618   2.123   0.970  0.9111 -0.9030  0.7069
10520TIP3    H231504   3.608   2.222   1.085 -0.4508 -0.1241 -0.0580
10521TIP3   OH231505   2.792   1.476   0.367 -0.7136 -0.5046  0.1448
10521TIP3    H131506   2.795   1.455   0.460 -2.5271  0.2041  0.4061
10521TIP3    H231507   2.704   1.450   0.339 -1.0485  1.4503 -0.7954
10522TIP3   OH231508   2.514   1.014   4.156 -0.0362 -0.6908 -0.4494
10522TIP3    H131509   2.507   1.014   4.060  2.2285 -0.8319 -0.6719
10522TIP3    H231510   2.607   1.005   4.173 -0.1382  1.4642  1.7959
10523TIP3   OH231511   7.790   6.151   6.607 -0.4321  0.4295 -0.3616
10523TIP3    H131512   7.828   6.239   6.605 -0.1999  0.3355 -0.1549
10523TIP3    H231513   7.780   6.127   6.515  0.0958  0.4199 -0.4208
10524TIP3   OH231514   7.618   2.208   5.168  0.6887  0.2505 -0.5098
10524TIP3    H131515   7.703   2.216   5.210 -0.3477 -0.3812  1.8977
10524TIP3    H231516   7.584   2.298   5.167 -0.0096  0.0991  1.8643
10525TIP3   OH231517   1.587   0.614   0.055 -0.7303 -0.1649  0.2494
10525TIP3    H131518   1.584   0.663   0.137  1.7452  0.7324 -0.1144
10525TIP3    H231519   1.619   0.527   0.081  0.1895  0.1619  0.2444
10526TIP3   OH231520   2.688   4.123   0.839  0.0183 -0.0424  0.2079
10526TIP3    H131521   2.705   4.201   0.892  1.8899  0.0506 -0.4559
10526TIP3    H231522   2.694   4.050   0.901  0.1471  0.2107  0.4934
10527TIP3   OH231523   7.339   2.544   3.385  0.3591 -0.2191 -0.3720
10527TIP3    H131524   7.309   2.603   3.454  2.3430 -0.0987  0.4494
10527TIP3    H231525   7.406   2.593   3.338 -0.3900 -0.6002 -1.9124
10528TIP3   OH231526   6.924   4.517   2.308  0.0743 -0.5337  0.5104
10528TIP3    H131527   6.991   4.453   2.333 -0.3724 -1.1645  0.1276
10528TIP3    H231528   6.895   4.488   2.222 -1.0088 -0.5303  0.8621
10529TIP3   OH231529   6.742   1.450   6.026  0.1470  0.3986 -0.5412
10529TIP3    H131530   6.687   1.499   5.964  0.2165 -0.4178 -1.2547
10529TIP3    H231531   6.792   1.389   5.972 -0.0066 -0.5340  0.3410
10530TIP3   OH231532   2.413   5.799   6.512 -0.2902  0.1980 -0.0826
10530TIP3    H131533   2.348   5.763   6.572 -1.3958  0.9214 -0.8174
10530TIP3    H231534   2.375   5.881   6.481  0.9128  0.5655 -0.6525
10531TIP3   OH231535   0.095   2.906   2.871 -0.0550  0.2762  0.2001
10531TIP3    H131536   0.186   2.937   2.871  0.7034 -1.7749  0.1584
10531TIP3    H231537   0.092   2.843   2.943 -0.3829 -2.3566 -1.9312
10532TIP3   OH231538   2.069   6.252   1.078 -0.3583  0.3093 -0.1091
10532TIP3    H131539   1.995   6.245   1.138 -0.5486 -0.3893 -0.4092
10532TIP3    H231540   2.122   6.323   1.113  0.0845 -0.7457  1.4921
10533TIP3   OH231541   5.167   4.838   0.354  0.0465 -0.0565  0.2429
10533TIP3    H131542   5.149   4.814   0.444  0.0767  1.1921  0.6026
10533TIP3    H231543   5.086   4.821   0.307  0.1675 -1.1179  0.4100
10534TIP3   OH231544   1.701   1.078   2.747 -0.2621  0.1161  0.0140
10534TIP3    H131545   1.713   0.984   2.763 -0.8781 -0.4067 -2.1841
10534TIP3    H231546   1.780   1.119   2.782  1.0903 -1.5107 -0.9776
10535TIP3   OH231547   8.105   4.717   1.466 -0.5711 -0.3341  0.6034
10535TIP3    H131548   8.087   4.705   1.559 -1.0337 -0.0323  0.5587
10535TIP3    H231549   8.135   4.632   1.436  0.6601 -0.1414  1.2602
10536TIP3   OH231550   8.071   1.289   0.828  0.0327  0.0380  0.3979
10536TIP3    H131551   8.018   1.213   0.849 -0.8939  0.7803  0.7913
10536TIP3    H231552   8.069   1.343   0.907  1.8108 -0.1515  0.6151
10537TIP3   OH231553   5.578   6.497   3.822  0.2904  0.1566 -0.2453
10537TIP3    H131554   5.632   6.419   3.835 -0.5315  0.0035  3.5503
10537TIP3    H231555   5.491   6.463   3.805  0.4338  0.3543 -1.4900
10538TIP3   OH231556   3.856   4.367   6.385  0.1219  0.0582 -0.3154
10538TIP3    H131557   3.764   4.350   6.405  0.1305  0.1544 -0.1921
10538TIP3    H231558   3.873   4.317   6.306 -0.0471  0.0706 -0.3595
10539TIP3   OH231559   0.314   0.545   1.645 -0.2826  0.5199  0.8623
10539TIP3    H131560   0.266   0.477   1.597  0.8027 -0.4682  1.1327
10539TIP3    H231561   0.320   0.511   1.734 -0.6983  1.5042  1.2716
10540TIP3   OH231562  -0.030   7.046   2.975 -0.2562  0.8183 -0.1884
10540TIP3    H131563   0.005   7.135   2.981 -1.1042  1.0761  1.7908
10540TIP3    H231564   0.037   6.997   2.927  0.6631  2.3008 -0.4837
10541TIP3   OH231565   5.332   3.429   5.448  0.5116 -0.9241 -0.3220
10541TIP3    H131566   5.427   3.436   5.462  0.4539  1.2394 -0.6604
10541TIP3    H231567   5.316   3.479   5.368 -1.0917  0.1622  0.6167
10542TIP3   OH231568   1.183   3.472   2.551 -0.3114  0.0247  0.3927
10542TIP3    H131569   1.167   3.378   2.541  2.2025 -0.4909  0.5995
10542TIP3    H231570   1.098   3.508   2.577 -1.1746 -2.2839  1.0269
10543TIP3   OH231571   4.361   4.325   3.352  0.2272  0.3173 -0.2395
10543TIP3    H131572   4.393   4.380   3.280 -1.7697  3.5882  1.1395
10543TIP3    H231573   4.282   4.369   3.383 -1.2214 -3.1270  1.4592
10544TIP3   OH231574   0.297   7.318   2.595 -0.5739 -0.1103  0.3354
10544TIP3    H131575   0.288   7.398   2.543 -1.6659  0.0524  0.7342
10544TIP3    H231576   0.383   7.325   2.637 -0.2880  0.4278 -0.3327
10545TIP3   OH231577   6.467   7.631   6.198  0.0335 -0.0686 -0.5696
10545TIP3    H131578   6.457   7.668   6.286 -0.4141 -2.9857  0.7352
10545TIP3    H231579   6.378   7.626   6.164  0.1636  0.6701 -1.0326
10546TIP3   OH231580   1.026   0.116   2.703  0.5380  0.0838 -0.6326
10546TIP3    H131581   1.076   0.080   2.630 -0.0015  2.0425 -2.0578
10546TIP3    H231582   1.023   0.211   2.686 -0.1707  0.5307  1.5944
10547TIP3   OH231583   7.155   0.388   1.528  0.0438 -0.0095  0.1910
10547TIP3    H131584   7.243   0.380   1.564 -0.1641 -0.1454  0.6788
10547TIP3    H231585   7.143   0.309   1.475 -0.2889 -0.6692  1.2382
10548TIP3   OH231586   6.531   0.192   5.359  0.2750 -0.2708 -0.6419
10548TIP3    H131587   6.607   0.145   5.392  1.3330  0.7438 -1.5675
10548TIP3    H231588   6.478   0.210   5.437  0.8035 -1.2708 -0.0358
10549TIP3   OH231589   7.637   6.834   6.124  0.4995 -0.5653  1.2068
10549TIP3    H131590   7.689   6.777   6.068 -1.8680 -1.5785 -0.1501
10549TIP3    H231591   7.573   6.874   6.064 -0.5812  0.2473  2.8107
10550TIP3   OH231592   1.444   1.363   2.494 -0.2948  0.7501 -0.0257
10550TIP3    H131593   1.505   1.291   2.484 -0.2173  0.7656  0.3197
10550TIP3    H231594   1.498   1.436   2.525 -0.0802  1.4261 -1.9005
10551TIP3   OH231595   5.113   1.903   6.597  0.1311  0.2350 -0.7594
10551TIP3    H131596   5.123   1.982   6.545  1.0007  0.8432  0.2831
10551TIP3    H231597   5.108   1.832   6.533 -2.0216  1.2153 -1.7818
10552TIP3   OH231598   7.009   5.152   0.263 -0.5280 -0.2941  0.3053
10552TIP3    H131599   7.009   5.107   0.348 -0.3068 -1.0391 -0.0737
10552TIP3    H231600   6.954   5.229   0.276 -1.0584 -0.7658  0.9385
10553TIP3   OH231601   0.212   0.801   1.651  0.1658  0.0891  0.0408
10553TIP3    H131602   0.254   0.715   1.646 -0.7688 -0.3203 -1.8811
10553TIP3    H231603   0.282   0.861   1.677  1.1259 -1.0742  0.2095
10554TIP3   OH231604   4.035   7.363   3.397  0.0089  0.0062 -0.1100
10554TIP3    H131605   4.040   7.453   3.431  2.1900 -0.1667  0.2138
10554TIP3    H231606   4.106   7.358   3.333 -0.0182 -1.5172 -0.0566
10555TIP3   OH231607  -0.004   3.859   4.735  0.0232  0.2119  0.2830
10555TIP3    H131608  -0.038   3.811   4.660 -0.9919 -0.4143  1.1172
10555TIP3    H231609   0.060   3.920   4.698  0.5068 -0.9786 -0.9375
10556TIP3   OH231610   0.945   3.508   1.109  0.1813  0.3063  0.2712
10556TIP3    H131611   0.917   3.451   1.037  1.6462 -1.2494  0.8561
10556TIP3    H231612   0.883   3.580   1.108 -0.6948 -0.4042 -1.6403
10557TIP3   OH231613   3.573   4.232   0.609 -0.1760  0.6436 -0.4148
10557TIP3    H131614   3.532   4.202   0.528 -0.0433  0.2343 -0.3355
10557TIP3    H231615   3.596   4.323   0.592  1.8285 -0.0152 -1.6352
10558TIP3   OH231616   6.408   6.010   5.109  0.2015  0.0961 -0.5003
10558TIP3    H131617   6.355   5.932   5.126 -0.4868  0.9927  1.9918
10558TIP3    H231618   6.476   5.981   5.048 -0.8280 -2.0821 -0.6949
10559TIP3   OH231619   0.747   1.475   3.025  0.0750 -0.5665 -0.0611
10559TIP3    H131620   0.801   1.396   3.028  1.2415  0.1759 -0.4708
10559TIP3    H231621   0.805   1.542   2.987 -0.0791  1.0521  2.2682
10560TIP3   OH231622   2.447   3.487   5.912 -0.3658 -0.6072  0.4315
10560TIP3    H131623   2.458   3.400   5.951  0.8460 -1.1926 -1.1440
10560TIP3    H231624   2.395   3.472   5.833  2.5975 -0.5073 -1.7006
10561TIP3   OH231625   6.823   2.037   5.329  0.1330  0.0957  0.0550
10561TIP3    H131626   6.894   2.003   5.275  0.1622  0.7323 -0.3070
10561TIP3    H231627   6.833   1.992   5.413 -1.1056 -2.4519 -1.0346
10562TIP3   OH231628   3.003   5.157   4.851  0.4229 -0.0436  0.3217
10562TIP3    H131629   3.049   5.206   4.920  0.3642 -1.3149  1.3010
10562TIP3    H231630   2.971   5.225   4.791  0.8259  1.0784  1.3270
10563TIP3   OH231631   6.000   0.417   0.662 -0.3965 -0.0018  0.4086
10563TIP3    H131632   6.002   0.324   0.639  0.7750 -0.2638  1.4655
10563TIP3    H231633   5.923   0.451   0.617 -0.9380 -1.5209  0.1252
10564TIP3   OH231634   6.298   7.003   5.252  0.4544 -0.0217 -0.2659
10564TIP3    H131635   6.328   7.082   5.297 -1.0701  1.6200 -1.9450
10564TIP3    H231636   6.352   6.999   5.173 -2.0495  1.7934 -2.2645
10565TIP3   OH231637   4.632   3.316   6.771 -0.4584  0.0204 -1.0049
10565TIP3    H131638   4.619   3.373   6.695  0.8521  0.0218 -1.2570
10565TIP3    H231639   4.656   3.231   6.734  0.7271  0.1606 -0.6147
10566TIP3   OH231640   1.172   0.053   1.572 -0.7517  0.2895  0.6063
10566TIP3    H131641   1.136  -0.010   1.635 -0.7861 -0.1696  0.1374
10566TIP3    H231642   1.097   0.109   1.549 -0.1755  2.2085  2.9689
10567TIP3   OH231643   7.996   0.433   6.705 -0.2937  0.0027 -0.3874
10567TIP3    H131644   7.915   0.477   6.732  0.6586  1.7152 -0.1613
10567TIP3    H231645   8.054   0.442   6.781  0.4511 -0.3243 -0.9106
10568TIP3   OH231646   1.925   3.263   0.330  0.5276 -0.1079 -0.3146
10568TIP3    H131647   1.876   3.338   0.295 -0.6461 -0.5936  0.2348
10568TIP3    H231648   1.875   3.186   0.302  0.1086 -0.5582  1.5068
10569TIP3   OH231649   5.121   2.634   6.604  0.5414 -0.1806  0.6055
10569TIP3    H131650   5.211   2.667   6.601  1.1919 -1.7813  1.3890
10569TIP3    H231651   5.126   2.556   6.660 -0.7875 -1.9067 -1.4921
10570TIP3   OH231652   7.195   6.992   1.471 -0.0823  0.3398  0.3793
10570TIP3    H131653   7.268   7.017   1.414 -0.7301 -0.0833 -0.6584
10570TIP3    H231654   7.127   7.058   1.453  0.9608  2.4429  3.3877
10571TIP3   OH231655   7.729   3.593   3.572  0.2849  0.2834 -0.4556
10571TIP3    H131656   7.823   3.582   3.589 -0.0028 -0.7165  0.6371
10571TIP3    H231657   7.705   3.674   3.617  0.1327 -0.8109  1.5552
10572TIP3   OH231658   8.182   5.621   2.694 -0.0276 -0.1700 -0.0342
10572TIP3    H131659   8.169   5.590   2.784  0.4095 -0.1356  0.0476
10572TIP3    H231660   8.095   5.626   2.657 -0.1943 -0.4126  0.3175
10573TIP3   OH231661   1.078   0.637   0.214 -0.1117 -0.1459  0.6684
10573TIP3    H131662   1.132   0.675   0.145 -0.5992  2.9333  1.8042
10573TIP3    H231663   0.993   0.622   0.173  0.1582 -0.2009  0.1215
10574TIP3   OH231664   7.642   3.038   0.516 -0.1598 -0.4021 -0.1445
10574TIP3    H131665   7.586   3.115   0.530 -3.0898 -2.4421  0.2163
10574TIP3    H231666   7.731   3.072   0.522 -1.3045  2.7342  1.3023
10575TIP3   OH231667   3.998   5.649   2.123  0.0883 -0.2716  0.2695
10575TIP3    H131668   4.055   5.625   2.050  2.0352  0.8207  1.3260
10575TIP3    H231669   3.945   5.571   2.139  1.8427 -1.6666 -0.3176
10576TIP3   OH231670   7.512   5.215   5.145 -0.1469  0.4832  0.1982
10576TIP3    H131671   7.431   5.264   5.142  0.0429  0.8093  0.3800
10576TIP3    H231672   7.577   5.276   5.179 -0.1514 -0.2055  1.5198
10577TIP3   OH231673   2.894   5.049   3.991 -0.1144  0.0557 -0.8568
10577TIP3    H131674   2.939   5.083   4.068 -1.0796  0.9723 -0.6640
10577TIP3    H231675   2.963   5.016   3.934  0.6284 -0.4375  0.3026
10578TIP3   OH231676   3.627   3.396   5.144 -0.1208 -0.3273 -0.0471
10578TIP3    H131677   3.685   3.370   5.216  1.0761 -1.3927 -1.3380
10578TIP3    H231678   3.603   3.314   5.101 -2.0288  0.1653  0.0031
10579TIP3   OH231679   0.400   4.996   0.133  0.2221 -0.5822  0.2466
10579TIP3    H131680   0.438   5.067   0.081 -0.7205 -0.1786  0.0902
10579TIP3    H231681   0.435   4.916   0.094 -1.6131 -0.3665 -2.0189
10580TIP3   OH231682   0.452   1.988   4.459  0.2823  0.4087  0.4358
10580TIP3    H131683   0.437   2.081   4.440  1.3389  0.7628  1.2231
10580TIP3    H231684   0.368   1.957   4.491 -0.1751  1.0132 -0.1463
10581TIP3   OH231685   7.448   3.926   0.205  0.2926  0.0309  0.2435
10581TIP3    H131686   7.399   4.004   0.178 -0.3900  0.1530  1.7602
10581TIP3    H231687   7.512   3.959   0.268 -0.1638 -0.6627  1.0831
10582TIP3   OH231688   7.704   5.953   4.059  0.2148  0.0078 -0.5027
10582TIP3    H131689   7.722   6.001   4.140 -0.4982 -0.8280  0.1696
10582TIP3    H231690   7.744   6.006   3.991 -0.6703  1.6381  0.1962
10583TIP3   OH231691   2.106   2.549   4.993  0.4436  0.1554  0.5305
10583TIP3    H131692   2.161   2.562   4.915 -1.6568 -2.7659 -1.6155
10583TIP3    H231693   2.019   2.576   4.966 -0.1746  0.0161  2.2610
10584TIP3   OH231694   8.158   0.540   1.665 -0.0075 -0.2664 -0.1750
10584TIP3    H131695   8.137   0.567   1.575  0.0245 -0.4140 -0.2264
10584TIP3    H231696   8.186   0.621   1.708  0.4042 -0.2759 -0.4224
10585TIP3   OH231697   6.846   5.790   4.092 -0.1064 -0.3899  0.0715
10585TIP3    H131698   6.779   5.804   4.026  0.4823 -1.5958 -0.8332
10585TIP3    H231699   6.811   5.720   4.147  0.7561 -1.6987 -0.9771
10586TIP3   OH231700   2.989   7.666   2.342  0.0899  0.5438 -0.3810
10586TIP3    H131701   2.910   7.683   2.291 -0.5695 -1.7631 -0.2324
10586TIP3    H231702   3.010   7.751   2.382 -1.3958  1.5734 -1.6531
10587TIP3   OH231703   4.188   4.646   5.287  0.0204  0.2086 -0.6277
10587TIP3    H131704   4.134   4.589   5.342  1.3798  0.3915  0.9921
10587TIP3    H231705   4.181   4.733   5.328  2.4897 -0.0058  0.4826
10588TIP3   OH231706   2.102   2.520   0.346 -0.0852  0.1073  0.3988
10588TIP3    H131707   2.098   2.448   0.409  1.2077 -1.0159 -0.7340
10588TIP3    H231708   2.103   2.477   0.261  0.7007  1.4625 -0.3049
10589TIP3   OH231709   8.236   6.822   3.838 -0.1029  0.1624  0.3861
10589TIP3    H131710   8.161   6.872   3.870 -1.4651 -1.3954 -0.2128
10589TIP3    H231711   8.306   6.843   3.900 -1.2819  0.9690  1.5180
10590TIP3   OH231712   6.074   7.524   0.220  0.0315 -0.1673 -0.1441
10590TIP3    H131713   6.150   7.467   0.225 -0.1650 -0.3157  2.6843
10590TIP3    H231714   6.000   7.465   0.204  0.2003 -0.2975 -0.4508
10591TIP3   OH231715   5.659   0.794   0.254  0.6684  0.7018  0.5731
10591TIP3    H131716   5.682   0.707   0.220  0.3199  0.4887  0.8722
10591TIP3    H231717   5.569   0.808   0.225  1.2905  1.7119 -0.9479
10592TIP3   OH231718   7.542   1.991   2.570 -0.1241  0.6972  0.1991
10592TIP3    H131719   7.560   1.988   2.664 -1.1197 -0.4405  0.3835
10592TIP3    H231720   7.623   2.023   2.531  1.2478 -1.2671  1.2452
10593TIP3   OH231721   6.788   5.739   0.635  0.5191  0.2141  0.6988
10593TIP3    H131722   6.736   5.804   0.586  2.5241  2.9639  1.9554
10593TIP3    H231723   6.726   5.669   0.653 -1.2750  0.7292 -2.5367
10594TIP3   OH231724   0.167   0.589   4.612  0.1648  0.7141  0.4082
10594TIP3    H131725   0.130   0.531   4.545  0.7810 -0.8661  1.3834
10594TIP3    H231726   0.174   0.674   4.569  0.5365 -0.2542 -1.5281
10595TIP3   OH231727   0.058   0.074   2.833 -0.1770 -0.4900  0.7252
10595TIP3    H131728   0.150   0.100   2.843  0.0074 -1.4552  1.7391
10595TIP3    H231729   0.015   0.109   2.910 -0.9286  0.9320 -0.2921
10596TIP3   OH231730   6.961   1.206   0.391  0.0072 -0.2537  0.1327
10596TIP3    H131731   6.933   1.170   0.475  2.3750  0.1934  1.2074
10596TIP3    H231732   7.019   1.139   0.355 -1.8894 -0.9667 -1.7880
10597TIP3   OH231733   4.371   3.380   6.343 -0.2631  0.6176 -0.2861
10597TIP3    H131734   4.302   3.354   6.404 -2.0028  1.1794 -1.9238
10597TIP3    H231735   4.423   3.445   6.391 -1.8628  1.3813  0.4644
10598TIP3   OH231736   1.798   0.507   4.265 -0.4111 -0.3052 -0.0217
10598TIP3    H131737   1.719   0.457   4.245  1.2050 -2.0362 -2.7648
10598TIP3    H231738   1.826   0.474   4.351 -1.4861 -1.2314 -0.0007
10599TIP3   OH231739   3.360   6.831   5.647  0.2898 -0.0082 -0.0870
10599TIP3    H131740   3.265   6.820   5.638  0.1389  1.6016 -0.7279
10599TIP3    H231741   3.372   6.864   5.736  0.2432 -0.1334 -0.0342
10600TIP3   OH231742   5.942   3.655   5.192  0.0775  0.5667 -0.0641
10600TIP3    H131743   5.910   3.743   5.170 -2.7744 -0.5825 -0.9492
10600TIP3    H231744   6.001   3.633   5.120 -1.2962  0.7679 -1.3136
10601TIP3   OH231745   4.315   2.231   4.345  0.3034  0.4879  0.1112
10601TIP3    H131746   4.271   2.166   4.291 -1.1104  1.3722  0.1398
10601TIP3    H231747   4.280   2.315   4.315 -1.0956  0.9796  2.8309
10602TIP3   OH231748   7.352   6.904   6.024 -0.2791  0.2406  0.0826
10602TIP3    H131749   7.348   6.995   5.997  1.0962  1.2941  2.9982
10602TIP3    H231750   7.387   6.857   5.948 -1.8686  1.9119 -1.7956
10603TIP3   OH231751   5.928   5.064   6.611 -0.0144  0.1803 -0.1811
10603TIP3    H131752   5.871   5.087   6.538  1.3981 -1.5597 -1.9613
10603TIP3    H231753   6.015   5.094   6.585  0.3544  0.5461  1.3299
10604TIP3   OH231754   2.584   1.891   5.659  0.4678 -0.0123  0.3647
10604TIP3    H131755   2.637   1.970   5.647 -0.5102  0.5749 -0.1816
10604TIP3    H231756   2.623   1.826   5.600 -1.1583  1.2979 -2.3192
10605TIP3   OH231757   6.447   4.953   5.051 -0.0846  0.2515 -0.5099
10605TIP3    H131758   6.372   4.900   5.024 -0.6308 -0.4568  2.1603
10605TIP3    H231759   6.418   5.044   5.037 -1.3389 -0.0255  0.1465
10606TIP3   OH231760   6.188   6.661   1.010 -0.2166 -0.2527  0.2045
10606TIP3    H131761   6.103   6.703   1.014  0.4240  1.0192  1.1397
10606TIP3    H231762   6.230   6.682   1.094  0.0213 -3.0939  0.9272
10607TIP3   OH231763   2.633   6.093   6.042 -0.0644 -0.0157 -0.0565
10607TIP3    H131764   2.692   6.018   6.037 -0.1619 -0.1346  0.4896
10607TIP3    H231765   2.654   6.146   5.965  1.3785  0.4080  0.5803
10608TIP3   OH231766   6.838   0.605   5.397 -0.1903 -0.2622 -0.3789
10608TIP3    H131767   6.789   0.595   5.315  1.8134 -0.5601 -1.6078
10608TIP3    H231768   6.786   0.556   5.461 -1.2515 -0.9781 -1.7084
10609TIP3   OH231769   3.867   0.848   0.914 -1.0343 -0.3974  0.3936
10609TIP3    H131770   3.949   0.862   0.866  0.6004 -3.2627  1.9824
10609TIP3    H231771   3.842   0.934   0.945  2.1655  0.4831  0.9171
10610TIP3   OH231772   1.479   2.953   4.813  0.4723 -0.7149  0.3703
10610TIP3    H131773   1.559   3.006   4.803  1.1866 -1.9155 -0.6807
10610TIP3    H231774   1.426   3.000   4.877  1.4926  0.7545  0.1768
10611TIP3   OH231775   0.959   2.802   4.680 -0.2073  0.9555  0.0598
10611TIP3    H131776   1.027   2.735   4.690 -0.5673  0.6986  0.8440
10611TIP3    H231777   0.994   2.879   4.724 -0.7853  0.5489  1.2799
10612TIP3   OH231778   1.096   6.051   1.365 -0.1100 -0.1573  0.1890
10612TIP3    H131779   1.152   6.025   1.292  0.9065 -1.3500  1.3244
10612TIP3    H231780   1.030   5.981   1.370 -0.2281 -0.0340  0.3534
10613TIP3   OH231781   5.331   2.483   0.838 -0.5102 -0.2264 -0.1502
10613TIP3    H131782   5.264   2.475   0.906  2.3212  0.9564  3.1170
10613TIP3    H231783   5.365   2.394   0.827 -1.5940 -0.5853 -0.8014
10614TIP3   OH231784   4.553   7.477   1.989  0.3816 -0.1377  0.5502
10614TIP3    H131785   4.542   7.410   2.057 -1.4003 -1.0764 -0.5750
10614TIP3    H231786   4.631   7.526   2.016  0.0660 -0.8028  2.9624
10615TIP3   OH231787   3.522   1.159   2.307 -0.3456 -0.0579 -0.4475
10615TIP3    H131788   3.567   1.243   2.320  2.1615 -1.3956  0.1776
10615TIP3    H231789   3.471   1.172   2.227  0.7694  1.7661 -0.9480
10616TIP3   OH231790   1.838   6.287   1.231  0.9314  0.1787 -0.3276
10616TIP3    H131791   1.758   6.297   1.180  0.0141  0.5676  1.1121
10616TIP3    H231792   1.848   6.192   1.241  1.0520  0.1080 -1.1146
10617TIP3   OH231793   3.065   0.012   4.093 -0.3393  0.3376  0.7366
10617TIP3    H131794   2.978   0.042   4.121 -1.4571 -0.4821 -1.5823
10617TIP3    H231795   3.083   0.062   4.014 -0.2732 -1.8298 -0.7146
10618TIP3   OH231796   2.552   1.005   4.623 -0.0164 -0.2044  0.0310
10618TIP3    H131797   2.458   1.022   4.629  0.3142  1.5029  0.9287
10618TIP3    H231798   2.568   0.934   4.684 -0.5942  0.0898  0.5353
10619TIP3   OH231799   8.144   0.177   3.795  0.2420 -0.2818  0.2917
10619TIP3    H131800   8.230   0.135   3.790  0.4515  0.2763 -1.8749
10619TIP3    H231801   8.164   0.268   3.816 -0.0316 -0.6321  2.2544
10620TIP3   OH231802   1.373   5.942   0.724 -0.2855  0.5099  0.0358
10620TIP3    H131803   1.367   5.903   0.636 -0.5041  1.9266 -0.6122
10620TIP3    H231804   1.404   5.870   0.780  0.7388 -0.1950 -1.3618
10621TIP3   OH231805   1.452   2.683   4.866 -0.8442 -0.1987 -0.7686
10621TIP3    H131806   1.478   2.774   4.851  0.7979 -0.8303 -2.0854
10621TIP3    H231807   1.435   2.678   4.960 -0.6939  1.4045 -0.6292
10622TIP3   OH231808   2.393   5.753   1.015  0.0571  0.2115 -0.5385
10622TIP3    H131809   2.330   5.801   1.069 -0.9475 -0.7065 -0.8379
10622TIP3    H231810   2.429   5.819   0.956  1.4921  1.3196  1.4764
10623TIP3   OH231811   5.431   3.486   1.802 -0.1491  0.3795 -0.5529
10623TIP3    H131812   5.355   3.496   1.745  0.2877  1.1382 -1.0316
10623TIP3    H231813   5.466   3.400   1.780 -0.1011  0.5794 -1.3104
10624TIP3   OH231814   2.178   0.369   3.040 -0.7918  0.2405  0.4476
10624TIP3    H131815   2.242   0.439   3.051  2.0360 -1.5271 -2.8527
10624TIP3    H231816   2.101   0.412   3.004  0.3062  1.8938 -0.0374
10625TIP3   OH231817   2.790   4.281   6.476  0.4676 -0.0381 -0.0398
10625TIP3    H131818   2.731   4.246   6.543  1.1878  0.4731  0.8883
10625TIP3    H231819   2.740   4.275   6.395 -1.0674  0.8187  0.7811
10626TIP3   OH231820   5.844   1.841   5.121 -0.0641 -0.2695 -0.0463
10626TIP3    H131821   5.889   1.903   5.064 -0.2786 -0.1703 -0.1080
10626TIP3    H231822   5.909   1.818   5.188 -0.2596  0.6844  0.4811
10627TIP3   OH231823   7.957   7.117   4.945  0.3315  0.2720 -0.2814
10627TIP3    H131824   8.014   7.173   4.892 -0.2346  1.5199  0.3949
10627TIP3    H231825   7.887   7.175   4.975 -2.1394 -1.5104 -2.2149
10628TIP3   OH231826   4.280   6.358   5.617  0.3791 -0.5033 -0.1341
10628TIP3    H131827   4.313   6.269   5.605  1.4512 -0.0813 -0.4638
10628TIP3    H231828   4.200   6.348   5.668  1.6524 -1.4827  1.7744
10629TIP3   OH231829   5.355   0.035   0.618 -0.2964  0.1327 -0.1177
10629TIP3    H131830   5.385   0.118   0.581  0.1697 -0.4666 -1.0951
10629TIP3    H231831   5.308   0.061   0.698 -0.3368  1.3505 -0.5140
10630TIP3   OH231832   0.285   0.039   6.578  0.0867  0.3096 -0.0492
10630TIP3    H131833   0.351   0.105   6.558 -0.4200  0.9913  0.4940
10630TIP3    H231834   0.202   0.088   6.581 -0.1554 -0.1469  1.4632
10631TIP3   OH231835   3.598   6.690   4.172 -0.0243  0.2511 -0.0324
10631TIP3    H131836   3.584   6.671   4.265  0.1393 -1.2098 -0.2772
10631TIP3    H231837   3.531   6.755   4.151  0.5434  1.3392  1.3114
10632TIP3   OH231838   3.564   4.261   4.889 -0.1957  0.2018  0.3461
10632TIP3    H131839   3.537   4.347   4.856  1.3972  0.3104 -0.7980
10632TIP3    H231840   3.550   4.201   4.816  1.3856  0.0400  0.1436
10633TIP3   OH231841   3.000   4.477   2.389 -0.1901 -0.9155 -0.0596
10633TIP3    H131842   2.968   4.456   2.302 -0.9730 -0.7985  0.1895
10633TIP3    H231843   2.952   4.557   2.414  0.3618 -0.6880  0.2897
10634TIP3   OH231844   6.054   7.541   4.665 -0.2574  0.0088 -0.1832
10634TIP3    H131845   6.020   7.542   4.575 -0.2282  3.0113 -0.2803
10634TIP3    H231846   6.127   7.603   4.663  1.1733 -1.5208  1.4710
10635TIP3   OH231847   2.567   6.927   5.774  0.2914  0.2909 -0.2305
10635TIP3    H131848   2.472   6.913   5.771  0.3605 -0.1848 -0.4254
10635TIP3    H231849   2.601   6.847   5.816  0.6910 -0.0223 -1.1202
10636TIP3   OH231850   0.866   4.884   3.455  0.2468  0.1815  0.3204
10636TIP3    H131851   0.828   4.962   3.416  0.0237  0.9100  1.9185
10636TIP3    H231852   0.882   4.825   3.381  0.1173  1.5988 -0.8771
10637TIP3   OH231853   7.718   4.818   5.394 -0.3067 -0.2110 -0.0499
10637TIP3    H131854   7.793   4.824   5.335  0.8566  0.9023  1.4628
10637TIP3    H231855   7.672   4.901   5.385 -0.5121 -0.3050  0.0990
10638TIP3   OH231856   7.241   4.709   5.745 -0.0638  0.0954  0.2281
10638TIP3    H131857   7.303   4.654   5.793  0.0647 -0.1685 -0.2358
10638TIP3    H231858   7.184   4.646   5.699 -0.3631  0.3413  0.2561
10639TIP3   OH231859   7.030   0.859  -0.031  0.0188  0.2059  0.2445
10639TIP3    H131860   6.957   0.889   0.024  0.6813  0.3719  1.0519
10639TIP3    H231861   7.107   0.869   0.025  1.0943  2.7093 -1.5392
10640TIP3   OH231862   6.252   0.094   2.217 -0.5405 -0.1966  0.1879
10640TIP3    H131863   6.297   0.012   2.197 -0.9275 -0.8820  1.9417
10640TIP3    H231864   6.159   0.074   2.209 -0.6263  0.2048  0.1531
10641TIP3   OH231865   3.942   5.396   1.752  0.1328 -0.0354  0.4216
10641TIP3    H131866   3.847   5.402   1.755  0.0022 -1.1051 -0.6333
10641TIP3    H231867   3.970   5.403   1.844 -0.9551  0.2338  0.7429
10642TIP3   OH231868   7.083   6.179   5.321 -0.0985 -0.7194 -0.3622
10642TIP3    H131869   7.121   6.143   5.402  1.3613 -2.4003 -1.6992
10642TIP3    H231870   7.156   6.224   5.279 -0.5133 -0.9132 -1.3136
10643TIP3   OH231871   2.164   0.080   3.912  0.0600  0.3603  0.9786
10643TIP3    H131872   2.092   0.038   3.865 -0.7913  2.1735  0.5427
10643TIP3    H231873   2.236   0.084   3.850  0.3210 -0.8400  1.1853
10644TIP3   OH231874  -0.028   3.219   0.821 -0.2265 -0.2910  0.0473
10644TIP3    H131875   0.017   3.159   0.761 -1.2999 -1.0950  0.0278
10644TIP3    H231876   0.026   3.219   0.900  1.3042  0.9086 -0.9308
10645TIP3   OH231877   2.702   2.268   1.217 -0.3374  0.0760 -0.1071
10645TIP3    H131878   2.634   2.322   1.178 -0.1441  0.8897  0.6463
10645TIP3    H231879   2.709   2.192   1.159  1.0038  1.9065 -2.5225
10646TIP3   OH231880   0.984   1.333   4.241 -0.2003 -0.5450 -0.1581
10646TIP3    H131881   1.003   1.243   4.213 -0.3956 -0.8679  0.7180
10646TIP3    H231882   1.069   1.370   4.263 -0.1694 -0.6723 -0.0631
10647TIP3   OH231883   1.385   2.145   3.933  0.2353  0.3099  0.6542
10647TIP3    H131884   1.453   2.079   3.950 -0.7519 -1.6932 -2.4999
10647TIP3    H231885   1.303   2.102   3.958 -0.3441  0.6613 -0.6053
10648TIP3   OH231886   3.161   3.615   1.563 -0.1951 -0.2307 -0.0357
10648TIP3    H131887   3.224   3.669   1.516 -0.9147 -0.5355 -1.4005
10648TIP3    H231888   3.096   3.590   1.497 -2.2040  0.7319  1.4707
10649TIP3   OH231889   4.556   7.768   2.422 -0.3297  0.0238  0.0846
10649TIP3    H131890   4.547   7.848   2.371 -1.5082 -0.3911 -0.3973
10649TIP3    H231891   4.633   7.724   2.385 -1.0237 -0.1577 -1.2057
10650TIP3   OH231892   8.131   4.444   2.347 -0.2439  0.2573  0.0263
10650TIP3    H131893   8.152   4.537   2.347  0.0582  0.1880 -0.0599
10650TIP3    H231894   8.096   4.427   2.260  0.3056  0.1532 -0.1776
10651TIP3   OH231895   0.530   2.518   2.032  0.0477 -0.0842 -0.2836
10651TIP3    H131896   0.470   2.467   2.086 -0.4132 -0.6136 -1.2755
10651TIP3    H231897   0.568   2.455   1.971  3.2921 -0.2496  1.6345
10652TIP3   OH231898   5.708   6.507   3.392  0.2400 -0.0155  0.0227
10652TIP3    H131899   5.629   6.485   3.342  0.4906 -1.2522  0.1275
10652TIP3    H231900   5.777   6.454   3.352  0.3105 -1.5898  2.0352
10653TIP3   OH231901   4.836   0.365   1.929  0.0334 -0.3522  0.0328
10653TIP3    H131902   4.799   0.332   2.011  0.8228  0.6282  0.8156
10653TIP3    H231903   4.761   0.373   1.870 -0.5687 -0.9303  0.7111
10654TIP3   OH231904   0.667   4.596   0.529  0.0660  0.0918 -0.0678
10654TIP3    H131905   0.601   4.616   0.463  0.0302 -1.2661 -0.4713
10654TIP3    H231906   0.748   4.584   0.479  0.1221 -0.5462  0.1751
10655TIP3   OH231907   1.464   3.894   5.514  0.1948  0.1866 -0.8398
10655TIP3    H131908   1.525   3.955   5.555  1.0281  0.0749 -1.8747
10655TIP3    H231909   1.399   3.951   5.471  0.1110  0.3169 -0.5435
10656TIP3   OH231910   2.869   1.626   5.839  0.4048  0.1879 -0.1991
10656TIP3    H131911   2.805   1.630   5.768  2.9527  0.8456 -2.6390
10656TIP3    H231912   2.924   1.551   5.817  1.1631  0.2934  1.2381
10657TIP3   OH231913   5.949   5.075   3.824  0.1049 -0.8027 -0.2218
10657TIP3    H131914   5.872   5.127   3.846  0.3289 -0.4918 -0.1792
10657TIP3    H231915   6.023   5.130   3.847  0.3411 -0.8384 -0.8821
10658TIP3   OH231916   4.731   7.790   5.669  0.5081 -0.6896 -0.8457
10658TIP3    H131917   4.642   7.753   5.663  0.1608  0.2238 -1.5917
10658TIP3    H231918   4.786   7.715   5.690 -0.6126 -1.0307  1.1328
10659TIP3   OH231919   1.631   7.129   6.323 -0.7829  0.2375 -0.0704
10659TIP3    H131920   1.649   7.041   6.356 -2.3802 -0.7525 -1.6735
10659TIP3    H231921   1.715   7.159   6.288 -0.1129 -0.4471  0.9031
10660TIP3   OH231922   2.714   0.671   4.657  0.0774  0.6397  0.1866
10660TIP3    H131923   2.652   0.729   4.700 -0.9953 -1.3038  1.3818
10660TIP3    H231924   2.719   0.594   4.714  0.8527 -0.7945 -1.7048
10661TIP3   OH231925   6.897   1.439   2.847  0.0569  0.1510  0.1386
10661TIP3    H131926   6.937   1.462   2.764 -0.6422 -0.3678 -0.3521
10661TIP3    H231927   6.865   1.522   2.883  0.8196  0.4495  0.1485
10662TIP3   OH231928   6.667   5.039   3.553 -0.0955 -0.4003 -0.8069
10662TIP3    H131929   6.692   5.109   3.614  2.8170 -2.1079  0.1993
10662TIP3    H231930   6.577   5.017   3.577  0.3337  0.2264  1.7132
10663TIP3   OH231931   6.796   3.676   5.557 -0.0488  0.7867 -0.2325
10663TIP3    H131932   6.723   3.619   5.535  1.7696 -1.3884 -1.0049
10663TIP3    H231933   6.810   3.728   5.478  0.2076  0.0853 -0.6566
10664TIP3   OH231934   5.943   3.019   0.703 -0.0367  0.6229  0.0002
10664TIP3    H131935   5.872   2.968   0.742 -0.2321  0.3759 -0.6657
10664TIP3    H231936   5.960   2.976   0.619 -1.1060  2.4010 -1.2016
10665TIP3   OH231937   1.312   1.679   0.900  0.0790  0.6602 -0.2194
10665TIP3    H131938   1.345   1.646   0.817 -3.1929 -0.8361 -1.0954
10665TIP3    H231939   1.290   1.770   0.884 -0.7027  0.3296 -1.1058
10666TIP3   OH231940   7.847   1.855   2.907 -0.5187  0.4623 -0.1969
10666TIP3    H131941   7.793   1.840   2.984 -2.0615 -2.8067 -1.7020
10666TIP3    H231942   7.927   1.805   2.923 -0.3357  0.7318 -0.2567
10667TIP3   OH231943   2.936   6.889   4.113 -0.0545  0.0935  0.3804
10667TIP3    H131944   2.867   6.824   4.118 -0.1268  0.2239  1.2395
10667TIP3    H231945   2.908   6.959   4.172 -0.2938  1.2149 -1.0092
10668TIP3   OH231946   7.273   2.351   4.346  0.0287 -0.8586 -0.0262
10668TIP3    H131947   7.180   2.363   4.367 -0.5231  1.5349 -3.0968
10668TIP3    H231948   7.274   2.338   4.251  2.8608 -0.7206 -0.0871
10669TIP3   OH231949   6.447   7.385   2.541  0.0835  0.2468 -0.6441
10669TIP3    H131950   6.409   7.298   2.548  0.7823  0.0323  1.2428
10669TIP3    H231951   6.382   7.443   2.581  0.7189  0.1789  0.5574
10670TIP3   OH231952   1.253   0.262   4.918 -0.3951 -0.3580  0.0354
10670TIP3    H131953   1.221   0.237   4.832 -0.3973 -1.1729  0.2605
10670TIP3    H231954   1.202   0.339   4.942  1.2413  1.3777 -1.6942
10671TIP3   OH231955   5.516   6.937   5.225 -0.0119  0.4161  0.3351
10671TIP3    H131956   5.605   6.938   5.190  0.0764  0.9012  0.5549
10671TIP3    H231957   5.471   7.009   5.179 -1.0778 -1.4543 -1.7216
10672TIP3   OH231958   6.930   3.688   3.335 -0.0508  0.0237 -0.2773
10672TIP3    H131959   7.008   3.635   3.325 -0.7514 -1.4474  1.5606
10672TIP3    H231960   6.960   3.778   3.321  1.5082 -0.6563 -1.6939
10673TIP3   OH231961   4.333   6.474   1.550  0.7016  0.2717 -0.9954
10673TIP3    H131962   4.278   6.551   1.566  0.7714 -0.1716  1.9218
10673TIP3    H231963   4.292   6.431   1.475  0.1998  2.6804 -2.1925
10674TIP3   OH231964   7.483   5.796   4.529  0.0879 -0.7419  0.0194
10674TIP3    H131965   7.418   5.726   4.525 -0.2006 -0.4289 -1.5781
10674TIP3    H231966   7.567   5.750   4.522  0.0152 -1.0696  1.1152
10675TIP3   OH231967   4.100   1.848   2.129  0.4656  0.2262 -0.0104
10675TIP3    H131968   4.187   1.843   2.088  0.4122 -0.4080 -0.0634
10675TIP3    H231969   4.039   1.838   2.055  0.3223  1.4059 -0.0772
10676TIP3   OH231970   0.567   7.741   1.220 -0.2281 -0.2141 -0.0058
10676TIP3    H131971   0.508   7.670   1.196 -0.4709 -0.1488  0.3811
10676TIP3    H231972   0.559   7.804   1.149 -0.8332 -0.0841  0.1707
10677TIP3   OH231973   0.386   3.614   0.659  0.3472 -0.3465  0.4775
10677TIP3    H131974   0.318   3.675   0.633  0.2670 -0.6134  0.0604
10677TIP3    H231975   0.361   3.587   0.748  0.2101 -0.0268  0.5362
10678TIP3   OH231976   6.527   7.644   3.925 -0.1520  0.0094 -0.4288
10678TIP3    H131977   6.432   7.655   3.919 -0.0031  2.2452  0.1804
10678TIP3    H231978   6.560   7.671   3.840 -0.0084  0.2577 -0.2967
10679TIP3   OH231979   3.996   6.341   4.127  0.4021  0.3947 -0.0300
10679TIP3    H131980   3.996   6.431   4.093  0.0891  0.1792 -0.6064
10679TIP3    H231981   3.904   6.321   4.142  0.5097  0.3560  0.6156
10680TIP3   OH231982   7.800   5.382   3.311 -0.2764 -0.1662  0.2027
10680TIP3    H131983   7.782   5.323   3.384 -1.5944 -0.1933 -0.1129
10680TIP3    H231984   7.714   5.415   3.285  0.3121  0.9077 -0.4522
10681TIP3   OH231985   0.389   6.777   6.486 -0.3588 -0.2864 -0.0421
10681TIP3    H131986   0.320   6.791   6.421  0.3058 -1.2140 -0.9890
10681TIP3    H231987   0.466   6.818   6.448 -0.4304  1.0278  1.1620
10682TIP3   OH231988   1.309   6.099   3.649  0.1303 -0.0152  0.3622
10682TIP3    H131989   1.268   6.185   3.644  0.5177  0.1977  0.7643
10682TIP3    H231990   1.356   6.089   3.566  0.1306  0.1846  0.3392
10683TIP3   OH231991   5.313   2.536   0.134 -0.1349 -0.0095  0.3958
10683TIP3    H131992   5.358   2.541   0.219 -0.4924  0.1996  0.5748
10683TIP3    H231993   5.223   2.515   0.156 -0.2084 -0.0487  0.0576
10684TIP3   OH231994   1.614   4.740   0.597 -0.2758 -0.1872 -0.1442
10684TIP3    H131995   1.691   4.700   0.556  0.2371  1.1956 -0.5869
10684TIP3    H231996   1.642   4.760   0.686 -0.1222  0.2637 -0.2880
10685TIP3   OH231997   2.222   6.631   6.054  0.1998  0.2216  0.5609
10685TIP3    H131998   2.300   6.584   6.081 -0.8928 -1.6769  0.5544
10685TIP3    H231999   2.230   6.637   5.958 -0.1283 -0.8967  0.4475
10686TIP3   OH232000   4.413   5.777   0.335  0.0474 -1.0956 -1.0029
10686TIP3    H132001   4.493   5.727   0.319  0.5997  0.1224 -2.2960
10686TIP3    H232002   4.391   5.813   0.249 -1.0035 -0.1215 -0.3398
10687TIP3   OH232003   3.829   3.213   2.321 -0.1685 -0.0617 -0.0574
10687TIP3    H132004   3.768   3.138   2.319 -1.1256  0.7106 -0.9030
10687TIP3    H232005   3.781   3.281   2.367 -0.0279  0.6333 -0.9252
10688TIP3   OH232006   5.529   1.922   2.523  0.3239  0.0766 -0.1637
10688TIP3    H132007   5.478   1.846   2.492  0.0887 -0.3098  1.1158
10688TIP3    H232008   5.468   1.996   2.516 -0.4971 -0.3922  1.4211
10689TIP3   OH232009   2.521   1.674   2.920  0.0549  0.0034 -0.3959
10689TIP3    H132010   2.555   1.616   2.851  1.2111 -0.4665  0.5254
10689TIP3    H232011   2.569   1.755   2.909  1.2460 -0.5328  0.6742
10690TIP3   OH232012   4.138   4.213   0.121 -0.4513  0.4729 -0.3598
10690TIP3    H132013   4.119   4.214   0.214  0.5206 -0.0329 -0.1469
10690TIP3    H232014   4.114   4.301   0.091 -1.0518  0.5405  0.2978
10691TIP3   OH232015   3.982   3.148   1.239  0.7589 -0.0749  0.1038
10691TIP3    H132016   3.966   3.081   1.173 -0.0982  0.0867  0.1418
10691TIP3    H232017   3.986   3.100   1.322 -0.6603 -0.0065  0.2323
10692TIP3   OH232018   5.682   3.064   5.311  0.4548 -0.3611  0.1829
10692TIP3    H132019   5.647   2.986   5.355 -0.7782  0.2709  0.3522
10692TIP3    H232020   5.605   3.108   5.276  1.2832 -0.1186 -1.4280
10693TIP3   OH232021   5.235   3.170   2.923 -0.1723 -0.5677 -0.4317
10693TIP3    H132022   5.329   3.185   2.935 -0.2293  1.1942 -1.7500
10693TIP3    H232023   5.193   3.241   2.972 -0.7882 -0.7444 -0.6959
10694TIP3   OH232024   7.610   7.087   4.302 -0.6218  1.0239  0.4378
10694TIP3    H132025   7.520   7.101   4.272 -0.7220  0.4467  0.4520
10694TIP3    H232026   7.665   7.119   4.231 -0.8554 -0.3792 -0.4248
10695TIP3   OH232027   7.126   6.692   6.102 -0.0959  0.6726 -0.3947
10695TIP3    H132028   7.075   6.704   6.182 -0.6696 -1.8333 -0.3076
10695TIP3    H232029   7.066   6.647   6.042  0.5670  1.8104 -1.9931
10696TIP3   OH232030   4.835   3.220   1.960 -0.2679  0.2314 -0.1859
10696TIP3    H132031   4.759   3.166   1.941  0.1150 -0.1012 -0.8035
10696TIP3    H232032   4.881   3.174   2.030 -0.2632  0.0780 -0.2910
10697TIP3   OH232033   3.064   2.996   5.571 -0.3238  0.8221 -0.0822
10697TIP3    H132034   3.049   2.901   5.562  0.9052  0.6355 -0.3655
10697TIP3    H232035   3.152   3.009   5.537 -0.5943  2.1300 -0.3278
10698TIP3   OH232036   5.419   4.367   0.325 -0.2164 -0.2243  0.4333
10698TIP3    H132037   5.472   4.360   0.404  1.0238  0.4562 -0.3147
10698TIP3    H232038   5.355   4.436   0.345  0.6303  0.5432  0.5532
10699TIP3   OH232039   6.976   0.948   6.353 -0.5004  0.3267 -0.0369
10699TIP3    H132040   6.947   1.021   6.409  0.4568 -0.1809  1.1680
10699TIP3    H232041   7.057   0.980   6.314 -0.4015  0.1396  0.0150
10700TIP3   OH232042   4.723   0.619   5.734  0.3618  0.0408 -0.4785
10700TIP3    H132043   4.777   0.540   5.734  1.7540  0.9195  1.2831
10700TIP3    H232044   4.771   0.681   5.680  0.7265  0.5597  0.4185
10701TIP3   OH232045   7.788   4.203   2.935  0.3116 -0.0650  0.9112
10701TIP3    H132046   7.848   4.172   2.866  0.8558 -1.1490  1.8331
10701TIP3    H232047   7.791   4.298   2.928  1.4396 -0.1202  0.3301
10702TIP3   OH232048   0.592   3.401   6.573 -0.0288 -0.2917  0.1805
10702TIP3    H132049   0.647   3.466   6.616  2.2393 -0.4278 -2.2574
10702TIP3    H232050   0.511   3.448   6.552  0.8935  1.2856 -0.0289
10703TIP3   OH232051   6.046   6.220   2.140 -0.2661  0.4829  0.2559
10703TIP3    H132052   6.130   6.261   2.119 -0.0315  0.1933  0.6146
10703TIP3    H232053   6.070   6.144   2.193 -0.7768  0.5898  0.6419
10704TIP3   OH232054   7.809   2.099   1.867 -0.5863  0.4530  0.3266
10704TIP3    H132055   7.855   2.117   1.949  0.2864 -2.2063  0.5116
10704TIP3    H232056   7.720   2.077   1.893  0.0235 -1.7085  0.7838
10705TIP3   OH232057   5.820   1.015   3.084 -0.1578 -0.2221  0.8340
10705TIP3    H132058   5.875   1.017   3.005  0.4240  1.6552  1.2300
10705TIP3    H232059   5.842   0.932   3.126  1.0917 -0.2968  0.0858
10706TIP3   OH232060   3.868   2.464   2.297  0.2162 -0.2511 -0.2872
10706TIP3    H132061   3.926   2.484   2.370  0.6793  1.1227 -0.9932
10706TIP3    H232062   3.887   2.373   2.276  0.6248 -0.4350  0.8082
10707TIP3   OH232063   4.424   5.364   3.022  0.1740 -0.1762 -0.0426
10707TIP3    H132064   4.329   5.373   3.037 -0.3079  0.0092 -2.7724
10707TIP3    H232065   4.442   5.271   3.036 -0.2931 -0.1358  0.9349
10708TIP3   OH232066   2.219   5.576   2.696 -0.1618  0.5702  0.0966
10708TIP3    H132067   2.301   5.546   2.658  0.4032 -0.4255  1.9451
10708TIP3    H232068   2.243   5.603   2.785 -1.9448 -0.5361  0.9686
10709TIP3   OH232069   2.300   1.338   3.979  0.1059 -0.1641  0.4306
10709TIP3    H132070   2.310   1.317   4.072  1.1905  0.8407  0.5555
10709TIP3    H232071   2.374   1.295   3.936 -0.0061 -0.0527  0.1221
10710TIP3   OH232072   3.138   6.252   6.051  0.6516 -0.3372 -0.2609
10710TIP3    H132073   3.185   6.266   5.969  0.4319 -2.2602 -0.7674
10710TIP3    H232074   3.085   6.174   6.035 -1.3513  0.7052  0.9003
10711TIP3   OH232075   5.356   6.002   5.442 -0.1654 -0.2498 -0.3455
10711TIP3    H132076   5.330   6.008   5.350 -1.0099 -0.4461 -0.1324
10711TIP3    H232077   5.450   6.018   5.442  0.5468 -3.6966 -1.6626
10712TIP3   OH232078   1.025   6.243   1.076 -0.4931 -0.5907 -0.3292
10712TIP3    H132079   1.098   6.181   1.073  1.9546  1.7564  3.1825
10712TIP3    H232080   1.053   6.316   1.022  0.0984  0.5157  1.3897
10713TIP3   OH232081   4.449   4.392   3.622  0.6759 -0.5781 -0.0785
10713TIP3    H132082   4.429   4.374   3.530 -0.7868  0.8636 -0.0923
10713TIP3    H232083   4.363   4.390   3.665  1.0874  0.8838  0.8438
10714TIP3   OH232084   1.556   3.926   3.605 -0.5879 -0.6678  0.0641
10714TIP3    H132085   1.638   3.914   3.653  0.7499  0.2654 -1.8449
10714TIP3    H232086   1.584   3.947   3.516 -2.8840  1.0895 -0.3257
10715TIP3   OH232087   7.529   0.531   5.832  0.2216  0.1015 -0.0617
10715TIP3    H132088   7.617   0.554   5.864 -0.0359  1.2828 -0.1690
10715TIP3    H232089   7.543   0.454   5.777  1.2557  0.4737 -0.3459
10716TIP3   OH232090   5.892   2.373   0.991 -0.5840 -0.0290 -0.1431
10716TIP3    H132091   5.822   2.377   0.926 -0.8475  4.9196  0.0894
10716TIP3    H232092   5.963   2.425   0.952  1.5793 -1.7957  1.2051
10717TIP3   OH232093   5.700   6.059   2.371  0.0463  0.0257  0.5601
10717TIP3    H132094   5.777   6.094   2.416  0.1753 -0.3489  0.6331
10717TIP3    H232095   5.667   6.132   2.319  1.0011 -0.0847 -0.2194
10718TIP3   OH232096   3.024   1.379   1.355 -0.0373  0.3305  0.3951
10718TIP3    H132097   3.039   1.289   1.384  1.4247 -0.6018 -2.8240
10718TIP3    H232098   3.101   1.400   1.302 -2.4697  1.6906 -2.9084
10719TIP3   OH232099   3.104   4.669   5.072 -0.2739  0.0164 -0.0599
10719TIP3    H132100   3.179   4.678   5.013  0.7576 -1.1310  1.0126
10719TIP3    H232101   3.143   4.651   5.158 -1.7157  1.7841  1.0429
10720TIP3   OH232102   3.682   0.243   2.407 -0.1585  0.4620  0.1289
10720TIP3    H132103   3.687   0.308   2.337 -1.2838  2.6405  1.9385
10720TIP3    H232104   3.732   0.281   2.479 -0.7211 -0.7481  1.1986
10721TIP3   OH232105   6.020   2.106   0.858 -0.0444 -0.0178 -0.2889
10721TIP3    H132106   6.027   2.072   0.769  0.9395 -1.0526  0.1608
10721TIP3    H232107   5.925   2.111   0.874 -0.2300 -0.0547 -1.2924
10722TIP3   OH232108   2.865   0.881   5.789  0.3500  0.6528  0.0238
10722TIP3    H132109   2.827   0.900   5.703  0.6513 -0.8349 -0.4766
10722TIP3    H232110   2.795   0.834   5.836  0.7352  0.0423 -0.0082
10723TIP3   OH232111   7.818   1.524   1.898 -0.3441  0.1942  0.4574
10723TIP3    H132112   7.843   1.600   1.845 -2.8255 -1.2844 -3.2844
10723TIP3    H232113   7.889   1.461   1.884  0.3524  0.7819  1.2564
10724TIP3   OH232114   4.467   3.745   2.993 -0.0816  0.4845  0.1734
10724TIP3    H132115   4.465   3.713   3.084 -1.0648 -1.3533 -0.4318
10724TIP3    H232116   4.521   3.681   2.947 -1.0248  0.4054 -0.8613
10725TIP3   OH232117   3.536   0.560   3.710  0.5656  0.2835 -0.6722
10725TIP3    H132118   3.583   0.616   3.772 -0.2009  1.4733 -1.1303
10725TIP3    H232119   3.457   0.609   3.688 -0.9534 -1.6620  0.1001
10726TIP3   OH232120   4.365   1.383   5.167  0.4579  0.1246  0.5520
10726TIP3    H132121   4.321   1.319   5.110  0.6634  0.1386  0.3780
10726TIP3    H232122   4.456   1.383   5.137  0.6485 -0.1270  1.1086
10727TIP3   OH232123   5.299   3.221   2.448  0.2317  0.4614 -0.0405
10727TIP3    H132124   5.334   3.309   2.460  0.8872  0.4502 -1.5810
10727TIP3    H232125   5.223   3.234   2.390 -1.1254  0.2530  1.6179
10728TIP3   OH232126   1.567   3.005   3.689 -0.4415  0.0934  0.1758
10728TIP3    H132127   1.596   2.914   3.687 -0.8522 -0.0634  0.8861
10728TIP3    H232128   1.552   3.027   3.597  0.1126 -0.4028 -0.0433
10729TIP3   OH232129   6.547   7.783   5.061 -0.4890 -0.1871  0.3523
10729TIP3    H132130   6.617   7.771   5.125 -0.0923  0.6233  0.0898
10729TIP3    H232131   6.588   7.762   4.977 -0.2866  1.1451  0.0956
10730TIP3   OH232132   2.758   2.220   6.002 -0.3728 -0.2043  0.2697
10730TIP3    H132133   2.788   2.136   6.035 -2.2829 -0.5353  1.2881
10730TIP3    H232134   2.755   2.209   5.907  2.0645 -0.3268  0.1624
10731TIP3   OH232135   4.247   7.394   1.115 -0.0086 -0.4323 -0.0535
10731TIP3    H132136   4.338   7.418   1.099  0.1897 -1.6069 -0.7577
10731TIP3    H232137   4.216   7.461   1.176  1.5734 -0.4901  0.8850
10732TIP3   OH232138   4.996   2.077   1.187 -0.4537 -0.0645  0.6043
10732TIP3    H132139   5.070   2.107   1.239 -0.6071 -0.3783  1.0014
10732TIP3    H232140   5.036   2.030   1.113 -0.2692 -0.8246  1.1781
10733TIP3   OH232141   0.883   6.489   3.743  0.3683  0.1509 -0.6914
10733TIP3    H132142   0.933   6.559   3.702  0.6532  1.2047  1.3813
10733TIP3    H232143   0.945   6.445   3.802 -0.5353 -0.0080  0.1682
10734TIP3   OH232144   0.789   4.676   6.571  0.4668 -0.1555 -0.4975
10734TIP3    H132145   0.737   4.596   6.565 -0.7455  0.6517 -1.1681
10734TIP3    H232146   0.840   4.666   6.651  0.4496 -1.6588 -0.6511
10735TIP3   OH232147   1.382   6.067   2.552 -0.3356  0.1201 -0.8940
10735TIP3    H132148   1.466   6.069   2.598 -0.1073  1.2163 -1.3091
10735TIP3    H232149   1.392   6.000   2.485  0.0388 -0.0923 -0.6228
10736TIP3   OH232150   3.660   7.726   1.287 -0.5791  0.0495 -0.1828
10736TIP3    H132151   3.660   7.719   1.383  2.2067  0.4355 -0.0787
10736TIP3    H232152   3.662   7.636   1.256  1.2902 -0.0957  0.2476
10737TIP3   OH232153   3.191   5.734   4.340 -0.5057  0.5276  0.1932
10737TIP3    H132154   3.130   5.809   4.339  1.8277  2.5762  1.1404
10737TIP3    H232155   3.238   5.742   4.257  0.2177  0.5310  0.6005
10738TIP3   OH232156   0.429   3.290   2.596  0.1611 -0.6555  0.0031
10738TIP3    H132157   0.462   3.226   2.533  0.1303 -1.5956  0.9058
10738TIP3    H232158   0.338   3.303   2.572  0.8266  1.1013 -1.8188
10739TIP3   OH232159   7.117   4.352   3.281  0.3951 -0.0673  0.0737
10739TIP3    H132160   7.152   4.275   3.237 -2.0998 -1.0661 -0.3704
10739TIP3    H232161   7.067   4.398   3.214 -1.6829 -0.4377  1.2602
10740TIP3   OH232162   4.740   7.376   3.419  0.1242 -0.0765 -0.0260
10740TIP3    H132163   4.692   7.296   3.440 -0.4692  0.5075  0.9246
10740TIP3    H232164   4.784   7.357   3.336  1.3903 -1.9815  1.0181
10741TIP3   OH232165   6.366   7.311   6.244  0.5530 -0.0158  0.0608
10741TIP3    H132166   6.457   7.339   6.237  0.7528 -0.8694 -1.0022
10741TIP3    H232167   6.319   7.365   6.180  0.2740  0.5311  0.7153
10742TIP3   OH232168   1.394   6.749   0.191  0.3112 -0.2196 -0.2672
10742TIP3    H132169   1.421   6.828   0.145 -0.6314 -0.1058 -0.6545
10742TIP3    H232170   1.445   6.679   0.150 -0.7643 -0.1813 -1.7982
10743TIP3   OH232171   2.007   2.569   1.479 -0.0223 -0.4443  0.5819
10743TIP3    H132172   1.986   2.497   1.538 -0.8292 -0.9360 -0.2794
10743TIP3    H232173   2.019   2.645   1.536  0.4308 -1.1680  1.4609
10744TIP3   OH232174   0.175   6.067   2.477 -0.3214  0.2413  0.6555
10744TIP3    H132175   0.133   6.034   2.397  0.5319  0.9512 -0.1022
10744TIP3    H232176   0.216   6.149   2.450  2.2079 -0.7855  1.1667
10745TIP3   OH232177   2.948   5.666   1.632 -0.4725  0.2522 -0.3199
10745TIP3    H132178   2.940   5.616   1.551 -1.3788 -1.0401  0.5181
10745TIP3    H232179   2.892   5.742   1.619  0.4157  0.7444 -1.3755
10746TIP3   OH232180   6.272   1.503   3.735  0.2180 -0.3475 -0.5467
10746TIP3    H132181   6.193   1.449   3.731  0.3273 -0.4439 -2.1415
10746TIP3    H232182   6.343   1.444   3.710  0.9165 -0.4228  1.4898
10747TIP3   OH232183   5.481   7.370   6.277 -0.2939 -0.1085  0.1748
10747TIP3    H132184   5.466   7.293   6.332  0.4221  0.1092  0.6780
10747TIP3    H232185   5.429   7.439   6.318 -1.4777 -0.4623 -0.6546
10748TIP3   OH232186   2.369   1.372   4.517 -0.2659  0.1001  0.1631
10748TIP3    H132187   2.388   1.298   4.575 -1.3637 -0.8446 -0.6225
10748TIP3    H232188   2.275   1.386   4.527  0.0895  2.0984  1.0813
10749TIP3   OH232189   2.863   1.307   6.795 -0.2248 -0.1349  0.7128
10749TIP3    H132190   2.859   1.341   6.706  3.4983 -1.2716 -0.0858
10749TIP3    H232191   2.796   1.239   6.798  0.4419 -0.9827 -1.6927
10750TIP3   OH232192   7.370   2.096   1.898 -0.6323  0.0872  0.8641
10750TIP3    H132193   7.291   2.135   1.935 -2.2551 -0.9924 -1.2054
10750TIP3    H232194   7.340   2.015   1.856  1.9014 -1.3031  1.4914
10751TIP3   OH232195   2.194   6.925   4.415 -0.0861  0.5225 -0.2743
10751TIP3    H132196   2.250   6.967   4.349  0.1136 -3.0278 -2.6792
10751TIP3    H232197   2.253   6.909   4.489  1.6313 -1.1179 -1.8695
10752TIP3   OH232198   6.245   1.528   4.298 -0.1997  0.0249 -0.4123
10752TIP3    H132199   6.249   1.473   4.220 -1.0650  0.1346 -0.5414
10752TIP3    H232200   6.171   1.587   4.282  0.3648  0.8581 -0.0377
10753TIP3   OH232201   0.928   4.409   1.474  0.1897  0.1896  0.3027
10753TIP3    H132202   0.984   4.351   1.526 -0.2583  0.0257  0.6100
10753TIP3    H232203   0.841   4.396   1.510  0.0743  1.0251  0.3451
10754TIP3   OH232204   7.040   5.034   4.432  0.2491 -0.0115 -0.7052
10754TIP3    H132205   6.981   4.971   4.389 -1.7137  1.8147 -0.8400
10754TIP3    H232206   7.031   5.014   4.525 -0.6524  0.2658 -0.7202
10755TIP3   OH232207   7.859   0.686   4.646  0.0377 -0.1271 -0.0772
10755TIP3    H132208   7.837   0.620   4.580 -1.4389  0.6071 -0.3569
10755TIP3    H232209   7.867   0.637   4.727 -3.6706 -0.4527  0.2755
10756TIP3   OH232210   6.371   0.919   0.768 -0.0776  0.2116  0.4149
10756TIP3    H132211   6.393   0.996   0.716  4.1711 -0.0369  1.5008
10756TIP3    H232212   6.353   0.952   0.856 -1.6232  0.1434  0.1618
10757TIP3   OH232213   3.922   0.109   0.621  0.2699 -0.4642 -0.5584
10757TIP3    H132214   3.954   0.045   0.558 -0.1893  1.3798 -2.7942
10757TIP3    H232215   3.996   0.167   0.637 -0.2294  0.3652 -1.1633
10758TIP3   OH232216   1.874   3.200   4.496 -0.4343 -0.0876 -0.1235
10758TIP3    H132217   1.823   3.128   4.532  0.7268 -0.6739  0.3927
10758TIP3    H232218   1.852   3.201   4.403  1.2864 -2.6448 -0.6423
10759TIP3   OH232219   8.109   0.533   0.079  0.0184 -0.6723  0.1146
10759TIP3    H132220   8.017   0.515   0.060  0.1799 -0.7105 -0.6881
10759TIP3    H232221   8.140   0.454   0.124 -0.2800 -0.7553  0.1797
10760TIP3   OH232222   2.231   3.942   3.044  0.2664  0.0118 -0.2187
10760TIP3    H132223   2.308   3.999   3.036 -0.0377  0.6007  0.8628
10760TIP3    H232224   2.250   3.889   3.122  0.6320 -1.5263 -1.3125
10761TIP3   OH232225   5.980   2.135   2.407 -0.7173  0.0828  0.3511
10761TIP3    H132226   5.944   2.153   2.320 -1.9362 -0.2243  0.7671
10761TIP3    H232227   5.988   2.040   2.411 -2.2472 -0.0473  1.1379
10762TIP3   OH232228   3.568   5.083   5.107 -0.1518 -0.0829  0.8203
10762TIP3    H132229   3.553   5.037   5.189  1.1523 -0.5042  0.8370
10762TIP3    H232230   3.634   5.149   5.128 -0.7130  0.6349  0.3873
10763TIP3   OH232231   7.158   3.559   6.502 -0.0460  0.1325  0.1736
10763TIP3    H132232   7.107   3.570   6.422  0.4899  0.4654 -0.1339
10763TIP3    H232233   7.106   3.500   6.557 -0.2892 -0.3095 -0.5298
10764TIP3   OH232234   4.144   3.590   1.191  0.3598 -0.0585  0.2301
10764TIP3    H132235   4.236   3.599   1.166  1.1843 -3.2357  1.6093
10764TIP3    H232236   4.122   3.499   1.171 -1.5017 -0.2674  2.6794
10765TIP3   OH232237   3.044   1.892   0.453 -0.0735  0.2467 -0.0887
10765TIP3    H132238   2.994   1.910   0.533 -0.0748 -3.0566  0.8004
10765TIP3    H232239   2.989   1.832   0.403  0.5166  1.2021 -1.9741
10766TIP3   OH232240   8.133   2.988   2.042  0.2296  0.3254 -0.0562
10766TIP3    H132241   8.101   2.906   2.080 -0.1100  0.9060  0.9507
10766TIP3    H232242   8.139   2.970   1.948 -1.3170 -0.3648 -0.0543
10767TIP3   OH232243   3.745   5.402   2.324  0.4934  0.9242  0.4652
10767TIP3    H132244   3.723   5.373   2.235  0.8660 -0.7074  0.8743
10767TIP3    H232245   3.666   5.446   2.354  0.4066  1.6284 -0.7177
10768TIP3   OH232246   5.992   5.844   5.971  0.4067 -0.1324  0.2673
10768TIP3    H132247   6.031   5.872   6.054 -0.9186  0.3916  0.7482
10768TIP3    H232248   6.011   5.915   5.910 -2.3658  1.6757  1.3096
10769TIP3   OH232249   0.922   1.639   4.695 -1.1675 -0.2371 -0.1692
10769TIP3    H132250   1.010   1.654   4.730 -1.8256  0.4133  1.2755
10769TIP3    H232251   0.875   1.721   4.712 -2.3147 -0.8876 -0.1087
10770TIP3   OH232252   1.240   1.395   4.355  0.3095  0.1265 -0.1270
10770TIP3    H132253   1.296   1.326   4.320 -1.3203 -2.5160  2.0299
10770TIP3    H232254   1.293   1.439   4.421  1.0468  0.2979 -0.8220
10771TIP3   OH232255   5.225   6.293   3.412 -0.2078 -0.2674 -0.3849
10771TIP3    H132256   5.160   6.246   3.360 -1.3094 -0.3171  0.9782
10771TIP3    H232257   5.186   6.380   3.425  1.3120  0.7089 -1.9510
10772TIP3   OH232258   0.800   3.975   1.888 -0.1485 -0.4070 -0.3552
10772TIP3    H132259   0.863   4.047   1.885  0.3261 -0.7996  0.0385
10772TIP3    H232260   0.810   3.930   1.805  0.3010 -0.6430 -0.1733
10773TIP3   OH232261   3.892   1.387   5.414  0.4896  0.2249 -0.1413
10773TIP3    H132262   3.974   1.344   5.389 -0.7304 -1.3115 -1.8602
10773TIP3    H232263   3.825   1.320   5.398 -0.8983  0.3008  4.1367
10774TIP3   OH232264   5.172   5.823   3.027  0.1200 -0.5209 -0.2223
10774TIP3    H132265   5.099   5.760   3.034  0.1980 -0.5966 -0.1025
10774TIP3    H232266   5.129   5.908   3.017  0.0169 -0.4802  0.5601
10775TIP3   OH232267   0.411   0.825   5.330 -0.3625  0.0546  0.2945
10775TIP3    H132268   0.387   0.880   5.404  0.0900 -0.7682  1.0707
10775TIP3    H232269   0.419   0.737   5.367 -0.7766 -0.4961 -0.8588
10776TIP3   OH232270   2.373   3.623   2.768 -0.4379 -0.2100  0.3420
10776TIP3    H132271   2.314   3.594   2.699 -1.1386 -3.3796  2.0702
10776TIP3    H232272   2.319   3.623   2.847  0.8360  1.3018  1.2741
10777TIP3   OH232273   3.011   2.966   1.331  0.2157 -0.1987 -0.4557
10777TIP3    H132274   2.942   2.901   1.322 -1.6594  1.3489  1.7473
10777TIP3    H232275   3.032   2.967   1.424  1.1059  1.4196 -0.6294
10778TIP3   OH232276   6.037   0.382   3.509  0.4053  0.8714  0.5680
10778TIP3    H132277   6.043   0.325   3.586  1.3952 -0.0945 -0.1718
10778TIP3    H232278   6.081   0.332   3.439  1.1669  2.4788 -0.1651
10779TIP3   OH232279   6.272   5.423   5.467 -0.0010  0.7746  0.1474
10779TIP3    H132280   6.361   5.447   5.496  0.7401 -0.7009 -0.8026
10779TIP3    H232281   6.286   5.367   5.391 -1.7476  0.0340  0.3413
10780TIP3   OH232282   4.002   5.688   0.811 -0.1125  0.8929 -0.0931
10780TIP3    H132283   3.983   5.747   0.884 -1.5055  0.2483  0.0924
10780TIP3    H232284   3.958   5.728   0.736 -1.7594 -0.2623  0.1981
10781TIP3   OH232285   3.466   6.331   2.344  0.1999 -0.0161  0.2117
10781TIP3    H132286   3.429   6.280   2.416 -0.7479 -1.6501 -1.3722
10781TIP3    H232287   3.559   6.309   2.346  0.0486 -0.6702  0.4483
10782TIP3   OH232288   1.944   0.266   0.169 -0.0295 -0.3867  0.1129
10782TIP3    H132289   1.890   0.194   0.202 -0.9187  0.8128  1.3690
10782TIP3    H232290   2.028   0.254   0.212 -0.6314  0.1293  1.5010
10783TIP3   OH232291   5.999   0.928   3.991  0.1387  1.2303 -0.1060
10783TIP3    H132292   5.922   0.894   4.036 -0.3651  0.4188 -1.5430
10783TIP3    H232293   5.967   1.005   3.944  0.5331  1.7109  0.3895
10784TIP3   OH232294   2.713   3.568   5.936 -0.0523 -0.2118 -0.0502
10784TIP3    H132295   2.717   3.597   5.845  1.1116 -1.3833 -0.4044
10784TIP3    H232296   2.629   3.522   5.944 -0.0834 -0.2458 -0.5793
10785TIP3   OH232297   4.861   4.936   5.038  0.2989  0.6774 -0.5390
10785TIP3    H132298   4.831   5.019   5.077  1.7849 -0.1617  2.7220
10785TIP3    H232299   4.955   4.948   5.028  0.5907 -0.7247  0.3550
10786TIP3   OH232300   5.584   3.198   2.162 -0.4108 -0.0574 -0.0930
10786TIP3    H132301   5.552   3.162   2.080 -0.8028  1.1690 -0.5007
10786TIP3    H232302   5.587   3.293   2.147  4.4818 -0.0272 -0.5475
10787TIP3   OH232303   7.432   5.600   6.565  0.4231 -0.2403 -0.1603
10787TIP3    H132304   7.417   5.559   6.650 -0.0803 -0.3895 -0.3187
10787TIP3    H232305   7.370   5.557   6.506  2.2618 -1.7440 -1.1233
10788TIP3   OH232306   5.671   1.647   5.912  0.4367 -0.3991 -0.1705
10788TIP3    H132307   5.749   1.703   5.914  0.5955 -0.6413  0.6523
10788TIP3    H232308   5.644   1.640   6.004 -0.7598 -0.0338 -0.4857
10789TIP3   OH232309   2.653   7.702   4.766  0.3395 -0.6603  0.1972
10789TIP3    H132310   2.677   7.632   4.705  0.2288 -0.6067  0.0917
10789TIP3    H232311   2.713   7.773   4.745  1.2334 -1.1247  1.0797
10790TIP3   OH232312   1.257   1.113   4.409  0.3271  0.7563  0.3032
10790TIP3    H132313   1.191   1.109   4.339  0.3163  1.1354  0.2866
10790TIP3    H232314   1.338   1.135   4.364  0.2779  1.2132  0.4340
10791TIP3   OH232315   8.225   6.393   6.321  0.3231  0.1887  0.0108
10791TIP3    H132316   8.317   6.417   6.318  0.5666 -0.6574  0.2823
10791TIP3    H232317   8.180   6.473   6.348  0.9344  0.6984 -0.4455
10792TIP3   OH232318   7.949   1.074   1.527 -0.0621  0.7472 -0.4349
10792TIP3    H132319   7.884   1.004   1.517 -0.1902  0.7830  0.1423
10792TIP3    H232320   7.900   1.147   1.566  0.0416  1.2064 -1.1344
10793TIP3   OH232321   1.934   4.732   1.344  0.0133  0.5710  0.2025
10793TIP3    H132322   1.972   4.808   1.387  1.1834  0.6848 -0.9613
10793TIP3    H232323   1.961   4.657   1.397 -1.0603  0.9328  1.2972
10794TIP3   OH232324   0.868   5.803   2.980  0.2803 -0.4810 -0.6853
10794TIP3    H132325   0.792   5.791   2.923  0.6415  3.1813 -2.1622
10794TIP3    H232326   0.830   5.811   3.068 -1.3432  2.6497 -1.5260
10795TIP3   OH232327   3.127   5.454   4.365 -0.1389  0.5409  0.4453
10795TIP3    H132328   3.041   5.497   4.363 -1.2831 -1.6039 -0.3899
10795TIP3    H232329   3.189   5.523   4.341 -1.8285  1.7638 -0.6684
10796TIP3   OH232330   5.079   3.609   5.438 -0.2525 -0.0549 -1.2513
10796TIP3    H132331   5.116   3.536   5.388 -0.0155 -0.7651 -0.0789
10796TIP3    H232332   5.064   3.677   5.372 -0.0869 -0.9947 -2.3081
10797TIP3   OH232333   4.071   3.626   1.965  0.0070 -0.2378 -0.2696
10797TIP3    H132334   4.004   3.669   1.913  0.3739  1.5272  0.6460
10797TIP3    H232335   4.022   3.572   2.028 -0.4417 -1.7184 -1.8120
10798TIP3   OH232336   5.193   5.697   6.615 -0.5942  0.8779  0.2350
10798TIP3    H132337   5.200   5.711   6.521  0.0549  3.3387  0.6048
10798TIP3    H232338   5.108   5.734   6.638 -1.6641 -1.4718  0.3981
10799TIP3   OH232339   2.454   2.689   0.697 -0.4769 -0.1613  0.1846
10799TIP3    H132340   2.449   2.782   0.677  0.2341 -0.2930 -0.6798
10799TIP3    H232341   2.380   2.673   0.756 -0.8151  0.8722  0.0638
10800TIP3   OH232342   6.995   4.704   6.376 -0.2680 -0.6752 -0.5152
10800TIP3    H132343   6.917   4.678   6.424 -0.2047 -1.1657 -0.6744
10800TIP3    H232344   7.036   4.622   6.349  1.5923 -0.5452  1.5768
10801TIP3   OH232345   1.194   0.170   3.758  0.3721  0.4450 -0.4312
10801TIP3    H132346   1.236   0.088   3.783  0.7629  0.6355 -0.4589
10801TIP3    H232347   1.171   0.212   3.841 -0.1491  0.1507 -0.4178
10802TIP3   OH232348   3.772   6.818   3.560  0.1199 -0.4386 -0.5747
10802TIP3    H132349   3.788   6.836   3.653 -2.2578 -1.8524  0.2065
10802TIP3    H232350   3.710   6.885   3.533 -1.4327 -1.7072 -0.2852
10803TIP3   OH232351   3.166   4.394   4.494 -0.4551 -0.4223  0.1000
10803TIP3    H132352   3.140   4.444   4.417  2.0473  0.2380 -0.4261
10803TIP3    H232353   3.139   4.449   4.568 -0.8716  0.0075 -0.3633
10804TIP3   OH232354   4.246   0.219   0.901 -0.0842 -0.1699 -0.2607
10804TIP3    H132355   4.308   0.291   0.916  1.4650 -1.5359  0.1270
10804TIP3    H232356   4.195   0.247   0.825  0.6473  1.2244 -0.2697
10805TIP3   OH232357   4.965   3.904   4.627 -0.1638 -0.2681 -0.4687
10805TIP3    H132358   5.036   3.932   4.570 -1.4619  1.6338 -1.2725
10805TIP3    H232359   4.988   3.939   4.713  0.1545 -0.1172 -0.6156
10806TIP3   OH232360   5.456   6.961   6.708 -0.2083 -0.6111 -0.1061
10806TIP3    H132361   5.465   7.042   6.758  0.2495 -1.8081  1.9125
10806TIP3    H232362   5.545   6.927   6.701 -0.5781 -1.8462  0.7689
10807TIP3   OH232363   5.842   4.119   1.072  0.1498 -0.0695  1.2519
10807TIP3    H132364   5.851   4.206   1.112 -0.1780  0.1486  0.8534
10807TIP3    H232365   5.932   4.093   1.053  0.1499  1.2230 -0.8292
10808TIP3   OH232366   7.243   2.841   2.518  0.0042 -0.5679  0.0971
10808TIP3    H132367   7.328   2.886   2.524 -1.0969  1.7003 -0.0732
10808TIP3    H232368   7.235   2.819   2.425 -1.8585  4.3914 -1.2829
10809TIP3   OH232369   3.337   3.221   4.826  0.0858 -0.1885 -0.4819
10809TIP3    H132370   3.429   3.213   4.851  0.5975  0.4344 -2.0257
10809TIP3    H232371   3.304   3.294   4.878  0.7509  0.2533 -0.6733
10810TIP3   OH232372   3.223   3.313   3.945 -0.4881 -0.4682  1.1609
10810TIP3    H132373   3.316   3.321   3.967 -0.3758  2.1531  0.1780
10810TIP3    H232374   3.178   3.357   4.017 -0.5991  1.7862 -0.1704
10811TIP3   OH232375   8.234   3.119   3.444 -0.9239  0.0801  0.1720
10811TIP3    H132376   8.149   3.146   3.410 -0.0646  0.8855 -1.4639
10811TIP3    H232377   8.265   3.054   3.381  0.3229  0.9451 -0.1561
10812TIP3   OH232378   1.646   0.963   1.670 -0.2062 -0.1172  0.2097
10812TIP3    H132379   1.736   0.941   1.693 -0.2622  1.3969  2.1729
10812TIP3    H232380   1.592   0.918   1.736 -0.6872  0.9155  0.5561
10813TIP3   OH232381   4.576   1.126   6.109  0.0555 -0.1040 -0.2514
10813TIP3    H132382   4.505   1.122   6.173  1.7588  1.7197  1.8966
10813TIP3    H232383   4.595   1.219   6.099  1.2317 -0.4719 -1.8535
10814TIP3   OH232384   3.146   7.304   5.422  0.2353 -0.0759 -0.3873
10814TIP3    H132385   3.055   7.316   5.447  0.3141  2.1217 -0.9770
10814TIP3    H232386   3.143   7.243   5.349 -0.8318  0.4391 -0.7892
10815TIP3   OH232387   4.817   7.807   6.667  0.4280  0.6574  0.4976
10815TIP3    H132388   4.815   7.781   6.574  0.3835 -2.1589  1.1931
10815TIP3    H232389   4.737   7.771   6.704  0.7693  1.1710  1.7937
10816TIP3   OH232390   6.123   5.357   4.252  0.0522 -0.1804 -0.3361
10816TIP3    H132391   6.183   5.323   4.187  0.1801  0.0975 -0.3645
10816TIP3    H232392   6.171   5.353   4.335  0.2463  0.3855 -0.4171
10817TIP3   OH232393   1.303   6.783   2.587  0.3707  0.9016 -0.0728
10817TIP3    H132394   1.252   6.846   2.638 -1.6190 -1.9800  1.8573
10817TIP3    H232395   1.237   6.733   2.538  1.6577 -0.6382 -0.3397
10818TIP3   OH232396   5.193   7.184   4.898 -0.2922  0.2684 -0.0254
10818TIP3    H132397   5.175   7.148   4.810 -0.0993 -0.3350  0.1738
10818TIP3    H232398   5.216   7.275   4.882 -0.6329  0.2663 -0.5709
10819TIP3   OH232399   7.144   4.763   5.402  0.0903  0.3446  0.1740
10819TIP3    H132400   7.096   4.781   5.483 -0.6635 -0.1483 -0.1567
10819TIP3    H232401   7.151   4.668   5.399  0.0785  0.3590 -0.3589
10820TIP3   OH232402   6.835   3.663   6.415 -0.2322 -0.3447 -0.0153
10820TIP3    H132403   6.893   3.719   6.465 -0.4152  1.1762 -1.4378
10820TIP3    H232404   6.880   3.578   6.412  0.0480 -0.3257  2.1549
10821TIP3   OH232405   5.715   4.448   1.676 -0.1909 -0.0596  0.4262
10821TIP3    H132406   5.810   4.449   1.690 -0.2999 -1.4402  1.5266
10821TIP3    H232407   5.695   4.534   1.641  1.3582  0.5659  0.9798
10822TIP3   OH232408   2.579   4.714   0.259  0.1448  0.1058 -0.5471
10822TIP3    H132409   2.560   4.804   0.286  1.6403  0.3133 -0.0817
10822TIP3    H232410   2.542   4.660   0.328 -1.6068  0.2817 -1.2991
10823TIP3   OH232411   0.194   0.577   4.904  0.2727  0.0126  0.0812
10823TIP3    H132412   0.178   0.563   4.811  1.4428 -1.0925  0.0298
10823TIP3    H232413   0.170   0.669   4.918 -0.0915  0.1456 -1.2555
10824TIP3   OH232414   0.899   0.612   6.452  0.2198  0.3701 -0.3671
10824TIP3    H132415   0.834   0.605   6.522  0.2303  1.2571 -0.2597
10824TIP3    H232416   0.872   0.548   6.387 -1.1110  1.1283 -0.5967
10825TIP3   OH232417   7.912   2.041   2.553  0.1467 -0.2740 -0.4310
10825TIP3    H132418   7.921   2.103   2.481 -2.8092  0.8404  0.0217
10825TIP3    H232419   7.862   1.968   2.517 -0.4937 -0.1686  0.2188
10826TIP3   OH232420   7.371   2.520   0.358 -0.4348 -0.2542  0.2566
10826TIP3    H132421   7.383   2.517   0.263 -1.8566  3.8837 -0.2821
10826TIP3    H232422   7.296   2.464   0.374 -0.5812 -0.5276 -1.1797
10827TIP3   OH232423   4.238   4.072   5.010 -0.1979 -0.5957  0.4677
10827TIP3    H132424   4.331   4.069   4.986 -0.3175  0.5373 -0.1701
10827TIP3    H232425   4.192   4.043   4.931 -0.4203 -0.4545  0.5452
10828TIP3   OH232426   3.599   2.688   2.676  0.1809 -0.3075 -0.8559
10828TIP3    H132427   3.687   2.663   2.651  0.3562 -0.6742  0.0758
10828TIP3    H232428   3.576   2.627   2.746 -0.5738  0.1789 -0.6685
10829TIP3   OH232429   3.445   3.682   5.307 -0.3648 -0.0943 -0.3927
10829TIP3    H132430   3.388   3.607   5.293  0.0596 -0.2877 -1.1368
10829TIP3    H232431   3.405   3.730   5.380 -0.9354 -0.7427 -0.2744
10830TIP3   OH232432   3.097   0.309   1.271 -0.0732 -0.0079 -0.1315
10830TIP3    H132433   3.182   0.304   1.315  0.2651  4.1418  0.0929
10830TIP3    H232434   3.038   0.345   1.337 -1.3319 -0.2072 -1.1003
10831TIP3   OH232435   2.933   7.569   1.386 -0.3513  0.0965  0.2818
10831TIP3    H132436   2.874   7.495   1.376  0.2693 -0.4437  0.5338
10831TIP3    H232437   2.880   7.637   1.427 -0.8277 -0.3328  0.3851
10832TIP3   OH232438   5.627   6.333   1.684 -0.1949  0.4445  0.4369
10832TIP3    H132439   5.663   6.410   1.640 -0.3562 -0.3022 -1.0725
10832TIP3    H232440   5.699   6.299   1.736  0.6120  0.2972 -0.7333
10833TIP3   OH232441   1.167   1.617   3.216 -0.1692  0.0235 -0.2125
10833TIP3    H132442   1.135   1.702   3.248 -0.8561 -0.6223  0.8748
10833TIP3    H232443   1.244   1.639   3.163  0.7623  1.2213  1.5183
10834TIP3   OH232444   3.205   5.632   1.807  0.0916 -0.2126 -0.4158
10834TIP3    H132445   3.140   5.676   1.751  0.6853 -0.0093 -0.9481
10834TIP3    H232446   3.275   5.607   1.748  0.5250 -0.3916  0.1676
10835TIP3   OH232447   7.424   4.186   3.865  0.0660 -0.0721  0.0283
10835TIP3    H132448   7.355   4.204   3.802  0.4956  0.5731 -0.2649
10835TIP3    H232449   7.485   4.129   3.820 -0.3278 -0.7408  0.3274
10836TIP3   OH232450   3.027   6.376   4.300  0.8900  0.0187  0.1325
10836TIP3    H132451   3.069   6.291   4.283 -1.4534 -1.0843 -0.6443
10836TIP3    H232452   3.005   6.374   4.393 -0.3426 -0.8349 -0.1607
10837TIP3   OH232453   6.763   1.316   3.082 -0.1489  0.0349  0.0661
10837TIP3    H132454   6.809   1.311   3.165 -0.1102 -0.0933  0.0372
10837TIP3    H232455   6.832   1.325   3.016 -0.1661 -0.1113  0.0269
10838TIP3   OH232456   1.948   4.425   2.286 -0.5206  0.1267  0.1095
10838TIP3    H132457   1.949   4.347   2.231  0.7964 -0.9254  1.5512
10838TIP3    H232458   1.862   4.463   2.270 -1.3936 -1.8606 -0.2945
10839TIP3   OH232459   4.605   1.670   6.739  0.4084 -0.1550  0.6684
10839TIP3    H132460   4.602   1.579   6.770 -0.7644  0.1773  1.6400
10839TIP3    H232461   4.674   1.710   6.791  0.2890 -0.2707  0.9210
10840TIP3   OH232462   6.016   2.852   6.369 -0.3235 -0.1766 -0.4287
10840TIP3    H132463   6.054   2.854   6.457 -0.4432  2.6613 -0.3539
10840TIP3    H232464   5.931   2.809   6.380 -0.5858  0.6402  0.9964
10841TIP3   OH232465   1.719   5.461   2.862  0.0968 -0.0946  0.5730
10841TIP3    H132466   1.805   5.503   2.871  0.0545  0.4164 -1.0258
10841TIP3    H232467   1.732   5.396   2.793 -0.6548 -0.4126  0.7254
10842TIP3   OH232468   6.195   1.703   4.048 -0.3397 -0.1747 -0.2117
10842TIP3    H132469   6.220   1.613   4.030  1.9122  0.1228  1.0825
10842TIP3    H232470   6.274   1.744   4.083 -1.8720  1.7209  1.3034
10843TIP3   OH232471   5.582   0.972   1.726  0.2755 -0.0307  0.8298
10843TIP3    H132472   5.634   1.044   1.762 -0.7514  0.4380  1.4282
10843TIP3    H232473   5.645   0.918   1.680  1.3111  0.4709  1.6103
10844TIP3   OH232474   1.088   7.084   5.327  0.5067  0.4988 -0.0294
10844TIP3    H132475   1.031   7.120   5.260  1.1224 -1.3176 -1.6176
10844TIP3    H232476   1.157   7.039   5.278  1.3525 -0.3334  1.8367
10845TIP3   OH232477   5.023   1.883   3.830 -0.1780  0.2388  0.0491
10845TIP3    H132478   5.003   1.925   3.747  0.5120 -1.6227 -1.1196
10845TIP3    H232479   4.999   1.948   3.896  1.4011  2.6821 -1.6097
10846TIP3   OH232480   2.919   1.904   2.964 -0.1701  0.0658 -0.2849
10846TIP3    H132481   2.989   1.937   2.907 -0.6660 -0.2141 -1.0803
10846TIP3    H232482   2.940   1.811   2.976  0.1647  0.2205  0.3450
10847TIP3   OH232483   0.508   7.221   1.754  0.0423  0.1199 -0.1185
10847TIP3    H132484   0.507   7.194   1.662 -2.1534 -1.4871  0.3061
10847TIP3    H232485   0.416   7.228   1.778  0.5759  1.3902  1.7504
10848TIP3   OH232486   2.546   6.125   5.416  0.0833 -0.3415  0.3127
10848TIP3    H132487   2.573   6.153   5.328 -0.0684 -0.0061  0.3709
10848TIP3    H232488   2.621   6.076   5.450  0.0226 -0.7480 -0.1243
10849TIP3   OH232489   7.387   2.200   1.053  0.6929 -0.0075 -0.1169
10849TIP3    H132490   7.412   2.277   1.103 -0.7912  1.6000 -1.7018
10849TIP3    H232491   7.400   2.225   0.962 -2.7571 -0.3948 -0.8644
10850TIP3   OH232492   5.541   2.954   4.987  0.2547  0.7129 -0.2006
10850TIP3    H132493   5.450   2.936   5.009 -0.3552  3.3069 -0.3836
10850TIP3    H232494   5.569   2.877   4.937 -1.3422 -0.7953  1.1184
10851TIP3   OH232495   2.232   5.390   5.428  0.4692  0.6069  0.2813
10851TIP3    H132496   2.148   5.436   5.419  0.4550  0.6516  0.6313
10851TIP3    H232497   2.252   5.360   5.340  0.2167  0.8315  0.1442
10852TIP3   OH232498   1.782   4.531   1.948  0.8436  0.4038 -0.2061
10852TIP3    H132499   1.751   4.519   2.038  1.9255 -1.7453 -0.0577
10852TIP3    H232500   1.876   4.551   1.958  1.0742 -0.3083 -0.8652
10853TIP3   OH232501   0.836   0.230   2.040  0.6788 -0.0458 -0.0671
10853TIP3    H132502   0.796   0.240   2.127  0.0497 -1.3536 -0.1797
10853TIP3    H232503   0.928   0.251   2.053  1.2968 -3.2447  1.6600
10854TIP3   OH232504   0.064   5.596   1.418 -0.5869  0.5815 -0.7201
10854TIP3    H132505   0.108   5.679   1.406 -1.4865  1.0639 -0.7970
10854TIP3    H232506   0.012   5.584   1.339  0.0580 -0.3957 -1.0143
10855TIP3   OH232507   4.170   5.253   2.280  0.1859 -0.2939 -0.3626
10855TIP3    H132508   4.147   5.165   2.249  0.5736 -0.6667  0.3756
10855TIP3    H232509   4.216   5.238   2.363 -1.8486  0.6967  1.0430
10856TIP3   OH232510   7.776   5.022   2.334  0.7571  0.6598  0.2124
10856TIP3    H132511   7.802   4.985   2.249  0.5622 -0.2121  0.5186
10856TIP3    H232512   7.839   4.985   2.396 -1.1812 -1.5632  0.9902
10857TIP3   OH232513   4.711   7.618   5.166  0.1015  0.0171  0.4036
10857TIP3    H132514   4.788   7.655   5.123 -0.2543  1.0879  0.6596
10857TIP3    H232515   4.691   7.680   5.237 -1.8825  0.5873 -0.5968
10858TIP3   OH232516   6.593   7.090   5.918  0.2181 -0.7415  0.2808
10858TIP3    H132517   6.597   7.091   5.822  1.7003 -1.8282  0.2815
10858TIP3    H232518   6.518   7.144   5.940  0.4553  0.3739 -1.4624
10859TIP3   OH232519   3.048   3.719   5.609  0.4577 -0.1092 -0.3028
10859TIP3    H132520   3.103   3.654   5.652 -0.4719 -1.3836 -0.9645
10859TIP3    H232521   2.968   3.720   5.662 -0.3023 -0.9676 -1.3969
10860TIP3   OH232522   4.314   2.035   2.111 -1.0641  0.1613 -0.3883
10860TIP3    H132523   4.354   2.043   2.024 -2.8825  0.8652 -1.2059
10860TIP3    H232524   4.243   2.099   2.111 -0.8639  0.4491  1.7836
10861TIP3   OH232525   1.774   4.838   1.151 -0.0382  0.0570  0.2687
10861TIP3    H132526   1.831   4.792   1.213 -1.1933 -0.5060  0.9244
10861TIP3    H232527   1.834   4.893   1.101  0.9881  0.1001  1.4973
10862TIP3   OH232528   4.266   3.380   2.409 -0.1132  0.2169  0.1732
10862TIP3    H132529   4.200   3.321   2.446 -1.0548  1.3237  0.3406
10862TIP3    H232530   4.246   3.465   2.449  0.4289  0.9144 -1.0001
10863TIP3   OH232531   1.715   1.496   0.152 -0.5359  0.1617 -0.6141
10863TIP3    H132532   1.619   1.492   0.152 -0.5093 -0.8683 -0.3058
10863TIP3    H232533   1.740   1.448   0.231  0.2084  1.7781  0.1626
10864TIP3   OH232534   2.038   1.998   3.943  0.3340 -0.5797 -0.2343
10864TIP3    H132535   2.067   1.908   3.962 -0.7969 -0.9542 -0.2100
10864TIP3    H232536   1.974   1.988   3.873  0.4676  0.2548 -0.4812
10865TIP3   OH232537   4.502   0.452   4.898  0.2730 -0.8488  0.1841
10865TIP3    H132538   4.550   0.376   4.931  1.3157  0.3764  1.6939
10865TIP3    H232539   4.501   0.440   4.803  1.7005 -2.0215  0.2629
10866TIP3   OH232540   0.070   0.293   0.962 -0.1213  1.1627  0.3454
10866TIP3    H132541   0.024   0.254   0.887  0.9121  0.8096 -0.1212
10866TIP3    H232542   0.151   0.242   0.970  0.6331  2.3468  0.5684
10867TIP3   OH232543   8.063   4.580   4.170  0.8905  0.0305  0.1401
10867TIP3    H132544   8.127   4.593   4.100  2.0462  0.4035  1.2345
10867TIP3    H232545   8.063   4.485   4.184 -0.2001 -0.1855 -1.1077
10868TIP3   OH232546   8.233   7.342   1.101 -0.1542 -0.3234 -0.2241
10868TIP3    H132547   8.168   7.343   1.032 -1.1760 -1.3229  0.6775
10868TIP3    H232548   8.198   7.281   1.166  1.1875 -0.0899  0.7645
10869TIP3   OH232549   1.182   2.232   2.015 -0.4565  0.1605  0.7879
10869TIP3    H132550   1.145   2.180   1.943 -0.3770 -0.3125  1.0909
10869TIP3    H232551   1.105   2.265   2.062 -0.5177 -1.4456  1.8701
10870TIP3   OH232552   7.859   0.756   4.241 -0.2066 -0.5073 -0.3089
10870TIP3    H132553   7.905   0.672   4.242 -0.4608 -0.6635 -0.9950
10870TIP3    H232554   7.919   0.817   4.198  2.1720  1.0285  4.4302
10871TIP3   OH232555   2.190   1.844   0.198  0.0519  0.1280 -0.6785
10871TIP3    H132556   2.275   1.887   0.207  0.4293 -0.4203 -1.5735
10871TIP3    H232557   2.180   1.794   0.279 -0.2879  1.6718  0.2812
10872TIP3   OH232558   0.415   7.751   5.132 -0.1403  0.2367 -0.3013
10872TIP3    H132559   0.399   7.756   5.226 -1.9644 -0.5184 -0.5272
10872TIP3    H232560   0.508   7.728   5.124 -0.0807 -0.1617  1.3209
10873TIP3   OH232561   3.171   7.207   4.534 -0.3046  0.2418  0.0667
10873TIP3    H132562   3.170   7.222   4.628  0.3976 -0.2613  0.1612
10873TIP3    H232563   3.174   7.112   4.524  1.8809  0.3107 -0.4076
10874TIP3   OH232564   1.320   6.109   4.981 -0.5820  0.1476 -0.2916
10874TIP3    H132565   1.283   6.107   4.893 -0.5486  0.3109 -0.3102
10874TIP3    H232566   1.250   6.147   5.035 -1.0423 -1.0315 -0.0329
10875TIP3   OH232567   3.682   5.942   2.768  0.2761  0.5120  0.3034
10875TIP3    H132568   3.650   6.032   2.766 -0.5749  0.2272  0.3660
10875TIP3    H232569   3.703   5.922   2.677 -0.5176  0.4530  0.1212
10876TIP3   OH232570   0.940   7.343   4.498 -0.5594 -0.0406  0.0044
10876TIP3    H132571   1.006   7.337   4.429 -0.5442  2.4860 -0.2798
10876TIP3    H232572   0.891   7.423   4.478 -1.2017  0.2284  2.3602
10877TIP3   OH232573   7.858   6.573   0.443 -0.2334 -0.0920 -0.0713
10877TIP3    H132574   7.949   6.546   0.433  0.2893  0.8069  1.7908
10877TIP3    H232575   7.841   6.567   0.536 -1.3864  1.8079 -0.0918
10878TIP3   OH232576   6.379   7.224   5.376  0.0960 -0.0867 -0.8506
10878TIP3    H132577   6.353   7.292   5.439 -0.5171 -0.3974 -0.7612
10878TIP3    H232578   6.463   7.255   5.342  0.3900  0.1389  0.0379
10879TIP3   OH232579   3.200   0.275   2.113 -0.8063 -0.1632 -0.0261
10879TIP3    H132580   3.245   0.190   2.103  0.2145  0.3168  0.3626
10879TIP3    H232581   3.215   0.320   2.030  0.4071  0.4359  0.4940
10880TIP3   OH232582   4.275   4.472   1.616 -0.2593  0.1469  0.5600
10880TIP3    H132583   4.229   4.553   1.593  0.5009  0.0893 -1.2635
10880TIP3    H232584   4.205   4.408   1.627 -0.9435  1.1790  2.8704
10881TIP3   OH232585   1.277   5.790   0.340  0.4836  0.1791  0.2861
10881TIP3    H132586   1.326   5.742   0.273  0.4981  0.5340  0.0453
10881TIP3    H232587   1.322   5.874   0.348 -1.2280  1.3370 -1.3577
10882TIP3   OH232588   7.337   0.371   2.191  0.2491  0.3872  0.1115
10882TIP3    H132589   7.321   0.412   2.276  0.3537 -0.0450  0.3443
10882TIP3    H232590   7.318   0.278   2.206 -0.1999  0.3801 -0.4603
10883TIP3   OH232591   6.672   2.824   2.410 -0.4166 -0.1716 -0.2062
10883TIP3    H132592   6.665   2.746   2.464 -0.0848  1.4651  2.3830
10883TIP3    H232593   6.582   2.855   2.400 -0.5304 -0.7569 -1.0860
10884TIP3   OH232594   1.606   5.983   2.757  0.9242  0.0811 -0.4066
10884TIP3    H132595   1.614   6.070   2.795 -0.0143 -0.6336  1.6048
10884TIP3    H232596   1.696   5.955   2.740  1.2583  1.2160 -0.5817
10885TIP3   OH232597   7.798   0.375   1.183  0.2115  0.2746 -0.0460
10885TIP3    H132598   7.852   0.379   1.104 -0.3912 -3.0282 -0.7796
10885TIP3    H232599   7.751   0.458   1.185  1.0069  0.8560 -2.5751
10886TIP3   OH232600   3.565   7.665   5.658 -0.4540  0.7476  0.1774
10886TIP3    H132601   3.513   7.701   5.730 -2.8953 -0.2936 -0.9235
10886TIP3    H232602   3.559   7.732   5.589  1.3025  1.4453  0.6664
10887TIP3   OH232603   5.466   0.219   4.326 -0.4164 -0.1217 -0.1812
10887TIP3    H132604   5.395   0.188   4.270 -0.3871  0.7918 -0.7413
10887TIP3    H232605   5.429   0.222   4.414 -0.4755 -1.5463 -0.1385
10888TIP3   OH232606   0.209   3.380   6.808  0.6136 -0.0736 -0.0492
10888TIP3    H132607   0.177   3.432   6.735 -1.7795 -1.7894 -0.3334
10888TIP3    H232608   0.228   3.294   6.771 -0.7014 -1.0004  1.2785
10889TIP3   OH232609   1.428   6.845   2.106 -0.2314 -0.0493  0.6579
10889TIP3    H132610   1.498   6.798   2.063 -0.3160  0.8755 -0.5435
10889TIP3    H232611   1.466   6.873   2.190 -0.1228 -2.0024  1.2960
10890TIP3   OH232612   6.859   1.214   6.550  0.4992  0.3309  0.3202
10890TIP3    H132613   6.907   1.257   6.479  2.0893 -0.2056  1.0456
10890TIP3    H232614   6.924   1.199   6.618 -0.9919  0.8741  1.9482
10891TIP3   OH232615   4.838   1.735   4.073 -0.5541  0.1504 -0.1828
10891TIP3    H132616   4.765   1.728   4.010 -1.2708 -0.5447  0.6973
10891TIP3    H232617   4.804   1.791   4.143 -0.2113 -0.1064  0.1928
10892TIP3   OH232618   0.994   1.118   4.818  0.1186  0.1879 -0.0258
10892TIP3    H132619   0.924   1.123   4.753 -0.0027 -0.5815  0.0381
10892TIP3    H232620   1.042   1.200   4.807  1.3646 -0.7870 -2.5134
10893TIP3   OH232621   5.763   6.446   4.304 -0.4131  0.0466  0.4373
10893TIP3    H132622   5.713   6.522   4.275 -0.9008 -0.7622 -0.9388
10893TIP3    H232623   5.805   6.413   4.224 -1.3095 -1.9265  0.7185
10894TIP3   OH232624   3.717   3.117   2.915  0.2419  0.5460  0.3727
10894TIP3    H132625   3.639   3.068   2.889  2.3449 -2.1226 -1.3648
10894TIP3    H232626   3.709   3.124   3.010 -2.4629  1.0784  0.1820
10895TIP3   OH232627   7.572   2.460   5.658  0.0913 -0.1454 -0.0034
10895TIP3    H132628   7.593   2.506   5.740 -2.6210  0.1952  0.6101
10895TIP3    H232629   7.588   2.367   5.678  0.7665  0.0586  0.4364
10896TIP3   OH232630   3.092   5.973   0.438 -0.1074  0.6841  0.1850
10896TIP3    H132631   3.167   5.956   0.381 -0.0622  0.0166  0.4286
10896TIP3    H232632   3.080   5.891   0.487 -1.9611  0.1843 -0.9544
10897TIP3   OH232633   1.921   7.342   5.740  0.4798 -0.1912 -0.2008
10897TIP3    H132634   1.840   7.297   5.767  0.2731 -0.8392 -1.8072
10897TIP3    H232635   1.956   7.288   5.669  2.5625 -0.1459  0.7001
10898TIP3   OH232636   5.539   0.461   6.647  0.2301 -0.0165 -0.2503
10898TIP3    H132637   5.529   0.521   6.720 -1.8995 -0.8111  0.2012
10898TIP3    H232638   5.621   0.415   6.664  0.7365  1.1614  0.5866
10899TIP3   OH232639   5.292   3.978   1.067  0.2258 -0.5552 -0.3579
10899TIP3    H132640   5.205   3.968   1.029  0.4853 -2.1721 -0.5801
10899TIP3    H232641   5.329   4.055   1.023 -0.5094 -0.7670 -1.3796
10900TIP3   OH232642   0.057   5.669   0.431 -0.1112  0.7420  0.4027
10900TIP3    H132643   0.033   5.705   0.346  3.6442  1.7872 -0.4009
10900TIP3    H232644   0.067   5.575   0.415  2.5834  1.1463 -1.0649
10901TIP3   OH232645   2.238   5.826   2.195 -0.6180 -0.0436 -0.1761
10901TIP3    H132646   2.144   5.838   2.178 -1.5865 -3.0891  2.0869
10901TIP3    H232647   2.243   5.742   2.241  3.2566  0.0711 -0.1134
10902TIP3   OH232648   3.500   6.003   6.463 -0.3289  0.0764 -0.3827
10902TIP3    H132649   3.444   6.067   6.419 -1.4347 -0.7090 -0.1586
10902TIP3    H232650   3.549   5.962   6.392  0.0191  0.8054 -0.5769
10903TIP3   OH232651   8.037   0.080   4.042 -0.7356  0.8035  0.0346
10903TIP3    H132652   8.083   0.099   3.960  0.5646  0.9652  0.7836
10903TIP3    H232653   7.955   0.040   4.014  1.2436 -2.7179 -1.3225
10904TIP3   OH232654   0.647   0.900   0.352 -0.1485  0.3463  0.3576
10904TIP3    H132655   0.735   0.868   0.372  0.2790  1.0643 -0.3318
10904TIP3    H232656   0.638   0.887   0.258  0.3114  2.8475 -0.0908
10905TIP3   OH232657   1.406   6.991   2.976 -0.1690 -0.5572  0.3090
10905TIP3    H132658   1.393   7.035   3.060  0.9485  0.5193 -0.0556
10905TIP3    H232659   1.493   7.018   2.947 -0.8121 -0.2813 -1.5426
10906TIP3   OH232660   0.160   7.829   5.021  0.1273  0.2672 -0.2564
10906TIP3    H132661   0.246   7.820   5.061  0.2830  1.0315 -0.3996
10906TIP3    H232662   0.163   7.774   4.942 -0.1646 -1.2140  0.7184
10907TIP3   OH232663   7.899   1.017   4.379 -0.3019 -0.4659  0.6981
10907TIP3    H132664   7.878   0.966   4.458  0.9621 -0.4202  1.0936
10907TIP3    H232665   7.825   1.076   4.368 -0.1453  0.0732  2.3229
10908TIP3   OH232666   4.086   7.689   4.739  0.1911 -0.0083 -0.1748
10908TIP3    H132667   4.128   7.606   4.764  0.1289 -0.6806 -2.1601
10908TIP3    H232668   4.005   7.662   4.695  1.2619  0.9583 -2.9332
10909TIP3   OH232669   2.115   4.212   6.242  0.7173 -0.3883  0.6992
10909TIP3    H132670   2.070   4.287   6.279  0.4880  0.3793 -1.0539
10909TIP3    H232671   2.050   4.169   6.186  1.0246 -1.5415  1.2027
10910TIP3   OH232672   7.414   4.801   2.473  0.2460 -0.5878 -0.0095
10910TIP3    H132673   7.413   4.830   2.382 -0.1593  0.8812  0.4394
10910TIP3    H232674   7.446   4.877   2.522 -0.0008 -1.1998  1.1268
10911TIP3   OH232675   1.480   5.006   0.850  0.1254  0.6714 -0.4560
10911TIP3    H132676   1.557   5.019   0.795 -0.6052 -1.5141 -2.1227
10911TIP3    H232677   1.487   4.915   0.880 -1.3686  0.6936  0.0368
10912TIP3   OH232678   6.343   4.221   3.932 -0.6253  0.0182 -0.2425
10912TIP3    H132679   6.412   4.287   3.923 -1.4083  0.9900  0.6138
10912TIP3    H232680   6.292   4.229   3.851 -1.9756  2.0019  0.7321
10913TIP3   OH232681   3.464   5.257   4.714  0.2853  0.5802 -0.3552
10913TIP3    H132682   3.380   5.279   4.674  0.4079 -1.1167 -1.6260
10913TIP3    H232683   3.455   5.166   4.742  0.8681  1.1243  1.8298
10914TIP3   OH232684   2.352   0.288   5.731  0.4190 -0.4713  0.1638
10914TIP3    H132685   2.261   0.313   5.714  0.3359 -1.7964 -1.5071
10914TIP3    H232686   2.395   0.296   5.646  1.5493 -1.1491  0.6606
10915TIP3   OH232687   4.052   5.153   6.378 -0.0280 -0.1241  0.4390
10915TIP3    H132688   3.974   5.098   6.368  0.3545 -0.7811  1.0352
10915TIP3    H232689   4.040   5.222   6.313  0.0026 -1.5183 -1.1260
10916TIP3   OH232690   8.095   2.263   4.541 -0.5962 -0.0240  0.0745
10916TIP3    H132691   8.036   2.222   4.478 -1.2571  0.4177  0.3985
10916TIP3    H232692   8.088   2.357   4.523 -0.7791  0.1010  0.8055
10917TIP3   OH232693   3.360   2.965   0.365  0.4725  0.3144  0.0810
10917TIP3    H132694   3.346   3.005   0.450 -2.6857  3.4957 -1.6476
10917TIP3    H232695   3.426   3.020   0.323  1.1941 -0.5606  0.0444
10918TIP3   OH232696   1.778   6.826   3.101 -0.4872 -0.7911 -0.4152
10918TIP3    H132697   1.702   6.871   3.063  0.7235  1.5150 -0.2471
10918TIP3    H232698   1.772   6.843   3.195  0.5987  0.0698 -0.4808
10919TIP3   OH232699   6.919   4.811   5.034  0.3058  0.5133  0.3556
10919TIP3    H132700   6.957   4.726   5.010 -1.2332 -0.1299  0.1380
10919TIP3    H232701   6.896   4.802   5.126  0.3397  0.7874  0.3929
10920TIP3   OH232702   1.359   0.165   5.158 -0.2662  0.4663  0.1240
10920TIP3    H132703   1.323   0.218   5.087 -0.7133  0.5625  0.4172
10920TIP3    H232704   1.403   0.228   5.215  1.2741  0.2326 -0.7595
10921TIP3   OH232705   5.676   1.687   3.672 -0.4163  0.2853 -0.1614
10921TIP3    H132706   5.655   1.749   3.741 -1.1134 -0.0288 -0.0795
10921TIP3    H232707   5.735   1.624   3.713 -0.5859  0.2710  0.0605
10922TIP3   OH232708   7.878   7.206   5.813  0.1518  0.4130  0.1253
10922TIP3    H132709   7.788   7.190   5.843  0.6136 -0.8619  0.8712
10922TIP3    H232710   7.869   7.275   5.747 -1.1776  1.5697  1.4425
10923TIP3   OH232711   6.270   0.841   1.946  0.9200 -0.1324 -0.0423
10923TIP3    H132712   6.310   0.788   1.877 -0.7338  0.7055 -1.7406
10923TIP3    H232713   6.284   0.931   1.919  1.3707  0.2706  1.4340
10924TIP3   OH232714   0.409   2.582   0.394  0.1870  0.0580  0.3551
10924TIP3    H132715   0.364   2.636   0.330  1.0691  0.5301  0.1130
10924TIP3    H232716   0.340   2.534   0.439 -0.5989  1.2540  0.4450
10925TIP3   OH232717   1.109   2.812   5.040  0.3796 -0.3345  0.0221
10925TIP3    H132718   1.118   2.768   5.124 -1.3380 -2.5007 -0.8081
10925TIP3    H232719   1.086   2.742   4.979 -1.1902  1.5399 -1.6825
10926TIP3   OH232720   4.293   6.149   6.734 -1.0216  0.5512 -0.0925
10926TIP3    H132721   4.267   6.162   6.643  0.0334  0.1275 -0.4744
10926TIP3    H232722   4.384   6.121   6.729 -1.8392 -2.6996  0.8833
10927TIP3   OH232723   2.976   5.156   5.657  0.4016  0.7240 -0.0221
10927TIP3    H132724   2.972   5.061   5.670  3.4476  0.2935 -1.4846
10927TIP3    H232725   2.902   5.175   5.599  0.2547 -0.8953 -0.4205
10928TIP3   OH232726   1.479   1.764   1.846  0.4605  0.1974 -0.2578
10928TIP3    H132727   1.477   1.672   1.821 -2.2753  0.8955 -3.2267
10928TIP3    H232728   1.446   1.766   1.936  0.9572 -1.7053 -0.0004
10929TIP3   OH232729   2.698   2.305   6.267  0.3834  0.2164 -0.1399
10929TIP3    H132730   2.615   2.258   6.278  0.3856  0.2094 -0.1517
10929TIP3    H232731   2.738   2.265   6.190 -0.5675  1.5672 -1.4017
10930TIP3   OH232732   4.619   2.637   0.651  0.2638 -0.0402  0.4145
10930TIP3    H132733   4.531   2.616   0.682 -0.5249 -0.3396 -1.8783
10930TIP3    H232734   4.654   2.554   0.620  0.7073  0.3850 -0.2443
10931TIP3   OH232735   5.177   3.217   5.513 -0.3724 -0.0356 -0.6480
10931TIP3    H132736   5.119   3.238   5.587 -1.1723 -1.7142 -0.7352
10931TIP3    H232737   5.227   3.296   5.498  0.2807  0.1848  2.1401
10932TIP3   OH232738   5.224   4.661   2.821 -0.1592 -0.2863 -0.1343
10932TIP3    H132739   5.171   4.665   2.741 -0.4586  1.0589  0.1104
10932TIP3    H232740   5.245   4.752   2.840  1.2198 -0.7051  0.4684
10933TIP3   OH232741   7.084   0.451   6.134 -0.2657  0.5558  0.2405
10933TIP3    H132742   7.093   0.538   6.173  0.9485  0.4678  0.1949
10933TIP3    H232743   7.168   0.435   6.090 -0.1261 -0.9951  0.9959
10934TIP3   OH232744   0.412   4.183   0.685 -0.6240  0.1707 -0.2288
10934TIP3    H132745   0.435   4.209   0.775  0.3473 -1.5169  0.0461
10934TIP3    H232746   0.481   4.221   0.631  0.4091 -1.1697  0.0958
10935TIP3   OH232747   5.047   6.151   2.181 -0.4063  0.6299  0.3355
10935TIP3    H132748   5.032   6.100   2.101  1.5565  1.9417 -0.9663
10935TIP3    H232749   5.008   6.099   2.250  0.1802 -1.9172 -1.1225
10936TIP3   OH232750   1.873   7.614   1.105 -0.4151  0.2216  0.0799
10936TIP3    H132751   1.883   7.543   1.168 -1.6678 -1.3879 -1.4440
10936TIP3    H232752   1.947   7.603   1.045  1.0336  2.0222  1.4128
10937TIP3   OH232753   6.428   4.039   2.643  0.4197  0.5607  0.0919
10937TIP3    H132754   6.441   4.132   2.626  1.4826  0.3589 -0.2993
10937TIP3    H232755   6.353   4.035   2.702 -0.5750  1.5742 -1.0409
10938TIP3   OH232756   3.528   1.089   6.715 -0.3582  0.2152  0.3221
10938TIP3    H132757   3.611   1.128   6.742  0.7884 -2.0369  0.2846
10938TIP3    H232758   3.461   1.141   6.760  0.9926  2.4040 -0.0346
10939TIP3   OH232759   1.923   0.332   1.802  0.2827 -0.7531 -0.8377
10939TIP3    H132760   1.919   0.261   1.867  0.5804 -1.9180 -2.0403
10939TIP3    H232761   1.846   0.386   1.821  1.7830  0.5435  2.1943
10940TIP3   OH232762   5.082   4.328   5.906 -0.5448  0.4737  0.5548
10940TIP3    H132763   5.057   4.246   5.863 -3.0876 -0.0156  2.7703
10940TIP3    H232764   5.153   4.303   5.965 -0.4341  0.1510  0.2898
10941TIP3   OH232765   4.704   4.674   5.821  0.2763 -0.6916  1.0257
10941TIP3    H132766   4.634   4.651   5.883 -1.0659  0.8593  0.1679
10941TIP3    H232767   4.755   4.741   5.867 -2.5753  2.8782 -0.4231
10942TIP3   OH232768   3.267   1.742   4.681  0.2640  0.1215  0.5680
10942TIP3    H132769   3.265   1.650   4.652  0.9696  0.3324 -0.1765
10942TIP3    H232770   3.302   1.790   4.606 -2.5549  1.3827 -0.0910
10943TIP3   OH232771   2.464   5.431   2.882  0.4065  0.3995 -0.0585
10943TIP3    H132772   2.528   5.425   2.953  1.3535  0.9629 -0.8457
10943TIP3    H232773   2.383   5.395   2.920  0.8042  0.9594  1.3898
10944TIP3   OH232774   6.247   6.655   6.225 -0.0481 -1.0919 -0.4643
10944TIP3    H132775   6.218   6.578   6.273 -2.9366  1.5148  2.4324
10944TIP3    H232776   6.189   6.659   6.149 -0.1264 -1.5721 -0.4303
10945TIP3   OH232777   2.425   4.744   5.575  0.7941  0.0843 -0.1661
10945TIP3    H132778   2.429   4.649   5.583 -1.1843  0.0578  1.2022
10945TIP3    H232779   2.515   4.770   5.553  1.0614 -2.1934 -2.2445
10946TIP3   OH232780   6.603   1.940   4.761  0.4016  0.1503  0.1079
10946TIP3    H132781   6.640   1.972   4.843  0.8138 -0.5634  0.2092
10946TIP3    H232782   6.559   2.016   4.723 -1.2343  0.1119  1.7794
10947TIP3   OH232783   4.328   4.919   2.437  0.0335 -0.5980  0.6990
10947TIP3    H132784   4.390   4.852   2.408 -0.0810 -0.0454 -0.9344
10947TIP3    H232785   4.250   4.905   2.384 -0.8541 -0.5775  1.9464
10948TIP3   OH232786   6.315   5.692   2.614  0.6689 -0.1259 -0.0707
10948TIP3    H132787   6.221   5.708   2.607  1.0155  1.4796 -2.4003
10948TIP3    H232788   6.342   5.738   2.693 -0.4556 -0.3902  0.4853
10949TIP3   OH232789   2.503   1.366   1.143  0.3223 -0.0901 -0.4648
10949TIP3    H132790   2.525   1.276   1.120  0.1975 -0.0183 -0.8785
10949TIP3    H232791   2.581   1.400   1.186  0.3449 -0.4166 -0.2424
10950TIP3   OH232792   1.197   3.082   6.240 -0.2795  0.3486 -0.1186
10950TIP3    H132793   1.195   3.079   6.144 -0.8328 -0.8699 -0.0814
10950TIP3    H232794   1.123   3.137   6.264 -0.5149  0.1449 -0.3739
10951TIP3   OH232795   3.352   3.612   2.009 -0.2173  0.4193  0.5479
10951TIP3    H132796   3.328   3.687   2.063  1.5742  1.3910  0.0871
10951TIP3    H232797   3.317   3.537   2.055  0.5779  1.2756  2.6748
10952TIP3   OH232798   1.121   4.954   5.170  0.5576 -0.2243 -0.0363
10952TIP3    H132799   1.145   5.039   5.135  0.4870  0.7372  2.0959
10952TIP3    H232800   1.025   4.955   5.173  0.5837  0.0832  1.0086
10953TIP3   OH232801   7.966   5.386   2.352 -0.2810  0.4923  0.2091
10953TIP3    H132802   8.037   5.353   2.407 -0.1732 -0.9663 -0.7436
10953TIP3    H232803   7.995   5.369   2.263 -1.7466  0.0016 -0.2068
10954TIP3   OH232804   1.595   2.208   4.405 -0.1727  0.0926  0.7427
10954TIP3    H132805   1.678   2.256   4.397 -0.0781  0.6617  3.7539
10954TIP3    H232806   1.603   2.135   4.345  2.1250  0.6780  0.2488
10955TIP3   OH232807   1.241   4.038   5.382 -0.2169  0.2070 -0.9894
10955TIP3    H132808   1.162   4.000   5.344 -0.3203  0.6687 -1.2478
10955TIP3    H232809   1.221   4.131   5.392  0.0590  0.2103 -0.4418
10956TIP3   OH232810   7.406   0.880   6.432 -0.5270  0.2744 -0.0063
10956TIP3    H132811   7.421   0.904   6.340 -0.2753  1.0066  0.2149
10956TIP3    H232812   7.374   0.961   6.473 -2.6915 -0.5933  0.1085
10957TIP3   OH232813   3.422   5.373   3.788 -0.0253 -0.7760  0.8217
10957TIP3    H132814   3.390   5.385   3.877  0.5494  2.9527  0.7117
10957TIP3    H232815   3.394   5.453   3.742  0.7768 -1.9880 -2.0091
10958TIP3   OH232816   3.013   4.232   2.816  0.2698 -0.8691  0.0422
10958TIP3    H132817   3.021   4.137   2.810 -0.5298 -0.8415 -2.2830
10958TIP3    H232818   2.944   4.254   2.753 -0.4006  1.1527  1.4032
10959TIP3   OH232819   1.806   5.082   3.033 -0.2032  0.3242  0.0904
10959TIP3    H132820   1.875   5.149   3.040  0.0979  0.3628 -2.3513
10959TIP3    H232821   1.727   5.126   3.065  0.4781  1.0000  0.8994
10960TIP3   OH232822   3.943   4.134   3.007  0.5196  0.5775  0.1500
10960TIP3    H132823   3.919   4.041   3.007  1.5293  0.2971 -0.9139
10960TIP3    H232824   3.970   4.152   3.097 -0.9986  0.2166  0.7193
10961TIP3   OH232825   3.260   5.677   3.184 -0.3782  0.3048 -0.4925
10961TIP3    H132826   3.333   5.715   3.135 -0.4154  1.1549  0.0830
10961TIP3    H232827   3.298   5.651   3.268 -0.5478 -0.0841 -0.5359
10962TIP3   OH232828   7.413   3.775   0.435 -0.5293  0.2810  0.2029
10962TIP3    H132829   7.501   3.739   0.435 -0.5626  0.1807 -0.9375
10962TIP3    H232830   7.409   3.830   0.357 -1.9643 -0.9397 -0.6440
10963TIP3   OH232831   6.483   5.631   5.508  0.5293  0.1239  0.0607
10963TIP3    H132832   6.452   5.669   5.590 -0.5440 -0.6248  0.0110
10963TIP3    H232833   6.572   5.601   5.528  1.1363  1.9167  0.3127
10964TIP3   OH232834   6.276   1.385   4.053  0.0675 -0.3057 -0.9237
10964TIP3    H132835   6.321   1.305   4.025  0.7447 -0.2479 -0.0374
10964TIP3    H232836   6.183   1.360   4.058  0.3054 -1.1253 -0.3741
10965TIP3   OH232837   2.914   4.243   3.736  0.4589  0.0123 -0.6033
10965TIP3    H132838   2.884   4.319   3.785  0.2570  1.2374 -2.4893
10965TIP3    H232839   2.894   4.168   3.791 -0.0124  1.2770  1.0036
10966TIP3   OH232840   7.418   7.097   1.354 -0.3331 -0.3231  0.4146
10966TIP3    H132841   7.444   7.111   1.263 -2.7270  2.5334  0.0175
10966TIP3    H232842   7.471   7.158   1.405 -0.2991 -0.6137  0.7399
10967TIP3   OH232843   2.584   3.766   2.693 -0.0424  0.1242  0.6176
10967TIP3    H132844   2.519   3.696   2.684 -0.4506  0.4625  0.9079
10967TIP3    H232845   2.581   3.790   2.785 -0.5960  1.1770  0.3423
10968TIP3   OH232846   4.461   2.407   2.008 -0.0344  0.1727  0.0370
10968TIP3    H132847   4.509   2.422   2.089 -1.5440 -2.0128  1.4356
10968TIP3    H232848   4.520   2.353   1.955 -0.5437 -1.8452  1.4263
10969TIP3   OH232849   5.997   7.323   0.676 -0.0240  0.0898  0.2259
10969TIP3    H132850   5.973   7.270   0.752  2.9976 -0.0512  1.2042
10969TIP3    H232851   6.035   7.261   0.614 -0.6505  0.4973 -0.5918
10970TIP3   OH232852   4.126   4.862   5.495  0.3697 -0.4040  0.0917
10970TIP3    H132853   4.154   4.884   5.584 -0.1873 -1.5948  0.5820
10970TIP3    H232854   4.205   4.873   5.441  0.9179 -0.4493  0.8710
10971TIP3   OH232855   6.623   2.289   3.522 -0.4642  0.2360 -0.0276
10971TIP3    H132856   6.702   2.316   3.476 -1.7017  1.8692 -1.3547
10971TIP3    H232857   6.554   2.344   3.485 -1.6685  1.4746  3.6008
10972TIP3   OH232858   8.130   0.780   4.694 -0.2559 -0.1785  0.5076
10972TIP3    H132859   8.193   0.713   4.670 -0.7707 -0.5187  0.0780
10972TIP3    H232860   8.045   0.746   4.665 -0.6906  0.1217  1.3610
10973TIP3   OH232861   6.122   6.800   5.370  0.1064 -0.2820 -0.1509
10973TIP3    H132862   6.205   6.799   5.321  2.4447 -0.2911  3.4522
10973TIP3    H232863   6.085   6.713   5.357  3.2901 -2.1699  1.9799
10974TIP3   OH232864   5.381   0.438   5.263  0.2779  0.0125  0.2512
10974TIP3    H132865   5.410   0.528   5.278  0.3223 -0.2239  1.7241
10974TIP3    H232866   5.296   0.432   5.306  1.0033 -1.0730  1.6341
10975TIP3   OH232867   7.983   0.381   2.191 -0.0028 -0.0979  0.1403
10975TIP3    H132868   7.930   0.449   2.149  0.9823  0.4666 -0.2391
10975TIP3    H232869   8.009   0.322   2.120  2.0594  1.1225 -0.2237
10976TIP3   OH232870   0.979   0.748   4.910 -0.2116 -0.4442  0.0504
10976TIP3    H132871   0.901   0.775   4.863 -0.3288 -1.3098 -0.2670
10976TIP3    H232872   1.001   0.823   4.966  0.4938  1.0146 -2.0723
10977TIP3   OH232873   3.484   5.543   4.681  0.2592 -0.4123  0.0096
10977TIP3    H132874   3.491   5.449   4.701 -0.5263 -0.2607  1.0781
10977TIP3    H232875   3.561   5.582   4.723 -0.1261 -0.4177  0.7492
10978TIP3   OH232876   7.985   7.750   0.729 -0.2404  0.1166  0.3309
10978TIP3    H132877   7.955   7.819   0.671 -0.5788  0.0762  0.4541
10978TIP3    H232878   7.977   7.670   0.677  1.2377  0.2953 -0.2060
10979TIP3   OH232879   6.316   7.517   1.749  0.0565  0.2580  0.2850
10979TIP3    H132880   6.352   7.428   1.747  1.1821  0.6969 -1.3953
10979TIP3    H232881   6.345   7.552   1.833  3.2531  0.3886 -0.7338
10980TIP3   OH232882   5.709   3.436   0.695 -0.1600  0.1745 -0.4603
10980TIP3    H132883   5.649   3.448   0.622 -0.5761 -1.5787 -0.4618
10980TIP3    H232884   5.694   3.346   0.724 -2.5326  1.7204  4.0507
10981TIP3   OH232885   7.182   5.703   2.654 -0.0446  0.3955 -0.1173
10981TIP3    H132886   7.268   5.705   2.696  0.0547  0.4923 -0.3247
10981TIP3    H232887   7.140   5.624   2.689 -0.1180  0.6886  0.4671
10982TIP3   OH232888   4.373   3.625   1.075 -0.1449  0.1846  0.5590
10982TIP3    H132889   4.412   3.664   0.997 -1.1926 -0.7253 -0.4659
10982TIP3    H232890   4.440   3.564   1.107  0.2912  0.5606  0.3770
10983TIP3   OH232891   7.609   2.281   3.821 -0.0453 -0.0355  0.6347
10983TIP3    H132892   7.645   2.247   3.739 -1.5438  0.0239 -0.0749
10983TIP3    H232893   7.518   2.252   3.822 -0.5986  1.6140  1.3330
10984TIP3   OH232894   6.600   0.702   1.462 -0.2543  0.2793  0.0701
10984TIP3    H132895   6.516   0.704   1.416  0.7806 -0.5015 -1.9614
10984TIP3    H232896   6.626   0.610   1.459  0.3880  0.4063  1.2607
10985TIP3   OH232897   2.819   3.203   6.582  0.1190  0.0526 -0.0518
10985TIP3    H132898   2.803   3.181   6.490 -3.9935 -1.8321  0.8607
10985TIP3    H232899   2.819   3.298   6.584 -0.2139  0.1444 -1.9494
10986TIP3   OH232900   5.218   2.765   6.331 -0.1125 -0.1930  0.4758
10986TIP3    H132901   5.126   2.789   6.342  0.2406  3.3224 -2.4762
10986TIP3    H232902   5.268   2.842   6.357  2.0183 -1.6307  0.9865
10987TIP3   OH232903   7.100   0.304   3.551  0.7872  0.2898 -0.4599
10987TIP3    H132904   7.060   0.227   3.591  0.7376  0.4969 -0.1151
10987TIP3    H232905   7.167   0.332   3.613  0.3049  0.9694 -0.2366
10988TIP3   OH232906   6.467   0.056   5.113 -0.4943  0.1811 -0.2173
10988TIP3    H132907   6.495   0.106   5.189 -1.4820  0.3616  0.0498
10988TIP3    H232908   6.436  -0.027   5.150  1.9736 -1.0447 -0.7349
10989TIP3   OH232909   3.013   0.955   2.584 -0.1951  0.1559  0.0128
10989TIP3    H132910   3.071   0.954   2.660 -0.1923 -1.7896  0.0304
10989TIP3    H232911   3.022   1.043   2.548  2.0519  0.1911  0.5540
10990TIP3   OH232912   4.758   3.843   5.944 -0.2670  0.4108  0.1441
10990TIP3    H132913   4.769   3.780   5.872  2.4815  1.2018 -0.2663
10990TIP3    H232914   4.687   3.900   5.916 -0.5480 -0.4748 -1.0328
10991TIP3   OH232915   1.323   4.568   5.521 -0.1158  0.6462  0.2525
10991TIP3    H132916   1.306   4.516   5.442  0.4431  0.2846  0.3667
10991TIP3    H232917   1.322   4.659   5.490 -2.3824  0.6724  0.2773
10992TIP3   OH232918   2.520   5.919   1.546  0.5604  0.3734  0.0333
10992TIP3    H132919   2.517   6.008   1.512 -0.1283  0.0217 -0.8503
10992TIP3    H232920   2.447   5.914   1.607  0.9706  0.5881  0.5532
10993TIP3   OH232921   6.788   4.990   4.065 -0.5443 -0.1263  0.2590
10993TIP3    H132922   6.805   5.083   4.052 -1.4109 -0.1490 -1.2294
10993TIP3    H232923   6.694   4.981   4.052 -0.6717 -1.0327  1.6432
10994TIP3   OH232924   6.839   5.089   5.684 -0.0731  0.0261 -0.3182
10994TIP3    H132925   6.760   5.113   5.635 -1.2566 -0.5640  1.2363
10994TIP3    H232926   6.823   5.120   5.773  0.0822 -2.7598  0.7871
10995TIP3   OH232927   0.979   3.729   0.394 -0.5487  0.5903 -0.4627
10995TIP3    H132928   1.058   3.780   0.406  0.1945 -0.9226  1.5963
10995TIP3    H232929   0.908   3.792   0.400  0.4270  1.7717 -0.9748
10996TIP3   OH232930   5.313   5.983   0.191  0.2878  0.3858 -0.4470
10996TIP3    H132931   5.238   6.042   0.198  1.6599  2.0756  1.0113
10996TIP3    H232932   5.375   6.030   0.135  0.8285 -0.3385 -0.4742
10997TIP3   OH232933   8.015   2.728   1.901 -0.4209  0.3364 -0.1867
10997TIP3    H132934   7.951   2.703   1.835  0.1312  1.8372 -1.3595
10997TIP3    H232935   8.063   2.801   1.862  0.8664  0.3763  1.3313
10998TIP3   OH232936   5.705   5.996   5.573  0.2722 -0.1777  0.1776
10998TIP3    H132937   5.747   5.931   5.516 -1.1906 -0.7991 -0.2490
10998TIP3    H232938   5.699   6.075   5.519  0.3864 -0.2541  0.0524
10999TIP3   OH232939   1.166   2.835   3.743 -0.9594  0.4527  0.5886
10999TIP3    H132940   1.152   2.792   3.659 -0.5094  0.8068  0.3222
10999TIP3    H232941   1.184   2.764   3.804  3.7005  0.2892 -0.5922
11000TIP3   OH232942   2.712   0.943   6.739 -0.1661  1.0930 -0.5694
11000TIP3    H132943   2.633   0.983   6.705 -0.9446  0.3861  0.3388
11000TIP3    H232944   2.713   0.966   6.832  0.5523  0.8735 -0.5093
11001TIP3   OH232945   3.822   2.049   3.600 -0.2314  0.4444 -0.0832
11001TIP3    H132946   3.845   2.058   3.508  0.2718 -1.7865 -0.2344
11001TIP3    H232947   3.827   2.138   3.635  1.5967  1.0645 -1.7375
11002TIP3   OH232948   0.054   5.820   2.777 -0.1785  0.5174 -0.1371
11002TIP3    H132949  -0.021   5.765   2.756  0.3104  0.0673 -0.7295
11002TIP3    H232950   0.028   5.867   2.856 -0.7562 -0.2591  0.1396
11003TIP3   OH232951   4.985   0.389   5.908  0.0429 -0.1336  0.3114
11003TIP3    H132952   5.059   0.445   5.931  0.5098 -0.2393 -0.8523
11003TIP3    H232953   4.915   0.415   5.969 -0.1154  2.4823 -0.8457
11004TIP3   OH232954   1.951   1.033   1.098 -0.1852  0.4617  0.2091
11004TIP3    H132955   1.985   0.959   1.048  0.9362  1.5158 -0.6620
11004TIP3    H232956   1.914   1.092   1.031  0.6091  1.5168  0.6553
11005TIP3   OH232957   0.728   5.783   3.468  0.3904 -0.3594 -0.5433
11005TIP3    H132958   0.816   5.749   3.484  0.5395  0.3427  0.2178
11005TIP3    H232959   0.732   5.818   3.379  1.8207  2.2996  0.4275
11006TIP3   OH232960   3.571   0.597   6.405 -0.2609  0.3778 -0.6522
11006TIP3    H132961   3.584   0.658   6.332  0.4402  1.9315  0.7150
11006TIP3    H232962   3.631   0.525   6.387 -0.1013  0.7285 -1.6037
11007TIP3   OH232963   3.885   6.304   3.770 -0.3496 -0.2940  0.1503
11007TIP3    H132964   3.866   6.232   3.710 -0.4885  0.5686 -0.8703
11007TIP3    H232965   3.826   6.374   3.743 -1.5187 -0.3788  2.2956
11008TIP3   OH232966   3.420   2.725   1.742 -0.2766  0.3690 -0.1192
11008TIP3    H132967   3.499   2.682   1.774  0.4849  0.4375 -1.8114
11008TIP3    H232968   3.392   2.781   1.815 -0.1356 -1.4090  1.3787
11009TIP3   OH232969   6.511   6.319   3.682 -0.1059  0.5616 -0.2765
11009TIP3    H132970   6.449   6.317   3.755  0.1550  0.7017 -0.0505
11009TIP3    H232971   6.545   6.408   3.682  0.9359  0.1847  0.3098
11010TIP3   OH232972   6.171   4.828   3.931  0.1585  0.2406 -0.1395
11010TIP3    H132973   6.176   4.736   3.906 -2.0210 -0.1873  0.7972
11010TIP3    H232974   6.246   4.841   3.990  0.0965 -1.1057  0.2568
11011TIP3   OH232975   4.676   0.512   1.744 -0.4390  0.1019 -0.0816
11011TIP3    H132976   4.617   0.447   1.783  0.2218  0.3056  1.3387
11011TIP3    H232977   4.638   0.596   1.766 -0.1205  0.2187  0.0368
11012TIP3   OH232978   3.906   1.854   2.878 -0.1615  0.2905 -0.0024
11012TIP3    H132979   3.943   1.940   2.859 -0.5144  0.3619 -0.3869
11012TIP3    H232980   3.858   1.830   2.798 -1.0475  0.2556  0.5178
11013TIP3   OH232981   7.153   6.945   4.957 -0.1762  0.2843 -0.3855
11013TIP3    H132982   7.229   6.915   4.908 -0.6888  0.7325 -1.4779
11013TIP3    H232983   7.098   6.868   4.965  0.6741 -0.2192  1.0122
11014TIP3   OH232984   3.179   0.804   0.039  0.0237 -0.3028 -0.4035
11014TIP3    H132985   3.137   0.719   0.028  0.9514 -0.5718 -2.3888
11014TIP3    H232986   3.110   0.868   0.018 -1.0136 -0.4511  2.2629
11015TIP3   OH232987   3.813   2.430   4.134 -0.2555 -0.1549  0.1311
11015TIP3    H132988   3.781   2.361   4.076  1.4783 -0.0345 -1.0278
11015TIP3    H232989   3.760   2.421   4.213 -1.4264 -1.5075 -0.7634
11016TIP3   OH232990   4.604   5.890   3.901 -0.0751  0.6554 -0.3979
11016TIP3    H132991   4.691   5.895   3.860 -0.4265  0.2577 -1.2136
11016TIP3    H232992   4.559   5.969   3.871 -0.4193  0.2400 -0.9889
11017TIP3   OH232993   2.925   2.042   3.206  0.3642 -0.5482  0.3710
11017TIP3    H132994   2.834   2.069   3.215  0.6161  1.6350 -2.2281
11017TIP3    H232995   2.925   1.979   3.134  0.9371 -0.2486  0.1016
11018TIP3   OH232996   0.060   6.441   5.625  0.2668 -0.3140 -0.1227
11018TIP3    H132997   0.034   6.525   5.585  1.0005 -0.5088 -1.0545
11018TIP3    H232998   0.123   6.465   5.693  0.9250 -0.1285 -0.7792
11019TIP3   OH232999   0.742   6.485   4.575 -0.1019 -0.3303  0.1889
11019TIP3    H133000   0.834   6.466   4.595  0.4561  2.0056  0.2492
11019TIP3    H233001   0.710   6.533   4.651 -1.3197 -0.9004  0.0636
11020TIP3   OH233002   2.987   2.498   3.405  0.0436  0.3398  0.2479
11020TIP3    H133003   3.079   2.525   3.412  1.1990 -3.2259  1.3075
11020TIP3    H233004   2.949   2.519   3.490  0.5311 -0.1339  0.5915
11021TIP3   OH233005   5.937   7.465   4.422  0.5980 -0.4867 -0.4584
11021TIP3    H133006   5.887   7.400   4.374 -0.5271  0.5685 -0.7617
11021TIP3    H233007   5.897   7.549   4.398  1.0388  0.1941  1.0887
11022TIP3   OH233008   7.208   0.061   5.311  0.6823  0.1326 -0.4748
11022TIP3    H133009   7.174   0.004   5.242  1.7537  2.0191 -2.6952
11022TIP3    H233010   7.301   0.039   5.317  0.5319 -0.2796  0.7074
11023TIP3   OH233011   4.741   3.591   1.530  0.6837 -0.2729  0.0609
11023TIP3    H133012   4.703   3.654   1.592 -1.5255 -2.4252  1.0768
11023TIP3    H233013   4.779   3.523   1.585  2.0538 -0.4011 -1.0032
11024TIP3   OH233014   7.710   4.345   1.271 -0.0324 -0.0180  0.4267
11024TIP3    H133015   7.702   4.286   1.196  0.3523 -0.7275  0.9332
11024TIP3    H233016   7.768   4.299   1.332  0.5108  1.0124  0.7138
11025TIP3   OH233017   4.869   6.900   4.836 -0.1143 -0.0957 -0.2937
11025TIP3    H133018   4.790   6.891   4.783 -0.4691 -0.0087  0.2035
11025TIP3    H233019   4.864   6.829   4.899 -0.1531  0.3148  0.1780
11026TIP3   OH233020   3.364   1.107   4.253  0.1900  0.2345 -0.1534
11026TIP3    H133021   3.330   1.180   4.305 -0.0871  0.1127 -0.1617
11026TIP3    H233022   3.358   1.032   4.312 -1.3820 -0.1837 -0.7811
11027TIP3   OH233023   8.109   6.219   4.544 -0.2516 -0.3566 -0.3612
11027TIP3    H133024   8.062   6.200   4.463 -0.1848 -1.1581 -0.2196
11027TIP3    H233025   8.076   6.305   4.571 -1.3264 -0.7113 -0.4895
11028TIP3   OH233026   0.488   6.232   2.499  0.3078 -0.0431 -0.6882
11028TIP3    H133027   0.493   6.143   2.464 -1.2502 -0.3690 -0.1796
11028TIP3    H233028   0.576   6.251   2.530  0.0591 -2.5888  2.0209
11029TIP3   OH233029   5.806   7.350   1.405  0.5764 -0.4724  0.5079
11029TIP3    H133030   5.816   7.331   1.312 -0.1390 -0.0284  0.3297
11029TIP3    H233031   5.778   7.268   1.444 -1.0747 -0.1902 -0.0093
11030TIP3   OH233032   7.732   4.036   4.028 -0.0887  0.5249 -0.4098
11030TIP3    H133033   7.722   4.087   3.948 -0.8053  0.7615 -0.1753
11030TIP3    H233034   7.738   4.101   4.098 -0.5157  0.2955 -0.1590
11031TIP3   OH233035   7.885   6.373   2.545  0.0054  0.7600 -0.1886
11031TIP3    H133036   7.921   6.371   2.634 -1.1125 -2.1219  0.3054
11031TIP3    H233037   7.951   6.328   2.492 -0.5327  0.0578 -0.2709
11032TIP3   OH233038   6.346   1.653   6.718  0.1526 -0.2391  0.0039
11032TIP3    H133039   6.263   1.700   6.721  0.1177 -0.2981 -0.0252
11032TIP3    H233040   6.383   1.664   6.806 -0.0044 -0.4236  0.0949
11033TIP3   OH233041   6.485   0.946   6.635 -0.0340  0.3218 -0.0137
11033TIP3    H133042   6.536   1.023   6.609 -0.2597  0.6707  0.5512
11033TIP3    H233043   6.550   0.878   6.650  0.2519  0.6933  0.4625
11034TIP3   OH233044   4.950   7.584   3.730 -0.2587 -0.3668  0.2735
11034TIP3    H133045   4.991   7.499   3.740  0.6310  0.1665  1.4446
11034TIP3    H233046   4.976   7.614   3.643 -0.1839 -1.0642  0.0513
11035TIP3   OH233047   3.767   0.594   2.636  0.2276  0.5396  0.9785
11035TIP3    H133048   3.710   0.528   2.675  0.3705 -0.3156 -0.2033
11035TIP3    H233049   3.726   0.616   2.552  1.4009  0.1925  0.2838
11036TIP3   OH233050   3.419   6.453   2.040  0.1983 -0.1563  0.0679
11036TIP3    H133051   3.512   6.445   2.020  0.1526 -0.2505 -0.1159
11036TIP3    H233052   3.409   6.410   2.125  0.6958  1.7720  1.1688
11037TIP3   OH233053   6.681   0.774   6.635 -0.0391  0.1705  0.0401
11037TIP3    H133054   6.771   0.786   6.606 -0.6528  1.5031 -1.4353
11037TIP3    H233055   6.676   0.681   6.660  1.5086 -0.1210 -0.6392
11038TIP3   OH233056   1.879  -0.006   5.376  0.0880  0.3746 -0.3536
11038TIP3    H133057   1.792   0.014   5.412  0.0790 -1.6193  0.8554
11038TIP3    H233058   1.872   0.017   5.284 -1.1598  1.8894  0.0644
11039TIP3   OH233059   2.078   2.528   6.358 -0.0015  0.2768  0.3548
11039TIP3    H133060   2.119   2.511   6.443 -2.6794 -2.4452  1.3129
11039TIP3    H233061   2.143   2.501   6.293  0.8753 -0.9114  1.6685
11040TIP3   OH233062   7.969   2.598   6.712 -0.3787  0.5296 -0.0769
11040TIP3    H133063   8.058   2.602   6.675 -0.2321  0.9894  0.3144
11040TIP3    H233064   7.930   2.520   6.673 -0.0529  0.7338 -0.8188
11041TIP3   OH233065   2.612   3.477   4.759 -0.3307 -0.0533  1.4315
11041TIP3    H133066   2.650   3.389   4.752 -0.3024 -0.3968  4.4855
11041TIP3    H233067   2.536   3.475   4.702  0.7354 -1.4104 -0.0289
11042TIP3   OH233068   4.684   4.678   4.549  0.3607  0.1625  0.1674
11042TIP3    H133069   4.769   4.635   4.559 -0.1708 -0.9873 -0.0535
11042TIP3    H233070   4.626   4.629   4.607 -0.3954  0.2065 -0.5321
11043TIP3   OH233071   6.685   1.944   0.048 -0.1452  0.0923  0.2893
11043TIP3    H133072   6.636   1.889   0.109  0.6586  0.9341  1.7243
11043TIP3    H233073   6.646   2.031   0.058  0.6163  0.4349  0.3009
11044TIP3   OH233074   6.532   1.928   0.715  0.6488 -0.8554 -0.4662
11044TIP3    H133075   6.613   1.881   0.695  1.0282 -0.5230  0.2505
11044TIP3    H233076   6.463   1.875   0.674  1.2478 -0.9934 -1.3210
11045TIP3   OH233077   1.359   2.666   4.275 -0.8043  0.2209  0.0780
11045TIP3    H133078   1.402   2.581   4.284 -1.1525 -0.0430 -0.6292
11045TIP3    H233079   1.426   2.730   4.299  0.5309 -0.0906 -2.4274
11046TIP3   OH233080   3.033   4.566   4.683  0.1635  0.1620 -0.0565
11046TIP3    H133081   2.985   4.512   4.746 -0.4632  0.3964 -0.3270
11046TIP3    H233082   3.016   4.656   4.710  1.6900  0.2484  0.7565
11047TIP3   OH233083   2.276   5.105   5.239 -0.1326 -0.1533  0.3614
11047TIP3    H133084   2.244   5.190   5.208 -0.6642 -0.8453 -1.0834
11047TIP3    H233085   2.371   5.109   5.226 -0.4643 -1.0657 -3.2674
11048TIP3   OH233086   0.570   2.213   0.606 -0.2920 -0.2430 -0.2275
11048TIP3    H133087   0.554   2.296   0.652  0.4195  0.6120 -1.4475
11048TIP3    H233088   0.662   2.217   0.581 -0.6290 -0.7109 -1.6293
11049TIP3   OH233089   7.985   3.256   2.873  0.3017  0.2818 -0.2927
11049TIP3    H133090   8.015   3.333   2.824  1.2171  0.1998  0.1154
11049TIP3    H233091   8.060   3.196   2.871  0.0525 -0.0708  0.4809
11050TIP3   OH233092   6.468   1.452   0.368  0.2643 -0.5000 -0.2710
11050TIP3    H133093   6.474   1.488   0.456 -0.5917 -0.8241 -0.0693
11050TIP3    H233094   6.498   1.362   0.376 -1.0303 -0.9379 -0.0263
11051TIP3   OH233095   5.940   3.380   4.424 -0.3426  0.1463  0.1448
11051TIP3    H133096   5.981   3.429   4.495  2.1586 -1.2136 -0.2461
11051TIP3    H233097   5.977   3.416   4.344  0.6937 -1.5344 -0.1965
11052TIP3   OH233098   7.878   4.637   0.836 -0.4654  0.7533  0.0614
11052TIP3    H133099   7.855   4.690   0.912 -0.5608  1.3766 -0.3942
11052TIP3    H233100   7.811   4.570   0.832 -0.1444  0.3649  0.8565
11053TIP3   OH233101   1.530   5.122   3.393  0.1772 -0.3371  0.0182
11053TIP3    H133102   1.547   5.173   3.473 -0.2385 -0.7660  0.3858
11053TIP3    H233103   1.519   5.032   3.424 -1.5068 -0.2817 -0.3320
11054TIP3   OH233104   4.115   5.609   5.670 -0.0261  0.4197 -0.3000
11054TIP3    H133105   4.048   5.672   5.646 -1.9806 -2.0937 -1.9044
11054TIP3    H233106   4.092   5.529   5.623  2.7686 -1.3069  0.9644
11055TIP3   OH233107   4.112   3.670   5.033  0.8528 -0.2762 -0.7584
11055TIP3    H133108   4.143   3.630   4.951  1.3088  0.3121 -0.8811
11055TIP3    H233109   4.064   3.748   5.005 -1.3919 -1.5403 -0.6094
11056TIP3   OH233110   1.016   0.974   5.049 -0.1067 -0.5835  0.1251
11056TIP3    H133111   0.965   1.034   4.995  0.6386 -1.8330 -2.0782
11056TIP3    H233112   1.107   0.993   5.027  0.3460  0.0703  2.3171
11057TIP3   OH233113   4.410   6.315   0.756 -0.5141 -0.1205  0.7019
11057TIP3    H133114   4.349   6.268   0.813 -0.1767  0.2320  1.3683
11057TIP3    H233115   4.388   6.407   0.769 -0.6864 -0.0454 -0.0442
11058TIP3   OH233116   5.603   2.117   0.179 -0.1285  0.8647  0.1532
11058TIP3    H133117   5.550   2.116   0.258 -1.5603  0.8343 -0.7851
11058TIP3    H233118   5.679   2.062   0.201 -0.1044  1.4931  1.7496
11059TIP3   OH233119   5.452   3.242   3.122 -0.7628  0.3873 -0.0475
11059TIP3    H133120   5.519   3.232   3.055 -0.5435 -0.4135  0.2741
11059TIP3    H233121   5.501   3.255   3.203 -0.9689 -0.4320  0.2286
11060TIP3   OH233122   1.135   1.091   1.640  0.0026  0.5753  0.5441
11060TIP3    H133123   1.099   1.107   1.727 -0.0984 -1.3601  0.8948
11060TIP3    H233124   1.203   1.026   1.654 -0.6546 -0.4795 -0.9369
11061TIP3   OH233125   4.227   5.844   1.425 -0.3897  0.2490 -0.1247
11061TIP3    H133126   4.224   5.940   1.432 -2.1185  0.1687  0.6680
11061TIP3    H233127   4.182   5.824   1.343  3.9551  0.2437 -2.8146
11062TIP3   OH233128   3.311   0.634   6.447 -0.0490 -0.0865 -0.6034
11062TIP3    H133129   3.405   0.624   6.429 -0.0610  0.7066 -1.1698
11062TIP3    H233130   3.289   0.721   6.412 -0.5056  0.7370  1.5440
11063TIP3   OH233131   5.077   7.716   2.652  0.1843 -0.0675 -0.2396
11063TIP3    H133132   5.003   7.774   2.636 -0.4617 -1.3601 -2.3422
11063TIP3    H233133   5.111   7.743   2.738 -3.0440  0.2046  1.0893
11064TIP3   OH233134   1.426   6.604   4.198 -0.3377  0.2159  0.3324
11064TIP3    H133135   1.501   6.628   4.143 -0.2638  1.7381  1.0328
11064TIP3    H233136   1.455   6.621   4.288 -0.3027 -2.6686  0.9365
11065TIP3   OH233137   5.640   4.081   5.708  0.1262 -0.8578 -0.0796
11065TIP3    H133138   5.630   3.987   5.722 -2.2814 -0.5709  0.6298
11065TIP3    H233139   5.555   4.118   5.733  1.3019  1.6181  0.5565
11066TIP3   OH233140   7.496   7.715   3.225  0.1775 -0.4777  0.1989
11066TIP3    H133141   7.518   7.653   3.155 -0.6903  1.9083 -2.3371
11066TIP3    H233142   7.521   7.800   3.190  1.2878  0.7152  3.5383
11067TIP3   OH233143   5.447   3.712   4.227  0.7306 -0.3011  0.0988
11067TIP3    H133144   5.442   3.742   4.318  1.2488  1.6218 -0.4702
11067TIP3    H233145   5.358   3.721   4.193  0.6393 -0.5441  0.2759
11068TIP3   OH233146   1.596   1.584   2.589 -0.1596  0.1741  0.2827
11068TIP3    H133147   1.646   1.652   2.545  0.7473  0.0277  1.0577
11068TIP3    H233148   1.656   1.548   2.654 -0.9359 -0.7158  0.5346
11069TIP3   OH233149   2.654   4.640   1.947  0.1724  0.6582  0.0405
11069TIP3    H133150   2.648   4.560   1.895  1.0649  1.1717 -0.8889
11069TIP3    H233151   2.563   4.666   1.961 -0.1383 -0.6910  0.6437
11070TIP3   OH233152   6.635   6.845   2.642 -0.3801 -0.3900 -0.2809
11070TIP3    H133153   6.698   6.803   2.584 -0.9094  0.1965 -1.3184
11070TIP3    H233154   6.660   6.937   2.643 -0.4615 -0.3676  0.3220
11071TIP3   OH233155   1.355   1.425   2.232  0.0924  0.1933  0.3848
11071TIP3    H133156   1.361   1.436   2.327  0.2228 -1.4084  0.5889
11071TIP3    H233157   1.345   1.331   2.219 -1.0563  0.4950 -1.1552
11072TIP3   OH233158   7.176   1.564   6.046 -0.2286 -0.5239 -0.0830
11072TIP3    H133159   7.132   1.519   5.973 -0.0744  0.3582 -0.7490
11072TIP3    H233160   7.245   1.505   6.074  0.2746 -0.5128 -1.2511
11073TIP3   OH233161   1.100   5.657   5.842 -0.3187 -0.3604  0.4741
11073TIP3    H133162   1.161   5.730   5.833 -2.0282  1.1595  0.6669
11073TIP3    H233163   1.118   5.621   5.929  1.0295 -0.6681  0.0882
11074TIP3   OH233164   7.146   4.287   1.657 -0.2182 -0.0270 -0.3711
11074TIP3    H133165   7.204   4.220   1.622 -0.2164 -0.9990  1.3889
11074TIP3    H233166   7.079   4.239   1.706  0.7971  1.2038  2.4748
11075TIP3   OH233167   6.369   5.760   6.226  0.0615  0.3379 -0.5036
11075TIP3    H133168   6.280   5.794   6.233 -0.4402 -1.1562  1.4670
11075TIP3    H233169   6.379   5.735   6.134 -0.4915  3.0995 -1.3907
11076TIP3   OH233170   3.516   1.539   1.489 -0.1457 -0.0421 -0.2165
11076TIP3    H133171   3.515   1.557   1.583 -0.2766  2.4429 -0.6336
11076TIP3    H233172   3.423   1.539   1.464 -0.1486 -1.2968 -0.2847
11077TIP3   OH233173   7.000   7.550   0.610  0.2096 -0.1104  0.0611
11077TIP3    H133174   6.922   7.579   0.564  2.3858  1.9722 -2.6965
11077TIP3    H233175   7.027   7.470   0.564 -0.4161 -1.0360  1.2410
11078TIP3   OH233176   3.118   5.978   1.911 -0.4483 -0.9076 -0.3058
11078TIP3    H133177   3.204   5.951   1.880  0.6913  0.6046  1.3439
11078TIP3    H233178   3.079   6.022   1.835 -0.2987 -2.6258 -1.4341
11079TIP3   OH233179   6.593   6.667   2.365  0.1582  0.4712 -0.0592
11079TIP3    H133180   6.673   6.617   2.348  0.8010  1.3212  0.3442
11079TIP3    H233181   6.623   6.758   2.371 -0.8757  0.8296 -0.0926
11080TIP3   OH233182   4.481   6.880   2.563  0.5808 -0.0075  0.8857
11080TIP3    H133183   4.534   6.914   2.636  1.2623 -0.6337  0.6940
11080TIP3    H233184   4.480   6.786   2.575 -0.2419 -0.0295  0.6989
11081TIP3   OH233185   6.208   7.780   4.263 -0.1141 -0.0445  0.1743
11081TIP3    H133186   6.238   7.827   4.341  1.1315  0.7839 -0.7650
11081TIP3    H233187   6.264   7.703   4.258 -0.6920 -0.4945  0.4948
11082TIP3   OH233188   2.064   5.744   2.538 -0.3606 -0.5757  0.2201
11082TIP3    H133189   2.096   5.655   2.547 -1.7404 -0.9567  1.8208
11082TIP3    H233190   2.061   5.759   2.443  0.6109 -1.9350 -0.0481
11083TIP3   OH233191   4.936   4.009   6.512  0.2790 -0.4012 -0.2697
11083TIP3    H133192   4.902   4.088   6.470 -0.9359 -1.1517 -0.7518
11083TIP3    H233193   5.005   3.978   6.453  0.8023  0.3150 -0.0482
11084TIP3   OH233194   7.408  -0.012   4.610 -0.0104 -0.1445 -0.5402
11084TIP3    H133195   7.461   0.002   4.689  0.6189  1.1683 -1.1665
11084TIP3    H233196   7.440   0.053   4.547 -2.1984  0.5709 -1.0365
11085TIP3   OH233197   1.592   5.357   6.056 -0.0332 -0.3795  0.5655
11085TIP3    H133198   1.559   5.271   6.032  1.1202 -0.3180 -1.4646
11085TIP3    H233199   1.530   5.419   6.017 -0.9020 -0.2357  2.0822
11086TIP3   OH233200   1.508   1.534   1.293  0.4268 -0.1571  0.2524
11086TIP3    H133201   1.438   1.493   1.242 -0.2483  0.8549  0.3425
11086TIP3    H233202   1.560   1.461   1.326  1.2935 -0.8655 -2.4301
11087TIP3   OH233203   7.311   7.791   1.806  0.1243  0.8397  0.3761
11087TIP3    H133204   7.227   7.836   1.817  0.2687  0.7872  1.8954
11087TIP3    H233205   7.319   7.778   1.712 -1.7608  0.4923  0.2264
11088TIP3   OH233206   5.058   6.979   4.028  0.3126  0.0828 -0.4451
11088TIP3    H133207   4.986   7.037   4.003  0.1480 -0.1884 -0.6025
11088TIP3    H233208   5.055   6.978   4.124 -0.7972 -1.0345 -0.4530
11089TIP3   OH233209   7.674   7.339   0.170 -0.3041  0.2323  0.4761
11089TIP3    H133210   7.721   7.256   0.181  1.7631  0.8600 -2.5063
11089TIP3    H233211   7.661   7.348   0.076  0.7176  3.8574  0.5175
11090TIP3   OH233212   5.356   0.101   5.616 -0.5090  0.2190  0.5269
11090TIP3    H133213   5.373   0.195   5.622  0.5537  0.2876 -2.0737
11090TIP3    H233214   5.431   0.060   5.659  1.7676  0.6372 -2.6365
11091TIP3   OH233215   2.283   0.557   2.049 -0.0394  0.2945  0.2126
11091TIP3    H133216   2.276   0.487   2.114 -0.3647  0.2915  0.1722
11091TIP3    H233217   2.338   0.520   1.979  0.6492  0.4344  0.6652
11092TIP3   OH233218   6.077   1.272   1.285 -0.1282 -0.1492 -0.2394
11092TIP3    H133219   6.115   1.357   1.262 -1.2186  0.2074 -0.8229
11092TIP3    H233220   6.082   1.221   1.205 -1.3951  0.1225 -0.5201
11093TIP3   OH233221   2.486   2.216   5.502  0.0461 -0.2156  0.1851
11093TIP3    H133222   2.556   2.204   5.566 -0.8038 -2.0042  0.8458
11093TIP3    H233223   2.474   2.130   5.462 -0.3883  0.5410 -1.4215
11094TIP3   OH233224   0.833   5.596   6.500  0.2573  0.3835 -0.0211
11094TIP3    H133225   0.819   5.570   6.409  1.1023  0.3541 -0.1536
11094TIP3    H233226   0.888   5.674   6.494  0.8241  0.0311  0.4775
11095TIP3   OH233227   2.417   7.446   2.034  0.4577  0.5255  0.4890
11095TIP3    H133228   2.472   7.384   1.985 -0.9103 -0.5273  0.2404
11095TIP3    H233229   2.327   7.422   2.011 -0.1353  1.9300  1.2290
11096TIP3   OH233230   8.016   7.010   2.530  0.1940  0.0616 -0.4254
11096TIP3    H133231   7.947   6.944   2.538  1.9195 -1.7731 -0.0307
11096TIP3    H233232   8.023   7.047   2.618  0.4899 -0.5759 -0.1761
11097TIP3   OH233233   2.263   7.688   4.590  0.1012  0.7821 -0.4325
11097TIP3    H133234   2.328   7.684   4.520  1.0366  0.0052  0.4401
11097TIP3    H233235   2.244   7.781   4.600  1.5374  1.0819 -0.3122
11098TIP3   OH233236   3.130   1.754   1.657 -0.1986  0.5820 -0.1236
11098TIP3    H133237   3.192   1.700   1.609  0.1311 -0.4785  1.4235
11098TIP3    H233238   3.044   1.718   1.635  0.0324 -0.8099  1.0905
11099TIP3   OH233239   6.338   4.277   0.222 -0.1364  0.1570 -0.3229
11099TIP3    H133240   6.379   4.278   0.135  0.3511 -1.0237 -0.1327
11099TIP3    H233241   6.284   4.198   0.222 -1.3309  0.9584 -0.0701
11100TIP3   OH233242   0.349   0.832   3.734 -0.1013 -0.1437 -0.3639
11100TIP3    H133243   0.443   0.845   3.724  0.0609 -1.0426 -0.1036
11100TIP3    H233244   0.310   0.866   3.653  0.5587 -0.9269 -1.0234
11101TIP3   OH233245   0.253   1.007   5.153  0.1476  0.6660 -0.3291
11101TIP3    H133246   0.307   0.931   5.175  0.8074  1.6739  1.7157
11101TIP3    H233247   0.315   1.073   5.123 -0.3297  0.7425 -1.1885
11102TIP3   OH233248   0.997   3.517   3.507  0.3530 -0.1542  0.5014
11102TIP3    H133249   0.920   3.574   3.509  2.1695  2.4597  1.2560
11102TIP3    H233250   1.044   3.541   3.427 -0.1668 -2.6729 -0.6831
11103TIP3   OH233251   4.607   1.365   2.660 -0.6007 -0.3875  0.6362
11103TIP3    H133252   4.636   1.285   2.615  1.2738  1.6647 -2.1718
11103TIP3    H233253   4.687   1.406   2.689 -1.3325  1.4406  0.1931
11104TIP3   OH233254   1.978   2.819   2.447  0.0782 -0.3891  0.1847
11104TIP3    H133255   2.042   2.773   2.391  0.3610  0.2374 -0.0208
11104TIP3    H233256   2.024   2.832   2.530  1.4465  2.8046 -0.9186
11105TIP3   OH233257   3.155   1.255   2.310  0.0603 -0.1613 -0.0423
11105TIP3    H133258   3.148   1.275   2.404 -0.2590  1.3852 -0.3552
11105TIP3    H233259   3.187   1.165   2.307 -1.5217 -0.8349  1.5399
11106TIP3   OH233260   0.098   5.597   3.578 -0.3032  0.8311  0.1436
11106TIP3    H133261   0.125   5.627   3.665  0.1271 -0.5223  0.5092
11106TIP3    H233262   0.180   5.570   3.536 -0.6378  0.4055 -0.2411
11107TIP3   OH233263   2.807   0.102   3.589  0.1005  0.3458  0.0131
11107TIP3    H133264   2.731   0.119   3.533 -1.1859 -0.4614  1.4408
11107TIP3    H233265   2.860   0.181   3.581 -1.0334  1.0600 -0.7989
11108TIP3   OH233266   1.775   7.162   1.258 -0.7624 -0.6621  0.0986
11108TIP3    H133267   1.689   7.142   1.222 -1.0809 -0.4876  0.7350
11108TIP3    H233268   1.819   7.078   1.264 -0.4598 -0.6186 -1.2736
11109TIP3   OH233269   5.626   1.922   3.786 -0.0638  0.0885  0.2236
11109TIP3    H133270   5.655   1.921   3.877  1.0114  0.9604 -0.0870
11109TIP3    H233271   5.531   1.928   3.792  0.0944  2.8677  1.3375
11110TIP3   OH233272   4.583   4.433   1.911  0.2909  0.8267  0.1190
11110TIP3    H133273   4.642   4.425   1.835  0.9509  0.1927  0.6811
11110TIP3    H233274   4.547   4.522   1.904  1.0108  1.0878 -0.4595
11111TIP3   OH233275   7.770   0.499   5.956 -0.1085 -0.6246 -0.8447
11111TIP3    H133276   7.846   0.483   6.012  1.4240 -1.3573 -2.9557
11111TIP3    H233277   7.713   0.424   5.971  0.0548 -0.5834  0.0332
11112TIP3   OH233278   6.887   0.197   3.108  0.7019 -0.1049  0.0860
11112TIP3    H133279   6.849   0.270   3.060  1.2916 -0.5696 -1.1279
11112TIP3    H233280   6.871   0.121   3.052  1.1981 -0.7009  0.7437
11113TIP3   OH233281   1.705   5.640   5.476 -0.0794 -1.0301  0.5358
11113TIP3    H133282   1.745   5.715   5.519 -0.4704 -0.7294  0.3826
11113TIP3    H233283   1.694   5.575   5.546 -2.1638  0.0372  1.2643
11114TIP3   OH233284   1.196   2.108   5.708  0.1639 -0.0382  0.4417
11114TIP3    H133285   1.130   2.171   5.681 -1.2347 -1.4675  0.3724
11114TIP3    H233286   1.225   2.067   5.626  3.0427  2.2461  0.1484
11115TIP3   OH233287   5.329   6.871   0.032  0.0025  0.0475 -0.8777
11115TIP3    H133288   5.303   6.843  -0.056 -0.5295 -2.2897 -0.0469
11115TIP3    H233289   5.369   6.793   0.071  3.4699  1.9431 -0.1830
11116TIP3   OH233290   1.985   3.185   2.675  0.3635 -0.5911  0.1021
11116TIP3    H133291   1.933   3.249   2.626  2.0776  0.1689 -0.7976
11116TIP3    H233292   1.927   3.109   2.683 -0.3950 -0.3104 -2.0884
11117TIP3   OH233293   4.008   5.704   3.659  0.1108  0.0759 -0.2049
11117TIP3    H133294   3.980   5.659   3.580 -1.0088  1.4883 -0.6555
11117TIP3    H233295   3.930   5.709   3.714  0.5186  0.3683  0.3674
11118TIP3   OH233296   1.524   2.816   6.407  0.2348  0.1487 -0.2928
11118TIP3    H133297   1.472   2.792   6.484  1.2627 -3.1481 -0.4641
11118TIP3    H233298   1.606   2.850   6.443  0.5014 -0.8846  0.1071
11119TIP3   OH233299   6.757   1.660   2.642 -0.3795 -0.3454 -0.2454
11119TIP3    H133300   6.844   1.619   2.649  0.5343  1.4886 -0.4499
11119TIP3    H233301   6.727   1.665   2.733  1.0211  1.6142  0.1674
11120TIP3   OH233302   2.298   7.043   1.941  0.1882  0.0130  0.2724
11120TIP3    H133303   2.207   7.014   1.947  0.2424 -0.2641 -0.2682
11120TIP3    H233304   2.347   6.966   1.915  0.9257 -0.4286  2.6849
11121TIP3   OH233305   4.601   7.615   3.263 -0.0279  0.4344 -0.2711
11121TIP3    H133306   4.627   7.605   3.355 -0.3130  0.5170 -0.1810
11121TIP3    H233307   4.680   7.594   3.214 -0.2250 -0.9269 -0.0442
11122TIP3   OH233308   6.058   3.489   5.822 -0.6464 -0.0717  0.5247
11122TIP3    H133309   6.086   3.403   5.854  0.9141  0.2681  0.1683
11122TIP3    H233310   5.975   3.473   5.778  0.2475 -1.6615 -0.6853
11123TIP3   OH233311   0.070   0.922   3.269  0.4720 -0.2576  0.5243
11123TIP3    H133312   0.160   0.952   3.256  0.6010  0.0506  1.9682
11123TIP3    H233313   0.018   1.002   3.267  0.3605 -0.3254  0.7316
11124TIP3   OH233314   1.043   3.146   0.691  0.1993  0.0564  0.2282
11124TIP3    H133315   0.952   3.116   0.685  0.3640 -0.6233  0.8703
11124TIP3    H233316   1.073   3.151   0.600 -0.6744  0.9458 -0.0294
11125TIP3   OH233317   5.383   2.376   5.882  0.3056  0.7354  0.0942
11125TIP3    H133318   5.425   2.342   5.803 -1.9279  0.7267 -1.1751
11125TIP3    H233319   5.419   2.323   5.954  1.1383 -0.4031 -1.1298
11126TIP3   OH233320   0.172   2.482   0.538 -0.3927  0.1757 -0.3156
11126TIP3    H133321   0.126   2.554   0.581 -0.6501 -1.5117  2.4947
11126TIP3    H233322   0.115   2.457   0.466 -0.8855  1.9572 -0.5992
11127TIP3   OH233323   0.220   6.283   4.189 -0.1318 -0.4897  0.2574
11127TIP3    H133324   0.207   6.373   4.159 -1.0324 -0.5566  0.4164
11127TIP3    H233325   0.205   6.287   4.283 -2.3468 -1.1838 -0.0307
11128TIP3   OH233326   1.275   2.440   5.719 -0.2061  0.3104 -0.3815
11128TIP3    H133327   1.250   2.363   5.668 -0.1863  0.7393 -1.0517
11128TIP3    H233328   1.203   2.502   5.706  0.1963  0.7463 -0.5967
11129TIP3   OH233329   4.828   0.406   2.556  0.0623  0.5453 -0.2509
11129TIP3    H133330   4.850   0.486   2.509  1.9964 -0.0152 -0.3699
11129TIP3    H233331   4.894   0.398   2.624 -0.2233 -0.8230 -0.0933
11130TIP3   OH233332   2.104   1.321   4.533  0.4783 -0.3299  0.7967
11130TIP3    H133333   2.050   1.399   4.544  2.0181  0.7529  0.9699
11130TIP3    H233334   2.048   1.260   4.483 -0.0383  1.6751 -1.2292
11131TIP3   OH233335   2.886   5.760   2.651  0.1940 -0.3767 -0.2819
11131TIP3    H133336   2.807   5.777   2.600  0.3359 -1.3081 -0.8393
11131TIP3    H233337   2.954   5.743   2.585  0.1810 -2.5095  0.1762
11132TIP3   OH233338   2.883   4.920   0.758 -0.2523 -0.2064 -0.6871
11132TIP3    H133339   2.798   4.879   0.745 -0.4184  0.4604 -1.7970
11132TIP3    H233340   2.878   5.003   0.710  1.1957 -0.4010 -1.2251
11133TIP3   OH233341   1.024   6.688   0.497 -0.7159  0.0661  0.3054
11133TIP3    H133342   1.023   6.717   0.589  0.5043  0.2649  0.2768
11133TIP3    H233343   1.054   6.597   0.501  0.9094  0.5416  0.0374
11134TIP3   OH233344   3.879   2.944   5.886  0.3568  0.1620 -0.4060
11134TIP3    H133345   3.820   2.890   5.938  0.3218  0.9212  0.3769
11134TIP3    H233346   3.963   2.940   5.932  0.5400  0.2064 -0.7298
11135TIP3   OH233347   1.824   3.423   2.948  0.0027 -0.6989 -0.0328
11135TIP3    H133348   1.773   3.504   2.950  1.3336  0.1766  0.6042
11135TIP3    H233349   1.905   3.445   2.995 -0.1543 -2.7949  1.3535
11136TIP3   OH233350   7.242   6.281   4.455 -0.3053 -0.1863  0.0397
11136TIP3    H133351   7.328   6.240   4.446  0.8390  2.0569  0.0271
11136TIP3    H233352   7.180   6.213   4.428  1.4131 -1.9731  0.3270
11137TIP3   OH233353   7.551   7.612   6.209  0.4462 -0.2876  0.3844
11137TIP3    H133354   7.585   7.684   6.262  1.4825 -0.3979 -0.1060
11137TIP3    H233355   7.605   7.613   6.130 -1.1824 -0.0067 -0.7762
11138TIP3   OH233356   5.240   5.110   0.837  0.2462  0.2734  0.1553
11138TIP3    H133357   5.303   5.157   0.891 -1.5895  0.8500  1.9384
11138TIP3    H233358   5.242   5.155   0.753  0.7759  1.5478  0.8253
11139TIP3   OH233359   4.171   5.914   4.200 -0.2616 -0.1227 -0.2838
11139TIP3    H133360   4.205   6.001   4.220  0.7659 -0.4427 -0.5836
11139TIP3    H233361   4.249   5.860   4.186 -0.7868 -1.8047  2.6444
11140TIP3   OH233362   7.614   7.402   2.499 -0.3762  0.0000 -0.0335
11140TIP3    H133363   7.672   7.326   2.504 -0.8724 -0.3084  1.6385
11140TIP3    H233364   7.529   7.366   2.472 -0.1594  0.2521 -1.0990
11141TIP3   OH233365   3.372   7.422   6.241 -0.3206  0.3173 -0.3743
11141TIP3    H133366   3.296   7.383   6.198 -0.2830  0.1709 -0.3075
11141TIP3    H233367   3.352   7.416   6.335 -0.2022  0.2271 -0.3545
11142TIP3   OH233368   6.114   4.502   2.697  0.0178  0.4146 -0.5658
11142TIP3    H133369   6.075   4.440   2.758  2.7545 -0.7058  0.2293
11142TIP3    H233370   6.134   4.579   2.750  0.6135  0.2119 -0.4854
11143TIP3   OH233371   7.695   2.391   6.354 -0.0219 -0.1599 -0.3673
11143TIP3    H133372   7.713   2.406   6.261  1.6126 -0.2692 -0.1076
11143TIP3    H233373   7.642   2.466   6.381  1.6752  1.2897 -0.8247
11144TIP3   OH233374   0.091   3.387   2.133  0.1962 -0.1327 -0.4085
11144TIP3    H133375   0.123   3.359   2.047 -2.3113  0.2271 -1.5483
11144TIP3    H233376   0.067   3.305   2.177 -3.1361 -0.2103 -2.0807
11145TIP3   OH233377   7.078   6.086   4.358 -0.0056  0.2516 -0.2695
11145TIP3    H133378   6.988   6.058   4.372  0.8429 -2.8793 -0.4654
11145TIP3    H233379   7.094   6.071   4.265  1.5319 -2.0500  0.2981
11146TIP3   OH233380   7.228   4.467   1.466 -0.6655  0.2167 -0.2166
11146TIP3    H133381   7.223   4.448   1.559  0.3317  0.5350 -0.0822
11146TIP3    H233382   7.137   4.472   1.437 -1.0081  1.0383  0.9281
11147TIP3   OH233383   5.030   6.006   4.371  0.1566  0.3005 -0.2035
11147TIP3    H133384   5.060   5.962   4.291 -0.3463  2.0783 -1.4475
11147TIP3    H233385   4.938   5.980   4.380 -0.7076  2.3573 -1.9938
11148TIP3   OH233386   8.170   0.479   4.631 -0.1153 -0.1861  0.2755
11148TIP3    H133387   8.110   0.423   4.583 -0.0005 -0.5751  0.5868
11148TIP3    H233388   8.257   0.442   4.613  0.0772  0.6242 -0.5212
11149TIP3   OH233389   6.007   4.869   4.298 -0.0632 -0.1071  0.1643
11149TIP3    H133390   5.997   4.890   4.391 -2.9858  1.6490 -0.4122
11149TIP3    H233391   5.921   4.835   4.271  0.1474  0.9709 -2.1914
11150TIP3   OH233392   0.532   4.526   3.937  0.4506 -0.0389  0.1272
11150TIP3    H133393   0.499   4.438   3.921  1.2940 -0.5094  0.9318
11150TIP3    H233394   0.470   4.583   3.891  0.4427 -1.0919 -1.2222
11151TIP3   OH233395   1.396   6.777   0.465 -0.5124  0.1130 -0.3331
11151TIP3    H133396   1.409   6.766   0.371  0.6578 -0.1366 -0.1638
11151TIP3    H233397   1.436   6.862   0.485 -0.2268 -0.1054  0.0312
11152TIP3   OH233398   1.924   2.310   5.439  0.6159 -0.4944  0.2804
11152TIP3    H133399   1.898   2.325   5.530  0.1922  3.3147 -0.3138
11152TIP3    H233400   2.016   2.335   5.436 -0.0778  2.3471 -0.7663
11153TIP3   OH233401   0.708   4.855   3.689 -0.4385 -0.5298 -0.7600
11153TIP3    H133402   0.754   4.876   3.607  0.8336 -2.5817 -0.6625
11153TIP3    H233403   0.629   4.809   3.660 -0.5950 -0.1995 -0.8589
11154TIP3   OH233404   2.290   0.608   3.114  0.3672 -0.0842  0.8274
11154TIP3    H133405   2.324   0.655   3.038  1.7410 -1.4013  0.5783
11154TIP3    H233406   2.259   0.677   3.173  1.6510  1.1051  0.1735
11155TIP3   OH233407   6.192   7.321   6.442 -0.0668  0.4774  0.4681
11155TIP3    H133408   6.255   7.320   6.370  0.5603  0.8044  0.9980
11155TIP3    H233409   6.140   7.242   6.430  0.6057  0.0740  0.1552
11156TIP3   OH233410   0.799   6.850   0.436  0.4794 -0.3736 -0.0254
11156TIP3    H133411   0.876   6.794   0.429 -0.0500 -1.2670  1.1195
11156TIP3    H233412   0.725   6.790   0.440 -0.0018  0.2378  3.0723
11157TIP3   OH233413   5.601   4.218   1.744  0.0692  0.1968 -0.2362
11157TIP3    H133414   5.688   4.182   1.759  0.2874  0.5438 -0.6508
11157TIP3    H233415   5.617   4.309   1.720 -0.2984 -0.1829 -2.0269
11158TIP3   OH233416   4.151   1.663   4.246  0.5796  0.1652  0.1144
11158TIP3    H133417   4.118   1.688   4.332  0.4398  1.3016 -0.2468
11158TIP3    H233418   4.089   1.702   4.185  1.2644  0.2774 -0.5231
11159TIP3   OH233419   0.797   4.980   5.732  0.2976 -0.0067  0.0711
11159TIP3    H133420   0.743   4.934   5.668  0.8502 -0.8198  0.1745
11159TIP3    H233421   0.870   4.921   5.750  0.0542  0.1087  1.5993
11160TIP3   OH233422   4.103   4.141   3.230 -0.1037 -0.5765  0.7472
11160TIP3    H133423   4.176   4.163   3.172 -1.9411  0.2495 -1.4070
11160TIP3    H233424   4.100   4.046   3.230  1.9716 -0.7272  2.3155
11161TIP3   OH233425   5.171   2.440   4.732  0.9025  0.2150 -0.3615
11161TIP3    H133426   5.183   2.475   4.820  1.2103  1.3284 -0.8297
11161TIP3    H233427   5.123   2.508   4.686 -0.4579 -0.9189 -0.7003
11162TIP3   OH233428   4.668   7.443   6.482 -0.1092  0.0052  0.1856
11162TIP3    H133429   4.629   7.471   6.565 -0.5531 -0.7557  0.2421
11162TIP3    H233430   4.759   7.424   6.503 -0.1871 -0.0518  0.4670
11163TIP3   OH233431   2.714   5.464   3.049 -0.5951  0.0772  0.1235
11163TIP3    H133432   2.748   5.452   2.961  0.6287 -0.6019  0.6591
11163TIP3    H233433   2.790   5.491   3.101 -0.8990 -1.2201  1.3059
11164TIP3   OH233434   2.577   4.387   6.045 -0.1318  0.3098  0.5080
11164TIP3    H133435   2.486   4.375   6.070  0.0723 -0.8716  0.7092
11164TIP3    H233436   2.576   4.385   5.949 -0.4273  1.2151  0.4839
11165TIP3   OH233437   7.118   0.750   1.456 -0.1640 -0.1052  0.0602
11165TIP3    H133438   7.075   0.826   1.496  1.3790  0.1135  1.3897
11165TIP3    H233439   7.047   0.687   1.442 -1.7011  1.9153 -2.1357
11166TIP3   OH233440   4.610   4.244   0.748 -0.0792  0.3881 -0.3599
11166TIP3    H133441   4.645   4.245   0.659 -0.9307  1.6225 -0.7149
11166TIP3    H233442   4.567   4.159   0.756  0.1753  0.1840 -1.0507
11167TIP3   OH233443   4.809   3.100   5.663  0.3216 -0.0877 -0.0960
11167TIP3    H133444   4.755   3.031   5.700  0.6023 -0.1466  0.2103
11167TIP3    H233445   4.875   3.117   5.730  1.4948 -0.9465 -0.9840
11168TIP3   OH233446   7.405   5.706   3.547 -0.2169 -0.3890  0.6398
11168TIP3    H133447   7.452   5.629   3.580  0.5527 -0.4189 -0.4671
11168TIP3    H233448   7.318   5.672   3.524 -0.0479 -0.8201  0.6208
11169TIP3   OH233449   1.300   2.642   2.606  0.1263  0.4751  0.3259
11169TIP3    H133450   1.213   2.679   2.615 -0.1034 -0.0841  0.4717
11169TIP3    H233451   1.309   2.582   2.680  0.8545  0.9484  0.6358
11170TIP3   OH233452   7.336   1.947   1.631 -0.0300 -0.4711  0.5208
11170TIP3    H133453   7.312   1.945   1.538  1.0871 -1.2824  0.2262
11170TIP3    H233454   7.353   2.039   1.649  1.3383 -0.4817 -0.5373
11171TIP3   OH233455   6.919   0.549   3.335  0.2689  0.3262 -0.2202
11171TIP3    H133456   6.951   0.627   3.289  0.6965  0.9956  1.1577
11171TIP3    H233457   6.844   0.520   3.283 -0.1136  1.8585 -0.5660
11172TIP3   OH233458   6.883   2.255   0.753 -0.3061  0.3307 -0.3210
11172TIP3    H133459   6.832   2.297   0.822  0.2153 -1.9027  1.5662
11172TIP3    H233460   6.817   2.207   0.702 -0.3784 -1.2753  1.1622
11173TIP3   OH233461   6.925   1.652   6.654 -0.2469 -0.5253  0.1799
11173TIP3    H133462   6.916   1.738   6.694 -0.5894  0.7782 -2.4638
11173TIP3    H233463   7.015   1.650   6.621 -0.9795 -0.0397 -2.0226
11174TIP3   OH233464   4.547   7.751   5.915 -0.5870 -0.2742 -0.0094
11174TIP3    H133465   4.594   7.678   5.874 -0.5914 -0.7598  0.8452
11174TIP3    H233466   4.616   7.815   5.934 -0.1265 -1.2176  1.7598
11175TIP3   OH233467   2.724   7.062   3.645  0.1525 -0.3373  0.7925
11175TIP3    H133468   2.684   6.995   3.591 -1.2398  0.6711  0.5302
11175TIP3    H233469   2.713   7.143   3.596  1.9728  0.0978  1.0114
11176TIP3   OH233470   5.756   0.967   6.669  0.0776  0.1236  0.2009
11176TIP3    H133471   5.822   1.037   6.670  0.8270 -0.5547  1.2365
11176TIP3    H233472   5.770   0.922   6.586 -0.5431  1.2955 -0.5673
11177TIP3   OH233473   6.517   1.468   5.102 -0.0409 -0.3839 -0.0840
11177TIP3    H133474   6.539   1.545   5.154 -1.2436  1.2918 -1.9148
11177TIP3    H233475   6.468   1.412   5.162 -0.3413  0.9119  0.9257
11178TIP3   OH233476   3.750   7.469   3.729 -0.5242  0.2094  0.4023
11178TIP3    H133477   3.822   7.406   3.719 -0.2957  0.4437  0.5617
11178TIP3    H233478   3.782   7.531   3.794  0.3199  1.9667 -1.5661
11179TIP3   OH233479   4.393   2.483   2.796 -0.0197 -0.3573 -0.1224
11179TIP3    H133480   4.301   2.474   2.774  0.1879 -1.6203 -0.5609
11179TIP3    H233481   4.409   2.414   2.860  0.4839  0.2670  0.4473
11180TIP3   OH233482   7.471   2.530   6.703  0.1728  0.8215 -0.1570
11180TIP3    H133483   7.420   2.477   6.764  0.4561 -0.4423 -0.9982
11180TIP3    H233484   7.536   2.470   6.666  2.2555  2.3269  0.7901
11181TIP3   OH233485   3.818   3.188   4.953  0.5786  0.0823 -0.1032
11181TIP3    H133486   3.882   3.148   5.012 -0.0956  0.2783  0.7891
11181TIP3    H233487   3.826   3.138   4.871 -0.0184 -1.7042  0.8633
11182TIP3   OH233488   1.178   3.908   0.910  0.0531 -0.0616  0.3116
11182TIP3    H133489   1.197   3.825   0.953  0.6333 -0.2087 -0.2163
11182TIP3    H233490   1.101   3.942   0.956  1.0717  0.1400  1.9645
11183TIP3   OH233491   7.973   1.851   1.462  0.2048 -0.8253  0.0236
11183TIP3    H133492   7.881   1.837   1.440  0.1890  0.0243 -0.5042
11183TIP3    H233493   7.971   1.905   1.541  0.1991  0.8898 -1.0802
11184TIP3   OH233494   4.357   5.352   3.432 -0.4717  0.1992 -0.0243
11184TIP3    H133495   4.337   5.260   3.450 -0.2857 -0.1719 -1.6124
11184TIP3    H233496   4.321   5.399   3.508  2.2157 -1.4003  2.4654
11185TIP3   OH233497   1.021   6.860   6.400 -0.2557  0.0504 -0.2325
11185TIP3    H133498   1.081   6.934   6.414 -0.9793  0.5164  0.5378
11185TIP3    H233499   0.980   6.847   6.486 -0.4427 -0.9823 -0.4729
11186TIP3   OH233500   3.680   3.398   5.965 -0.6442 -0.0992 -0.0354
11186TIP3    H133501   3.738   3.339   5.918 -1.2606 -0.5183 -0.2861
11186TIP3    H233502   3.634   3.446   5.896 -1.0462 -0.2198  0.1464
11187TIP3   OH233503   2.660   2.423   4.849  0.0641  0.4153 -0.1279
11187TIP3    H133504   2.674   2.446   4.941 -1.3071 -0.1190  0.2363
11187TIP3    H233505   2.571   2.388   4.847 -0.3988  1.5649 -1.8693
11188TIP3   OH233506   3.790   6.150   6.480 -0.1508  0.1588  0.3999
11188TIP3    H133507   3.768   6.079   6.419 -0.8917 -0.0790  0.9239
11188TIP3    H233508   3.795   6.107   6.566  1.5265  0.3701  0.4396
11189TIP3   OH233509   4.353   7.495   3.239 -0.0171 -0.0311  0.0470
11189TIP3    H133510   4.294   7.568   3.222 -0.5834 -1.0621 -2.9251
11189TIP3    H233511   4.440   7.528   3.217 -0.5056 -0.7279 -3.4928
11190TIP3   OH233512   7.407   1.747   5.545 -0.3463  0.0699  0.5040
11190TIP3    H133513   7.315   1.760   5.524  0.2157  4.4755 -0.2784
11190TIP3    H233514   7.450   1.733   5.461 -0.1191 -0.5655  0.7191
11191TIP3   OH233515   3.152   6.058   6.529  0.0370  0.2965  0.2038
11191TIP3    H133516   3.190   6.007   6.457 -1.0694 -0.4466  0.1259
11191TIP3    H233517   3.223   6.118   6.556  0.9788 -0.4877 -0.4601
11192TIP3   OH233518   2.057   6.333   4.332  0.4131  0.1008 -0.8830
11192TIP3    H133519   2.019   6.334   4.244  0.9796  0.0058 -1.1319
11192TIP3    H233520   2.081   6.242   4.347 -1.4360 -0.2786  0.1521
11193TIP3   OH233521   3.665   6.174   5.318 -0.1827 -0.1555  0.1209
11193TIP3    H133522   3.754   6.196   5.345 -0.1340 -1.6837  1.3685
11193TIP3    H233523   3.657   6.209   5.229  1.1379  1.3008  0.5283
11194TIP3   OH233524   3.752   6.424   4.564 -0.4906  0.0254  0.2027
11194TIP3    H133525   3.809   6.444   4.638  0.1847 -0.5642 -0.1394
11194TIP3    H233526   3.705   6.345   4.592 -2.5411  1.5020  1.2217
11195TIP3   OH233527   4.606   1.527   2.388 -0.3348  0.0156  0.1557
11195TIP3    H133528   4.637   1.597   2.331 -1.2493  0.0923 -0.2587
11195TIP3    H233529   4.686   1.484   2.418  0.1766  0.0128 -1.1461
11196TIP3   OH233530   3.112   7.655   3.854 -0.3173 -0.3069  0.2650
11196TIP3    H133531   3.072   7.568   3.849 -0.4476 -0.2695  0.6702
11196TIP3    H233532   3.182   7.653   3.788  2.0527 -1.9590  2.6043
11197TIP3   OH233533   5.272   1.599   4.288 -0.3185 -0.1134 -0.5106
11197TIP3    H133534   5.292   1.673   4.232 -1.0476 -0.8659 -1.8115
11197TIP3    H233535   5.196   1.557   4.247 -0.0612 -1.4479  0.2984
11198TIP3   OH233536   3.896   2.352   4.779  0.4452  0.0286 -0.1058
11198TIP3    H133537   3.926   2.290   4.847  0.1581 -1.3341 -1.1663
11198TIP3    H233538   3.932   2.436   4.806  0.3008 -0.4651  1.7589
11199TIP3   OH233539   3.236   1.536   1.487  0.2592 -0.3087 -0.3942
11199TIP3    H133540   3.196   1.490   1.413 -0.3626  1.2279 -1.0711
11199TIP3    H233541   3.236   1.473   1.558  2.2518 -2.3863 -2.0750
11200TIP3   OH233542   7.894   4.740   2.304  1.0701 -0.1722  0.2580
11200TIP3    H133543   7.986   4.739   2.277  0.9076  1.0300 -0.4056
11200TIP3    H233544   7.845   4.725   2.223  0.6305  1.5214  0.1818
11201TIP3   OH233545   5.473   6.506   5.550  0.0935  0.1885 -0.2443
11201TIP3    H133546   5.426   6.423   5.543  1.7412 -0.6921 -1.5753
11201TIP3    H233547   5.410   6.571   5.519 -1.1088 -0.5741  0.4851
11202TIP3   OH233548   7.394   0.681   1.495 -0.3849  0.1534 -0.4888
11202TIP3    H133549   7.434   0.766   1.479 -1.4293  0.9307  0.8254
11202TIP3    H233550   7.301   0.693   1.473 -0.7099 -0.3714  0.5233
11203TIP3   OH233551   6.036   1.356   3.845  0.5375  0.0099 -0.3622
11203TIP3    H133552   6.021   1.294   3.917  0.0503 -0.4876 -0.8815
11203TIP3    H233553   6.021   1.442   3.884 -0.1308 -0.2810  0.0395
11204TIP3   OH233554   6.507   2.170   6.654 -0.0132  0.1127 -0.2994
11204TIP3    H133555   6.458   2.099   6.694 -0.2019  0.5581  0.2692
11204TIP3    H233556   6.443   2.241   6.643  0.2694  0.3471 -0.4541
11205TIP3   OH233557   0.819   7.453   3.894  0.1348  0.0196  0.4774
11205TIP3    H133558   0.895   7.496   3.934  0.8333 -0.6993 -0.0422
11205TIP3    H233559   0.777   7.408   3.968 -0.0519  0.7793  0.8475
11206TIP3   OH233560   3.154   6.813   4.245 -0.3592 -0.1152  0.0899
11206TIP3    H133561   3.181   6.721   4.246  0.7565  0.1808 -0.7789
11206TIP3    H233562   3.096   6.821   4.169  0.0609  0.0194 -0.2245
11207TIP3   OH233563   4.245   4.572   0.941  0.3156  0.2101 -0.2585
11207TIP3    H133564   4.300   4.530   0.875  1.1527  1.1831 -0.2062
11207TIP3    H233565   4.158   4.535   0.927  0.1658  1.3646 -2.8140
11208TIP3   OH233566   0.876   3.977   1.567  0.1114  0.1036 -0.5561
11208TIP3    H133567   0.969   3.984   1.589 -0.2143  0.5203  0.7591
11208TIP3    H233568   0.859   3.882   1.565  0.4573  0.0374 -0.3671
11209TIP3   OH233569   1.179   4.777   3.253  0.1740 -0.1344 -0.0360
11209TIP3    H133570   1.105   4.716   3.257  0.0752 -0.0402 -0.4129
11209TIP3    H233571   1.256   4.720   3.249  0.0695 -0.2412 -0.6180
11210TIP3   OH233572   1.012   2.793   0.541  0.0726  0.0403  0.1283
11210TIP3    H133573   1.086   2.827   0.490 -1.1362 -0.4603 -2.0736
11210TIP3    H233574   0.960   2.742   0.478 -2.6277  1.0828  1.3526
11211TIP3   OH233575   2.494   6.396   4.637 -0.2479 -0.2321  0.5729
11211TIP3    H133576   2.520   6.349   4.558 -0.8062  1.6677 -0.8069
11211TIP3    H233577   2.571   6.449   4.661 -0.8109  0.9268 -0.0774
11212TIP3   OH233578   1.599   5.402   4.280  0.6925  0.2779 -0.1887
11212TIP3    H133579   1.677   5.412   4.334  0.2708 -0.7036  0.6342
11212TIP3    H233580   1.526   5.418   4.339  0.1594 -2.2818 -0.0111
11213TIP3   OH233581   3.300   3.352   4.251  0.6403 -0.3754  0.4803
11213TIP3    H133582   3.331   3.311   4.332  0.4186 -1.3210  0.1061
11213TIP3    H233583   3.346   3.304   4.182  1.6144  1.0958  0.0557
11214TIP3   OH233584   7.365   5.775   5.471 -0.0767  1.0250 -0.2738
11214TIP3    H133585   7.425   5.734   5.409  1.5253  2.0005  0.5812
11214TIP3    H233586   7.316   5.702   5.509 -0.9635  0.3720 -2.4652
11215TIP3   OH233587   4.004   1.580   3.220  0.1776 -0.5384 -0.0002
11215TIP3    H133588   4.061   1.503   3.224  0.9051  0.0192  0.7125
11215TIP3    H233589   4.040   1.640   3.285 -0.9490  0.0280  0.1330
11216TIP3   OH233590   6.976   2.193   2.815  0.1418 -0.0915 -0.2289
11216TIP3    H133591   6.912   2.263   2.832  0.4496  0.5653 -1.6393
11216TIP3    H233592   6.925   2.112   2.823 -0.7175  0.3930 -0.6800
11217TIP3   OH233593   5.410   7.811   1.970 -0.4732 -0.5888  0.8501
11217TIP3    H133594   5.501   7.795   1.996 -0.4992  0.4459  1.6199
11217TIP3    H233595   5.407   7.783   1.878  0.4702 -1.1586  0.9768
11218TIP3   OH233596   7.436   2.156   5.410 -0.4913  0.1263 -0.0902
11218TIP3    H133597   7.513   2.181   5.359  0.5269  0.4442  1.5377
11218TIP3    H233598   7.367   2.143   5.344  0.5692  1.1731 -1.4751
11219TIP3   OH233599   0.531   4.395   5.659 -0.0729 -0.3077  0.3624
11219TIP3    H133600   0.585   4.462   5.617  0.8857  0.0106  2.0203
11219TIP3    H233601   0.539   4.318   5.603 -1.8532  1.1065 -2.0491
11220TIP3   OH233602   3.144   2.224   2.038  0.1978  0.2186 -0.3471
11220TIP3    H133603   3.131   2.246   1.946 -1.3759 -1.2793 -0.5255
11220TIP3    H233604   3.078   2.274   2.085  0.5170  0.4151 -0.1007
11221TIP3   OH233605   5.450   6.249   0.781 -0.8738 -0.2578 -0.0127
11221TIP3    H133606   5.363   6.249   0.741 -1.1400 -0.4093  0.5617
11221TIP3    H233607   5.465   6.158   0.804 -0.9968 -0.0732  0.8211
11222TIP3   OH233608   2.294   0.938   1.918  0.3033 -0.3325  0.3050
11222TIP3    H133609   2.331   0.912   2.002 -0.0693  0.2466  0.6564
11222TIP3    H233610   2.369   0.971   1.868  0.7109 -1.6472  0.0018
11223TIP3   OH233611   8.277   4.322   0.359 -0.2152  0.5887 -0.5135
11223TIP3    H133612   8.279   4.373   0.440  0.7170 -0.3550  0.0856
11223TIP3    H233613   8.188   4.333   0.325 -0.1368  2.3547 -0.2552
11224TIP3   OH233614   0.181   7.434   0.137  0.4859 -0.3687 -1.0215
11224TIP3    H133615   0.118   7.364   0.124 -0.3268  0.2150 -0.3830
11224TIP3    H233616   0.228   7.441   0.054 -0.2751 -0.8273 -1.5009
11225TIP3   OH233617   2.203   2.181   1.400 -0.4887 -0.1731 -0.6515
11225TIP3    H133618   2.254   2.103   1.377  0.3563 -0.0565  0.6717
11225TIP3    H233619   2.113   2.150   1.405 -0.7350 -0.2336 -3.7605
11226TIP3   OH233620   1.071   3.161   0.974  0.4301  0.0834  0.1097
11226TIP3    H133621   1.022   3.241   0.996  1.3420  0.3927  1.1494
11226TIP3    H233622   1.043   3.139   0.886  1.1108  2.3131 -0.7374
11227TIP3   OH233623   4.093   1.870   0.966 -0.2173 -0.2750  0.0719
11227TIP3    H133624   4.094   1.922   1.046  0.9571 -1.4046  0.8422
11227TIP3    H233625   4.001   1.845   0.954 -0.5736  0.8101  0.4320
11228TIP3   OH233626   3.710   2.393   2.072  0.1761 -0.3929 -0.3716
11228TIP3    H133627   3.795   2.359   2.099 -0.4877 -0.9456  1.1540
11228TIP3    H233628   3.671   2.322   2.021  0.0991 -0.6711  0.0681
11229TIP3   OH233629   0.751   0.357   3.776 -0.6340 -0.1888 -0.3655
11229TIP3    H133630   0.684   0.403   3.827 -1.0388 -0.4785 -0.6236
11229TIP3    H233631   0.713   0.270   3.761 -1.3276  0.4146 -2.6439
11230TIP3   OH233632   1.187   6.893   2.851  0.5835  0.2623 -0.1521
11230TIP3    H133633   1.105   6.926   2.887  0.4947  0.0696 -0.1737
11230TIP3    H233634   1.252   6.959   2.875  0.5209  0.1493  0.3420
11231TIP3   OH233635   3.235   3.184   3.300 -0.3157  0.2205  0.2195
11231TIP3    H133636   3.190   3.128   3.364 -0.4623  0.9859  0.7999
11231TIP3    H233637   3.289   3.242   3.354  0.5563  0.0203 -0.4214
11232TIP3   OH233638   5.421   4.628   4.397 -0.1304 -0.1428 -0.2085
11232TIP3    H133639   5.369   4.591   4.325 -0.2207 -1.7559  0.6430
11232TIP3    H233640   5.426   4.721   4.377 -0.9484 -0.4043 -1.8092
11233TIP3   OH233641   3.475   0.295   2.663  0.0248 -0.5305  0.0487
11233TIP3    H133642   3.463   0.390   2.663  0.6168 -0.4470 -0.9201
11233TIP3    H233643   3.386   0.260   2.668 -0.2293  0.0648 -0.1557
11234TIP3   OH233644   6.978   6.691   4.819 -0.2016 -0.3065  0.2593
11234TIP3    H133645   7.044   6.653   4.877 -0.2157 -0.5252  0.1333
11234TIP3    H233646   6.970   6.628   4.748 -1.2742 -0.7474  0.7674
11235TIP3   OH233647   5.996   1.425   0.645  0.2749  0.2127 -0.6625
11235TIP3    H133648   5.982   1.485   0.572  0.5296 -0.7481 -1.5348
11235TIP3    H233649   5.937   1.351   0.628  0.3152 -0.0130  0.1214
11236TIP3   OH233650   6.827   2.023   3.411 -0.0895  0.3799  0.3121
11236TIP3    H133651   6.894   2.077   3.452  0.8284  0.0785 -0.7303
11236TIP3    H233652   6.746   2.045   3.457  0.4721  1.7896  0.6565
11237TIP3   OH233653   0.922   2.729   2.362 -0.2715 -0.3474 -0.1118
11237TIP3    H133654   0.863   2.660   2.334 -1.1859  1.3027 -2.5412
11237TIP3    H233655   0.899   2.804   2.307  2.7403  0.9758  0.2702
11238TIP3   OH233656   0.163   1.910   3.751 -0.3421  0.0730  0.3483
11238TIP3    H133657   0.245   1.958   3.748  0.3939 -1.1378 -2.5115
11238TIP3    H233658   0.110   1.947   3.680 -1.7032 -0.1148  1.2262
11239TIP3   OH233659   1.727   0.598   1.622  0.3056 -0.1758  0.3953
11239TIP3    H133660   1.763   0.654   1.691  0.9514  0.6425 -0.5879
11239TIP3    H233661   1.692   0.659   1.557 -1.0834 -0.9478  0.3965
11240TIP3   OH233662   2.861   4.800   5.002 -0.1398 -0.3144 -0.0167
11240TIP3    H133663   2.931   4.763   5.055  0.3594 -0.0476 -0.4773
11240TIP3    H233664   2.834   4.879   5.049 -1.5113 -1.4386  1.2031
11241TIP3   OH233665   5.527   3.971   1.648  0.5506 -0.1745  0.2745
11241TIP3    H133666   5.567   3.915   1.714 -0.7708 -0.1995  1.0955
11241TIP3    H233667   5.539   4.060   1.680  0.2968 -0.1585  0.3272
11242TIP3   OH233668   7.138   1.750   5.492  0.0730  0.4364 -0.2088
11242TIP3    H133669   7.057   1.784   5.528 -0.0911 -0.6956  0.5525
11242TIP3    H233670   7.110   1.699   5.416  0.0959  0.2921 -0.1213
11243TIP3   OH233671   5.814   1.437   1.722  0.1005 -0.1822 -0.2351
11243TIP3    H133672   5.903   1.414   1.696  1.0550  0.2631  2.4145
11243TIP3    H233673   5.825   1.510   1.783 -1.9027 -1.4136  1.7450
11244TIP3   OH233674   0.803   3.931   1.281  0.4390  0.1637  0.0520
11244TIP3    H133675   0.727   3.893   1.325 -0.3979  1.7487  0.0361
11244TIP3    H233676   0.862   3.954   1.353 -0.3419  1.5019  0.3093
11245TIP3   OH233677   5.602   0.660   1.492 -0.3307 -0.2096  0.3133
11245TIP3    H133678   5.655   0.729   1.532 -1.6131 -0.2068  2.1425
11245TIP3    H233679   5.626   0.580   1.539 -0.1675 -0.6781 -0.5444
11246TIP3   OH233680   6.831   5.542   4.305  0.4104 -0.3663  0.5953
11246TIP3    H133681   6.904   5.534   4.367  0.3791  0.6211  0.7822
11246TIP3    H233682   6.811   5.452   4.280  0.9942 -0.7237  1.3557
11247TIP3   OH233683   5.356   3.704   0.268  0.1539  0.6707 -0.1981
11247TIP3    H133684   5.352   3.625   0.214  0.3828  0.6214 -0.1435
11247TIP3    H233685   5.267   3.738   0.267 -0.0605  0.1421  0.1786
11248TIP3   OH233686   0.308   3.009   3.343  0.2664 -0.3851  0.0363
11248TIP3    H133687   0.320   2.942   3.276 -2.2073 -1.2561  0.3624
11248TIP3    H233688   0.261   3.080   3.299  2.3789  0.9853 -0.1610
11249TIP3   OH233689   1.056   6.138   6.555 -0.1522  0.3037 -0.2437
11249TIP3    H133690   1.084   6.227   6.537 -2.0638  0.8797 -0.5646
11249TIP3    H233691   1.000   6.115   6.482 -0.0752 -1.0017  0.0790
11250TIP3   OH233692   3.083   4.364   1.361  0.2653 -0.7545 -0.2008
11250TIP3    H133693   3.065   4.320   1.444 -1.3337  1.7790  0.9472
11250TIP3    H233694   3.160   4.417   1.378 -0.0950 -0.1918 -0.2797
11251TIP3   OH233695   8.221   7.300   3.359  0.2595 -0.2851  0.4073
11251TIP3    H133696   8.303   7.251   3.365  2.1306  2.4622 -0.4187
11251TIP3    H233697   8.249   7.391   3.344 -2.9766  0.7346 -0.2349
11252TIP3   OH233698   7.855   6.456   4.118 -0.3020 -0.2545 -0.4574
11252TIP3    H133699   7.860   6.530   4.179 -0.9275 -1.0001  0.5092
11252TIP3    H233700   7.946   6.443   4.089  0.1498 -0.4494  0.9880
11253TIP3   OH233701   2.377   7.390   3.115 -0.2713  0.8333 -0.2893
11253TIP3    H133702   2.367   7.416   3.024  0.4042  0.3255 -0.5144
11253TIP3    H233703   2.311   7.441   3.162 -0.9074  0.7765 -1.1146
11254TIP3   OH233704   3.263   4.164   5.043 -0.3540  0.0510  0.1194
11254TIP3    H133705   3.353   4.167   5.011  0.4578  0.0840  2.2346
11254TIP3    H233706   3.238   4.072   5.037 -0.0390 -0.0181 -0.1391
11255TIP3   OH233707   2.423   0.880   2.708 -0.3220  0.0112  0.1314
11255TIP3    H133708   2.378   0.962   2.726 -0.7713 -0.1707 -0.1649
11255TIP3    H233709   2.509   0.907   2.675 -0.1269  0.3564  0.8866
11256TIP3   OH233710   6.781   2.164   6.041  0.0608 -0.2908  0.5122
11256TIP3    H133711   6.864   2.134   6.003  0.0767 -1.6523  1.5180
11256TIP3    H233712   6.722   2.175   5.966  1.1542  0.7728 -0.2268
11257TIP3   OH233713   0.361   2.613   4.211 -0.0545 -0.2565 -0.3187
11257TIP3    H133714   0.383   2.690   4.159 -1.0088 -0.8116 -1.5971
11257TIP3    H233715   0.343   2.544   4.147 -0.1143 -1.2996  0.7743
11258TIP3   OH233716   3.705   6.505   0.339  0.0086 -0.0228 -0.3842
11258TIP3    H133717   3.718   6.511   0.433  0.4389 -1.1883 -0.3586
11258TIP3    H233718   3.793   6.513   0.302 -0.0347 -0.5940 -0.6210
11259TIP3   OH233719   4.659   0.089   5.857  0.6049  0.1027 -0.1843
11259TIP3    H133720   4.654   0.183   5.876  1.6423  0.0314  0.4986
11259TIP3    H233721   4.694   0.085   5.768  1.0096  0.3708 -0.0430
11260TIP3   OH233722   3.290   6.186   2.525  0.5369  0.3531 -0.1437
11260TIP3    H133723   3.246   6.175   2.441  1.4077  2.3930 -0.9334
11260TIP3    H233724   3.226   6.157   2.590 -0.4135 -0.5838 -1.4518
11261TIP3   OH233725   3.189   7.264   6.058  0.3760  0.0723 -0.3016
11261TIP3    H133726   3.260   7.253   5.995  1.1323  1.7560  0.1864
11261TIP3    H233727   3.129   7.324   6.015  0.6399  0.8188  0.3459
11262TIP3   OH233728   6.139   1.896   1.351 -0.2574 -0.2955  0.4095
11262TIP3    H133729   6.205   1.953   1.391 -0.5382 -0.2245  0.7792
11262TIP3    H233730   6.131   1.928   1.261 -0.5420  0.3701  0.6654
11263TIP3   OH233731   4.009   6.256   4.823  0.0983  0.3792 -0.1128
11263TIP3    H133732   4.102   6.239   4.840 -0.3203 -0.5380  1.4820
11263TIP3    H233733   3.984   6.317   4.893 -0.2492  1.5228 -1.2112
11264TIP3   OH233734   6.843   5.851   3.497 -0.7329 -0.0151 -0.7565
11264TIP3    H133735   6.755   5.862   3.533 -0.5252 -2.3801  0.6386
11264TIP3    H233736   6.866   5.760   3.516  1.2461 -0.0548 -2.8662
11265TIP3   OH233737   8.003   2.623   0.460  0.1985  0.0006  0.2359
11265TIP3    H133738   8.020   2.651   0.370  1.3927 -1.8919 -0.1856
11265TIP3    H233739   7.913   2.590   0.458 -0.0183  0.5847 -0.0800
11266TIP3   OH233740   6.238   6.698   0.144 -0.0502  0.5576  0.2540
11266TIP3    H133741   6.189   6.669   0.067 -1.2486 -0.3847  1.3407
11266TIP3    H233742   6.208   6.642   0.215  1.9706  0.5368  1.1710
11267TIP3   OH233743   5.966   5.856   1.431 -0.0638 -0.0090  0.7801
11267TIP3    H133744   5.983   5.794   1.502  1.6458 -1.8424 -1.1123
11267TIP3    H233745   6.051   5.893   1.409 -0.6488  0.9766  0.0501
11268TIP3   OH233746   2.994   0.376   5.435  0.2543  0.0579 -0.1795
11268TIP3    H133747   3.061   0.436   5.402 -1.0700  0.2041 -2.8645
11268TIP3    H233748   2.987   0.308   5.368 -2.6065  0.3413 -0.2918
11269TIP3   OH233749   3.370   5.040   6.381 -0.1804 -0.7535 -0.2110
11269TIP3    H133750   3.304   5.030   6.313 -0.1285 -1.8496 -0.1168
11269TIP3    H233751   3.367   5.133   6.404 -1.6127 -0.7682 -0.2756
11270TIP3   OH233752   6.116   3.687   5.597 -0.1203 -0.3765  0.4132
11270TIP3    H133753   6.076   3.626   5.660  0.4266 -2.3891 -1.0664
11270TIP3    H233754   6.209   3.689   5.622 -0.2435  0.3786  0.8378
11271TIP3   OH233755   3.066   4.208   0.973 -0.3472  0.3381  0.2548
11271TIP3    H133756   3.108   4.293   0.981 -1.6499  0.9140  1.3972
11271TIP3    H233757   2.988   4.224   0.921  0.4136 -0.5869 -1.2644
11272TIP3   OH233758   4.995   2.903   5.496 -0.2209  0.3138  0.0363
11272TIP3    H133759   4.974   2.996   5.498 -0.8878  0.3115 -2.8821
11272TIP3    H233760   5.019   2.882   5.587 -1.7412  2.8939  1.1471
11273TIP3   OH233761   2.665   4.865   3.906  0.3316 -0.2368  0.6174
11273TIP3    H133762   2.717   4.944   3.913  1.9973 -1.2933  0.6403
11273TIP3    H233763   2.582   4.894   3.867  1.0949  1.4116  0.1500
11274TIP3   OH233764   4.364   4.048   3.917 -0.4077  0.0834 -0.3613
11274TIP3    H133765   4.307   4.118   3.886 -0.0453  1.0608  1.0647
11274TIP3    H233766   4.365   4.059   4.012  2.5458  0.4253 -0.3556
11275TIP3   OH233767   7.470   4.410   6.103  0.0944 -0.6416 -0.3495
11275TIP3    H133768   7.560   4.407   6.135  0.2449 -1.0116 -0.7952
11275TIP3    H233769   7.418   4.437   6.179  0.7541  1.1152 -0.4810
11276TIP3   OH233770   7.829   0.485   0.091  0.2488 -0.3980  0.1461
11276TIP3    H133771   7.839   0.455   0.000 -0.0481 -2.5026  0.7552
11276TIP3    H233772   7.792   0.573   0.083  0.0971 -0.5880 -1.7635
11277TIP3   OH233773   0.963   2.262   2.570  0.4513  0.3393  0.8974
11277TIP3    H133774   0.910   2.337   2.601 -0.5414 -0.2767  0.7408
11277TIP3    H233775   0.899   2.194   2.552  0.9972  0.4568 -2.0116
11278TIP3   OH233776   2.603   7.783   2.893  0.2803 -0.2011 -0.0785
11278TIP3    H133777   2.681   7.838   2.892 -0.6855  1.3397  1.6494
11278TIP3    H233778   2.541   7.828   2.836 -0.0140 -0.3048  0.1552
11279TIP3   OH233779   4.622   3.548   0.466  0.0264 -0.3604  0.0660
11279TIP3    H133780   4.699   3.534   0.521  0.3065 -2.3278 -0.7443
11279TIP3    H233781   4.581   3.626   0.502  0.0506 -1.6806  3.2527
11280TIP3   OH233782   4.748   1.842   4.332 -0.0496  0.1716 -0.2982
11280TIP3    H133783   4.677   1.902   4.354 -0.3296 -0.6007  0.9394
11280TIP3    H233784   4.712   1.755   4.344  1.1579 -0.2371  0.5839
11281TIP3   OH233785   1.615   2.410   6.626 -0.0984  0.2564  0.1232
11281TIP3    H133786   1.616   2.361   6.707  1.9165 -0.7112 -0.4413
11281TIP3    H233787   1.684   2.476   6.636  0.9957 -0.6392 -1.2124
11282TIP3   OH233788   5.721   1.026   1.028 -0.0132  0.0202  0.9811
11282TIP3    H133789   5.705   1.036   0.935 -0.7912  1.1064  1.2173
11282TIP3    H233790   5.792   0.962   1.033  0.0474 -0.0436 -0.3464
11283TIP3   OH233791   5.605   1.591   0.039  0.1105 -0.4255 -0.1996
11283TIP3    H133792   5.579   1.679   0.012 -2.5744  0.1386  3.4283
11283TIP3    H233793   5.538   1.533   0.001  0.0368 -0.4589 -0.0221
11284TIP3   OH233794   2.733   2.635   6.668 -0.3914  0.0856  0.2462
11284TIP3    H133795   2.677   2.707   6.638  0.1671  0.3817 -0.1041
11284TIP3    H233796   2.748   2.653   6.760  1.4960  1.6277 -0.3030
11285TIP3   OH233797   2.385   2.885   2.569  0.0438 -0.1007 -0.4538
11285TIP3    H133798   2.451   2.872   2.501 -0.0323 -0.9886 -0.3744
11285TIP3    H233799   2.427   2.858   2.650  0.1318  0.9552 -0.1396
11286TIP3   OH233800   5.023   7.063   3.042 -0.1456  0.1616  0.2106
11286TIP3    H133801   5.107   7.050   2.997 -0.2518  1.2536 -0.3407
11286TIP3    H233802   4.971   6.986   3.018 -0.3621  0.9056 -1.9656
11287TIP3   OH233803   4.978   6.277   1.896 -0.2324  0.0736  0.0319
11287TIP3    H133804   4.976   6.181   1.895 -1.7791  0.0783  0.3043
11287TIP3    H233805   4.903   6.303   1.842 -0.4839  1.1211  0.8553
11288TIP3   OH233806   4.494   6.538   0.467 -0.4957 -0.3395 -0.0311
11288TIP3    H133807   4.410   6.571   0.499 -1.2037 -1.7241 -0.3674
11288TIP3    H233808   4.497   6.566   0.375  0.0148  0.7962  0.3152
11289TIP3   OH233809   2.781   0.544   6.621 -0.5318 -0.3245 -0.2260
11289TIP3    H133810   2.709   0.605   6.638 -0.6834 -0.4839 -0.2868
11289TIP3    H233811   2.738   0.459   6.610 -0.4484 -0.2240 -1.4283
11290TIP3   OH233812   6.182   2.359   1.962  0.6865  0.4186  0.2742
11290TIP3    H133813   6.159   2.392   2.049  0.5327  0.3711  0.2521
11290TIP3    H233814   6.150   2.269   1.961 -0.0341  0.6624 -0.1087
11291TIP3   OH233815   7.968   5.151   1.503  0.3707 -0.0585 -0.0562
11291TIP3    H133816   7.879   5.117   1.510  0.0886  0.5016 -0.8880
11291TIP3    H233817   8.010   5.096   1.436  0.5953 -0.1916  0.1896
11292TIP3   OH233818   6.109   7.761   6.355 -0.2838  0.3179  0.3208
11292TIP3    H133819   6.088   7.687   6.298  0.0383  0.7557 -0.3939
11292TIP3    H233820   6.072   7.738   6.440  0.3736 -0.9482  0.2898
11293TIP3   OH233821   7.333   1.925   0.851  0.4586  0.0671  0.0067
11293TIP3    H133822   7.415   1.972   0.872  0.5455  0.1091 -0.4276
11293TIP3    H233823   7.271   1.995   0.829  0.7674 -0.0394 -1.2822
11294TIP3   OH233824   1.330   0.929   3.320 -0.1193  0.0182  0.7592
11294TIP3    H133825   1.407   0.985   3.327 -0.4538  0.3151  2.5218
11294TIP3    H233826   1.327   0.882   3.403 -1.8801  0.0739  0.7596
11295TIP3   OH233827   0.988   1.102   0.952 -0.1160 -0.1138  0.6540
11295TIP3    H133828   1.017   1.071   1.038  1.5041  2.0271  0.9676
11295TIP3    H233829   0.896   1.123   0.964  0.1733  0.5009  2.0165
11296TIP3   OH233830   1.234   4.426   0.856  0.4334 -0.3439  0.6046
11296TIP3    H133831   1.262   4.342   0.892  1.5433 -0.8384 -1.3262
11296TIP3    H233832   1.144   4.411   0.828 -0.6501  0.1886  3.4458
11297TIP3   OH233833   5.550   2.665   3.838  0.6479  0.1672  0.3512
11297TIP3    H133834   5.560   2.713   3.755  1.3381 -0.8116 -0.1560
11297TIP3    H233835   5.479   2.603   3.820  1.6970 -0.9876 -0.0000
11298TIP3   OH233836   0.117   3.936   0.932 -0.5886 -0.2338  0.8363
11298TIP3    H133837   0.030   3.963   0.901 -1.0942  0.0663  2.4363
11298TIP3    H233838   0.100   3.876   1.004  0.5411 -0.5510  0.8599
11299TIP3   OH233839   0.850   3.188   5.131 -0.0694  0.5569  0.0050
11299TIP3    H133840   0.814   3.202   5.219  0.6831  0.1468  0.3878
11299TIP3    H233841   0.774   3.195   5.073 -0.7256 -0.0714  0.7658
11300TIP3   OH233842   7.356   2.850   1.665  0.2228  0.2911 -0.1393
11300TIP3    H133843   7.304   2.775   1.696  0.9914 -0.6306 -0.9947
11300TIP3    H233844   7.414   2.871   1.738 -1.4427  1.4684  0.9086
11301TIP3   OH233845   5.104   6.061   6.590  0.0365 -0.5546  0.4332
11301TIP3    H133846   5.112   6.096   6.679  1.0664  0.5783 -0.0709
11301TIP3    H233847   5.028   6.004   6.593 -1.2724  1.1495  1.5113
11302TIP3   OH233848   1.208   5.040   5.424  0.0572 -0.3418 -0.1156
11302TIP3    H133849   1.188   4.968   5.484 -1.7559 -0.0677 -0.3214
11302TIP3    H233850   1.159   5.020   5.345  0.8157  0.3209 -0.7724
11303TIP3   OH233851   6.781   0.913   0.142 -0.1400 -0.4766 -0.0193
11303TIP3    H133852   6.716   0.922   0.072 -1.1378 -0.7657  0.8323
11303TIP3    H233853   6.741   0.957   0.217 -0.2610 -2.3492  1.0880
11304TIP3   OH233854   5.656   5.638   5.145 -0.2750  0.1751  0.1269
11304TIP3    H133855   5.662   5.680   5.060 -0.1417 -0.7195 -0.3231
11304TIP3    H233856   5.724   5.571   5.144  0.4329  0.8511  1.3581
11305TIP3   OH233857   4.889   1.934   2.409  0.2215  0.3583 -0.4065
11305TIP3    H133858   4.939   1.993   2.352  1.3622  1.2781  1.4572
11305TIP3    H233859   4.809   1.916   2.360  0.0375  3.0845 -1.2806
11306TIP3   OH233860   3.367   5.577   2.037  0.2738 -0.3104 -0.2055
11306TIP3    H133861   3.391   5.669   2.047  0.2890 -0.4850  1.7076
11306TIP3    H233862   3.301   5.576   1.968  0.7540  1.0396 -0.7094
11307TIP3   OH233863   2.499   4.366   5.177  0.2470  0.3597 -0.1746
11307TIP3    H133864   2.489   4.284   5.225 -0.4047  0.7945  0.4506
11307TIP3    H233865   2.469   4.346   5.088 -0.2679  0.0192  0.0728
11308TIP3   OH233866   2.805   2.777   2.809 -0.3030  0.7769 -0.2076
11308TIP3    H133867   2.790   2.863   2.771  0.2066  0.4603 -1.1359
11308TIP3    H233868   2.900   2.765   2.807 -0.3968 -0.0072 -0.5571
11309TIP3   OH233869   7.694   1.892   5.488  0.4726  0.2678 -0.3368
11309TIP3    H133870   7.636   1.900   5.412 -1.5930  0.4794  1.1862
11309TIP3    H233871   7.637   1.901   5.563  2.6288  1.3606  1.2937
11310TIP3   OH233872   5.915   0.259   2.880  0.6009 -0.3954  0.0396
11310TIP3    H133873   5.906   0.226   2.970  0.2456  0.4301  0.3199
11310TIP3    H233874   5.969   0.194   2.836 -2.4795 -2.9519 -0.2905
11311TIP3   OH233875   2.436   7.280   5.408  0.3172  0.0021 -0.1452
11311TIP3    H133876   2.410   7.258   5.498 -1.0146 -0.7346 -0.6816
11311TIP3    H233877   2.513   7.335   5.419 -0.8734  1.4866  1.5349
11312TIP3   OH233878   2.157   7.531   0.934  0.3133 -0.4633 -0.0358
11312TIP3    H133879   2.184   7.469   0.865  0.3148 -0.3411 -0.1448
11312TIP3    H233880   2.238   7.576   0.958 -0.1187  1.3701 -1.8080
11313TIP3   OH233881   7.594   3.913   2.696 -0.4661 -0.3938 -0.5744
11313TIP3    H133882   7.562   3.989   2.648 -0.8989 -0.2342 -0.0355
11313TIP3    H233883   7.689   3.925   2.699 -0.4619 -0.2612 -1.1368
11314TIP3   OH233884   3.040   4.745   5.993 -0.1676 -0.5177 -0.0637
11314TIP3    H133885   3.022   4.739   6.087 -0.0310 -1.0884 -0.0665
11314TIP3    H233886   2.989   4.673   5.956 -0.1832 -0.3204 -0.4239
11315TIP3   OH233887   5.468   5.722   3.858 -0.7290 -0.0003  0.3628
11315TIP3    H133888   5.563   5.734   3.853 -0.9170  1.5015 -3.3033
11315TIP3    H233889   5.436   5.805   3.894 -0.7408  1.0080 -1.8148
11316TIP3   OH233890   0.912   4.295   1.042  0.0899  0.1996 -0.6768
11316TIP3    H133891   0.870   4.378   1.065 -1.6628 -0.4197 -1.4803
11316TIP3    H233892   0.950   4.311   0.956 -0.9125 -0.0441 -1.1723
11317TIP3   OH233893   3.847   6.730   0.020 -0.0633 -0.0270  0.2449
11317TIP3    H133894   3.830   6.673  -0.055  0.2601  0.0070  0.1446
11317TIP3    H233895   3.761   6.765   0.043 -0.1941 -0.1916  0.0136
11318TIP3   OH233896   0.863   7.024   2.181 -0.1462 -0.1281  0.5556
11318TIP3    H133897   0.838   7.113   2.158  1.1455 -0.4247 -2.4708
11318TIP3    H233898   0.793   6.993   2.238 -1.6342  2.1586  0.0832
11319TIP3   OH233899   5.998   4.704   0.729 -0.2994  0.0231  0.6021
11319TIP3    H133900   6.066   4.647   0.764  1.6715  1.6178 -0.3893
11319TIP3    H233901   5.963   4.656   0.653  1.3996  0.1318 -0.2823
11320TIP3   OH233902   6.906   0.653   0.896 -0.1651  0.0738 -0.4946
11320TIP3    H133903   7.001   0.659   0.903 -0.0756 -1.1026 -0.4887
11320TIP3    H233904   6.874   0.666   0.986  0.0171  0.0256 -0.4235
11321TIP3   OH233905   1.503   6.949   0.688  0.1887  0.3544  0.3636
11321TIP3    H133906   1.442   6.929   0.759 -0.2959 -1.4767 -0.4798
11321TIP3    H233907   1.467   7.027   0.647 -0.3025  0.6220  1.2780
11322TIP3   OH233908   4.443   0.205   3.244 -0.1731  0.2259 -0.2587
11322TIP3    H133909   4.513   0.250   3.195  0.8243  0.8470  1.6605
11322TIP3    H233910   4.489   0.141   3.298 -1.1978 -0.0921  0.2599
11323TIP3   OH233911   5.556   3.521   2.280 -0.3579  0.4082  0.6458
11323TIP3    H133912   5.492   3.526   2.351 -1.3066  2.1517 -0.2469
11323TIP3    H233913   5.640   3.508   2.323 -1.0097  0.6058  2.0295
11324TIP3   OH233914   4.818   7.545   5.768 -0.1308  0.1949 -0.0451
11324TIP3    H133915   4.784   7.457   5.785  0.4966 -0.2924 -1.2011
11324TIP3    H233916   4.912   7.538   5.785  0.0227  0.4660 -0.7488
11325TIP3   OH233917   4.587   4.168   3.640  0.0709 -0.1780  0.6033
11325TIP3    H133918   4.679   4.195   3.631  0.1890 -0.4292  1.0268
11325TIP3    H233919   4.539   4.250   3.654  0.1687  0.0006 -0.0697
11326TIP3   OH233920   0.217   3.557   3.691  0.0407 -0.1262 -0.2316
11326TIP3    H133921   0.125   3.540   3.710  0.3135 -0.6440  0.6935
11326TIP3    H233922   0.259   3.471   3.696  0.4649  0.0072 -1.3064
11327TIP3   OH233923   5.847   1.981   4.570 -0.2487 -0.2327  0.0323
11327TIP3    H133924   5.756   1.957   4.555 -0.1514 -0.5499 -0.0551
11327TIP3    H233925   5.872   2.030   4.492 -0.7993  1.1937  0.7231
11328TIP3   OH233926   3.314   1.770   2.690 -0.1842 -0.2148  0.5648
11328TIP3    H133927   3.361   1.853   2.695  0.0019 -0.3522  1.3115
11328TIP3    H233928   3.369   1.708   2.738  0.4937 -1.1918 -1.3591
11329TIP3   OH233929   0.986   6.022   5.018 -0.0815  0.7243 -0.2060
11329TIP3    H133930   1.027   5.958   5.076 -1.4456 -0.4376 -0.4661
11329TIP3    H233931   1.008   6.106   5.057  1.6668  0.1201  0.2109
11330TIP3   OH233932   2.585   1.282   6.036  0.2593 -0.3510 -0.3964
11330TIP3    H133933   2.675   1.279   6.004  0.1117  1.0710 -1.0084
11330TIP3    H233934   2.554   1.369   6.013 -1.3322 -0.8659 -0.3204
11331TIP3   OH233935   2.121   7.339   1.514 -0.2436 -0.2881 -0.2346
11331TIP3    H133936   2.131   7.412   1.575  0.9007  0.7798 -1.6151
11331TIP3    H233937   2.159   7.264   1.559  0.3190  0.4133  0.4812
11332TIP3   OH233938   0.159   5.453   2.686  0.7055  0.1651 -0.1020
11332TIP3    H133939   0.254   5.441   2.674  0.7075  0.5689 -0.4847
11332TIP3    H233940   0.142   5.542   2.656  0.3685  0.4722  0.9596
11333TIP3   OH233941   4.544   0.958   5.162  0.1690  0.2127  0.2512
11333TIP3    H133942   4.571   0.921   5.078  0.7294 -0.3051  0.6509
11333TIP3    H233943   4.599   1.036   5.172  0.8234 -0.2804  0.5923
11334TIP3   OH233944   0.324   6.083   2.723  0.0605  0.3436 -0.0089
11334TIP3    H133945   0.290   6.054   2.639 -1.4733  1.0597  0.3089
11334TIP3    H233946   0.378   6.159   2.703 -0.0641  0.3337 -0.3779
11335TIP3   OH233947   1.839   6.328   1.542 -1.3611  0.7930 -0.0458
11335TIP3    H133948   1.814   6.417   1.517 -3.2447  0.1380 -0.7371
11335TIP3    H233949   1.825   6.276   1.463 -0.2801 -0.1203  0.3446
11336TIP3   OH233950   1.261   5.743   3.299 -0.2433 -0.3400  0.0503
11336TIP3    H133951   1.355   5.745   3.281 -0.7318  0.8232 -2.9635
11336TIP3    H233952   1.237   5.651   3.293  0.5164 -0.5087 -0.4748
11337TIP3   OH233953   0.932   1.521   0.634 -0.0750 -0.2367 -0.4139
11337TIP3    H133954   0.968   1.552   0.550  1.4773 -0.7769  0.0280
11337TIP3    H233955   0.859   1.465   0.609  0.5278 -0.5955 -1.4431
11338TIP3   OH233956   6.797   7.633   4.932  0.3567 -0.2551 -0.7647
11338TIP3    H133957   6.824   7.717   4.895  0.7226  0.5015  1.1108
11338TIP3    H233958   6.843   7.568   4.879  0.8451  0.7619 -1.6269
11339TIP3   OH233959   5.707   6.970   6.123  0.2686  0.1273  0.2882
11339TIP3    H133960   5.784   6.918   6.148  0.8139  0.7566 -0.0490
11339TIP3    H233961   5.719   6.988   6.030 -0.3410  0.1510  0.2109
11340TIP3   OH233962   1.547   6.282   1.427 -0.3582 -0.4964 -0.0788
11340TIP3    H133963   1.585   6.232   1.500  1.8802  1.5248  0.2839
11340TIP3    H233964   1.518   6.364   1.468  0.7163  0.5701 -1.3446
11341TIP3   OH233965   2.032   1.220   2.224 -0.6491 -0.1654  0.1121
11341TIP3    H133966   2.037   1.315   2.235  2.3919 -0.0444 -1.2497
11341TIP3    H233967   1.945   1.196   2.257 -1.9921  3.1979 -0.6035
11342TIP3   OH233968   6.376   6.204   5.899 -0.0470 -0.3688 -0.4557
11342TIP3    H133969   6.305   6.259   5.932 -0.1400 -1.3969  1.1891
11342TIP3    H233970   6.432   6.188   5.975  0.8606 -1.2081 -1.2679
11343TIP3   OH233971   6.987   3.826   4.790 -0.6362 -0.3386  0.1059
11343TIP3    H133972   6.993   3.921   4.784  0.8405 -0.3633  0.8070
11343TIP3    H233973   6.969   3.809   4.882  0.3816 -0.7734  0.2341
11344TIP3   OH233974   3.532   7.647   6.249 -0.2457 -0.1670  0.1551
11344TIP3    H133975   3.581   7.619   6.326 -0.9807 -0.2929  0.5898
11344TIP3    H233976   3.459   7.585   6.244 -0.9517  0.6488  0.1454
11345TIP3   OH233977   6.405   4.201   6.298 -0.2572 -0.0298  0.1715
11345TIP3    H133978   6.373   4.178   6.385  1.7771  0.9555  1.2614
11345TIP3    H233979   6.493   4.164   6.295  0.8584  2.4615 -0.2617
11346TIP3   OH233980   5.622   2.159   6.488 -0.6100  0.3750  0.4446
11346TIP3    H133981   5.649   2.143   6.578 -0.2766  0.2943  0.3331
11346TIP3    H233982   5.669   2.238   6.462 -0.3137  0.1139  0.1785
11347TIP3   OH233983   5.951   3.337   0.362  0.1983 -0.0110  0.1406
11347TIP3    H133984   6.008   3.289   0.302  0.1610  0.3341 -0.1770
11347TIP3    H233985   5.933   3.420   0.316  0.8145  0.5976  0.9634
11348TIP3   OH233986   2.188  -0.014   0.135  0.1124 -0.2839 -0.1349
11348TIP3    H133987   2.205   0.077   0.161  0.2360  0.1106 -1.5384
11348TIP3    H233988   2.237  -0.025   0.054  0.3140 -1.6984  0.1621
11349TIP3   OH233989   0.823   2.320   6.612  0.0843 -0.4751  0.4326
11349TIP3    H133990   0.843   2.357   6.526  1.1651 -0.1178  0.8155
11349TIP3    H233991   0.788   2.233   6.594 -1.0000  0.1095 -0.4205
11350TIP3   OH233992   1.445   6.607   2.375 -0.6367  0.1974  0.2878
11350TIP3    H133993   1.415   6.697   2.363 -1.1836  0.0500  0.5587
11350TIP3    H233994   1.426   6.586   2.466 -0.3471 -0.1310  0.2763
11351TIP3   OH233995   4.351   2.482   5.775  0.0487 -0.0591  0.0420
11351TIP3    H133996   4.413   2.448   5.710 -2.0209  0.0086 -2.0896
11351TIP3    H233997   4.391   2.564   5.806  1.6733 -0.7343 -0.1520
11352TIP3   OH233998   3.216   7.638   5.420  0.0511 -0.2092 -0.7557
11352TIP3    H133999   3.125   7.613   5.437 -0.1182  0.7931 -0.1336
11352TIP3    H234000   3.263   7.554   5.416 -0.5391 -0.6631  1.0305
11353TIP3   OH234001   5.137   4.156   0.787  0.0354 -0.5174  0.0063
11353TIP3    H134002   5.206   4.209   0.827 -0.3904 -0.6419  0.9336
11353TIP3    H234003   5.057   4.182   0.833 -0.2744 -1.5521  0.0770
11354TIP3   OH234004   3.412   0.636   1.251 -0.3489  0.3385 -0.3441
11354TIP3    H134005   3.494   0.685   1.248 -0.2562  0.2206  0.1302
11354TIP3    H234006   3.390   0.620   1.159  0.8687 -0.7959 -0.4747
11355TIP3   OH234007   2.551   2.806   6.575 -0.8816 -0.3291  0.1016
11355TIP3    H134008   2.465   2.766   6.578 -0.9594 -0.1148  1.2479
11355TIP3    H234009   2.559   2.841   6.486 -1.0800 -2.2546 -0.7073
11356TIP3   OH234010   2.302   2.002   2.673 -0.0658  0.1931 -0.2857
11356TIP3    H134011   2.365   2.074   2.672  0.6576 -0.3342  1.6611
11356TIP3    H234012   2.333   1.942   2.605  1.4226  0.0678  0.4717
11357TIP3   OH234013   0.909   2.207   4.724  0.0168 -0.0627 -0.0350
11357TIP3    H134014   0.865   2.231   4.643  1.7291  0.3815 -0.8939
11357TIP3    H234015   0.990   2.164   4.696  0.0211 -1.1081  1.4554
11358TIP3   OH234016   0.384   4.241   2.772  0.8538 -0.5877 -0.3064
11358TIP3    H134017   0.292   4.217   2.778  0.7449 -0.0903  0.1352
11358TIP3    H234018   0.420   4.182   2.706 -0.2105  0.4582 -1.8921
11359TIP3   OH234019   7.600   2.033   2.028 -0.0395  0.7734  0.7339
11359TIP3    H134020   7.511   2.032   1.992 -0.0599 -2.4735  0.5926
11359TIP3    H234021   7.592   1.991   2.114  1.3900 -0.0192  0.5150
11360TIP3   OH234022   4.964   6.051   6.097  0.2840  0.3967  0.0405
11360TIP3    H134023   4.980   6.114   6.027 -1.3607  1.4131  0.5128
11360TIP3    H234024   5.017   6.081   6.170  0.6190  0.3884 -0.2000
11361TIP3   OH234025   4.985   0.062   2.202  0.2821  0.0494 -0.4146
11361TIP3    H134026   4.988  -0.029   2.173 -0.2058 -0.0685 -0.0920
11361TIP3    H234027   4.892   0.083   2.209  0.3763  0.8314 -1.2766
11362TIP3   OH234028   0.998   0.127   6.526 -0.2737  0.3148  0.3449
11362TIP3    H134029   1.076   0.182   6.524 -0.0312 -0.0369  0.1899
11362TIP3    H234030   0.926   0.188   6.506  0.1695  0.2929 -1.5314
11363TIP3   OH234031   0.345   6.349   3.074  0.2631 -0.3439  0.3842
11363TIP3    H134032   0.399   6.409   3.125  0.3339 -0.5529  0.5515
11363TIP3    H234033   0.401   6.323   3.001 -0.4968  1.5538 -0.9701
11364TIP3   OH234034   7.283   1.889   5.025  0.2641  0.3215  0.1249
11364TIP3    H134035   7.352   1.951   5.048  0.0492  0.9393 -0.8545
11364TIP3    H234036   7.323   1.803   5.037  1.8510  0.6634 -2.2412
11365TIP3   OH234037   3.759   7.450   1.311 -0.8184  0.0371  0.3498
11365TIP3    H134038   3.816   7.402   1.251 -0.2085  0.5386  0.5231
11365TIP3    H234039   3.792   7.429   1.398  1.0188  2.5972  0.3905
11366TIP3   OH234040   5.530   3.756   6.345  0.4180  0.0524 -0.4552
11366TIP3    H134041   5.539   3.661   6.342  0.3768  0.0095  0.4337
11366TIP3    H234042   5.544   3.785   6.255 -0.6311 -0.8876 -0.9318
11367TIP3   OH234043   5.346   7.677   1.748 -0.3556  0.3593 -0.2457
11367TIP3    H134044   5.396   7.702   1.670 -2.0509  1.2791 -1.0958
11367TIP3    H234045   5.342   7.582   1.745 -0.4837  0.3867 -1.3503
11368TIP3   OH234046   2.353   4.246   1.393 -0.0636  0.4348 -0.0838
11368TIP3    H134047   2.285   4.309   1.370 -1.9961 -1.1489  1.1035
11368TIP3    H234048   2.435   4.297   1.386 -1.3545  2.5366 -0.9971
11369TIP3   OH234049   7.782   3.906   4.849 -0.2516  0.2879 -0.3856
11369TIP3    H134050   7.755   3.961   4.775  1.5164 -0.9529 -2.0559
11369TIP3    H234051   7.877   3.906   4.845 -0.0949  0.3301  2.0708
11370TIP3   OH234052   1.332   2.874   0.470 -0.2214 -0.2248  0.1583
11370TIP3    H134053   1.389   2.801   0.492 -0.2968 -0.2617  0.2294
11370TIP3    H234054   1.372   2.950   0.512 -0.6430 -0.3808  0.8471
11371TIP3   OH234055   0.718   7.301   0.609 -0.2446 -0.4657 -0.1315
11371TIP3    H134056   0.758   7.221   0.577  0.5645  0.1094 -0.5863
11371TIP3    H234057   0.788   7.347   0.656 -0.8610 -0.3091  0.6717
11372TIP3   OH234058   6.408   7.244   3.275 -0.5404  0.6103  0.0500
11372TIP3    H134059   6.386   7.336   3.261  0.1087  0.9252  0.9781
11372TIP3    H234060   6.337   7.210   3.329 -0.6155  0.6558 -0.0207
11373TIP3   OH234061   1.820   1.661   4.945 -0.0530 -0.4184  0.0867
11373TIP3    H134062   1.874   1.582   4.955 -2.1047 -1.8328  0.6716
11373TIP3    H234063   1.877   1.723   4.900  1.7279 -2.1565 -0.2117
11374TIP3   OH234064   5.636   1.295   1.510  0.0764 -0.2824 -0.6047
11374TIP3    H134065   5.659   1.345   1.589 -0.4636  0.8038 -1.1190
11374TIP3    H234066   5.717   1.250   1.486  1.1219  1.7585 -1.1450
11375TIP3   OH234067   8.200   1.468   0.355 -0.5576 -0.0698 -0.3358
11375TIP3    H134068   8.152   1.438   0.433  0.7386 -0.9097  0.1770
11375TIP3    H234069   8.250   1.544   0.385 -1.5105  0.7764 -0.8548
11376TIP3   OH234070   3.231   0.239   1.012 -0.1613 -0.1701  0.3546
11376TIP3    H134071   3.311   0.291   1.008 -1.0518  1.2274 -0.2657
11376TIP3    H234072   3.179   0.279   1.082 -2.3053  2.0873 -2.2853
11377TIP3   OH234073   8.213   5.334   2.528  0.0716  0.1215 -0.2596
11377TIP3    H134074   8.162   5.370   2.600  1.1735 -0.8293  1.0411
11377TIP3    H234075   8.304   5.352   2.552  0.4345  0.4672 -1.7995
11378TIP3   OH234076   6.605   2.081   1.504 -0.3487  0.0916  0.3981
11378TIP3    H134077   6.632   2.157   1.555  0.8797 -0.6483  0.8799
11378TIP3    H234078   6.683   2.054   1.456 -1.2735  0.3014 -1.3239
11379TIP3   OH234079   6.167   2.894   6.151  0.7530  0.3941  0.0878
11379TIP3    H134080   6.131   2.832   6.088  2.0946 -0.0013 -0.3340
11379TIP3    H234081   6.118   2.877   6.232  0.4144 -0.5213 -0.2928
11380TIP3   OH234082   4.872   2.361   0.933  0.1487 -0.3878  0.0353
11380TIP3    H134083   4.820   2.438   0.957  2.0385  0.8894  0.2657
11380TIP3    H234084   4.902   2.380   0.844  1.0055 -0.6442  0.2665
11381TIP3   OH234085   6.735   3.698   3.113  0.4063 -0.1829 -0.2036
11381TIP3    H134086   6.648   3.691   3.154  0.4016  0.6799 -0.0512
11381TIP3    H234087   6.796   3.673   3.183  0.2736 -1.1022 -0.4039
11382TIP3   OH234088   4.205   6.896   2.516  0.0271 -0.0708  0.0073
11382TIP3    H134089   4.167   6.862   2.596 -1.9631  3.2161  0.6398
11382TIP3    H234090   4.299   6.878   2.524 -0.5460 -3.2242  1.1572
11383TIP3   OH234091   4.349   3.658   5.799  0.0091 -0.6744 -0.0494
11383TIP3    H134092   4.259   3.647   5.769 -0.3473  1.6300 -0.0176
11383TIP3    H234093   4.394   3.699   5.725  0.3713  0.5315  0.8087
11384TIP3   OH234094   3.930   6.291   0.118  0.4471  0.1720 -0.3750
11384TIP3    H134095   3.995   6.281   0.048  1.2089 -1.1359  0.4719
11384TIP3    H234096   3.940   6.381   0.147  0.4869  0.5787 -1.5795
11385TIP3   OH234097   2.018   7.572   5.887  0.3045 -1.2800  0.2710
11385TIP3    H134098   1.983   7.492   5.847 -1.0323 -0.6410  0.1290
11385TIP3    H234099   2.075   7.610   5.820 -0.9597 -0.8554 -0.5804
11386TIP3   OH234100   6.269   1.497   1.450 -0.7922  0.3868 -0.0979
11386TIP3    H134101   6.313   1.460   1.373 -0.3063 -0.5355  0.6035
11386TIP3    H234102   6.340   1.515   1.512 -1.1968  0.9466  0.2091
11387TIP3   OH234103   1.908   4.179   5.381 -0.7063 -0.3644  0.1522
11387TIP3    H134104   1.994   4.212   5.357 -0.9505 -1.4447 -2.5663
11387TIP3    H234105   1.849   4.254   5.371 -0.5441 -0.4025 -1.2866
11388TIP3   OH234106   7.106   1.632   5.258  0.0574  0.0278  0.1091
11388TIP3    H134107   7.031   1.580   5.226 -0.0546 -0.5644  1.2778
11388TIP3    H234108   7.182   1.590   5.219  0.1107 -2.0720  2.2241
11389TIP3   OH234109   8.174   6.702   2.521 -0.2559  0.4012  0.3289
11389TIP3    H134110   8.228   6.624   2.525  0.7757  1.0089 -0.9509
11389TIP3    H234111   8.162   6.728   2.612  0.1494 -0.7252  0.7131
11390TIP3   OH234112   7.519   6.227   4.386 -0.2663 -0.6368  0.8834
11390TIP3    H134113   7.502   6.133   4.397 -0.3060 -0.5460  1.7023
11390TIP3    H234114   7.586   6.247   4.452 -0.6433  0.0163  1.0752
11391TIP3   OH234115   3.643   7.115   4.032  0.4421  0.4456 -0.1705
11391TIP3    H134116   3.596   7.032   4.032  0.3181  0.5149 -0.0786
11391TIP3    H234117   3.703   7.109   4.107 -1.2267  1.3576  1.3205
11392TIP3   OH234118   7.738   1.956   1.294  0.4190 -0.0909 -0.4208
11392TIP3    H134119   7.702   2.035   1.334 -0.6762 -1.5902  1.7732
11392TIP3    H234120   7.810   1.987   1.240 -1.2328  2.5794 -1.2806
11393TIP3   OH234121   2.692   7.014   4.223 -0.2388 -0.2974 -0.4116
11393TIP3    H134122   2.637   6.987   4.150  0.5246 -0.3807 -0.9738
11393TIP3    H234123   2.711   7.106   4.205 -1.2871  0.1220  0.4990
11394TIP3   OH234124   4.457   3.918   6.386  0.4603 -0.0636  0.0798
11394TIP3    H134125   4.485   3.900   6.296 -2.1440 -0.8101 -0.6796
11394TIP3    H234126   4.481   4.009   6.401 -0.6114  0.6609 -2.0826
11395TIP3   OH234127   3.715   1.949   5.209 -0.0092  0.4896  0.0838
11395TIP3    H134128   3.732   1.986   5.122 -0.5871  1.6150  0.4330
11395TIP3    H234129   3.682   2.022   5.260 -0.2504 -0.3034  1.0908
11396TIP3   OH234130   8.213   7.235   1.350 -0.4026 -0.6309  0.7595
11396TIP3    H134131   8.155   7.195   1.416 -1.1749 -0.1709  0.3806
11396TIP3    H234132   8.242   7.316   1.390 -2.1180  0.4350 -0.0125
11397TIP3   OH234133   3.167   6.722   4.769 -0.0668 -0.6192  0.1025
11397TIP3    H134134   3.074   6.734   4.787 -0.5462 -4.0091  0.3956
11397TIP3    H234135   3.211   6.786   4.825 -2.1614  0.3754  0.6810
11398TIP3   OH234136   7.944   2.490   5.186 -0.5757  0.2767  0.0142
11398TIP3    H134137   8.027   2.467   5.143  0.0239 -1.3769  1.8872
11398TIP3    H234138   7.923   2.577   5.153  3.2867  1.9519  1.3887
11399TIP3   OH234139   3.400   3.630   2.489  0.5423  0.0256  0.3581
11399TIP3    H134140   3.481   3.583   2.511  0.4104 -0.1296  0.5211
11399TIP3    H234141   3.340   3.561   2.461 -0.2911 -0.1734  2.4559
11400TIP3   OH234142   3.410   6.099   3.062  0.0337  0.7523  0.3186
11400TIP3    H134143   3.364   6.084   3.144  0.1930 -1.6435  0.0594
11400TIP3    H234144   3.343   6.091   2.995  0.1768  1.0939  0.1331
11401TIP3   OH234145   1.517   4.201   1.792 -0.5737  0.1761  0.4625
11401TIP3    H134146   1.607   4.169   1.781  0.1165  1.9188  0.6930
11401TIP3    H234147   1.527   4.295   1.805 -2.3753  0.2647  1.5138
11402TIP3   OH234148   7.829   4.644   4.013  0.1765 -0.1220 -0.0117
11402TIP3    H134149   7.827   4.568   3.956  1.9179  0.6780 -1.2231
11402TIP3    H234150   7.906   4.631   4.068  0.2293  0.5409  0.0838
11403TIP3   OH234151   7.957   2.956   1.127  0.2516  0.1174 -0.2171
11403TIP3    H134152   7.948   2.864   1.153  1.7564  0.0913  0.3130
11403TIP3    H234153   8.048   2.964   1.098  0.1838  1.4672 -0.1392
11404TIP3   OH234154   3.511   7.632   4.267  0.0719  0.6658 -0.0532
11404TIP3    H134155   3.523   7.638   4.362  2.6335  1.1406 -0.3528
11404TIP3    H234156   3.590   7.590   4.235 -1.0120 -0.0620 -1.9593
11405TIP3   OH234157   2.282   1.114   2.784 -0.7946  0.4168 -0.1180
11405TIP3    H134158   2.364   1.143   2.823 -1.0047  0.8526 -0.0037
11405TIP3    H234159   2.267   1.175   2.712 -0.3053 -0.4880 -1.0355
11406TIP3   OH234160   6.611   6.316   2.677  0.3742  0.0584 -0.2758
11406TIP3    H134161   6.668   6.329   2.752  0.2683  0.4265 -0.2589
11406TIP3    H234162   6.627   6.225   2.651  0.6416  0.0246 -0.0033
11407TIP3   OH234163   7.859   3.154   0.276 -0.4246  0.1267  0.1099
11407TIP3    H134164   7.946   3.178   0.309 -0.4285 -0.8183  0.8527
11407TIP3    H234165   7.877   3.090   0.207 -0.5211  0.0239  0.1803
11408TIP3   OH234166   0.354   7.792   6.526 -0.5296  0.2454 -0.5951
11408TIP3    H134167   0.366   7.724   6.460  0.4240  0.1808 -0.3738
11408TIP3    H234168   0.298   7.857   6.484 -0.6621 -0.2225 -1.1477
11409TIP3   OH234169   5.877   0.332   3.194  0.2165 -0.0864 -0.4106
11409TIP3    H134170   5.881   0.236   3.190 -0.3513 -0.1054 -0.6650
11409TIP3    H234171   5.787   0.353   3.167  0.1190  0.4856  0.3517
11410TIP3   OH234172   4.391   6.105   5.587  0.2718  0.0259 -0.0258
11410TIP3    H134173   4.334   6.045   5.635  0.9264 -0.5259  0.0751
11410TIP3    H234174   4.473   6.105   5.637  0.0059  1.6834  0.4693
11411TIP3   OH234175   4.008   0.220   6.182 -0.1511 -0.2034 -0.1405
11411TIP3    H134176   3.998   0.184   6.270  0.8240 -0.1895 -0.0170
11411TIP3    H234177   4.097   0.195   6.155 -0.8749 -1.3297 -1.6274
11412TIP3   OH234178   2.836   2.087   1.373 -0.0857 -0.5187  0.0927
11412TIP3    H134179   2.789   2.014   1.332 -0.0765 -0.3838 -0.1600
11412TIP3    H234180   2.778   2.162   1.360 -1.2090 -0.9019  2.3889
11413TIP3   OH234181   3.686   1.431   2.303  0.2296 -0.3465 -0.1501
11413TIP3    H134182   3.601   1.475   2.307 -0.1121 -0.9284 -0.7683
11413TIP3    H234183   3.750   1.500   2.320 -0.3227  0.2564 -0.4843
11414TIP3   OH234184   2.042   4.046   3.252 -0.0861  0.4159  0.2844
11414TIP3    H134185   2.041   3.997   3.170  0.1750  1.5580 -0.4209
11414TIP3    H234186   2.086   4.128   3.230  0.8495  0.3539  1.7945
11415TIP3   OH234187   4.876   4.670   5.129  0.0736 -0.4709 -0.0541
11415TIP3    H134188   4.827   4.672   5.212 -1.3872 -0.6980 -0.8699
11415TIP3    H234189   4.888   4.762   5.106  1.3710 -0.3890  0.8949
11416TIP3   OH234190   5.187   4.573   1.548 -0.3415  0.1187 -0.1797
11416TIP3    H134191   5.252   4.636   1.517 -0.3376 -0.9474 -2.5198
11416TIP3    H234192   5.216   4.489   1.514 -0.3460 -1.2693  2.8534
11417TIP3   OH234193   7.533   3.016   6.618  0.5561 -0.6854  0.1781
11417TIP3    H134194   7.448   3.021   6.575  0.0186  0.4995  1.2808
11417TIP3    H234195   7.522   2.948   6.685  1.0551 -1.7711 -0.8106
11418TIP3   OH234196   0.123   0.102   3.768 -0.2927 -0.6706 -0.0596
11418TIP3    H134197   0.120   0.041   3.695 -1.0538  0.3381 -0.9012
11418TIP3    H234198   0.152   0.185   3.730 -1.7406  0.1563  0.5352
11419TIP3   OH234199   7.358   1.042   1.740  0.1149 -0.0836  0.1615
11419TIP3    H134200   7.430   0.987   1.770 -1.8382 -3.2126 -0.5369
11419TIP3    H234201   7.303   1.055   1.817  0.9027  1.6329  0.4963
11420TIP3   OH234202   6.877   5.068   6.248  0.2207  0.4027  0.2420
11420TIP3    H134203   6.926   5.150   6.239  0.4768  0.5695  2.4816
11420TIP3    H234204   6.920   5.007   6.189  1.0610  1.4306 -0.2469
11421TIP3   OH234205   3.642   0.359   5.133  0.1379 -0.1082  0.1343
11421TIP3    H134206   3.605   0.423   5.194 -0.3338 -0.8904  0.6984
11421TIP3    H234207   3.691   0.411   5.070 -1.2277  0.9142 -0.1478
11422TIP3   OH234208   0.419   0.512   6.092  0.1575  1.0787 -0.0701
11422TIP3    H134209   0.445   0.488   6.181  0.3236  0.0154 -0.3902
11422TIP3    H234210   0.352   0.580   6.104  0.1799  0.9487  0.8635
11423TIP3   OH234211   3.451   5.967   0.131  0.3752  0.2265  0.3426
11423TIP3    H134212   3.545   5.980   0.126  0.1400  1.9413 -0.2402
11423TIP3    H234213   3.414   6.056   0.131 -1.2658 -0.4146 -0.1539
11424TIP3   OH234214   3.481   1.549   4.802  0.5405 -0.6901  0.5065
11424TIP3    H134215   3.404   1.525   4.750  0.6763 -2.0551  0.9017
11424TIP3    H234216   3.489   1.644   4.790 -0.7468 -0.6407 -0.1501
11425TIP3   OH234217   5.885   6.925   1.385 -0.3998  0.6260  0.0492
11425TIP3    H134218   5.808   6.869   1.376 -0.1819  0.3434 -0.0877
11425TIP3    H234219   5.857   6.997   1.441 -1.1728  1.2624 -1.1152
11426TIP3   OH234220   7.668   6.618   6.307 -0.3771 -0.4462 -0.1355
11426TIP3    H134221   7.655   6.689   6.243 -1.6184 -0.2171  0.3404
11426TIP3    H234222   7.714   6.550   6.258  1.0395  0.7534 -0.5514
11427TIP3   OH234223   4.052   6.787   4.800 -0.1104  0.6157 -0.0877
11427TIP3    H134224   4.134   6.747   4.829  0.0258  1.1624  0.3015
11427TIP3    H234225   4.039   6.860   4.861 -2.7027 -1.4732  2.0942
11428TIP3   OH234226   5.218   2.137   1.345  0.2249 -0.6414  0.7184
11428TIP3    H134227   5.263   2.116   1.263 -1.2453 -1.3086  0.0232
11428TIP3    H234228   5.268   2.209   1.383 -0.0202  0.9285 -1.6689
11429TIP3   OH234229   5.489   5.998   4.819  0.2122  0.0483  0.2143
11429TIP3    H134230   5.488   6.091   4.840 -0.3642  0.2451 -0.6255
11429TIP3    H234231   5.459   5.994   4.728  1.6121 -0.8366 -0.2336
11430TIP3   OH234232   4.364   6.647   3.899  0.2183 -0.5881 -0.5198
11430TIP3    H134233   4.321   6.597   3.830  1.9064 -0.2685 -1.8723
11430TIP3    H234234   4.448   6.673   3.862  0.3706  1.3112  0.9546
11431TIP3   OH234235   1.993   6.950   4.972  0.0260  0.1286 -0.3451
11431TIP3    H134236   1.973   7.038   5.006  0.1953  0.6195 -1.4792
11431TIP3    H234237   1.920   6.929   4.914  0.3517 -0.1737 -0.6502
11432TIP3   OH234238   4.873   5.589   2.668  0.5691  0.3325  0.1194
11432TIP3    H134239   4.914   5.661   2.717 -0.9745  0.5209  1.2102
11432TIP3    H234240   4.782   5.617   2.656  0.5700 -0.3283 -1.7296
11433TIP3   OH234241   0.149   1.605   6.140 -0.1192  0.2874 -0.2091
11433TIP3    H134242   0.065   1.633   6.103 -1.1401 -1.3327  0.7511
11433TIP3    H234243   0.130   1.520   6.181  1.5497  0.7610  1.7101
11434TIP3   OH234244   6.038   5.438   6.235  0.2183 -0.2864  0.1159
11434TIP3    H134245   6.086   5.504   6.183  0.6039 -1.2869 -0.8310
11434TIP3    H234246   5.985   5.490   6.295  1.7067  0.8896  0.4937
11435TIP3   OH234247   2.907   4.527   5.841  0.0200  0.0331  0.0043
11435TIP3    H134248   2.986   4.532   5.788 -0.1831 -2.3204 -0.6622
11435TIP3    H234249   2.932   4.475   5.917 -0.2196  1.6088  1.1886
11436TIP3   OH234250   5.867   4.301   2.217  0.1885  0.3146  0.1999
11436TIP3    H134251   5.884   4.317   2.310 -0.6951  1.5052  0.1914
11436TIP3    H234252   5.943   4.337   2.172 -0.6324  2.3830  0.3408
11437TIP3   OH234253   5.374   7.697   6.630 -0.1810  1.2130 -0.1437
11437TIP3    H134254   5.349   7.618   6.582 -2.0827  2.2797 -1.0074
11437TIP3    H234255   5.313   7.701   6.703  0.0106  1.7809 -0.0112
11438TIP3   OH234256   3.690   3.652   0.139  0.3004  0.7628  0.0737
11438TIP3    H134257   3.644   3.720   0.188 -2.6235  1.3868 -3.1198
11438TIP3    H234258   3.759   3.699   0.092 -0.1728  1.0906 -0.2967
11439TIP3   OH234259   5.926   3.049   4.675 -0.1100 -0.1120  0.6424
11439TIP3    H134260   5.998   3.023   4.732 -0.0592 -1.2873  0.0566
11439TIP3    H234261   5.896   2.968   4.634 -2.8538  0.0838  2.0692
11440TIP3   OH234262   7.424   0.347   2.936  0.1816 -0.0138  0.2382
11440TIP3    H134263   7.417   0.372   3.028  0.8805 -0.2717  0.3631
11440TIP3    H234264   7.336   0.319   2.912  0.5526 -2.7025  1.6146
11441TIP3   OH234265   1.543   6.914   2.359  0.6044 -0.0988 -0.2550
11441TIP3    H134266   1.561   6.924   2.452  0.4105 -2.9895  0.1646
11441TIP3    H234267   1.625   6.939   2.316  1.4168 -0.8109  0.8342
11442TIP3   OH234268   4.087   4.311   2.093 -0.9511  0.3623 -0.0880
11442TIP3    H134269   4.144   4.307   2.017 -2.1555  1.6769 -1.1086
11442TIP3    H234270   4.106   4.396   2.133 -1.7215  0.5306 -0.0671
11443TIP3   OH234271   6.725   3.756   6.156 -0.3353 -0.0019  0.1122
11443TIP3    H134272   6.721   3.721   6.245 -0.5678  0.7039  0.3802
11443TIP3    H234273   6.695   3.846   6.164  0.7804  0.4396 -0.4990
11444TIP3   OH234274   1.432   0.775   6.279  0.4516  0.5898  0.0014
11444TIP3    H134275   1.343   0.781   6.314  0.8133  1.9194  0.7471
11444TIP3    H234276   1.422   0.791   6.185 -0.3609 -1.6992 -0.3832
11445TIP3   OH234277   4.848   1.436   4.727  0.5437  0.3393 -0.2475
11445TIP3    H134278   4.799   1.358   4.701  0.2159  1.2720 -2.6494
11445TIP3    H234279   4.800   1.470   4.803 -0.4739 -0.6806 -0.4095
11446TIP3   OH234280   2.514   6.664   2.772 -0.4854  0.1100 -0.2215
11446TIP3    H134281   2.493   6.751   2.737 -1.5639  0.0274  0.1698
11446TIP3    H234282   2.430   6.618   2.771  0.2306 -1.2205 -1.2021
11447TIP3   OH234283   3.391   7.635   1.079  0.7497  0.4514  0.2545
11447TIP3    H134284   3.322   7.677   1.131  0.4379  0.5131 -0.1987
11447TIP3    H234285   3.406   7.551   1.122  1.6517  1.1707  1.4036
11448TIP3   OH234286   0.854   1.989   1.824  0.6723 -0.0722  0.1676
11448TIP3    H134287   0.838   2.072   1.868  1.0088  0.1342 -0.1018
11448TIP3    H234288   0.766   1.954   1.807  0.5247  0.3389  0.0693
11449TIP3   OH234289   2.276   7.429   0.677 -0.1686 -0.1464  0.2049
11449TIP3    H134290   2.369   7.443   0.659 -0.1580 -0.0900  0.3066
11449TIP3    H234291   2.231   7.470   0.603 -0.1885  1.4590  1.0715
11450TIP3   OH234292   0.989   0.224   5.191  0.1714  0.0926  0.8617
11450TIP3    H134293   0.997   0.169   5.113 -0.6696  1.7924 -0.5037
11450TIP3    H234294   1.078   0.230   5.226  0.9644  0.8673 -1.1292
11451TIP3   OH234295   0.320   6.070   1.657 -0.3994 -0.1807  0.2371
11451TIP3    H134296   0.402   6.022   1.646 -0.3194  0.1098 -0.4635
11451TIP3    H234297   0.270   6.018   1.721 -0.2233 -1.0824 -0.3417
11452TIP3   OH234298   0.910   0.062   0.634 -0.6275  0.2751  0.0964
11452TIP3    H134299   0.908   0.106   0.718  0.6207 -0.0168  0.2879
11452TIP3    H234300   0.838   0.102   0.584 -1.8723 -0.0662  1.5327
11453TIP3   OH234301   2.499   1.435   0.855  0.2469 -0.4289 -0.1062
11453TIP3    H134302   2.472   1.407   0.942 -0.3941 -2.5369 -0.9201
11453TIP3    H234303   2.573   1.379   0.833 -0.9913 -1.5474 -1.7360
11454TIP3   OH234304   6.699   7.830   2.504  0.1432  0.0968 -0.1485
11454TIP3    H134305   6.768   7.797   2.562 -1.6202 -0.6792  1.5961
11454TIP3    H234306   6.655   7.752   2.471 -0.0294  0.5860 -1.1058
11455TIP3   OH234307   3.082   3.553   4.578 -0.1433  0.0359 -0.3371
11455TIP3    H134308   3.086   3.524   4.487  1.2277 -0.2138 -0.2143
11455TIP3    H234309   3.168   3.589   4.596  0.3904 -1.9452  1.5211
11456TIP3   OH234310   4.483   6.834   4.466  0.3359  0.1693  0.1931
11456TIP3    H134311   4.458   6.819   4.557  0.0876  1.8172  0.4369
11456TIP3    H234312   4.425   6.777   4.415 -1.1792  0.9352  0.9674
11457TIP3   OH234313   7.438   0.477   0.487  0.3716 -0.1029  0.4120
11457TIP3    H134314   7.439   0.440   0.576 -0.7658 -0.7522  0.1713
11457TIP3    H234315   7.358   0.530   0.484 -0.6778 -1.6679 -0.8267
11458TIP3   OH234316   3.740   6.669   3.150  0.0182  0.5214 -0.4471
11458TIP3    H134317   3.651   6.636   3.136 -0.0696  0.3674  0.4212
11458TIP3    H234318   3.778   6.674   3.062 -1.3021  1.8887 -0.9771
11459TIP3   OH234319   5.936   2.509   1.527 -0.5335  0.2723 -0.0572
11459TIP3    H134320   6.011   2.546   1.572  0.2709 -3.0403  1.5998
11459TIP3    H234321   5.971   2.478   1.444 -0.5811  0.6390 -0.2177
11460TIP3   OH234322   4.319   0.316   2.061 -0.0578 -0.4170  0.0585
11460TIP3    H134323   4.361   0.335   2.144  2.0463  0.3292 -1.1048
11460TIP3    H234324   4.264   0.393   2.044  0.8534  0.2227 -0.0399
11461TIP3   OH234325   5.112   6.600   1.463  0.0422 -0.1250  0.7358
11461TIP3    H134326   5.018   6.584   1.456  0.2010 -0.7162 -0.3868
11461TIP3    H234327   5.122   6.656   1.540 -1.1972 -0.2618  1.0128
11462TIP3   OH234328   6.877   3.018   5.788 -0.3101 -0.0536  0.3645
11462TIP3    H134329   6.793   2.978   5.810 -0.8971  0.9085 -0.0745
11462TIP3    H234330   6.857   3.080   5.718  1.0387 -0.9557 -0.8710
11463TIP3   OH234331   5.278   6.909   6.506  0.9971 -0.0720 -0.3525
11463TIP3    H134332   5.339   6.933   6.575  0.3249  0.3006  0.1246
11463TIP3    H234333   5.234   6.830   6.538 -0.8890  1.3256  0.6677
11464TIP3   OH234334   1.290   4.940   3.740  0.3207  0.2038 -0.3889
11464TIP3    H134335   1.201   4.945   3.707  0.7477 -0.1693 -1.6531
11464TIP3    H234336   1.305   5.025   3.781 -0.6766  0.1952  0.0125
11465TIP3   OH234337   1.075   6.506   5.201  0.5572  0.0889 -0.1444
11465TIP3    H134338   0.992   6.548   5.179 -0.1345 -0.5741  1.1278
11465TIP3    H234339   1.131   6.523   5.125 -0.3205  1.6268 -0.5005
11466TIP3   OH234340   7.364   3.772   5.715 -0.5548 -0.4060  0.2412
11466TIP3    H134341   7.335   3.740   5.800 -0.5415 -1.1346 -0.0202
11466TIP3    H234342   7.324   3.859   5.706  1.1093  0.6017  1.8920
11467TIP3   OH234343   7.127   1.989   4.541  0.2493  0.7618  0.2948
11467TIP3    H134344   7.138   1.940   4.623 -0.2886  0.2352  0.0630
11467TIP3    H234345   7.212   2.030   4.526  0.7964 -0.2902  0.3816
11468TIP3   OH234346   5.972   1.827   2.189  0.2221 -0.1261  0.2259
11468TIP3    H134347   5.880   1.845   2.169  0.2627 -1.7809 -1.7151
11468TIP3    H234348   5.971   1.804   2.282 -1.1824  0.6182  0.4322
11469TIP3   OH234349   4.366   5.260   2.762 -0.2762  0.2617 -0.3794
11469TIP3    H134350   4.316   5.182   2.786  1.3397 -0.6608  0.1082
11469TIP3    H234351   4.370   5.312   2.843  0.2451 -0.0585 -0.1984
11470TIP3   OH234352   6.458   3.205   3.775  0.1434  0.5369  0.3261
11470TIP3    H134353   6.518   3.130   3.773 -1.0686 -0.4842  1.0149
11470TIP3    H234354   6.458   3.233   3.867 -0.1004  0.8187  0.2418
11471TIP3   OH234355   7.354   7.780   2.089 -0.7656  0.2378 -0.3475
11471TIP3    H134356   7.345   7.873   2.111  0.1018  0.0155  1.0382
11471TIP3    H234357   7.360   7.779   1.994 -2.6575  1.4220 -0.5465
11472TIP3   OH234358   4.817   1.208   0.624  0.3427  0.3322  0.5289
11472TIP3    H134359   4.910   1.209   0.648  0.6290  2.2143 -0.5146
11472TIP3    H234360   4.805   1.124   0.581  1.9431  0.6641 -0.6630
11473TIP3   OH234361   0.730   2.945   0.958  0.8147 -0.5512 -0.0797
11473TIP3    H134362   0.720   3.020   0.899  0.8837 -1.0622 -0.7513
11473TIP3    H234363   0.753   2.872   0.901 -0.2556 -1.3171  0.4371
11474TIP3   OH234364   0.657   1.071   4.969 -0.2957 -0.0210  0.0571
11474TIP3    H134365   0.658   1.053   4.875 -0.3867 -0.0223  0.0569
11474TIP3    H234366   0.635   0.988   5.010  0.0609 -0.0986  0.0970
11475TIP3   OH234367   7.440   0.249   4.824  0.8639 -0.0394 -0.4187
11475TIP3    H134368   7.369   0.301   4.860  0.0371 -1.3004 -0.1659
11475TIP3    H234369   7.474   0.199   4.899  1.1753 -0.3842 -0.7834
11476TIP3   OH234370   2.244   7.750   6.510  0.6044 -0.2187  0.7400
11476TIP3    H134371   2.269   7.713   6.426 -1.3556  0.6897 -0.2950
11476TIP3    H234372   2.246   7.676   6.570  2.1919 -0.8457 -0.0230
11477TIP3   OH234373   1.069   4.447   6.722 -0.1618 -0.6854  0.7513
11477TIP3    H134374   1.163   4.462   6.722  0.0308 -1.7480  1.9529
11477TIP3    H234375   1.031   4.533   6.744  0.3607  0.2894 -1.8590
11478TIP3   OH234376   6.846   5.568   1.032 -0.2131  0.0280 -0.4553
11478TIP3    H134377   6.851   5.486   0.982 -0.4330 -0.9216  1.0229
11478TIP3    H234378   6.927   5.613   1.009 -0.0157 -0.6603 -1.1947
11479TIP3   OH234379   0.274   3.928   2.598  0.3855  0.2173  0.2719
11479TIP3    H134380   0.331   3.892   2.666  0.6325  1.7500  0.9315
11479TIP3    H234381   0.255   3.854   2.540  0.0375 -1.1794  2.0862
11480TIP3   OH234382   2.785   3.467   5.413  0.1354 -0.2382 -0.3477
11480TIP3    H134383   2.736   3.411   5.352 -0.6839 -0.6580  0.6683
11480TIP3    H234384   2.718   3.521   5.455  0.5750 -0.5843  0.8320
11481TIP3   OH234385   2.277   2.452   6.187  0.0560  0.5892  0.0713
11481TIP3    H134386   2.222   2.485   6.116 -0.7770  0.3725  0.6040
11481TIP3    H234387   2.353   2.414   6.142 -0.3902  0.5786 -0.6981
11482TIP3   OH234388   3.434   3.226   2.605 -0.6877 -0.3102  0.0141
11482TIP3    H134389   3.503   3.159   2.607  0.9001  1.2488  0.3246
11482TIP3    H234390   3.402   3.224   2.515 -0.3688 -1.1852 -0.0989
11483TIP3   OH234391   0.479   2.816   0.543  0.3148  0.2062 -0.0178
11483TIP3    H134392   0.441   2.755   0.479 -0.3043  0.1361  0.3993
11483TIP3    H234393   0.407   2.834   0.603  0.7429  0.6793  0.3583
11484TIP3   OH234394   5.286   7.355   1.971  0.4521  0.4701  0.3237
11484TIP3    H134395   5.370   7.370   2.014  0.3986  1.8824 -0.0019
11484TIP3    H234396   5.239   7.438   1.982 -0.9732 -0.3540  0.6565
11485TIP3   OH234397   3.582   3.961   3.711  0.1999  0.4440 -0.1118
11485TIP3    H134398   3.566   3.963   3.616  1.1687 -1.3019 -0.3496
11485TIP3    H234399   3.596   3.868   3.731 -2.0038  0.4776  2.1116
11486TIP3   OH234400   7.759   0.286   0.280 -0.2860  0.9809 -0.6282
11486TIP3    H134401   7.770   0.342   0.203 -0.8687 -0.3494 -1.7137
11486TIP3    H234402   7.715   0.207   0.247 -2.8878  1.3981  1.5164
11487TIP3   OH234403   3.232   2.965   4.047 -0.1698 -0.0257  0.7477
11487TIP3    H134404   3.216   3.023   4.122  0.0373 -0.8949  1.4792
11487TIP3    H234405   3.327   2.968   4.033 -0.2614  0.5222  0.1888
11488TIP3   OH234406   5.016   6.747   3.381  0.2201  0.5562 -1.0464
11488TIP3    H134407   5.085   6.762   3.316  0.3726  0.3413 -0.9371
11488TIP3    H234408   4.939   6.723   3.329 -0.7983  4.0745 -1.4490
11489TIP3   OH234409   6.251   3.970   4.397  0.3713 -0.3072 -0.3073
11489TIP3    H134410   6.271   3.905   4.464  1.9332  0.7655  0.3238
11489TIP3    H234411   6.280   4.053   4.435 -2.1721  0.9144 -0.8017
11490TIP3   OH234412   7.329   4.456   6.332 -0.1383 -0.1308  0.2174
11490TIP3    H134413   7.335   4.436   6.425 -0.0131 -2.3921 -0.2000
11490TIP3    H234414   7.236   4.472   6.317 -0.3694 -1.0642  0.5443
11491TIP3   OH234415   8.176   2.222   3.890  0.1223  0.4506 -0.1998
11491TIP3    H134416   8.236   2.161   3.932 -0.0512  0.9049  0.7389
11491TIP3    H234417   8.232   2.292   3.857  0.1880  0.4704 -0.0461
11492TIP3   OH234418   1.176   0.868   0.778  0.3510  0.3798 -0.2790
11492TIP3    H134419   1.264   0.840   0.804  0.7336  0.0922 -1.7792
11492TIP3    H234420   1.190   0.915   0.696 -0.8663  0.6406 -0.3504
11493TIP3   OH234421   1.804   1.404   4.333  0.4587 -0.0808 -0.0661
11493TIP3    H134422   1.795   1.321   4.287  2.4080 -1.6812  2.1938
11493TIP3    H234423   1.881   1.445   4.293  1.9876 -1.3484  1.3836
11494TIP3   OH234424   0.177   1.198   3.354  0.0906  0.3177  0.3125
11494TIP3    H134425   0.266   1.231   3.346  0.6615 -1.2314 -0.1000
11494TIP3    H234426   0.179   1.140   3.430 -0.6585  0.5407  0.5147
11495TIP3   OH234427   2.704   7.391   5.700  0.2527 -0.3090  0.1517
11495TIP3    H134428   2.726   7.312   5.748  0.8667 -0.2080  0.0407
11495TIP3    H234429   2.709   7.365   5.608 -0.5127 -0.3947  0.1273
11496TIP3   OH234430   7.936   3.892   3.889 -0.2064  0.0599  0.2941
11496TIP3    H134431   8.018   3.932   3.860  0.7569 -1.0122  1.4613
11496TIP3    H234432   7.909   3.944   3.964  0.2563 -0.5505  0.8900
11497TIP3   OH234433   6.559   4.697   4.130  0.4900 -0.2655  0.2831
11497TIP3    H134434   6.529   4.606   4.126 -1.5860  0.4392 -1.6331
11497TIP3    H234435   6.588   4.708   4.221 -0.0684 -2.5469  0.8082
11498TIP3   OH234436   7.158   5.155   0.653  0.1232  0.0295 -0.4504
11498TIP3    H134437   7.180   5.101   0.577 -1.3365  0.1498 -0.9875
11498TIP3    H234438   7.083   5.111   0.692  0.6330  0.1736  0.7359
11499TIP3   OH234439   2.474   6.637   2.462  0.4576 -0.8851  0.6472
11499TIP3    H134440   2.486   6.564   2.402 -1.1430 -1.0608  0.4954
11499TIP3    H234441   2.481   6.597   2.549  0.3600 -1.0790  0.5670
11500TIP3   OH234442   7.487   1.692   6.109  0.7224 -0.7360 -0.1757
11500TIP3    H134443   7.506   1.740   6.189 -0.8844 -1.0383  0.4165
11500TIP3    H234444   7.528   1.744   6.040  0.6524  0.4482  0.6538
11501TIP3   OH234445   0.182   2.206   6.074  0.0762  0.5130  0.5192
11501TIP3    H134446   0.091   2.178   6.068 -0.0598  1.0395  0.0079
11501TIP3    H234447   0.227   2.157   6.005  0.3556 -0.3829  1.3211
11502TIP3   OH234448   7.220   1.115   5.254 -0.2161  0.1648  0.0046
11502TIP3    H134449   7.266   1.082   5.177  0.9362  2.7421 -0.5148
11502TIP3    H234450   7.132   1.135   5.223 -0.5880 -1.3107  0.0637
11503TIP3   OH234451   8.286   2.684   0.564 -0.3623 -0.4495  0.3535
11503TIP3    H134452   8.227   2.622   0.520 -1.1728 -0.1639  1.0024
11503TIP3    H234453   8.232   2.762   0.577  0.3540  0.0351  0.4253
11504TIP3   OH234454   3.259   1.897   5.952 -0.2889  0.6301 -0.2779
11504TIP3    H134455   3.269   1.893   6.047  1.1734 -0.0221 -0.4196
11504TIP3    H234456   3.189   1.835   5.932  1.4873 -1.6876  0.1797
11505TIP3   OH234457   3.329   2.008   3.296 -0.0628 -0.2532  0.0531
11505TIP3    H134458   3.337   2.090   3.247  0.7854 -0.4351 -0.1277
11505TIP3    H234459   3.339   1.939   3.230  0.3819 -0.5001  0.3765
11506TIP3   OH234460   1.774   2.664   6.725 -0.5307 -0.0485 -0.2480
11506TIP3    H134461   1.823   2.592   6.686  0.4692  0.5834 -0.1675
11506TIP3    H234462   1.769   2.730   6.657  0.3420  0.6426  0.3407
11507TIP3   OH234463   1.992   3.104   1.234 -0.0289 -0.0564 -0.3730
11507TIP3    H134464   1.963   3.044   1.303  0.8436 -1.4493 -1.1447
11507TIP3    H234465   1.949   3.187   1.253 -1.7454 -1.0807  0.4412
11508TIP3   OH234466   5.570   4.175   6.322  0.1378  0.3298 -0.8681
11508TIP3    H134467   5.640   4.110   6.328  2.0229  2.3693  2.9986
11508TIP3    H234468   5.521   4.164   6.403 -1.7274  1.4320 -1.7914
11509TIP3   OH234469   0.864   2.240   2.906  0.2615  0.3001 -0.4804
11509TIP3    H134470   0.816   2.285   2.837  0.2357  1.0234 -0.0028
11509TIP3    H234471   0.799   2.181   2.946 -0.0313  0.7190 -0.3310
11510TIP3   OH234472   4.347   6.001   3.982 -0.2379 -0.4420 -0.0559
11510TIP3    H134473   4.378   6.034   3.898 -2.2715 -2.1819 -1.6139
11510TIP3    H234474   4.317   5.912   3.963 -1.0223 -0.8021  2.4590
11511TIP3   OH234475   4.143   4.485   0.041  0.1384 -0.1169  0.5120
11511TIP3    H134476   4.183   4.472  -0.045  0.5290 -1.7578  0.8966
11511TIP3    H234477   4.086   4.561   0.030  0.2828 -0.2102 -1.1609
11512TIP3   OH234478   7.185   3.598   3.272 -0.0471  0.1310  0.5689
11512TIP3    H134479   7.245   3.625   3.202  1.2132 -0.8562  1.2326
11512TIP3    H234480   7.241   3.582   3.347 -1.1572 -0.7628  1.2374
11513TIP3   OH234481   2.333   6.032   3.970 -0.2864  0.0573 -0.2018
11513TIP3    H134482   2.345   6.003   3.879  0.4529 -1.2803  0.2931
11513TIP3    H234483   2.262   5.977   4.003  0.2385 -0.2921  0.3659
11514TIP3   OH234484   3.753   4.607   4.794  0.1923 -0.0939  0.3815
11514TIP3    H134485   3.828   4.563   4.833  0.1256  0.0986  0.7331
11514TIP3    H234486   3.677   4.566   4.834  0.1166 -0.0834  0.2495
11515TIP3   OH234487   3.025   1.453   5.054 -0.5315  0.1654 -0.0932
11515TIP3    H134488   3.105   1.404   5.069  0.1930  1.5550  0.7588
11515TIP3    H234489   3.053   1.531   5.005 -1.4005  0.5155 -0.0579
11516TIP3   OH234490   7.551   3.349   4.306 -1.0729 -0.3356 -0.1448
11516TIP3    H134491   7.482   3.305   4.356 -0.5283 -0.3573  0.6061
11516TIP3    H234492   7.531   3.327   4.215 -0.8431 -2.1430  0.1936
11517TIP3   OH234493   1.510   1.661   6.612  0.3569 -0.5683  0.6135
11517TIP3    H134494   1.601   1.650   6.586  0.3884 -0.6261  0.7483
11517TIP3    H234495   1.467   1.696   6.534  0.3713 -1.1108  0.3526
11518TIP3   OH234496   5.904   5.670   6.408 -0.0761  0.3032 -0.0890
11518TIP3    H134497   5.910   5.623   6.491 -0.7806 -2.4629 -1.5055
11518TIP3    H234498   5.815   5.705   6.407 -0.6052 -1.0003 -0.3122
11519TIP3   OH234499   6.527   6.698   0.722 -0.0292  0.0453  0.6585
11519TIP3    H134500   6.475   6.642   0.664 -1.0016  1.4904  0.0819
11519TIP3    H234501   6.563   6.638   0.787 -1.1702 -1.2246  0.1723
11520TIP3   OH234502   8.114   1.699   2.362  0.6954  0.1488  0.5280
11520TIP3    H134503   8.048   1.690   2.430 -0.7723  1.0029 -0.7301
11520TIP3    H234504   8.101   1.623   2.304 -0.6375  1.3867 -0.8782
11521TIP3   OH234505   1.317   0.766   1.688 -0.0616  0.1615 -0.3842
11521TIP3    H134506   1.323   0.749   1.594  0.1899  1.5660 -0.6417
11521TIP3    H234507   1.406   0.754   1.721 -0.2690 -0.9670 -0.1890
11522TIP3   OH234508   5.411   6.792   6.284 -0.2868 -0.7175  0.1137
11522TIP3    H134509   5.488   6.831   6.324 -0.0473  1.4343 -2.2048
11522TIP3    H234510   5.337   6.836   6.327 -0.1211 -0.4676  0.1467
11523TIP3   OH234511   1.343   1.048   3.862  0.5053  0.2509  0.3831
11523TIP3    H134512   1.301   1.133   3.869  1.7504  0.8011  1.5255
11523TIP3    H234513   1.277   0.986   3.892 -1.0897  0.5410 -2.2367
11524TIP3   OH234514   8.192   6.269   6.083 -0.0712  0.2724 -0.2258
11524TIP3    H134515   8.200   6.313   6.167 -0.5649 -0.6528  0.3279
11524TIP3    H234516   8.102   6.238   6.080  1.0042 -3.4673  0.8883
11525TIP3   OH234517   4.795   1.030   6.234  0.0039  0.3937 -0.7958
11525TIP3    H134518   4.712   1.064   6.200 -0.4740 -0.0385 -0.0910
11525TIP3    H234519   4.805   0.944   6.192  0.2949  0.6051 -1.1712
11526TIP3   OH234520   3.305   6.541   2.325  0.1135  0.0340  0.2676
11526TIP3    H134521   3.345   6.617   2.282  1.6722 -1.4386 -1.0380
11526TIP3    H234522   3.376   6.477   2.332 -0.8833 -0.9406  2.3312
11527TIP3   OH234523   3.890   4.641   2.028  0.0161 -1.1413  0.1617
11527TIP3    H134524   3.945   4.706   2.072  0.6329 -0.5042 -1.4421
11527TIP3    H234525   3.853   4.688   1.953 -1.9245 -1.8499  0.6177
11528TIP3   OH234526   0.849   4.698   5.282  0.0927  0.0482  0.0074
11528TIP3    H134527   0.844   4.619   5.336 -0.0524 -0.8943 -1.3155
11528TIP3    H234528   0.932   4.689   5.235 -0.3936  0.1778 -0.8913
11529TIP3   OH234529   7.793   2.875   6.316 -0.1384  0.2550 -0.2073
11529TIP3    H134530   7.814   2.802   6.256  1.2042 -0.2824  0.8709
11529TIP3    H234531   7.846   2.948   6.284  0.0154  0.1815 -0.1229
11530TIP3   OH234532   4.590   4.729   2.861 -0.2336  0.2574 -0.2121
11530TIP3    H134533   4.618   4.763   2.776 -0.3919  1.4013  0.1633
11530TIP3    H234534   4.573   4.636   2.846 -0.0177  0.3884 -1.3690
11531TIP3   OH234535   8.129   2.809   6.260 -0.8443  0.2440 -0.6459
11531TIP3    H134536   8.132   2.716   6.239 -4.1515 -0.5400  1.6088
11531TIP3    H234537   8.122   2.853   6.175 -0.7184 -1.6279 -1.6783
11532TIP3   OH234538   1.775   6.182   0.668 -0.1297  0.1416  0.2045
11532TIP3    H134539   1.733   6.098   0.648  0.2893  0.2776 -1.3240
11532TIP3    H234540   1.846   6.159   0.728  1.1521 -0.8913 -1.6303
11533TIP3   OH234541   2.931   5.326   2.307 -0.1680 -0.2103 -0.4235
11533TIP3    H134542   2.915   5.296   2.396 -0.2349  1.5546  0.2022
11533TIP3    H234543   2.878   5.268   2.252 -1.4937 -0.2429  0.8303
11534TIP3   OH234544   6.582   3.054   6.169  0.2680 -0.6639  0.0276
11534TIP3    H134545   6.589   2.982   6.106 -1.7446 -2.1293  1.3446
11534TIP3    H234546   6.510   3.028   6.227 -0.4495  2.3798  0.6569
11535TIP3   OH234547   2.502   7.437   6.197  0.2950  0.1350  0.6961
11535TIP3    H134548   2.563   7.383   6.147  0.7501  1.2342  0.0384
11535TIP3    H234549   2.454   7.375   6.252  0.2968 -1.0204 -0.5707
11536TIP3   OH234550   3.722   3.425   3.079 -0.3555  0.7284 -0.0583
11536TIP3    H134551   3.651   3.467   3.127 -1.3830  0.0912 -0.9847
11536TIP3    H234552   3.710   3.453   2.988  0.8839  1.0030 -0.1679
11537TIP3   OH234553   0.264   4.686   2.080  0.9264 -0.0751 -0.8528
11537TIP3    H134554   0.246   4.657   2.170  1.3531  0.2948 -0.6414
11537TIP3    H234555   0.247   4.609   2.026 -0.1872 -0.0488 -0.5544
11538TIP3   OH234556   5.258   5.310   4.839 -0.6141 -0.4391 -0.4719
11538TIP3    H134557   5.333   5.321   4.897  0.4569  1.1073 -2.0654
11538TIP3    H234558   5.190   5.365   4.877  0.7449  2.2533 -1.6828
11539TIP3   OH234559   3.045   7.396   3.837  0.1406 -0.6827  0.6139
11539TIP3    H134560   3.121   7.359   3.793 -1.0478 -1.0485 -1.2432
11539TIP3    H234561   3.039   7.348   3.919  1.8242 -0.7232  0.7408
11540TIP3   OH234562   2.108   1.793   5.008 -0.2659 -0.3825 -0.3485
11540TIP3    H134563   2.188   1.770   5.055 -0.3467  0.7287  0.3719
11540TIP3    H234564   2.124   1.882   4.976 -0.5566 -0.7919 -1.6948
11541TIP3   OH234565   2.892   4.146   6.082  0.4939  0.1505  0.2122
11541TIP3    H134566   2.893   4.053   6.061 -0.6098  0.4767 -1.5483
11541TIP3    H234567   2.984   4.172   6.082  0.7521 -0.7058 -0.5196
11542TIP3   OH234568   3.197   7.135   3.516 -0.2008 -1.0484  0.0575
11542TIP3    H134569   3.113   7.180   3.505  0.7604  1.0316  0.7615
11542TIP3    H234570   3.173   7.046   3.542 -2.1895 -0.4393  0.4711
11543TIP3   OH234571   3.728   1.165   5.173  0.0715  0.6581 -0.4941
11543TIP3    H134572   3.638   1.132   5.179  0.2811  0.2419  0.4913
11543TIP3    H234573   3.783   1.088   5.188  0.5791  1.1930  0.5100
11544TIP3   OH234574   5.228   1.048   1.256 -0.8905  0.0912  0.2786
11544TIP3    H134575   5.251   1.015   1.169 -0.5248  0.5442  0.1976
11544TIP3    H234576   5.311   1.055   1.302 -1.1277 -0.5850  0.8327
11545TIP3   OH234577   1.898   2.501   2.678 -0.2420 -0.6061 -0.8583
11545TIP3    H134578   1.970   2.502   2.741  0.3710  1.9857 -1.4762
11545TIP3    H234579   1.933   2.454   2.602 -0.1550 -1.6490 -0.1903
11546TIP3   OH234580   6.048   4.790   1.072  0.3522  0.1538  0.5973
11546TIP3    H134581   6.012   4.760   1.155 -0.8875 -0.7883 -0.2445
11546TIP3    H234582   6.055   4.711   1.019  0.9311  0.7688 -0.2725
11547TIP3   OH234583   5.404   7.743   0.837 -0.5099  0.0755 -0.6199
11547TIP3    H134584   5.371   7.749   0.927  0.7122  0.4928 -0.1800
11547TIP3    H234585   5.488   7.698   0.845 -0.7967 -0.6742 -1.6711
11548TIP3   OH234586   2.652   5.936   1.260  0.1476 -0.1134  0.2439
11548TIP3    H134587   2.660   6.020   1.306  1.4629  0.8462 -1.5917
11548TIP3    H234588   2.561   5.933   1.231  0.4806  1.5867 -1.1808
11549TIP3   OH234589   0.103   1.073   5.501 -0.2846  0.1631  0.0714
11549TIP3    H134590   0.071   1.160   5.523  1.2841  0.4393  1.4513
11549TIP3    H234591   0.184   1.090   5.452  0.4334 -0.4903  0.9989
11550TIP3   OH234592   8.187   3.836   6.085 -0.7868 -1.0036 -0.3456
11550TIP3    H134593   8.141   3.888   6.151 -0.4934  0.0193 -0.9240
11550TIP3    H234594   8.164   3.877   6.002 -0.6554 -1.8939 -0.8287
11551TIP3   OH234595   7.030   4.935   1.980 -0.1822  0.3036  0.1475
11551TIP3    H134596   6.956   4.879   2.004  0.1283  0.2670  1.0737
11551TIP3    H234597   7.083   4.881   1.922 -0.3894 -0.0072  0.2447
11552TIP3   OH234598   3.206   6.165   2.869  0.2544  0.3456 -0.5133
11552TIP3    H134599   3.154   6.137   2.793 -0.6476  1.1087 -0.1964
11552TIP3    H234600   3.144   6.167   2.941  1.0960 -0.3206  0.2596
11553TIP3   OH234601   6.329   2.625   2.355  0.1099  0.0965 -1.0394
11553TIP3    H134602   6.403   2.565   2.343  1.2643  1.3245 -0.3810
11553TIP3    H234603   6.368   2.712   2.342 -1.0373  0.8172  0.2012
11554TIP3   OH234604   4.030   3.268   2.131 -0.3588 -0.1069  0.6845
11554TIP3    H134605   3.996   3.252   2.043 -2.4033 -0.1611  1.4291
11554TIP3    H234606   3.971   3.220   2.188  0.3375  0.7375  2.1678
11555TIP3   OH234607   6.908   2.971   2.741  0.1168 -0.2538 -0.1670
11555TIP3    H134608   6.903   2.984   2.836 -1.0871 -1.0517 -0.0931
11555TIP3    H234609   6.957   2.889   2.731 -1.0947 -1.0175 -0.1280
11556TIP3   OH234610   2.826   3.573   4.225  0.6024 -0.3489  0.4849
11556TIP3    H134611   2.904   3.535   4.266  0.7851  0.3109  0.7656
11556TIP3    H234612   2.834   3.667   4.241  0.3113 -0.1568 -0.4696
11557TIP3   OH234613   5.583   5.737   5.397 -0.1730 -0.2552  0.5753
11557TIP3    H134614   5.496   5.701   5.417 -0.7397  0.8583  0.2057
11557TIP3    H234615   5.591   5.728   5.302 -0.6369  1.2060  0.3691
11558TIP3   OH234616   0.226   6.981   5.982  0.3966  0.1224  0.5973
11558TIP3    H134617   0.244   7.075   5.978  0.7731  0.0519  0.5592
11558TIP3    H234618   0.268   6.945   5.904 -2.0232  0.2580 -0.8538
11559TIP3   OH234619   0.010   7.542   6.369 -0.2395 -0.7206 -0.6176
11559TIP3    H134620   0.045   7.624   6.333  0.3737 -1.5471 -1.9788
11559TIP3    H234621  -0.025   7.495   6.294 -0.5456 -1.7512  0.1357
11560TIP3   OH234622   5.819   2.407   6.559  0.2361  0.3801  0.1734
11560TIP3    H134623   5.894   2.351   6.578  1.3161  1.6910 -0.0522
11560TIP3    H234624   5.766   2.405   6.638 -0.4439 -1.9341 -0.2605
11561TIP3   OH234625   2.424   2.120   1.962  0.2655 -0.4708 -0.4494
11561TIP3    H134626   2.364   2.066   2.015 -0.8608  0.4357 -0.7508
11561TIP3    H234627   2.382   2.206   1.959  1.6348  0.2154 -0.6334
11562TIP3   OH234628   0.245   2.415   1.079 -0.4987  0.1668 -0.1034
11562TIP3    H134629   0.235   2.379   0.991 -1.4267 -0.3135  0.1773
11562TIP3    H234630   0.155   2.430   1.108 -0.1567  1.7128  0.2057
11563TIP3   OH234631   3.952   4.941   0.163  0.2307  0.2674  0.2354
11563TIP3    H134632   3.940   4.914   0.072 -0.7707 -0.2555  0.5019
11563TIP3    H234633   3.884   5.007   0.177  1.0798  1.1379  0.2994
11564TIP3   OH234634   1.107   0.961   2.343 -0.2306  0.2408  0.2475
11564TIP3    H134635   1.114   0.924   2.256  0.0859 -0.4711  0.5679
11564TIP3    H234636   1.036   1.024   2.337 -0.9711 -0.6259 -0.2422
11565TIP3   OH234637   7.054   7.437   4.861 -0.4973 -0.3419 -0.3138
11565TIP3    H134638   7.001   7.478   4.793  1.3632  0.4530 -1.3697
11565TIP3    H234639   7.129   7.401   4.814  1.4271  1.2179  1.3957
11566TIP3   OH234640   6.493   2.096   2.789  0.5157 -0.0436 -0.0135
11566TIP3    H134641   6.472   2.040   2.714 -0.6688 -1.0397  1.0307
11566TIP3    H234642   6.587   2.082   2.804  0.4000 -1.1326 -0.2677
11567TIP3   OH234643   2.302   2.177   3.530 -0.2217  0.3510  0.2589
11567TIP3    H134644   2.236   2.136   3.473 -0.6660  0.1053  0.9270
11567TIP3    H234645   2.319   2.262   3.490 -0.6381  0.2420 -0.1605
11568TIP3   OH234646   2.733   4.165   5.561  0.0864 -0.1789 -0.4875
11568TIP3    H134647   2.706   4.085   5.516  1.5447 -1.1873  0.3245
11568TIP3    H234648   2.741   4.138   5.653  1.8255  0.5473 -0.3920
11569TIP3   OH234649   8.061   2.138   4.954 -0.2929 -0.3710  0.7167
11569TIP3    H134650   8.130   2.137   5.021  0.2526  1.9241  0.2605
11569TIP3    H234651   8.107   2.127   4.871 -0.4704  0.7499  0.4452
11570TIP3   OH234652   0.753   7.546   6.204 -0.3128  0.3162  0.3758
11570TIP3    H134653   0.680   7.576   6.259 -0.2087  1.4104 -0.0754
11570TIP3    H234654   0.803   7.625   6.184  0.0905 -0.1870 -0.6637
11571TIP3   OH234655   1.121   4.675   2.840  0.2685  0.0084 -0.0361
11571TIP3    H134656   1.094   4.752   2.890  0.0615 -0.4470  0.5744
11571TIP3    H234657   1.040   4.627   2.825  0.4754 -0.3905  0.1111
11572TIP3   OH234658   1.603   3.683   2.018 -0.1102  0.5623 -0.1629
11572TIP3    H134659   1.597   3.678   2.114 -1.8463  0.2508 -0.2518
11572TIP3    H234660   1.578   3.773   1.997  0.9747  0.8471 -0.3107
11573TIP3   OH234661   6.888   7.441   5.888 -0.7967  0.0316 -0.0388
11573TIP3    H134662   6.806   7.424   5.842 -0.1565 -1.5353 -0.6503
11573TIP3    H234663   6.865   7.435   5.981 -1.2805 -0.9159 -0.2099
11574TIP3   OH234664   3.751   4.450   0.779 -0.3417 -0.3553 -0.0642
11574TIP3    H134665   3.754   4.452   0.683 -1.9302 -2.2481 -0.2227
11574TIP3    H234666   3.658   4.443   0.800  0.0595 -4.3308  1.3377
11575TIP3   OH234667   6.427   3.939   2.401 -0.0526  0.0042 -0.0535
11575TIP3    H134668   6.443   3.993   2.479  1.2873  2.2312 -1.7561
11575TIP3    H234669   6.348   3.976   2.362  0.1949 -0.0558 -0.6170
11576TIP3   OH234670   0.035   3.456   0.308 -0.3993  0.1152 -0.1019
11576TIP3    H134671   0.092   3.399   0.360 -0.9706  0.1358  0.5619
11576TIP3    H234672   0.036   3.539   0.355 -1.2752 -0.0020  0.1281
11577TIP3   OH234673   2.474   1.600   4.339  0.4058 -0.1013 -0.3966
11577TIP3    H134674   2.558   1.564   4.367 -0.1415 -0.4472  0.8560
11577TIP3    H234675   2.410   1.558   4.396 -0.7478 -0.6098 -1.9878
11578TIP3   OH234676   4.572   3.004   5.430  0.0121  0.4244 -0.1468
11578TIP3    H134677   4.592   3.061   5.356 -0.9798 -2.3616 -2.8162
11578TIP3    H234678   4.651   2.952   5.443  0.0530  0.6477  0.5130
11579TIP3   OH234679   6.945   2.599   2.436 -0.8020  0.4662 -0.6027
11579TIP3    H134680   6.957   2.506   2.456  2.3993  0.7160 -0.8074
11579TIP3    H234681   6.938   2.641   2.522  1.9732  0.4007 -0.2687
11580TIP3   OH234682   5.560   0.053   5.788 -0.0811  0.0983 -0.2923
11580TIP3    H134683   5.575  -0.039   5.808 -0.0254  0.2104  0.1859
11580TIP3    H234684   5.637   0.079   5.737  0.3680  0.1335  0.3960
11581TIP3   OH234685   1.433   7.210   2.199 -0.2297 -0.1059 -0.0727
11581TIP3    H134686   1.372   7.207   2.125  0.3230 -3.3690 -0.5470
11581TIP3    H234687   1.520   7.203   2.159  0.2032 -0.0761  0.8242
11582TIP3   OH234688   6.346   7.035   3.009  0.1398 -0.2740  0.1163
11582TIP3    H134689   6.288   6.983   2.953  1.3663 -1.3883 -0.1682
11582TIP3    H234690   6.327   7.004   3.098  0.6340 -1.0088 -0.0229
11583TIP3   OH234691   1.059   4.011   0.122 -0.0796 -0.0807  0.2373
11583TIP3    H134692   1.069   4.097   0.081  0.8845  0.0947  0.7876
11583TIP3    H234693   0.964   3.998   0.128 -0.2502  1.0607  0.3674
11584TIP3   OH234694   4.766   2.407   3.168 -0.6272 -0.7729  0.6054
11584TIP3    H134695   4.773   2.399   3.072  1.6115 -0.5876  0.7092
11584TIP3    H234696   4.800   2.324   3.202 -0.1341 -0.3179  1.2475
11585TIP3   OH234697   1.590   5.561   3.088  0.1419 -0.2969  0.2297
11585TIP3    H134698   1.515   5.503   3.084 -0.5102  0.5778 -1.4504
11585TIP3    H234699   1.629   5.556   3.000  1.5795 -0.1266  0.8224
11586TIP3   OH234700   6.867   4.901   1.473 -0.0891 -0.1423  0.1884
11586TIP3    H134701   6.903   4.989   1.482  0.4731 -0.4870  1.5369
11586TIP3    H234702   6.942   4.843   1.487 -0.5342 -0.8490 -0.2545
11587TIP3   OH234703   6.549   3.804   5.898  0.5643  0.6316 -0.2778
11587TIP3    H134704   6.614   3.735   5.912  0.1252  0.1832 -0.3951
11587TIP3    H234705   6.585   3.881   5.942  0.7926  0.1718  0.3523
11588TIP3   OH234706   5.644   0.620   5.912 -0.2607  0.0552 -0.0774
11588TIP3    H134707   5.720   0.601   5.856 -0.2007  0.2385 -0.0570
11588TIP3    H234708   5.610   0.703   5.880 -0.0429  0.3153  0.3540
11589TIP3   OH234709   6.998   7.363   4.359  0.2834 -0.1325  0.1941
11589TIP3    H134710   7.019   7.379   4.267  0.8553  1.6135  0.5970
11589TIP3    H234711   7.016   7.446   4.403  1.1110 -1.2416  2.0832
11590TIP3   OH234712   6.272   3.407   4.702 -0.4000 -0.2755 -0.0935
11590TIP3    H134713   6.322   3.440   4.627  1.1553  0.9805  1.4299
11590TIP3    H234714   6.202   3.470   4.715  0.8587  0.9600  1.0309
11591TIP3   OH234715   5.226   4.987   4.427  0.0770  0.2450  0.6935
11591TIP3    H134716   5.190   5.011   4.342 -0.6213 -1.2155  0.5424
11591TIP3    H234717   5.240   5.070   4.472 -1.5048  0.9687 -0.0731
11592TIP3   OH234718   2.539   4.928   2.100  0.1255  0.1853  0.2601
11592TIP3    H134719   2.494   4.859   2.050 -0.4797  1.5601 -1.1678
11592TIP3    H234720   2.621   4.887   2.127  0.5474 -0.6115 -1.9950
11593TIP3   OH234721   6.637   1.660   1.128 -0.5327  0.8107 -0.1358
11593TIP3    H134722   6.637   1.723   1.055  1.8025  1.1384  0.0794
11593TIP3    H234723   6.711   1.602   1.109 -1.3381 -0.5804  0.7940
11594TIP3   OH234724   4.351   5.299   4.468 -0.3852 -0.1048 -0.4096
11594TIP3    H134725   4.414   5.308   4.396 -0.2135  0.1309 -0.2357
11594TIP3    H234726   4.322   5.389   4.485  0.9296  0.0957  0.9947
11595TIP3   OH234727   4.224   4.118   4.510  0.3436 -0.2733  0.6587
11595TIP3    H134728   4.164   4.162   4.569 -0.2546  0.5623 -0.5251
11595TIP3    H234729   4.292   4.183   4.492 -0.0142 -0.1401 -0.3208
11596TIP3   OH234730   7.933   3.308   0.602 -0.1726 -0.0587 -0.3877
11596TIP3    H134731   7.858   3.307   0.544 -0.9210  3.1197  0.3173
11596TIP3    H234732   7.901   3.271   0.684 -0.9388  0.9990 -0.1873
11597TIP3   OH234733   3.210   5.334   2.269  0.4512  0.0567  0.0961
11597TIP3    H134734   3.252   5.316   2.353  1.0325 -1.6146 -0.5072
11597TIP3    H234735   3.117   5.319   2.285  0.0695  2.8478  1.1946
11598TIP3   OH234736   1.670   4.794   3.733  0.2708  0.0228  0.1771
11598TIP3    H134737   1.682   4.723   3.796  0.5350 -0.6570 -0.6052
11598TIP3    H234738   1.759   4.826   3.717  0.2627 -0.1481 -0.2195
11599TIP3   OH234739   1.460   7.708   3.918 -0.0527  0.2462 -0.4428
11599TIP3    H134740   1.554   7.718   3.934 -0.1321 -1.2910  1.2431
11599TIP3    H234741   1.454   7.668   3.832  0.7971  0.7525 -0.7477
11600TIP3   OH234742   0.032   5.043   4.311  0.0335 -0.0952  0.2417
11600TIP3    H134743   0.084   5.123   4.314  0.4931 -0.3946  0.4305
11600TIP3    H234744  -0.001   5.038   4.221 -0.1456  0.3925  0.2772
11601TIP3   OH234745   1.584   1.144   2.522 -0.2901 -0.1523  0.6141
11601TIP3    H134746   1.557   1.062   2.481 -3.3433  0.3771  1.3399
11601TIP3    H234747   1.620   1.117   2.606  2.8371 -0.9696 -0.8397
11602TIP3   OH234748   3.915   2.672   4.044 -0.1015 -0.3094 -0.6230
11602TIP3    H134749   3.902   2.589   4.089 -0.5883  0.5865  1.0065
11602TIP3    H234750   3.831   2.718   4.054  0.5397  0.8546 -0.3792
11603TIP3   OH234751   7.761   2.368   0.497 -0.5946 -1.1016  0.6163
11603TIP3    H134752   7.841   2.368   0.445 -1.1889 -0.5860 -0.3164
11603TIP3    H234753   7.714   2.290   0.468 -0.9162 -0.8281  0.4031
11604TIP3   OH234754   3.799   1.915   4.561  0.4297  0.3761  0.5159
11604TIP3    H134755   3.866   1.864   4.515  0.5154  0.5318  0.4664
11604TIP3    H234756   3.847   1.989   4.600  0.4030  0.0808  1.1130
11605TIP3   OH234757   6.367   3.985   1.035 -0.2584 -0.1033  0.2453
11605TIP3    H134758   6.433   3.999   1.103 -1.7605 -2.1145  2.2891
11605TIP3    H234759   6.412   3.932   0.969  0.6733  0.0780  0.7176
11606TIP3   OH234760   3.808   6.543   2.200 -0.0380  0.2736 -0.5618
11606TIP3    H134761   3.732   6.595   2.175  0.1643  1.5844  1.2777
11606TIP3    H234762   3.860   6.602   2.256  1.9462 -0.8282 -1.1247
11607TIP3   OH234763   5.676   3.639   5.680  1.1556  0.1721 -0.0603
11607TIP3    H134764   5.584   3.625   5.660  0.4826  1.7807  1.6239
11607TIP3    H234765   5.719   3.558   5.655 -0.8329 -0.8926 -0.1863
11608TIP3   OH234766   0.354   6.692   5.957 -0.3011  0.4579  0.2581
11608TIP3    H134767   0.401   6.769   5.990 -2.2961  1.7424  0.3326
11608TIP3    H234768   0.341   6.710   5.864 -0.6046  0.1076  0.2323
11609TIP3   OH234769   6.106   2.720   5.572 -0.5541 -0.4205 -0.0435
11609TIP3    H134770   6.033   2.676   5.528 -0.4719 -1.5042  0.8409
11609TIP3    H234771   6.124   2.797   5.518 -0.1830 -1.8761 -2.1101
11610TIP3   OH234772   7.009   7.651   4.428 -0.2562 -0.2515  0.0265
11610TIP3    H134773   7.068   7.663   4.503 -1.4668  0.2170  0.9415
11610TIP3    H234774   6.983   7.740   4.404  1.9228 -0.1835 -2.5194
11611TIP3   OH234775   1.252   7.825   2.346 -0.0002 -0.5280 -0.0866
11611TIP3    H134776   1.275   7.765   2.274 -0.7586  0.7383 -1.4488
11611TIP3    H234777   1.163   7.801   2.369 -0.0876 -0.3228 -0.2118
11612TIP3   OH234778   7.561   6.273   6.134  0.1791  0.5677  0.0717
11612TIP3    H134779   7.506   6.295   6.059 -0.1095  0.8849  0.3747
11612TIP3    H234780   7.635   6.333   6.127  1.0455 -0.5678 -0.9370
11613TIP3   OH234781   7.523   0.529   6.247 -0.5473 -0.0360  0.0065
11613TIP3    H134782   7.560   0.457   6.300 -1.5913 -0.4064  0.2599
11613TIP3    H234783   7.571   0.607   6.276  0.0536 -0.4992  0.2977
11614TIP3   OH234784   4.582   1.253   5.541 -0.4131 -0.1908 -0.2506
11614TIP3    H134785   4.660   1.299   5.511 -0.4457 -0.6623 -1.0879
11614TIP3    H234786   4.509   1.296   5.497 -0.5905 -0.0145  0.2106
11615TIP3   OH234787   1.169   1.237   6.285 -0.2958  0.0874 -0.5448
11615TIP3    H134788   1.187   1.191   6.202  2.4494  0.6162 -0.3469
11615TIP3    H234789   1.214   1.185   6.351  0.3251  1.3905  0.1031
11616TIP3   OH234790   1.373   4.017   0.421  0.2441 -0.4639  0.1417
11616TIP3    H134791   1.378   4.055   0.509 -2.7143  1.3602 -0.3339
11616TIP3    H234792   1.402   4.087   0.363 -2.4360  0.1954 -0.5569
11617TIP3   OH234793   0.842   1.353   6.034 -0.3922 -0.5298 -0.0776
11617TIP3    H134794   0.918   1.295   6.040 -0.5580 -0.6562  0.9291
11617TIP3    H234795   0.822   1.355   5.940  0.4732 -0.9783 -0.2914
11618TIP3   OH234796   0.780   7.524   3.412  0.0614 -0.0874  0.0475
11618TIP3    H134797   0.727   7.575   3.351  1.4278 -0.2163 -1.3068
11618TIP3    H234798   0.792   7.440   3.369 -0.6665 -0.9447  1.4600
11619TIP3   OH234799   7.243   1.979   5.342  0.1924  0.4685  0.4843
11619TIP3    H134800   7.160   1.990   5.295  1.4224 -0.8139 -2.1473
11619TIP3    H234801   7.224   1.913   5.409 -0.6053 -0.8865 -1.0207
11620TIP3   OH234802   0.411   1.162   2.081  0.3874  0.2131  0.2470
11620TIP3    H134803   0.457   1.226   2.135  1.5676 -0.6094  0.2567
11620TIP3    H234804   0.398   1.206   1.997  0.2714  0.8196  0.5816
11621TIP3   OH234805   7.518   1.535   5.852  0.1501  0.4036 -0.4507
11621TIP3    H134806   7.536   1.517   5.944 -0.7755  0.2068 -0.3023
11621TIP3    H234807   7.604   1.554   5.814  0.4785  0.9959  0.5595
11622TIP3   OH234808   5.684   3.292   4.355 -0.1644  0.1048  0.7079
11622TIP3    H134809   5.761   3.333   4.394 -0.1831  1.0699 -0.2402
11622TIP3    H234810   5.615   3.359   4.362  0.1139  0.7827 -1.9617
11623TIP3   OH234811   7.740   5.278   2.972  0.3457 -0.4217 -0.4752
11623TIP3    H134812   7.662   5.261   3.026  1.4455 -1.4411  0.8569
11623TIP3    H234813   7.711   5.262   2.883 -0.8832 -1.1726  0.0264
11624TIP3   OH234814   5.672   5.983   6.047 -0.2601 -0.0022 -0.5356
11624TIP3    H134815   5.758   5.992   6.005  0.1906 -0.0434  0.3507
11624TIP3    H234816   5.613   5.957   5.976  0.9450 -2.5193 -0.7407
11625TIP3   OH234817   2.747   6.767   4.953  0.7004 -0.5151 -0.6945
11625TIP3    H134818   2.761   6.704   4.881  0.9600  0.2006 -1.2857
11625TIP3    H234819   2.685   6.723   5.012 -1.0739 -0.3382 -2.3386
11626TIP3   OH234820   0.372   5.173   1.005  0.9047 -0.4591  0.0794
11626TIP3    H134821   0.332   5.250   1.046  1.0615  0.0772 -0.7419
11626TIP3    H234822   0.310   5.102   1.023  0.2010  0.0946 -0.0980
11627TIP3   OH234823   7.207   0.988   3.221 -0.0837  0.4742 -0.5753
11627TIP3    H134824   7.193   1.041   3.142  0.4216  1.3709 -0.0762
11627TIP3    H234825   7.143   0.917   3.213  0.9462 -0.3339 -2.5321
11628TIP3   OH234826   4.614   5.240   6.176  0.3314  0.4086 -0.3343
11628TIP3    H134827   4.696   5.287   6.190  0.1005  0.4381  1.1387
11628TIP3    H234828   4.583   5.220   6.265 -1.5744  0.9888 -0.8201
11629TIP3   OH234829   4.612   2.969   2.284 -0.2716 -0.0928  0.2489
11629TIP3    H134830   4.620   2.897   2.346 -0.8874  0.2608  0.7428
11629TIP3    H234831   4.640   3.046   2.332  0.4156  0.0028 -0.2893
11630TIP3   OH234832   2.405   4.354   3.901  0.6564 -0.3050 -0.0568
11630TIP3    H134833   2.416   4.327   3.810 -1.2048 -1.0847 -0.0861
11630TIP3    H234834   2.312   4.338   3.920  0.9451  0.1017  1.8906
11631TIP3   OH234835   0.094   4.114   4.586 -0.0850 -0.3094 -0.2937
11631TIP3    H134836   0.042   4.133   4.508  0.3947 -3.2217 -1.4731
11631TIP3    H234837   0.181   4.149   4.566 -0.8015  2.1060  0.5221
11632TIP3   OH234838   0.148   3.257   2.565  0.2178  0.1543 -0.6546
11632TIP3    H134839   0.065   3.216   2.540 -0.9228  1.8251  0.2013
11632TIP3    H234840   0.146   3.343   2.523  2.9013 -0.7979 -3.0651
11633TIP3   OH234841   5.479   0.453   2.397 -0.0179  0.0769 -0.0085
11633TIP3    H134842   5.446   0.464   2.307  0.2333  2.1484  0.1019
11633TIP3    H234843   5.400   0.436   2.449 -0.2014 -0.8108 -0.5581
11634TIP3   OH234844   6.786   2.598   2.713 -0.1248  0.0603  0.5247
11634TIP3    H134845   6.770   2.535   2.642 -0.9979 -0.9017  1.5370
11634TIP3    H234846   6.705   2.647   2.720 -0.1374 -0.0302  1.0289
11635TIP3   OH234847   3.553   3.927   3.410  0.4512  0.3914  0.1785
11635TIP3    H134848   3.569   3.931   3.315 -0.5902 -1.8043 -0.1663
11635TIP3    H234849   3.477   3.869   3.418 -0.2612  1.5352  2.3150
11636TIP3   OH234850   7.766   3.697   5.060  0.1175 -0.5310  0.1516
11636TIP3    H134851   7.678   3.690   5.098  0.3923  0.3519  1.0039
11636TIP3    H234852   7.752   3.744   4.978 -0.3695 -1.6148 -0.3954
11637TIP3   OH234853   6.224   2.189   6.054  0.8345  0.3772 -0.2044
11637TIP3    H134854   6.144   2.219   6.097  0.6436  1.8133 -1.4629
11637TIP3    H234855   6.287   2.175   6.124 -0.1082  0.5379  0.6881
11638TIP3   OH234856   4.546   3.601   2.161 -0.0711  0.1022  0.3049
11638TIP3    H134857   4.530   3.507   2.171  0.3030  0.0179  0.1092
11638TIP3    H234858   4.461   3.641   2.178 -0.4169 -0.3202 -0.3774
11639TIP3   OH234859   3.982   7.497   5.699 -0.3172  0.6660 -0.5146
11639TIP3    H134860   3.948   7.539   5.620 -1.9101  2.2886  0.9426
11639TIP3    H234861   3.911   7.504   5.762 -0.0386 -2.8051  0.3881
11640TIP3   OH234862   2.339   7.006   6.157  0.1207  0.0813 -0.4502
11640TIP3    H134863   2.409   6.946   6.130  0.3833  0.5865 -0.9091
11640TIP3    H234864   2.364   7.090   6.119 -0.7418  0.2630 -0.6258
11641TIP3   OH234865   6.046   0.784   0.746 -0.1028  0.2133 -0.3537
11641TIP3    H134866   6.091   0.701   0.758 -0.4940  0.2841  1.9808
11641TIP3    H234867   6.090   0.824   0.671  2.7596 -0.3572  0.8799
11642TIP3   OH234868   3.711   7.551   5.324 -0.2338 -0.0460 -0.0544
11642TIP3    H134869   3.617   7.543   5.339 -0.1487  0.1029  0.6092
11642TIP3    H234870   3.742   7.606   5.396  0.3570 -0.0767 -0.2784
11643TIP3   OH234871   6.367   7.487   0.153  0.1063 -0.2348 -0.1805
11643TIP3    H134872   6.326   7.554   0.208 -2.4226 -2.0872  0.3940
11643TIP3    H234873   6.435   7.450   0.209 -0.2149  0.1297  0.4686
11644TIP3   OH234874   1.002   5.182   4.390 -0.4356 -0.2984  0.5510
11644TIP3    H134875   1.066   5.149   4.453  0.0390 -0.0946  0.1879
11644TIP3    H234876   0.917   5.161   4.428 -0.1613 -1.6639  0.4804
11645TIP3   OH234877   7.791   3.326   4.651 -0.0237  0.3469 -0.2914
11645TIP3    H134878   7.746   3.410   4.642 -0.3335  0.1678 -0.4414
11645TIP3    H234879   7.872   3.336   4.600 -0.2291  0.4367 -0.5995
11646TIP3   OH234880   3.091   2.334   4.165 -0.0595  0.2679 -0.1999
11646TIP3    H134881   3.030   2.408   4.167 -0.8142 -0.2954  2.5961
11646TIP3    H234882   3.047   2.268   4.112 -0.1217  1.1852 -1.3448
11647TIP3   OH234883   7.438   3.291   1.465  0.1936 -0.5819  0.0366
11647TIP3    H134884   7.390   3.364   1.504  2.1485  1.3046 -0.8558
11647TIP3    H234885   7.474   3.243   1.540 -0.0517  0.1294  0.6205
11648TIP3   OH234886   2.415   7.215   2.752  0.7056 -0.0699  0.0138
11648TIP3    H134887   2.383   7.300   2.783 -0.3807 -0.7010  0.6645
11648TIP3    H234888   2.375   7.206   2.665  0.5312 -0.0671  0.0922
11649TIP3   OH234889   0.782   5.375   6.718 -0.9336  0.3708 -0.0233
11649TIP3    H134890   0.736   5.365   6.634 -0.6305  0.8798 -0.2573
11649TIP3    H234891   0.851   5.439   6.699  1.1193 -1.7412 -0.2174
11650TIP3   OH234892   3.517   5.585   6.397 -0.5878 -0.0771  0.6845
11650TIP3    H134893   3.588   5.630   6.443  0.0882 -0.1883 -0.2134
11650TIP3    H234894   3.485   5.650   6.334 -0.6991 -0.3154  0.4956
11651TIP3   OH234895   4.547   0.675   5.474 -0.0147  0.0672  0.5133
11651TIP3    H134896   4.572   0.673   5.381 -0.6514  1.3018  0.2966
11651TIP3    H234897   4.564   0.765   5.502  1.3838 -0.5951  1.9733
11652TIP3   OH234898   4.655   3.159   2.979  0.2165  0.0149 -0.2062
11652TIP3    H134899   4.562   3.146   2.993  0.4842 -3.3425 -0.7448
11652TIP3    H234900   4.662   3.185   2.887 -0.1233 -1.1316 -0.5651
11653TIP3   OH234901   3.243   2.182   2.636  0.5183  0.1029  0.3347
11653TIP3    H134902   3.264   2.218   2.550  0.8830 -0.9970 -0.0477
11653TIP3    H234903   3.171   2.121   2.620  0.0506  0.4757  0.9437
11654TIP3   OH234904   3.428   7.079   4.806  0.0281  0.1002 -0.1437
11654TIP3    H134905   3.497   7.030   4.851 -0.1364  0.5376  0.6165
11654TIP3    H234906   3.468   7.165   4.789  0.2999 -0.2666 -1.4215
11655TIP3   OH234907   1.613   7.008   2.705 -0.3163 -0.0639 -0.3025
11655TIP3    H134908   1.613   6.913   2.694  1.6041 -0.0932 -0.3732
11655TIP3    H234909   1.698   7.027   2.745 -0.6130  1.6506 -0.4338
11656TIP3   OH234910   6.284   4.571   3.893 -0.1171  0.3923 -0.4930
11656TIP3    H134911   6.268   4.501   3.830 -1.4798  1.1466 -1.0218
11656TIP3    H234912   6.317   4.526   3.970  0.3215 -0.6888 -1.2794
11657TIP3   OH234913   4.244   4.665   6.617 -0.5471  0.0153  0.1952
11657TIP3    H134914   4.152   4.641   6.609 -0.4950  0.1320 -0.8766
11657TIP3    H234915   4.274   4.619   6.695 -0.5967 -2.9259 -1.3970
11658TIP3   OH234916   3.119   2.006   4.300 -0.6687 -0.4908 -0.4268
11658TIP3    H134917   3.101   2.072   4.233 -0.0721  1.0158  0.8245
11658TIP3    H234918   3.211   2.020   4.323 -0.8801 -0.9014  0.7613
11659TIP3   OH234919   1.344   1.136   2.280  0.2806 -0.0657  0.1836
11659TIP3    H134920   1.420   1.092   2.241 -0.2041 -0.6527 -0.1051
11659TIP3    H234921   1.268   1.094   2.240 -0.2100  1.3063 -0.4124
11660TIP3   OH234922   0.906   5.332   5.352  0.1130 -0.3995 -0.4244
11660TIP3    H134923   0.822   5.289   5.368  0.6733 -0.9350  1.2352
11660TIP3    H234924   0.893   5.423   5.380 -0.1981 -0.2197 -1.1330
11661TIP3   OH234925   5.465   7.761   5.633  0.0119 -0.1247 -0.0417
11661TIP3    H134926   5.481   7.697   5.563 -0.0846  0.2529 -0.4093
11661TIP3    H234927   5.480   7.846   5.592  1.4069  0.0538  0.7791
11662TIP3   OH234928   3.815   2.157   1.249  0.0497  0.2840 -0.2753
11662TIP3    H134929   3.770   2.151   1.164  0.1094 -0.2025 -0.2781
11662TIP3    H234930   3.785   2.240   1.286 -1.6628 -0.4690  0.1621
11663TIP3   OH234931   7.829   2.185   3.246 -0.1055 -0.1552 -0.2081
11663TIP3    H134932   7.761   2.118   3.237  0.0446 -0.0354 -3.1102
11663TIP3    H234933   7.781   2.267   3.259 -0.4332 -0.3381 -0.2540
11664TIP3   OH234934   4.885   7.229   0.700 -0.1619  0.6179  0.2314
11664TIP3    H134935   4.914   7.158   0.757  4.1919  1.1406 -0.9413
11664TIP3    H234936   4.868   7.302   0.759  0.3487  0.0378  1.1150
11665TIP3   OH234937   8.142   6.097   0.833  0.0491 -1.1071  0.1487
11665TIP3    H134938   8.051   6.107   0.806 -0.1026  0.5559  1.1198
11665TIP3    H234939   8.179   6.035   0.771 -1.6808 -1.6351 -0.4084
11666TIP3   OH234940   6.702   4.323   1.216 -0.4097  0.2303 -0.3596
11666TIP3    H134941   6.707   4.297   1.124 -0.7612  2.1645 -0.9627
11666TIP3    H234942   6.738   4.411   1.219  0.5346 -0.1619  1.5609
11667TIP3   OH234943   2.864   0.705   1.207 -0.5763 -0.1279 -0.2515
11667TIP3    H134944   2.884   0.766   1.277 -1.1090 -0.3607  0.1104
11667TIP3    H234945   2.857   0.620   1.250  1.3133 -0.6552 -0.9207
11668TIP3   OH234946   3.270   2.360   4.913 -0.1243  0.6203 -0.1185
11668TIP3    H134947   3.210   2.355   4.986  0.6888 -0.0049  0.5320
11668TIP3    H234948   3.221   2.403   4.843 -1.6078 -0.6456  0.0953
11669TIP3   OH234949   5.177   6.385   6.641 -0.2441 -0.2259  0.0287
11669TIP3    H134950   5.140   6.366   6.727  1.0917  2.5710  1.3873
11669TIP3    H234951   5.254   6.329   6.634 -1.4131 -1.8510 -0.2545
11670TIP3   OH234952   3.618   0.951   1.772  0.4775 -0.0128 -0.2009
11670TIP3    H134953   3.657   0.945   1.685  0.9462  2.0039 -0.1782
11670TIP3    H234954   3.692   0.970   1.830 -0.0688  0.4548  0.3574
11671TIP3   OH234955   2.774   4.778   3.314 -0.4871 -0.2397  0.0591
11671TIP3    H134956   2.848   4.833   3.343  1.7703 -2.2226 -1.5268
11671TIP3    H234957   2.716   4.839   3.269  1.0381  1.1588 -0.1353
11672TIP3   OH234958   1.692   3.957   1.386 -0.1387 -0.1572 -0.0082
11672TIP3    H134959   1.616   4.010   1.364  0.0193  0.3280  0.5868
11672TIP3    H234960   1.668   3.868   1.359 -1.0813 -0.0857  0.5393
11673TIP3   OH234961   0.099   4.529   4.830  0.1035  0.4122 -0.2094
11673TIP3    H134962   0.052   4.559   4.752 -3.2969  1.2406  1.9632
11673TIP3    H234963   0.097   4.434   4.823 -2.6714  0.3639  0.0709
11674TIP3   OH234964   8.217   2.987   0.074  0.3293  0.2677  0.2042
11674TIP3    H134965   8.205   3.071   0.030 -0.7335 -0.2846 -0.6133
11674TIP3    H234966   8.311   2.980   0.087  0.3939  1.8163  0.7820
11675TIP3   OH234967   6.430   2.545   0.341 -0.0234  0.1478  0.0149
11675TIP3    H134968   6.452   2.590   0.423 -0.4140 -1.6946  1.2049
11675TIP3    H234969   6.354   2.492   0.364  0.5375 -1.2533 -1.2342
11676TIP3   OH234970   5.859   2.767   3.180  0.2410 -0.4609  0.1089
11676TIP3    H134971   5.832   2.713   3.105  0.5513 -0.5956  0.0885
11676TIP3    H234972   5.830   2.718   3.257 -1.0421  0.1964  0.0752
11677TIP3   OH234973   1.855   5.854   2.669  0.9251  0.4992  0.0914
11677TIP3    H134974   1.783   5.796   2.646  1.8014 -1.2716  1.5987
11677TIP3    H234975   1.930   5.820   2.621  1.5124  0.1961  1.2052
11678TIP3   OH234976   6.901   7.810   3.816  0.1022  0.0121  0.1549
11678TIP3    H134977   6.897   7.741   3.750  1.0455  0.2127 -0.1295
11678TIP3    H234978   6.871   7.768   3.897 -2.3757  0.1214 -0.6518
11679TIP3   OH234979   3.246   5.831   2.195  0.2811 -0.2489  0.6593
11679TIP3    H134980   3.216   5.913   2.235  0.1403  0.3215 -0.5568
11679TIP3    H234981   3.166   5.785   2.171  0.3313  0.2668 -0.5983
11680TIP3   OH234982   2.290   1.382   5.895  0.2262  0.1507  0.1416
11680TIP3    H134983   2.274   1.288   5.888  1.0034  0.0256  0.0074
11680TIP3    H234984   2.239   1.409   5.971 -0.3351 -0.3005 -0.0664
11681TIP3   OH234985   6.847   5.099   1.104  0.6080 -0.2820  0.6917
11681TIP3    H134986   6.807   5.163   1.163 -1.0722 -0.6375 -0.0185
11681TIP3    H234987   6.937   5.130   1.092 -0.0831  1.7754  0.5836
11682TIP3   OH234988   6.532   7.343   6.585 -0.0530 -0.2688 -0.8499
11682TIP3    H134989   6.446   7.373   6.613 -0.0185 -0.4521 -0.5397
11682TIP3    H234990   6.515   7.275   6.521 -0.1339  0.7472 -1.9417
11683TIP3   OH234991   2.692   7.712   6.515 -0.3851  0.1491 -0.3118
11683TIP3    H134992   2.655   7.641   6.569  0.6376 -0.8877 -0.9259
11683TIP3    H234993   2.660   7.694   6.427 -1.9089  1.7437 -0.1335
11684TIP3   OH234994   7.148   1.144   3.956 -1.1964  0.0276 -0.0725
11684TIP3    H134995   7.186   1.089   4.025  3.5314  0.7893 -1.6811
11684TIP3    H234996   7.107   1.216   4.003  0.7788 -0.1110  2.0278
11685TIP3   OH234997   0.007   2.433   0.318 -0.2400  0.3751 -0.5335
11685TIP3    H134998   0.056   2.354   0.295 -2.2277 -1.7153  1.8247
11685TIP3    H234999  -0.028   2.464   0.234  0.2015 -1.5267 -1.4842
11686TIP3   OH235000   0.119   1.318   0.239  0.1643  0.4904  0.3854
11686TIP3    H135001   0.162   1.298   0.322 -1.6200 -1.3479  0.9275
11686TIP3    H235002   0.039   1.365   0.264  1.0804  2.6715 -0.5270
11687TIP3   OH235003   7.070   1.249   6.738  0.0663 -0.9902  0.7691
11687TIP3    H135004   7.063   1.174   6.796 -1.7905 -0.0126  1.9124
11687TIP3    H235005   7.123   1.313   6.786  1.4802 -1.4374 -0.1212
11688TIP3   OH235006   8.005   4.266   1.039 -0.3707 -0.1822  0.4312
11688TIP3    H135007   7.999   4.341   1.098 -1.2151 -1.7069  2.4371
11688TIP3    H235008   7.914   4.239   1.026 -0.0701 -0.9722 -0.0943
11689TIP3   OH235009   4.710   1.160   6.657 -0.2202  0.3286 -0.4959
11689TIP3    H135010   4.681   1.070   6.669  0.7034  0.0763 -0.0499
11689TIP3    H235011   4.806   1.154   6.658 -0.1511  1.4100  0.2991
11690TIP3   OH235012   0.642   4.167   4.592 -0.1672  0.5154 -0.2851
11690TIP3    H135013   0.674   4.222   4.521  1.6678  0.4721  0.4599
11690TIP3    H235014   0.715   4.108   4.611 -0.3772  0.9471  2.0593
11691TIP3   OH235015   0.416   0.913   4.571 -0.0658 -0.3883 -0.3877
11691TIP3    H135016   0.470   0.988   4.595  2.5232 -1.8811 -1.2550
11691TIP3    H235017   0.441   0.844   4.632 -0.1268 -1.4640 -1.5412
11692TIP3   OH235018   4.165   1.610   5.876 -0.0443 -0.2132  0.0562
11692TIP3    H135019   4.122   1.537   5.919  1.3937 -1.0608  0.1216
11692TIP3    H235020   4.187   1.578   5.789 -2.3517  1.2803 -1.1760
11693TIP3   OH235021   7.072   3.926   5.389 -0.0676 -0.2262 -0.0794
11693TIP3    H135022   7.119   3.952   5.309  0.1110 -0.8418 -0.1759
11693TIP3    H235023   6.983   3.906   5.360 -0.9224  2.5471  0.3397
11694TIP3   OH235024   6.472   2.643   4.455 -0.3986  0.2453  0.1115
11694TIP3    H135025   6.426   2.641   4.371  1.5415 -0.1354 -0.9966
11694TIP3    H235026   6.423   2.705   4.508 -1.5985  0.5896 -1.3422
11695TIP3   OH235027   1.054   0.549   0.846 -0.1848 -0.5744 -0.3596
11695TIP3    H135028   1.143   0.564   0.814 -0.9338 -1.9420 -3.4895
11695TIP3    H235029   1.028   0.632   0.885  1.9587  0.3117 -0.6604
11696TIP3   OH235030   5.996   1.293   4.126  0.6741  0.3743  1.0740
11696TIP3    H135031   5.944   1.215   4.140 -1.5869  1.0611 -2.2979
11696TIP3    H235032   5.954   1.361   4.179  1.1404 -0.1062  2.0806
11697TIP3   OH235033   1.438   1.656   0.452 -0.1520  0.3852 -0.2798
11697TIP3    H135034   1.492   1.631   0.527 -0.5670  1.0996  0.2822
11697TIP3    H235035   1.448   1.584   0.389 -0.3443 -0.5704  0.7498
11698TIP3   OH235036   5.159   0.426   0.364  0.0410  0.0355  0.0429
11698TIP3    H135037   5.076   0.453   0.403 -1.4056 -1.0064 -2.1334
11698TIP3    H235038   5.226   0.466   0.420 -1.9071  2.2247  0.9658
11699TIP3   OH235039   2.180   2.126   4.808 -0.0462 -0.2599  0.1245
11699TIP3    H135040   2.094   2.097   4.778 -0.9147  0.7690  1.4667
11699TIP3    H235041   2.161   2.202   4.864  1.5855 -0.9303  1.6892
11700TIP3   OH235042   6.023   3.713   4.436  0.0112  0.4017 -0.0314
11700TIP3    H135043   5.927   3.712   4.438 -0.0581 -2.2713 -0.4429
11700TIP3    H235044   6.045   3.787   4.380 -1.8259  0.8307 -0.2622
11701TIP3   OH235045   4.554   7.494   1.111 -0.7622  0.2270 -0.3310
11701TIP3    H135046   4.634   7.532   1.075 -2.0730  3.6952 -0.0234
11701TIP3    H235047   4.578   7.461   1.197  0.5016  0.4529 -0.5857
11702TIP3   OH235048   1.322   3.461   2.824  0.0838 -0.3672  0.4739
11702TIP3    H135049   1.281   3.468   2.738 -0.6114  0.9722  0.8791
11702TIP3    H235050   1.334   3.551   2.853  0.1095 -0.7856  1.8739
11703TIP3   OH235051   0.047   0.610   5.975  0.3437  0.2636 -0.1503
11703TIP3    H135052  -0.024   0.673   5.975  0.9673  0.9805 -0.2185
11703TIP3    H235053   0.030   0.555   6.052 -0.9944 -0.4141 -0.9028
11704TIP3   OH235054   4.079   2.882   6.053  0.3049 -0.5781  0.1098
11704TIP3    H135055   4.053   2.805   6.103  0.4768 -1.8962 -1.7435
11704TIP3    H235056   4.174   2.876   6.046  0.4997  0.6577  1.2207
11705TIP3   OH235057   7.903   4.699   3.632  0.4102  0.3697 -0.3229
11705TIP3    H135058   7.813   4.666   3.627  1.0436 -1.5453  0.1524
11705TIP3    H235059   7.902   4.760   3.706 -0.0466 -1.2875  1.1140
11706TIP3   OH235060   2.624   2.839   4.332 -0.4507  0.3557  0.3558
11706TIP3    H135061   2.625   2.927   4.293 -0.6704  0.1588 -0.0968
11706TIP3    H235062   2.660   2.852   4.420 -0.1947  0.8475  0.1832
11707TIP3   OH235063   2.883   5.583   5.767 -0.2331 -0.0897  0.1162
11707TIP3    H135064   2.930   5.618   5.843  2.6666  0.7055 -1.8803
11707TIP3    H235065   2.803   5.635   5.762  1.5593  2.8691  0.1866
11708TIP3   OH235066   3.445   5.710   0.791 -0.0695  0.2437 -0.2305
11708TIP3    H135067   3.540   5.703   0.802 -0.2569 -0.9947  0.8373
11708TIP3    H235068   3.423   5.642   0.727 -0.4711 -0.9326  1.1204
11709TIP3   OH235069   2.702   4.225   4.593  0.7486  0.0349 -0.0800
11709TIP3    H135070   2.760   4.220   4.669  0.1046  0.8714  0.4820
11709TIP3    H235071   2.616   4.242   4.630  0.7768  2.8904 -1.0594
11710TIP3   OH235072   2.769   3.237   4.785  0.3483 -0.3638 -0.3656
11710TIP3    H135073   2.810   3.156   4.755  0.5102 -0.0395 -1.0224
11710TIP3    H235074   2.842   3.298   4.796  0.0281  0.3796 -2.0419
11711TIP3   OH235075   7.436   5.551   0.360  0.2205 -0.1915  0.0846
11711TIP3    H135076   7.446   5.456   0.352  2.5099 -0.1404  1.4800
11711TIP3    H235077   7.356   5.563   0.411 -0.8034 -1.2784 -1.1859
11712TIP3   OH235078   5.777   6.203   6.364  0.3066  0.2500 -0.0058
11712TIP3    H135079   5.811   6.115   6.354 -3.1831 -1.0937 -1.7534
11712TIP3    H235080   5.696   6.192   6.414 -0.9079  2.1930 -1.3867
11713TIP3   OH235081   0.175   3.197   3.130 -0.6145 -0.0033 -0.5732
11713TIP3    H135082   0.209   3.127   3.074  1.1813  0.0103  0.4185
11713TIP3    H235083   0.198   3.278   3.084 -0.9654 -0.0250 -0.7894
11714TIP3   OH235084   5.307   4.189   4.286 -0.3009 -0.1920  0.0565
11714TIP3    H135085   5.331   4.273   4.246  1.0722  0.8418  2.7972
11714TIP3    H235086   5.247   4.149   4.223  0.9203  1.6909 -2.5256
11715TIP3   OH235087   1.880   7.214   2.311 -0.3875  0.4688  0.6088
11715TIP3    H135088   1.917   7.182   2.393 -0.2224  1.7442  1.0554
11715TIP3    H235089   1.847   7.135   2.267  1.3199 -0.4772  0.9591
11716TIP3   OH235090   4.383   4.094   3.057  0.0133 -0.3345  0.6214
11716TIP3    H135091   4.474   4.119   3.046 -0.3221  0.3379 -0.9427
11716TIP3    H235092   4.386   4.014   3.109  1.5803 -1.0206 -0.4443
11717TIP3   OH235093   4.557   1.989   0.717 -0.1699  0.4619 -0.1711
11717TIP3    H135094   4.611   2.068   0.715  0.8076 -0.1213  1.1162
11717TIP3    H235095   4.494   2.005   0.787 -0.0760  0.1854 -0.0190
11718TIP3   OH235096   1.913   3.554   0.003 -0.2758 -0.1453  0.5088
11718TIP3    H135097   1.845   3.591   0.060 -0.4036  1.0573 -0.3869
11718TIP3    H235098   1.996   3.581   0.043 -0.3621  0.5093  0.2503
11719TIP3   OH235099   1.068   3.346   2.214 -0.5548  0.1689  0.8460
11719TIP3    H135100   1.092   3.274   2.273  0.3628  0.0136  0.3100
11719TIP3    H235101   0.981   3.323   2.182 -0.0872 -0.9688  0.3191
11720TIP3   OH235102   4.324   4.524   2.934  0.2466 -0.6886 -0.3413
11720TIP3    H135103   4.264   4.474   2.879 -1.2705  0.2650  0.3777
11720TIP3    H235104   4.306   4.616   2.912  0.5088 -0.3408  0.8155
11721TIP3   OH235105   0.118   7.093   0.132  0.0634  0.4442 -0.4098
11721TIP3    H135106   0.067   7.121   0.208  0.5064  1.3696 -0.4381
11721TIP3    H235107   0.207   7.121   0.151  0.4035 -0.4149 -0.7347
11722TIP3   OH235108   5.526   5.549   6.300 -0.5171  0.3453 -0.0536
11722TIP3    H135109   5.525   5.474   6.358 -0.4200  0.9192  0.7100
11722TIP3    H235110   5.585   5.524   6.229 -1.3172 -0.6973 -0.3861
11723TIP3   OH235111   5.667   3.340   5.165  0.6303  0.1970 -0.3131
11723TIP3    H135112   5.730   3.360   5.235  0.3247  3.2028 -0.7542
11723TIP3    H235113   5.717   3.352   5.084  0.5374 -1.6345 -0.6908
11724TIP3   OH235114   4.560   6.048   6.699 -0.5234  0.3530 -0.0196
11724TIP3    H135115   4.556   6.130   6.650  0.5235 -0.7125 -1.9979
11724TIP3    H235116   4.643   6.052   6.746 -0.7938  0.6969  0.4410
11725TIP3   OH235117   2.727   0.497   2.369  0.0551 -0.2532  0.3797
11725TIP3    H135118   2.652   0.440   2.385 -0.4303  0.7106  1.6902
11725TIP3    H235119   2.756   0.473   2.281 -1.2884 -1.1964  0.1510
11726TIP3   OH235120   2.365   7.683   0.505 -0.7683  1.0955 -0.0258
11726TIP3    H135121   2.429   7.749   0.530 -1.0943  1.1610  0.6578
11726TIP3    H235122   2.401   7.642   0.426 -0.3633  1.7980 -0.2064
11727TIP3   OH235123   4.168   0.640   1.782  0.5074 -0.3023 -0.4546
11727TIP3    H135124   4.226   0.623   1.856  1.9082  0.5542 -1.3188
11727TIP3    H235125   4.177   0.563   1.726  1.7994  0.3601 -1.1888
11728TIP3   OH235126   3.908   3.924   0.586 -0.6065 -0.2249 -0.5417
11728TIP3    H135127   3.971   3.991   0.558 -0.5512 -0.5029 -1.0828
11728TIP3    H235128   3.961   3.847   0.605 -0.9426 -1.2446 -3.2981
11729TIP3   OH235129   6.749   6.740   1.415 -0.8745  0.4077  0.2319
11729TIP3    H135130   6.756   6.659   1.465  2.1652 -0.3222 -1.1281
11729TIP3    H235131   6.745   6.809   1.481 -1.2354 -0.7304  1.4280
11730TIP3   OH235132   2.649   3.351   4.173  0.2510  0.5528  0.3685
11730TIP3    H135133   2.713   3.421   4.192 -1.1468  1.5547  1.6232
11730TIP3    H235134   2.598   3.385   4.099  0.5301  0.1651 -0.0115
11731TIP3   OH235135   8.092   5.801   3.823  0.1861  0.2421  0.1287
11731TIP3    H135136   8.148   5.834   3.893 -0.8185 -1.0879  1.6323
11731TIP3    H235137   8.060   5.880   3.780  1.7348  1.0637  0.4091
11732TIP3   OH235138   0.988   2.589   4.470  1.0334  0.3213  0.2347
11732TIP3    H135139   1.063   2.530   4.473  1.2394  0.5698 -0.0525
11732TIP3    H235140   0.914   2.534   4.497  1.5218  0.4296  1.8929
11733TIP3   OH235141   3.088   3.045   3.471  0.2216 -0.0433 -0.2729
11733TIP3    H135142   3.100   3.008   3.558  0.7127 -0.7401 -0.6313
11733TIP3    H235143   2.996   3.027   3.450  0.5409 -1.4084 -0.5918
11734TIP3   OH235144   4.349   2.911   5.232  0.2521 -0.6111  0.3329
11734TIP3    H135145   4.346   2.856   5.309 -0.7009  0.1619  0.8851
11734TIP3    H235146   4.289   2.983   5.252 -0.6510 -0.8103 -1.4375
11735TIP3   OH235147   2.669   7.225   0.610  0.1923 -0.0112 -0.0185
11735TIP3    H135148   2.667   7.132   0.632  0.4324 -0.1628 -0.6083
11735TIP3    H235149   2.604   7.234   0.540 -0.4858  0.4362  0.6542
11736TIP3   OH235150   0.802   1.165   1.337 -0.4702 -0.2137 -0.0231
11736TIP3    H135151   0.883   1.206   1.367 -0.6380 -0.8657  1.3691
11736TIP3    H235152   0.788   1.091   1.396 -0.9115 -1.4779 -1.6228
11737TIP3   OH235153   2.660   1.419   4.684  0.5380 -0.3087  0.7465
11737TIP3    H135154   2.580   1.377   4.714 -0.7349  1.3520 -0.1854
11737TIP3    H235155   2.677   1.486   4.750  1.5500 -1.0578  1.2767
11738TIP3   OH235156   4.802   6.565   5.939 -0.2974  0.3126  0.3800
11738TIP3    H135157   4.743   6.636   5.913 -0.2506 -0.2141 -1.2734
11738TIP3    H235158   4.744   6.497   5.973 -0.6024  0.0093 -0.7355
11739TIP3   OH235159   7.744   6.619   4.698 -0.1451  0.2279 -0.1866
11739TIP3    H135160   7.753   6.707   4.736  1.6655  1.2426 -2.6134
11739TIP3    H235161   7.659   6.620   4.654 -1.1257 -0.0744  1.6422
11740TIP3   OH235162   8.041   7.239   4.224 -0.0660  0.2268 -0.6585
11740TIP3    H135163   8.125   7.217   4.184 -0.8860  1.0671 -3.0050
11740TIP3    H235164   8.016   7.161   4.273  2.9648  0.6450  1.8002
11741TIP3   OH235165   7.303   2.737   3.583  0.3006 -0.0075  0.4320
11741TIP3    H135166   7.391   2.741   3.620 -0.2408 -0.7536  1.9207
11741TIP3    H235167   7.250   2.788   3.645 -0.1911  1.2034 -0.9281
11742TIP3   OH235168   3.159   6.172   0.626 -0.0540 -0.0888  0.2909
11742TIP3    H135169   3.116   6.110   0.566 -0.1859  0.1183  0.1674
11742TIP3    H235170   3.225   6.120   0.671 -0.7428 -0.5262  0.8223
11743TIP3   OH235171   7.058   6.960   6.009  0.5355 -0.3269  0.2099
11743TIP3    H135172   7.077   6.975   5.917  0.6052  0.3704  0.3300
11743TIP3    H235173   7.117   6.889   6.035 -0.7925 -1.8233 -0.7290
11744TIP3   OH235174   0.276   6.423   5.901  0.2269  0.2243  0.0981
11744TIP3    H135175   0.242   6.372   5.975 -2.3094  0.9410 -0.4608
11744TIP3    H235176   0.314   6.501   5.940  3.2359 -1.4689  0.8935
11745TIP3   OH235177   2.562   6.191   3.798 -0.1912  0.4694 -0.0692
11745TIP3    H135178   2.656   6.209   3.810  0.0104 -0.8608  0.5691
11745TIP3    H235179   2.532   6.162   3.884 -1.1214  0.5827 -0.3512
11746TIP3   OH235180   6.746   7.750   4.572 -0.3968 -0.5449  0.0061
11746TIP3    H135181   6.722   7.741   4.479 -1.2217  0.4039  0.1086
11746TIP3    H235182   6.727   7.842   4.592  0.4816 -0.5590  0.9240
11747TIP3   OH235183   0.701   3.364   1.481  0.5636  0.1127  0.6613
11747TIP3    H135184   0.776   3.332   1.431  1.2227  0.7187  1.2376
11747TIP3    H235185   0.668   3.438   1.430  0.0379 -0.4514  0.1580
11748TIP3   OH235186   6.589   4.355   2.808  0.6493  0.2865  0.0050
11748TIP3    H135187   6.643   4.333   2.732 -0.0782 -0.5726 -0.2873
11748TIP3    H235188   6.594   4.450   2.815  1.4976  0.2895 -0.5313
11749TIP3   OH235189   1.394   0.022   0.464  0.3744 -0.3795  0.3889
11749TIP3    H135190   1.473  -0.030   0.450  1.1722  0.9415 -0.2723
11749TIP3    H235191   1.425   0.113   0.468 -1.1233  0.2030 -0.1692
11750TIP3   OH235192   5.927   3.443   5.343  0.1035  0.2169 -0.2466
11750TIP3    H135193   5.938   3.379   5.273 -0.1071 -0.2240  0.1237
11750TIP3    H235194   5.948   3.527   5.301 -2.0588  0.2430 -1.4142
11751TIP3   OH235195   0.946   3.361   1.334  0.1630 -0.8871  0.5696
11751TIP3    H135196   1.015   3.303   1.303  0.4357 -0.0073 -0.5509
11751TIP3    H235197   0.923   3.413   1.257 -0.1104  0.4318  1.5159
11752TIP3   OH235198   2.697   2.222   0.711  0.3826  0.2961 -0.2263
11752TIP3    H135199   2.637   2.286   0.749  0.7153 -0.2194  1.2304
11752TIP3    H235200   2.640   2.152   0.678  0.0672  0.9493 -1.1166
11753TIP3   OH235201   1.478   3.923   4.789  0.3821  0.8957 -0.1825
11753TIP3    H135202   1.440   3.837   4.769 -1.4419  1.7004 -0.3338
11753TIP3    H235203   1.501   3.960   4.704  1.2140  0.5713 -0.1145
11754TIP3   OH235204   2.509   7.519   4.127 -0.3459  0.3529  0.2119
11754TIP3    H135205   2.556   7.439   4.149  0.3627  0.3561 -1.1858
11754TIP3    H235206   2.491   7.511   4.033 -1.5151  1.2036  0.3387
11755TIP3   OH235207   2.061   5.991   5.100 -0.3716 -0.0747  0.0308
11755TIP3    H135208   2.082   6.022   5.188 -1.4973 -0.3817  0.4248
11755TIP3    H235209   2.054   5.896   5.108 -0.5172 -0.1033 -0.3753
11756TIP3   OH235210   7.156   5.425   1.414  0.3825 -0.0214 -0.1893
11756TIP3    H135211   7.061   5.417   1.422  0.3689  0.7923  0.6745
11756TIP3    H235212   7.186   5.446   1.502  1.1586  1.5615 -0.7907
11757TIP3   OH235213   3.771   3.591   1.416 -0.1315 -0.1217  0.0425
11757TIP3    H135214   3.852   3.590   1.467  0.7488 -0.8742 -1.3106
11757TIP3    H235215   3.773   3.509   1.367 -1.2701  0.2794 -0.7031
11758TIP3   OH235216   5.925   0.049   3.495 -0.3934  0.2844  0.4560
11758TIP3    H135217   6.001   0.093   3.456  1.0790  1.3147  4.0595
11758TIP3    H235218   5.961  -0.031   3.533 -1.5787 -0.3121  0.3635
11759TIP3   OH235219   3.452   4.074   1.813  0.5095 -0.0256 -0.4502
11759TIP3    H135220   3.417   3.990   1.782 -0.6227  0.6951 -1.1946
11759TIP3    H235221   3.474   4.058   1.905  2.6795 -1.8250 -1.1876
11760TIP3   OH235222   7.812   5.493   1.913  0.1911 -0.1508 -0.3805
11760TIP3    H135223   7.795   5.416   1.968 -0.0181 -0.7450 -1.2590
11760TIP3    H235224   7.854   5.555   1.973 -2.2048  0.1769  1.0708
11761TIP3   OH235225   6.568   0.048   4.647 -0.0000 -0.3279 -0.4592
11761TIP3    H135226   6.575  -0.046   4.634  1.6235 -0.0387 -2.2218
11761TIP3    H235227   6.568   0.084   4.558 -0.5034  1.3357  0.1762
11762TIP3   OH235228   5.402   7.144   0.366 -0.7145 -0.2164  0.3210
11762TIP3    H135229   5.390   7.132   0.272 -0.3713 -0.2001  0.2722
11762TIP3    H235230   5.486   7.101   0.385 -0.7745 -0.2068  0.6145
11763TIP3   OH235231   2.627   5.385   4.131 -0.2565  0.1654  0.3862
11763TIP3    H135232   2.632   5.379   4.227 -1.0643 -0.8903  0.3779
11763TIP3    H235233   2.536   5.409   4.114  0.2345  1.8268 -0.0810
11764TIP3   OH235234   6.467   3.190   2.848 -0.2734 -0.2790 -0.3723
11764TIP3    H135235   6.526   3.240   2.904  0.3083 -2.4890  1.0842
11764TIP3    H235236   6.383   3.192   2.894 -0.3603 -0.2606 -0.5323
11765TIP3   OH235237   7.136   2.393   0.723 -0.2246  0.1150  0.7329
11765TIP3    H135238   7.166   2.446   0.796 -0.4503 -0.3478  1.1649
11765TIP3    H235239   7.048   2.366   0.747 -0.8067  1.0297 -0.2922
11766TIP3   OH235240   0.031   3.706   0.483  0.4144  0.3330  0.3061
11766TIP3    H135241  -0.063   3.722   0.471  0.5963  0.0397 -2.1017
11766TIP3    H235242   0.069   3.794   0.493  0.0123  0.5606 -0.1117
11767TIP3   OH235243   6.587   7.486   5.386 -0.0932 -0.4061 -0.3249
11767TIP3    H135244   6.672   7.493   5.343 -0.5124 -0.7650 -1.2265
11767TIP3    H235245   6.524   7.512   5.319 -0.6934 -0.0254  0.3735
11768TIP3   OH235246   4.843   7.046   6.344 -0.2895 -0.3156 -0.7019
11768TIP3    H135247   4.794   6.989   6.403  0.6396  0.6384  1.1039
11768TIP3    H235248   4.935   7.036   6.371  0.2315 -0.1802 -2.3122
11769TIP3   OH235249   7.741   0.340   1.679 -0.0514  0.7532 -0.2793
11769TIP3    H135250   7.713   0.297   1.599  0.6358  1.2767 -0.8187
11769TIP3    H235251   7.831   0.308   1.693  0.5564  2.1528 -0.8187
11770TIP3   OH235252   2.009   6.703   0.021 -0.1241  1.2420  0.7081
11770TIP3    H135253   1.955   6.626   0.039 -0.1860  1.5003  1.6970
11770TIP3    H235254   2.084   6.669  -0.028 -0.3872  0.6272  0.7207
11771TIP3   OH235255   2.302   0.718   5.241 -0.1187  0.6061 -0.1978
11771TIP3    H135256   2.278   0.745   5.152  0.1255 -1.7301 -1.0602
11771TIP3    H235257   2.220   0.687   5.280  0.3115 -1.8216 -1.0167
11772TIP3   OH235258   1.855   5.409   4.583  0.2813  0.2729 -0.8433
11772TIP3    H135259   1.800   5.478   4.619 -0.4775 -0.4337 -0.6285
11772TIP3    H235260   1.945   5.440   4.596  0.1217 -0.4428  2.6961
11773TIP3   OH235261   4.666   3.289   5.867 -0.5964  0.0762  0.3475
11773TIP3    H135262   4.698   3.219   5.925 -0.9261 -0.1536  0.2539
11773TIP3    H235263   4.691   3.260   5.779  1.0883  1.0539  0.4620
11774TIP3   OH235264   6.082   1.301   4.423  0.6028  0.5929 -0.4101
11774TIP3    H135265   6.049   1.378   4.376  0.9018  1.6876  1.1173
11774TIP3    H235266   6.165   1.330   4.460  1.4970 -0.9683 -1.0755
11775TIP3   OH235267   0.250   3.574   4.461  1.0456  0.1537 -0.1258
11775TIP3    H135268   0.233   3.570   4.556  0.7821  0.6537 -0.1457
11775TIP3    H235269   0.320   3.639   4.452  0.5172  0.7053 -0.3346
11776TIP3   OH235270   1.033   6.341   1.590  0.6234 -0.5295 -0.6401
11776TIP3    H135271   0.946   6.330   1.627  1.0860 -2.3063  0.0153
11776TIP3    H235272   1.065   6.423   1.627 -1.2860  0.9405 -2.0526
11777TIP3   OH235273   5.505   6.462   0.992  0.5488  0.3521 -0.1135
11777TIP3    H135274   5.477   6.419   0.911  2.6885 -0.0283 -0.7151
11777TIP3    H235275   5.426   6.505   1.024 -1.4537 -2.9494 -0.1123
11778TIP3   OH235276   5.083   0.881   0.500  0.0860 -0.2254 -0.0650
11778TIP3    H135277   5.099   0.966   0.461  2.0789 -0.3846  0.2990
11778TIP3    H235278   5.106   0.892   0.593 -0.9648 -0.8192  0.2930
11779TIP3   OH235279   2.224   4.113   5.060  0.3615 -0.0023  0.4317
11779TIP3    H135280   2.282   4.160   5.000 -1.7883 -0.8063 -2.4840
11779TIP3    H235281   2.155   4.176   5.081  0.8383  0.1126  1.7633
11780TIP3   OH235282   2.422   2.675   4.175 -0.4377 -0.3168 -0.1336
11780TIP3    H135283   2.460   2.748   4.223 -1.7541 -0.0954  0.6254
11780TIP3    H235284   2.409   2.607   4.242 -2.4686  0.0609 -0.0774
11781TIP3   OH235285   5.465   2.384   0.490 -0.0403  0.2581  0.1735
11781TIP3    H135286   5.525   2.437   0.437 -1.1043 -1.0247 -2.5185
11781TIP3    H235287   5.384   2.436   0.493 -0.3881 -0.2362 -0.5775
11782TIP3   OH235288   3.646   3.793   2.659 -0.2495  0.1448  0.2604
11782TIP3    H135289   3.609   3.868   2.705  1.8773  1.9581 -0.8367
11782TIP3    H235290   3.662   3.824   2.570  2.1679 -1.0687  0.1908
11783TIP3   OH235291   4.678   6.665   1.261  0.1077 -0.2864 -0.4135
11783TIP3    H135292   4.749   6.715   1.221 -0.0167  1.0190  0.9346
11783TIP3    H235293   4.678   6.692   1.353 -2.3326 -0.0103 -0.4481
11784TIP3   OH235294   4.858   0.840   3.004  0.4310  0.5299  0.4141
11784TIP3    H135295   4.846   0.933   3.022 -0.2476  0.5314 -0.0224
11784TIP3    H235296   4.843   0.797   3.089  1.0255  0.8335  0.6772
11785TIP3   OH235297   8.081   4.823   0.651  0.0422 -0.0854  0.3956
11785TIP3    H135298   8.106   4.788   0.566 -0.2771 -0.4311  0.4443
11785TIP3    H235299   8.020   4.759   0.687 -0.9518  0.7547  0.2627
11786TIP3   OH235300   1.852   3.952   6.200  0.0200  0.4710 -0.4046
11786TIP3    H135301   1.887   3.999   6.125  0.4255 -1.5459 -1.5558
11786TIP3    H235302   1.912   3.879   6.213 -1.6131 -0.8663  0.0282
11787TIP3   OH235303   7.635   4.721   1.439 -0.3216  0.4330  0.3469
11787TIP3    H135304   7.704   4.659   1.462 -1.2493 -0.5664  0.5077
11787TIP3    H235305   7.639   4.728   1.344  0.2849  0.7308  0.3906
11788TIP3   OH235306   2.465   7.207   0.393  0.3389 -0.7013 -0.4220
11788TIP3    H135307   2.385   7.159   0.369  0.6358 -0.8958 -1.0411
11788TIP3    H235308   2.463   7.286   0.339 -0.5130  0.3697  1.1138
11789TIP3   OH235309   3.909   6.146   0.546  0.1035 -0.0701 -0.2203
11789TIP3    H135310   3.963   6.096   0.484  1.1662  0.8955 -0.1157
11789TIP3    H235311   3.958   6.227   0.560 -0.3625 -0.0490  1.5075
11790TIP3   OH235312   5.428   5.051   1.711 -0.2925  0.0826  0.2314
11790TIP3    H135313   5.371   4.974   1.714  1.0601 -0.9282  0.6561
11790TIP3    H235314   5.375   5.121   1.751 -1.2557 -0.8020  0.5541
11791TIP3   OH235315   0.889   5.741   2.457 -0.3795  0.2872 -0.3483
11791TIP3    H135316   0.956   5.798   2.493 -0.6948  0.4054  0.0593
11791TIP3    H235317   0.876   5.673   2.523 -0.5581  0.1821 -0.4887
11792TIP3   OH235318   0.221   1.535   1.915  0.0674 -0.4262 -0.0622
11792TIP3    H135319   0.149   1.550   1.854 -1.0597 -0.4656  1.2195
11792TIP3    H235320   0.261   1.453   1.886 -0.7917 -0.7302 -0.4196
11793TIP3   OH235321   0.037   1.832   0.950 -0.2773 -0.6191 -0.3328
11793TIP3    H135322  -0.038   1.843   0.892 -0.7676 -1.6312  0.0848
11793TIP3    H235323   0.113   1.844   0.894 -0.7397  0.3248 -0.7814
11794TIP3   OH235324   4.217   1.643   6.183 -0.1010  0.2851  0.1087
11794TIP3    H135325   4.177   1.635   6.097 -0.2813  1.5430  0.0673
11794TIP3    H235326   4.156   1.697   6.233  0.8580  1.0463  0.4759
11795TIP3   OH235327   7.171   6.426   0.679 -0.0403  0.0905  0.3331
11795TIP3    H135328   7.210   6.482   0.746  1.2159 -1.0756  0.6177
11795TIP3    H235329   7.109   6.371   0.727  1.0366 -0.9126  0.6208
11796TIP3   OH235330   1.881   6.044   4.539  0.4881  0.3892  0.6960
11796TIP3    H135331   1.850   5.960   4.504  1.5188  0.8308 -1.3500
11796TIP3    H235332   1.801   6.086   4.572  0.0382 -1.6354  2.4135
11797TIP3   OH235333   4.862   5.647   4.142 -0.0129  0.0257 -0.1771
11797TIP3    H135334   4.904   5.593   4.076  0.7787 -0.9618  1.0813
11797TIP3    H235335   4.825   5.585   4.204 -2.9257  0.8669 -0.9186
11798TIP3   OH235336   4.548   7.280   1.647 -0.0295 -0.0506 -0.6140
11798TIP3    H135337   4.542   7.206   1.587 -0.6824  0.7372 -1.5480
11798TIP3    H235338   4.486   7.344   1.612  0.1839  0.7502  0.4415
11799TIP3   OH235339   2.269   7.500   0.044 -0.1270 -0.2039  0.0775
11799TIP3    H135340   2.237   7.582   0.081  3.6307  1.6664 -0.3629
11799TIP3    H235341   2.233   7.497  -0.044 -0.9298  0.5385  0.3679
11800TIP3   OH235342   0.641   6.409   0.596 -0.4167  0.2191  0.2781
11800TIP3    H135343   0.692   6.478   0.637 -0.2755 -0.7856  1.8706
11800TIP3    H235344   0.704   6.341   0.574 -0.7044  0.1120 -0.2423
11801TIP3   OH235345   3.148   4.191   6.000  0.1089 -0.1686  0.5862
11801TIP3    H135346   3.235   4.171   6.036  0.8746 -0.8792 -1.5037
11801TIP3    H235347   3.161   4.192   5.906 -1.9750  0.7631  0.2520
11802TIP3   OH235348   6.868   0.387   0.784  0.5748  0.2355  0.3742
11802TIP3    H135349   6.901   0.476   0.795  0.9121  0.2389 -0.5455
11802TIP3    H235350   6.911   0.335   0.852  1.3698  0.5259  0.1000
11803TIP3   OH235351   0.028   1.533   4.210 -0.2087 -0.1468 -0.0622
11803TIP3    H135352   0.122   1.513   4.207 -0.4298 -1.1626 -0.9838
11803TIP3    H235353  -0.008   1.467   4.270 -0.2149  0.8450  1.0566
11804TIP3   OH235354   5.994   5.013   5.882 -0.5857 -0.2652  0.3475
11804TIP3    H135355   6.002   5.067   5.961 -0.9225  0.0377  0.1765
11804TIP3    H235356   5.978   4.924   5.914  1.4718 -0.5682  0.6797
11805TIP3   OH235357   1.597   7.733   6.181 -0.2297 -0.1843 -1.1202
11805TIP3    H135358   1.668   7.745   6.118  1.3790 -0.2881  0.5825
11805TIP3    H235359   1.602   7.640   6.204  0.1363  0.1394  0.1722
11806TIP3   OH235360   5.668   5.120   0.892 -0.1577 -0.4239  0.0260
11806TIP3    H135361   5.695   5.151   0.805  0.3320 -0.0924  0.2942
11806TIP3    H235362   5.641   5.030   0.877  0.8556 -0.6935 -0.3070
11807TIP3   OH235363   5.971   3.260   5.124  0.1877 -0.4131  0.7198
11807TIP3    H135364   6.057   3.223   5.105  0.9624  1.6127  0.0822
11807TIP3    H235365   5.910   3.189   5.102  1.6427 -1.8606  1.1011
11808TIP3   OH235366   7.678   7.578   4.265  1.0428  0.6059 -0.2191
11808TIP3    H135367   7.626   7.499   4.284  0.9152  0.2775 -1.7900
11808TIP3    H235368   7.635   7.648   4.314  0.7177 -0.1566  0.6148
11809TIP3   OH235369   7.496   1.936   1.133 -0.4147 -0.5190 -0.5851
11809TIP3    H135370   7.472   2.027   1.116  0.1357 -0.2597 -0.0103
11809TIP3    H235371   7.571   1.942   1.193 -0.5727 -1.3561 -0.2954
11810TIP3   OH235372   5.753   5.377   6.187  0.3792 -0.0450 -0.3074
11810TIP3    H135373   5.762   5.470   6.165 -0.6003  0.6126  1.7845
11810TIP3    H235374   5.791   5.369   6.274  0.0606 -1.5198 -0.2727
11811TIP3   OH235375   4.643   2.942   5.809  0.2381  0.1196  0.0811
11811TIP3    H135376   4.560   2.986   5.829  0.8141  1.4914 -0.4398
11811TIP3    H235377   4.632   2.854   5.845 -0.1673  1.2916  3.1604
11812TIP3   OH235378   5.746   2.624   1.714 -0.0956 -0.0429  0.0569
11812TIP3    H135379   5.665   2.663   1.680 -0.9701 -1.3424  0.5568
11812TIP3    H235380   5.792   2.593   1.636 -1.1342 -1.2192 -0.1334
11813TIP3   OH235381   7.777   0.072   4.002  0.1301  0.0119  0.3964
11813TIP3    H135382   7.785   0.053   4.095 -0.2768  0.2090  0.4710
11813TIP3    H235383   7.699   0.025   3.974  0.4905 -0.3997  0.0583
11814TIP3   OH235384   2.154   3.138   2.003  0.7133  0.1578  0.4039
11814TIP3    H135385   2.218   3.197   2.043  0.2560  0.7561  0.2731
11814TIP3    H235386   2.196   3.052   2.004  1.0756  0.3323  1.3299
11815TIP3   OH235387   0.223   4.577   0.474  0.2876  0.1650  0.1549
11815TIP3    H135388   0.310   4.580   0.513  0.0421 -0.9210  0.8504
11815TIP3    H235389   0.165   4.616   0.540  0.2306  0.7715 -0.2523
11816TIP3   OH235390   1.854   1.462   0.905 -0.3556  0.0359  0.1311
11816TIP3    H135391   1.849   1.516   0.825  0.2509  0.4827  0.3793
11816TIP3    H235392   1.808   1.514   0.971 -1.8264 -0.8358 -0.1690
11817TIP3   OH235393   2.425   7.558   3.530  0.0277  0.1264  0.1257
11817TIP3    H135394   2.452   7.562   3.622  0.1167  1.6522  0.0626
11817TIP3    H235395   2.330   7.557   3.533  0.0022 -2.2720  0.2666
11818TIP3   OH235396   2.094   1.193   5.634  0.6246  0.4684  0.4292
11818TIP3    H135397   2.057   1.215   5.719  2.0037  0.4470  1.0605
11818TIP3    H235398   2.116   1.277   5.595 -1.0395  0.5459 -0.4223
11819TIP3   OH235399   6.326   0.025   3.525  0.7486  0.0875 -0.6934
11819TIP3    H135400   6.255  -0.039   3.538 -0.4927  1.0174 -2.4811
11819TIP3    H235401   6.315   0.087   3.597  0.3628 -0.3207 -0.3903
11820TIP3   OH235402   6.420   4.436   2.011 -0.2926  0.6103 -0.3768
11820TIP3    H135403   6.333   4.401   2.030  0.1943 -0.2392  0.3897
11820TIP3    H235404   6.423   4.521   2.055 -0.6594  0.5446 -0.2281
11821TIP3   OH235405   4.672   6.322   3.608 -0.5274 -0.0754 -0.4628
11821TIP3    H135406   4.581   6.321   3.577 -0.6325  1.7342 -0.2986
11821TIP3    H235407   4.719   6.375   3.544 -0.3791  2.1811  1.3684
11822TIP3   OH235408   5.064   6.892   6.345  0.1596  0.2505  0.4576
11822TIP3    H135409   5.073   6.883   6.250  3.1136  1.2681  0.5407
11822TIP3    H235410   5.149   6.926   6.375 -0.7212  0.1596  3.4591
11823TIP3   OH235411   4.331   2.215   0.628 -0.1838  0.4703 -0.0375
11823TIP3    H135412   4.406   2.237   0.573  0.9918 -0.5334  1.0726
11823TIP3    H235413   4.366   2.150   0.690 -1.6302  0.9655  1.3632
11824TIP3   OH235414   2.970   5.123   0.330 -0.4033 -0.7659 -0.3219
11824TIP3    H135415   2.923   5.057   0.280 -1.4934 -1.7480  1.8459
11824TIP3    H235416   2.988   5.193   0.268 -2.2495 -1.6090 -1.9015
11825TIP3   OH235417   8.013   2.968   3.800  0.2048 -0.2889  0.3280
11825TIP3    H135418   8.031   3.046   3.852 -0.6910  0.2888 -0.1959
11825TIP3    H235419   8.026   2.996   3.709 -2.2535 -0.0791 -0.0365
11826TIP3   OH235420   4.877   7.563   1.799  0.1851 -0.2221 -0.3897
11826TIP3    H135421   4.853   7.602   1.715 -0.6185 -0.9884 -0.5161
11826TIP3    H235422   4.818   7.489   1.810 -0.1569  0.2414  1.1575
11827TIP3   OH235423   0.597   3.160   3.525  0.3264 -0.3262 -0.5001
11827TIP3    H135424   0.605   3.080   3.474  1.6769 -0.5200 -0.0190
11827TIP3    H235425   0.679   3.207   3.510  0.4990 -0.1108  0.9949
11828TIP3   OH235426   1.696   6.151   4.743 -0.7726  0.4824 -0.2141
11828TIP3    H135427   1.741   6.088   4.800 -0.4123 -0.8147 -1.8623
11828TIP3    H235428   1.644   6.204   4.804 -0.6831 -1.0541  1.3135
11829TIP3   OH235429   8.009   3.207   3.320 -0.0112 -0.1998  0.3459
11829TIP3    H135430   8.076   3.224   3.255  1.0112 -1.8090  0.9138
11829TIP3    H235431   7.927   3.232   3.277  0.8428  0.9435 -0.6856
11830TIP3   OH235432   7.067   0.353   2.941 -0.5119 -0.3917 -0.3840
11830TIP3    H135433   7.056   0.285   3.007 -3.4105  1.2757  1.0443
11830TIP3    H235434   7.041   0.312   2.859 -1.8791 -1.1523  0.3907
11831TIP3   OH235435   1.747   0.023   6.363  0.0395  0.2461  0.2159
11831TIP3    H135436   1.794   0.047   6.442 -0.0542 -0.4718  0.5004
11831TIP3    H235437   1.772  -0.068   6.347 -0.6479  0.0930 -0.0585
11832TIP3   OH235438   7.909   6.379   1.710  0.0616 -0.5737  0.0401
11832TIP3    H135439   7.980   6.323   1.742  1.4970 -0.0628 -2.0273
11832TIP3    H235440   7.900   6.447   1.777  0.7609 -1.2794  0.8691
11833TIP3   OH235441   1.298   7.808   5.727  0.1415  0.0056  0.0882
11833TIP3    H135442   1.329   7.738   5.785 -0.5944 -0.8950 -0.5731
11833TIP3    H235443   1.203   7.807   5.736  0.0605  0.3082 -0.6112
11834TIP3   OH235444   4.161   0.966   0.803  0.2615 -0.1326  0.3899
11834TIP3    H135445   4.087   1.024   0.786  0.3237 -0.5241 -1.3329
11834TIP3    H235446   4.197   0.946   0.717  3.2355  1.1068  1.2372
11835TIP3   OH235447   3.352   2.290   4.109  0.2971  0.2363 -0.0286
11835TIP3    H135448   3.350   2.197   4.089 -1.4322  0.2038  0.1072
11835TIP3    H235449   3.270   2.306   4.157  0.8908  1.6890  0.5774
11836TIP3   OH235450   7.886   4.979   4.553 -0.6982 -0.1533  0.3847
11836TIP3    H135451   7.857   4.903   4.604 -1.6442  0.2718  0.4993
11836TIP3    H235452   7.977   4.991   4.577 -0.3873 -1.5688 -0.0134
11837TIP3   OH235453   7.851   0.380   2.559  0.1044 -0.4567  0.4234
11837TIP3    H135454   7.925   0.321   2.548  0.2629 -0.2903  0.5906
11837TIP3    H235455   7.888   0.467   2.543  0.0540 -0.3280  0.9857
11838TIP3   OH235456   5.000   7.070   1.989  0.4727  0.4017  0.6546
11838TIP3    H135457   4.915   7.102   2.017  0.9099  2.0399  0.1771
11838TIP3    H235458   5.061   7.101   2.056  0.9939  1.1534 -0.1518
11839TIP3   OH235459   2.704   2.229   1.752  0.0612 -0.0284  0.3728
11839TIP3    H135460   2.769   2.265   1.692  1.0710 -0.4111  1.2110
11839TIP3    H235461   2.620   2.255   1.714  0.7093  1.6857  0.0114
11840TIP3   OH235462   7.667   6.871   3.512 -0.0089  0.0474 -0.4942
11840TIP3    H135463   7.691   6.826   3.431 -0.1617  0.6308 -0.8753
11840TIP3    H235464   7.611   6.809   3.558  0.3312 -0.4117 -0.6910
11841TIP3   OH235465   6.349   5.405   5.202  0.0639  0.7572  0.0567
11841TIP3    H135466   6.331   5.350   5.126 -0.2750  0.0252  0.6436
11841TIP3    H235467   6.288   5.478   5.195 -1.1578 -0.1829  0.4863
11842TIP3   OH235468   6.224   1.772   2.406  0.6740 -0.2911  0.0465
11842TIP3    H135469   6.220   1.838   2.337  0.3104 -0.2231  0.1280
11842TIP3    H235470   6.188   1.693   2.365  0.6735 -0.3129  0.0897
11843TIP3   OH235471   1.394   0.051   4.209 -0.1092  0.6239  0.0320
11843TIP3    H135472   1.341  -0.027   4.192  0.1058  0.5499 -0.3026
11843TIP3    H235473   1.331   0.117   4.237 -0.5802  0.9532 -1.7075
11844TIP3   OH235474   0.629   3.189   5.912  0.2308 -0.4149  0.4857
11844TIP3    H135475   0.583   3.127   5.969 -1.2052 -0.1998 -0.3896
11844TIP3    H235476   0.711   3.207   5.958 -0.8246 -0.3093  2.4361
11845TIP3   OH235477   4.363   0.063   1.773  0.5890 -0.3035  0.5652
11845TIP3    H135478   4.319  -0.010   1.731 -0.0431 -0.1298  0.9095
11845TIP3    H235479   4.455   0.036   1.779  0.7478 -0.2209 -1.1443
11846TIP3   OH235480   4.395   2.266   2.984  0.0853  0.4281  0.2586
11846TIP3    H135481   4.313   2.299   3.020  0.2161  0.6903  0.3152
11846TIP3    H235482   4.370   2.187   2.935 -0.0918  0.0433  0.9495
11847TIP3   OH235483   5.504   6.611   0.410  0.0940  0.0207 -0.3650
11847TIP3    H135484   5.451   6.685   0.380  1.4541  0.8892 -0.7463
11847TIP3    H235485   5.549   6.644   0.487  1.0197 -0.2560 -0.7677
11848TIP3   OH235486   4.164   1.465   0.799 -0.2266 -0.0566  0.5232
11848TIP3    H135487   4.101   1.410   0.845  0.4649  0.0423  1.6181
11848TIP3    H235488   4.189   1.532   0.863  1.5757 -0.5540  0.3838
11849TIP3   OH235489   6.846   5.385   0.392  0.2997 -0.3918 -0.2940
11849TIP3    H135490   6.868   5.444   0.320  2.5942  0.2820  0.8630
11849TIP3    H235491   6.759   5.414   0.420  0.8807  1.7308 -0.4951
11850TIP3   OH235492   6.767   1.938   3.762  0.5877  0.6832  0.1062
11850TIP3    H135493   6.765   1.856   3.712  1.6109 -0.1818  1.3931
11850TIP3    H235494   6.857   1.969   3.752  0.7491  0.5964  1.2032
11851TIP3   OH235495   1.144   4.217   6.288  0.3655  0.6644 -0.2275
11851TIP3    H135496   1.084   4.277   6.332 -2.7503 -3.4483  1.8162
11851TIP3    H235497   1.211   4.198   6.354 -0.1096  0.0269  0.0793
11852TIP3   OH235498   4.877   2.685   2.649 -0.7435 -0.8051  0.1579
11852TIP3    H135499   4.802   2.645   2.693 -1.7611  0.2517 -0.5499
11852TIP3    H235500   4.868   2.778   2.668  0.6936 -0.7044  0.4650
11853TIP3   OH235501   5.901   7.672   0.902 -0.6550 -0.2497 -0.3589
11853TIP3    H135502   5.943   7.649   0.819 -0.2589 -0.1952 -0.1735
11853TIP3    H235503   5.964   7.728   0.947 -0.3727 -1.2362  0.5046
11854TIP3   OH235504   3.029   4.863   4.469  0.6303 -0.3816  0.1561
11854TIP3    H135505   3.052   4.956   4.462  1.0671 -0.5768 -1.6014
11854TIP3    H235506   2.988   4.855   4.554  0.8000  1.3861  0.4507
11855TIP3   OH235507   7.155   3.151   1.879 -0.0620  0.8114 -0.1978
11855TIP3    H135508   7.201   3.133   1.797  0.8205  0.5926  0.3217
11855TIP3    H235509   7.070   3.110   1.869 -0.4695  1.9083 -1.5020
11856TIP3   OH235510   3.491   2.357   1.112 -0.0308  0.1437 -0.4936
11856TIP3    H135511   3.415   2.306   1.082 -0.1943  0.6067 -0.8868
11856TIP3    H235512   3.490   2.435   1.057 -0.9434  1.5510  1.4199
11857TIP3   OH235513   1.817   2.587   6.332 -0.1406 -0.6417 -0.0426
11857TIP3    H135514   1.802   2.611   6.240 -0.9145  1.4782  0.6054
11857TIP3    H235515   1.907   2.553   6.333 -0.1132 -0.6925 -1.5761
11858TIP3   OH235516   2.816   0.052   5.968  0.0238 -0.4014 -0.6542
11858TIP3    H135517   2.740   0.079   5.916 -0.3369  0.1901  0.1495
11858TIP3    H235518   2.883   0.117   5.947  0.2689 -0.8443 -1.2606
11859TIP3   OH235519   6.869   0.703   5.047  0.0823  0.4417 -0.0908
11859TIP3    H135520   6.798   0.649   5.014 -0.4208  0.3381  1.1036
11859TIP3    H235521   6.825   0.769   5.102  0.4633  3.2311 -2.8276
11860TIP3   OH235522   6.322   1.158   0.619  0.1784 -0.0654 -0.4474
11860TIP3    H135523   6.308   1.148   0.525  0.6474  1.6448 -0.7312
11860TIP3    H235524   6.399   1.213   0.627  0.6610 -0.8840  0.9719
11861TIP3   OH235525   2.778   2.856   5.625 -0.5668  0.4639  0.1495
11861TIP3    H135526   2.741   2.768   5.632 -0.0065  0.2135  0.0503
11861TIP3    H235527   2.857   2.853   5.679  0.0412  0.5689 -0.6997
11862TIP3   OH235528   2.897   3.284   4.433  0.4941  0.3548 -0.0271
11862TIP3    H135529   2.923   3.359   4.379  0.0964 -1.4696 -3.0033
11862TIP3    H235530   2.965   3.277   4.500  0.0922  3.7727  0.9106
11863TIP3   OH235531   3.870   2.599   2.686  0.2838  0.6682  0.0744
11863TIP3    H135532   3.892   2.686   2.722  0.7165 -0.2415  2.1946
11863TIP3    H235533   3.928   2.539   2.733 -0.5810 -0.8638 -0.7507
11864TIP3   OH235534   5.352   7.533   1.262 -0.4869 -0.2321  0.5183
11864TIP3    H135535   5.390   7.533   1.350 -0.6288  0.7357  0.5899
11864TIP3    H235536   5.260   7.511   1.276 -0.5919  0.2907  0.6513
11865TIP3   OH235537   1.471   7.673   2.525 -0.7301  0.2009 -0.4179
11865TIP3    H135538   1.496   7.591   2.482  0.5594  0.1654  0.3459
11865TIP3    H235539   1.379   7.661   2.548 -0.2158 -1.6302  0.9443
11866TIP3   OH235540   0.223   2.416   0.783  0.0221  0.1130 -0.6844
11866TIP3    H135541   0.129   2.435   0.791  0.1272  1.4762 -2.1142
11866TIP3    H235542   0.243   2.436   0.692  1.6267 -0.6307 -0.5236
11867TIP3   OH235543   5.213   5.444   1.895 -0.0965  0.1876 -0.1008
11867TIP3    H135544   5.165   5.361   1.892 -1.2375  0.8387 -0.4291
11867TIP3    H235545   5.180   5.493   1.819  1.6492  0.3722 -0.7792
11868TIP3   OH235546   2.725   0.444   5.435 -0.9686  0.2103  0.3511
11868TIP3    H135547   2.696   0.481   5.518  0.3262  0.6262  0.6357
11868TIP3    H235548   2.818   0.427   5.447 -1.1049 -1.3050 -0.4500
11869TIP3   OH235549   6.504   4.420   3.578 -0.0406  0.1903 -0.2919
11869TIP3    H135550   6.411   4.428   3.554 -0.1812 -1.9539 -0.6501
11869TIP3    H235551   6.550   4.456   3.502 -0.5315  2.0006  0.2070
11870TIP3   OH235552   3.642   4.482   4.303  0.1269 -0.3377 -0.4341
11870TIP3    H135553   3.723   4.525   4.330 -0.8822  0.3562  1.6934
11870TIP3    H235554   3.647   4.481   4.207  1.5357  1.9077 -0.4692
11871TIP3   OH235555   0.533   5.433   3.700  0.4728 -0.0184 -0.3109
11871TIP3    H135556   0.517   5.483   3.780  1.1270  0.2668 -0.3531
11871TIP3    H235557   0.457   5.451   3.644 -0.3082 -0.7318  0.4940
11872TIP3   OH235558   3.295   5.152   4.176  0.0722  0.1922 -0.1390
11872TIP3    H135559   3.363   5.202   4.221  0.0306 -0.2404  0.4222
11872TIP3    H235560   3.229   5.137   4.244  0.7752 -1.9219  0.1476
11873TIP3   OH235561   5.903   0.238   3.682 -0.5868  0.8629 -0.4263
11873TIP3    H135562   5.843   0.201   3.746  0.1082 -0.0869 -0.3020
11873TIP3    H235563   5.891   0.186   3.603 -0.9612  1.6013 -0.8605
11874TIP3   OH235564   4.622   3.333   2.238  0.0880 -1.1630  0.1503
11874TIP3    H135565   4.672   3.277   2.297  0.0722 -0.2821  1.0171
11874TIP3    H235566   4.641   3.298   2.151  1.9493 -1.0685  0.4688
11875TIP3   OH235567   1.402   5.633   1.432  0.4232 -0.4350  0.2036
11875TIP3    H135568   1.330   5.619   1.492 -1.0469  0.0252 -1.3678
11875TIP3    H235569   1.417   5.727   1.433  0.8036 -0.4938  0.2983
11876TIP3   OH235570   6.805   3.772   4.533 -0.1110 -0.4235 -0.1829
11876TIP3    H135571   6.782   3.833   4.463 -2.3605 -1.5581 -0.5240
11876TIP3    H235572   6.854   3.825   4.595  0.4690  1.0229 -1.7885
11877TIP3   OH235573   6.023   5.220   0.492  0.3105 -0.1207 -0.3499
11877TIP3    H135574   6.020   5.141   0.547  2.3088 -1.3984 -1.9240
11877TIP3    H235575   6.013   5.292   0.554 -0.2486 -1.5559  1.3228
11878TIP3   OH235576   6.896   5.724   3.800  0.4064 -0.2436 -0.0378
11878TIP3    H135577   6.827   5.790   3.806  0.8673  0.2288  0.2056
11878TIP3    H235578   6.975   5.769   3.832  0.9417 -0.5922 -0.8222
11879TIP3   OH235579   1.872   2.650   4.863  0.1604 -0.1616 -0.0573
11879TIP3    H135580   1.835   2.609   4.785 -0.2587  1.2161 -0.6214
11879TIP3    H235581   1.823   2.614   4.936 -1.3055  0.5368 -0.6705
11880TIP3   OH235582   2.057   2.016   1.197 -0.1059  0.1332 -0.0175
11880TIP3    H135583   2.119   1.947   1.221 -0.9585 -1.8574 -2.9127
11880TIP3    H235584   2.016   2.041   1.279  2.3707 -0.6127  1.5568
11881TIP3   OH235585   2.611   5.223   0.483  0.5934  0.0976 -1.3586
11881TIP3    H135586   2.668   5.294   0.453 -1.1928  1.7983 -0.9141
11881TIP3    H235587   2.531   5.267   0.512 -0.2690 -2.0475 -0.2758
11882TIP3   OH235588   3.695   2.370   5.479 -0.3800  0.1830  0.1514
11882TIP3    H135589   3.760   2.324   5.533 -2.9181 -3.1451  0.7436
11882TIP3    H235590   3.669   2.445   5.532  2.0150  0.9163  0.4159
11883TIP3   OH235591   3.739   6.574   3.423 -0.4026 -0.3401  0.0153
11883TIP3    H135592   3.746   6.653   3.478  1.7235 -0.4904  0.0502
11883TIP3    H235593   3.748   6.606   3.334  1.7868 -0.5859  0.0819
11884TIP3   OH235594   2.433   1.221   1.684  0.3921 -0.0185 -0.4322
11884TIP3    H135595   2.451   1.138   1.640 -0.2190  0.0807 -0.8871
11884TIP3    H235596   2.490   1.220   1.761  0.6896 -0.6753 -0.6493
11885TIP3   OH235597   5.540   7.801   4.360  0.7548 -0.2241  0.1571
11885TIP3    H135598   5.506   7.868   4.301 -1.2115 -2.7905 -1.8719
11885TIP3    H235599   5.467   7.784   4.420  1.3449 -0.3607  0.8454
11886TIP3   OH235600   6.290   4.174   1.274 -0.0757  0.5425  0.1406
11886TIP3    H135601   6.312   4.225   1.196  0.8985  0.3035  0.2344
11886TIP3    H235602   6.369   4.181   1.329  0.2611 -1.4194 -0.0466
11887TIP3   OH235603   0.376   7.607   4.216  0.4623 -0.2645 -0.0218
11887TIP3    H135604   0.366   7.673   4.147  0.0464  0.7228  0.9402
11887TIP3    H235605   0.303   7.624   4.276  1.7825  0.1007  1.5912
11888TIP3   OH235606   1.109   2.853   1.109 -0.0403  0.0644  0.0207
11888TIP3    H135607   1.137   2.914   1.041  2.9239 -2.0580 -0.8549
11888TIP3    H235608   1.185   2.845   1.167 -1.2799 -0.8170  1.6149
11889TIP3   OH235609   0.122   1.566   4.896  0.5043 -0.1929 -0.3260
11889TIP3    H135610   0.217   1.570   4.899  0.4346  1.2205  1.2176
11889TIP3    H235611   0.103   1.482   4.854  2.4140 -0.8277 -0.0167
11890TIP3   OH235612   7.300   0.647   5.744  0.2045  0.1825 -0.0690
11890TIP3    H135613   7.230   0.590   5.777  1.0498 -1.7954 -1.5416
11890TIP3    H235614   7.381   0.605   5.772  0.9081  2.1416  1.1149
11891TIP3   OH235615   1.440   2.538   3.792 -0.9091 -0.6047  0.0198
11891TIP3    H135616   1.348   2.563   3.794 -0.6563  0.3399  0.3802
11891TIP3    H235617   1.469   2.546   3.883 -0.4777 -0.9048 -0.0861
11892TIP3   OH235618   3.633   7.258   4.821 -0.2129  0.3585 -0.1499
11892TIP3    H135619   3.633   7.350   4.795  2.7005  0.8197  1.0813
11892TIP3    H235620   3.640   7.261   4.917  0.6277 -1.1297 -0.1435
11893TIP3   OH235621   1.704   4.129   6.347  0.1435 -0.0262 -0.4331
11893TIP3    H135622   1.770   4.061   6.333 -0.0029  0.0415 -1.5332
11893TIP3    H235623   1.754   4.207   6.369  0.4613  0.0992 -1.5561
11894TIP3   OH235624   3.325   7.345   4.339 -0.2210  0.5716 -0.4091
11894TIP3    H135625   3.419   7.335   4.357 -0.4899  1.1248  1.6176
11894TIP3    H235626   3.282   7.294   4.408 -1.3973  3.0298  0.8039
11895TIP3   OH235627   8.074   1.434   5.628 -0.4103 -0.2081  0.1787
11895TIP3    H135628   8.038   1.455   5.542  2.4029 -0.4964 -1.1791
11895TIP3    H235629   8.040   1.502   5.686 -3.5112 -0.7786 -0.7423
11896TIP3   OH235630   7.521   5.435   6.017  0.3519 -0.1501 -0.1375
11896TIP3    H135631   7.531   5.425   6.112 -3.2581  0.1705  0.4496
11896TIP3    H235632   7.596   5.388   5.979  0.8054 -2.1239  2.8387
11897TIP3   OH235633   2.243   5.339   3.684 -0.1862 -0.2640  0.2363
11897TIP3    H135634   2.303   5.409   3.710 -1.0517 -0.0221  1.7125
11897TIP3    H235635   2.250   5.335   3.589  2.3543 -0.4370  0.3732
11898TIP3   OH235636   3.517   5.554   2.289 -0.4865 -0.6017  0.4310
11898TIP3    H135637   3.460   5.562   2.212  0.4067 -2.1552 -0.4472
11898TIP3    H235638   3.458   5.568   2.364 -1.0178  2.9642 -0.4671
11899TIP3   OH235639   6.926   5.063   0.770 -0.1679  0.7260 -0.3485
11899TIP3    H135640   6.865   5.136   0.781 -0.3506  0.4931  0.2316
11899TIP3    H235641   6.872   4.985   0.782  0.4950  0.5184  1.7776
11900TIP3   OH235642   4.068   2.985   3.641 -0.0728 -0.5809  0.4219
11900TIP3    H135643   4.064   2.909   3.699 -0.4063 -0.2217  0.8766
11900TIP3    H235644   4.103   2.951   3.559  0.9320 -0.9900  1.0059
11901TIP3   OH235645   6.898   2.581   3.535 -0.3789  0.0411  0.4134
11901TIP3    H135646   6.807   2.607   3.555 -0.7515 -0.8634 -0.0591
11901TIP3    H235647   6.945   2.664   3.525 -1.4556  0.5543 -0.6927
11902TIP3   OH235648   6.440   4.852   3.298 -0.3337  0.8029  0.6227
11902TIP3    H135649   6.417   4.945   3.293 -1.6873  0.4299 -0.7687
11902TIP3    H235650   6.363   4.810   3.336  0.6110  0.3289  2.1098
11903TIP3   OH235651   6.385   1.601   5.526  0.4093 -0.3020 -0.1198
11903TIP3    H135652   6.415   1.603   5.617 -0.5975  0.7747  0.2181
11903TIP3    H235653   6.290   1.592   5.533  0.2407  0.6525 -1.0396
11904TIP3   OH235654   1.410   4.824   5.360 -0.7381  0.2678  0.2032
11904TIP3    H135655   1.401   4.916   5.384 -0.7527  0.4855 -0.6132
11904TIP3    H235656   1.400   4.823   5.265 -1.9116 -0.7253  0.3138
11905TIP3   OH235657   0.902   6.111   4.592  0.3661  0.4783 -0.2874
11905TIP3    H135658   0.952   6.184   4.556 -1.4692  1.2674 -1.3626
11905TIP3    H235659   0.814   6.145   4.603 -0.1615 -1.1012  0.8008
11906TIP3   OH235660   1.238   2.618   1.000  0.6401  0.1461 -0.6026
11906TIP3    H135661   1.174   2.689   1.006  0.7988  0.3751 -1.4871
11906TIP3    H235662   1.210   2.555   1.067  0.9337  1.3650  0.7163
11907TIP3   OH235663   5.619   6.061   4.008 -0.1991  0.1725 -0.4417
11907TIP3    H135664   5.544   6.120   4.001 -1.5637 -1.5008 -0.8877
11907TIP3    H235665   5.620   6.014   3.925  0.6367 -0.6376  0.0067
11908TIP3   OH235666   5.959   6.070   6.621 -0.2174  0.2505 -0.2405
11908TIP3    H135667   5.869   6.041   6.629 -0.6671  1.1802 -1.5367
11908TIP3    H235668   6.011   5.996   6.653 -1.4321  0.5261  2.6854
11909TIP3   OH235669   2.627   6.215   0.890  0.3558 -0.2035  0.3653
11909TIP3    H135670   2.591   6.236   0.803 -0.7892  0.7172  1.0427
11909TIP3    H235671   2.560   6.244   0.951  1.3962 -0.3464  1.5989
11910TIP3   OH235672   6.280   3.494   5.280 -0.1533  0.0510  0.7553
11910TIP3    H135673   6.246   3.432   5.345  2.2778 -1.3920  0.7888
11910TIP3    H235674   6.293   3.442   5.201 -3.1989  1.8182 -1.0803
11911TIP3   OH235675   6.239   0.082   5.841  0.6952  0.1166  0.1595
11911TIP3    H135676   6.190   0.039   5.772  2.0398  1.4928 -1.7576
11911TIP3    H235677   6.196   0.167   5.853  2.0906  1.0421 -1.0454
11912TIP3   OH235678   1.682   6.475   3.496  0.4566  0.5285 -0.4841
11912TIP3    H135679   1.629   6.553   3.477  0.5509  0.7597  0.1781
11912TIP3    H235680   1.709   6.443   3.410  1.2993  1.8351 -0.7287
11913TIP3   OH235681   4.374   2.027   2.848 -0.1923  0.2511 -0.3718
11913TIP3    H135682   4.452   1.973   2.842 -0.5555 -0.5405  1.4903
11913TIP3    H235683   4.306   1.976   2.804 -0.6125 -1.0563  1.6605
11914TIP3   OH235684   7.108   0.606   2.294 -0.9724  0.0631 -0.3532
11914TIP3    H135685   7.189   0.657   2.293 -0.0055 -1.4112 -0.9222
11914TIP3    H235686   7.102   0.569   2.206 -2.2344  0.0820 -0.2923
11915TIP3   OH235687   2.942   3.413   4.037  0.8266 -0.1626  0.1810
11915TIP3    H135688   2.913   3.435   4.126  1.4413 -1.4244  0.7262
11915TIP3    H235689   2.955   3.498   3.995 -3.4262  0.5755 -0.1110
11916TIP3   OH235690   8.023   0.679   3.080  0.0640  0.2710  0.0304
11916TIP3    H135691   7.929   0.694   3.086  0.3051  1.5021  1.1696
11916TIP3    H235692   8.051   0.666   3.171  0.7706 -1.6972 -0.4209
11917TIP3   OH235693   0.250   2.930   6.148 -0.6701 -0.3676  0.0334
11917TIP3    H135694   0.187   2.860   6.165 -1.4372  0.9351  3.1941
11917TIP3    H235695   0.312   2.925   6.221 -1.3257  2.7710  0.9519
11918TIP3   OH235696   5.216   0.811   3.135 -0.4506 -0.3462  0.0666
11918TIP3    H135697   5.305   0.848   3.139  0.0562 -1.5103 -0.1917
11918TIP3    H235698   5.228   0.724   3.098 -1.8318 -0.1536 -0.8874
11919TIP3   OH235699   4.760   3.304   3.215  0.4019 -0.2708  0.0059
11919TIP3    H135700   4.713   3.281   3.295  1.0282 -0.4729  0.3149
11919TIP3    H235701   4.726   3.243   3.149 -1.7161  1.2668 -0.4488
11920TIP3   OH235702   7.831   0.420   3.014 -0.2318  0.0838  0.0642
11920TIP3    H135703   7.789   0.360   3.076 -0.7246  0.0012 -0.3471
11920TIP3    H235704   7.922   0.423   3.042 -0.2215 -0.7866  0.1416
11921TIP3   OH235705   2.397   5.153   1.979 -0.2389 -0.2011  0.0210
11921TIP3    H135706   2.460   5.207   1.931 -0.2518 -0.6299 -0.4885
11921TIP3    H235707   2.440   5.067   1.985  0.9094  0.4396  2.9905
11922TIP3   OH235708   2.245   5.221   5.935 -0.1708 -0.2058  0.2413
11922TIP3    H135709   2.181   5.150   5.930 -0.7794  0.4069 -0.7855
11922TIP3    H235710   2.275   5.233   5.845 -2.2165  2.7663 -0.1513
11923TIP3   OH235711   7.265   5.767   5.770 -0.2777 -0.5349  0.1576
11923TIP3    H135712   7.299   5.739   5.855 -0.2445 -0.1276  0.2791
11923TIP3    H235713   7.326   5.834   5.740 -0.3115 -0.6508 -0.1716
11924TIP3   OH235714   5.778   4.962   2.335 -0.1048 -0.1350  0.4886
11924TIP3    H135715   5.806   5.043   2.291  0.1626 -0.4763  0.0242
11924TIP3    H235716   5.858   4.923   2.368  0.1497 -1.6356 -1.7384
11925TIP3   OH235717   0.209   1.264   1.735 -0.0889  0.2554  0.4093
11925TIP3    H135718   0.188   1.339   1.679  1.2739  0.3923  0.0510
11925TIP3    H235719   0.124   1.221   1.750 -1.0036  2.1713  1.1032
11926TIP3   OH235720   2.167   1.477   2.264  0.1141  0.3446  0.1433
11926TIP3    H135721   2.254   1.447   2.236  0.6556  1.5149  0.5110
11926TIP3    H235722   2.134   1.527   2.189 -0.8921 -1.3102 -0.5662
11927TIP3   OH235723   4.381   2.814   5.498 -0.4248 -0.9304 -0.0900
11927TIP3    H135724   4.465   2.858   5.484 -0.5921 -0.9420 -1.2210
11927TIP3    H235725   4.335   2.870   5.560 -0.4404  0.2583 -1.1239
11928TIP3   OH235726   3.432   3.640   1.640 -0.2591 -0.9409  0.4493
11928TIP3    H135727   3.420   3.549   1.614  2.2714 -1.0943 -0.4241
11928TIP3    H235728   3.480   3.635   1.723  0.4738 -0.4332  0.0675
11929TIP3   OH235729   7.344   5.804   5.131 -0.0858  0.0793  0.1843
11929TIP3    H135730   7.325   5.857   5.054  0.8352  2.0460  1.2517
11929TIP3    H235731   7.258   5.789   5.171 -0.4588 -0.0936 -0.6554
11930TIP3   OH235732   6.342   6.511   5.735  0.3431 -0.0577  0.2290
11930TIP3    H135733   6.398   6.572   5.784 -0.6483  0.1480  1.1344
11930TIP3    H235734   6.276   6.483   5.798 -1.2745  0.5773 -1.1084
11931TIP3   OH235735   4.017   4.385   2.770 -0.4380 -0.0323 -0.9164
11931TIP3    H135736   3.941   4.436   2.740  0.8006  2.1062 -0.5664
11931TIP3    H235737   4.090   4.420   2.720  0.4395 -1.7038 -0.8533
11932TIP3   OH235738   1.413   0.588   6.498  0.1692  0.5266  0.1238
11932TIP3    H135739   1.462   0.642   6.437 -2.1884  0.7996 -1.6610
11932TIP3    H235740   1.323   0.621   6.493 -0.4829 -0.6467  2.4016
11933TIP3   OH235741   1.333   4.097   3.733 -0.2004  0.8332  0.2642
11933TIP3    H135742   1.407   4.099   3.673 -1.7647  0.2240 -1.8075
11933TIP3    H235743   1.321   4.188   3.760  0.5667  1.1173 -0.3260
11934TIP3   OH235744   0.866   0.412   4.060  0.2321 -0.2799  0.0872
11934TIP3    H135745   0.906   0.393   3.975 -0.6390  0.1190 -0.4236
11934TIP3    H235746   0.772   0.418   4.042  0.0389 -0.1474  1.0695
11935TIP3   OH235747   2.921   7.714   3.453 -0.4623 -0.2314  0.4940
11935TIP3    H135748   2.989   7.781   3.459  1.4840 -1.8954 -1.4319
11935TIP3    H235749   2.856   7.750   3.393  0.8237 -0.2494 -0.9408
11936TIP3   OH235750   1.735   4.393   0.380  0.0074 -0.0773 -0.7789
11936TIP3    H135751   1.752   4.359   0.292 -1.4588 -1.8544 -0.4438
11936TIP3    H235752   1.656   4.347   0.408 -0.1983  1.2801  1.0483
11937TIP3   OH235753   8.293   0.574   2.213 -0.0343  0.0755 -0.1052
11937TIP3    H135754   8.229   0.642   2.191  1.1720  1.1209 -0.5517
11937TIP3    H235755   8.302   0.522   2.134 -0.6937 -0.4052  0.1236
11938TIP3   OH235756   7.276   2.668   5.788  0.0223  0.0965 -0.6812
11938TIP3    H135757   7.218   2.663   5.863  1.3011 -1.4857  0.2655
11938TIP3    H235758   7.345   2.729   5.814  0.7993 -0.9190 -0.2849
11939TIP3   OH235759   6.036   5.308   5.551 -0.3052  0.0670 -0.6546
11939TIP3    H135760   6.126   5.335   5.535  0.3035 -1.0608  0.7700
11939TIP3    H235761   5.999   5.379   5.604 -0.1693  0.3720 -0.9609
11940TIP3   OH235762   6.460   4.879   6.553  0.3735  0.8047 -0.1732
11940TIP3    H135763   6.507   4.902   6.473  2.2975 -2.8110 -0.2831
11940TIP3    H235764   6.406   4.804   6.528 -0.6997  1.0025  1.4250
11941TIP3   OH235765   3.526   5.579   4.146  0.0984 -0.0238  0.1010
11941TIP3    H135766   3.583   5.618   4.212  0.5670 -0.6269  0.0568
11941TIP3    H235767   3.582   5.517   4.099 -0.2257  0.3808 -0.8555
11942TIP3   OH235768   2.551   7.144   1.864  0.1094  0.2308  0.0005
11942TIP3    H135769   2.630   7.133   1.917 -0.0019  1.3760  0.4314
11942TIP3    H235770   2.490   7.077   1.897  1.0525 -1.0067 -0.6820
11943TIP3   OH235771   6.661   2.390   4.497  0.0272  0.0549 -0.5261
11943TIP3    H135772   6.663   2.478   4.458 -1.0534  0.7132  0.7986
11943TIP3    H235773   6.667   2.405   4.591 -3.2033 -0.9836 -0.0037
11944TIP3   OH235774   5.821   5.369   0.146  0.5387  0.1746  0.2428
11944TIP3    H135775   5.760   5.413   0.205 -0.7815 -1.0364 -0.1530
11944TIP3    H235776   5.775   5.289   0.120  2.3614 -0.8426  0.0071
11945TIP3   OH235777   6.374   0.196   4.375 -0.4149 -0.1521  0.6019
11945TIP3    H135778   6.442   0.132   4.352 -0.7120 -0.5301  0.7713
11945TIP3    H235779   6.366   0.250   4.297 -0.4538 -0.5790  0.3050
11946TIP3   OH235780   5.491   4.490   4.827 -0.4663  0.8945 -0.1866
11946TIP3    H135781   5.467   4.398   4.838 -0.2868  0.6944 -1.3852
11946TIP3    H235782   5.439   4.520   4.753 -0.2251  1.6553 -0.0588
11947TIP3   OH235783   1.155   4.216   4.766  0.1929  0.4984  0.5796
11947TIP3    H135784   1.203   4.167   4.833 -0.1992 -1.4971 -0.5129
11947TIP3    H235785   1.102   4.279   4.815  0.9322  0.0286  2.0424
11948TIP3   OH235786   1.626   5.860   1.656  0.4376 -0.1945 -0.1661
11948TIP3    H135787   1.664   5.879   1.570 -2.7208 -1.5877 -2.0398
11948TIP3    H235788   1.589   5.943   1.685  0.3803  0.0091 -0.8037
11949TIP3   OH235789   5.487   2.109   4.122  0.1680  0.4616 -0.3824
11949TIP3    H135790   5.502   2.112   4.027 -1.8866 -0.0903 -0.7818
11949TIP3    H235791   5.393   2.091   4.130  0.2253  0.9335  1.7741
11950TIP3   OH235792   6.183   3.326   2.847 -0.3024 -0.6477  0.4744
11950TIP3    H135793   6.161   3.396   2.786  1.7950  0.6698  1.1069
11950TIP3    H235794   6.109   3.266   2.844 -1.5343  0.8807 -1.1552
11951TIP3   OH235795   6.339   1.169   4.542 -0.0183  0.1349 -0.0343
11951TIP3    H135796   6.411   1.196   4.485 -0.6913 -0.6370 -1.3104
11951TIP3    H235797   6.284   1.113   4.486 -1.2984  0.2344  1.0670
11952TIP3   OH235798   2.216   7.186   4.004  0.5781  0.8459  0.4689
11952TIP3    H135799   2.204   7.279   3.988  0.7925  0.4093 -2.9768
11952TIP3    H235800   2.221   7.147   3.916 -0.6290 -2.5577  1.7443
11953TIP3   OH235801   1.083   1.381   3.083 -0.3513  0.2841  0.0982
11953TIP3    H135802   1.090   1.474   3.106  0.5019 -0.2157  2.0192
11953TIP3    H235803   1.130   1.336   3.152 -1.0939 -1.6298 -0.5924
11954TIP3   OH235804   7.673   2.433   3.228 -0.4776  0.2260  0.5127
11954TIP3    H135805   7.744   2.496   3.234  0.4620 -0.7178 -0.2148
11954TIP3    H235806   7.632   2.451   3.144 -0.4830  0.1588  0.5009
11955TIP3   OH235807   5.954   1.167   6.617 -0.0472  0.2356 -0.2884
11955TIP3    H135808   5.988   1.252   6.644  0.0682  0.0811  0.0498
11955TIP3    H235809   5.961   1.169   6.521  0.9152  0.2116 -0.2343
11956TIP3   OH235810   0.400   4.276   3.925  0.2694 -0.6364 -0.3402
11956TIP3    H135811   0.319   4.325   3.909  1.3838  0.8210 -1.8690
11956TIP3    H235812   0.373   4.184   3.921 -0.9816 -0.2776 -3.3411
11957TIP3   OH235813   5.517   1.375   2.735  0.1616  0.0370  0.1583
11957TIP3    H135814   5.437   1.378   2.787  0.8379 -2.1254  1.4739
11957TIP3    H235815   5.541   1.282   2.734  1.8302  0.4311 -1.4986
11958TIP3   OH235816   2.933   3.072   4.273 -0.1902  0.0299 -0.5327
11958TIP3    H135817   2.896   3.134   4.336 -0.4407 -1.2717  0.6517
11958TIP3    H235818   2.953   2.994   4.325  1.3808 -0.4179 -1.7188
11959TIP3   OH235819   4.602   3.999   5.733 -0.0888  0.2032 -0.4788
11959TIP3    H135820   4.657   4.076   5.720  0.5600 -0.5198 -2.4234
11959TIP3    H235821   4.526   4.014   5.677 -0.7942  0.1555  0.4336
11960TIP3   OH235822   4.427   7.686   4.741  0.5537 -0.3116 -0.1315
11960TIP3    H135823   4.498   7.725   4.690  0.2147 -1.3178 -1.4480
11960TIP3    H235824   4.358   7.752   4.741  1.2919  0.4762  0.7337
11961TIP3   OH235825   5.830   5.594   1.362 -0.2024 -0.6178  0.4968
11961TIP3    H135826   5.905   5.651   1.378 -0.5491  0.2374 -0.6834
11961TIP3    H235827   5.867   5.506   1.352  0.5963 -0.2731  0.3665
11962TIP3   OH235828   4.284   2.528   4.852  0.1452 -0.6934 -0.1848
11962TIP3    H135829   4.358   2.584   4.828 -0.4787 -0.0730 -0.6953
11962TIP3    H235830   4.293   2.517   4.947  0.2334  0.3521 -0.0581
11963TIP3   OH235831   0.513   0.230   0.225 -0.1314 -0.3822 -0.3296
11963TIP3    H135832   0.579   0.296   0.247  2.9470 -3.1065 -0.6489
11963TIP3    H235833   0.449   0.277   0.172  0.9279  2.6778  0.9002
11964TIP3   OH235834   1.935   7.512   4.404 -0.5273 -0.0089 -0.4729
11964TIP3    H135835   1.919   7.508   4.310 -0.6216 -1.2048 -0.4191
11964TIP3    H235836   1.937   7.605   4.424 -0.1938  0.2637 -1.7105
11965TIP3   OH235837   0.124   5.765   4.341  0.2835 -0.1645 -0.2387
11965TIP3    H135838   0.113   5.687   4.287  0.0829 -0.3678  0.0873
11965TIP3    H235839   0.216   5.787   4.333  0.5988 -1.1162  0.5689
11966TIP3   OH235840   7.820   1.099   1.869 -0.1911 -0.0538  0.1093
11966TIP3    H135841   7.795   1.160   1.800 -0.9633 -1.5829 -1.0191
11966TIP3    H235842   7.871   1.032   1.825 -1.2838 -1.4318  0.8561
11967TIP3   OH235843   2.139   4.611   6.626  0.6378 -0.0336  0.2196
11967TIP3    H135844   2.166   4.703   6.628 -0.7962  0.4253 -0.1101
11967TIP3    H235845   2.165   4.580   6.539 -2.4284  1.2922 -1.3635
11968TIP3   OH235846   2.697   6.185   3.087  0.0537 -0.0648  0.1760
11968TIP3    H135847   2.631   6.199   3.155  1.1905  0.0068  1.3187
11968TIP3    H235848   2.673   6.103   3.045 -0.5503 -0.2314  0.8340
11969TIP3   OH235849   4.642   4.612   4.216  0.4349  0.0051  0.0946
11969TIP3    H135850   4.559   4.588   4.173  0.5810  1.2787 -0.9641
11969TIP3    H235851   4.681   4.529   4.240 -0.7646 -0.6586 -0.1616
11970TIP3   OH235852   3.023   5.735   3.373 -0.6497 -0.4711  0.0596
11970TIP3    H135853   3.089   5.692   3.429  0.1586  0.5586 -0.0695
11970TIP3    H235854   3.032   5.828   3.393 -2.8861 -0.3661  0.9010
11971TIP3   OH235855   7.437   4.658   4.527 -0.3141  0.3263  0.3396
11971TIP3    H135856   7.506   4.714   4.491 -0.5281  1.3475  1.4332
11971TIP3    H235857   7.359   4.681   4.476 -0.1056  0.0077 -0.1305
11972TIP3   OH235858   2.963   7.408   5.162  0.0331  0.2530 -0.3565
11972TIP3    H135859   2.988   7.317   5.147  1.1994  0.3315  0.9570
11972TIP3    H235860   2.896   7.404   5.230  0.3243  0.3965 -0.0605
11973TIP3   OH235861   0.747   4.448   3.012 -0.1408  0.1214 -0.1392
11973TIP3    H135862   0.660   4.446   2.974 -0.5030 -0.6996  0.7011
11973TIP3    H235863   0.766   4.541   3.026 -0.4085  0.3720 -1.3494
11974TIP3   OH235864   3.489   6.084   6.025  0.1346  0.4365 -0.1898
11974TIP3    H135865   3.476   6.155   5.963  0.8643  0.8800  0.1537
11974TIP3    H235866   3.554   6.027   5.983 -1.9677 -1.2085 -1.4285
11975TIP3   OH235867   5.110   7.071   0.343 -0.3540  0.6069 -0.5549
11975TIP3    H135868   5.114   7.001   0.277 -0.1966  1.5450 -1.5598
11975TIP3    H235869   5.156   7.034   0.419  0.7811  0.0435 -1.4839
11976TIP3   OH235870   1.196   5.553   0.813 -0.1181  0.4445 -0.1515
11976TIP3    H135871   1.115   5.597   0.841  0.0157  0.1633  0.7320
11976TIP3    H235872   1.169   5.463   0.797 -0.0759  0.4664 -0.3387
11977TIP3   OH235873   3.735   2.287   2.557 -0.3129  0.3976 -0.1468
11977TIP3    H135874   3.711   2.379   2.548 -1.4417  0.0460 -0.9389
11977TIP3    H235875   3.651   2.240   2.552 -0.1655 -0.5031  3.3594
11978TIP3   OH235876   5.645   2.914   1.675  0.2481 -0.5348 -0.1693
11978TIP3    H135877   5.549   2.914   1.672  0.0893 -1.5088  2.3775
11978TIP3    H235878   5.668   3.006   1.684 -0.5581 -0.3907  0.6087
11979TIP3   OH235879   0.336   3.040   2.943 -0.1735  0.0027  0.6349
11979TIP3    H135880   0.373   3.031   2.854  1.0889 -0.4738  1.1818
11979TIP3    H235881   0.409   3.071   2.996 -0.3298 -1.6973  1.9153
11980TIP3   OH235882   1.137   4.586   4.832  0.1386  0.4557  0.4276
11980TIP3    H135883   1.105   4.497   4.845 -2.9274  0.7197 -3.5131
11980TIP3    H235884   1.080   4.640   4.888  0.1479  0.1804  0.7076
11981TIP3   OH235885   2.851   4.154   2.133  1.3605 -0.0750 -0.2400
11981TIP3    H135886   2.873   4.186   2.046  0.0115 -2.0911 -1.3961
11981TIP3    H235887   2.898   4.070   2.140 -0.5848 -1.2256 -0.1474
11982TIP3   OH235888   6.082   1.550   0.889 -0.0211 -0.9888 -0.2690
11982TIP3    H135889   6.156   1.602   0.859  0.0587  0.3781  2.0201
11982TIP3    H235890   6.026   1.541   0.812  1.1558  0.3983 -1.3442
11983TIP3   OH235891   2.603   2.610   5.347  0.9675  0.0526  0.0187
11983TIP3    H135892   2.668   2.541   5.336  1.0921  0.2122 -0.2573
11983TIP3    H235893   2.552   2.609   5.265 -0.4155 -1.1381  0.8566
11984TIP3   OH235894   3.176   5.518   2.553 -0.1209  0.0783  0.3299
11984TIP3    H135895   3.241   5.539   2.620  0.2470 -0.2110  0.0657
11984TIP3    H235896   3.212   5.443   2.506 -0.0687  0.6809 -0.6202
11985TIP3   OH235897   4.172   1.882   4.513  0.0791 -0.3716 -0.0162
11985TIP3    H135898   4.198   1.872   4.604 -0.5387 -0.0563  0.1994
11985TIP3    H235899   4.084   1.846   4.509 -0.7568  1.5821 -0.0066
11986TIP3   OH235900   0.824   6.494   6.180  0.2425  0.0153  0.0085
11986TIP3    H135901   0.746   6.462   6.134 -1.5947  2.0806  1.5048
11986TIP3    H235902   0.809   6.472   6.272  0.7617  1.6506  0.5078
11987TIP3   OH235903   3.474   2.823   3.144 -0.2049  0.4120 -0.6687
11987TIP3    H135904   3.478   2.738   3.100  2.2498  1.2711 -2.2965
11987TIP3    H235905   3.389   2.823   3.189  0.7167 -3.9371  1.6252
11988TIP3   OH235906   7.244   7.487   4.181 -0.2933 -0.3829  0.2194
11988TIP3    H135907   7.297   7.516   4.107 -2.9723 -0.1854 -1.7903
11988TIP3    H235908   7.194   7.413   4.147 -1.4560 -0.4257  1.8901
11989TIP3   OH235909   0.935   7.283   5.974  0.1374  0.3254  0.3493
11989TIP3    H135910   0.887   7.287   5.892  0.5714  1.0399  0.1193
11989TIP3    H235911   0.870   7.256   6.039 -0.1449 -0.4728 -0.2664
11990TIP3   OH235912   4.038   0.008   3.627 -0.0464 -0.3421  0.2440
11990TIP3    H135913   3.983   0.062   3.571  0.6855  0.5174  0.3243
11990TIP3    H235914   4.055   0.063   3.704  1.9257 -0.0735 -0.3276
11991TIP3   OH235915   2.389   6.231   1.759  0.0546  0.3853 -0.8432
11991TIP3    H135916   2.374   6.136   1.765  2.7995 -0.1152 -0.8611
11991TIP3    H235917   2.450   6.241   1.687  4.3538  1.4517  2.5191
11992TIP3   OH235918   2.758   7.784   2.251  0.7155 -0.5436 -0.0595
11992TIP3    H135919   2.673   7.813   2.218  0.7594  0.2047  0.4730
11992TIP3    H235920   2.815   7.786   2.174  0.5737  0.2426 -0.1526
11993TIP3   OH235921   7.362   1.312   1.756 -0.1609  0.3136  0.2126
11993TIP3    H135922   7.392   1.312   1.847 -0.7132  1.8990  0.4227
11993TIP3    H235923   7.348   1.219   1.735 -0.0707 -0.0680  1.7437
11994TIP3   OH235924   1.215   3.303   1.862 -0.0348 -0.1093 -0.3251
11994TIP3    H135925   1.273   3.332   1.791  0.2870 -0.7166 -0.3229
11994TIP3    H235926   1.156   3.240   1.820  0.4466 -0.8124  0.0249
11995TIP3   OH235927   3.772   5.545   3.065  0.0006 -0.1928  0.1253
11995TIP3    H135928   3.758   5.612   3.131  0.0444  0.6119 -0.6667
11995TIP3    H235929   3.825   5.588   2.997 -1.2179 -0.5557 -1.1003
11996TIP3   OH235930   7.716   0.375   6.415 -0.0215 -0.1489  0.2332
11996TIP3    H135931   7.684   0.337   6.497 -1.3056  1.2228  0.4137
11996TIP3    H235932   7.797   0.420   6.440 -0.1034 -0.2076  0.6198
11997TIP3   OH235933   6.645   0.956   0.389 -0.4861  0.4286  0.3687
11997TIP3    H135934   6.572   0.894   0.391  0.4661 -0.7189  1.0768
11997TIP3    H235935   6.673   0.963   0.480  1.2166 -0.3304 -0.0546
11998TIP3   OH235936   5.612   0.120   6.537 -0.1643  0.2633  0.1784
11998TIP3    H135937   5.550   0.048   6.526  0.4422  0.1280 -3.4873
11998TIP3    H235938   5.602   0.173   6.459  3.5062  0.8811 -0.0578
11999TIP3   OH235939   1.330   0.590   0.774  0.0374  0.3963  0.7259
11999TIP3    H135940   1.372   0.660   0.725 -0.5165  0.1436 -0.1318
11999TIP3    H235941   1.402   0.543   0.816  0.8284 -1.0215 -1.9822
12000TIP3   OH235942   0.666   1.341   4.675  0.5489 -0.4881  0.3445
12000TIP3    H135943   0.618   1.418   4.644  2.1200 -0.4141 -2.1971
12000TIP3    H235944   0.745   1.338   4.620  0.4673 -4.0138  0.1823
12001TIP3   OH235945   0.260   6.994   3.654 -0.1583 -0.2418  0.6820
12001TIP3    H135946   0.336   7.047   3.679 -1.7648  1.3472  2.5206
12001TIP3    H235947   0.201   7.055   3.610 -1.0876 -1.0646  0.7423
12002TIP3   OH235948   3.906   4.127   6.177 -0.1984 -0.3262  0.2537
12002TIP3    H135949   3.927   4.098   6.265 -2.5038 -0.5979  0.7803
12002TIP3    H235950   3.973   4.086   6.121  1.9946  0.7897  1.9253
12003TIP3   OH235951   7.969   7.504   4.646  0.9531 -0.1311 -0.3282
12003TIP3    H135952   8.004   7.495   4.557  0.6494  0.7881 -0.5499
12003TIP3    H235953   7.906   7.432   4.654  1.5951 -0.7319 -0.5523
12004TIP3   OH235954   6.324   2.447   4.566  0.2773 -0.5238  0.5417
12004TIP3    H135955   6.385   2.507   4.522 -0.2690 -1.9226 -2.3608
12004TIP3    H235956   6.360   2.360   4.550 -1.3564 -1.2531  0.6214
12005TIP3   OH235957   3.456   2.623   4.469 -0.6970  0.3458 -0.2904
12005TIP3    H135958   3.425   2.586   4.386 -0.4641 -1.9747  0.6018
12005TIP3    H235959   3.529   2.680   4.443 -0.5601 -0.4099 -1.6757
12006TIP3   OH235960   1.073   3.619   2.053 -0.2540  0.0331  0.2717
12006TIP3    H135961   0.994   3.669   2.073 -0.3141 -0.0584  0.2641
12006TIP3    H235962   1.132   3.682   2.012 -0.4078  0.0483  0.0735
12007TIP3   OH235963   2.151   1.310   3.537 -0.4044  0.1065 -0.0284
12007TIP3    H135964   2.097   1.342   3.464 -2.2144 -2.0375  0.2658
12007TIP3    H235965   2.090   1.306   3.611  0.6021 -0.7789  0.7722
12008TIP3   OH235966   8.093   5.946   4.653 -0.4105  0.1902  0.2259
12008TIP3    H135967   8.145   5.896   4.590 -2.2337  0.7920 -1.8784
12008TIP3    H235968   8.151   6.015   4.684  0.2906  0.4148 -1.4999
12009TIP3   OH235969   6.491   4.602   0.705 -0.7467  0.3175  0.0688
12009TIP3    H135970   6.505   4.538   0.774 -1.2545 -1.3835 -1.3169
12009TIP3    H235971   6.533   4.563   0.628 -0.1666  2.1576 -0.6005
12010TIP3   OH235972   1.459   3.348   0.085 -0.1040  0.3129  0.1911
12010TIP3    H135973   1.549   3.335   0.053  0.2310  0.0274  1.2019
12010TIP3    H235974   1.432   3.431   0.047  0.8227  0.6970  0.3431
12011TIP3   OH235975   6.605   2.842   2.705  0.2771  0.0010  0.2613
12011TIP3    H135976   6.683   2.889   2.677  0.1947 -0.0172 -0.0002
12011TIP3    H235977   6.544   2.910   2.732  1.1119 -0.0308  2.4526
12012TIP3   OH235978   2.220   5.991   6.705 -0.0655 -0.1467  0.0567
12012TIP3    H135979   2.206   5.957   6.793  2.7078 -0.5514  0.4085
12012TIP3    H235980   2.263   6.076   6.718 -0.2157  0.0955 -0.9182
12013TIP3   OH235981   7.048   6.077   4.906 -0.6327  0.1286  0.1197
12013TIP3    H135982   7.070   6.107   4.818 -0.5508  1.2219  0.5019
12013TIP3    H235983   7.119   6.110   4.961 -1.7351  1.2704  0.9169
12014TIP3   OH235984   2.773   1.127   4.497 -0.4332  0.1067 -0.2712
12014TIP3    H135985   2.683   1.101   4.519 -0.2279 -0.4693 -0.0911
12014TIP3    H235986   2.794   1.195   4.560 -0.0664 -1.1117  0.9577
12015TIP3   OH235987   0.726   7.673   5.085  0.2041 -0.3104 -0.0877
12015TIP3    H135988   0.793   7.609   5.060 -1.7437 -2.1360 -0.8346
12015TIP3    H235989   0.706   7.653   5.177  0.0442 -0.3435 -0.1299
12016TIP3   OH235990   7.481   1.259   3.179  0.2717 -0.0962  0.0299
12016TIP3    H135991   7.518   1.234   3.094 -2.1920  1.2819 -1.5344
12016TIP3    H235992   7.532   1.336   3.206 -0.5140  0.9765 -1.4436
12017TIP3   OH235993   6.820   1.453   0.386 -0.2461  0.2447  0.2500
12017TIP3    H135994   6.778   1.506   0.454 -0.1510  1.1266 -0.3758
12017TIP3    H235995   6.852   1.376   0.434 -0.9063  0.4501  1.0636
12018TIP3   OH235996   3.977   7.301   5.951 -0.1171  0.9102  0.1629
12018TIP3    H135997   3.951   7.320   6.041 -1.9411  0.6278 -0.2631
12018TIP3    H235998   3.937   7.371   5.900  0.1257  0.5571 -0.5222
12019TIP3   OH235999   5.304   5.054   4.917 -0.6223  0.2956 -0.2734
12019TIP3    H136000   5.292   5.005   4.835 -0.7297  1.3084 -0.8741
12019TIP3    H236001   5.288   5.145   4.894  3.6434  1.3041 -0.1997
12020TIP3   OH236002   4.231   4.074   2.323 -0.2121 -0.0061 -0.1118
12020TIP3    H136003   4.287   4.002   2.354 -0.9637 -0.3451  0.4973
12020TIP3    H236004   4.263   4.092   2.234  1.3463  0.3206  0.4770
12021TIP3   OH236005   5.718   6.877   3.732  0.4054  0.3809  0.0158
12021TIP3    H136006   5.733   6.791   3.692 -0.3819 -0.0526  0.6238
12021TIP3    H236007   5.638   6.866   3.783  0.6325  1.3128  0.5921
12022TIP3   OH236008   3.498   6.372   1.633 -0.3486 -0.3375  0.1912
12022TIP3    H136009   3.458   6.436   1.691  0.8513  0.0167  0.6450
12022TIP3    H236010   3.457   6.289   1.658 -1.2432  0.0931  0.2171
12023TIP3   OH236011   3.411   5.690   1.279 -0.2847  0.0678  0.9971
12023TIP3    H136012   3.386   5.690   1.372 -1.8419  2.0380  0.6462
12023TIP3    H236013   3.330   5.708   1.232  0.5297 -0.5983 -0.7664
12024TIP3   OH236014   6.575   6.718   4.703 -0.2731  0.1949  0.5739
12024TIP3    H136015   6.520   6.796   4.689 -1.0748 -0.5169 -0.4330
12024TIP3    H236016   6.603   6.725   4.794 -2.7890  0.1344  1.4408
12025TIP3   OH236017   0.092   5.463   5.024 -0.1139  0.0792 -0.1534
12025TIP3    H136018   0.069   5.555   5.013 -0.0824 -0.0150 -1.0296
12025TIP3    H236019   0.013   5.423   5.061  0.6395  0.8981  2.6377
12026TIP3   OH236020   3.217   4.418   1.824  0.3258 -0.2765  0.3137
12026TIP3    H136021   3.233   4.363   1.747 -0.9261 -1.5474  0.9130
12026TIP3    H236022   3.303   4.450   1.849  0.7151  0.5685 -1.8852
12027TIP3   OH236023   5.276   5.482   2.443  0.0620  0.0352 -0.1651
12027TIP3    H136024   5.221   5.551   2.404 -0.0520  0.9042  1.4671
12027TIP3    H236025   5.253   5.482   2.535  2.9559  0.6347  0.6782
12028TIP3   OH236026   0.930   2.089   1.349 -0.0398 -0.2867  1.2511
12028TIP3    H136027   0.946   2.057   1.261 -0.8103  0.1813  0.9294
12028TIP3    H236028   0.840   2.064   1.369  0.5441 -1.5617  2.4391
12029TIP3   OH236029   3.588   7.479   4.588 -0.3117  0.0497  0.1066
12029TIP3    H136030   3.574   7.395   4.546  0.6063 -0.4172  0.6767
12029TIP3    H236031   3.501   7.509   4.614 -0.8421  0.1622 -1.7203
12030TIP3   OH236032   4.101   7.736   2.520  0.6964 -0.4546 -0.1586
12030TIP3    H136033   4.058   7.806   2.570  0.4956 -0.4428 -0.3471
12030TIP3    H236034   4.168   7.702   2.580  0.1594 -0.7442  0.2986
12031TIP3   OH236035   3.958   1.786   6.248 -0.2913  0.3413 -0.0250
12031TIP3    H136036   3.886   1.751   6.196 -0.0195  0.7050 -0.6567
12031TIP3    H236037   3.981   1.869   6.206 -0.0058  0.6042  0.6249
12032TIP3   OH236038   5.801   2.638   2.038 -0.0887  0.1184  0.1012
12032TIP3    H136039   5.759   2.612   1.956  2.4233 -0.9157 -0.9677
12032TIP3    H236040   5.782   2.567   2.099  1.1506 -1.0197 -0.7838
12033TIP3   OH236041   6.861   3.021   2.391  0.0835 -0.3080 -0.2590
12033TIP3    H136042   6.819   3.091   2.440  1.4556 -0.0883  0.6666
12033TIP3    H236043   6.810   2.943   2.413 -0.9504  0.2382 -0.6397
12034TIP3   OH236044   6.298   0.734   0.997 -0.3802  0.1397  0.4010
12034TIP3    H136045   6.232   0.702   1.059 -1.4757  0.9370 -0.3169
12034TIP3    H236046   6.327   0.817   1.034 -0.3413  0.1594  0.3249
12035TIP3   OH236047   3.001   0.666   4.713 -0.3829  0.0868  0.2424
12035TIP3    H136048   2.920   0.704   4.679 -0.2346 -1.8267 -2.6017
12035TIP3    H236049   2.972   0.587   4.759 -0.1811 -0.3305 -0.3409
12036TIP3   OH236050   6.983   1.143   4.894 -0.1498 -0.2917 -0.6108
12036TIP3    H136051   7.020   1.096   4.968 -0.1633  0.0802 -0.3660
12036TIP3    H236052   6.894   1.164   4.920  0.4017  1.4138  0.0056
12037TIP3   OH236053   5.848   3.798   1.155 -0.2026 -0.3124  0.1772
12037TIP3    H136054   5.910   3.748   1.208 -1.0592 -0.1274  1.3994
12037TIP3    H236055   5.903   3.850   1.096  0.8256 -0.0335  1.3378
12038TIP3   OH236056   4.464   0.160   0.709  0.2347  0.1822 -0.0141
12038TIP3    H136057   4.559   0.150   0.708  0.3557  0.8369 -3.0137
12038TIP3    H236058   4.448   0.238   0.762  1.3292 -0.0353  0.6584
12039TIP3   OH236059   7.731   3.757   6.091 -0.0874  0.2746 -0.1904
12039TIP3    H136060   7.752   3.682   6.037 -1.4972 -0.5996  0.4468
12039TIP3    H236061   7.770   3.832   6.044  0.8598 -0.7495 -1.0974
12040TIP3   OH236062   2.216   5.180   6.228  0.3674  1.2755 -0.3803
12040TIP3    H136063   2.122   5.197   6.236  0.2545  1.2306 -1.5076
12040TIP3    H236064   2.235   5.192   6.135  1.1309 -0.4470 -0.4831
12041TIP3   OH236065   1.474   4.290   4.551 -0.0238 -0.0578  0.1857
12041TIP3    H136066   1.566   4.306   4.573  0.0165 -0.9421  0.6821
12041TIP3    H236067   1.426   4.362   4.593  0.3381 -0.1707  0.8013
12042TIP3   OH236068   6.739   1.397   1.667 -0.1747 -0.0739 -0.3192
12042TIP3    H136069   6.800   1.362   1.732  1.0015  0.0586 -1.3141
12042TIP3    H236070   6.774   1.483   1.645 -0.4762 -0.1722 -1.2202
12043TIP3   OH236071   7.371   1.477   5.576 -0.2478  0.1105  0.6126
12043TIP3    H136072   7.446   1.522   5.616 -0.6637  0.0978  1.4142
12043TIP3    H236073   7.301   1.542   5.577  0.2741  0.8481 -2.0093
12044TIP3   OH236074   5.952   1.766   0.991  0.7889 -0.3599 -0.0377
12044TIP3    H136075   6.024   1.815   1.031  1.3826 -1.1864 -0.0507
12044TIP3    H236076   5.995   1.690   0.951  0.3022  0.6845 -2.7757
12045TIP3   OH236077   6.605   5.955   6.576  0.2429 -0.0232  0.3788
12045TIP3    H136078   6.530   5.904   6.546  0.3660 -1.2468  1.9856
12045TIP3    H236079   6.604   6.034   6.522 -1.4129 -0.6172 -0.5289
12046TIP3   OH236080   8.148   0.226   5.658  0.4553  0.3789 -0.0568
12046TIP3    H136081   8.232   0.272   5.649  0.3872  0.3945 -0.5868
12046TIP3    H236082   8.121   0.206   5.569 -0.1223  0.3926  0.1111
12047TIP3   OH236083   0.154   1.920   1.501  0.1914  0.5010  0.2117
12047TIP3    H136084   0.123   1.912   1.411 -0.6305 -0.9613  0.5996
12047TIP3    H236085   0.249   1.908   1.496  0.4613  2.6078 -0.6974
12048TIP3   OH236086   4.281   7.155   6.418  0.1951 -0.2076  0.5362
12048TIP3    H136087   4.253   7.229   6.363  1.4228  0.4231  0.7193
12048TIP3    H236088   4.376   7.160   6.417  0.3109 -1.9446  0.3788
12049TIP3   OH236089   2.755   1.284   0.879 -0.0814 -0.4256  0.3776
12049TIP3    H136090   2.698   1.251   0.948  1.1446  0.4691  1.8846
12049TIP3    H236091   2.799   1.206   0.844 -1.3065 -0.9734  0.0354
12050TIP3   OH236092   3.707   5.455   5.983  0.2093  0.3788 -0.3052
12050TIP3    H136093   3.652   5.533   5.986 -2.6711 -1.5346  2.4117
12050TIP3    H236094   3.783   5.477   6.038  0.5283  1.8858 -1.2865
12051TIP3   OH236095   3.972   2.701   0.963 -0.3537  0.1248  0.3741
12051TIP3    H136096   3.899   2.671   0.909  0.8521  1.4677 -2.1916
12051TIP3    H236097   3.993   2.627   1.020  0.0971 -2.5736 -2.9887
12052TIP3   OH236098   2.344   0.356   6.038  0.1070 -0.0199  0.4061
12052TIP3    H136099   2.340   0.405   6.120  1.2386  1.8149 -0.5311
12052TIP3    H236100   2.436   0.331   6.030  0.3249  1.0505 -0.9017
12053TIP3   OH236101   5.116   3.910   6.682 -0.4429 -0.2269 -0.3462
12053TIP3    H136102   5.034   3.940   6.644 -0.8052 -0.6595  0.0866
12053TIP3    H236103   5.170   3.885   6.607 -0.2511  1.1800 -0.6963
12054TIP3   OH236104   4.943   0.609   0.032  0.1325 -0.1230 -0.0305
12054TIP3    H136105   4.933   0.683   0.092  0.5227 -0.2725  0.2181
12054TIP3    H236106   5.036   0.585   0.037 -0.1054 -1.0161  0.3503
12055TIP3   OH236107   0.695   1.656   5.123 -0.2057 -0.2477  0.1430
12055TIP3    H136108   0.659   1.734   5.080 -0.6874 -0.5364  0.0150
12055TIP3    H236109   0.661   1.582   5.072 -1.3332 -0.6363  1.3776
12056TIP3   OH236110   1.740   5.326   0.586 -0.0937 -0.0517  0.0170
12056TIP3    H136111   1.753   5.329   0.491  0.2429 -1.8544 -0.0306
12056TIP3    H236112   1.802   5.390   0.621  1.9878 -1.4794 -0.8252
12057TIP3   OH236113   0.370   5.812   6.635  0.1908  0.5130  0.1935
12057TIP3    H136114   0.370   5.749   6.707 -0.2621  1.4416  1.0250
12057TIP3    H236115   0.461   5.814   6.604 -0.2270 -2.4157 -1.5610
12058TIP3   OH236116   8.089   6.502   4.682  0.0061 -0.3682  0.3883
12058TIP3    H136117   8.112   6.563   4.752 -0.3908 -1.6639  1.7164
12058TIP3    H236118   8.038   6.555   4.620 -0.2273  0.6800  1.4278
12059TIP3   OH236119   7.857   4.558   6.029 -0.0797  0.0860 -0.1252
12059TIP3    H136120   7.791   4.567   6.098 -0.9381 -1.1857 -0.7634
12059TIP3    H236121   7.815   4.505   5.962  0.5693  1.6938 -1.8813
12060TIP3   OH236122   7.077   5.853   2.388  0.2327 -0.8035 -0.2804
12060TIP3    H136123   7.101   5.805   2.467  0.4017  1.9303  1.4499
12060TIP3    H236124   7.148   5.836   2.327  0.5702 -2.2302  0.4596
12061TIP3   OH236125   5.254   5.917   4.100 -0.2085  0.5535  0.3676
12061TIP3    H136126   5.160   5.906   4.116 -0.6680  1.8278 -1.2308
12061TIP3    H236127   5.260   5.952   4.012  1.8957 -1.2698 -0.3112
12062TIP3   OH236128   7.011   0.547   2.539  0.2931  0.4131  0.0644
12062TIP3    H136129   7.056   0.558   2.455  1.1773  1.2550  0.6252
12062TIP3    H236130   7.082   0.552   2.604 -0.5509  1.2386  0.9431
12063TIP3   OH236131   4.920   1.487   1.829  0.2727  0.5262  0.3050
12063TIP3    H136132   4.883   1.409   1.788  0.6318  0.2057  0.5790
12063TIP3    H236133   5.015   1.471   1.830  0.2794  0.5097  1.2660
12064TIP3   OH236134   0.033   5.316   1.783  0.0048  0.1554  0.0736
12064TIP3    H136135  -0.051   5.361   1.794  1.1005  2.4828 -0.3681
12064TIP3    H236136   0.063   5.343   1.697  0.9344 -1.1651 -0.0447
12065TIP3   OH236137   4.759   2.132   1.067 -0.0895  0.5980 -0.0981
12065TIP3    H136138   4.790   2.200   1.007 -0.6048  1.2568  0.3718
12065TIP3    H236139   4.835   2.112   1.122 -0.1696  1.4224  0.3294
12066TIP3   OH236140   3.969   1.565   6.431 -0.6725  0.1654 -0.2239
12066TIP3    H136141   3.904   1.590   6.497 -0.5285  0.0033 -0.0195
12066TIP3    H236142   3.966   1.636   6.367 -2.3286 -0.6737 -1.1641
12067TIP3   OH236143   5.448   6.198   0.073  0.3238  0.7694  0.0958
12067TIP3    H136144   5.433   6.277   0.126  1.0106  0.8735  0.1450
12067TIP3    H236145   5.407   6.218  -0.011 -1.8029  0.1624  0.9093
12068TIP3   OH236146   3.248   0.289   3.459 -0.3752  0.1057  0.1714
12068TIP3    H136147   3.157   0.316   3.448 -0.7508 -0.6433  1.2968
12068TIP3    H236148   3.267   0.238   3.380 -0.3470  1.7043 -0.9022
12069TIP3   OH236149   6.663   1.667   5.480 -0.6241 -0.5369 -0.5846
12069TIP3    H136150   6.662   1.760   5.502 -0.8205 -0.6940  0.0931
12069TIP3    H236151   6.572   1.638   5.492 -1.1363 -0.2908 -3.1922
12070TIP3   OH236152   4.352   7.094   0.922 -0.0532 -0.0722 -1.0499
12070TIP3    H136153   4.409   7.158   0.878  1.2485 -1.8251 -2.0420
12070TIP3    H236154   4.278   7.146   0.953  2.4466  2.5243  1.1494
12071TIP3   OH236155   2.189   3.814   0.930 -0.5489 -0.2110  0.3837
12071TIP3    H136156   2.151   3.803   1.017 -1.5738 -0.6299 -0.1061
12071TIP3    H236157   2.162   3.902   0.902  0.6630  0.3452  0.9028
12072TIP3   OH236158   7.468   2.891   4.666  0.4310  0.7823 -0.0653
12072TIP3    H136159   7.376   2.869   4.678  0.9340 -0.7259  1.4793
12072TIP3    H236160   7.514   2.844   4.736  2.4113  1.2602 -0.9489
12073TIP3   OH236161   4.854   2.487   1.991  0.0784 -0.0321 -0.1131
12073TIP3    H136162   4.875   2.576   2.020 -2.3629  0.1794  1.3107
12073TIP3    H236163   4.778   2.462   2.044 -1.6454 -1.5342 -3.0005
12074TIP3   OH236164   5.291   1.070   2.748 -0.1159  0.2418  0.7496
12074TIP3    H136165   5.231   1.038   2.815 -1.8025  0.3799 -0.6078
12074TIP3    H236166   5.336   0.992   2.716  0.3729  0.1178  1.6912
12075TIP3   OH236167   2.190   3.382   4.982  0.1067 -0.4240  0.1473
12075TIP3    H136168   2.136   3.317   5.028  1.7237  0.0897  3.0103
12075TIP3    H236169   2.211   3.340   4.898 -0.3509 -2.8614  1.1580
12076TIP3   OH236170   1.147   4.569   4.019  0.2347  0.5354 -0.1272
12076TIP3    H136171   1.158   4.482   4.057  1.3126  0.0223 -1.5236
12076TIP3    H236172   1.062   4.566   3.976  0.8677 -0.3305 -1.3705
12077TIP3   OH236173   2.344   2.284   0.072 -0.4204  0.1808  0.1298
12077TIP3    H136174   2.363   2.237   0.154 -0.5006 -1.1393 -0.5826
12077TIP3    H236175   2.250   2.302   0.076 -0.6025 -0.6938 -0.0683
12078TIP3   OH236176   1.828   1.595   1.595  0.3162  0.1343 -0.2554
12078TIP3    H136177   1.883   1.628   1.666 -0.7181 -0.0197  0.6405
12078TIP3    H236178   1.848   1.502   1.590  0.6552  0.2139 -0.4170
12079TIP3   OH236179   4.879   6.449   2.335  0.2701 -0.1031  0.0463
12079TIP3    H136180   4.968   6.440   2.301 -0.3214  0.9573 -1.9045
12079TIP3    H236181   4.828   6.481   2.261 -1.3876  1.0289  1.6057
12080TIP3   OH236182   3.511   5.676   3.617 -0.2536  0.1998 -0.0733
12080TIP3    H136183   3.469   5.743   3.670 -1.1733  0.6149 -1.2683
12080TIP3    H236184   3.453   5.600   3.624  1.2617 -0.8667  2.0406
12081TIP3   OH236185   2.782   1.279   1.482  0.3645  0.0313 -0.8837
12081TIP3    H136186   2.719   1.349   1.463 -2.5376 -2.0202  0.4735
12081TIP3    H236187   2.838   1.316   1.551 -1.4943  0.8544  0.2577
12082TIP3   OH236188   3.394   5.785   3.830  0.3926 -0.1093  0.1579
12082TIP3    H136189   3.364   5.744   3.911  3.4750 -0.2909  1.3058
12082TIP3    H236190   3.364   5.876   3.837 -1.0107 -0.5770  0.5668
12083TIP3   OH236191   5.517   4.726   6.184 -0.5864  0.0974 -0.2664
12083TIP3    H136192   5.567   4.648   6.205  0.4698  0.9131  0.3168
12083TIP3    H236193   5.533   4.740   6.091  1.0084  0.8339  0.0862
12084TIP3   OH236194   1.334   6.825   6.353  0.3009 -0.2747  0.2712
12084TIP3    H136195   1.428   6.830   6.338  0.1811  0.2653 -0.3765
12084TIP3    H236196   1.319   6.739   6.391  0.7391 -1.4900 -2.1181
12085TIP3   OH236197   4.349   0.673   4.536 -0.2201  0.2464  0.5856
12085TIP3    H136198   4.313   0.744   4.589  0.3323  1.9414 -1.1630
12085TIP3    H236199   4.374   0.716   4.454 -0.7726 -2.1651 -0.9477
12086TIP3   OH236200   1.699   1.971   4.839  0.1658 -0.2583 -0.3404
12086TIP3    H136201   1.722   1.915   4.765  0.8172 -1.0820  0.4527
12086TIP3    H236202   1.726   2.059   4.813  0.9859 -0.6462 -0.8253
12087TIP3   OH236203   4.097   2.793   5.049 -0.8225 -0.5054 -0.5642
12087TIP3    H136204   4.187   2.762   5.058 -1.1176 -0.8361  2.4100
12087TIP3    H236205   4.105   2.885   5.025  0.5353  0.4245  2.8896
12088TIP3   OH236206   1.078   3.712   4.536 -0.1873  0.2950 -0.2306
12088TIP3    H136207   1.074   3.708   4.440 -0.9898 -0.5667 -0.1687
12088TIP3    H236208   0.991   3.685   4.565 -0.5859  2.3426  0.7134
12089TIP3   OH236209   2.894   1.435   2.805  0.2142 -0.0612 -0.2515
12089TIP3    H136210   2.938   1.518   2.787  1.1254 -0.7247 -1.1357
12089TIP3    H236211   2.811   1.441   2.757 -0.0623  0.6328  0.2993
12090TIP3   OH236212   4.011   1.247   4.203  0.1982  0.1353 -0.9970
12090TIP3    H136213   4.032   1.169   4.152  0.3609  1.6608 -3.4356
12090TIP3    H236214   4.070   1.315   4.169 -1.0609  1.7281 -0.1690
12091TIP3   OH236215   7.132   5.905   3.535 -0.1991  0.3438  0.5269
12091TIP3    H136216   7.061   5.914   3.472  0.3935  2.0936  0.0382
12091TIP3    H236217   7.152   5.811   3.536 -0.6958  0.1766 -1.3697
12092TIP3   OH236218   2.595   1.425   3.743 -0.1208 -0.3102  0.0033
12092TIP3    H136219   2.636   1.486   3.681 -1.6862  0.9780  0.1676
12092TIP3    H236220   2.568   1.481   3.816 -2.4440 -1.0104 -0.2519
12093TIP3   OH236221   3.625   2.739   0.040 -0.3774 -0.0122  0.3408
12093TIP3    H136222   3.674   2.662   0.069 -2.0310 -1.4482 -0.5013
12093TIP3    H236223   3.568   2.760   0.113 -0.8253 -0.3998  0.1119
12094TIP3   OH236224   2.644   6.026   1.878 -0.4383 -0.2648 -0.0878
12094TIP3    H136225   2.653   6.102   1.820  0.1665 -0.6149 -0.4635
12094TIP3    H236226   2.723   6.028   1.933  0.2815 -1.3887 -1.0341
12095TIP3   OH236227   7.898   4.239   1.438  0.3492  0.3884 -0.0688
12095TIP3    H136228   7.924   4.188   1.515 -0.2195 -0.8504 -0.6538
12095TIP3    H236229   7.972   4.231   1.378  0.2907  0.3054 -0.1309
12096TIP3   OH236230   7.720   1.180   5.418 -0.1182  0.0239  0.2907
12096TIP3    H136231   7.715   1.228   5.336  0.5934  0.7066  0.6221
12096TIP3    H236232   7.756   1.095   5.394 -0.7232 -0.0905 -0.2174
12097TIP3   OH236233   2.573   4.003   4.404  0.2738 -0.1457  0.0116
12097TIP3    H136234   2.550   4.082   4.453 -0.4162 -0.7343  0.6568
12097TIP3    H236235   2.555   3.931   4.465 -0.7189 -0.9054 -1.1403
12098TIP3   OH236236   2.213   5.994   0.743  0.1032  0.0318 -0.7717
12098TIP3    H136237   2.136   5.971   0.692 -0.7602 -0.8885  0.8728
12098TIP3    H236238   2.195   5.962   0.831  1.6449  1.3326  0.0875
12099TIP3   OH236239   7.428   4.160   1.904 -0.5967  0.2153  0.1613
12099TIP3    H136240   7.403   4.181   1.815  0.6036 -0.2202 -0.3041
12099TIP3    H236241   7.354   4.111   1.940 -1.3020  0.8587 -0.4095
12100TIP3   OH236242   0.846   4.654   2.430  0.3720  0.1424  0.3322
12100TIP3    H136243   0.860   4.731   2.374 -0.2906  0.8267  1.0816
12100TIP3    H236244   0.755   4.660   2.457  0.3706 -0.8132  0.5643
12101TIP3   OH236245   3.232   6.503   0.961  0.3054  0.0370 -0.6376
12101TIP3    H136246   3.222   6.411   0.987 -0.4388  0.1451 -0.5226
12101TIP3    H236247   3.231   6.501   0.866  3.2745 -0.3873 -0.7495
12102TIP3   OH236248   0.886   1.473   1.009 -0.2229 -0.6858  0.2780
12102TIP3    H136249   0.921   1.522   0.934 -0.5421  0.0059  0.5692
12102TIP3    H236250   0.794   1.459   0.988 -0.5438  0.3237  0.9402
12103TIP3   OH236251   5.365   4.956   6.234  0.1609  0.1037 -0.1225
12103TIP3    H136252   5.310   4.942   6.311  0.8540 -0.8488  0.2147
12103TIP3    H236253   5.387   4.868   6.204 -0.0864  0.4622 -1.4085
12104TIP3   OH236254   3.104   7.333   4.788 -0.5990 -0.1842  0.2319
12104TIP3    H136255   3.116   7.425   4.763 -0.3419 -0.3162 -0.1544
12104TIP3    H236256   3.137   7.327   4.877 -1.8989  0.3877  0.7790
12105TIP3   OH236257   6.805   0.363   3.849 -0.4194 -0.2427 -0.4150
12105TIP3    H136258   6.822   0.269   3.839  0.3106 -0.2917  1.0447
12105TIP3    H236259   6.811   0.398   3.760  1.4879 -1.2273 -0.7254
12106TIP3   OH236260   5.475   3.489   3.917  0.7229  0.1827  0.3167
12106TIP3    H136261   5.514   3.514   4.001  1.1968  0.2865  0.0710
12106TIP3    H236262   5.418   3.563   3.894 -1.4000 -0.9307  1.7534
12107TIP3   OH236263   5.612   6.795   0.908 -0.1798  0.8503  0.1674
12107TIP3    H136264   5.671   6.867   0.930  0.0854  0.3985  0.9902
12107TIP3    H236265   5.589   6.756   0.993 -0.5855  0.1727 -0.2417
12108TIP3   OH236266   0.972   5.463   2.408  0.2571  0.6409 -0.1056
12108TIP3    H136267   1.000   5.528   2.344  2.8476 -0.9096 -0.6827
12108TIP3    H236268   1.041   5.463   2.474  0.5629 -1.7377 -0.3395
12109TIP3   OH236269   5.889   5.472   2.896 -0.0419 -0.0175  0.0722
12109TIP3    H136270   5.886   5.497   2.803  1.0390  0.3142  0.1052
12109TIP3    H236271   5.900   5.377   2.894  0.4314  0.0370 -0.1584
12110TIP3   OH236272   3.588   7.030   1.588 -1.2416  0.1662  0.0626
12110TIP3    H136273   3.569   6.948   1.543 -1.8613 -1.5722  3.2208
12110TIP3    H236274   3.678   7.021   1.618 -1.6690  0.0858  1.3956
12111TIP3   OH236275   4.599   5.379   2.505 -0.3303  0.3919 -0.1905
12111TIP3    H136276   4.677   5.359   2.557 -0.5312 -1.0281 -0.4027
12111TIP3    H236277   4.533   5.316   2.534 -0.8669  0.4595 -1.2004
12112TIP3   OH236278   4.072   2.237   1.188  0.0573 -0.4580 -0.1278
12112TIP3    H136279   4.071   2.333   1.181  0.8034 -0.3939  0.4832
12112TIP3    H236280   3.982   2.210   1.167  0.7617  0.0266 -4.6904
12113TIP3   OH236281   2.342   3.265   6.620  0.9569  0.0472  0.2035
12113TIP3    H136282   2.251   3.249   6.647  1.3850 -1.2192  1.0224
12113TIP3    H236283   2.336   3.280   6.525 -0.0825 -0.2352  0.2026
12114TIP3   OH236284   7.927   7.351   3.994  0.3446 -0.0724  0.1292
12114TIP3    H136285   7.985   7.428   3.998  1.7714 -1.0786 -0.3450
12114TIP3    H236286   7.930   7.315   4.082 -1.9135  1.4749  0.9199
12115TIP3   OH236287   6.358   5.081   4.774 -0.1703  0.2074 -0.3016
12115TIP3    H136288   6.288   5.144   4.760 -1.2559 -1.2285 -1.8811
12115TIP3    H236289   6.437   5.133   4.782 -1.1667  1.7991 -0.4975
12116TIP3   OH236290   1.377   0.213   2.597 -0.1311  0.0856  0.0380
12116TIP3    H136291   1.431   0.182   2.524 -1.2467 -0.9587 -0.3597
12116TIP3    H236292   1.326   0.285   2.559 -0.4312 -0.2054 -0.1147
12117TIP3   OH236293   2.567   5.063   4.176 -0.1594  0.3126 -0.1968
12117TIP3    H136294   2.522   5.136   4.134 -1.3263  0.9614  2.0108
12117TIP3    H236295   2.634   5.104   4.230 -2.3506  0.1046  2.9381
12118TIP3   OH236296   7.532   5.599   0.942 -0.5216  0.4877 -0.5189
12118TIP3    H136297   7.443   5.629   0.925 -0.5337 -0.3698 -2.0791
12118TIP3    H236298   7.588   5.672   0.916 -0.6911  0.3601 -1.2446
12119TIP3   OH236299   1.621   0.030   5.459  0.5907  0.0506 -0.7379
12119TIP3    H136300   1.560   0.102   5.445 -0.7269 -0.6755  0.9584
12119TIP3    H236301   1.623  -0.016   5.375 -1.6203 -0.1868 -0.7320
12120TIP3   OH236302   4.733   2.745   6.369  0.1469 -0.2631  0.1006
12120TIP3    H136303   4.709   2.721   6.280 -0.0831 -1.3370  0.4350
12120TIP3    H236304   4.719   2.665   6.420  3.6922 -0.7825  0.5037
12121TIP3   OH236305   1.297   6.511   6.025 -0.5861  0.2725  0.1477
12121TIP3    H136306   1.202   6.524   6.024 -0.4979  1.0064  0.1426
12121TIP3    H236307   1.324   6.535   5.936 -0.4080  0.0093  0.1329
12122TIP3   OH236308   8.085   4.655   1.769 -0.2947  0.5188 -0.4208
12122TIP3    H136309   8.043   4.569   1.767  1.1978 -0.2229 -1.2542
12122TIP3    H236310   8.014   4.716   1.793 -1.7959 -0.6944 -1.5725
12123TIP3   OH236311   7.505   3.797   1.083  0.5376  0.1519  0.0686
12123TIP3    H136312   7.434   3.862   1.087  1.2070  0.9521 -0.6216
12123TIP3    H236313   7.556   3.822   1.006  1.2670 -0.7382  0.2437
12124TIP3   OH236314   4.537   1.802   5.867 -0.1962  0.3525 -0.2984
12124TIP3    H136315   4.467   1.853   5.909 -0.5207 -1.2745  1.2671
12124TIP3    H236316   4.594   1.868   5.827 -0.3090  2.0221  2.0779
12125TIP3   OH236317   2.266   4.996   3.212  0.2839  0.2180 -0.0970
12125TIP3    H136318   2.344   4.988   3.157  0.0152 -1.1369 -0.3185
12125TIP3    H236319   2.196   4.957   3.161  0.3151 -2.5179  1.7155
12126TIP3   OH236320   2.279   0.429   4.560  0.3112 -0.0331  0.1260
12126TIP3    H136321   2.334   0.485   4.614 -0.2041  2.0332 -1.3375
12126TIP3    H236322   2.219   0.490   4.516 -0.4552 -1.7786 -1.3945
12127TIP3   OH236323   4.550   4.931   5.960  0.1648  0.0455  0.1075
12127TIP3    H136324   4.457   4.936   5.982  0.1964  0.1561  0.2108
12127TIP3    H236325   4.552   4.927   5.864  0.0827  0.6409  0.0791
12128TIP3   OH236326   2.309   6.863   1.705 -0.1898  0.1156 -0.5457
12128TIP3    H136327   2.267   6.865   1.619 -1.8917  1.1487  0.2461
12128TIP3    H236328   2.249   6.811   1.760  0.4705  0.1215  0.1998
12129TIP3   OH236329   3.574   5.030   3.229 -0.0623  0.0987  0.4234
12129TIP3    H136330   3.659   4.996   3.201 -0.0286 -0.7083  1.4409
12129TIP3    H236331   3.541   4.964   3.291 -1.7532  0.0395 -0.4882
12130TIP3   OH236332   2.994   3.124   0.437 -0.1924 -0.3313  0.3241
12130TIP3    H136333   2.925   3.147   0.376  0.4394  0.3518 -0.1497
12130TIP3    H236334   3.005   3.202   0.492  0.0193 -0.5290  0.5648
12131TIP3   OH236335   2.368   4.385   1.112 -0.5376 -0.1693  0.1341
12131TIP3    H136336   2.439   4.397   1.176 -1.4692  0.1675  1.1471
12131TIP3    H236337   2.310   4.461   1.127  0.7321  1.6509 -3.2227
12132TIP3   OH236338   1.042   4.720   1.397  0.2177  0.0873 -0.2527
12132TIP3    H136339   1.037   4.687   1.487 -0.4502  0.9994  0.0596
12132TIP3    H236340   1.000   4.652   1.344  1.5131 -0.9275 -0.0296
12133TIP3   OH236341   2.612   0.511   2.905  0.3867 -0.2480  0.1794
12133TIP3    H136342   2.579   0.600   2.920  0.1999 -0.2805 -0.0412
12133TIP3    H236343   2.564   0.480   2.828  0.7814 -0.3721 -0.0177
12134TIP3   OH236344   6.720   4.176   2.986  0.4076  0.1536  0.1767
12134TIP3    H136345   6.667   4.242   2.942 -2.1419 -1.7760  0.1203
12134TIP3    H236346   6.792   4.159   2.926  0.9375  2.5232  0.0295
12135TIP3   OH236347   0.898   3.004   2.701 -0.1872  0.2997  0.7197
12135TIP3    H136348   0.834   2.937   2.677 -0.7838  0.8446  0.7523
12135TIP3    H236349   0.860   3.047   2.778 -0.2394  1.2337  0.1952
12136TIP3   OH236350   6.906   1.239   0.075 -0.1291  0.3158 -0.4143
12136TIP3    H136351   6.888   1.241   0.169  0.3241 -1.5357 -0.2494
12136TIP3    H236352   6.820   1.231   0.034 -0.2055 -1.7490  0.0316
12137TIP3   OH236353   4.906   4.952   1.173 -0.4246  0.0661  0.3186
12137TIP3    H136354   4.980   5.012   1.185 -1.0273  0.8029  0.4170
12137TIP3    H236355   4.854   4.993   1.104 -0.7590 -0.4347  0.2765
12138TIP3   OH236356   1.197   4.563   1.634  0.4399 -0.1869 -0.0058
12138TIP3    H136357   1.116   4.514   1.622  0.5924 -0.0383 -1.9585
12138TIP3    H236358   1.264   4.511   1.588  1.5535 -0.4565  1.8035
12139TIP3   OH236359   3.847   4.843   1.835 -0.1772 -0.0960  0.0383
12139TIP3    H136360   3.774   4.902   1.817 -1.0667 -0.8739  0.9694
12139TIP3    H236361   3.918   4.900   1.864 -1.0171  0.5176  0.9230
12140TIP3   OH236362   2.426   1.941   0.819 -0.0917 -0.0433  0.4930
12140TIP3    H136363   2.462   1.857   0.789 -0.6584 -0.6236  1.3606
12140TIP3    H236364   2.352   1.916   0.875 -0.0789  1.0319  1.0185
12141TIP3   OH236365   7.848   6.086   4.725  0.2562 -0.1005 -0.5537
12141TIP3    H136366   7.883   6.133   4.800  0.5192 -0.6499 -0.3223
12141TIP3    H236367   7.925   6.057   4.676  0.1487 -1.3681 -0.0098
12142TIP3   OH236368   1.885   6.758   5.161  0.1376 -0.3966  0.0809
12142TIP3    H136369   1.941   6.681   5.149 -0.7143 -1.1050  0.5013
12142TIP3    H236370   1.898   6.809   5.082  0.9583 -0.8139 -0.0744
12143TIP3   OH236371   0.854   2.481   3.084 -0.2501 -0.5285  0.0518
12143TIP3    H136372   0.839   2.394   3.047 -1.7156  0.4535 -1.8111
12143TIP3    H236373   0.919   2.521   3.026  0.5678 -0.4057  1.0114
12144TIP3   OH236374   3.326   1.341   2.112 -0.3379  0.5815  0.1429
12144TIP3    H136375   3.297   1.328   2.202 -0.2687 -0.0855  0.0698
12144TIP3    H236376   3.248   1.326   2.059  0.0700 -1.0551 -0.0421
12145TIP3   OH236377   7.025   3.806   6.569  0.0658  0.1266  0.4778
12145TIP3    H136378   7.056   3.738   6.629 -1.6231 -0.4651  0.7300
12145TIP3    H236379   7.058   3.888   6.607 -1.5716 -0.1444  2.7216
12146TIP3   OH236380   1.949   2.070   6.701 -0.4329  0.2888 -0.1180
12146TIP3    H136381   1.942   1.977   6.683  0.8738 -0.4718  2.7477
12146TIP3    H236382   1.871   2.109   6.659 -3.6770 -2.7405  2.4844
12147TIP3   OH236383   6.730   4.370   6.464  0.0927  0.0482 -0.1424
12147TIP3    H136384   6.772   4.407   6.542 -1.8447  0.0791  0.9399
12147TIP3    H236385   6.649   4.420   6.454 -0.6733 -1.2972 -0.9915
12148TIP3   OH236386   6.478   4.087   6.569  0.1019  0.5728 -0.1175
12148TIP3    H136387   6.441   4.130   6.647  0.1462  0.5403 -0.0790
12148TIP3    H236388   6.506   4.001   6.600 -0.1851  0.4325 -0.2432
12149TIP3   OH236389   7.905   6.914   5.945 -0.1798  1.0240  0.8696
12149TIP3    H136390   7.849   6.991   5.941 -0.8463  0.7445  3.2874
12149TIP3    H236391   7.972   6.936   6.009  0.3402  0.0224  0.7042
12150TIP3   OH236392   5.148   7.253   6.405 -0.3682 -0.4959 -0.3896
12150TIP3    H136393   5.195   7.237   6.324 -0.8976 -1.6843 -0.4877
12150TIP3    H236394   5.207   7.223   6.474  0.2656  0.9315 -0.2783
12151TIP3   OH236395   1.702   4.736   0.848  0.0219  0.4968 -0.0906
12151TIP3    H136396   1.767   4.739   0.919  0.2860 -0.1959 -0.2939
12151TIP3    H236397   1.658   4.652   0.860  0.8017 -0.1273 -1.3755
12152TIP3   OH236398   6.722   2.717   5.208 -0.2060  0.0025  0.3843
12152TIP3    H136399   6.701   2.630   5.175  0.1274  0.6581 -1.6691
12152TIP3    H236400   6.683   2.777   5.145  1.1313  1.3303  0.7573
12153TIP3   OH236401   1.000   1.000   1.184  0.0110 -0.3622 -0.6532
12153TIP3    H136402   1.053   0.997   1.263 -0.8482  0.3686 -0.0263
12153TIP3    H236403   0.912   0.975   1.213 -0.5106  0.7730 -1.1802
12154TIP3   OH236404   6.235   0.628   0.472 -0.1521 -0.1704  0.0590
12154TIP3    H136405   6.284   0.628   0.554 -0.9780 -3.8540  0.7704
12154TIP3    H236406   6.175   0.554   0.480 -0.7993 -0.2597 -3.5919
12155TIP3   OH236407   6.024   1.697   4.427 -0.1111 -0.1427  0.4575
12155TIP3    H136408   6.071   1.768   4.471 -0.1098  1.0637 -1.3596
12155TIP3    H236409   5.965   1.742   4.366  0.2159 -1.7051 -1.0947
12156TIP3   OH236410   0.702   3.238   0.412 -0.8066 -0.4405 -0.1588
12156TIP3    H136411   0.757   3.314   0.395 -1.0838  0.2161  1.6599
12156TIP3    H236412   0.762   3.164   0.419 -0.4716 -0.2806 -1.2031
12157TIP3   OH236413   8.220   0.618   6.346  0.0818 -0.1047  0.2087
12157TIP3    H136414   8.185   0.675   6.414 -1.9951  0.0308 -0.8763
12157TIP3    H236415   8.166   0.539   6.351  0.8484 -0.6724 -0.3482
12158TIP3   OH236416   6.152   3.676   2.003  0.4566 -0.6185  0.0375
12158TIP3    H136417   6.230   3.728   1.988  0.0682  0.2703  0.9412
12158TIP3    H236418   6.147   3.667   2.098 -2.0388  1.8284  0.2815
12159TIP3   OH236419   5.396   1.861   0.534 -0.0025  0.2044  0.1928
12159TIP3    H136420   5.401   1.772   0.566  1.1940  0.1436 -0.0977
12159TIP3    H236421   5.421   1.855   0.441 -0.2643  0.7838  0.0775
12160TIP3   OH236422   7.712   2.155   2.737  0.0675  0.0050 -0.1466
12160TIP3    H136423   7.665   2.208   2.672  1.0937 -0.0870 -0.9889
12160TIP3    H236424   7.788   2.121   2.690  0.8333 -0.0848  1.1165
12161TIP3   OH236425   3.364   0.072   6.254 -0.1924 -0.2605 -0.1826
12161TIP3    H136426   3.408   0.076   6.168  1.4529  0.2730  0.6334
12161TIP3    H236427   3.332   0.161   6.268  0.2821 -0.1291  0.1042
12162TIP3   OH236428   5.006   7.619   1.143  0.4066  0.0203 -0.2417
12162TIP3    H136429   4.980   7.665   1.223 -0.9972 -0.9291 -0.1237
12162TIP3    H236430   4.926   7.614   1.091  0.9465 -0.7293 -1.0297
12163TIP3   OH236431   2.189   1.618   4.708 -0.4051  0.4151 -0.0072
12163TIP3    H136432   2.151   1.599   4.793 -1.5969 -1.7566 -0.9348
12163TIP3    H236433   2.281   1.597   4.718 -0.2919  1.3385  1.0519
12164TIP3   OH236434   6.990   5.528   2.314 -0.2139  1.1167  0.1083
12164TIP3    H136435   6.964   5.597   2.253 -0.6769  1.6305  0.8693
12164TIP3    H236436   7.066   5.564   2.361  1.3199  0.0249 -1.3817
12165TIP3   OH236437   1.384   1.893   0.611 -0.0274  0.6229 -0.2303
12165TIP3    H136438   1.395   1.855   0.524  1.5425 -1.9669  0.9986
12165TIP3    H236439   1.466   1.940   0.627  0.1524  0.1566  0.2530
12166TIP3   OH236440   6.879   7.435   2.071  0.2615 -0.4317  0.7368
12166TIP3    H136441   6.920   7.408   2.153 -0.0565  0.6558  1.2819
12166TIP3    H236442   6.901   7.528   2.063 -1.8347  0.1460  0.9385
12167TIP3   OH236443   0.291   0.233   4.696 -0.2803  0.2528  0.8693
12167TIP3    H136444   0.218   0.255   4.637  1.3028  0.1286 -1.2701
12167TIP3    H236445   0.251   0.179   4.764 -2.0001 -0.8255 -0.8796
12168TIP3   OH236446   0.219   4.826   5.590 -0.0016  0.0980  0.2877
12168TIP3    H136447   0.267   4.827   5.673 -1.4257  0.5528  1.1326
12168TIP3    H236448   0.229   4.736   5.558  0.5707 -0.0821  0.9361
12169TIP3   OH236449   3.946   6.737   2.360 -0.1562  0.5844  0.0603
12169TIP3    H136450   3.980   6.669   2.419 -1.4719 -0.5249 -0.4146
12169TIP3    H236451   3.986   6.818   2.392  2.2303 -0.5026  0.0441
12170TIP3   OH236452   7.498   6.429   5.914  0.2499 -0.1325 -0.4289
12170TIP3    H136453   7.461   6.465   5.995  1.5819 -0.4431  0.3474
12170TIP3    H236454   7.460   6.483   5.845 -0.2295  0.7235  0.4690
12171TIP3   OH236455   3.900   6.060   1.427  0.3453  0.3033 -0.2759
12171TIP3    H136456   3.976   6.084   1.480  0.8496  0.2422 -0.9526
12171TIP3    H236457   3.867   5.979   1.467  0.1036  0.8039  0.5486
12172TIP3   OH236458   2.596   3.125   5.807 -0.2487  0.4743  0.8871
12172TIP3    H136459   2.598   3.141   5.712 -1.3926 -1.0127  0.5635
12172TIP3    H236460   2.687   3.128   5.834  0.2082 -0.1564 -0.4754
12173TIP3   OH236461   2.075   2.323   2.542 -0.3371  0.4515 -0.7934
12173TIP3    H136462   2.157   2.351   2.582  0.1691 -0.6878 -0.9860
12173TIP3    H236463   2.090   2.328   2.448 -0.9981  1.6237 -0.8575
12174TIP3   OH236464   6.668   2.047   2.464  0.4583  0.1891  0.5429
12174TIP3    H136465   6.754   2.067   2.426  0.5516 -0.0669  0.6183
12174TIP3    H236466   6.611   2.115   2.430  0.3284 -0.5583 -0.8211
12175TIP3   OH236467   7.742   1.195   1.629  0.2552 -0.1295  0.1968
12175TIP3    H136468   7.676   1.131   1.605  0.3173 -0.1533  0.0862
12175TIP3    H236469   7.715   1.276   1.585  1.1640 -0.5476 -1.1948
12176TIP3   OH236470   2.527   1.475   6.654 -0.0865 -0.6478  0.5819
12176TIP3    H136471   2.463   1.472   6.582  1.0883 -1.3996 -0.4671
12176TIP3    H236472   2.479   1.516   6.726 -1.3616 -0.0119 -0.5659
12177TIP3   OH236473   0.540   5.177   3.224 -0.1910 -0.3019 -0.3198
12177TIP3    H136474   0.453   5.203   3.254  1.0134  1.8524  1.7070
12177TIP3    H236475   0.546   5.212   3.135 -0.2390  2.8053  0.7740
12178TIP3   OH236476   0.395   2.524   1.318  0.7354 -0.1355 -0.4016
12178TIP3    H136477   0.339   2.598   1.341 -0.0605 -0.8774  0.1619
12178TIP3    H236478   0.369   2.501   1.229  1.4432  0.6532 -0.8207
12179TIP3   OH236479   3.797   1.369   3.587  0.7789 -0.4339  0.6735
12179TIP3    H136480   3.763   1.359   3.498 -0.3828 -0.5234  1.1140
12179TIP3    H236481   3.849   1.450   3.584 -0.1113  0.1293  0.1730
12180TIP3   OH236482   0.685   4.347   0.268 -0.8817  0.3286 -0.1153
12180TIP3    H136483   0.636   4.286   0.211  0.0720 -0.5764  0.0028
12180TIP3    H236484   0.720   4.412   0.208  0.0771 -0.5942 -0.5852
12181TIP3   OH236485   3.514   6.819   5.931  0.0755  0.1541  0.4677
12181TIP3    H136486   3.494   6.764   6.007 -3.1489  0.6780  0.1380
12181TIP3    H236487   3.525   6.907   5.968  0.1357  0.1513  0.4584
12182TIP3   OH236488   7.325   4.133   2.218 -0.4259 -0.0211  0.0736
12182TIP3    H136489   7.308   4.056   2.165  0.8623 -1.4581  1.6186
12182TIP3    H236490   7.414   4.159   2.195  0.6584 -1.4318  2.2679
12183TIP3   OH236491   4.091   0.806   6.576 -0.3294  0.0900  0.1812
12183TIP3    H136492   4.140   0.850   6.646 -1.3436  2.6427 -0.5981
12183TIP3    H236493   4.158   0.761   6.525  1.3401  3.3307 -0.7714
12184TIP3   OH236494   5.959   5.521   3.419 -0.7992  0.2438  0.4053
12184TIP3    H136495   5.958   5.553   3.329 -0.9690 -1.0144 -0.0609
12184TIP3    H236496   5.880   5.556   3.458 -2.3461 -1.6347 -0.8635
12185TIP3   OH236497   1.158   7.362   2.309 -0.0768 -0.1105  0.2003
12185TIP3    H136498   1.131   7.390   2.221 -0.1782 -1.7230 -0.2973
12185TIP3    H236499   1.076   7.344   2.355  0.0151 -0.8705  0.0783
12186TIP3   OH236500   1.778   0.348   0.423  0.7436  0.4502  0.2459
12186TIP3    H136501   1.732   0.318   0.502  1.3831 -0.9229  0.1187
12186TIP3    H236502   1.784   0.271   0.368  1.9482  0.9488 -0.3488
12187TIP3   OH236503   4.045   6.884   4.536 -0.3454 -0.2793 -0.1608
12187TIP3    H136504   4.063   6.853   4.624 -0.4726 -0.5330 -0.2236
12187TIP3    H236505   3.950   6.872   4.525 -0.7285  1.7783  0.4552
12188TIP3   OH236506   6.353   5.840   1.880  0.0664 -0.3252 -0.1659
12188TIP3    H136507   6.277   5.782   1.875 -0.5545  0.5261 -1.5440
12188TIP3    H236508   6.382   5.848   1.789  1.4827 -0.2108  0.2801
12189TIP3   OH236509   8.112   2.529   6.190 -0.5402 -0.0418 -0.4608
12189TIP3    H136510   8.061   2.457   6.227 -1.7686  0.0126 -1.9090
12189TIP3    H236511   8.100   2.520   6.095  1.3063  0.6271 -0.7981
12190TIP3   OH236512   5.263   5.537   4.475 -0.0018  0.2394 -0.1728
12190TIP3    H136513   5.227   5.589   4.404  0.5250  0.5730 -0.2010
12190TIP3    H236514   5.358   5.539   4.460  0.1419  0.6413  0.7608
12191TIP3   OH236515   1.002   1.883   4.903  0.0434  0.1092  0.4293
12191TIP3    H136516   0.946   1.905   4.828  0.0987 -0.6703  0.1474
12191TIP3    H236517   1.089   1.914   4.877 -0.0500  0.3860  0.4347
12192TIP3   OH236518   5.478   6.196   5.257  0.3737  0.2843  0.0685
12192TIP3    H136519   5.431   6.267   5.302  0.4849 -0.2656  1.0790
12192TIP3    H236520   5.570   6.218   5.269  0.4006  0.6965 -0.8285
12193TIP3   OH236521   6.357   4.473   4.727  0.0921  0.3351  0.2788
12193TIP3    H136522   6.436   4.476   4.672  0.6024  0.7072  1.0126
12193TIP3    H236523   6.378   4.529   4.802 -0.2330 -0.8709  1.3086
12194TIP3   OH236524   3.654   0.667   2.994 -0.4841 -0.0195 -0.1405
12194TIP3    H136525   3.747   0.671   3.017  0.0145  1.0523 -2.1835
12194TIP3    H236526   3.648   0.601   2.925 -0.5811  2.3607 -2.5657
12195TIP3   OH236527   5.169   2.703   1.682  0.1285  0.4674 -0.5596
12195TIP3    H136528   5.180   2.795   1.706  1.7879  0.4349 -1.0465
12195TIP3    H236529   5.079   2.696   1.650 -0.9637  1.2925  2.0766
12196TIP3   OH236530   2.990   1.263   1.067  0.3461  0.6894  0.2173
12196TIP3    H136531   2.942   1.325   1.012  0.2562  0.4925  0.0758
12196TIP3    H236532   2.925   1.234   1.132  0.4003  0.7738  0.3112
12197TIP3   OH236533   6.977   3.878   4.082 -0.7044  0.3926 -0.5519
12197TIP3    H136534   7.012   3.928   4.008 -0.2176 -1.4301 -1.5972
12197TIP3    H236535   7.023   3.914   4.158 -0.4165  1.5668 -1.2421
12198TIP3   OH236536   6.832   5.299   4.655  0.1007  0.6103 -0.2655
12198TIP3    H136537   6.834   5.297   4.560 -0.6964 -0.0649 -0.2747
12198TIP3    H236538   6.906   5.245   4.682  1.8248  2.7282 -0.4632
12199TIP3   OH236539   8.263   7.554   3.265 -0.1471  0.3131  0.0466
12199TIP3    H136540   8.187   7.610   3.275  0.2801  0.5129  3.5740
12199TIP3    H236541   8.336   7.614   3.249 -0.2605  0.4152 -0.0805
12200TIP3   OH236542   1.753   7.415   3.230  0.2214  0.4054  0.1842
12200TIP3    H136543   1.758   7.452   3.142 -0.3357  1.2593  0.4994
12200TIP3    H236544   1.664   7.380   3.237  1.1100 -2.2267 -0.5564
12201TIP3   OH236545   4.795   3.354   1.665  0.1422  0.4088  0.1455
12201TIP3    H136546   4.757   3.276   1.625  1.4626  0.0579 -0.4830
12201TIP3    H236547   4.861   3.321   1.725 -0.9086  0.9900  1.6857
12202TIP3   OH236548   4.691   7.764   1.978 -0.0686 -0.1098  0.0759
12202TIP3    H136549   4.610   7.805   1.949 -0.3770 -0.9080 -0.2229
12202TIP3    H236550   4.749   7.767   1.902  0.0693  0.1694  0.1906
12203TIP3   OH236551   8.165   5.902   4.170 -0.1723  0.1213 -0.1204
12203TIP3    H136552   8.236   5.840   4.155  1.0994  1.2699  0.7962
12203TIP3    H236553   8.189   5.945   4.252 -2.1975  0.2239  0.4689
12204TIP3   OH236554   5.417   6.286   1.950 -0.0718 -0.9279  0.6224
12204TIP3    H136555   5.459   6.367   1.979  0.2598 -0.0618 -2.0015
12204TIP3    H236556   5.490   6.225   1.935 -0.1320 -0.9834  0.5516
12205TIP3   OH236557   5.222   1.814   2.078 -0.0424 -0.2727  0.3644
12205TIP3    H136558   5.232   1.889   2.136  0.5368 -0.6628  0.7738
12205TIP3    H236559   5.131   1.787   2.089  0.0414 -0.2898  1.0299
12206TIP3   OH236560   8.034   3.188   3.995  0.3515  0.0556 -0.0769
12206TIP3    H136561   8.125   3.213   4.011  0.5680 -0.6308 -0.1913
12206TIP3    H236562   7.983   3.253   4.043  0.8878  0.7452 -0.4144
12207TIP3   OH236563   7.665   0.734   6.409 -0.1833 -0.7029  0.5056
12207TIP3    H136564   7.672   0.748   6.503  0.1956 -0.7332  0.4836
12207TIP3    H236565   7.598   0.796   6.380 -0.6984 -1.0758  0.8766
12208TIP3   OH236566   1.709   5.760   6.138 -0.0998 -0.3767 -0.0086
12208TIP3    H136567   1.765   5.688   6.167  2.4964  1.0709 -1.0686
12208TIP3    H236568   1.769   5.821   6.094 -2.1691  2.3747  0.6916
12209TIP3   OH236569   0.190   4.475   1.928 -0.2777 -0.1985  0.3507
12209TIP3    H136570   0.096   4.461   1.944 -0.1540 -2.6624 -0.7516
12209TIP3    H236571   0.212   4.416   1.856  2.0304  0.7496  0.1847
12210TIP3   OH236572   1.655   0.715   0.932  0.1235  0.5580  0.7743
12210TIP3    H136573   1.747   0.721   0.958  0.1441  2.1337  0.4437
12210TIP3    H236574   1.649   0.633   0.883  0.5852 -1.3278  3.6062
12211TIP3   OH236575   0.212   3.212   6.173 -0.3425 -0.6885  0.1055
12211TIP3    H136576   0.206   3.238   6.081 -0.4610  1.5222  0.6827
12211TIP3    H236577   0.209   3.117   6.171 -0.4874 -0.6926 -2.1669
12212TIP3   OH236578   0.903   0.487   5.270  0.0239 -0.6346 -0.3421
12212TIP3    H136579   0.974   0.550   5.257 -0.1637 -0.1753  0.7868
12212TIP3    H236580   0.938   0.404   5.235  1.8040 -0.8410  1.7100
12213TIP3   OH236581   6.214   3.823   4.680 -0.5669  0.0914 -0.5064
12213TIP3    H136582   6.309   3.823   4.691 -0.4773  1.9391 -0.9505
12213TIP3    H236583   6.193   3.733   4.656  0.7839 -0.8971  1.6692
12214TIP3   OH236584   1.960   3.733   4.407  0.5597 -0.2254  0.0205
12214TIP3    H136585   1.967   3.667   4.338  1.5237 -0.4280  0.3025
12214TIP3    H236586   2.043   3.728   4.454 -0.3793 -0.6869  1.7328
12215TIP3   OH236587   7.270   6.196   1.859  0.5976  0.2946 -1.0351
12215TIP3    H136588   7.337   6.158   1.917  0.5293 -0.0653 -1.1883
12215TIP3    H236589   7.188   6.183   1.907  0.4914 -0.3604 -1.3780
12216TIP3   OH236590   1.316   0.308   1.347 -0.0520  0.3021 -0.1900
12216TIP3    H136591   1.313   0.227   1.295  1.0863  0.8053 -1.0705
12216TIP3    H236592   1.357   0.282   1.430 -0.9415 -0.2902  0.0800
12217TIP3   OH236593   4.390   6.847   3.189  0.0461 -0.0803 -0.2011
12217TIP3    H136594   4.315   6.803   3.229 -1.4891  2.9965  0.5718
12217TIP3    H236595   4.393   6.812   3.100 -3.0450  0.4845 -0.6331
12218TIP3   OH236596   0.081   7.567   6.620  0.2120 -0.1344 -0.2882
12218TIP3    H136597   0.011   7.617   6.662  1.3927  0.9387  0.4702
12218TIP3    H236598   0.045   7.543   6.534 -1.4955 -0.6215  0.5270
12219TIP3   OH236599   1.364   2.755   1.235  0.0375 -0.2202  0.3191
12219TIP3    H136600   1.375   2.712   1.149 -1.2461  0.3863 -0.1641
12219TIP3    H236601   1.450   2.794   1.252  0.2104 -0.0064 -0.8879
12220TIP3   OH236602   6.385   4.928   1.376  0.0521 -0.0507 -0.2597
12220TIP3    H136603   6.418   5.017   1.367 -0.9211  0.3747  0.1251
12220TIP3    H236604   6.309   4.937   1.434 -0.3305 -1.0636 -0.5776
12221TIP3   OH236605   2.433   1.431   2.200 -0.4920 -0.3232 -0.2758
12221TIP3    H136606   2.486   1.378   2.141 -2.1556 -0.3186 -1.8545
12221TIP3    H236607   2.421   1.515   2.155 -0.3437  0.3453  0.8666
12222TIP3   OH236608   5.180   4.345   5.606 -0.8711  0.0708  0.6272
12222TIP3    H136609   5.127   4.393   5.670 -1.3252 -0.0977  0.3847
12222TIP3    H236610   5.219   4.412   5.551 -1.5089  0.1776  0.2846
12223TIP3   OH236611   4.315   2.049   0.346 -0.8595 -0.7082 -0.1973
12223TIP3    H136612   4.316   2.039   0.251  1.0461  1.9037 -0.5751
12223TIP3    H236613   4.225   2.078   0.366 -0.8974  0.0798 -1.4102
12224TIP3   OH236614   7.950   2.691   3.856  0.9897  0.3348 -0.3316
12224TIP3    H136615   7.978   2.634   3.784  2.1655  0.2911  0.1334
12224TIP3    H236616   7.978   2.779   3.830 -0.0976  0.5831 -0.6827
12225TIP3   OH236617   3.715   1.799   4.876 -0.1384 -0.0069 -0.4211
12225TIP3    H136618   3.651   1.817   4.807 -1.6020  1.6698  1.2653
12225TIP3    H236619   3.766   1.880   4.882 -1.2282  0.5796  1.6171
12226TIP3   OH236620   0.595   3.326   6.269  0.2709  1.2196 -0.0206
12226TIP3    H136621   0.598   3.231   6.255 -1.3430  0.9893  0.8685
12226TIP3    H236622   0.610   3.336   6.363 -2.7127  1.5223  0.5215
12227TIP3   OH236623   1.376   5.382   3.146 -0.2023 -0.2059  0.0228
12227TIP3    H136624   1.364   5.437   3.224  1.9563  1.7593 -0.8919
12227TIP3    H236625   1.287   5.364   3.115 -1.0875  3.2090  0.1603
12228TIP3   OH236626   0.781   1.245   5.417 -0.0224 -0.3653  0.0807
12228TIP3    H136627   0.836   1.191   5.473  0.7154 -2.6179 -2.5998
12228TIP3    H236628   0.825   1.244   5.332 -1.7425  1.8134 -0.9480
12229TIP3   OH236629   5.326   4.157   3.795  0.6987  0.0903 -0.3801
12229TIP3    H136630   5.326   4.067   3.762 -0.7960  0.6047 -1.8999
12229TIP3    H236631   5.326   4.211   3.716  0.2488  1.4187  0.5112
12230TIP3   OH236632   3.998   2.491   5.896  0.0719  0.2274  0.6957
12230TIP3    H136633   4.065   2.447   5.948 -0.0460 -0.3741  0.3397
12230TIP3    H236634   3.987   2.576   5.939  0.5314  0.0413  1.1916
12231TIP3   OH236635   0.380   4.836   5.859 -0.9172 -0.3047 -0.3185
12231TIP3    H136636   0.389   4.751   5.815  1.7863 -0.7323  0.9154
12231TIP3    H236637   0.410   4.821   5.948 -2.0110  1.6033  0.4360
12232TIP3   OH236638   0.194   6.246   6.063 -0.1258 -0.2499 -0.4338
12232TIP3    H136639   0.101   6.224   6.065 -0.2584  0.3245  0.8093
12232TIP3    H236640   0.233   6.180   6.006 -1.1908 -0.9046 -0.4324
12233TIP3   OH236641   2.515   0.711   1.408  0.0938 -0.1470  0.3588
12233TIP3    H136642   2.560   0.796   1.407  2.4568 -1.2829  1.2240
12233TIP3    H236643   2.476   0.705   1.495 -1.5621  0.7271 -0.2956
12234TIP3   OH236644   5.376   6.978   5.464  0.3736 -0.2997  0.4808
12234TIP3    H136645   5.413   6.901   5.508 -0.6647 -1.1783 -0.1314
12234TIP3    H236646   5.433   6.993   5.389 -0.6311 -1.8730 -0.6695
12235TIP3   OH236647   6.493   1.331   2.092  0.1854  0.2034 -0.1258
12235TIP3    H136648   6.586   1.318   2.073  0.3370  0.6339  0.2930
12235TIP3    H236649   6.452   1.338   2.006  0.3961 -0.9038 -0.3270
12236TIP3   OH236650   6.623   2.980   3.773 -0.2660  0.1575 -0.1503
12236TIP3    H136651   6.652   2.951   3.860 -3.1250 -1.4350  0.3671
12236TIP3    H236652   6.688   2.943   3.713  0.5646 -0.5728  1.1496
12237TIP3   OH236653   4.359   5.326   0.218  0.3845  0.4103  0.0451
12237TIP3    H136654   4.299   5.339   0.292 -1.0584 -0.3560 -0.9581
12237TIP3    H236655   4.313   5.265   0.160  2.2696 -0.4461 -0.6171
12238TIP3   OH236656   0.296   6.193   4.775  0.3791 -0.2620  0.1079
12238TIP3    H136657   0.370   6.249   4.801 -1.3611  2.0841  0.2723
12238TIP3    H236658   0.254   6.169   4.857  0.3656 -0.7552 -0.0396
12239TIP3   OH236659   3.898   4.185   6.675  0.0682 -0.3608  0.4788
12239TIP3    H136660   3.890   4.146   6.588 -0.4922  0.3673  0.1913
12239TIP3    H236661   3.964   4.131   6.720  1.7590  0.3596 -1.0110
12240TIP3   OH236662   6.969   0.665   4.301  0.2449  0.1301  0.2851
12240TIP3    H136663   7.045   0.644   4.247 -0.2912  2.1430 -1.4191
12240TIP3    H236664   7.006   0.703   4.380  1.0346 -1.5761  0.7615
12241TIP3   OH236665   5.513   5.952   6.264  0.1304 -0.1762 -0.0148
12241TIP3    H136666   5.437   6.004   6.239  0.4058  0.2606  0.0421
12241TIP3    H236667   5.574   5.961   6.191 -0.0997 -1.0063 -0.3264
12242TIP3   OH236668   0.110   2.263   4.432  0.2029 -0.1688  0.0440
12242TIP3    H136669   0.081   2.215   4.354  0.4683 -0.5645  0.1903
12242TIP3    H236670   0.035   2.260   4.491 -0.0311  0.2059 -0.2253
12243TIP3   OH236671   7.406   5.716   3.090  0.2935 -0.0800 -0.2127
12243TIP3    H136672   7.425   5.761   3.172 -0.7780  1.2689 -0.6543
12243TIP3    H236673   7.325   5.668   3.108  0.0251  0.2654 -0.4841
12244TIP3   OH236674   6.235   1.178   1.502 -0.1212 -0.0685 -0.3497
12244TIP3    H136675   6.190   1.231   1.568  0.9066 -0.1624  0.4564
12244TIP3    H236676   6.192   1.201   1.419 -1.6412 -0.1841  0.3799
12245TIP3   OH236677   7.851   5.116   6.540  0.2361 -0.2540 -0.1191
12245TIP3    H136678   7.776   5.175   6.547  1.1798  0.8535  1.1702
12245TIP3    H236679   7.888   5.114   6.628  1.7933 -0.6735 -0.7583
12246TIP3   OH236680   5.349   6.461   4.569 -0.6571  0.4964 -0.3759
12246TIP3    H136681   5.306   6.433   4.650 -0.3436  1.5690  0.2020
12246TIP3    H236682   5.333   6.556   4.566 -1.7791  0.2704 -2.2821
12247TIP3   OH236683   1.804   1.361   5.234 -0.2461  0.0920  0.1090
12247TIP3    H136684   1.795   1.278   5.280 -0.3715  0.9204  1.6549
12247TIP3    H236685   1.721   1.372   5.187 -0.0741 -0.8154 -0.4212
12248TIP3   OH236686   7.078   6.145   3.775 -0.2781 -0.4006  0.3484
12248TIP3    H136687   7.083   6.057   3.737  1.5875 -0.4762  0.7090
12248TIP3    H236688   7.167   6.165   3.803 -1.0222  0.8287  2.0631
12249TIP3   OH236689   6.449   7.088   0.065  0.4444 -0.1369 -0.0316
12249TIP3    H136690   6.519   7.115   0.124 -0.7194 -0.1663  1.4072
12249TIP3    H236691   6.440   6.994   0.081  0.5000 -0.2599 -0.6918
12250TIP3   OH236692   7.762   2.709   2.275 -0.0685 -0.5194  0.2942
12250TIP3    H136693   7.698   2.757   2.327 -0.2367 -0.6184  0.1773
12250TIP3    H236694   7.792   2.773   2.210 -0.0504 -0.4735  0.3477
12251TIP3   OH236695   0.563   5.235   1.697  0.4122 -0.1003  0.0444
12251TIP3    H136696   0.655   5.259   1.704  0.2002  0.2918  1.9149
12251TIP3    H236697   0.535   5.269   1.612  1.5610  1.2394  0.1843
12252TIP3   OH236698   0.750   2.946   6.377  0.5370  0.0059 -0.6603
12252TIP3    H136699   0.745   2.959   6.472 -3.0476 -0.2473 -0.6929
12252TIP3    H236700   0.759   2.851   6.366  1.8732  0.1056 -0.6288
12253TIP3   OH236701   7.182   2.925   3.428  0.0656 -0.1204 -0.3056
12253TIP3    H136702   7.165   2.846   3.478  0.4217  0.4599  0.7774
12253TIP3    H236703   7.277   2.937   3.434 -0.1178  1.0601  0.6356
12254TIP3   OH236704   5.775   1.023   5.626 -0.7467  0.8627 -0.6395
12254TIP3    H136705   5.703   0.972   5.662 -1.8146  0.4050 -3.1659
12254TIP3    H236706   5.853   0.969   5.644 -1.3910  0.0606 -0.1786
12255TIP3   OH236707   4.594   7.485   3.754 -0.1357 -0.9829  0.5375
12255TIP3    H136708   4.679   7.495   3.711 -0.4546  0.7743  0.2696
12255TIP3    H236709   4.531   7.480   3.682 -0.6701  1.9345  0.7113
12256TIP3   OH236710   4.429   7.042   1.760 -0.1020  0.0132  0.1596
12256TIP3    H136711   4.476   7.124   1.774 -0.3838  0.3610 -0.8520
12256TIP3    H236712   4.475   7.000   1.687  1.0932 -1.5512  1.7300
12257TIP3   OH236713   7.753   2.627   0.310 -0.0277  0.1456 -0.2690
12257TIP3    H136714   7.701   2.558   0.270 -0.5277 -0.1281  0.8141
12257TIP3    H236715   7.721   2.708   0.270 -1.5618  0.0142  0.6350
12258TIP3   OH236716   7.293   0.284   5.802 -0.1402  0.7001  0.0808
12258TIP3    H136717   7.265   0.318   5.887  0.7940  0.6936  0.4090
12258TIP3    H236718   7.386   0.265   5.814 -0.1566  0.0538 -0.7452
12259TIP3   OH236719   3.938   3.200   0.781  0.4325 -0.3430  0.1889
12259TIP3    H136720   3.883   3.134   0.739 -0.9042 -0.2465  1.6689
12259TIP3    H236721   3.929   3.278   0.726 -1.0240 -0.3062  0.4428
12260TIP3   OH236722   2.583   7.050   4.659  0.8543 -0.0257 -0.3190
12260TIP3    H136723   2.535   6.977   4.620  1.7109 -1.0684  0.5296
12260TIP3    H236724   2.529   7.078   4.732  1.1382 -0.6956  0.1625
12261TIP3   OH236725   5.356   7.052   3.118 -0.2800 -0.3190  0.0581
12261TIP3    H136726   5.397   7.046   3.032 -1.6959  1.7557 -0.8296
12261TIP3    H236727   5.325   7.142   3.124 -0.8626 -0.6034  2.4700
12262TIP3   OH236728   7.222   6.550   3.290  0.2032  0.0616  0.1847
12262TIP3    H136729   7.179   6.513   3.213 -0.9432 -0.8332  1.2212
12262TIP3    H236730   7.152   6.561   3.353  1.1060  0.9247  1.0579
12263TIP3   OH236731   2.154   0.272   5.008  0.0097  0.3294  0.6117
12263TIP3    H136732   2.193   0.189   5.035 -1.0012 -0.5250 -0.4284
12263TIP3    H236733   2.140   0.262   4.914 -1.2856  1.1700  0.6907
12264TIP3   OH236734   0.992   3.456   5.605  0.0493  0.7030 -0.1055
12264TIP3    H136735   1.046   3.500   5.540  2.4310 -1.0336  0.5768
12264TIP3    H236736   1.040   3.465   5.687  0.2148 -2.2632  0.2367
12265TIP3   OH236737   3.751   4.401   5.370  0.3023  0.1744 -0.3308
12265TIP3    H136738   3.724   4.363   5.454  3.4033  0.4425  0.9472
12265TIP3    H236739   3.677   4.386   5.311 -1.4927 -1.1733  2.0934
12266TIP3   OH236740   1.142   3.895   0.519 -0.6593  0.1904 -0.0661
12266TIP3    H136741   1.228   3.931   0.500 -0.7623  0.6343  0.3071
12266TIP3    H236742   1.083   3.970   0.520 -1.4391 -0.3025 -2.3757
12267TIP3   OH236743   7.381   7.776   5.896  0.1912  0.0961 -0.6578
12267TIP3    H136744   7.466   7.763   5.937  1.3601 -0.3253 -3.0557
12267TIP3    H236745   7.330   7.824   5.962  2.3119  0.5127  0.7827
12268TIP3   OH236746   0.957   4.903   2.323 -0.3144  0.4689  0.8433
12268TIP3    H136747   1.050   4.924   2.330 -0.3669  0.5447  1.3671
12268TIP3    H236748   0.914   4.965   2.381 -0.4931 -0.9145  2.2766
12269TIP3   OH236749   2.485   2.307   4.152 -0.1677  0.3754  0.1668
12269TIP3    H136750   2.487   2.380   4.215  1.4256  0.4345  0.1024
12269TIP3    H236751   2.576   2.276   4.151 -0.6731 -1.1176 -0.3873
12270TIP3   OH236752   0.919   3.546   6.481 -0.3640 -0.0229  0.0268
12270TIP3    H136753   0.921   3.632   6.524  2.8091 -0.2232  0.5346
12270TIP3    H236754   0.829   3.537   6.449 -1.2305  2.7655  1.3533
12271TIP3   OH236755   8.058   3.578   6.301  0.0646  0.3501 -0.5271
12271TIP3    H136756   8.093   3.496   6.336  0.3693  0.8310  0.3268
12271TIP3    H236757   8.084   3.578   6.209 -0.2530 -0.6748 -0.6282
12272TIP3   OH236758   4.153   3.942   4.786 -0.2227  0.5943  0.1338
12272TIP3    H136759   4.216   3.933   4.715  0.1543  1.9968  0.2625
12272TIP3    H236760   4.084   3.879   4.765  1.0544 -0.7533 -0.1609
12273TIP3   OH236761   3.972   5.290   3.647  0.3767  0.1039  0.1554
12273TIP3    H136762   3.906   5.319   3.710  1.5806  1.3463  0.8898
12273TIP3    H236763   3.921   5.263   3.571 -1.0511 -0.3193  1.2096
12274TIP3   OH236764   5.379   4.216   5.782  0.1744 -0.1138  0.3918
12274TIP3    H136765   5.405   4.282   5.846 -1.5180  0.3851  0.6209
12274TIP3    H236766   5.313   4.260   5.727  1.2896 -0.6458 -1.4694
12275TIP3   OH236767   5.349   3.749   6.534 -0.3628  0.4152  0.2053
12275TIP3    H136768   5.428   3.744   6.481  0.1835  0.1503  1.0139
12275TIP3    H236769   5.331   3.658   6.559 -1.3767  0.3822 -0.6053
12276TIP3   OH236770   5.514   5.192   6.244  0.0884  1.0815  0.0823
12276TIP3    H136771   5.604   5.176   6.271 -0.9174  1.6606  4.6541
12276TIP3    H236772   5.475   5.105   6.238  0.4764  0.9130 -0.0359
12277TIP3   OH236773   2.880   7.608   5.763  0.3528 -0.1801  0.2275
12277TIP3    H136774   2.822   7.532   5.756 -0.6329  0.6858 -1.9478
12277TIP3    H236775   2.937   7.602   5.687  0.8177  0.8240  0.4804
12278TIP3   OH236776   5.030   1.117   3.811  0.1301  0.1834 -0.1498
12278TIP3    H136777   5.013   1.103   3.904 -1.3348 -0.6730 -0.5275
12278TIP3    H236778   4.974   1.192   3.787 -0.1155 -0.1125 -0.5149
12279TIP3   OH236779   2.552   5.927   5.745  0.4650  0.6154 -0.2666
12279TIP3    H136780   2.563   5.869   5.821  0.9583 -0.1636 -0.9134
12279TIP3    H236781   2.590   6.010   5.773  0.5281  0.3801  0.3825
12280TIP3   OH236782   2.209   7.763   2.626  0.4536  0.1317 -0.1757
12280TIP3    H136783   2.212   7.761   2.530  0.5687  2.5359 -0.2834
12280TIP3    H236784   2.116   7.761   2.647  0.4456 -1.9911 -0.2149
12281TIP3   OH236785   2.990   3.915   5.939  0.4665  0.1937  0.3009
12281TIP3    H136786   2.969   3.873   6.022  0.9395  0.4494  0.5553
12281TIP3    H236787   3.044   3.851   5.893 -2.0095 -1.0958 -0.9937
12282TIP3   OH236788   7.089   5.150  -0.025 -0.4441  0.2144  0.2484
12282TIP3    H136789   7.021   5.168   0.040 -0.5436  0.7305  0.0052
12282TIP3    H236790   7.154   5.220  -0.012  0.6272 -0.9067  1.2476
12283TIP3   OH236791   8.030   7.596   1.951 -0.4740 -0.1236  0.3647
12283TIP3    H136792   8.105   7.537   1.961 -0.5087 -0.1627  0.3895
12283TIP3    H236793   8.033   7.622   1.859 -0.3507 -0.0197  0.3971
12284TIP3   OH236794   7.605   1.901   0.876  0.3261  0.4449 -0.1631
12284TIP3    H136795   7.598   1.904   0.971  0.0966  0.0703 -0.1661
12284TIP3    H236796   7.574   1.813   0.852  4.7538 -1.3517 -0.2247
12285TIP3   OH236797   2.990   1.481   6.066 -0.0274  0.0750 -0.4743
12285TIP3    H136798   3.068   1.472   6.012  0.5264  0.0538  0.3032
12285TIP3    H236799   2.959   1.570   6.050 -0.9588 -0.5225 -2.2202
12286TIP3   OH236800   1.100   4.040   4.061 -0.0535  0.0158 -0.4958
12286TIP3    H136801   1.034   4.034   3.991  0.2642  0.1366 -0.8107
12286TIP3    H236802   1.123   4.133   4.064  1.6519 -0.2879 -1.8673
12287TIP3   OH236803   6.059   0.198   0.432 -0.7260  0.1306  0.1950
12287TIP3    H136804   6.030   0.282   0.395  0.3834  0.7425  0.6779
12287TIP3    H236805   6.150   0.189   0.404 -0.4784 -0.3606  1.1152
12288TIP3   OH236806   3.405   0.360   3.027 -0.4834  0.1100 -0.3797
12288TIP3    H136807   3.408   0.348   2.932  0.0342 -0.8411 -0.2553
12288TIP3    H236808   3.480   0.415   3.046 -1.0227  0.9506 -0.5902
12289TIP3   OH236809   7.262   2.778   5.144 -0.7537  0.2034  0.8170
12289TIP3    H136810   7.168   2.785   5.160 -0.7526 -0.3744  1.0953
12289TIP3    H236811   7.269   2.721   5.067 -0.5809 -1.0260  1.7256
12290TIP3   OH236812   4.531   2.152   1.280 -0.0414  0.2102 -0.7752
12290TIP3    H136813   4.608   2.125   1.231 -0.0834  0.6874 -1.1073
12290TIP3    H236814   4.463   2.164   1.214 -0.4024 -0.2099 -0.4847
12291TIP3   OH236815   7.510   6.473   5.280 -0.2100 -0.2519 -0.5186
12291TIP3    H136816   7.423   6.512   5.290  0.3250  1.1048 -1.0350
12291TIP3    H236817   7.531   6.440   5.367 -1.1927 -0.5070 -0.3649
12292TIP3   OH236818   5.227   1.267   4.724  0.3440 -0.4712 -0.3547
12292TIP3    H136819   5.242   1.353   4.685 -1.3720  0.0622  0.0597
12292TIP3    H236820   5.185   1.286   4.808  2.0053 -1.6703  0.8069
12293TIP3   OH236821   2.066   1.601   0.714  0.0153  0.2904  0.0018
12293TIP3    H136822   2.122   1.648   0.776  0.7426  1.7500 -1.6452
12293TIP3    H236823   1.982   1.646   0.719  0.0485  0.3529  0.0118
12294TIP3   OH236824   0.595   4.626   1.757  0.7771  0.0456  0.0919
12294TIP3    H136825   0.505   4.595   1.744  0.9217  0.2500 -1.6572
12294TIP3    H236826   0.592   4.676   1.838 -0.7618  0.2977 -0.0894
12295TIP3   OH236827   4.206   5.105   0.532 -0.4712  0.1266 -0.7109
12295TIP3    H136828   4.231   5.029   0.479 -0.8502 -0.2827 -0.3104
12295TIP3    H236829   4.116   5.087   0.559 -0.0724  0.0295  0.6005
12296TIP3   OH236830   4.933   6.704   6.542 -0.2059  0.5553 -0.3185
12296TIP3    H136831   4.979   6.767   6.487  1.7749 -1.6618 -1.3797
12296TIP3    H236832   4.986   6.699   6.622  2.3582 -2.7665 -1.9486
12297TIP3   OH236833   7.493   6.212   0.706 -0.5489  0.6758  0.7010
12297TIP3    H136834   7.441   6.254   0.637 -0.3374 -0.9421 -0.4958
12297TIP3    H236835   7.568   6.175   0.660  0.8719  1.6290  2.1923
12298TIP3   OH236836   2.270   5.357   2.122 -0.5866  0.1843 -0.4202
12298TIP3    H136837   2.313   5.294   2.065 -1.4282 -0.2740 -0.5487
12298TIP3    H236838   2.317   5.439   2.106  0.0699 -0.2476 -0.7455
12299TIP3   OH236839   5.230  -0.013   0.204  0.2110  0.3769  0.4204
12299TIP3    H136840   5.319  -0.007   0.240  0.6665  2.4617 -0.8747
12299TIP3    H236841   5.211   0.075   0.173 -2.0482 -0.2089 -0.0340
12300TIP3   OH236842   1.617   2.924   5.786 -0.5272 -0.3165  0.0851
12300TIP3    H136843   1.568   2.886   5.713  1.1707 -1.5727 -0.4880
12300TIP3    H236844   1.629   2.852   5.847  0.3822  0.0198  0.3176
12301TIP3   OH236845   5.576   5.612   1.440 -0.4659  0.3307 -0.0448
12301TIP3    H136846   5.665   5.636   1.415 -0.5500  0.1352 -0.5530
12301TIP3    H236847   5.541   5.690   1.483 -0.1092  0.4686 -0.0032
12302TIP3   OH236848   5.150   7.026   2.787 -0.6778 -0.4657  0.1189
12302TIP3    H136849   5.245   7.015   2.787 -0.6309 -0.3456  1.5874
12302TIP3    H236850   5.136   7.115   2.753 -0.1869 -0.1331  0.7513
12303TIP3   OH236851   5.782   4.782   0.475 -0.4666  0.5479  0.3277
12303TIP3    H136852   5.832   4.705   0.450 -0.4007  0.8202 -0.4136
12303TIP3    H236853   5.807   4.848   0.410 -1.4824  0.8047  0.1885
12304TIP3   OH236854   4.602   3.458   0.914 -0.5457  0.7844  0.2577
12304TIP3    H136855   4.523   3.409   0.891 -0.4304  0.6855  0.0743
12304TIP3    H236856   4.614   3.520   0.843  0.7571 -0.6401 -0.8418
12305TIP3   OH236857   1.017   5.473   4.631  0.3384 -0.8639 -0.4420
12305TIP3    H136858   1.003   5.511   4.718  1.1091 -0.4725 -0.4787
12305TIP3    H236859   0.929   5.465   4.594 -0.0318 -1.3887  0.5164
12306TIP3   OH236860   6.355   0.651   1.341 -0.3772 -0.3237 -0.1030
12306TIP3    H136861   6.327   0.641   1.250  0.5863 -0.2739 -0.4258
12306TIP3    H236862   6.277   0.678   1.389 -1.5245 -2.7408 -0.4502
12307TIP3   OH236863   8.262   6.186   4.128 -0.0563  0.0781  0.0179
12307TIP3    H136864   8.332   6.163   4.067 -0.6866  2.5425 -1.7972
12307TIP3    H236865   8.258   6.112   4.189  1.5269 -1.9027 -2.0949
12308TIP3   OH236866   0.899   7.304   2.407 -0.6712  0.1440 -0.2174
12308TIP3    H136867   0.872   7.303   2.499  1.9013  1.4792  0.6405
12308TIP3    H236868   0.818   7.321   2.359 -2.5546 -2.9012  1.5190
12309TIP3   OH236869   2.330   3.985   6.031  0.4156 -0.7136 -0.3752
12309TIP3    H136870   2.313   3.973   6.124 -2.2527  2.4411 -0.2640
12309TIP3    H236871   2.273   3.921   5.987 -0.6231 -0.1963  0.1846
12310TIP3   OH236872   4.553   4.409   3.907  0.2122 -0.0748 -0.1240
12310TIP3    H136873   4.492   4.377   3.840 -0.8632  1.9176 -0.1761
12310TIP3    H236874   4.500   4.468   3.961  1.5974  0.0443  1.1597
12311TIP3   OH236875   5.023   2.329   3.993  0.2541 -0.2351 -0.0629
12311TIP3    H136876   5.024   2.385   3.915  2.0613 -1.6419 -1.1279
12311TIP3    H236877   5.109   2.340   4.032  0.1102 -1.1288  0.5372
12312TIP3   OH236878   0.105   2.984   1.205 -0.0566 -0.1965 -0.4502
12312TIP3    H136879   0.046   3.059   1.208  0.3416  0.0946  1.2357
12312TIP3    H236880   0.055   2.913   1.246  0.9121  0.2122  1.5639
12313TIP3   OH236881   3.796   0.008   4.879 -0.1012 -0.1679 -0.7742
12313TIP3    H136882   3.734   0.039   4.813 -0.3135  0.2403 -0.3909
12313TIP3    H236883   3.880   0.005   4.833 -0.1743  0.4954 -0.9666
12314TIP3   OH236884   6.037   2.167   1.759  0.2352  0.4606 -0.2161
12314TIP3    H136885   5.993   2.241   1.801  0.7665 -0.1460  1.4632
12314TIP3    H236886   5.990   2.090   1.791 -0.6321  0.0327 -2.3279
12315TIP3   OH236887   6.261   6.425   5.987  0.2458  0.6354  0.3918
12315TIP3    H136888   6.345   6.471   5.985  1.0469 -0.7739  0.2517
12315TIP3    H236889   6.237   6.424   6.080  1.3902 -0.6441  0.7099
12316TIP3   OH236890   3.678   0.026   3.718  0.3329  0.4652 -0.5575
12316TIP3    H136891   3.616   0.046   3.648  0.1914  1.4165 -0.1673
12316TIP3    H236892   3.764   0.030   3.675  0.2651  1.3231 -0.6223
12317TIP3   OH236893   6.000   5.090   4.885 -0.6198 -0.7179 -0.0701
12317TIP3    H136894   5.963   5.028   4.823 -0.6480 -0.2469 -0.5333
12317TIP3    H236895   6.002   5.173   4.837  1.2411 -0.7713 -0.1433
12318TIP3   OH236896   7.235   7.304   4.672 -0.1533  0.1341  0.1392
12318TIP3    H136897   7.214   7.312   4.579 -0.3554 -0.9005  0.0801
12318TIP3    H236898   7.305   7.368   4.686 -1.4321  1.6864 -0.2699
12319TIP3   OH236899   2.065   3.492   2.755 -0.1530 -0.2584 -0.0501
12319TIP3    H136900   1.975   3.475   2.784 -0.2545  0.4575  0.0606
12319TIP3    H236901   2.100   3.554   2.819  0.8779 -1.5517  0.6886
12320TIP3   OH236902   0.155   2.802   0.006  0.0043  0.3628  0.2698
12320TIP3    H136903   0.236   2.843   0.036 -2.0703  3.3510  2.2388
12320TIP3    H236904   0.106   2.784   0.086 -1.7280 -0.4849 -0.9184
12321TIP3   OH236905   5.115   5.165   3.799 -0.1947  0.0761  0.0136
12321TIP3    H136906   5.057   5.238   3.777 -1.5952 -0.6578  1.0574
12321TIP3    H236907   5.170   5.198   3.870 -1.7379 -0.2310  1.4116
12322TIP3   OH236908   8.133   1.463   1.620 -0.5689  0.1250  0.5890
12322TIP3    H136909   8.075   1.522   1.669  0.3836  2.8413 -1.3108
12322TIP3    H236910   8.084   1.441   1.541  0.2098  0.9345 -0.1504
12323TIP3   OH236911   1.846   3.124   3.594  0.1900  0.4793 -0.0592
12323TIP3    H136912   1.771   3.176   3.622 -0.1055 -0.0889  0.2337
12323TIP3    H236913   1.921   3.163   3.639 -0.0075  0.7454  0.0365
12324TIP3   OH236914   3.451   3.670   0.867  0.4328  0.3686 -0.9166
12324TIP3    H136915   3.432   3.746   0.811  1.6424  0.4300 -1.2867
12324TIP3    H236916   3.506   3.705   0.937  0.8740 -0.1266 -1.0083
12325TIP3   OH236917   8.123   5.197   3.535  0.4005 -0.0787 -0.0722
12325TIP3    H136918   8.102   5.269   3.476  0.8459  0.4479  0.3910
12325TIP3    H236919   8.038   5.156   3.555  0.1154  0.4575 -0.1678
12326TIP3   OH236920   1.915   5.597   0.345  0.3700 -0.1803  0.3296
12326TIP3    H136921   1.963   5.528   0.298 -0.9101 -0.1808 -1.0417
12326TIP3    H236922   1.984   5.652   0.383  1.4279 -1.9256  1.0847
12327TIP3   OH236923   0.723   6.786   4.611  0.2790  0.1308  0.2624
12327TIP3    H136924   0.651   6.849   4.607  0.4990  0.4500  1.1353
12327TIP3    H236925   0.713   6.743   4.697  1.6977  0.8822  0.8440
12328TIP3   OH236926   2.828   3.452   1.419 -0.2012  0.4066 -0.2228
12328TIP3    H136927   2.877   3.511   1.361  1.6641  0.9712  1.7822
12328TIP3    H236928   2.847   3.364   1.387  0.5916  0.7131 -0.6019
12329TIP3   OH236929   3.415   4.344   6.567 -0.3532 -0.1634 -0.1870
12329TIP3    H136930   3.430   4.363   6.659  2.0211  1.9563 -0.9074
12329TIP3    H236931   3.364   4.418   6.534  0.7841  0.2827 -1.0236
12330TIP3   OH236932   3.085   6.010   2.657  0.5784  0.1320 -0.1697
12330TIP3    H136933   3.149   5.938   2.655 -0.5098 -1.0840  2.9502
12330TIP3    H236934   3.005   5.971   2.623 -0.0306 -0.2534  1.5868
12331TIP3   OH236935   7.926   0.962   4.922  0.5865 -0.6738  0.3053
12331TIP3    H136936   7.946   0.951   5.015 -0.4782 -1.7802  0.4391
12331TIP3    H236937   7.933   0.874   4.885 -0.9750 -0.6160 -0.2173
12332TIP3   OH236938   7.154   1.632   6.537  0.4534  0.1725 -0.3396
12332TIP3    H136939   7.199   1.676   6.465 -2.2756 -0.0711 -2.3435
12332TIP3    H236940   7.174   1.539   6.525  0.6782  0.2096 -0.2584
12333TIP3   OH236941   1.862   1.210   4.128  0.1295  0.1549 -0.2358
12333TIP3    H136942   1.930   1.220   4.061  0.4362 -0.5279 -0.0356
12333TIP3    H236943   1.862   1.117   4.148 -0.9798  0.1270 -0.3401
12334TIP3   OH236944   0.438   0.019   3.973 -0.2584 -0.2571 -0.0380
12334TIP3    H136945   0.350   0.036   4.005 -0.3831  0.0860 -0.5421
12334TIP3    H236946   0.472   0.105   3.949  0.7141 -0.2158  1.3908
12335TIP3   OH236947   5.055   4.897   3.836 -1.3917  0.2629  0.1846
12335TIP3    H136948   4.973   4.868   3.797 -0.2587  0.3684 -2.4656
12335TIP3    H236949   5.061   4.990   3.813 -0.4539  0.2132  0.1913
12336TIP3   OH236950   7.283   4.817   6.155 -0.0898 -0.1936  0.0096
12336TIP3    H136951   7.348   4.887   6.145  0.1987 -0.3180  0.9108
12336TIP3    H236952   7.326   4.753   6.212  0.7589 -2.4445 -2.8801
12337TIP3   OH236953   5.095   4.613   5.584  0.9367  0.2511  0.2223
12337TIP3    H136954   5.154   4.649   5.517 -1.6840  1.3170 -1.6787
12337TIP3    H236955   5.031   4.682   5.600 -1.0845 -1.5864  0.5540
12338TIP3   OH236956   6.583   2.183   0.375  0.3482 -0.2151  0.0880
12338TIP3    H136957   6.655   2.220   0.324  0.5987  0.3998  0.8652
12338TIP3    H236958   6.507   2.190   0.317  0.4426  1.3110  0.0999
12339TIP3   OH236959   6.095   7.205   4.190  0.5299 -0.2777 -0.5013
12339TIP3    H136960   6.008   7.202   4.151 -0.8600  1.5622  2.1797
12339TIP3    H236961   6.154   7.211   4.115 -1.7967  0.7735 -2.3905
12340TIP3   OH236962   1.501   6.278   6.360  0.2410 -0.1072  0.3488
12340TIP3    H136963   1.539   6.324   6.286 -1.1452 -0.7903 -0.8429
12340TIP3    H236964   1.533   6.188   6.351  0.4935 -0.0776  0.9012
12341TIP3   OH236965   2.553   0.771   1.940 -0.3822 -0.5098  0.0455
12341TIP3    H136966   2.602   0.699   1.901 -0.2805 -0.4517  0.0643
12341TIP3    H236967   2.555   0.754   2.034  1.6896  0.7469  0.3094
12342TIP3   OH236968   3.634   1.711   3.609  0.0589  0.1261 -0.3682
12342TIP3    H136969   3.595   1.631   3.575 -1.7749  0.7772  0.1142
12342TIP3    H236970   3.620   1.776   3.540 -2.0153  0.9797  0.7614
12343TIP3   OH236971   3.756   1.600   3.073  0.3056 -0.3264  1.0457
12343TIP3    H136972   3.750   1.686   3.114  1.5529 -0.0393  0.6812
12343TIP3    H236973   3.848   1.575   3.084  0.3635 -0.8316 -0.3630
12344TIP3   OH236974   0.980   1.149   5.599  0.0697 -0.8717 -0.6554
12344TIP3    H136975   1.071   1.125   5.582  0.1325 -1.1120 -0.0248
12344TIP3    H236976   0.945   1.076   5.650 -0.1836 -0.3343 -0.0372
12345TIP3   OH236977   2.728   6.147   3.533  0.3270 -0.2284 -0.2382
12345TIP3    H136978   2.723   6.243   3.535  1.1918 -0.1731 -0.2667
12345TIP3    H236979   2.662   6.121   3.468 -0.5869  0.2848  0.4622
12346TIP3   OH236980   5.145   7.554   2.988 -0.0310 -0.0413 -0.1331
12346TIP3    H136981   5.192   7.518   2.913  2.4239  2.4525  0.0520
12346TIP3    H236982   5.136   7.647   2.968 -1.2798  0.2982  1.7309
12347TIP3   OH236983   8.279   0.541   1.052  0.9549  0.4293  0.0853
12347TIP3    H136984   8.322   0.591   0.982 -0.6456  0.8058 -0.6740
12347TIP3    H236985   8.274   0.452   1.018  0.4854  0.5414 -0.1505
12348TIP3   OH236986   6.054   4.517   1.816 -0.6779 -0.1377  0.1442
12348TIP3    H136987   5.997   4.449   1.780  1.0273 -1.6293  0.1310
12348TIP3    H236988   6.067   4.492   1.907 -1.4584  1.2109  0.6660
12349TIP3   OH236989   2.900   0.906   3.768 -0.3646  0.2228  0.3883
12349TIP3    H136990   2.972   0.843   3.777  1.4300  2.2548  1.1842
12349TIP3    H236991   2.865   0.891   3.680 -0.2417 -2.0757  0.6833
12350TIP3   OH236992   4.415   3.680   6.508 -0.1270  0.7164  0.4441
12350TIP3    H136993   4.339   3.681   6.449  0.2216  0.0141 -0.0283
12350TIP3    H236994   4.457   3.765   6.494  1.1657 -0.2167 -1.9715
12351TIP3   OH236995   4.003   1.647   5.494 -0.1356 -0.1869  0.0711
12351TIP3    H136996   3.985   1.740   5.482 -0.3455 -0.2830 -0.3931
12351TIP3    H236997   3.946   1.603   5.431  1.9713 -0.4858 -1.7644
12352TIP3   OH236998   2.706   6.165   6.302 -0.4832  0.2213  0.1957
12352TIP3    H136999   2.707   6.142   6.209  2.7061 -0.4462  0.2782
12352TIP3    H237000   2.622   6.208   6.315 -1.4674 -0.5754 -2.7546
12353TIP3   OH237001   4.306   1.379   6.253 -0.4453 -0.2423 -0.5691
12353TIP3    H137002   4.234   1.437   6.228 -0.8014 -0.5367 -0.2275
12353TIP3    H237003   4.355   1.429   6.318 -1.4340 -0.7662  0.6244
12354TIP3   OH237004   2.327   1.490   0.647  0.6609 -0.5319 -0.6019
12354TIP3    H137005   2.237   1.502   0.676  0.9477  1.2624 -0.2851
12354TIP3    H237006   2.373   1.454   0.723  0.5228  0.0784 -0.2212
12355TIP3   OH237007   2.419   1.207   3.484  0.5830 -0.0701 -0.0780
12355TIP3    H137008   2.325   1.204   3.499  0.8139  0.9670  1.9075
12355TIP3    H237009   2.443   1.299   3.497  1.7305 -0.1196 -1.5953
12356TIP3   OH237010   6.392   3.409   5.035 -0.3665  0.1223  0.2925
12356TIP3    H137011   6.460   3.454   5.084  0.0808 -1.1755  0.8841
12356TIP3    H237012   6.429   3.396   4.948 -0.2262  0.2722  0.3308
12357TIP3   OH237013   1.188   3.662   1.305 -0.2070  0.3638  0.3313
12357TIP3    H137014   1.109   3.608   1.309 -0.0009 -0.0090 -0.4920
12357TIP3    H237015   1.260   3.600   1.316  0.0273  0.4655 -0.5487
12358TIP3   OH237016   6.168   0.115   3.912 -0.0856 -0.0015  0.0738
12358TIP3    H137017   6.231   0.112   3.839  0.4459  0.0135  0.5244
12358TIP3    H237018   6.133   0.204   3.910 -0.5258 -0.1786 -0.5324
12359TIP3   OH237019   3.394   1.561   6.108  0.1685 -0.0324 -0.0168
12359TIP3    H137020   3.457   1.490   6.119  0.2583  0.4339  4.5773
12359TIP3    H237021   3.433   1.635   6.155 -1.9978  1.6095 -0.6228
12360TIP3   OH237022   0.430   4.752   4.693  0.4180  0.0353  0.0197
12360TIP3    H137023   0.421   4.709   4.779  0.6178  1.5231  0.8144
12360TIP3    H237024   0.340   4.759   4.661  0.3261 -0.3854  0.1686
12361TIP3   OH237025   4.300   1.083   5.142 -0.1332 -0.0856  0.1830
12361TIP3    H137026   4.357   1.008   5.159  0.3355 -0.3620 -2.2455
12361TIP3    H237027   4.286   1.081   5.048 -3.3147  0.6057  0.5229
12362TIP3   OH237028   3.494   7.645   3.122 -0.3279  0.1682  0.3253
12362TIP3    H137029   3.474   7.739   3.123  0.2504  0.2910  0.4781
12362TIP3    H237030   3.451   7.610   3.200  1.9935  0.8459  1.9972
12363TIP3   OH237031   4.756   7.308   1.880 -0.2229 -0.2553 -0.0938
12363TIP3    H137032   4.662   7.295   1.863 -0.4329 -1.2703  1.5710
12363TIP3    H237033   4.762   7.309   1.976  1.0054  3.6170 -0.0485
12364TIP3   OH237034   3.074   7.547   1.741 -0.0591  0.2455  0.0761
12364TIP3    H137035   3.035   7.460   1.752  0.8441 -0.1527  0.2502
12364TIP3    H237036   3.119   7.564   1.824 -1.9810  1.8289  0.8802
12365TIP3   OH237037   2.707   7.753   0.393 -0.5822  0.1158  0.6928
12365TIP3    H137038   2.662   7.778   0.474  2.2093 -0.4732  2.6060
12365TIP3    H237039   2.741   7.835   0.358 -0.7815  0.2439  0.7986
12366TIP3   OH237040   2.629   5.069   2.927 -0.3057 -1.0419  0.9204
12366TIP3    H137041   2.701   5.103   2.874 -1.1856 -1.9885 -0.9780
12366TIP3    H237042   2.583   5.147   2.957 -0.7033 -0.4546 -1.0853
12367TIP3   OH237043   7.206   6.740   1.272 -0.5715  0.1655  0.1007
12367TIP3    H137044   7.198   6.802   1.345 -1.9886 -1.2847  1.2580
12367TIP3    H237045   7.249   6.663   1.310  0.6666  0.1888 -1.1739
12368TIP3   OH237046   3.568   4.271   6.346 -0.2669 -0.5377  0.2512
12368TIP3    H137047   3.503   4.332   6.381  0.5132  0.7898 -0.5510
12368TIP3    H237048   3.571   4.201   6.411 -1.6222 -0.0426  0.9063
12369TIP3   OH237049   1.370   6.613   5.750  0.0841  0.3773 -0.4582
12369TIP3    H137050   1.377   6.697   5.705 -2.9194 -0.0225 -1.9324
12369TIP3    H237051   1.455   6.570   5.735  1.1974  2.5576 -0.8048
12370TIP3   OH237052   2.456   1.786   3.527  0.9239 -0.6304 -0.5756
12370TIP3    H137053   2.541   1.801   3.567 -0.0682 -0.3715  1.5752
12370TIP3    H237054   2.455   1.845   3.451  1.7361  1.2612  0.7927
12371TIP3   OH237055   0.441   1.417   6.098 -0.6564 -0.1473 -0.1640
12371TIP3    H137056   0.505   1.486   6.114  0.1996 -0.3195 -2.5534
12371TIP3    H237057   0.371   1.460   6.048  0.2893 -1.0940 -2.4351
12372TIP3   OH237058   6.316   0.371   2.915 -0.2418  0.3634 -0.0421
12372TIP3    H137059   6.384   0.408   2.972 -0.3190  0.8229 -0.2431
12372TIP3    H237060   6.307   0.435   2.845 -0.3422 -0.0685 -0.4252
12373TIP3   OH237061   4.359   1.037   1.308 -0.1260  0.3831  0.0172
12373TIP3    H137062   4.318   1.035   1.222  2.3824 -2.6917 -1.2972
12373TIP3    H237063   4.423   1.109   1.302  1.1595 -0.8129 -1.3696
12374TIP3   OH237064   4.821   5.647   1.035 -0.1663  0.5265  0.2583
12374TIP3    H137065   4.819   5.570   0.978 -1.0524  1.0596 -0.4533
12374TIP3    H237066   4.903   5.638   1.084 -0.0169 -0.6058 -0.1711
12375TIP3   OH237067   3.819   0.124   3.934 -0.4817 -0.4347 -0.3989
12375TIP3    H137068   3.788   0.069   3.862 -0.3192 -1.1844  0.0947
12375TIP3    H237069   3.743   0.132   3.993 -0.6272  0.2091 -0.6586
12376TIP3   OH237070   1.687   7.129   5.565  0.5021 -0.2013  0.5312
12376TIP3    H137071   1.734   7.159   5.487 -0.8545  0.9061  0.0907
12376TIP3    H237072   1.597   7.116   5.536  0.5283 -2.5566  1.2788
12377TIP3   OH237073   6.370   2.730   6.117  0.4063  0.6571 -0.0854
12377TIP3    H137074   6.311   2.804   6.132 -0.4710 -0.1653  0.6770
12377TIP3    H237075   6.419   2.753   6.039 -0.7755  1.4683 -0.6091
12378TIP3   OH237076   2.264   4.844   6.101 -0.1431  0.1847  0.0485
12378TIP3    H137077   2.292   4.869   6.188 -1.1607 -1.7010  0.9889
12378TIP3    H237078   2.190   4.901   6.082 -1.4538 -0.9377  1.4920
12379TIP3   OH237079   0.018   1.575   6.466  0.6580 -0.1522  0.4608
12379TIP3    H137080   0.065   1.651   6.432 -0.7172 -0.2741 -2.0205
12379TIP3    H237081  -0.074   1.592   6.444  0.3123 -2.5168 -0.2397
12380TIP3   OH237082   4.607   5.438   2.017 -0.3295  0.2326  0.0000
12380TIP3    H137083   4.660   5.376   1.967 -0.4562 -0.6534  0.9050
12380TIP3    H237084   4.650   5.522   2.005  0.3985 -0.1962 -0.5121
12381TIP3   OH237085   4.761   6.089   0.169  0.1523 -0.1268 -0.8472
12381TIP3    H137086   4.667   6.099   0.177  0.3099  0.1378  1.1368
12381TIP3    H237087   4.776   6.072   0.076 -1.9535 -1.4614 -0.9959
12382TIP3   OH237088   4.843   1.201   1.707  0.0974 -0.0787  0.0591
12382TIP3    H137089   4.797   1.117   1.705 -1.4561  0.7276 -2.3223
12382TIP3    H237090   4.924   1.185   1.660 -1.4847  0.2997 -3.0629
12383TIP3   OH237091   0.213   7.157   1.771 -0.3061  0.5372 -0.1782
12383TIP3    H137092   0.157   7.080   1.757 -0.9694  0.9698  0.0657
12383TIP3    H237093   0.195   7.183   1.862  0.2085  0.7528 -0.1355
12384TIP3   OH237094   3.421   2.075   4.607 -0.2717 -0.0485  0.1492
12384TIP3    H137095   3.492   2.011   4.614  1.3235  1.4120 -1.4731
12384TIP3    H237096   3.437   2.137   4.679  0.7040  0.7705 -0.7312
12385TIP3   OH237097   6.198   3.248   3.624  0.3982 -0.2747  0.1302
12385TIP3    H137098   6.195   3.192   3.702 -0.0668 -0.0706  0.2646
12385TIP3    H237099   6.286   3.285   3.624  0.3131 -0.0637  0.7098
12386TIP3   OH237100   3.655   3.896   1.024 -0.0461  0.3485  0.6836
12386TIP3    H137101   3.682   3.950   0.950  0.8043  0.7979  1.3065
12386TIP3    H237102   3.720   3.825   1.027 -0.7363 -0.3173  0.3127
12387TIP3   OH237103   2.598   0.360   6.535 -0.0317 -0.3689 -0.1855
12387TIP3    H137104   2.514   0.341   6.578 -0.0260  0.7171  0.3482
12387TIP3    H237105   2.625   0.276   6.498 -0.3886 -1.2070  1.3512
12388TIP3   OH237106   1.584   4.140   3.949  0.6240 -0.0413  0.0249
12388TIP3    H137107   1.543   4.058   3.923 -0.3533  0.1772  0.8263
12388TIP3    H237108   1.512   4.203   3.952  1.2692  0.7076 -0.0148
12389TIP3   OH237109   3.482   1.666   4.392 -0.2599  0.2709 -0.4164
12389TIP3    H137110   3.541   1.595   4.418  0.1268  0.7804  0.1243
12389TIP3    H237111   3.415   1.623   4.338 -0.0508 -0.5074 -0.0743
12390TIP3   OH237112   1.775   5.016   4.632  0.9489  0.4137 -0.7631
12390TIP3    H137113   1.789   5.070   4.710  2.8332  1.1625 -1.5596
12390TIP3    H237114   1.841   5.046   4.570  0.3561 -1.0767 -2.1855
12391TIP3   OH237115   4.232  -0.011   4.336 -0.6189 -0.4391 -0.4639
12391TIP3    H137116   4.200   0.001   4.247 -2.0004 -0.4823 -0.0075
12391TIP3    H237117   4.224   0.075   4.377 -0.8177 -0.6020 -0.1460
12392TIP3   OH237118   6.816   7.832  -0.012 -0.0897 -0.2327 -0.0019
12392TIP3    H137119   6.731   7.791   0.006 -0.1366  0.3693  1.2368
12392TIP3    H237120   6.871   7.806   0.061  0.0604  1.3861  0.4968
12393TIP3   OH237121   4.459   5.930   6.180 -0.5153 -0.6428  0.5621
12393TIP3    H137122   4.552   5.935   6.160 -0.1746 -0.2722  2.1353
12393TIP3    H237123   4.436   5.837   6.171 -0.8109 -0.3741 -3.0572
12394TIP3   OH237124   3.437   7.080   1.821  0.4501 -0.1090  0.9156
12394TIP3    H137125   3.506   7.064   1.756  2.0774  1.0763  2.2962
12394TIP3    H237126   3.479   7.066   1.905 -1.6322 -1.6275  1.8011
12395TIP3   OH237127   5.935   2.268   2.738 -0.6393 -0.1389  0.4449
12395TIP3    H137128   5.985   2.256   2.658 -1.3185  0.8259 -0.1474
12395TIP3    H237129   5.911   2.179   2.765  0.9672 -0.5756  0.4878
12396TIP3   OH237130   2.119   0.114   3.122 -0.1559  0.3270 -0.3639
12396TIP3    H137131   2.139   0.205   3.099  0.9324  0.1232 -0.2386
12396TIP3    H237132   2.144   0.107   3.214  1.7263 -0.6517 -0.9117
12397TIP3   OH237133   7.104   1.735   2.532  0.3740  0.0516  0.3221
12397TIP3    H137134   7.198   1.744   2.516  0.5662 -0.7272  0.9605
12397TIP3    H237135   7.073   1.825   2.541  1.0506  0.3163  0.0630
12398TIP3   OH237136   6.157   5.598   1.279  0.4610 -0.3788 -0.3052
12398TIP3    H137137   6.192   5.524   1.230  3.5215  0.2010  0.8182
12398TIP3    H237138   6.124   5.559   1.360  1.5462 -0.6125  0.0378
12399TIP3   OH237139   3.651   6.241   2.078  0.3711  0.3472  0.3055
12399TIP3    H137140   3.671   6.262   1.987  0.5596 -1.4562 -0.0995
12399TIP3    H237141   3.737   6.236   2.121  0.3706 -0.1951  0.2490
12400TIP3   OH237142   1.729   7.312   6.035 -0.0247 -0.3243  1.1329
12400TIP3    H137143   1.667   7.241   6.018  0.4784 -0.6124  0.4344
12400TIP3    H237144   1.808   7.267   6.066  0.5434 -0.1456 -0.0045
12401TIP3   OH237145   1.177   0.437   5.414  0.4808  0.1055 -0.2688
12401TIP3    H137146   1.246   0.483   5.366  0.2825  0.5393 -0.1412
12401TIP3    H237147   1.102   0.496   5.411 -0.3244 -0.8993 -1.5381
12402TIP3   OH237148   1.408   3.825   0.743 -0.3493  0.4046  0.4748
12402TIP3    H137149   1.340   3.847   0.806  0.5319  1.0369  1.2405
12402TIP3    H237150   1.473   3.895   0.752  0.4436 -0.2194 -0.1682
12403TIP3   OH237151   4.392   6.354   1.828  0.1589  0.0288  0.2585
12403TIP3    H137152   4.389   6.370   1.734  0.3751  0.4499  0.3229
12403TIP3    H237153   4.320   6.406   1.864  0.2733  0.1177  0.3604
12404TIP3   OH237154   0.826   4.244   2.841  0.0075 -0.7593  0.1947
12404TIP3    H137155   0.804   4.168   2.894 -2.1725  0.7446  1.5753
12404TIP3    H237156   0.796   4.319   2.891 -0.7613  0.8579 -2.4527
12405TIP3   OH237157   3.116   3.132   2.069  0.4931 -0.4090 -0.2984
12405TIP3    H137158   3.143   3.060   2.012 -0.7789 -2.7068  1.7710
12405TIP3    H237159   3.024   3.113   2.088  0.6974  0.5776  1.9841
12406TIP3   OH237160   0.298   7.150   0.529  0.8938 -0.5341  0.1740
12406TIP3    H137161   0.383   7.194   0.521  0.9273 -0.9495 -3.2513
12406TIP3    H237162   0.237   7.206   0.481  0.3263 -2.6221 -1.6823
12407TIP3   OH237163   4.200   3.589   6.748  0.0924 -0.0932 -0.6442
12407TIP3    H137164   4.187   3.520   6.813  0.9528 -0.7604 -1.1618
12407TIP3    H237165   4.294   3.586   6.728  0.0402  0.8592 -1.0831
12408TIP3   OH237166   4.233   1.779   3.778 -0.4429  0.4364  0.2036
12408TIP3    H137167   4.294   1.828   3.833 -2.4596  1.4228  1.6852
12408TIP3    H237168   4.179   1.846   3.736 -1.4502 -0.4331  0.0632
12409TIP3   OH237169   1.191   0.205   4.325 -0.0731  0.4917  0.1689
12409TIP3    H137170   1.153   0.182   4.410 -0.1659 -0.7429 -0.1927
12409TIP3    H237171   1.245   0.282   4.343 -2.0097  1.7516  0.8694
12410TIP3   OH237172   3.192   1.732   1.918  0.1187  0.2433  0.4571
12410TIP3    H137173   3.204   1.822   1.950  0.2884  0.1888  0.5491
12410TIP3    H237174   3.173   1.741   1.825  2.1699  0.2675  0.0019
12411TIP3   OH237175   6.495   4.127   3.634 -0.1485 -0.1025 -0.5152
12411TIP3    H137176   6.506   4.220   3.616  1.1166 -0.3415 -1.0804
12411TIP3    H237177   6.581   4.088   3.615 -0.7282 -1.4202 -0.5702
12412TIP3   OH237178   4.025   1.327   2.007 -0.5161  0.3505 -0.1945
12412TIP3    H137179   4.110   1.369   2.004 -1.6260  2.6981 -0.4608
12412TIP3    H237180   4.042   1.241   2.046  1.9154  0.8429 -0.0625
12413TIP3   OH237181   1.016   0.289   3.374  0.1850  0.7609  0.3214
12413TIP3    H137182   1.070   0.255   3.303 -1.0027  1.0892 -0.7836
12413TIP3    H237183   1.043   0.380   3.383  2.3313  0.0104  2.2789
12414TIP3   OH237184   6.729   3.961   0.286  0.0223  0.1249 -0.0610
12414TIP3    H137185   6.804   3.903   0.274  0.1188  0.2181  0.0958
12414TIP3    H237186   6.656   3.914   0.247  0.6558  1.1942 -2.8045
12415TIP3   OH237187   4.799   6.105   4.082 -0.3601  0.0614  0.3414
12415TIP3    H137188   4.775   6.168   4.014  0.7918 -0.0158 -0.1796
12415TIP3    H237189   4.801   6.156   4.163  1.2401  0.9033 -0.1722
12416TIP3   OH237190   5.049   0.754   4.944 -0.0459 -0.3885  0.2987
12416TIP3    H137191   5.142   0.741   4.961  0.3306  0.9988 -0.4900
12416TIP3    H237192   5.005   0.683   4.991  1.4850 -1.9853 -0.5655
12417TIP3   OH237193   1.138   2.196   0.832  0.1592  0.1332 -0.3769
12417TIP3    H137194   1.061   2.179   0.887  0.2440 -1.5933 -0.7257
12417TIP3    H237195   1.109   2.264   0.771 -0.4672  0.8620  0.7094
12418TIP3   OH237196   7.216   4.558   0.140  0.6181  0.0648 -0.0903
12418TIP3    H137197   7.244   4.537   0.051  0.7849 -1.6926  0.3308
12418TIP3    H237198   7.290   4.532   0.195 -0.3858 -1.2012  0.7358
12419TIP3   OH237199   1.090   1.330   1.164 -0.0593  0.2228 -0.2596
12419TIP3    H137200   1.007   1.365   1.134 -0.4115  0.3241  0.8191
12419TIP3    H237201   1.071   1.288   1.248  0.9312  0.0681 -0.0911
12420TIP3   OH237202   6.570   0.085   0.668 -0.2377  0.2872 -0.0757
12420TIP3    H137203   6.656   0.115   0.639 -0.1206  0.4250  0.3977
12420TIP3    H237204   6.508   0.122   0.605  0.1522 -0.8748 -1.1836
12421TIP3   OH237205   8.069   3.377   1.440 -0.3460  0.2457  0.2587
12421TIP3    H137206   8.041   3.286   1.424 -0.9468  0.5690 -0.6195
12421TIP3    H237207   7.995   3.430   1.410  0.1156  1.0373  0.5032
12422TIP3   OH237208   4.033   1.547   0.499  0.0268 -0.1116  0.1714
12422TIP3    H137209   4.096   1.492   0.453  1.9918  1.1928  1.1418
12422TIP3    H237210   4.062   1.547   0.590  1.4574  4.0268 -0.0581
12423TIP3   OH237211   3.793   4.981   3.047 -0.3922  0.5217 -0.1691
12423TIP3    H137212   3.889   4.977   3.039 -0.4576  2.4980 -3.3192
12423TIP3    H237213   3.762   4.911   2.990 -0.8509  0.3035  0.3447
12424TIP3   OH237214   6.825   6.614   2.004  0.0081  0.1119 -0.1381
12424TIP3    H137215   6.890   6.580   1.941 -0.3829 -2.3544  0.6939
12424TIP3    H237216   6.862   6.697   2.033  1.8156 -0.2552 -1.2038
12425TIP3   OH237217   3.006   5.476   3.515 -0.0237 -0.4170  0.7412
12425TIP3    H137218   2.959   5.400   3.550 -0.5198 -0.9352 -0.9437
12425TIP3    H237219   2.955   5.551   3.546 -0.8780 -0.8888  0.5312
12426TIP3   OH237220   2.580   1.702   2.399  0.1706 -0.1198  0.1511
12426TIP3    H137221   2.544   1.707   2.310  0.2972  1.3765  0.1630
12426TIP3    H237222   2.667   1.740   2.392 -0.4438  1.5797  1.2175
12427TIP3   OH237223   3.535   1.284   1.378 -0.1159 -0.5374  0.8413
12427TIP3    H137224   3.544   1.219   1.448  0.1213 -0.8865  0.4941
12427TIP3    H237225   3.537   1.368   1.424  2.6504 -0.6277  1.0848
12428TIP3   OH237226   1.109   1.154   5.920  0.6311 -0.3230  0.0186
12428TIP3    H137227   1.159   1.107   5.853  0.0237  1.8658 -2.0709
12428TIP3    H237228   1.049   1.088   5.955 -0.6947 -1.0580 -3.3105
12429TIP3   OH237229   3.619   6.561   1.232 -0.3246 -0.8619  0.0612
12429TIP3    H137230   3.589   6.546   1.322 -0.1683 -0.4369  0.1868
12429TIP3    H237231   3.714   6.559   1.238 -0.1381  2.6364  0.5841
12430TIP3   OH237232   0.635   0.538   1.965  0.3349 -0.0827  0.6336
12430TIP3    H137233   0.677   0.578   1.888 -1.1943  0.0417 -0.1751
12430TIP3    H237234   0.625   0.446   1.940 -0.1726 -0.0401  0.6875
12431TIP3   OH237235   7.954   6.620   2.357 -0.1501  0.3296  0.2962
12431TIP3    H137236   7.956   6.526   2.378  0.3845  0.6095  1.6039
12431TIP3    H237237   8.026   6.657   2.407 -0.2823  1.4337 -0.3065
12432TIP3   OH237238   4.426   2.426   3.589 -0.0870  0.1566  0.0815
12432TIP3    H137239   4.445   2.476   3.668  0.5555  1.4053 -0.8263
12432TIP3    H237240   4.351   2.471   3.549 -0.7593 -0.7916  0.2435
12433TIP3   OH237241   7.972   2.203   2.362  0.4155 -0.3300 -0.2155
12433TIP3    H137242   7.957   2.145   2.287  0.2829 -0.3875 -0.1436
12433TIP3    H237243   7.923   2.282   2.341  0.2621 -0.4009 -0.1226
12434TIP3   OH237244   2.976   1.234   2.561 -0.1153 -0.6536 -0.1206
12434TIP3    H137245   2.956   1.309   2.506 -1.5158 -0.4711  0.5912
12434TIP3    H237246   2.906   1.232   2.625  0.5529 -1.8714  0.6123
12435TIP3   OH237247   3.382   3.589   5.738  0.1794 -0.2893 -0.1660
12435TIP3    H137248   3.384   3.495   5.756 -1.7474 -0.7242 -1.8002
12435TIP3    H237249   3.413   3.595   5.647  1.5128  0.8448  0.3262
12436TIP3   OH237250   3.288   0.773   5.213  0.0398 -0.1511 -0.6618
12436TIP3    H137251   3.341   0.845   5.248  0.4501 -0.8457  0.2045
12436TIP3    H237252   3.346   0.727   5.153  0.5435 -1.0357  0.4432
12437TIP3   OH237253   3.347   5.255   2.847 -0.1002  0.5192  0.4947
12437TIP3    H137254   3.325   5.335   2.895 -2.2737 -0.0411  0.5614
12437TIP3    H237255   3.379   5.194   2.914  2.0870  1.4379  0.3689
12438TIP3   OH237256   3.205   4.453   2.621  0.0705  0.3472  0.0625
12438TIP3    H137257   3.177   4.520   2.683  2.4304  1.0761  0.4686
12438TIP3    H237258   3.132   4.445   2.559 -2.6049 -0.8255  3.1416
12439TIP3   OH237259   3.285   1.364   1.271  0.3112 -0.2448 -0.1827
12439TIP3    H137260   3.373   1.367   1.308  0.2854  0.2487 -0.1495
12439TIP3    H237261   3.291   1.300   1.200  0.5886 -0.5255  0.0932
12440TIP3   OH237262   2.009   0.767   5.658  0.0151 -0.1609 -0.6051
12440TIP3    H137263   2.100   0.750   5.632  0.4040  0.9116  0.0073
12440TIP3    H237264   1.990   0.699   5.723  0.1920 -0.7327 -1.1482
12441TIP3   OH237265   3.956   4.599   3.245  0.1485 -0.0732 -0.3615
12441TIP3    H137266   4.015   4.674   3.250 -1.2726  1.0715  0.1068
12441TIP3    H237267   3.971   4.562   3.158  2.2193 -0.4262  0.1049
12442TIP3   OH237268   4.147   4.815   2.006 -0.9277 -0.2422  0.0485
12442TIP3    H137269   4.211   4.854   2.066 -1.3419 -0.5157  0.6776
12442TIP3    H237270   4.161   4.861   1.923 -1.4754  1.3501  0.7931
12443TIP3   OH237271   5.494   4.131   4.007 -0.2189  0.1105 -0.1981
12443TIP3    H137272   5.466   4.193   3.940 -0.7088  0.0282 -0.0692
12443TIP3    H237273   5.451   4.049   3.984  0.0717 -0.0670 -0.1133
12444TIP3   OH237274   7.815   1.816   3.946  0.2349  0.3570  0.1026
12444TIP3    H137275   7.895   1.794   3.897  0.8395  0.6638  0.9156
12444TIP3    H237276   7.838   1.898   3.991 -1.0143  1.1857 -0.7090
12445TIP3   OH237277   2.041   3.214   6.544  0.8467 -0.0566  0.2961
12445TIP3    H137278   1.960   3.222   6.494  0.2674 -0.7068  1.1063
12445TIP3    H237279   2.036   3.283   6.610 -0.1479 -1.5127  1.8115
12446TIP3   OH237280   8.101   4.764   4.911  0.9783  0.4563 -0.1288
12446TIP3    H137281   8.089   4.669   4.909  1.7161  0.3500  0.0109
12446TIP3    H237282   8.190   4.778   4.876  0.5690  1.1577 -0.9214
12447TIP3   OH237283   8.199   6.298   2.989 -0.0422 -0.3599  0.1431
12447TIP3    H137284   8.234   6.287   3.077  0.2474 -2.3592 -0.1823
12447TIP3    H237285   8.276   6.318   2.935 -0.0626 -0.2336  0.1601
12448TIP3   OH237286   1.256   2.994   5.612 -0.2851  0.3159 -0.3028
12448TIP3    H137287   1.297   3.026   5.532  0.9825  0.7615  0.4998
12448TIP3    H237288   1.312   2.922   5.641  0.4816  1.4808  1.2653
12449TIP3   OH237289   5.499   1.801   5.078 -0.2085 -0.3048  0.5201
12449TIP3    H137290   5.432   1.733   5.082 -2.4135  1.7325  0.5929
12449TIP3    H237291   5.508   1.831   5.169 -0.3655  0.4662  0.2929
12450TIP3   OH237292   8.325   3.551   4.769 -0.3785  0.1780  0.1928
12450TIP3    H137293   8.310   3.632   4.817 -1.8563  0.1066 -0.1070
12450TIP3    H237294   8.250   3.496   4.790 -0.5486 -0.2375 -1.3837
12451TIP3   OH237295   4.967   7.566   0.152 -0.5746 -0.1480  0.1303
12451TIP3    H137296   5.024   7.526   0.087 -0.5196  0.2249 -0.0517
12451TIP3    H237297   4.920   7.492   0.192 -0.5843 -0.3777 -0.3054
12452TIP3   OH237298   3.034   4.161   3.502  0.6921  0.3521  0.4720
12452TIP3    H137299   3.013   4.218   3.428 -1.1352 -0.9318 -0.0561
12452TIP3    H237300   3.007   4.211   3.579 -0.1318  0.5204  0.0805
12453TIP3   OH237301   1.647   6.217   3.566  0.0956  0.0301  0.7360
12453TIP3    H137302   1.636   6.172   3.482  1.2336 -0.1228  0.6445
12453TIP3    H237303   1.644   6.310   3.545  2.9205  0.0790  0.0462
12454TIP3   OH237304   6.637   5.471   2.834  0.0104  0.0871 -0.4433
12454TIP3    H137305   6.611   5.400   2.776 -1.9500 -0.1142  0.5983
12454TIP3    H237306   6.631   5.550   2.780  0.5977 -0.3527 -1.1587
12455TIP3   OH237307   0.947   2.959   1.768  0.1312 -0.0514  0.0250
12455TIP3    H137308   0.955   2.879   1.820 -2.0146 -2.2050 -2.5562
12455TIP3    H237309   1.036   2.981   1.743  0.9063 -0.7214  2.0267
12456TIP3   OH237310   2.722   0.731   6.241 -0.3043 -0.0999 -0.0271
12456TIP3    H137311   2.770   0.711   6.161 -0.8943  1.0348 -0.6938
12456TIP3    H237312   2.718   0.648   6.288  0.6925 -0.6190 -0.8242
12457TIP3   OH237313   4.106   5.689   1.216  0.0203  0.0276  0.5384
12457TIP3    H137314   4.046   5.621   1.246 -0.4560 -0.3795 -1.2027
12457TIP3    H237315   4.188   5.644   1.200  0.7142  0.5062  2.5023
12458TIP3   OH237316   5.880   4.124   2.801  0.1275 -0.0175 -0.2534
12458TIP3    H137317   5.880   4.096   2.709  0.4659 -0.8442 -0.0160
12458TIP3    H237318   5.788   4.129   2.825  0.0479 -0.6946 -0.3882
12459TIP3   OH237319   4.916   2.578   5.779  0.1201  0.3413  0.0317
12459TIP3    H137320   5.009   2.598   5.790  0.5876 -1.8992  0.8249
12459TIP3    H237321   4.910   2.485   5.802 -1.9943 -0.0615 -1.8858
12460TIP3   OH237322   0.170   2.313   4.930  0.4166  0.3239  0.0362
12460TIP3    H137323   0.167   2.368   4.852  0.2089 -0.1612 -0.2965
12460TIP3    H237324   0.087   2.265   4.930 -1.0766  2.6427  2.2622
12461TIP3   OH237325   3.806   3.965   4.455 -0.3744  0.1361 -0.0564
12461TIP3    H137326   3.851   3.947   4.538  1.0919  0.5613 -0.7306
12461TIP3    H237327   3.789   4.059   4.458  0.2649  0.2709 -0.5065
12462TIP3   OH237328   3.201   2.683   6.431  0.2740  0.0291  0.2331
12462TIP3    H137329   3.108   2.670   6.453  0.3965 -0.3918  0.5080
12462TIP3    H237330   3.204   2.678   6.335 -0.1613  1.2142  0.1327
12463TIP3   OH237331   2.265   3.010   6.103  0.6210 -0.5487 -0.8385
12463TIP3    H137332   2.245   3.036   6.192  0.1523 -1.8344 -0.5456
12463TIP3    H237333   2.305   2.924   6.111 -0.4262 -1.1739 -1.9283
12464TIP3   OH237334   1.044   1.733   2.331  0.2396  0.2112  0.4101
12464TIP3    H137335   0.986   1.691   2.394  0.2237  0.8234  0.8132
12464TIP3    H237336   1.132   1.716   2.364  0.3303 -1.0986 -0.4403
12465TIP3   OH237337   1.720   2.049   1.617 -0.6316  0.0211  0.0183
12465TIP3    H137338   1.678   1.967   1.592  1.9967 -1.2927 -0.4022
12465TIP3    H237339   1.733   2.042   1.711 -0.9201  0.2443  0.0789
12466TIP3   OH237340   1.363   7.760   6.345  0.2507 -0.0929 -0.0360
12466TIP3    H137341   1.425   7.754   6.272 -1.2455 -0.9081 -1.2880
12466TIP3    H237342   1.405   7.821   6.406  1.5750  0.5827 -1.5313
12467TIP3   OH237343   2.729   1.852   1.302 -0.9108  0.6312  0.0728
12467TIP3    H137344   2.705   1.869   1.393 -0.7343 -0.6666  0.3855
12467TIP3    H237345   2.806   1.795   1.308  0.9140  2.8441 -0.9069
12468TIP3   OH237346   1.759   7.429   3.607 -1.2779 -0.1275 -0.0044
12468TIP3    H137347   1.738   7.367   3.537  1.4507 -0.5091 -0.5710
12468TIP3    H237348   1.684   7.488   3.609 -2.1163 -0.9981 -2.2297
12469TIP3   OH237349   0.826   6.532   0.326 -0.2060 -0.4231 -0.4101
12469TIP3    H137350   0.780   6.537   0.242  0.3291 -2.6441 -0.8976
12469TIP3    H237351   0.756   6.523   0.391 -0.5715 -0.1290 -0.7579
12470TIP3   OH237352   6.491   2.667   3.283 -0.3264  0.2876 -0.4007
12470TIP3    H137353   6.418   2.726   3.264 -2.1032 -1.3711  0.9660
12470TIP3    H237354   6.529   2.647   3.197 -1.4119  1.2383 -1.1246
12471TIP3   OH237355   3.639   0.150   2.090  0.1776  0.1362 -0.0725
12471TIP3    H137356   3.564   0.090   2.093 -0.7203  1.2085 -0.1252
12471TIP3    H237357   3.688   0.131   2.170  0.9278 -1.8838 -0.9578
12472TIP3   OH237358   6.944   0.608   3.857  0.1006  0.0096  0.2402
12472TIP3    H137359   6.900   0.529   3.888 -2.9855  1.3610 -0.3561
12472TIP3    H237360   7.033   0.578   3.836 -0.6994 -3.1148  0.6905
12473TIP3   OH237361   2.101   5.135   2.205  0.2695  0.2641 -0.3474
12473TIP3    H137362   2.028   5.141   2.142  0.3653  0.4235 -0.4443
12473TIP3    H237363   2.162   5.203   2.177  0.1058  0.6357  0.1869
12474TIP3   OH237364   6.704   0.280   4.796 -0.5555 -0.7287  0.2298
12474TIP3    H137365   6.612   0.260   4.810 -1.0744  0.4243 -1.2996
12474TIP3    H237366   6.728   0.232   4.717 -0.6270  1.0272 -0.9314
12475TIP3   OH237367   6.819   5.688   4.911 -0.1498 -0.5065 -0.2415
12475TIP3    H137368   6.899   5.728   4.876  1.4566 -2.5931  0.7352
12475TIP3    H237369   6.835   5.682   5.005 -1.1501 -1.5889 -0.1167
12476TIP3   OH237370   8.210   1.779   4.366 -0.0436  0.1240 -0.3176
12476TIP3    H137371   8.268   1.726   4.310 -1.3188 -0.1201 -1.4620
12476TIP3    H237372   8.193   1.858   4.314  0.1991  0.7302  0.5122
12477TIP3   OH237373   5.267   1.551   4.813 -0.2801 -0.2087  0.5838
12477TIP3    H137374   5.260   1.544   4.717 -1.7335  1.0113  0.5499
12477TIP3    H237375   5.187   1.509   4.846  0.5901 -1.3189  1.3194
12478TIP3   OH237376   5.212   6.483   4.818 -0.3310 -0.0946 -0.3831
12478TIP3    H137377   5.188   6.575   4.811  0.6824  0.2052 -0.0927
12478TIP3    H237378   5.177   6.455   4.903  0.0090  0.2246 -0.1382
12479TIP3   OH237379   1.660   1.924   5.565 -0.8372 -0.1296  0.4853
12479TIP3    H137380   1.587   1.939   5.506 -0.3356  0.9757  0.1183
12479TIP3    H237381   1.637   1.973   5.645  0.4958  2.2356 -0.4678
12480TIP3   OH237382   5.790   1.113   3.881  0.5399 -0.2080 -0.4182
12480TIP3    H137383   5.737   1.088   3.805  0.3875  0.9494 -0.7049
12480TIP3    H237384   5.761   1.201   3.903  0.6165 -0.5082  0.9700
12481TIP3   OH237385   3.109   5.125   4.369  0.1889 -0.3113  0.5283
12481TIP3    H137386   3.119   5.220   4.374 -1.5794 -0.1165  1.2796
12481TIP3    H237387   3.014   5.111   4.365  0.4279 -2.0001 -1.1097
12482TIP3   OH237388   2.331   3.529   6.711  0.6456 -0.0428 -0.7810
12482TIP3    H137389   2.367   3.443   6.689  0.6179 -0.1898 -0.2629
12482TIP3    H237390   2.284   3.556   6.631 -1.8182 -1.7963 -0.0501
12483TIP3   OH237391   0.645   2.017   1.384 -0.5570 -0.6535 -0.0513
12483TIP3    H137392   0.580   1.950   1.359 -1.7944  0.6119 -0.3638
12483TIP3    H237393   0.619   2.043   1.472 -0.9073  0.3361 -0.4335
12484TIP3   OH237394   1.134   1.760   5.113  0.3262 -0.3980 -0.0643
12484TIP3    H137395   1.116   1.824   5.183  0.1309 -1.1380  0.5783
12484TIP3    H237396   1.087   1.793   5.037  0.9649  0.7035 -0.0070
12485TIP3   OH237397   6.972   2.301   1.868 -0.0802 -0.5450 -0.0247
12485TIP3    H137398   6.887   2.262   1.890 -0.4330  1.3219  2.2371
12485TIP3    H237399   7.025   2.289   1.947 -0.1184  3.1660  0.7035
12486TIP3   OH237400   2.180   0.551   4.150  0.9261 -0.5690  0.2648
12486TIP3    H137401   2.239   0.608   4.102 -0.5669 -0.0313 -1.0314
12486TIP3    H237402   2.194   0.464   4.114  1.7819 -0.6873  0.8471
12487TIP3   OH237403   8.131   6.496   3.359  0.3084 -0.0871  0.2314
12487TIP3    H137404   8.066   6.457   3.418 -1.5881  0.6765 -1.2178
12487TIP3    H237405   8.159   6.424   3.303  0.7159 -0.4144  0.8417
12488TIP3   OH237406   7.848   2.404   4.225 -0.3333  0.5913 -0.3566
12488TIP3    H137407   7.841   2.383   4.132 -0.3896  0.9145 -0.4260
12488TIP3    H237408   7.757   2.408   4.255 -0.3079 -1.5427  0.1821
12489TIP3   OH237409   7.764   3.885   2.295  0.2000  0.4423 -0.2052
12489TIP3    H137410   7.680   3.838   2.289  0.4033  0.0076  0.3452
12489TIP3    H237411   7.822   3.836   2.237  0.8019 -0.8480  1.4195
12490TIP3   OH237412   6.029   3.025   3.063  0.2548 -0.0649  0.7367
12490TIP3    H137413   5.995   2.958   3.122  1.0326 -1.3714 -0.2493
12490TIP3    H237414   6.022   2.986   2.976 -1.1985  1.9436 -0.1298
12491TIP3   OH237415   6.166   2.340   4.864  0.3087  1.1052 -0.1956
12491TIP3    H137416   6.097   2.346   4.931 -0.5780 -1.9582 -0.7059
12491TIP3    H237417   6.121   2.359   4.782  0.2393 -0.1219 -0.4466
12492TIP3   OH237418   1.069   5.052   2.737  0.4235  0.3723 -0.0827
12492TIP3    H137419   1.096   4.987   2.802 -1.1007  0.9296  1.1761
12492TIP3    H237420   1.091   5.136   2.777 -1.7350  0.7763  0.3808
12493TIP3   OH237421   0.654   5.466   3.094  0.2061 -0.2673 -0.2163
12493TIP3    H137422   0.597   5.542   3.084 -1.7006 -1.8466 -2.4025
12493TIP3    H237423   0.687   5.473   3.184 -1.2826  2.1598  0.2421
12494TIP3   OH237424   0.487   7.328   2.781 -0.6389  0.1181  0.3200
12494TIP3    H137425   0.453   7.385   2.850 -1.5347 -0.4212  0.3377
12494TIP3    H237426   0.578   7.310   2.808 -0.3274  1.5270  0.3020
12495TIP3   OH237427   5.571   5.230   3.834  0.6255  0.9078 -0.2171
12495TIP3    H137428   5.487   5.209   3.874  0.5980 -1.4637 -1.3501
12495TIP3    H237429   5.549   5.291   3.763 -0.3460 -0.5862 -1.2476
12496TIP3   OH237430   6.998   6.834   6.710 -0.3199 -0.1016  0.0572
12496TIP3    H137431   6.971   6.802   6.624 -0.2380  0.4565 -0.1835
12496TIP3    H237432   6.966   6.769   6.772 -2.0559  0.4426 -0.2333
12497TIP3   OH237433   6.245   4.823   2.634 -0.0709 -0.3395 -0.0762
12497TIP3    H137434   6.247   4.766   2.711  0.8151  0.4447  0.5027
12497TIP3    H237435   6.239   4.762   2.560  1.4387 -1.2459  0.4900
12498TIP3   OH237436   5.500   5.386   4.953 -0.3271 -0.5864  0.1668
12498TIP3    H137437   5.472   5.375   5.044  0.5886 -0.6782  0.4406
12498TIP3    H237438   5.591   5.357   4.952 -0.1858 -0.1342 -0.6856
12499TIP3   OH237439   2.272   7.808   4.076  0.4394  0.2518 -0.4174
12499TIP3    H137440   2.279   7.750   4.000  2.0349  0.1824 -0.2399
12499TIP3    H237441   2.195   7.775   4.124  1.3614 -1.8298 -0.2485
12500TIP3   OH237442   7.368   6.000   4.387  0.3682 -0.4979  0.2762
12500TIP3    H137443   7.322   5.958   4.314  1.4073 -1.3375  0.0882
12500TIP3    H237444   7.370   5.932   4.455  0.4043 -0.1008  0.6749
12501TIP3   OH237445   0.018   0.497   1.951 -0.3088  0.0570 -0.1239
12501TIP3    H137446  -0.032   0.557   1.896  2.3011  1.8024 -0.7586
12501TIP3    H237447   0.037   0.422   1.894 -0.4457  0.3297 -0.5307
12502TIP3   OH237448   5.362   1.443   0.791  0.6611  0.2174 -0.5252
12502TIP3    H137449   5.297   1.455   0.861 -1.1118 -1.9800 -1.6673
12502TIP3    H237450   5.429   1.388   0.831  0.8069  0.8057  0.0685
12503TIP3   OH237451   5.298   2.109   3.119  0.3727 -0.8109  0.2339
12503TIP3    H137452   5.213   2.153   3.120  1.8779  2.4027  1.0985
12503TIP3    H237453   5.321   2.100   3.212  1.7267  0.1547  0.0266
12504TIP3   OH237454   2.502   1.910   0.300  0.2061 -0.3336 -0.2343
12504TIP3    H137455   2.491   1.820   0.329  0.4493 -0.2048  0.2708
12504TIP3    H237456   2.526   1.958   0.379  0.1909  0.1536 -0.5208
12505TIP3   OH237457   8.088   2.181   1.591  0.4962  0.3201  0.0200
12505TIP3    H137458   8.156   2.241   1.622 -1.2661  1.8326  1.1814
12505TIP3    H237459   8.016   2.238   1.564 -0.6083 -1.2320 -0.4732
12506TIP3   OH237460   2.626   3.341   5.230  0.2917  0.2715 -0.4827
12506TIP3    H137461   2.548   3.391   5.254  0.5806  0.5381 -0.0871
12506TIP3    H237462   2.593   3.269   5.177 -0.3775 -0.3875  0.7808
12507TIP3   OH237463   6.183   2.444   3.627 -0.3468 -0.5556 -0.3605
12507TIP3    H137464   6.174   2.358   3.587 -0.7506 -0.3493 -0.7287
12507TIP3    H237465   6.258   2.484   3.583 -0.7861 -0.3320 -0.9066
12508TIP3   OH237466   2.457   5.745   4.666 -0.0601 -0.2142 -0.3328
12508TIP3    H137467   2.385   5.765   4.726  0.2628 -3.7276  1.4947
12508TIP3    H237468   2.535   5.744   4.721  0.5472 -1.6802 -1.1721
12509TIP3   OH237469   0.813   3.705   1.650  0.3868 -0.1123 -0.7438
12509TIP3    H137470   0.812   3.617   1.687  2.3898  0.4752  0.8621
12509TIP3    H237471   0.732   3.711   1.600  0.1700 -2.8316 -0.8527
12510TIP3   OH237472   4.982   1.658   2.060  0.6933  0.0992 -0.0757
12510TIP3    H137473   4.897   1.657   2.104  1.5746 -0.5506  1.7200
12510TIP3    H237474   4.969   1.604   1.982 -1.1384  1.9473 -1.1833
12511TIP3   OH237475   7.969   0.681   3.386  0.6281  0.2458 -0.6771
12511TIP3    H137476   7.930   0.698   3.472 -0.5015 -0.3858 -1.0364
12511TIP3    H237477   7.986   0.586   3.386  2.3126  0.5264 -0.4914
12512TIP3   OH237478   0.388   6.398   0.741 -0.1223  0.0156  0.0205
12512TIP3    H137479   0.385   6.302   0.732 -1.3608 -0.0436  0.8129
12512TIP3    H237480   0.460   6.425   0.684  1.6167 -1.5760  1.3623
12513TIP3   OH237481   4.652   2.265   0.579 -0.1303  0.6871  0.1816
12513TIP3    H137482   4.707   2.201   0.534 -0.2204 -1.1908  2.5311
12513TIP3    H237483   4.701   2.347   0.573  2.5946 -0.7243  1.4323
12514TIP3   OH237484   0.453   1.589   1.716  1.0047 -0.1858  0.1116
12514TIP3    H137485   0.446   1.639   1.797  0.5938 -0.8111  0.4642
12514TIP3    H237486   0.480   1.501   1.743  2.3366 -0.0102 -0.5534
12515TIP3   OH237487   0.075   2.117   3.565 -0.3265 -0.0812 -0.2001
12515TIP3    H137488  -0.015   2.109   3.534  0.3572 -0.3329 -2.3075
12515TIP3    H237489   0.116   2.178   3.504  1.1293 -0.5896  0.2233
12516TIP3   OH237490   5.085   6.634   2.225  0.1294  0.0655 -0.1417
12516TIP3    H137491   5.038   6.622   2.143 -2.2920  1.3403  0.9732
12516TIP3    H237492   5.115   6.546   2.249 -0.0835 -0.4832 -1.7989
12517TIP3   OH237493   0.732   3.475   6.065 -0.2632  0.1662 -0.2436
12517TIP3    H137494   0.701   3.419   6.136 -0.5440  0.9954  0.3051
12517TIP3    H237495   0.801   3.529   6.104  0.1617  0.0542 -0.8200
12518TIP3   OH237496   0.038   0.928   1.476  0.2196 -0.3562 -0.0336
12518TIP3    H137497  -0.010   0.866   1.421  1.3481 -1.5002  0.2177
12518TIP3    H237498   0.110   0.877   1.513  1.2304  1.1243  0.1522
12519TIP3   OH237499   3.749   7.303   5.614 -0.2045 -0.3112 -0.1986
12519TIP3    H137500   3.746   7.388   5.657 -1.4972 -0.9296  1.0189
12519TIP3    H237501   3.832   7.265   5.641  0.5945  0.7419 -1.1348
12520TIP3   OH237502   7.138   4.074   4.539 -0.0178 -0.1507  0.3349
12520TIP3    H137503   7.137   4.087   4.634 -1.5586 -0.0479  0.3290
12520TIP3    H237504   7.087   4.147   4.504  0.7592 -0.0372 -0.6158
12521TIP3   OH237505   3.454   4.912   1.622 -0.1062  0.2951 -0.0195
12521TIP3    H137506   3.366   4.931   1.589 -0.6240 -1.0896  0.4906
12521TIP3    H237507   3.495   4.997   1.631 -1.0525  0.9075 -1.2023
12522TIP3   OH237508   6.482   3.825   4.789 -0.1248 -0.4972  0.1861
12522TIP3    H137509   6.489   3.802   4.881  2.7736 -0.6931  0.0232
12522TIP3    H237510   6.516   3.748   4.742  1.9404  0.8881 -0.7781
12523TIP3   OH237511   5.214   5.178   6.736  0.1443 -0.2780 -0.3274
12523TIP3    H137512   5.263   5.257   6.714 -1.8948  0.8076 -1.2534
12523TIP3    H237513   5.181   5.193   6.824 -1.5546  0.6881 -1.0694
12524TIP3   OH237514   0.701   1.154   1.025 -0.1665  0.0883  0.2666
12524TIP3    H137515   0.680   1.234   0.977 -1.3156 -0.7520 -0.7155
12524TIP3    H237516   0.659   1.166   1.111 -1.0819  0.2008 -0.1808
12525TIP3   OH237517   0.825   0.594   3.616 -0.5486  0.1432 -0.2927
12525TIP3    H137518   0.817   0.508   3.657  0.9287  0.0121 -0.2429
12525TIP3    H237519   0.904   0.588   3.562 -0.9937  1.1517 -1.0922
12526TIP3   OH237520   7.543   0.705   5.553 -0.0748 -0.1851  0.0275
12526TIP3    H137521   7.598   0.764   5.605  0.6206  0.9758 -1.9159
12526TIP3    H237522   7.462   0.698   5.603  0.9699 -0.0792  1.8296
12527TIP3   OH237523   5.302   3.020   2.195 -0.0971  0.1845  0.0461
12527TIP3    H137524   5.362   3.038   2.122 -1.2038 -0.9325 -1.2012
12527TIP3    H237525   5.330   3.080   2.264  1.8800  0.3202 -0.7886
12528TIP3   OH237526   1.080   1.859   3.293 -0.5387 -0.1508 -0.5123
12528TIP3    H137527   1.128   1.898   3.366 -0.0431 -1.2164 -0.2407
12528TIP3    H237528   1.021   1.928   3.262  1.0388  1.1352 -0.7380
12529TIP3   OH237529   3.424   7.268   3.412  0.4392  0.3823 -0.2409
12529TIP3    H137530   3.377   7.191   3.444  1.2523 -0.4835 -1.1042
12529TIP3    H237531   3.469   7.302   3.490  0.1666 -0.0747  0.1223
12530TIP3   OH237532   1.796   2.602   0.600  0.2894 -0.5817 -0.1390
12530TIP3    H137533   1.724   2.546   0.630  0.5433 -1.3381 -0.9157
12530TIP3    H237534   1.781   2.613   0.506  0.6559  0.0580 -0.1296
12531TIP3   OH237535   1.349   6.001   3.910  0.0252 -0.0872  0.4341
12531TIP3    H137536   1.341   6.016   3.816  1.0575  1.2412  0.5275
12531TIP3    H237537   1.422   6.057   3.937 -0.7901  0.2036  2.1663
12532TIP3   OH237538   4.867   5.369   0.413  0.0818 -0.2390  0.4181
12532TIP3    H137539   4.944   5.419   0.438  0.8670 -0.5095 -1.3392
12532TIP3    H237540   4.895   5.317   0.338 -1.4534 -1.3289  0.5481
12533TIP3   OH237541   0.692   4.367   4.412  0.0045  0.2192 -0.0056
12533TIP3    H137542   0.786   4.373   4.396 -0.1021  0.3908 -0.6057
12533TIP3    H237543   0.653   4.426   4.347 -0.5085  0.2621  0.3347
12534TIP3   OH237544   4.973   4.967   5.838  0.6957  0.2111  0.5420
12534TIP3    H137545   4.970   4.981   5.744  0.6204 -1.1717  0.3196
12534TIP3    H237546   4.932   5.046   5.875 -3.9397 -1.2591 -0.7768
12535TIP3   OH237547   2.478   6.447   6.018 -0.1409 -0.0529  0.2419
12535TIP3    H137548   2.457   6.380   5.954  0.4728 -0.2201  0.2085
12535TIP3    H237549   2.493   6.398   6.099  2.8877 -0.2815 -0.3438
12536TIP3   OH237550   6.339   1.115   3.944  0.2402 -0.2808 -0.5634
12536TIP3    H137551   6.292   1.142   3.865  1.9288  0.8672 -1.2247
12536TIP3    H237552   6.420   1.076   3.912  0.3755 -0.9929  0.5852
12537TIP3   OH237553   8.036   7.721   1.380  0.3301  0.3314  0.5248
12537TIP3    H137554   8.087   7.686   1.307  0.6556 -1.7222  1.6506
12537TIP3    H237555   8.016   7.645   1.434 -3.2579  1.1500  0.6119
12538TIP3   OH237556   5.802   7.569   5.566  0.1241  0.5322  0.1918
12538TIP3    H137557   5.753   7.498   5.607  1.2626 -0.4860 -0.1256
12538TIP3    H237558   5.745   7.646   5.573 -0.9446 -0.3030  0.9631
12539TIP3   OH237559   4.861   4.062   3.393  0.5838  0.1639  0.4934
12539TIP3    H137560   4.817   4.147   3.397  0.3478  0.0030  1.6209
12539TIP3    H237561   4.890   4.045   3.483  0.6089 -0.9505  0.2942
12540TIP3   OH237562   4.430   2.422   1.407 -0.2570 -0.7633 -0.0736
12540TIP3    H137563   4.406   2.495   1.464  1.7061 -0.0043 -0.1294
12540TIP3    H237564   4.391   2.444   1.323 -0.1098  0.0024  0.0413
12541TIP3   OH237565   3.447   4.566   2.261  0.2392  0.1613 -0.3025
12541TIP3    H137566   3.370   4.521   2.296 -0.0763  0.3541 -0.7418
12541TIP3    H237567   3.501   4.586   2.338  0.0735 -0.3878 -0.0400
12542TIP3   OH237568   6.482   6.010   1.154  0.3735 -0.3004 -0.0203
12542TIP3    H137569   6.391   6.039   1.141  0.2232 -0.8804 -0.2774
12542TIP3    H237570   6.513   5.989   1.067  0.9919  0.5733 -0.0152
12543TIP3   OH237571   1.082   6.562   6.625  0.3236 -0.3132 -0.0019
12543TIP3    H137572   1.049   6.526   6.707  2.3278 -0.0345  0.9899
12543TIP3    H237573   1.045   6.651   6.622  0.9975  0.0298  1.1225
12544TIP3   OH237574   7.044   5.485   6.710  0.3228  0.4075 -0.0987
12544TIP3    H137575   7.103   5.474   6.635  1.1322 -1.4195  0.7627
12544TIP3    H237576   6.958   5.457   6.677  0.8353 -1.1674 -0.1464
12545TIP3   OH237577   4.127   1.454   4.082  0.2885 -0.4038  0.1220
12545TIP3    H137578   4.105   1.523   4.144  1.0260  1.4394 -1.5613
12545TIP3    H237579   4.103   1.489   3.996 -0.6924 -2.8492 -0.7179
12546TIP3   OH237580   4.839   4.248   3.670  0.3165 -0.3671 -0.6389
12546TIP3    H137581   4.910   4.197   3.709  0.7043 -0.1196 -1.0129
12546TIP3    H237582   4.831   4.325   3.726 -0.2227 -0.7966 -0.1147
12547TIP3   OH237583   3.256   5.007   5.413 -0.5180  0.3228 -0.1591
12547TIP3    H137584   3.263   5.020   5.319 -0.9744  0.4108 -0.1841
12547TIP3    H237585   3.190   4.939   5.423 -0.9941  0.8143  0.1198
12548TIP3   OH237586   2.796   0.468   6.297 -0.3535 -0.1297  0.3490
12548TIP3    H137587   2.839   0.488   6.380  1.2658  1.7010 -0.8382
12548TIP3    H237588   2.860   0.416   6.249 -1.1326 -0.8652  0.0786
12549TIP3   OH237589   3.087   1.655   2.813  0.1970 -0.3283 -0.0243
12549TIP3    H137590   3.114   1.645   2.905  1.1139 -1.4592 -0.3828
12549TIP3    H237591   3.168   1.640   2.763 -0.4590 -0.5715 -1.0333
12550TIP3   OH237592   1.869   0.209   3.722  0.7586  0.0148  0.5471
12550TIP3    H137593   1.799   0.182   3.781 -2.2458  0.7549 -2.3781
12550TIP3    H237594   1.896   0.295   3.753 -0.0218 -0.0367  1.3917
12551TIP3   OH237595   1.992   6.603   3.966 -0.4767  0.5430 -0.3148
12551TIP3    H137596   1.942   6.669   3.918 -0.7688 -0.9117 -2.1414
12551TIP3    H237597   2.067   6.650   4.002 -1.1592  2.0255 -0.7507
12552TIP3   OH237598   0.835   0.642   5.725  0.1352 -0.0683  0.0271
12552TIP3    H137599   0.826   0.565   5.669 -1.0551  0.0309  0.0627
12552TIP3    H237600   0.776   0.707   5.686  2.3467  1.4488 -1.0061
12553TIP3   OH237601   1.866   3.099   0.735  0.2037  0.2161  0.6836
12553TIP3    H137602   1.934   3.080   0.801  0.5657 -0.7728  0.0507
12553TIP3    H237603   1.902   3.064   0.653  0.2890  2.4738 -0.3141
12554TIP3   OH237604   7.198   7.620   4.663  0.1542  0.0502 -0.1600
12554TIP3    H137605   7.282   7.582   4.636 -0.4608 -1.6948  0.2153
12554TIP3    H237606   7.217   7.664   4.746  0.8147  0.1896 -0.3836
12555TIP3   OH237607   2.280   3.022   3.786 -0.3406 -0.3395 -0.3208
12555TIP3    H137608   2.310   3.034   3.877 -0.0634 -0.2353 -0.4245
12555TIP3    H237609   2.247   2.933   3.783 -1.1842 -0.0557  0.1187
12556TIP3   OH237610   4.432   4.103   0.027  1.0554 -0.1528 -0.7131
12556TIP3    H137611   4.463   4.190   0.054 -0.8982  0.0007  1.3687
12556TIP3    H237612   4.357   4.121  -0.030 -0.5476 -0.3342  1.1972
12557TIP3   OH237613   2.242   2.923   4.691  0.1800 -0.0726  0.3550
12557TIP3    H137614   2.220   2.837   4.656  0.9104 -0.5926  1.1363
12557TIP3    H237615   2.172   2.942   4.754 -0.3115  0.1884 -0.2597
12558TIP3   OH237616   7.273   2.152   0.620 -0.0072 -0.3036 -0.3618
12558TIP3    H137617   7.251   2.216   0.688 -0.4254 -1.6118  0.7926
12558TIP3    H237618   7.191   2.136   0.574  0.2089  0.3551 -0.9860
12559TIP3   OH237619   3.532   0.436   4.708  0.4839  0.0012  0.1737
12559TIP3    H137620   3.460   0.463   4.651  1.8182  0.2262 -1.5011
12559TIP3    H237621   3.611   0.457   4.658  1.7007 -1.1740  1.5122
12560TIP3   OH237622   6.026   2.167   0.125 -0.0388 -0.3329 -0.2917
12560TIP3    H137623   5.961   2.217   0.173  1.1569  1.5111 -0.5131
12560TIP3    H237624   6.023   2.080   0.164  0.4505  0.8991  2.7512
12561TIP3   OH237625   4.107   6.797   3.812 -0.2920  0.2750 -0.1723
12561TIP3    H137626   4.168   6.801   3.885  0.5214 -1.9585 -0.6599
12561TIP3    H237627   4.161   6.816   3.735 -0.6255  0.1502 -0.4397
12562TIP3   OH237628   5.901   1.581   6.439 -0.3114 -0.8378  0.3365
12562TIP3    H137629   5.836   1.519   6.406 -1.2090 -0.2188  0.9012
12562TIP3    H237630   5.964   1.526   6.486 -1.8616 -1.2341  2.0691
12563TIP3   OH237631   1.810   6.025   1.950  0.2964 -0.8410 -0.5331
12563TIP3    H137632   1.827   5.931   1.945  1.3802 -0.7950  1.1204
12563TIP3    H237633   1.842   6.060   1.867  0.9428 -1.8163 -0.7173
12564TIP3   OH237634   7.114   5.300   2.404 -0.4151  0.1370  0.2759
12564TIP3    H137635   7.054   5.365   2.365 -1.9466 -2.0927 -1.3451
12564TIP3    H237636   7.167   5.270   2.330  0.3460 -0.3878  1.0246
12565TIP3   OH237637   0.162   2.888   4.155  0.0443  0.5208 -0.2400
12565TIP3    H137638   0.165   2.978   4.121  1.0541  0.0509 -1.4885
12565TIP3    H237639   0.070   2.873   4.174 -0.2476  1.5640 -0.7507
12566TIP3   OH237640   5.228   5.265   4.539  0.3068  1.0126 -0.0219
12566TIP3    H137641   5.218   5.350   4.495 -0.1200  0.6683 -0.6180
12566TIP3    H237642   5.251   5.286   4.629  0.3590  1.7605 -0.2073
12567TIP3   OH237643   0.680   5.455   1.277 -0.5232  0.3296 -0.6185
12567TIP3    H137644   0.748   5.387   1.281  1.7191  2.4770  1.1619
12567TIP3    H237645   0.692   5.496   1.191 -0.6422 -0.2947 -0.9402
12568TIP3   OH237646   4.158   5.693   3.339  0.2551  0.0853  0.1905
12568TIP3    H137647   4.175   5.750   3.265  0.1057  1.1757  0.9632
12568TIP3    H237648   4.244   5.673   3.375  0.3892 -1.1136 -0.7286
12569TIP3   OH237649   6.703   7.132   2.659 -0.3383 -0.0252  0.0584
12569TIP3    H137650   6.726   7.180   2.579  0.0401 -1.7911 -0.9394
12569TIP3    H237651   6.776   7.147   2.718  0.3455 -0.3463 -0.6915
12570TIP3   OH237652   4.750   3.315   6.137 -0.3673  0.0567  0.3796
12570TIP3    H137653   4.766   3.371   6.062 -0.9061  1.1261  1.0367
12570TIP3    H237654   4.805   3.238   6.122  1.1899  1.2063 -0.0247
12571TIP3   OH237655   5.597   7.305   3.812  0.5230 -0.1857  0.4614
12571TIP3    H137656   5.528   7.268   3.758  0.2906 -0.0131  0.6369
12571TIP3    H237657   5.673   7.249   3.796  0.0366 -1.0533  1.1230
12572TIP3   OH237658   3.312   3.779   3.452  0.4559  0.4948 -0.0154
12572TIP3    H137659   3.258   3.721   3.399 -0.5360  0.8339  0.6006
12572TIP3    H237660   3.345   3.723   3.523 -1.7521  0.9551  1.4711
12573TIP3   OH237661   7.472   4.437   3.276  0.0801 -0.1897  0.0264
12573TIP3    H137662   7.428   4.384   3.210 -1.1393 -1.0384  1.4549
12573TIP3    H237663   7.427   4.521   3.275 -0.9024 -0.6951  0.7518
12574TIP3   OH237664   7.283   1.143   1.101  0.2949  0.3992  0.0205
12574TIP3    H137665   7.310   1.190   1.180  2.6636 -0.9974  0.1028
12574TIP3    H237666   7.280   1.211   1.033  1.0510  1.1136  0.6813
12575TIP3   OH237667   2.001   3.444   0.546  0.6519 -0.1361 -0.1758
12575TIP3    H137668   1.932   3.509   0.533  1.7626  1.1640  0.1680
12575TIP3    H237669   1.998   3.389   0.468 -0.9943 -0.3345  0.0038
12576TIP3   OH237670   7.651   1.774   2.746 -0.1053  0.2439 -0.0731
12576TIP3    H137671   7.579   1.809   2.797  1.3984 -1.5040  3.5842
12576TIP3    H237672   7.727   1.827   2.770  0.5588 -0.2181 -1.0359
12577TIP3   OH237673   1.892   7.753   4.533 -0.6455 -0.1724 -0.6511
12577TIP3    H137674   1.831   7.787   4.598  0.5782  0.1681  0.3464
12577TIP3    H237675   1.928   7.831   4.490 -0.3264 -0.3453 -0.6975
12578TIP3   OH237676   4.096   1.184   5.319  0.1197  0.1617  0.5833
12578TIP3    H137677   4.156   1.134   5.263  0.2845 -0.4501  1.2935
12578TIP3    H237678   4.032   1.120   5.349  2.3533 -0.5846  4.4309
12579TIP3   OH237679   2.972   3.757   2.326  1.4091  0.1790 -0.2248
12579TIP3    H137680   3.049   3.787   2.375  1.2622  1.7818 -0.9107
12579TIP3    H237681   2.988   3.786   2.236 -1.3619  3.4640  0.1436
12580TIP3   OH237682   2.417   1.849   6.301  0.1467  0.4991  0.1054
12580TIP3    H137683   2.426   1.823   6.393  1.6933 -0.6589 -0.3311
12580TIP3    H237684   2.444   1.771   6.252 -3.1641  0.1213 -1.4246
12581TIP3   OH237685   5.087   2.876   3.248 -0.1037  0.0461  0.0459
12581TIP3    H137686   5.096   2.795   3.298  0.5009 -0.6339 -1.1010
12581TIP3    H237687   5.004   2.866   3.201  0.0010  0.0630 -0.1429
12582TIP3   OH237688   1.127   0.584   0.477 -0.1668 -0.2682 -0.4712
12582TIP3    H137689   1.136   0.580   0.382  0.5029 -1.1199 -0.3814
12582TIP3    H237690   1.210   0.622   0.507  0.3595 -1.6274 -0.1207
12583TIP3   OH237691   4.132   1.043   4.037  0.3483 -0.6968  0.2596
12583TIP3    H137692   4.227   1.051   4.041  0.3025 -0.5247  2.4087
12583TIP3    H237693   4.113   1.024   3.945  2.5236 -1.6602 -0.0564
12584TIP3   OH237694   0.539   0.176   6.778  0.0966  0.3603 -0.2737
12584TIP3    H137695   0.470   0.154   6.715  0.3122 -1.8434  0.1664
12584TIP3    H237696   0.620   0.156   6.732  0.5043  2.7831 -0.7280
12585TIP3   OH237697   4.885   5.425   1.367 -0.0049  0.5878  0.3199
12585TIP3    H137698   4.845   5.438   1.453  2.3835  1.9923  1.3207
12585TIP3    H237699   4.878   5.510   1.324 -1.2271 -0.1199 -0.9504
12586TIP3   OH237700   2.999   0.206   5.203  0.0806 -0.3100 -0.4743
12586TIP3    H137701   2.918   0.190   5.155 -1.0932  1.3413  0.7929
12586TIP3    H237702   3.064   0.223   5.135 -1.5789  2.2745 -1.5934
12587TIP3   OH237703   5.861   6.443   2.221  0.0990  0.5365 -0.2473
12587TIP3    H137704   5.952   6.429   2.194  0.6479 -1.2777  2.2677
12587TIP3    H237705   5.822   6.356   2.223 -1.1307  1.0741  0.5823
12588TIP3   OH237706   8.087   0.566   5.431  0.0132  0.3053 -0.5520
12588TIP3    H137707   8.036   0.519   5.497 -0.0745  1.8976  0.5538
12588TIP3    H237708   8.178   0.561   5.463 -0.3347  3.5410  1.3711
12589TIP3   OH237709   6.527   7.705   3.331  0.1915 -0.4300 -0.0528
12589TIP3    H137710   6.607   7.688   3.380  0.5064 -1.8764 -1.0260
12589TIP3    H237711   6.543   7.789   3.288 -0.2421  1.0871  2.5342
12590TIP3   OH237712   4.515   3.633   0.728  0.1594 -0.0763 -0.2542
12590TIP3    H137713   4.423   3.649   0.706 -0.0095 -1.0768 -0.3438
12590TIP3    H237714   4.563   3.702   0.683 -0.4526 -0.2306 -1.1780
12591TIP3   OH237715   4.186   6.822   4.294 -0.1940  0.3903  0.0138
12591TIP3    H137716   4.232   6.906   4.289  2.4432 -0.7502  2.3535
12591TIP3    H237717   4.131   6.831   4.372  0.0061  0.0148  0.1996
12592TIP3   OH237718   2.027   4.637   1.915  0.3045  0.5016  0.4080
12592TIP3    H137719   2.059   4.623   1.826 -1.1758  1.2818 -0.2910
12592TIP3    H237720   2.003   4.729   1.918  0.9481  0.6483  1.8514
12593TIP3   OH237721   6.091   6.029   1.767  0.1584  0.6203  0.3452
12593TIP3    H137722   6.111   5.941   1.797  2.2213  1.4198  1.5455
12593TIP3    H237723   6.171   6.059   1.724 -0.0860  2.2691  0.9553
12594TIP3   OH237724   2.081   3.246   2.314  0.5533 -0.4861  0.0441
12594TIP3    H137725   2.144   3.224   2.382  1.0080 -1.3679 -0.6386
12594TIP3    H237726   2.132   3.250   2.233 -0.2189 -1.0942 -0.5014
12595TIP3   OH237727   1.904   7.108   6.407  0.4566 -0.4954 -0.2138
12595TIP3    H137728   1.999   7.123   6.411  0.7870 -2.1264 -1.0787
12595TIP3    H237729   1.891   7.055   6.328 -0.9961 -1.4733  0.6253
12596TIP3   OH237730   1.497   1.435   5.198  0.6954 -0.5176 -0.1421
12596TIP3    H137731   1.514   1.422   5.105 -1.0650  0.6875 -0.6790
12596TIP3    H237732   1.451   1.518   5.202  0.0464 -0.9288  1.7375
12597TIP3   OH237733   3.111   0.865   5.450  0.9955 -0.4528 -1.0107
12597TIP3    H137734   3.178   0.869   5.382  0.3885  1.8228 -1.5418
12597TIP3    H237735   3.100   0.956   5.478 -0.2379 -1.0805  0.6931
12598TIP3   OH237736   0.154   1.843   3.105 -0.5428  0.2600 -0.2601
12598TIP3    H137737   0.125   1.891   3.183  1.4380 -2.7771  2.6051
12598TIP3    H237738   0.102   1.880   3.033 -1.5215  4.2191  2.1630
12599TIP3   OH237739   5.406   5.711   4.646 -0.4229  0.0358  0.1863
12599TIP3    H137740   5.349   5.663   4.587 -1.8344  2.3628 -0.5090
12599TIP3    H237741   5.349   5.735   4.720  0.4416 -0.0776  0.8986
12600TIP3   OH237742   7.450   6.501   4.362 -0.2353 -0.0670  0.6318
12600TIP3    H137743   7.372   6.501   4.306 -0.7771  0.3176  1.3716
12600TIP3    H237744   7.472   6.409   4.374  1.0876 -0.1586 -1.8290
12601TIP3   OH237745   8.276   4.330   6.659 -0.0361  0.1540 -0.7325
12601TIP3    H137746   8.184   4.343   6.636 -0.8153  2.0811  2.7299
12601TIP3    H237747   8.295   4.240   6.634 -3.3673 -0.8446 -0.1636
12602TIP3   OH237748   7.037   1.683   2.245 -0.1542 -0.1135 -0.0488
12602TIP3    H137749   7.039   1.673   2.341 -0.4166 -1.6632 -0.1904
12602TIP3    H237750   7.119   1.729   2.225  0.3657 -0.6207  0.8309
12603TIP3   OH237751   0.959   3.417   2.920  0.0128  0.3848  0.0956
12603TIP3    H137752   0.969   3.498   2.970 -0.0841  1.2786 -1.2719
12603TIP3    H237753   1.017   3.355   2.963  0.7434  1.4297  0.6738
12604TIP3   OH237754   6.106   5.993   2.271 -0.4012  0.6695  0.4031
12604TIP3    H137755   6.065   5.910   2.248  0.8741  0.3657 -0.9161
12604TIP3    H237756   6.104   5.995   2.367 -3.9633  0.9789  0.4452
12605TIP3   OH237757   7.734   6.081   1.429 -0.2759  0.0281  0.7946
12605TIP3    H137758   7.789   6.158   1.444 -0.9662  1.0400 -1.4086
12605TIP3    H237759   7.646   6.118   1.414 -0.8741 -1.2904  0.9684
12606TIP3   OH237760   6.919   6.041   3.317  0.0495  0.1567  0.0113
12606TIP3    H137761   6.832   6.052   3.280 -0.1521 -0.1647  0.3865
12606TIP3    H237762   6.906   5.985   3.394  0.7342 -0.8041 -0.5476
12607TIP3   OH237763   7.784   7.068   1.037 -0.1189 -0.7119 -0.7983
12607TIP3    H137764   7.824   7.081   0.951 -0.2785 -2.5058 -1.1741
12607TIP3    H237765   7.854   7.088   1.100 -0.7227  3.2753 -1.1586
12608TIP3   OH237766   3.730   5.127   6.738  0.1254 -0.0165  0.0080
12608TIP3    H137767   3.736   5.040   6.777  1.9437  0.4993  1.0546
12608TIP3    H237768   3.714   5.111   6.646  1.4760 -1.5388 -0.0192
12609TIP3   OH237769   3.762   7.074   3.045 -0.1143  0.6106  0.6225
12609TIP3    H137770   3.687   7.022   3.017 -0.2424  1.2844 -0.3321
12609TIP3    H237771   3.742   7.099   3.135 -1.5870  1.7167  0.0281
12610TIP3   OH237772   4.273   6.648   6.456 -0.4519  0.1509 -0.3232
12610TIP3    H137773   4.259   6.669   6.363 -0.2299 -1.3836 -0.7441
12610TIP3    H237774   4.219   6.570   6.470 -0.3365  0.2649  0.7985
12611TIP3   OH237775   6.112   6.752   1.986  0.5173  0.1026  0.1780
12611TIP3    H137776   6.098   6.710   2.072 -0.1382  1.9415  1.0068
12611TIP3    H237777   6.100   6.845   2.002  2.2081  0.6958 -1.5534
12612TIP3   OH237778   5.143   5.616   1.701  0.2121 -0.0762 -0.5427
12612TIP3    H137779   5.193   5.697   1.713  1.9836 -1.2097  0.0220
12612TIP3    H237780   5.191   5.568   1.634 -1.3300 -0.3057 -1.5271
12613TIP3   OH237781   6.215   5.327   4.815  0.3206 -0.5054  0.3332
12613TIP3    H137782   6.259   5.410   4.835 -0.5899  0.2448 -0.6668
12613TIP3    H237783   6.124   5.352   4.799  0.2789 -1.5263 -1.1724
12614TIP3   OH237784   1.482   1.911   2.580  0.1218 -0.3748 -0.1726
12614TIP3    H137785   1.550   1.930   2.645 -1.2581  1.1546  0.9039
12614TIP3    H237786   1.463   1.995   2.539 -1.5596 -0.6163  0.0358
12615TIP3   OH237787   2.057   3.408   0.812 -1.1517  0.2582  0.2961
12615TIP3    H137788   2.041   3.435   0.722 -2.3709  0.5207  0.5791
12615TIP3    H237789   2.119   3.334   0.804  0.5446  1.6965 -0.5931
12616TIP3   OH237790   4.827   4.547   2.172  0.0232 -0.0833 -0.2430
12616TIP3    H137791   4.909   4.551   2.222  0.2483 -1.5805 -0.4365
12616TIP3    H237792   4.758   4.546   2.239  0.1759  0.6984 -0.0663
12617TIP3   OH237793   3.659   4.251   0.311  0.3904  0.2244 -0.3770
12617TIP3    H137794   3.709   4.197   0.250 -0.1041  0.5891 -1.1201
12617TIP3    H237795   3.587   4.286   0.259  1.3227  2.5371 -0.2387
12618TIP3   OH237796   3.522   4.629   1.632 -0.4781  0.2880  0.2732
12618TIP3    H137797   3.551   4.561   1.694  1.8726  1.1277  0.1849
12618TIP3    H237798   3.538   4.711   1.678 -1.8873  0.8562 -0.2073
12619TIP3   OH237799   3.465   4.090   2.376 -0.3168 -0.0989 -0.4127
12619TIP3    H137800   3.507   4.165   2.419 -0.2522  0.1969 -0.9867
12619TIP3    H237801   3.394   4.065   2.435  0.2593 -0.1908  0.2534
12620TIP3   OH237802   1.456   2.672   1.643 -0.4661  0.6066 -0.4114
12620TIP3    H137803   1.470   2.766   1.655  0.1954  0.4946 -0.2323
12620TIP3    H237804   1.395   2.666   1.569 -0.3536  1.1730 -0.5589
12621TIP3   OH237805   8.248   2.953   4.500 -0.1644 -0.2874 -0.5808
12621TIP3    H137806   8.332   2.909   4.500 -0.9219 -1.7878 -0.3936
12621TIP3    H237807   8.231   2.973   4.408  0.3507 -0.0398 -0.6237
12622TIP3   OH237808   1.627   7.720   1.064 -0.5415  0.1561  0.2225
12622TIP3    H137809   1.611   7.768   1.145 -0.7963 -0.0618  0.3034
12622TIP3    H237810   1.712   7.677   1.077 -0.4739  0.3088  0.2834
12623TIP3   OH237811   7.441   6.448   0.374 -0.5947 -0.3501  0.2722
12623TIP3    H137812   7.518   6.447   0.317  0.0102 -0.3572  1.0723
12623TIP3    H237813   7.367   6.452   0.314  0.0521  0.4614 -0.5052
12624TIP3   OH237814   6.224   5.507   3.453 -0.2750  0.2660 -0.3518
12624TIP3    H137815   6.131   5.507   3.429 -0.8781 -1.5961  1.6968
12624TIP3    H237816   6.241   5.418   3.483  1.7666  0.9869  0.8053
12625TIP3   OH237817   6.215   7.153   3.438  0.1143  0.1128  0.0518
12625TIP3    H137818   6.135   7.101   3.435 -0.8595  1.5131  0.5154
12625TIP3    H237819   6.194   7.225   3.499  1.5045  0.8540 -0.3049
12626TIP3   OH237820   0.804   0.869   1.281  0.4297  0.5803  0.4994
12626TIP3    H137821   0.828   0.791   1.330 -0.0590 -0.4029 -0.7670
12626TIP3    H237822   0.714   0.853   1.252  0.4315  1.4712 -0.0445
12627TIP3   OH237823   0.743   3.191   4.259 -0.3310 -0.3915  0.3158
12627TIP3    H137824   0.681   3.264   4.257  2.0939  1.7796 -0.3625
12627TIP3    H237825   0.717   3.137   4.184 -1.3258  0.5135 -0.0241
12628TIP3   OH237826   5.499   5.313   2.387 -0.5431  0.1817  0.7009
12628TIP3    H137827   5.415   5.356   2.401 -0.3367  1.2722 -1.1025
12628TIP3    H237828   5.485   5.258   2.309 -0.3057 -1.7280  1.9394
12629TIP3   OH237829   8.094   0.421   4.902 -0.3873  0.7011 -0.6707
12629TIP3    H137830   8.110   0.449   4.812  1.6654  0.1020 -0.5374
12629TIP3    H237831   8.181   0.422   4.943 -1.1413 -0.0295  1.0137
12630TIP3   OH237832   1.397   0.475   4.947  0.2505  0.1536  0.0093
12630TIP3    H137833   1.329   0.541   4.930  1.0143  1.1862  0.7861
12630TIP3    H237834   1.376   0.403   4.888 -0.3424  1.2929 -1.2271
12631TIP3   OH237835   3.019   4.303   1.972  0.2451 -0.2978 -0.7260
12631TIP3    H137836   3.095   4.338   1.925  1.0240  1.0027  1.3695
12631TIP3    H237837   3.055   4.270   2.054 -1.3662 -0.2904  0.0190
12632TIP3   OH237838   3.924   7.787   1.922  0.2280  0.0838 -0.9217
12632TIP3    H137839   3.844   7.754   1.881 -0.7899  0.8272  0.3644
12632TIP3    H237840   3.954   7.716   1.978  0.9495 -0.4943 -2.0126
12633TIP3   OH237841   1.092   4.361   4.997  0.3651  0.0881 -0.5126
12633TIP3    H137842   1.074   4.273   5.031  3.0593 -0.1311  0.5571
12633TIP3    H237843   1.041   4.420   5.053  1.2344 -0.5856  1.0267
12634TIP3   OH237844   1.865   0.679   5.037  0.2954 -0.4024 -0.4349
12634TIP3    H137845   1.789   0.685   5.094  1.9832 -0.8557  2.0143
12634TIP3    H237846   1.906   0.596   5.059  1.8503  0.1091 -1.2282
12635TIP3   OH237847   6.492   4.734   3.711  0.5345  0.2743  0.1592
12635TIP3    H137848   6.561   4.686   3.666 -0.0407 -0.2122 -0.2109
12635TIP3    H237849   6.453   4.671   3.772 -0.1589  0.2795 -0.2602
12636TIP3   OH237850   2.766   0.741   4.402  0.2099 -0.1755  0.2387
12636TIP3    H137851   2.692   0.706   4.353  0.4787 -0.9705  0.3818
12636TIP3    H237852   2.749   0.716   4.493 -0.1283  1.0145  0.5172
12637TIP3   OH237853   6.720   6.388   1.865 -0.7306  0.0024 -0.0054
12637TIP3    H137854   6.703   6.294   1.878  2.3509 -0.5631  0.6196
12637TIP3    H237855   6.696   6.428   1.948  0.5251 -0.6682  0.6992
12638TIP3   OH237856   0.359   7.552   1.674 -0.1338  0.4887 -0.5644
12638TIP3    H137857   0.357   7.493   1.599  3.1186  0.5251 -0.8250
12638TIP3    H237858   0.369   7.639   1.635  0.7851  0.5850 -0.1337
12639TIP3   OH237859   3.798   0.412   0.336 -0.1728 -0.1039 -0.5997
12639TIP3    H137860   3.819   0.319   0.330 -2.3944 -0.6495 -0.8282
12639TIP3    H237861   3.861   0.455   0.277  0.7373 -1.4680 -0.6646
12640TIP3   OH237862   3.761   7.576   5.008  0.2937  0.5063  0.4060
12640TIP3    H137863   3.682   7.548   4.962  0.3939  1.4653 -0.3945
12640TIP3    H237864   3.742   7.561   5.100  0.1126 -1.5548  0.0727
12641TIP3   OH237865   0.272   1.230   0.773 -0.5726  0.2578  0.2074
12641TIP3    H137866   0.269   1.325   0.785  0.2190  0.2226  0.7862
12641TIP3    H237867   0.193   1.198   0.816 -0.3048  0.5722  0.9488
12642TIP3   OH237868   0.113   6.729   3.566  0.0873  0.2251 -0.4620
12642TIP3    H137869   0.025   6.745   3.602 -0.2818 -0.7262 -0.8975
12642TIP3    H237870   0.163   6.807   3.589 -0.0335 -0.4519  2.3753
12643TIP3   OH237871   4.294   5.751   6.423  0.3827  0.6728 -0.4351
12643TIP3    H137872   4.361   5.817   6.434  0.6010  0.5373 -0.9136
12643TIP3    H237873   4.343   5.669   6.409  0.1506  0.0722  1.8209
12644TIP3   OH237874   7.865   4.326   0.784  0.3622 -0.1476 -0.6145
12644TIP3    H137875   7.935   4.319   0.849  0.1151 -2.4160 -0.5327
12644TIP3    H237876   7.798   4.378   0.828  0.7517 -0.5134  0.4614
12645TIP3   OH237877   1.071   3.099   2.324 -0.4071  0.2395 -0.3828
12645TIP3    H137878   1.153   3.055   2.303 -0.8031 -2.4125  2.8301
12645TIP3    H237879   1.003   3.040   2.293 -1.0194  0.4637  0.4884
12646TIP3   OH237880   0.280   1.276   0.463  0.0651 -0.5734 -0.1053
12646TIP3    H137881   0.358   1.219   0.465  0.4907 -0.0749 -1.3907
12646TIP3    H237882   0.270   1.305   0.554  1.7330 -0.1933 -0.0020
12647TIP3   OH237883   5.303   5.606   6.060 -0.0522  0.0122  0.0386
12647TIP3    H137884   5.341   5.520   6.076 -1.9528 -1.0140 -0.7155
12647TIP3    H237885   5.363   5.647   5.997  1.9474  0.1013  1.8665
12648TIP3   OH237886   5.533   4.769   3.592 -0.2602 -0.3502  0.0357
12648TIP3    H137887   5.454   4.788   3.641 -0.5417  0.5302 -0.7304
12648TIP3    H237888   5.594   4.839   3.615  0.3391 -1.0734  0.6928
12649TIP3   OH237889   6.548   1.642   1.394  0.0668 -0.1485 -0.0485
12649TIP3    H137890   6.549   1.583   1.319 -1.1013 -0.8679  0.4751
12649TIP3    H237891   6.612   1.710   1.372 -1.2697  0.4657 -2.3532
12650TIP3   OH237892   8.234   7.353   2.306  0.6191 -0.3524  0.0441
12650TIP3    H137893   8.245   7.442   2.273 -2.4802  1.0972  2.3591
12650TIP3    H237894   8.152   7.323   2.266 -0.1680 -0.7734  1.8770
12651TIP3   OH237895   2.785   5.955   5.395 -0.1865  0.3544  0.1962
12651TIP3    H137896   2.734   5.878   5.372 -0.8121  0.3265  1.6090
12651TIP3    H237897   2.832   5.977   5.314 -0.5157 -1.0855 -0.4186
12652TIP3   OH237898   0.470   6.383   2.803 -0.1273  0.2111 -0.9475
12652TIP3    H137899   0.504   6.358   2.717  0.1060 -2.4877 -0.1825
12652TIP3    H237900   0.548   6.394   2.857 -0.2739  1.8399 -1.0255
12653TIP3   OH237901   6.878   7.454   1.482 -0.6317 -0.5003 -0.1149
12653TIP3    H137902   6.895   7.532   1.534  0.4057  0.9287 -2.4430
12653TIP3    H237903   6.795   7.473   1.437 -0.3594 -0.6906 -0.7110
12654TIP3   OH237904   4.939   4.280   1.339  0.9562  0.5509 -0.0486
12654TIP3    H137905   4.991   4.234   1.404  0.2657 -2.9553 -1.7419
12654TIP3    H237906   4.998   4.288   1.263  0.6258  1.2762 -0.2393
12655TIP3   OH237907   1.407   5.504   2.323  0.4085  0.0189  0.1386
12655TIP3    H137908   1.354   5.559   2.266 -0.9375 -1.1641  0.2102
12655TIP3    H237909   1.481   5.478   2.268  1.0809  1.8249  0.1008
12656TIP3   OH237910   0.680   2.742   2.124  0.3237  0.4137 -0.6799
12656TIP3    H137911   0.626   2.821   2.114  0.8534  0.8945  0.1360
12656TIP3    H237912   0.639   2.678   2.066  0.8370  1.7785 -2.6503
12657TIP3   OH237913   4.369   7.744   0.165  0.1995 -0.1321  0.6049
12657TIP3    H137914   4.294   7.799   0.188  0.0216 -0.4601  0.8161
12657TIP3    H237915   4.429   7.751   0.239 -0.1215 -0.7403  0.9375
12658TIP3   OH237916   7.774   6.843   2.559  0.2463 -0.3434 -0.3524
12658TIP3    H137917   7.777   6.831   2.654 -0.6957  0.9433 -0.1349
12658TIP3    H237918   7.733   6.763   2.526 -0.2900 -0.3972  0.4230
12659TIP3   OH237919   5.659   3.343   0.285 -0.2342  0.6719  0.7825
12659TIP3    H137920   5.652   3.377   0.196 -0.6487 -0.1819  0.4809
12659TIP3    H237921   5.748   3.308   0.290 -0.0561  1.1236  0.8601
12660TIP3   OH237922   5.432   2.440   4.652 -0.0939  0.0010 -0.2313
12660TIP3    H137923   5.338   2.426   4.660 -0.4960  1.3213 -2.1173
12660TIP3    H237924   5.440   2.523   4.605  1.9680 -0.9433 -1.6948
12661TIP3   OH237925   4.600   5.194   1.113 -0.4751  0.0197  0.2307
12661TIP3    H137926   4.585   5.171   1.204  0.4521 -1.0265  0.1461
12661TIP3    H237927   4.646   5.118   1.076 -1.4114  0.1245 -1.2804
12662TIP3   OH237928   8.282   5.134   6.249 -0.1320 -0.0888  0.0120
12662TIP3    H137929   8.267   5.226   6.225 -2.7995  0.3968  2.9658
12662TIP3    H237930   8.204   5.088   6.217  0.6007 -1.1296 -0.3335
12663TIP3   OH237931   6.022   6.111   4.147  0.0571 -0.5465  0.5723
12663TIP3    H137932   6.067   6.044   4.198  1.0387  0.2138  0.7333
12663TIP3    H237933   6.090   6.150   4.092 -0.8773 -0.9990 -0.9675
12664TIP3   OH237934   7.018   3.522   4.761 -0.3602  0.9671 -0.4078
12664TIP3    H137935   7.103   3.500   4.721 -0.5023 -0.6747  0.0964
12664TIP3    H237936   6.999   3.610   4.731  0.8159  0.7907 -1.7600
12665TIP3   OH237937   5.090   1.677   5.315  0.3774 -0.1636 -0.1782
12665TIP3    H137938   5.145   1.730   5.373  0.3692 -1.0548  0.6556
12665TIP3    H237939   5.004   1.718   5.321  0.6902  0.5964 -0.6707
12666TIP3   OH237940   7.701   0.145   6.271 -0.1019 -1.2198 -0.1605
12666TIP3    H137941   7.752   0.093   6.333  1.3335 -0.2377 -0.4745
12666TIP3    H237942   7.712   0.236   6.301 -2.3559 -1.0154  0.2349
12667TIP3   OH237943   7.386   6.423   0.898  0.5089 -0.3061  0.0366
12667TIP3    H137944   7.416   6.356   0.837 -0.2259 -0.2727 -0.3674
12667TIP3    H237945   7.315   6.380   0.946 -0.3350  0.3566 -0.6050
12668TIP3   OH237946   4.849   0.639   1.549 -0.3193  0.0808 -0.3924
12668TIP3    H137947   4.883   0.727   1.558 -0.6521  0.2364 -0.6184
12668TIP3    H237948   4.799   0.624   1.630  0.8631 -0.4167  0.2652
12669TIP3   OH237949   6.282   7.131   2.337  0.0739  0.5239  0.1236
12669TIP3    H137950   6.202   7.102   2.381  0.3240  0.5315  0.5971
12669TIP3    H237951   6.349   7.128   2.406  1.0475 -1.9048 -0.8526
12670TIP3   OH237952   5.624   5.463   2.740 -0.0193 -0.3292 -0.1312
12670TIP3    H137953   5.669   5.387   2.701 -1.2141 -2.4194  2.2865
12670TIP3    H237954   5.532   5.437   2.743 -0.4193  1.1129  1.0890
12671TIP3   OH237955   0.857   0.991   6.671 -0.9083 -0.1239  0.2882
12671TIP3    H137956   0.771   1.005   6.709 -0.1917 -0.3729  2.1021
12671TIP3    H237957   0.918   0.997   6.745  0.7752  1.3050 -1.1197
12672TIP3   OH237958   6.709   6.423   4.412  0.0605  0.3293 -0.4067
12672TIP3    H137959   6.718   6.488   4.343 -0.4120 -0.3379 -1.1066
12672TIP3    H237960   6.657   6.468   4.480  0.4738  0.9593 -0.4994
12673TIP3   OH237961   0.817   5.233   3.869 -0.5380  0.3091 -0.5662
12673TIP3    H137962   0.841   5.142   3.887 -0.2623  0.3494 -0.7392
12673TIP3    H237963   0.891   5.284   3.902 -1.3134  0.5668  0.8589
12674TIP3   OH237964   5.664   4.630   1.465  0.4190 -0.7063  0.4336
12674TIP3    H137965   5.622   4.548   1.438 -1.4388  0.4920 -0.4766
12674TIP3    H237966   5.660   4.686   1.388  1.9400  0.1678  0.9528
12675TIP3   OH237967   3.198   1.555   5.891 -0.1275  0.5613 -1.0967
12675TIP3    H137968   3.269   1.567   5.955 -0.1277  0.0089 -0.9920
12675TIP3    H237969   3.238   1.577   5.807  0.6136 -1.2262 -1.2424
12676TIP3   OH237970   1.982   6.873   0.720 -0.4117 -0.6542 -0.1738
12676TIP3    H137971   1.891   6.857   0.698 -0.6397 -0.1139  0.3595
12676TIP3    H237972   1.980   6.950   0.776  0.3595 -0.7302 -0.0318
12677TIP3   OH237973   3.475   6.002   4.224  0.1522  0.4765  0.0773
12677TIP3    H137974   3.567   6.026   4.236  0.1889 -0.1305  1.2334
12677TIP3    H237975   3.438   6.008   4.312 -0.5575 -0.6982 -0.1226
12678TIP3   OH237976   8.243   1.850   3.887  0.2474 -0.4812  0.6285
12678TIP3    H137977   8.324   1.871   3.840  0.9409 -1.0748  1.5153
12678TIP3    H237978   8.255   1.890   3.974 -0.2144 -0.9687  0.9204
12679TIP3   OH237979   0.835   3.642   5.494 -0.0078 -0.9656 -0.2589
12679TIP3    H137980   0.886   3.599   5.563  0.4922 -0.2701 -0.1920
12679TIP3    H237981   0.745   3.642   5.527 -0.0322 -1.9900 -0.2781
12680TIP3   OH237982   4.053   7.669   4.117  0.0189  0.6558  0.5424
12680TIP3    H137983   4.146   7.653   4.107  0.0748  1.4212 -0.3193
12680TIP3    H237984   4.034   7.647   4.208  0.8795 -0.2292  0.5244
12681TIP3   OH237985   2.278   0.470   2.505 -0.0436 -0.3014 -1.1226
12681TIP3    H137986   2.254   0.399   2.564 -1.7293 -0.3258 -1.8022
12681TIP3    H237987   2.250   0.550   2.550 -2.1324 -0.3735 -2.2148
12682TIP3   OH237988   6.609   3.851   2.724 -0.3773  0.4703  0.2942
12682TIP3    H137989   6.587   3.761   2.700 -2.2497  0.4302  1.9127
12682TIP3    H237990   6.531   3.901   2.698  0.6815  1.6798 -0.6812
12683TIP3   OH237991   4.154   0.859   1.977 -0.0284 -0.2736  0.0017
12683TIP3    H137992   4.168   0.840   1.885 -1.7756  1.4804 -0.6882
12683TIP3    H237993   4.076   0.808   2.001  0.3943 -0.6944  0.5348
12684TIP3   OH237994   3.619   3.194   1.796 -0.0401 -0.3847 -0.2713
12684TIP3    H137995   3.568   3.222   1.872  0.4939  0.6993 -0.2933
12684TIP3    H237996   3.559   3.204   1.722 -0.6413 -1.6748  0.0085
12685TIP3   OH237997   4.234   4.134   6.352  0.2938  0.8333 -0.1819
12685TIP3    H137998   4.293   4.195   6.397  0.0731  0.6829  0.3216
12685TIP3    H237999   4.151   4.144   6.397  0.2951  0.0446  0.0143
12686TIP3   OH238000   5.010   2.068   0.720  0.4668  0.2207  0.4894
12686TIP3    H138001   5.057   2.022   0.650 -1.2742 -0.0423 -0.5846
12686TIP3    H238002   5.029   2.161   0.706 -1.8964  0.4548 -2.0852
12687TIP3   OH238003   6.145   7.143   0.546  0.4098 -0.0567 -0.4156
12687TIP3    H138004   6.231   7.182   0.531  0.4729 -0.4835 -1.2111
12687TIP3    H238005   6.164   7.058   0.587  0.3785 -0.1923 -0.6775
12688TIP3   OH238006   7.404   0.046   3.017  0.7703 -0.1616 -0.6387
12688TIP3    H138007   7.308   0.045   3.022  0.7905  0.3193 -0.1150
12688TIP3    H238008   7.423   0.076   2.928  0.4357 -0.2150 -0.7298
12689TIP3   OH238009   3.925   1.154   3.330 -0.0400  0.0437  0.1780
12689TIP3    H138010   3.845   1.207   3.329 -0.9553 -1.2791  0.2933
12689TIP3    H238011   3.914   1.096   3.405  0.0372 -1.5895 -1.0104
12690TIP3   OH238012   6.794   2.651   0.543 -0.0692  0.8414  0.6941
12690TIP3    H138013   6.768   2.561   0.524  0.2244  0.7910  0.5277
12690TIP3    H238014   6.869   2.667   0.487 -0.4308  1.3651  0.3539
12691TIP3   OH238015   8.304   0.088   6.600 -0.4721  0.0464  0.4556
12691TIP3    H138016   8.229   0.029   6.604 -0.0903 -0.3687  2.2435
12691TIP3    H238017   8.283   0.159   6.661  0.2848  0.2814  0.4613
12692TIP3   OH238018   6.685   3.469   2.909 -0.2180 -0.6490 -0.0133
12692TIP3    H138019   6.740   3.464   2.831 -0.2636  0.9938 -0.1763
12692TIP3    H238020   6.682   3.562   2.931 -1.3843 -0.9200  1.1075
12693TIP3   OH238021   2.419   1.522   4.833 -0.2535 -0.1771  0.1165
12693TIP3    H138022   2.425   1.427   4.839 -0.1384 -0.2620 -1.1134
12693TIP3    H238023   2.464   1.554   4.911  0.8634 -1.1154 -0.1224
12694TIP3   OH238024   3.470   4.356   0.124 -0.0027  0.3546  0.0781
12694TIP3    H138025   3.421   4.279   0.096  2.3838 -0.8688 -1.0359
12694TIP3    H238026   3.433   4.428   0.072 -1.2915 -0.2841  0.0684
12695TIP3   OH238027   3.496   4.767   6.087 -0.1016  0.1823 -0.7849
12695TIP3    H138028   3.487   4.789   5.995 -3.1723  2.9389  0.0147
12695TIP3    H238029   3.422   4.710   6.106  1.3002 -1.5648 -0.2204
12696TIP3   OH238030   5.838   3.443   2.869  0.1160 -0.7952  0.0593
12696TIP3    H138031   5.826   3.349   2.875  1.0472 -0.9708 -0.5524
12696TIP3    H238032   5.804   3.466   2.783  0.5085 -0.6809 -0.0666
12697TIP3   OH238033   6.050   7.494   1.934 -0.5030 -0.1174 -0.0979
12697TIP3    H138034   6.037   7.406   1.897 -0.3891 -0.0996 -0.1818
12697TIP3    H238035   6.050   7.552   1.858 -0.2581 -0.0810 -0.0687
12698TIP3   OH238036   6.403   4.548   1.117  0.2006  0.0042 -0.5185
12698TIP3    H138037   6.361   4.519   1.198 -0.3549 -0.4267 -0.9542
12698TIP3    H238038   6.413   4.643   1.127 -0.2688  0.0138 -0.1295
12699TIP3   OH238039   4.482   2.947   3.288 -0.0017  0.3923 -0.6634
12699TIP3    H138040   4.526   3.031   3.276  0.1994  0.0749 -2.4024
12699TIP3    H238041   4.388   2.969   3.287 -0.0360  1.0615  2.9955
12700TIP3   OH238042   1.178   7.776   4.483 -0.1798 -0.2666 -0.0738
12700TIP3    H138043   1.145   7.866   4.476 -0.2669 -0.1460  1.5101
12700TIP3    H238044   1.180   7.759   4.577 -1.0940 -2.2820 -0.3804
12701TIP3   OH238045   6.852   5.382   0.833  0.2336 -0.2737  0.0265
12701TIP3    H138046   6.909   5.394   0.757 -1.1915  2.8261 -0.7085
12701TIP3    H238047   6.775   5.336   0.799  0.6027 -1.0298  0.1801
12702TIP3   OH238048   5.650   3.768   0.286  0.1595 -0.3872 -0.1884
12702TIP3    H138049   5.666   3.792   0.195  1.5098 -0.7892 -0.0861
12702TIP3    H238050   5.563   3.728   0.285 -0.8666  1.7373 -0.8569
12703TIP3   OH238051   1.455   5.844   2.965  0.1920 -0.1862  0.3863
12703TIP3    H138052   1.480   5.892   2.885  0.4898  0.6099  0.9447
12703TIP3    H238053   1.411   5.766   2.932  0.7771 -0.1410 -0.5786
12704TIP3   OH238054   1.743   6.979   0.413 -0.6558 -0.3594  0.1328
12704TIP3    H138055   1.790   6.927   0.348 -0.4223  0.6046 -0.5065
12704TIP3    H238056   1.739   6.924   0.491 -1.7823 -1.9195 -0.9851
12705TIP3   OH238057   3.325   3.932   3.820  0.1723  0.0419 -0.2585
12705TIP3    H138058   3.412   3.919   3.783 -0.1906 -1.5289 -0.6384
12705TIP3    H238059   3.265   3.929   3.745 -0.5349 -2.8542  0.2816
12706TIP3   OH238060   0.928   1.843   1.546 -0.8493  0.0281 -0.1411
12706TIP3    H138061   0.928   1.907   1.617 -0.4848 -0.2035  0.0729
12706TIP3    H238062   0.836   1.821   1.533 -1.1744  1.8314 -1.3589
12707TIP3   OH238063   4.345   4.901   5.339  0.5393  0.2646 -0.2501
12707TIP3    H138064   4.401   4.837   5.382  1.6355  0.7218 -0.9406
12707TIP3    H238065   4.397   4.982   5.340 -0.8761  1.2115  0.7552
12708TIP3   OH238066   1.758   7.790   4.260 -0.0673 -0.1292 -0.2880
12708TIP3    H138067   1.676   7.806   4.307  0.6580 -1.4571  1.5279
12708TIP3    H238068   1.812   7.741   4.321  1.8454  0.1006 -1.6986
12709TIP3   OH238069   5.156   2.613   1.198 -0.0830  0.4929  0.0385
12709TIP3    H138070   5.157   2.545   1.131  2.3682  0.9129 -0.4502
12709TIP3    H238071   5.114   2.572   1.273 -0.8003 -0.7599 -0.9971
12710TIP3   OH238072   1.555   7.794   2.044  0.9368 -0.3386  0.1913
12710TIP3    H138073   1.571   7.811   2.137  0.8363  0.8688  0.0034
12710TIP3    H238074   1.622   7.845   1.998  2.0701 -2.2470 -0.3781
12711TIP3   OH238075   2.580   3.541   2.347 -0.1837 -0.2917 -0.0714
12711TIP3    H138076   2.541   3.561   2.262 -2.1425 -1.3534  0.4983
12711TIP3    H238077   2.522   3.583   2.410  0.9116 -0.0112  0.7721
12712TIP3   OH238078   6.740   2.190   6.297 -0.2182 -0.1691 -0.7014
12712TIP3    H138079   6.757   2.162   6.207  3.0907 -0.5314 -0.0774
12712TIP3    H238080   6.827   2.207   6.334 -1.1448 -2.8054  3.3304
12713TIP3   OH238081   3.190   0.445   5.748  0.2432  0.3560 -0.2688
12713TIP3    H138082   3.121   0.383   5.724 -0.1557  0.3878  0.7523
12713TIP3    H238083   3.156   0.531   5.723  0.8888  0.1842 -1.8955
12714TIP3   OH238084   1.301   5.633   2.838 -0.5312  0.4758  0.3766
12714TIP3    H138085   1.269   5.544   2.850  0.2875  0.1816  0.4217
12714TIP3    H238086   1.222   5.687   2.834 -0.9985  0.0438  2.5898
12715TIP3   OH238087   8.126   4.672   5.210  0.5776 -0.3455  0.0017
12715TIP3    H138088   8.148   4.609   5.141  1.8009 -0.3622  0.3656
12715TIP3    H238089   8.191   4.742   5.200  1.6368 -0.9795  1.9104
12716TIP3   OH238090   2.892   1.126   0.471 -0.4685 -0.0142  0.5392
12716TIP3    H138091   2.881   1.054   0.533 -0.4458  0.2496  0.8489
12716TIP3    H238092   2.984   1.119   0.442 -0.3156  0.2108  0.9674
12717TIP3   OH238093   3.676   0.616   1.812 -0.2998  0.0906  0.4678
12717TIP3    H138094   3.641   0.609   1.723 -1.2130  0.9043  0.7564
12717TIP3    H238095   3.658   0.530   1.851  2.2220 -1.1778 -0.8252
12718TIP3   OH238096   3.872   3.030   6.650 -0.0601  0.5106 -0.0547
12718TIP3    H138097   3.834   2.956   6.602 -0.0336  0.9609 -0.7848
12718TIP3    H238098   3.799   3.092   6.661 -0.0061  0.5180  0.2696
12719TIP3   OH238099   5.883   4.259   5.876 -0.1349  0.6992  0.1276
12719TIP3    H138100   5.937   4.180   5.882 -1.0868  0.1397  2.2598
12719TIP3    H238101   5.827   4.244   5.800  0.9779  0.1869 -0.6233
12720TIP3   OH238102   3.808   0.143   0.332 -0.0048  0.2215  0.0930
12720TIP3    H138103   3.886   0.097   0.363  0.0220  0.9098  1.0719
12720TIP3    H238104   3.735   0.086   0.357 -0.0634  1.2360  2.3949
12721TIP3   OH238105   7.551   2.588   3.764 -0.2255  0.2897 -0.3753
12721TIP3    H138106   7.614   2.642   3.717 -0.7026  0.0146 -1.3608
12721TIP3    H238107   7.595   2.564   3.846  0.1341  1.8471 -0.0750
12722TIP3   OH238108   3.314   7.490   6.511  0.4434  1.0113 -0.1042
12722TIP3    H138109   3.262   7.424   6.557  0.9425  1.4202  1.1063
12722TIP3    H238110   3.341   7.551   6.580  2.8608  0.5793 -0.5758
12723TIP3   OH238111   4.734   2.568   2.418  0.3141 -0.6097 -0.3559
12723TIP3    H138112   4.819   2.547   2.457 -0.0330  0.0927  0.8538
12723TIP3    H238113   4.719   2.660   2.442 -0.8742 -0.7839 -0.3656
12724TIP3   OH238114   0.974   3.594   6.161  0.3539 -0.5102 -0.5518
12724TIP3    H138115   1.014   3.643   6.232 -3.2924  3.4419 -0.8003
12724TIP3    H238116   1.018   3.626   6.082 -0.4266  0.7105 -0.5213
12725TIP3   OH238117   2.408   3.099   4.020  0.1686 -0.2048  0.2368
12725TIP3    H138118   2.466   3.131   3.951  0.0339 -0.8450 -0.1842
12725TIP3    H238119   2.466   3.056   4.083  0.1660 -0.8041 -0.1604
12726TIP3   OH238120   8.101   4.263   3.358 -0.0230  0.0343  0.5719
12726TIP3    H138121   8.083   4.270   3.264 -1.5886 -0.1673  0.8287
12726TIP3    H238122   8.041   4.326   3.398 -0.3314 -0.8424  1.5241
12727TIP3   OH238123   3.035   5.977   3.102  0.0549  0.6397 -0.2154
12727TIP3    H138124   2.983   5.968   3.022 -0.3391  0.9087  0.0064
12727TIP3    H238125   2.988   6.043   3.153 -0.2216 -0.2090  0.6571
12728TIP3   OH238126   0.454   5.127   0.749  0.3290  0.8913  0.2662
12728TIP3    H138127   0.380   5.072   0.724  0.0030  1.9105 -1.1282
12728TIP3    H238128   0.433   5.155   0.839 -0.8889  1.0031 -0.0261
12729TIP3   OH238129   4.778   5.370   4.065  0.0333 -0.0605  0.2400
12729TIP3    H138130   4.827   5.425   4.004 -0.2787 -0.3674 -0.2878
12729TIP3    H238131   4.701   5.341   4.016 -1.3143  1.3498  1.3902
12730TIP3   OH238132   7.747   4.083   3.437 -0.0944  0.8256  0.6829
12730TIP3    H138133   7.711   4.169   3.460 -0.0078  0.8478  0.7329
12730TIP3    H238134   7.726   4.073   3.344 -0.1444  0.8812  0.6876
12731TIP3   OH238135   7.314   0.766   1.904  0.5511 -0.7802 -0.2895
12731TIP3    H138136   7.287   0.685   1.860  2.1697 -0.8039 -1.3526
12731TIP3    H238137   7.378   0.805   1.844  1.5010  0.1154  1.2376
12732TIP3   OH238138   2.182   7.054   6.388 -0.3415  0.0312  0.6013
12732TIP3    H138139   2.210   7.073   6.298  0.9485  1.2078  1.2108
12732TIP3    H238140   2.229   6.975   6.412  0.1577  0.3220  0.5961
12733TIP3   OH238141   6.836   3.775   5.034 -0.2752 -0.1658 -0.1444
12733TIP3    H138142   6.742   3.791   5.022 -0.4700 -0.1266  1.2227
12733TIP3    H238143   6.865   3.846   5.092  0.2986 -0.9154  0.5117
12734TIP3   OH238144   2.850   3.224   3.306  0.2924 -0.1167  0.1678
12734TIP3    H138145   2.834   3.166   3.380  2.5919 -1.3823 -0.2303
12734TIP3    H238146   2.794   3.300   3.322  1.7189  0.3325  3.9606
12735TIP3   OH238147   5.723   2.332   0.745 -0.4712 -0.1324 -0.4938
12735TIP3    H138148   5.691   2.421   0.757 -1.2330 -0.6371  1.4757
12735TIP3    H238149   5.647   2.282   0.714 -1.0451 -0.8177  1.8616
12736TIP3   OH238150   5.821   4.038   1.750 -0.5294 -0.4173  0.5048
12736TIP3    H138151   5.838   3.960   1.803  0.9235 -1.3950 -1.2571
12736TIP3    H238152   5.807   4.004   1.662  0.7603  1.3308 -0.4316
12737TIP3   OH238153   1.379   5.318   2.079 -0.3824  0.4440 -0.6030
12737TIP3    H138154   1.325   5.254   2.126  0.1447  1.4505  1.5023
12737TIP3    H238155   1.333   5.401   2.090 -0.0561  0.7722 -1.6148
12738TIP3   OH238156   5.486   4.710   5.623 -0.3462  0.1796  0.2880
12738TIP3    H138157   5.475   4.804   5.637 -0.3975  0.3684 -0.9175
12738TIP3    H238158   5.416   4.687   5.561  0.1980 -0.4728 -0.1029
12739TIP3   OH238159   6.598   5.261   2.648  0.3779 -0.7004 -0.1926
12739TIP3    H138160   6.574   5.301   2.565  0.3705 -0.5736 -0.1288
12739TIP3    H238161   6.654   5.187   2.624  0.7349 -0.3982 -0.2827
12740TIP3   OH238162   7.563   3.449   1.278 -0.1474 -0.3712  0.2654
12740TIP3    H138163   7.525   3.414   1.358 -0.9093  0.0266  0.0888
12740TIP3    H238164   7.639   3.393   1.261 -0.3882 -0.8966  0.8792
12741TIP3   OH238165   6.957   2.260   5.473 -0.3450 -0.5035  0.1275
12741TIP3    H138166   6.939   2.354   5.476  2.5708  0.1999 -0.6858
12741TIP3    H238167   6.953   2.238   5.380 -2.0135 -1.4607  0.3986
12742TIP3   OH238168   4.276   3.862   1.475  0.2003  0.4861  0.3563
12742TIP3    H138169   4.191   3.851   1.432  0.1339 -1.2823  0.8876
12742TIP3    H238170   4.340   3.847   1.406  0.1364  2.7596 -0.2736
12743TIP3   OH238171   5.455   4.479   0.752 -0.5288  0.3713 -0.3003
12743TIP3    H138172   5.402   4.510   0.826 -1.4381  1.2216 -1.2781
12743TIP3    H238173   5.403   4.501   0.674 -0.1066 -1.4915 -1.1650
12744TIP3   OH238174   2.202   4.676   5.269  0.4898 -0.6666 -0.1339
12744TIP3    H138175   2.165   4.630   5.193 -0.9434 -0.8148  0.6172
12744TIP3    H238176   2.154   4.758   5.272  1.3617 -0.1473 -0.0542
12745TIP3   OH238177   1.178   1.752   5.908  0.3244 -0.3763 -0.4743
12745TIP3    H138178   1.249   1.814   5.893 -0.2063 -0.1278 -2.2088
12745TIP3    H238179   1.200   1.677   5.853  0.0282 -0.9542  0.1859
12746TIP3   OH238180   0.674   4.543   3.488  0.2218 -0.9433 -0.2376
12746TIP3    H138181   0.748   4.580   3.535  0.3589 -1.5774  0.0650
12746TIP3    H238182   0.630   4.618   3.447 -0.0583 -0.3420  1.1235
12747TIP3   OH238183   6.324   6.921   6.312 -0.1114  0.1639 -0.2686
12747TIP3    H138184   6.318   6.828   6.289  0.2189  0.0250  0.1905
12747TIP3    H238185   6.244   6.939   6.361  0.0617 -0.0124  0.0864
12748TIP3   OH238186   4.818   6.293   4.299 -0.0824  0.5774 -0.5693
12748TIP3    H138187   4.832   6.375   4.251  1.1341 -1.4489 -4.0933
12748TIP3    H238188   4.889   6.290   4.363  0.2476  1.9486 -0.8426
12749TIP3   OH238189   7.421   0.011   0.707  0.3092 -0.2950  0.4432
12749TIP3    H138190   7.496   0.064   0.735 -0.2052  0.1413  1.0433
12749TIP3    H238191   7.374   0.067   0.645  0.1286 -0.3031  0.5707
12750TIP3   OH238192   2.946   1.352   5.430 -1.3388  0.2398 -0.1251
12750TIP3    H138193   3.031   1.397   5.428 -0.8097 -0.7502 -0.6812
12750TIP3    H238194   2.917   1.351   5.339 -0.8116 -1.4896 -0.3010
12751TIP3   OH238195   1.637   6.349   4.172 -0.6430 -0.2441  0.1430
12751TIP3    H138196   1.641   6.435   4.130 -1.1293  0.4162  1.4133
12751TIP3    H238197   1.701   6.296   4.124 -0.0868  0.9199 -0.4338
12752TIP3   OH238198   3.181   3.346   2.751  0.3301  0.5079  0.8411
12752TIP3    H138199   3.122   3.270   2.758 -0.0133  0.6936  0.1037
12752TIP3    H238200   3.253   3.316   2.696 -1.0513  1.4157 -1.6004
12753TIP3   OH238201   4.467   1.867   0.493 -0.1275  0.6616  0.3265
12753TIP3    H138202   4.473   1.892   0.585 -0.0295  2.4246 -0.1202
12753TIP3    H238203   4.400   1.925   0.457 -2.8449 -2.4164  0.0135
12754TIP3   OH238204   2.112   3.002   5.671 -0.5513  0.2439 -0.2698
12754TIP3    H138205   2.072   2.945   5.606 -0.8388  2.3878 -2.0954
12754TIP3    H238206   2.206   2.985   5.663 -0.6274  0.0699 -0.8314
12755TIP3   OH238207   2.831   5.275   6.677  0.6367  0.4729 -0.8411
12755TIP3    H138208   2.836   5.341   6.746  1.1537 -1.0854  0.6531
12755TIP3    H238209   2.849   5.192   6.720  0.1719 -0.6675 -2.7041
12756TIP3   OH238210   4.564   2.026   6.305  0.4616  0.3127 -0.5164
12756TIP3    H138211   4.545   1.935   6.282 -1.1972  0.9364 -1.8669
12756TIP3    H238212   4.491   2.052   6.361  1.8571  0.3345  1.3820
12757TIP3   OH238213   6.142   6.875   2.905 -0.6556 -0.3038  0.0142
12757TIP3    H138214   6.064   6.907   2.950  0.1338 -0.9812  1.9314
12757TIP3    H238215   6.132   6.908   2.815 -2.7229  0.3150  0.4058
12758TIP3   OH238216   7.593   4.204   1.514 -0.0405  0.0699  0.7021
12758TIP3    H138217   7.561   4.163   1.434  0.8774 -0.6694  0.7018
12758TIP3    H238218   7.676   4.246   1.488 -0.4597  1.0673  0.9359
12759TIP3   OH238219   6.793   1.481   4.082  0.7028  0.5360 -0.1181
12759TIP3    H138220   6.721   1.444   4.032  0.8071 -0.3333  0.3448
12759TIP3    H238221   6.752   1.512   4.163  1.1705 -2.6815  1.5257
12760TIP3   OH238222   0.062   3.713   1.079  0.0079 -0.3006 -0.4631
12760TIP3    H138223   0.057   3.653   1.153  0.4948 -2.5294 -2.1300
12760TIP3    H238224  -0.029   3.720   1.049  0.1227 -1.4243 -1.1332
12761TIP3   OH238225   3.607   0.435   5.842 -0.1011 -0.1367 -0.1318
12761TIP3    H138226   3.672   0.398   5.783 -1.4757  0.6060 -2.2013
12761TIP3    H238227   3.658   0.491   5.902  1.1516  0.9359 -2.0944
12762TIP3   OH238228   4.589   0.812   0.754  0.0247  0.3532 -0.6035
12762TIP3    H138229   4.533   0.883   0.723  0.6792  1.9627  1.6723
12762TIP3    H238230   4.563   0.799   0.845  2.1599 -0.0187  0.0038
12763TIP3   OH238231   3.516   0.554   5.317 -0.0944  0.1162  0.3042
12763TIP3    H138232   3.504   0.597   5.402  2.1762  0.6776  0.3943
12763TIP3    H238233   3.433   0.509   5.302 -0.5478 -0.0767  2.8553
12764TIP3   OH238234   4.820   2.131   3.212  0.1215 -0.6239 -0.2117
12764TIP3    H138235   4.831   2.134   3.307 -1.8642 -0.1014  0.0501
12764TIP3    H238236   4.764   2.055   3.197 -1.3159  0.5000 -0.7276
12765TIP3   OH238237   3.451   6.680   2.779 -0.0251 -0.0791 -0.3917
12765TIP3    H138238   3.423   6.750   2.720 -0.8435 -0.2882 -0.2708
12765TIP3    H238239   3.369   6.649   2.819  0.4434 -0.3894  0.3425
12766TIP3   OH238240   3.548   2.493   2.855 -0.0489  0.1107  0.1213
12766TIP3    H138241   3.492   2.518   2.928  0.4039 -0.1879  0.5783
12766TIP3    H238242   3.516   2.407   2.828  0.4485 -0.2473  0.6553
12767TIP3   OH238243   1.977   1.289   3.800 -0.2633 -0.2505  0.0447
12767TIP3    H138244   2.027   1.221   3.846  0.0720 -0.6357 -0.8492
12767TIP3    H238245   2.034   1.366   3.802  0.5086 -0.7502 -1.1591
12768TIP3   OH238246   8.271   4.743   3.767  0.3517  0.0536 -0.6465
12768TIP3    H138247   8.253   4.834   3.789  0.6508 -0.1344  0.4479
12768TIP3    H238248   8.304   4.705   3.849 -1.6395 -1.5342 -0.5026
12769TIP3   OH238249   3.129   6.780   1.078  0.0148 -0.0844  0.1192
12769TIP3    H138250   3.156   6.702   1.029 -2.1232 -1.2840  0.7066
12769TIP3    H238251   3.194   6.787   1.148  1.2366 -0.2690 -0.9465
12770TIP3   OH238252   4.076   6.418   3.510  0.0804  0.1540  0.0559
12770TIP3    H138253   3.982   6.425   3.529 -0.7305 -1.6625 -2.6342
12770TIP3    H238254   4.100   6.331   3.543  0.9587  0.7720  1.0972
12771TIP3   OH238255   3.333   3.970   3.080  0.0622  0.9797 -0.1785
12771TIP3    H138256   3.282   3.960   2.999  0.2174 -0.1003 -0.1642
12771TIP3    H238257   3.360   3.881   3.102  0.4041  1.3174  0.8251
12772TIP3   OH238258   0.393   2.408   5.107  0.2010  0.1611 -0.6204
12772TIP3    H138259   0.312   2.383   5.062 -1.4677  2.5928  0.7768
12772TIP3    H238260   0.460   2.409   5.039 -1.5806  0.9490 -2.4556
12773TIP3   OH238261   5.753   3.002   5.811  0.6258 -0.0643  0.6498
12773TIP3    H138262   5.685   2.966   5.869 -0.9720 -1.7049 -2.0397
12773TIP3    H238263   5.824   2.939   5.815  0.1033 -0.6982  0.1034
12774TIP3   OH238264   6.069   6.433   1.759  0.4477  0.2033 -0.1059
12774TIP3    H138265   6.113   6.518   1.773  1.3554 -0.1601 -0.6207
12774TIP3    H238266   6.036   6.409   1.845 -0.1017  1.2323 -0.0144
12775TIP3   OH238267   0.654   1.791   4.526  0.1712  0.1779  0.3910
12775TIP3    H138268   0.595   1.860   4.493 -0.5466  0.7191  2.6386
12775TIP3    H238269   0.605   1.710   4.513  0.2301  0.2780 -0.5422
12776TIP3   OH238270   1.431   2.916   1.957 -0.3920  0.2435 -0.4370
12776TIP3    H138271   1.497   2.889   2.021 -2.3936  0.1676  1.7597
12776TIP3    H238272   1.352   2.867   1.983 -2.3410  3.1335 -0.5123
12777TIP3   OH238273   3.586   6.827   1.379  0.5204 -0.4997 -0.1832
12777TIP3    H138274   3.652   6.837   1.311  2.1419 -1.6996  1.1279
12777TIP3    H238275   3.565   6.733   1.380  1.0235 -0.6284  1.3684
12778TIP3   OH238276   2.517   0.337   2.370  0.2259 -0.1258 -0.0998
12778TIP3    H138277   2.435   0.339   2.419  0.8624 -1.5339  1.1319
12778TIP3    H238278   2.493   0.307   2.283 -0.6241 -0.1016  0.1222
12779TIP3   OH238279   0.302   4.217   6.053 -0.0729  0.1035  0.4313
12779TIP3    H138280   0.270   4.307   6.041 -0.3181 -0.1746 -1.2405
12779TIP3    H238281   0.238   4.177   6.112 -0.7551  0.6230  0.0633
12780TIP3   OH238282   7.219   1.685   0.756  0.3132 -0.3460  0.2933
12780TIP3    H138283   7.258   1.762   0.797  1.1541 -0.0574 -0.9716
12780TIP3    H238284   7.182   1.717   0.674 -1.0092 -0.9639  0.6334
12781TIP3   OH238285   4.301   4.803   2.849  0.3787 -0.4858 -0.0411
12781TIP3    H138286   4.279   4.892   2.822 -0.6432 -0.6974  0.0814
12781TIP3    H238287   4.396   4.797   2.834  0.3478  0.3976 -0.6761
12782TIP3   OH238288   2.504   2.827   5.496 -0.0067  0.2468  0.3033
12782TIP3    H138289   2.523   2.852   5.406  0.0954  1.7882  0.7280
12782TIP3    H238290   2.541   2.739   5.505 -0.8830 -0.3350 -1.4300
12783TIP3   OH238291   7.363   2.809   5.407 -0.1809 -0.1929  0.4624
12783TIP3    H138292   7.332   2.721   5.428 -1.6894  0.4782  1.1962
12783TIP3    H238293   7.311   2.836   5.331 -0.7210  0.5719  1.0848
12784TIP3   OH238294   7.870   5.244   0.545  0.0886  0.4336 -0.1425
12784TIP3    H138295   7.837   5.154   0.554  0.0931  0.3550 -0.8730
12784TIP3    H238296   7.933   5.240   0.473 -0.3809  1.1460 -0.6065
12785TIP3   OH238297   4.346   5.876   1.090 -0.2595  0.0028  0.0479
12785TIP3    H138298   4.425   5.828   1.115 -0.7419  0.4303  2.6663
12785TIP3    H238299   4.302   5.819   1.027  1.8276 -0.4742 -1.0774
12786TIP3   OH238300   0.673   0.176   0.521  0.2552 -0.2520 -0.0932
12786TIP3    H138301   0.658   0.261   0.478  0.8565 -1.4992 -3.0545
12786TIP3    H238302   0.604   0.120   0.486  0.1991 -1.1681  1.4120
12787TIP3   OH238303   3.740   5.030   3.548 -0.4130 -0.4501 -0.3225
12787TIP3    H138304   3.718   5.063   3.635 -2.3587 -0.3196 -0.8305
12787TIP3    H238305   3.743   5.109   3.493 -1.1521 -0.7129 -0.7536
12788TIP3   OH238306   5.289   6.758   0.340  0.2813 -0.4087 -0.4599
12788TIP3    H138307   5.229   6.691   0.374  0.8493 -1.4003 -1.3798
12788TIP3    H238308   5.233   6.817   0.290  0.1237 -1.7388 -1.9313
12789TIP3   OH238309   0.933   1.020   0.413 -0.0920 -0.2701  0.5033
12789TIP3    H138310   0.903   1.055   0.497  0.6820  1.0384  0.2755
12789TIP3    H238311   0.974   1.095   0.370  1.0797 -1.3318 -0.3123
12790TIP3   OH238312   2.388   6.849   4.616 -0.6073  0.1765  0.1246
12790TIP3    H138313   2.361   6.757   4.606 -1.2706  0.3895 -0.1029
12790TIP3    H238314   2.337   6.881   4.690 -0.2750  0.3279  0.2886
12791TIP3   OH238315   0.761   1.410   6.724 -0.1185 -0.2148  0.3748
12791TIP3    H138316   0.845   1.447   6.752  0.2535 -0.0334 -0.9181
12791TIP3    H238317   0.758   1.427   6.630 -0.6622 -2.0682  0.0320
12792TIP3   OH238318   7.557   5.851   0.843  0.7711 -0.3829 -0.4746
12792TIP3    H138319   7.646   5.854   0.808  1.3687  1.8641  1.0253
12792TIP3    H238320   7.551   5.927   0.900 -1.7385 -1.1603  0.4420
12793TIP3   OH238321   1.567   6.726   3.631 -0.2432 -0.2630  0.3375
12793TIP3    H138322   1.552   6.769   3.715  1.3850  0.8357  0.1111
12793TIP3    H238323   1.570   6.797   3.568  1.7491 -0.7163 -0.1567
12794TIP3   OH238324   3.612   4.648   2.481  0.3206 -0.1998 -0.1673
12794TIP3    H138325   3.576   4.737   2.483 -0.3538 -0.4688 -0.2970
12794TIP3    H238326   3.707   4.661   2.473  0.1306  0.5027 -1.5330
12795TIP3   OH238327   7.301   6.131   4.966 -0.2509  0.0173  0.0731
12795TIP3    H138328   7.334   6.220   4.957  0.6085 -0.2134  0.7880
12795TIP3    H238329   7.354   6.080   4.903  0.7169 -0.3365  1.1454
12796TIP3   OH238330   5.100   5.850   0.446 -0.6530  0.0413  0.0278
12796TIP3    H138331   5.080   5.914   0.515 -0.7739 -0.2983  0.3116
12796TIP3    H238332   5.022   5.850   0.391  0.0490  1.4649 -1.0278
12797TIP3   OH238333   0.456   0.552   3.034  0.3397 -0.6027  0.8660
12797TIP3    H138334   0.417   0.612   2.971 -0.9106 -0.4659  1.7437
12797TIP3    H238335   0.525   0.507   2.985  0.9140  1.0999  0.0237
12798TIP3   OH238336   2.941   4.538   2.110  0.2175  0.3396 -0.1864
12798TIP3    H138337   2.984   4.467   2.063  0.1938 -0.5186  1.0326
12798TIP3    H238338   2.877   4.573   2.048  1.5907  0.6241 -1.4930
12799TIP3   OH238339   7.863   3.232   2.275 -0.2305  0.0702 -0.0191
12799TIP3    H138340   7.894   3.319   2.298  0.0837 -0.4828  1.8235
12799TIP3    H238341   7.841   3.191   2.359 -0.4742 -1.5892 -0.8424
12800TIP3   OH238342   6.639   7.641   4.326 -0.2099 -0.5323 -0.0355
12800TIP3    H138343   6.643   7.556   4.371  0.6920 -0.5218 -0.0801
12800TIP3    H238344   6.554   7.641   4.283  0.3260 -1.9967 -1.1733
12801TIP3   OH238345   1.095   5.946   3.186  0.2509  0.1708  0.5087
12801TIP3    H138346   1.010   5.902   3.176  0.6094 -0.6824  1.0965
12801TIP3    H238347   1.153   5.878   3.219  1.3359  0.5918 -0.4939
12802TIP3   OH238348   1.560   0.164   3.541  0.0720 -0.1443  0.1985
12802TIP3    H138349   1.565   0.163   3.445  1.9829  0.1337  0.2492
12802TIP3    H238350   1.607   0.085   3.567 -0.8459 -0.4628  0.9074
12803TIP3   OH238351   7.481   2.862   3.980 -0.0265  0.0651 -0.5925
12803TIP3    H138352   7.430   2.904   3.910  0.7351  0.6702 -0.7898
12803TIP3    H238353   7.568   2.849   3.942  1.2533  2.8803  1.0773
12804TIP3   OH238354   4.832   3.717   1.290  0.4792 -0.2106  0.1967
12804TIP3    H138355   4.805   3.641   1.342 -2.3439  0.0928 -0.6595
12804TIP3    H238356   4.857   3.782   1.355  0.5931 -1.0548  1.0304
12805TIP3   OH238357   6.555   1.880   2.645 -0.2579 -0.2557 -0.1029
12805TIP3    H138358   6.603   1.932   2.582 -0.0136 -0.9933 -0.5377
12805TIP3    H238359   6.608   1.801   2.657 -0.8827 -0.6503  0.1304
12806TIP3   OH238360   5.351   5.161   5.317  0.0560  0.1509  0.0320
12806TIP3    H138361   5.393   5.084   5.278  1.6132  0.1104  1.6227
12806TIP3    H238362   5.304   5.126   5.393  1.1459  0.7597  1.0326
12807TIP3   OH238363   0.186   6.891   4.009 -0.0315  0.5164 -0.3882
12807TIP3    H138364   0.221   6.821   3.954 -1.9179 -1.6636  1.0344
12807TIP3    H238365   0.229   6.879   4.094 -1.2056  0.3480  0.1922
12808TIP3   OH238366   6.074   1.633   1.332  0.0579 -0.9082 -0.0363
12808TIP3    H138367   6.089   1.728   1.327  0.8782 -0.9054  1.5115
12808TIP3    H238368   6.148   1.601   1.385 -2.5250 -1.7156  3.4783
12809TIP3   OH238369   4.267   5.924   5.770  0.0044  0.4836 -0.3059
12809TIP3    H138370   4.185   5.921   5.818 -1.1048 -0.2387 -2.1614
12809TIP3    H238371   4.326   5.867   5.820 -0.8935  0.2700  0.5419
12810TIP3   OH238372   2.130   1.192   6.472 -0.8513  0.6048 -0.7163
12810TIP3    H138373   2.102   1.181   6.381 -0.4963 -2.0263 -0.5682
12810TIP3    H238374   2.154   1.104   6.501 -1.9489  1.1812  2.2767
12811TIP3   OH238375   3.786   6.540   0.595 -0.6217 -1.0337 -0.4126
12811TIP3    H138376   3.852   6.572   0.657 -1.6504 -0.8945  0.6393
12811TIP3    H238377   3.750   6.462   0.637  0.3605 -2.3999 -1.9835
12812TIP3   OH238378   8.116   4.677   0.950  0.2849 -0.1295 -0.0602
12812TIP3    H138379   8.047   4.668   0.885  1.2429 -0.8986 -0.9967
12812TIP3    H238380   8.154   4.763   0.932 -0.5823  0.4330  0.6533
12813TIP3   OH238381   2.410   4.381   3.200 -0.3669  0.2969 -0.3978
12813TIP3    H138382   2.401   4.475   3.183  0.5042  0.2363 -1.2789
12813TIP3    H238383   2.501   4.361   3.179 -0.7094 -0.8766 -0.8917
12814TIP3   OH238384   7.218   5.607   0.525  0.1648  0.3033 -0.0872
12814TIP3    H138385   7.159   5.680   0.509 -2.6964 -1.9817 -1.0295
12814TIP3    H238386   7.255   5.624   0.612 -1.0163  2.4198  0.0736
12815TIP3   OH238387   5.219   2.111   4.160 -0.6384 -0.0850 -0.4738
12815TIP3    H138388   5.131   2.078   4.140 -1.3404  0.8114  0.9619
12815TIP3    H238389   5.209   2.159   4.242  1.6787 -2.0495  1.1089
12816TIP3   OH238390   1.643   7.229   0.421 -0.2289 -0.0914  0.4434
12816TIP3    H138391   1.682   7.269   0.499  0.2676 -0.4102  0.3654
12816TIP3    H238392   1.693   7.149   0.408  0.2153  0.3494 -0.6707
12817TIP3   OH238393   5.430   5.014   5.686 -0.3994  0.1217 -0.8254
12817TIP3    H138394   5.362   5.033   5.751 -0.3477  1.0554 -1.0359
12817TIP3    H238395   5.447   5.098   5.643  2.7123  0.5787  0.9561
12818TIP3   OH238396   5.258   6.664   1.720 -0.4780  0.1752  0.0591
12818TIP3    H138397   5.212   6.692   1.799 -1.2698  0.9814 -0.6709
12818TIP3    H238398   5.283   6.573   1.738  1.9525  1.1644  2.4032
12819TIP3   OH238399   4.063   2.274   0.631  0.0124  0.0525 -0.4010
12819TIP3    H138400   4.155   2.256   0.652  0.5287  1.4660 -1.3198
12819TIP3    H238401   4.027   2.313   0.710 -0.0782 -1.3425  0.2827
12820TIP3   OH238402   1.883   4.563   0.116 -0.7334 -1.0140  0.0703
12820TIP3    H138403   1.885   4.547   0.022 -2.5400 -0.8067 -0.0235
12820TIP3    H238404   1.835   4.489   0.152 -2.2531  0.1507  0.5247
12821TIP3   OH238405   6.350   0.653   5.045  0.2277  0.3105  0.5674
12821TIP3    H138406   6.289   0.648   4.972  0.8954  0.2470  0.0055
12821TIP3    H238407   6.334   0.573   5.096 -0.6388  0.6371  0.8210
12822TIP3   OH238408   5.641   1.414   5.480 -0.5335 -0.2373 -0.2749
12822TIP3    H138409   5.603   1.455   5.558 -0.8347 -1.4732  0.2498
12822TIP3    H238410   5.715   1.363   5.513  0.5891  0.8110 -1.0761
12823TIP3   OH238411   5.001   7.593   0.753 -0.3301  0.0405  0.3267
12823TIP3    H138412   4.995   7.560   0.663  1.3180 -0.0772  0.2251
12823TIP3    H238413   4.987   7.687   0.745  2.2323  0.4227 -0.4536
12824TIP3   OH238414   5.927   3.119   5.417  0.3275 -0.6106  0.4137
12824TIP3    H138415   5.985   3.046   5.395  0.5864  0.0183 -1.1482
12824TIP3    H238416   5.844   3.098   5.373  0.8672  0.6984 -1.3523
12825TIP3   OH238417   5.161   0.802   2.474 -0.0279  0.1303  0.2433
12825TIP3    H138418   5.112   0.865   2.527 -2.2544 -0.7503 -0.6581
12825TIP3    H238419   5.110   0.794   2.393  2.1571 -0.1269 -1.1963
12826TIP3   OH238420   1.898   0.486   3.057  0.0059  0.5334 -0.3829
12826TIP3    H138421   1.897   0.582   3.055  0.1252  0.5202 -1.2518
12826TIP3    H238422   1.817   0.460   3.013  1.0634  0.2314 -2.2565
12827TIP3   OH238423   4.519   6.566   4.195  0.4952  0.4174  0.7027
12827TIP3    H138424   4.573   6.520   4.259  0.0844 -0.1439  0.6543
12827TIP3    H238425   4.431   6.567   4.233  0.1602 -0.2935 -0.0334
12828TIP3   OH238426   2.123   7.430   0.431 -0.4190 -0.1084  0.1087
12828TIP3    H138427   2.084   7.351   0.394 -1.8738  0.2054  0.8696
12828TIP3    H238428   2.049   7.476   0.470  0.7463  0.5762  1.5841
12829TIP3   OH238429   0.989   3.649   2.631 -0.5948  0.2295  0.0439
12829TIP3    H138430   0.921   3.582   2.636 -0.8230  0.5204  0.8965
12829TIP3    H238431   0.968   3.699   2.552  0.3342 -1.5005 -1.3968
12830TIP3   OH238432   6.596   7.441   2.036  0.0321  0.5692 -0.1501
12830TIP3    H138433   6.566   7.467   2.124  1.6717 -2.0060  1.3034
12830TIP3    H238434   6.692   7.448   2.041  0.1986 -0.4836 -1.4256
12831TIP3   OH238435   0.635   7.301   0.207  0.4730  0.0846 -0.1904
12831TIP3    H138436   0.637   7.355   0.128 -0.5407 -0.0571 -0.3229
12831TIP3    H238437   0.725   7.268   0.215  0.7350  0.5816 -0.9450
12832TIP3   OH238438   2.403   1.801   4.126  0.3177  0.2094 -0.0912
12832TIP3    H138439   2.442   1.746   4.194  0.5708 -0.9427 -1.1374
12832TIP3    H238440   2.420   1.890   4.156 -1.6354 -0.1606  2.5515
12833TIP3   OH238441   5.724   3.583   3.088  0.4614  0.0413  0.1965
12833TIP3    H138442   5.794   3.645   3.105  1.5635 -1.7010  2.5492
12833TIP3    H238443   5.749   3.540   3.006  1.5544  0.2296  0.4186
12834TIP3   OH238444   6.463   4.641   5.400  0.5840 -0.2068 -0.0513
12834TIP3    H138445   6.521   4.678   5.333  0.8495 -0.5507 -0.0125
12834TIP3    H238446   6.517   4.637   5.479  0.1022  0.7335  0.3445
12835TIP3   OH238447   1.584   3.288   1.988  0.2585  0.4720  0.0040
12835TIP3    H138448   1.643   3.213   1.989 -0.2951  0.0162  1.3144
12835TIP3    H238449   1.640   3.364   2.000  0.8210  0.2836 -1.2766
12836TIP3   OH238450   2.421   0.233   0.903 -0.0889  0.1920  0.1168
12836TIP3    H138451   2.397   0.287   0.827 -0.0401 -1.0911 -0.8382
12836TIP3    H238452   2.513   0.256   0.920  0.3452 -0.5489 -1.1351
12837TIP3   OH238453   5.440   0.443   3.944  0.2516  0.1592  0.2367
12837TIP3    H138454   5.502   0.370   3.943 -0.7561 -0.7248 -0.5053
12837TIP3    H238455   5.465   0.498   3.871 -0.6113 -0.9103 -0.9121
12838TIP3   OH238456   2.513   0.178   4.906  0.0018 -0.1568  0.2182
12838TIP3    H138457   2.493   0.093   4.868 -1.2536  0.2753 -0.1352
12838TIP3    H238458   2.456   0.183   4.984  2.4553 -1.0034  2.2148
12839TIP3   OH238459   8.126   6.759   2.777  0.2315 -0.5163 -0.3643
12839TIP3    H138460   8.096   6.850   2.773  0.8038 -0.2815  0.3962
12839TIP3    H238461   8.056   6.713   2.822  0.2184 -0.3255 -0.1876
12840TIP3   OH238462   5.791   6.641   5.051 -0.4526  0.6664 -0.2652
12840TIP3    H138463   5.770   6.730   5.081  1.0715  0.7940  0.5090
12840TIP3    H238464   5.873   6.651   5.002 -0.5514 -0.2384 -0.6227
12841TIP3   OH238465   5.761   0.573   3.804 -0.4010  0.4426 -0.2465
12841TIP3    H138466   5.712   0.493   3.784 -1.1885  1.0059 -0.6182
12841TIP3    H238467   5.791   0.560   3.894  0.6238 -0.8326 -0.7431
12842TIP3   OH238468   0.606   3.443   0.662  0.3399  0.1078 -0.4998
12842TIP3    H138469   0.555   3.523   0.675  1.6924  0.8148  0.7666
12842TIP3    H238470   0.676   3.449   0.728  0.3781 -2.1976 -0.2687
12843TIP3   OH238471   6.323   1.126   2.503  0.0373 -0.8540  0.1012
12843TIP3    H138472   6.324   1.033   2.529  1.5160 -0.3362  2.1521
12843TIP3    H238473   6.380   1.169   2.566 -0.6021  1.4874 -0.8139
12844TIP3   OH238474   4.457   0.226   6.187  0.2010 -0.3433 -0.6409
12844TIP3    H138475   4.541   0.181   6.197 -0.9969 -3.0708 -1.9575
12844TIP3    H238476   4.396   0.158   6.160 -1.7885  2.0862 -2.7694
12845TIP3   OH238477   3.050  -0.006   2.308  0.3458 -0.1124 -0.0311
12845TIP3    H138478   2.960   0.003   2.341  0.1409 -1.4528 -0.1654
12845TIP3    H238479   3.103   0.046   2.369 -0.4234  0.0924  0.4819
12846TIP3   OH238480   1.134   0.866   4.000  0.4203 -0.3731 -0.6559
12846TIP3    H138481   1.160   0.811   3.926  0.3406  0.8047 -1.5989
12846TIP3    H238482   1.064   0.817   4.043  1.3096 -1.6474 -0.5982
12847TIP3   OH238483   7.900   3.573   2.345  1.0031  0.0766  0.3322
12847TIP3    H138484   7.816   3.529   2.354  0.9352  0.3310  1.0286
12847TIP3    H238485   7.892   3.623   2.264  0.6242 -0.2029  0.1940
12848TIP3   OH238486   6.648   5.214   5.527  0.3335  0.2977  0.0873
12848TIP3    H138487   6.575   5.200   5.467  0.7622  0.5769 -0.5043
12848TIP3    H238488   6.723   5.232   5.471  0.3513  2.5395  0.7150
12849TIP3   OH238489   6.322   5.086   3.207 -0.5638  0.2794 -0.7637
12849TIP3    H138490   6.280   5.157   3.158 -2.6325 -0.0199  0.4802
12849TIP3    H238491   6.356   5.128   3.286 -0.9267  0.0567 -0.4878
12850TIP3   OH238492   7.036   5.479   5.863 -0.7110 -0.1013 -0.1714
12850TIP3    H138493   7.113   5.443   5.818 -0.1988 -1.1821  1.4699
12850TIP3    H238494   6.982   5.402   5.881  0.6474 -0.3215  3.9009
12851TIP3   OH238495   5.417   5.748   3.594  0.0283  0.5284 -0.7307
12851TIP3    H138496   5.509   5.756   3.570  0.3443  0.2809  0.3805
12851TIP3    H238497   5.417   5.720   3.685 -1.1506  0.5656 -0.6965
12852TIP3   OH238498   0.437   0.234   5.339  0.0067  0.3764 -0.0261
12852TIP3    H138499   0.449   0.320   5.379 -1.1093 -1.5879  5.3906
12852TIP3    H238500   0.348   0.238   5.302 -0.3466  1.3502  0.8625
12853TIP3   OH238501   1.961   5.577   5.787  0.8484  0.1542 -0.0298
12853TIP3    H138502   1.905   5.503   5.812 -0.3023  1.5674  1.8059
12853TIP3    H238503   2.043   5.562   5.835 -0.2666  1.2707  2.3741
12854TIP3   OH238504   4.420   7.635   5.114 -0.5014  0.5605  0.5064
12854TIP3    H138505   4.368   7.555   5.124 -1.7557  1.1606 -0.8825
12854TIP3    H238506   4.510   7.608   5.136 -0.5051 -1.7413 -1.8637
12855TIP3   OH238507   7.175   0.438   1.108 -0.0615 -0.4370  0.1024
12855TIP3    H138508   7.089   0.441   1.148 -0.0792 -1.9364  0.2382
12855TIP3    H238509   7.206   0.529   1.110 -2.8961  0.7743 -2.8162
12856TIP3   OH238510   1.154   3.161   0.419  0.2047  0.1729  0.4023
12856TIP3    H138511   1.233   3.108   0.423 -0.3532 -0.5983  1.7340
12856TIP3    H238512   1.180   3.239   0.371  1.2541 -0.9386 -0.9232
12857TIP3   OH238513   4.918   6.200   2.991  0.2269  0.2641  0.2328
12857TIP3    H138514   4.852   6.268   3.003 -0.0718 -0.3706  2.6357
12857TIP3    H238515   4.886   6.126   3.043  1.8775 -0.7581 -0.1380
12858TIP3   OH238516   6.120   3.023   4.883 -0.3652 -0.1962  0.2917
12858TIP3    H138517   6.216   3.031   4.888 -0.4683  0.8520  0.9057
12858TIP3    H238518   6.094   2.989   4.968 -0.6866  1.3128  0.8146
12859TIP3   OH238519   5.121   0.580   5.563 -0.1212  0.3295 -0.5322
12859TIP3    H138520   5.149   0.625   5.643  1.3085  1.8682 -1.8286
12859TIP3    H238521   5.077   0.648   5.512 -0.7380 -0.5538 -1.2100
12860TIP3   OH238522   2.239   6.890   1.168  0.5540 -0.2853  0.0528
12860TIP3    H138523   2.202   6.974   1.140 -1.8696 -0.8584  1.2325
12860TIP3    H238524   2.179   6.824   1.133  1.1431 -1.3910  1.0487
12861TIP3   OH238525   0.829   2.900   4.202  0.8141 -0.4369 -0.3139
12861TIP3    H138526   0.881   2.879   4.124  0.3886 -1.6112 -0.3009
12861TIP3    H238527   0.879   2.969   4.245  2.1846 -1.2488 -0.5129
12862TIP3   OH238528   6.477   0.028   0.997  0.1711  0.3620 -0.1675
12862TIP3    H138529   6.491  -0.035   1.068 -1.0160 -1.9255 -1.8597
12862TIP3    H238530   6.415   0.091   1.033 -0.0261 -0.4619  0.9828
12863TIP3   OH238531   4.747   0.013   2.776  0.1420  0.3758 -0.3525
12863TIP3    H138532   4.820   0.051   2.825 -0.9652  0.6838  1.1307
12863TIP3    H238533   4.682  -0.008   2.843 -0.3039 -1.8342 -1.3958
12864TIP3   OH238534   4.505   7.181   3.314  0.5768  0.2292 -0.2301
12864TIP3    H138535   4.449   7.258   3.326 -0.7815 -0.5320 -1.4051
12864TIP3    H238536   4.467   7.134   3.240  2.2275 -0.8443 -0.4615
12865TIP3   OH238537   1.966   4.898   1.942  0.1986 -0.5293 -0.6141
12865TIP3    H138538   1.880   4.925   1.912  0.6485  1.7630 -0.0709
12865TIP3    H238539   1.998   4.973   1.993  1.6812 -2.1099  0.9092
12866TIP3   OH238540   5.619   5.490   3.493  0.0803  0.1598  0.2885
12866TIP3    H138541   5.550   5.476   3.557  1.3926  1.1504  2.0141
12866TIP3    H238542   5.605   5.579   3.461  1.6084  1.1128  2.0978
12867TIP3   OH238543   0.893   4.784   0.730  0.2160 -0.3067  0.6069
12867TIP3    H138544   0.902   4.766   0.824  0.3373 -0.1669  0.6228
12867TIP3    H238545   0.819   4.731   0.703  0.3672 -0.5797  0.7193
12868TIP3   OH238546   5.446   7.348   3.523  0.3524  0.1978 -0.3432
12868TIP3    H138547   5.462   7.437   3.556 -0.9878  0.5606 -0.5888
12868TIP3    H238548   5.461   7.355   3.429  0.8298  0.0191 -0.2789
12869TIP3   OH238549   5.932   5.402   4.853 -0.1750 -0.0643 -0.1313
12869TIP3    H138550   5.881   5.372   4.929  0.6950 -1.7695 -0.1576
12869TIP3    H238551   5.884   5.478   4.820 -0.9606  0.2871  1.6942
12870TIP3   OH238552   3.086   0.651   0.757  0.1959  0.5181  0.0314
12870TIP3    H138553   3.089   0.642   0.852 -0.0912  1.2589  0.1202
12870TIP3    H238554   3.133   0.733   0.739 -0.7429  0.9943 -0.3492
12871TIP3   OH238555   1.218   1.914   0.840  0.9033  0.0754  0.1711
12871TIP3    H138556   1.225   2.006   0.866 -1.7323  0.6269 -0.7729
12871TIP3    H238557   1.239   1.913   0.747 -0.1484 -0.0568 -0.0798
12872TIP3   OH238558   1.147   6.234   3.305  0.1490 -0.4341 -0.5786
12872TIP3    H138559   1.168   6.144   3.331  0.4453 -0.1052  0.3644
12872TIP3    H238560   1.129   6.279   3.388 -1.3523  0.0450 -1.1269
12873TIP3   OH238561   0.251   6.058   0.297 -0.3694  0.0151  0.4365
12873TIP3    H138562   0.170   6.010   0.281 -0.3047 -0.4421  1.3956
12873TIP3    H238563   0.222   6.141   0.335 -0.5681  1.4174 -2.5002
12874TIP3   OH238564   4.720   6.338   1.829 -0.3898 -0.3506  0.5148
12874TIP3    H138565   4.675   6.356   1.746 -2.6085 -1.9949  1.2597
12874TIP3    H238566   4.657   6.288   1.880  1.5945 -0.9988  2.5041
12875TIP3   OH238567   4.094   0.760   4.715  0.1933 -0.1828  0.3977
12875TIP3    H138568   4.154   0.719   4.777 -1.1915 -0.8969  1.3085
12875TIP3    H238569   4.027   0.693   4.698  0.1513  0.2473 -1.3367
12876TIP3   OH238570   2.986   7.010   5.816 -0.2027  0.7262  0.0076
12876TIP3    H138571   3.071   7.032   5.778 -0.4334 -0.1238 -1.0337
12876TIP3    H238572   3.007   6.958   5.894  0.2357 -0.3566 -0.8097
12877TIP3   OH238573   7.553   7.023   4.759 -0.0010 -0.1675  0.4427
12877TIP3    H138574   7.594   7.025   4.845 -0.3456 -1.1544  0.6498
12877TIP3    H238575   7.476   6.966   4.771 -0.1144 -0.2232 -0.4859
12878TIP3   OH238576   8.049   5.891   6.666 -0.3016  0.2202  0.0120
12878TIP3    H138577   8.144   5.907   6.660 -0.1425 -0.3241  0.8718
12878TIP3    H238578   8.026   5.917   6.755 -0.5101 -1.7844  0.5922
12879TIP3   OH238579   5.320   6.292   4.364  0.0187 -0.1877 -0.0520
12879TIP3    H138580   5.346   6.347   4.290 -1.2282  1.7447  0.8707
12879TIP3    H238581   5.365   6.331   4.439 -0.9784 -0.3575  0.6491
12880TIP3   OH238582   2.361   2.203   6.745  0.6159  0.0076 -0.0416
12880TIP3    H138583   2.300   2.226   6.676  0.2135 -0.2341  0.2317
12880TIP3    H238584   2.444   2.185   6.700  0.0658 -1.2787 -0.5750
12881TIP3   OH238585   6.621   1.285   3.432 -0.5770 -0.5833 -0.2962
12881TIP3    H138586   6.642   1.377   3.447 -1.8606 -0.4865  1.1873
12881TIP3    H238587   6.693   1.237   3.472  0.2765 -0.2457 -1.3842
12882TIP3   OH238588   4.806   5.261   4.455 -0.0469 -0.6384  0.2758
12882TIP3    H138589   4.873   5.300   4.512 -1.1121  0.7245  0.6571
12882TIP3    H238590   4.849   5.184   4.417  1.3792 -0.4060  1.3123
12883TIP3   OH238591   7.073   2.080   4.115  0.1483 -0.1274  0.1724
12883TIP3    H138592   6.994   2.026   4.107 -0.6112  1.1700 -1.4629
12883TIP3    H238593   7.041   2.170   4.112  1.7027  0.4230 -0.8345
12884TIP3   OH238594   6.071   5.154   0.963  0.6352 -0.1762 -0.4774
12884TIP3    H138595   6.020   5.103   0.900  0.4391  1.2768 -1.5581
12884TIP3    H238596   6.043   5.122   1.048 -0.0927 -1.2685 -1.1010
12885TIP3   OH238597   6.984   2.955   6.063 -0.3345  0.2083  0.0993
12885TIP3    H138598   6.985   3.041   6.106  0.1018  0.8618 -1.1468
12885TIP3    H238599   6.977   2.976   5.970  1.2653 -1.0683 -0.3401
12886TIP3   OH238600   2.493   0.604   4.408 -0.0883  0.3409  0.2087
12886TIP3    H138601   2.531   0.523   4.371 -2.4864 -0.3454 -0.9825
12886TIP3    H238602   2.462   0.578   4.494  1.6338  0.7994  1.0171
12887TIP3   OH238603   5.501   6.996   1.632 -0.0601 -0.6192 -0.4723
12887TIP3    H138604   5.523   6.909   1.665  1.6505 -0.3139 -0.7379
12887TIP3    H238605   5.443   7.032   1.699 -0.2612 -1.7127 -0.0378
12888TIP3   OH238606   3.421   1.873   4.877 -0.2115  0.4816 -0.1256
12888TIP3    H138607   3.367   1.854   4.800 -0.1406  1.3987 -0.4086
12888TIP3    H238608   3.423   1.968   4.883  2.5019  0.5765 -0.9797
12889TIP3   OH238609   1.367   2.967   0.822 -0.1787 -0.1799 -0.9630
12889TIP3    H138610   1.297   2.906   0.799  0.1357 -0.4991 -1.0735
12889TIP3    H238611   1.447   2.916   0.815  0.0021 -0.0681  0.0486
12890TIP3   OH238612   5.886   4.737   4.552 -0.7414 -0.0818 -0.1873
12890TIP3    H138613   5.798   4.700   4.542 -0.4093 -0.9206 -0.1675
12890TIP3    H238614   5.931   4.674   4.608  0.7456 -1.2146 -2.5012
12891TIP3   OH238615   6.002   6.076   5.486 -0.1102  0.1930 -0.5454
12891TIP3    H138616   6.007   5.980   5.482 -1.0143  0.0923  0.4568
12891TIP3    H238617   6.092   6.104   5.501  0.3110 -0.4306 -1.7306
12892TIP3   OH238618   7.608   2.864   0.996 -0.0692 -0.1910 -0.2292
12892TIP3    H138619   7.643   2.801   1.060  0.3224  1.1274  0.9091
12892TIP3    H238620   7.684   2.895   0.948  0.1027  1.1213  0.8215
12893TIP3   OH238621   3.470   4.267   5.595  0.3063 -0.1754  0.1325
12893TIP3    H138622   3.535   4.212   5.639  0.2569 -0.3909 -0.0654
12893TIP3    H238623   3.472   4.239   5.504  0.8626  0.7093 -0.1311
12894TIP3   OH238624   3.962   3.191   2.812 -0.1389  0.7369  0.0773
12894TIP3    H138625   3.955   3.123   2.745  1.1356 -0.0543  0.7054
12894TIP3    H238626   3.872   3.206   2.840 -0.8133  1.5982 -2.2569
12895TIP3   OH238627   0.511   0.718   4.776 -0.2819 -0.3223  0.2264
12895TIP3    H138628   0.544   0.635   4.740 -2.6481 -2.1973  1.9878
12895TIP3    H238629   0.484   0.695   4.865 -1.4311  2.2862  0.6152
12896TIP3   OH238630   4.657   3.344   5.579  0.1341  0.3882 -0.4997
12896TIP3    H138631   4.723   3.280   5.553 -0.4241 -0.3994 -0.0275
12896TIP3    H238632   4.574   3.305   5.553 -0.1818  1.1713 -0.6972
12897TIP3   OH238633   7.057   5.823   0.516  0.0096 -0.2984  0.2961
12897TIP3    H138634   7.040   5.917   0.519  1.0215 -0.0979 -0.1054
12897TIP3    H238635   6.975   5.783   0.545 -0.1136  0.7298  1.4396
12898TIP3   OH238636   3.342   3.011   5.504 -0.3729 -0.2501  0.0843
12898TIP3    H138637   3.428   3.025   5.464 -1.1114  1.9379 -0.8595
12898TIP3    H238638   3.361   2.996   5.596  1.0099  0.4034 -0.0702
12899TIP3   OH238639   5.397   3.874   5.383  0.0967  0.2201 -0.7424
12899TIP3    H138640   5.374   3.850   5.473  2.3430 -0.8409 -0.4005
12899TIP3    H238641   5.491   3.889   5.385  0.1295  0.6024 -2.8491
12900TIP3   OH238642   7.004   1.933   3.209  0.4781  0.3737  0.3557
12900TIP3    H138643   6.949   1.951   3.286 -0.3440 -0.0153 -0.1323
12900TIP3    H238644   7.094   1.946   3.241  0.0565  3.3840  0.5519
12901TIP3   OH238645   3.343   0.456   6.783 -0.5966 -0.0747 -0.1695
12901TIP3    H138646   3.357   0.453   6.688 -0.5529  1.4371 -0.2222
12901TIP3    H238647   3.422   0.496   6.818 -0.7113 -0.4152  0.4999
12902TIP3   OH238648   1.906   6.793   4.585 -0.4038  0.1966 -0.6654
12902TIP3    H138649   1.950   6.873   4.554  1.5092 -0.1216  1.0348
12902TIP3    H238650   1.912   6.732   4.511  1.1933  0.4933 -0.8060
12903TIP3   OH238651   7.699   6.926   0.623 -0.4328  0.5957  0.4183
12903TIP3    H138652   7.725   6.834   0.627  1.5510  1.0796 -0.2256
12903TIP3    H238653   7.651   6.933   0.540  3.1039  0.8889 -1.8243
12904TIP3   OH238654   3.665   3.075   4.375 -0.1989  0.3229  0.1544
12904TIP3    H138655   3.744   3.084   4.321 -0.1340  0.7683  0.3143
12904TIP3    H238656   3.667   2.985   4.407  0.9956  0.7135  1.2847
12905TIP3   OH238657   3.876   3.638   2.661 -0.0527  0.2037 -0.5523
12905TIP3    H138658   3.788   3.677   2.665 -0.5908 -1.0553  0.3594
12905TIP3    H238659   3.904   3.633   2.752  1.1113  0.8512 -0.8560
12906TIP3   OH238660   6.143   3.962   6.572 -0.2064  0.3652  0.1468
12906TIP3    H138661   6.090   4.041   6.584  1.0185  1.1114  0.8001
12906TIP3    H238662   6.183   3.947   6.658  3.6848  2.0681 -1.1765
12907TIP3   OH238663   1.112   5.509   3.284 -0.3293 -0.0692  0.3259
12907TIP3    H138664   1.115   5.422   3.324 -1.2731  0.6867  2.1383
12907TIP3    H238665   1.033   5.509   3.231 -0.8382 -0.0348  1.0679
12908TIP3   OH238666   6.911   5.493   3.388  0.0889  0.1105  0.4294
12908TIP3    H138667   6.891   5.431   3.457  0.3394 -0.7328 -0.2420
12908TIP3    H238668   6.828   5.540   3.374  0.1636  0.6279  1.6082
12909TIP3   OH238669   5.329   7.375   5.379  0.3781 -0.8358 -0.1989
12909TIP3    H138670   5.328   7.310   5.309  0.6123 -0.8331 -0.2052
12909TIP3    H238671   5.320   7.324   5.459  1.3743 -0.9556 -0.1493
12910TIP3   OH238672   2.895   1.582   1.012  0.1231 -0.2218 -0.0347
12910TIP3    H138673   2.812   1.629   1.019  0.0064 -0.7186  3.1329
12910TIP3    H238674   2.928   1.604   0.925 -2.2175  1.8035 -0.4967
12911TIP3   OH238675   5.610   7.655   3.555 -0.4240  0.6699  0.3929
12911TIP3    H138676   5.672   7.601   3.507  0.3183  2.2269 -0.4784
12911TIP3    H238677   5.622   7.630   3.646 -0.8747 -1.3654 -0.0657
12912TIP3   OH238678   0.587   3.172   5.226 -0.2739 -0.2045  0.1127
12912TIP3    H138679   0.622   3.084   5.241  0.5859 -0.0353 -0.8244
12912TIP3    H238680   0.575   3.208   5.314 -0.7511 -1.2935  0.5087
12913TIP3   OH238681   4.741   6.901   5.246 -0.3273  0.2086 -0.2735
12913TIP3    H138682   4.794   6.970   5.206  0.4055  0.2818  0.7747
12913TIP3    H238683   4.721   6.934   5.333 -1.4208 -0.1821 -0.3659
12914TIP3   OH238684   6.491   4.537   2.520 -0.4707  0.4115 -0.0235
12914TIP3    H138685   6.431   4.612   2.513 -1.8481 -0.6924 -0.3329
12914TIP3    H238686   6.572   4.576   2.552 -2.2536  1.5557  3.6867
12915TIP3   OH238687   8.087   5.770   5.721  1.0313  0.4113 -0.1710
12915TIP3    H138688   8.150   5.842   5.726  0.3966  1.0203 -0.7598
12915TIP3    H238689   8.005   5.807   5.754  0.7653 -0.1256 -0.2205
12916TIP3   OH238690   2.616   7.400   4.699  0.1650  0.0587 -0.4431
12916TIP3    H138691   2.525   7.411   4.669  0.3227  2.5905 -0.1444
12916TIP3    H238692   2.608   7.366   4.788 -0.4020 -1.7041 -1.1151
12917TIP3   OH238693   5.203   0.521   6.016 -0.7638  0.7077 -0.1724
12917TIP3    H138694   5.264   0.489   6.083 -2.7839 -0.2616  1.3095
12917TIP3    H238695   5.255   0.525   5.936  1.0500 -0.7896  0.8573
12918TIP3   OH238696   6.763   6.894   6.037 -0.3956  0.4496  0.2195
12918TIP3    H138697   6.701   6.960   6.005 -0.1968  0.5856  0.1125
12918TIP3    H238698   6.849   6.929   6.014 -0.2340  0.6819  1.1345
12919TIP3   OH238699   1.296   1.054   3.042 -0.0085 -0.0870 -0.0430
12919TIP3    H138700   1.310   1.087   2.954  1.1053  1.2633  0.6088
12919TIP3    H238701   1.369   1.088   3.093 -0.7224 -0.6879  1.4540
12920TIP3   OH238702   4.766   6.474   0.686  1.3861 -0.8061 -0.2494
12920TIP3    H138703   4.854   6.486   0.651  1.5452  1.8893  0.8149
12920TIP3    H238704   4.721   6.556   0.667  0.2495 -0.7424  2.2318
12921TIP3   OH238705   3.456   1.244   0.056  0.1165  0.1240 -0.0831
12921TIP3    H138706   3.378   1.189   0.056  0.9098 -1.0918  2.0860
12921TIP3    H238707   3.487   1.241  -0.035 -2.6159  1.1266 -1.1512
12922TIP3   OH238708   6.469   6.039   0.747  0.3753 -0.2166 -0.1102
12922TIP3    H138709   6.386   6.004   0.778  1.0365 -0.8839  0.9545
12922TIP3    H238710   6.532   6.019   0.816  1.5810 -0.3500 -1.1955
12923TIP3   OH238711   7.347   0.526   2.429  0.0713 -0.4793  0.1178
12923TIP3    H138712   7.442   0.532   2.439  0.1664 -1.5763 -0.0176
12923TIP3    H238713   7.313   0.604   2.473  1.0925  0.5679 -0.8913
12924TIP3   OH238714   1.742   6.499   4.493  0.0968 -0.1430 -0.1124
12924TIP3    H138715   1.807   6.442   4.535  0.5667  0.1125 -0.4806
12924TIP3    H238716   1.787   6.534   4.416 -0.8824 -0.9527 -1.0981
12925TIP3   OH238717   3.048   6.646   2.997 -0.0976  0.3321  0.7601
12925TIP3    H138718   3.008   6.559   2.992  0.6842 -0.0053 -3.6650
12925TIP3    H238719   3.001   6.691   3.068 -3.2027 -2.3813  0.6291
12926TIP3   OH238720   0.401   1.937   0.036  0.8272 -0.3877  0.1314
12926TIP3    H138721   0.406   1.852  -0.010 -0.1826  0.2163 -1.1658
12926TIP3    H238722   0.349   1.992  -0.023  0.7200  0.8707  1.3772
12927TIP3   OH238723   3.035   4.216   2.460 -0.2155 -0.3689 -0.0446
12927TIP3    H138724   2.951   4.190   2.499 -1.5489  1.4299 -1.5475
12927TIP3    H238725   3.023   4.308   2.437  1.9489 -0.2577 -0.9398
12928TIP3   OH238726   5.903   7.248   0.016  1.1861  0.0804 -0.1787
12928TIP3    H138727   5.974   7.311  -0.003 -1.6156  3.5761 -0.1457
12928TIP3    H238728   5.876   7.270   0.105 -1.2036  0.2523 -0.8955
12929TIP3   OH238729   1.122   6.319   3.561  0.1200 -0.2348 -0.3449
12929TIP3    H138730   1.055   6.264   3.602  0.7454 -0.2637  0.6717
12929TIP3    H238731   1.111   6.405   3.601  1.0126 -0.3684  0.2233
12930TIP3   OH238732   5.046   0.622   4.217  0.0322  0.1373 -0.5541
12930TIP3    H138733   5.000   0.617   4.134 -2.0369  1.2788  0.4515
12930TIP3    H238734   4.984   0.589   4.282  1.9092 -1.5947  0.4908
12931TIP3   OH238735   5.456   4.007   2.963  0.1060 -0.4155 -0.6859
12931TIP3    H138736   5.400   3.931   2.981  0.6189 -1.2585 -2.4361
12931TIP3    H238737   5.396   4.074   2.930 -0.2295 -0.3387  0.0622
12932TIP3   OH238738   1.409   2.211   0.700  0.0414 -0.2792 -0.1795
12932TIP3    H138739   1.405   2.302   0.668 -1.9395 -0.2237  0.0824
12932TIP3    H238740   1.328   2.200   0.750 -0.1950 -2.4618 -0.9404
12933TIP3   OH238741   4.187   7.600   1.418  0.0206  0.2016  0.2437
12933TIP3    H138742   4.117   7.593   1.484 -0.8368 -1.5748 -0.7816
12933TIP3    H238743   4.164   7.679   1.368 -0.6767  0.2191  0.5698
12934TIP3   OH238744   7.966   4.693   3.243 -0.2473  0.3383  0.2846
12934TIP3    H138745   7.931   4.610   3.274 -1.1605  0.6588  0.1421
12934TIP3    H238746   8.058   4.691   3.268 -0.7937  0.3287  2.5246
12935TIP3   OH238747   5.826   6.798   3.996  0.5563 -0.1579  1.1083
12935TIP3    H138748   5.764   6.868   4.013  1.3749  0.7094  0.6340
12935TIP3    H238749   5.877   6.828   3.921  0.1018 -1.8223  0.0827
12936TIP3   OH238750   4.606   6.689   0.659 -0.3541  0.1807  0.1089
12936TIP3    H138751   4.517   6.655   0.667  0.0610 -1.5078 -1.6844
12936TIP3    H238752   4.599   6.759   0.594 -0.3410 -0.1699 -0.2760
12937TIP3   OH238753   6.251   1.454   4.597 -0.2022  0.0859  0.1384
12937TIP3    H138754   6.244   1.519   4.667  1.5201 -0.6294  1.0378
12937TIP3    H238755   6.305   1.496   4.531  1.4753 -0.6131  1.0152
12938TIP3   OH238756   5.911   5.860   4.018  0.0832 -0.4809 -0.2695
12938TIP3    H138757   5.922   5.910   4.099 -0.7130 -3.1034  1.6374
12938TIP3    H238758   5.816   5.848   4.010  0.2240 -1.2925 -0.8763
12939TIP3   OH238759   4.804   4.068   6.240  0.2298  0.4585 -0.2225
12939TIP3    H138760   4.834   4.144   6.290  0.5654  0.2612 -0.1205
12939TIP3    H238761   4.762   4.105   6.162 -0.3450  0.7717  0.2255
12940TIP3   OH238762   5.795   1.631   1.959 -0.0705 -0.5272 -0.2139
12940TIP3    H138763   5.749   1.708   1.992  0.8380 -1.2510  3.1418
12940TIP3    H238764   5.868   1.666   1.907 -2.3278  0.6528 -2.8332
12941TIP3   OH238765   2.278   6.650   4.887  0.6324 -0.2184  0.0881
12941TIP3    H138766   2.336   6.723   4.866 -0.0442  0.3074  0.0400
12941TIP3    H238767   2.214   6.648   4.816  0.7290 -0.9480  0.0124
12942TIP3   OH238768   8.286   7.469   0.522  0.1995 -0.3136  0.2196
12942TIP3    H138769   8.306   7.383   0.486 -1.0831 -0.5866  0.1155
12942TIP3    H238770   8.254   7.520   0.448  0.9601  0.2755  0.2784
12943TIP3   OH238771   6.992   5.936   2.667 -0.0012  0.1217  0.0942
12943TIP3    H138772   6.915   5.882   2.684 -1.6924  1.9977 -1.0558
12943TIP3    H238773   6.974   5.977   2.582  1.3793  2.1085  0.6869
12944TIP3   OH238774   8.193   1.995   2.165 -0.0761  0.4926 -0.1788
12944TIP3    H138775   8.218   1.907   2.194  2.4690  1.3956  0.5269
12944TIP3    H238776   8.229   2.002   2.077  1.4476  1.4949  0.5028
12945TIP3   OH238777   2.615   7.156   6.771  0.0888 -0.4406 -0.2886
12945TIP3    H138778   2.567   7.231   6.806  2.9721  1.6443 -0.3976
12945TIP3    H238779   2.586   7.148   6.680 -0.8647 -0.0220 -0.0281
12946TIP3   OH238780   6.366   0.865   2.595  0.3143  0.0028 -0.2209
12946TIP3    H138781   6.401   0.886   2.682  1.4495  0.1467 -0.6965
12946TIP3    H238782   6.362   0.769   2.594  0.9669 -0.0271 -0.2590
12947TIP3   OH238783   0.165   0.886   0.156  0.8347  0.2182  0.1770
12947TIP3    H138784   0.254   0.852   0.143 -0.0026 -2.2437  0.3508
12947TIP3    H238785   0.112   0.838   0.092 -0.1919  2.8251 -1.0735
12948TIP3   OH238786   3.849   4.552   1.136 -0.4398 -0.4247 -0.0900
12948TIP3    H138787   3.806   4.472   1.169 -2.3524  0.1817 -0.9718
12948TIP3    H238788   3.796   4.623   1.170  1.6095  0.5721  1.2036
12949TIP3   OH238789   0.806   5.463   3.337  0.3715 -0.0748 -0.4049
12949TIP3    H138790   0.790   5.399   3.406 -0.9670  0.2996 -0.3293
12949TIP3    H238791   0.837   5.541   3.383  1.6414 -0.5380 -0.4609
12950TIP3   OH238792   1.640   1.035   4.216 -0.2079  0.2377  0.7964
12950TIP3    H138793   1.629   1.009   4.125  1.6523  2.0857 -0.0430
12950TIP3    H238794   1.671   0.956   4.260 -0.9294 -0.6272 -0.2024
12951TIP3   OH238795   5.746   6.923   5.068 -0.2986 -0.0104  0.0209
12951TIP3    H138796   5.724   6.942   4.976  0.3583 -0.2840 -0.1931
12951TIP3    H238797   5.829   6.968   5.083 -0.6521  0.4588  0.6420
12952TIP3   OH238798   1.144   3.676   0.709 -0.0429  0.5636  0.3878
12952TIP3    H138799   1.095   3.746   0.665 -1.0487 -0.5061 -0.2665
12952TIP3    H238800   1.224   3.718   0.740 -0.3923  1.8860 -0.4221
12953TIP3   OH238801   6.710   4.171   5.270 -0.1430 -0.0034  0.0456
12953TIP3    H138802   6.736   4.262   5.254  0.5285 -0.1482  0.2769
12953TIP3    H238803   6.615   4.174   5.276 -0.1512  0.6266 -0.3183
12954TIP3   OH238804   0.343   5.735   5.467  0.3092  0.6804  0.1131
12954TIP3    H138805   0.265   5.684   5.445 -0.0872 -0.5538  3.7144
12954TIP3    H238806   0.413   5.696   5.415 -0.7963 -0.7481 -0.3687
12955TIP3   OH238807   2.573   7.609   5.981 -0.6768 -0.0422 -0.6213
12955TIP3    H138808   2.543   7.562   6.059  0.2560  2.7220  1.6240
12955TIP3    H238809   2.668   7.613   5.991 -0.3209 -1.2165 -2.9738
12956TIP3   OH238810   0.423   5.498   4.021  0.3295  0.1541 -0.1618
12956TIP3    H138811   0.498   5.438   4.023 -0.9804 -1.5760 -1.0355
12956TIP3    H238812   0.366   5.467   4.091  0.0903  1.0394  0.0465
12957TIP3   OH238813   0.254   5.581   0.051  0.0523 -0.0525  0.4790
12957TIP3    H138814   0.179   5.610   0.000  0.4509 -1.8572 -1.2654
12957TIP3    H238815   0.300   5.521  -0.007  1.0231 -1.5627  2.6861
12958TIP3   OH238816   0.836   5.452   6.260 -0.2701 -0.1932  0.3524
12958TIP3    H138817   0.896   5.386   6.227  0.4178  0.8157 -0.4849
12958TIP3    H238818   0.823   5.512   6.187 -1.0202  0.5071  1.0302
12959TIP3   OH238819   7.642   3.632   6.591  0.0652  0.0607  0.1732
12959TIP3    H138820   7.706   3.618   6.521 -0.7949 -1.4068 -0.3662
12959TIP3    H238821   7.559   3.648   6.545  0.1474  3.0863  0.8253
12960TIP3   OH238822   6.383   0.868   4.773  0.5033 -0.2993 -0.1466
12960TIP3    H138823   6.333   0.857   4.693 -1.4755  2.0650  0.6606
12960TIP3    H238824   6.463   0.816   4.759  0.5655  0.5742 -3.8749
12961TIP3   OH238825   6.443   5.167   1.200 -0.0983  0.1129  0.7306
12961TIP3    H138826   6.463   5.097   1.138 -1.1858  0.3666  0.0812
12961TIP3    H238827   6.529   5.203   1.222  0.2729  1.0803 -1.8930
12962TIP3   OH238828   6.487   3.994   4.076  0.3580  0.0427  0.6761
12962TIP3    H138829   6.411   3.937   4.087  0.7262 -0.6752 -0.3055
12962TIP3    H238830   6.453   4.070   4.028  0.2271 -0.2380  0.3150
12963TIP3   OH238831   4.113   7.813   6.630 -0.8117 -0.2084  0.3014
12963TIP3    H138832   4.187   7.753   6.622 -0.9056 -0.2465 -0.4032
12963TIP3    H238833   4.062   7.780   6.703  1.4766  1.5652  2.9482
12964TIP3   OH238834   0.048   6.893   0.406  0.1086  0.1362  0.3242
12964TIP3    H138835  -0.030   6.842   0.427 -0.1212 -0.0190 -0.8291
12964TIP3    H238836   0.090   6.844   0.335  1.5119 -0.0237  1.2315
12965TIP3   OH238837   6.655   3.343   1.995  0.1042  0.3162  0.6712
12965TIP3    H138838   6.655   3.250   2.017  1.8585  0.0828 -0.1696
12965TIP3    H238839   6.562   3.367   1.992 -0.5088 -1.9409 -1.2778
12966TIP3   OH238840   0.383   4.835   3.596  0.6455  0.0215 -0.3406
12966TIP3    H138841   0.358   4.917   3.639 -0.4477  0.2862 -1.4108
12966TIP3    H238842   0.414   4.862   3.510  0.0465 -0.6949 -0.7918
12967TIP3   OH238843   5.356   3.225   0.480 -0.0084  0.3341  0.3682
12967TIP3    H138844   5.295   3.241   0.407 -0.9203  0.7137  1.1982
12967TIP3    H238845   5.310   3.164   0.537  1.0447 -0.6258  0.2306
12968TIP3   OH238846   1.605   2.449   4.849 -0.2845  0.2823  0.4651
12968TIP3    H138847   1.553   2.525   4.822 -0.5232  0.6431  1.8573
12968TIP3    H238848   1.648   2.478   4.930 -0.1705 -0.9794  0.8703
12969TIP3   OH238849   3.372   7.302   5.858 -0.4086 -0.2383 -0.2248
12969TIP3    H138850   3.459   7.318   5.894 -0.7170 -0.4192  0.6210
12969TIP3    H238851   3.366   7.361   5.782  0.8421 -1.0094 -0.9403
12970TIP3   OH238852   4.086   7.151   0.777 -0.7517 -0.0834  0.3749
12970TIP3    H138853   4.144   7.145   0.701  0.8637 -0.4595  1.5812
12970TIP3    H238854   4.001   7.122   0.744  0.1803 -1.4132 -1.0174
12971TIP3   OH238855   2.917   7.122   2.312  0.0107 -0.1776  0.4081
12971TIP3    H138856   2.954   7.085   2.232 -0.9756  0.2332 -0.2597
12971TIP3    H238857   2.983   7.105   2.379  0.7323 -0.7789 -0.4298
12972TIP3   OH238858   1.121   2.746   5.736  0.2183 -0.5307 -0.1390
12972TIP3    H138859   1.170   2.744   5.819 -1.1869  0.2201  0.7526
12972TIP3    H238860   1.118   2.839   5.713 -2.0457 -0.3499  0.6547
12973TIP3   OH238861   3.400   5.416   1.745 -0.0079  0.4758  0.6259
12973TIP3    H138862   3.341   5.344   1.769  1.8301 -1.4093 -0.1646
12973TIP3    H238863   3.383   5.431   1.652  0.9034 -0.2815  0.3192
12974TIP3   OH238864   5.654   2.036   1.373  0.0094 -0.0177 -0.1760
12974TIP3    H138865   5.707   1.966   1.336  0.1237 -0.4894  0.8363
12974TIP3    H238866   5.716   2.091   1.421  0.4553  2.5779 -3.3630
12975TIP3   OH238867   5.625   6.334   5.785 -0.1626 -0.0244  0.0121
12975TIP3    H138868   5.711   6.307   5.752  0.3984  0.0273  1.3701
12975TIP3    H238869   5.612   6.422   5.750 -0.0481 -0.3521 -0.8779
12976TIP3   OH238870   7.048   6.802   6.403 -0.1638 -0.4818  0.1087
12976TIP3    H138871   7.022   6.883   6.359 -0.9823 -0.9952 -0.3955
12976TIP3    H238872   7.143   6.806   6.408 -0.2222  0.7088  0.4867
12977TIP3   OH238873   1.955   6.362   4.071 -0.0092 -0.2359  0.1714
12977TIP3    H138874   1.959   6.455   4.049  1.3859 -0.5558 -1.1300
12977TIP3    H238875   1.880   6.329   4.021 -1.2638  0.3609  1.5634
12978TIP3   OH238876   5.079   1.152   1.584 -0.6367 -0.0083  0.4941
12978TIP3    H138877   5.153   1.097   1.557 -1.4278 -0.9102  0.1393
12978TIP3    H238878   5.108   1.241   1.563  0.0245 -0.4167 -0.4212
12979TIP3   OH238879   2.805   3.216   2.044 -0.0122 -0.4209  0.0861
12979TIP3    H138880   2.840   3.288   1.992  0.7590 -0.3034  0.7545
12979TIP3    H238881   2.770   3.257   2.123 -0.0947 -0.7216  0.2114
12980TIP3   OH238882   0.558   7.116   5.973  0.8599 -0.0741  0.1349
12980TIP3    H138883   0.620   7.179   5.936  0.5585  0.4982  0.5851
12980TIP3    H238884   0.474   7.162   5.972  0.5189 -0.6877 -0.0754
12981TIP3   OH238885   2.286   1.857   4.601  0.1056 -0.0458 -0.2398
12981TIP3    H138886   2.381   1.859   4.612  0.1790  1.7712 -0.9242
12981TIP3    H238887   2.258   1.782   4.653  1.8804 -0.4422  0.2175
12982TIP3   OH238888   3.540   2.688   5.734  0.4286 -0.2480  0.3178
12982TIP3    H138889   3.525   2.597   5.711  1.4597 -0.4621  0.4795
12982TIP3    H238890   3.466   2.711   5.791  0.6985 -1.2862  1.1054
12983TIP3   OH238891   3.753   1.134   6.172  0.5980  0.1010 -0.0613
12983TIP3    H138892   3.660   1.126   6.149  0.7076 -1.9488  0.0094
12983TIP3    H238893   3.786   1.045   6.166  2.2652  0.5947  1.2475
12984TIP3   OH238894   0.040   6.767   5.167  0.0654  0.6075  0.6799
12984TIP3    H138895  -0.034   6.768   5.106 -1.4688  0.4815  2.4809
12984TIP3    H238896   0.089   6.846   5.145  1.4929 -1.0295 -2.8955
12985TIP3   OH238897   4.410   1.658   4.188  0.1054 -0.4488 -0.0972
12985TIP3    H138898   4.316   1.672   4.194  0.1404 -0.5220  0.6487
12985TIP3    H238899   4.446   1.699   4.266  0.6354 -0.8996 -0.0971
12986TIP3   OH238900   3.136   0.465   0.333  0.1327  0.3838 -0.2003
12986TIP3    H138901   3.213   0.408   0.345 -2.0116 -2.5908  0.6085
12986TIP3    H238902   3.151   0.538   0.394  1.4889 -1.0707  1.3381
12987TIP3   OH238903   5.098   7.698   4.369  0.0425  0.7236 -0.3594
12987TIP3    H138904   5.067   7.783   4.337  1.2200  1.1093 -0.5268
12987TIP3    H238905   5.041   7.634   4.327  0.0290  1.3648 -1.3437
12988TIP3   OH238906   4.051   1.541   3.827 -0.2940 -0.1736  0.5402
12988TIP3    H138907   4.119   1.596   3.788  0.8342 -1.7905  0.1106
12988TIP3    H238908   3.969   1.576   3.792  0.4023  1.0555  0.0764
12989TIP3   OH238909   6.602   0.336   1.159 -0.4166 -0.1101 -0.4941
12989TIP3    H138910   6.589   0.323   1.065 -1.0582 -0.4619 -0.3629
12989TIP3    H238911   6.571   0.425   1.176 -0.3168 -0.0532 -0.6129
12990TIP3   OH238912   3.699   5.004   0.468 -0.1215 -0.3961  0.6192
12990TIP3    H138913   3.619   5.015   0.415  0.5222  0.3414 -0.2280
12990TIP3    H238914   3.707   4.909   0.479 -1.1093 -0.4808  0.7036
12991TIP3   OH238915   2.987   7.442   5.976 -0.0433  0.2426  0.3541
12991TIP3    H138916   3.001   7.526   6.022  2.4062  0.4757 -0.6885
12991TIP3    H238917   3.021   7.457   5.888 -1.2757 -1.3331 -0.4336
12992TIP3   OH238918   7.062   6.845   0.841  0.4955  0.3787 -0.1647
12992TIP3    H138919   7.096   6.852   0.752  0.5702  0.0391 -0.1652
12992TIP3    H238920   7.115   6.776   0.882 -0.6254 -0.6514 -0.3800
12993TIP3   OH238921   3.171   2.586   6.155 -0.4388 -0.8727 -0.1260
12993TIP3    H138922   3.085   2.625   6.141 -0.7606 -1.0252  1.3327
12993TIP3    H238923   3.153   2.506   6.205  0.2559 -2.6104 -2.4566
12994TIP3   OH238924   7.462   3.260   4.685  0.2120  0.6523 -0.0319
12994TIP3    H138925   7.540   3.207   4.701 -0.5975 -0.1415  1.4293
12994TIP3    H238926   7.427   3.228   4.601  0.7458  0.1543 -0.0650
12995TIP3   OH238927   3.037   5.801   0.093  0.0230  0.1310  0.2313
12995TIP3    H138928   3.073   5.888   0.110  1.3528 -0.4834  0.6676
12995TIP3    H238929   2.983   5.812   0.015  1.3850  1.0320 -0.6126
12996TIP3   OH238930   1.814   7.339   2.882  0.6445  0.4037 -0.1371
12996TIP3    H138931   1.889   7.351   2.824  1.0261 -0.1668  0.2260
12996TIP3    H238932   1.746   7.395   2.846  0.3765 -1.0335 -1.9700
12997TIP3   OH238933   2.942   4.848   4.741 -0.5762  0.0343 -0.4449
12997TIP3    H138934   2.934   4.828   4.834  1.0200 -0.7901 -0.4634
12997TIP3    H238935   2.905   4.936   4.733  0.2365  0.5590  1.1608
12998TIP3   OH238936   1.765   1.913   3.346  0.0649  0.2805 -0.3452
12998TIP3    H138937   1.845   1.963   3.361 -0.4739  1.0115  0.2237
12998TIP3    H238938   1.703   1.978   3.313 -0.5322 -0.0858  0.0333
12999TIP3   OH238939   4.923   6.365   6.200 -0.1291  0.5973  0.2781
12999TIP3    H138940   4.870   6.444   6.208  0.6825  1.0823  1.0870
12999TIP3    H238941   5.005   6.387   6.244  1.1506  0.2043 -1.8092
13000TIP3   OH238942   0.216   7.281   2.291 -0.4558 -0.2716 -0.1206
13000TIP3    H138943   0.122   7.297   2.296 -0.3326  0.4172  0.1470
13000TIP3    H238944   0.256   7.357   2.332  0.2622 -0.0024 -1.2560
13001TIP3   OH238945   4.600   3.410   5.063 -0.0221 -1.0829  0.9437
13001TIP3    H138946   4.511   3.441   5.045 -0.3306 -2.4488 -0.0130
13001TIP3    H238947   4.653   3.490   5.065 -0.8055 -0.4382 -1.3418
13002TIP3   OH238948   7.772   3.445   1.718 -0.0781 -0.9281  0.1775
13002TIP3    H138949   7.758   3.377   1.652  0.6994 -1.4260  0.5059
13002TIP3    H238950   7.751   3.527   1.673 -0.2771 -1.3177 -0.4559
13003TIP3   OH238951   6.615   2.901   5.940  0.2882  0.0617  0.2752
13003TIP3    H138952   6.553   2.944   5.880 -0.8163 -0.1805  1.2161
13003TIP3    H238953   6.622   2.812   5.907  1.5079  0.5327 -0.8533
13004TIP3   OH238954   7.026   0.118   4.240 -0.7221  0.4090  0.0360
13004TIP3    H138955   6.954   0.098   4.181 -0.1020 -0.0628 -0.5841
13004TIP3    H238956   7.067   0.196   4.203 -0.8474  0.6075  0.3178
13005TIP3   OH238957   4.229   6.140   4.976  0.2307 -0.1198  0.1861
13005TIP3    H138958   4.284   6.097   5.041 -0.8793 -1.7272  0.1173
13005TIP3    H238959   4.209   6.072   4.912 -0.7390  0.7704 -0.4994
13006TIP3   OH238960   0.627   1.839   0.636 -0.3411  0.1515 -0.1470
13006TIP3    H138961   0.573   1.767   0.603 -0.2045  0.7768 -1.7946
13006TIP3    H238962   0.686   1.860   0.564 -0.9757  2.5132 -0.0489
13007TIP3   OH238963   5.270   7.274   0.765 -0.2129  0.3108  0.3688
13007TIP3    H138964   5.259   7.341   0.832 -0.8512  1.8864 -1.2172
13007TIP3    H238965   5.253   7.320   0.682  2.6473 -0.9978 -1.1022
13008TIP3   OH238966   7.324   6.865   6.339  0.1033  0.4135 -0.3565
13008TIP3    H138967   7.322   6.845   6.245 -0.1416 -0.7037 -0.1317
13008TIP3    H238968   7.363   6.787   6.379  0.4579  0.9831  0.4549
13009TIP3   OH238969   3.478   1.081   6.139 -0.0032 -0.0733 -0.0127
13009TIP3    H138970   3.423   1.153   6.105 -1.5548 -0.8434  0.7573
13009TIP3    H238971   3.496   1.027   6.062  1.3373  1.1903 -0.6425
13010TIP3   OH238972   5.338   5.647   3.271 -0.0350 -0.8532  0.1042
13010TIP3    H138973   5.362   5.717   3.210  0.0149 -1.8162 -1.0124
13010TIP3    H238974   5.366   5.679   3.357 -0.0943  0.5248 -0.3757
13011TIP3   OH238975   2.123   1.013   5.233  0.4391 -0.2478 -0.1034
13011TIP3    H138976   2.103   0.919   5.236  0.5174 -0.2778 -0.4682
13011TIP3    H238977   2.060   1.052   5.294 -0.4705 -0.3908 -0.9252
13012TIP3   OH238978   0.446   3.956   2.105  0.6703  0.1034 -0.1499
13012TIP3    H138979   0.494   4.015   2.046 -1.9644  1.7776 -0.7955
13012TIP3    H238980   0.453   3.998   2.191 -1.1018  1.4259 -0.5869
13013TIP3   OH238981   6.595   4.229   1.460 -0.0482 -0.3932 -0.3625
13013TIP3    H138982   6.566   4.290   1.528 -1.7324 -2.5004  0.9648
13013TIP3    H238983   6.629   4.284   1.390  1.1512  1.9206  1.8937
13014TIP3   OH238984   6.874   0.052   0.167  0.2341  0.3542 -0.1447
13014TIP3    H138985   6.797   0.012   0.206 -0.6960  2.4952  0.3439
13014TIP3    H238986   6.896  -0.005   0.093 -2.1678  0.0130 -0.6667
13015TIP3   OH238987   2.482   7.733   2.044  0.1494  0.3804 -0.3996
13015TIP3    H138988   2.468   7.639   2.050  0.0613  0.3257 -1.3160
13015TIP3    H238989   2.453   7.767   2.128 -2.5730 -0.0970 -1.0454
13016TIP3   OH238990   0.110   2.692   1.387  0.1680 -0.3348  0.1454
13016TIP3    H138991   0.135   2.701   1.479  2.0579 -1.5701 -0.1787
13016TIP3    H238992   0.160   2.759   1.341  0.3962 -0.7011 -0.1472
13017TIP3   OH238993   2.529   1.494   0.274  0.6201  0.6675  0.5581
13017TIP3    H138994   2.470   1.419   0.268 -0.1448  1.3303 -0.5575
13017TIP3    H238995   2.489   1.551   0.340  0.2129  0.9268  0.0954
13018TIP3   OH238996   4.078   6.452   6.456 -0.1649 -0.1273  0.0182
13018TIP3    H138997   4.053   6.394   6.529  0.8686 -0.6981 -0.0599
13018TIP3    H238998   3.995   6.481   6.419 -0.7113  0.2470  1.4795
13019TIP3   OH238999   1.160   2.906   6.432  0.4358 -0.2547 -0.1233
13019TIP3    H139000   1.156   2.968   6.360 -1.1704 -1.3640 -1.0387
13019TIP3    H239001   1.106   2.945   6.501 -0.2573 -0.4218 -0.5575
13020TIP3   OH239002   3.751   5.653   3.791  0.0281  0.0393 -0.3146
13020TIP3    H139003   3.671   5.648   3.739 -0.0732  0.0778 -0.1614
13020TIP3    H239004   3.757   5.744   3.819  1.4508  0.6563 -2.4190
13021TIP3   OH239005   8.248   2.842   0.864 -0.4248  0.2110 -0.1039
13021TIP3    H139006   8.278   2.797   0.943 -0.9468 -1.4893 -0.8254
13021TIP3    H239007   8.208   2.773   0.811 -1.2425  1.5472 -1.2913
13022TIP3   OH239008   7.208   1.416   5.080 -0.2119 -0.6661 -0.2114
13022TIP3    H139009   7.160   1.337   5.055 -0.6677 -0.0781 -1.2609
13022TIP3    H239010   7.251   1.393   5.162 -0.8637 -1.7878 -0.1649
13023TIP3   OH239011   4.075   3.931   2.839 -0.4034  0.3232  0.3091
13023TIP3    H139012   4.007   3.863   2.835 -0.3472  0.1457  1.6704
13023TIP3    H239013   4.156   3.885   2.816 -0.3956 -0.0476  1.0380
13024TIP3   OH239014   1.474   5.420   0.278  0.2600 -0.2037 -0.5820
13024TIP3    H139015   1.461   5.350   0.342 -0.3725  0.9646  0.6157
13024TIP3    H239016   1.386   5.451   0.257  0.5632  0.6977 -0.5554
13025TIP3   OH239017   0.469   1.689   6.276 -0.2525  0.0959  0.3781
13025TIP3    H139018   0.453   1.664   6.367 -1.1567  1.4990  0.6331
13025TIP3    H239019   0.551   1.738   6.279  1.0060 -1.8950  0.0267
13026TIP3   OH239020   6.734   1.539   0.616 -0.2973 -0.0714  0.8552
13026TIP3    H139021   6.731   1.635   0.615  0.5755 -0.0349  0.5609
13026TIP3    H239022   6.816   1.519   0.661  0.0566 -0.6547 -0.0253
13027TIP3   OH239023   4.433   1.412   1.087  0.7838  0.3029  0.1775
13027TIP3    H139024   4.462   1.478   1.024 -1.5930  1.9558  0.6594
13027TIP3    H239025   4.420   1.461   1.168  1.2569 -1.2692  1.2296
13028TIP3   OH239026   2.785   0.408   3.907 -0.3613 -0.4693  0.3747
13028TIP3    H139027   2.712   0.347   3.901 -0.3644 -0.4653  0.3734
13028TIP3    H239028   2.760   0.470   3.976  0.1021 -1.0954  1.1260
13029TIP3   OH239029   1.551   0.864   2.531 -0.5039 -0.2536  0.4358
13029TIP3    H139030   1.636   0.836   2.564 -0.8643 -1.3495  0.4991
13029TIP3    H239031   1.529   0.799   2.463 -0.7176  0.7498 -0.4722
13030TIP3   OH239032   6.437   6.760   3.025  0.4184 -0.3751 -0.3684
13030TIP3    H139033   6.346   6.752   2.997 -0.2161 -0.3202  1.5592
13030TIP3    H239034   6.452   6.854   3.032  0.8173 -0.3671 -1.2382
13031TIP3   OH239035   5.519   6.084   5.734  0.1035 -0.2821 -0.3684
13031TIP3    H139036   5.584   6.038   5.682 -0.3383 -0.0688 -1.1160
13031TIP3    H239037   5.569   6.149   5.783  0.5008 -0.4035 -0.6124
13032TIP3   OH239038   7.434   2.184   3.526  0.1778 -0.1950 -0.1556
13032TIP3    H139039   7.425   2.199   3.432 -0.7424 -0.6175 -0.1490
13032TIP3    H239040   7.473   2.097   3.533 -0.1322 -0.3380 -0.1550
13033TIP3   OH239041   4.012   4.687   6.254 -0.2155  0.7227  0.0370
13033TIP3    H139042   4.043   4.766   6.297  0.4672  1.1637 -1.2266
13033TIP3    H239043   3.946   4.717   6.192 -1.5406  0.0430  1.0759
13034TIP3   OH239044   4.679   2.406   2.203 -0.0642  0.0407 -0.1185
13034TIP3    H139045   4.698   2.465   2.276 -0.4221 -0.4162  0.3547
13034TIP3    H239046   4.691   2.318   2.239 -1.2475 -0.2179 -0.3176
13035TIP3   OH239047   8.029   2.985   4.886 -0.2095 -0.2818  0.4533
13035TIP3    H139048   8.068   2.901   4.865  1.3769  0.6920 -0.7036
13035TIP3    H239049   8.082   3.049   4.839 -1.9215  1.3088  0.5628
13036TIP3   OH239050   4.414   4.711   1.351  0.2190 -0.7399  0.1687
13036TIP3    H139051   4.427   4.629   1.304  1.1366  0.5248 -1.9404
13036TIP3    H239052   4.501   4.750   1.357 -0.5213  1.4139 -1.5822
13037TIP3   OH239053   1.408   5.365   0.912 -0.4457  0.4713 -0.1923
13037TIP3    H139054   1.345   5.435   0.933 -0.8519  0.4491 -1.2927
13037TIP3    H239055   1.427   5.377   0.819 -0.7194 -1.0430 -0.4653
13038TIP3   OH239056   7.493   3.422   6.759 -0.0358 -0.1365  0.0201
13038TIP3    H139057   7.486   3.409   6.664 -2.3198  1.3114 -0.0918
13038TIP3    H239058   7.559   3.491   6.769  0.7360 -0.7965 -0.4505
13039TIP3   OH239059   1.239   6.959   4.524  0.0368  0.1929 -0.6685
13039TIP3    H139060   1.304   6.910   4.475 -0.0817 -0.8943  0.2186
13039TIP3    H239061   1.158   6.909   4.513 -0.4506  1.0434 -1.0322
13040TIP3   OH239062   5.805   7.631   1.722 -0.1034 -0.5163  0.6798
13040TIP3    H139063   5.892   7.643   1.683 -1.1350  1.1561 -1.3289
13040TIP3    H239064   5.779   7.543   1.694 -0.2817  0.1576 -1.4811
13041TIP3   OH239065   3.826   3.577   4.606 -0.2084 -0.2781 -0.1993
13041TIP3    H139066   3.775   3.649   4.569  1.0653  0.5654 -0.3856
13041TIP3    H239067   3.810   3.503   4.548  0.5771  0.6102 -1.6059
13042TIP3   OH239068   7.013   5.884   5.719  0.1537 -0.1870 -0.1124
13042TIP3    H139069   7.053   5.930   5.645  1.1320 -0.2193  0.3719
13042TIP3    H239070   7.085   5.832   5.755 -0.6682 -1.2403  0.0204
13043TIP3   OH239071   2.932   7.197   3.447  0.2501 -0.0284  0.0212
13043TIP3    H139072   2.967   7.285   3.455 -0.2242  0.0251  1.9290
13043TIP3    H239073   2.839   7.209   3.429 -0.0993 -0.1024  1.6818
13044TIP3   OH239074   4.695   3.344   0.031  0.1542  0.2395  0.0550
13044TIP3    H139075   4.762   3.332   0.098 -0.5246 -0.7570  0.5720
13044TIP3    H239076   4.630   3.401   0.071 -0.0959 -0.1030  0.1461
13045TIP3   OH239077   1.959   0.363   2.405  0.8457  0.0173 -0.2387
13045TIP3    H139078   1.981   0.348   2.497  1.1728 -0.6856 -0.4246
13045TIP3    H239079   2.037   0.336   2.357  0.3001 -0.6075 -0.7840
13046TIP3   OH239080   8.184   5.135   5.808  0.4784 -0.1699 -0.2735
13046TIP3    H139081   8.197   5.227   5.830  2.8265 -0.3746 -0.5949
13046TIP3    H239082   8.218   5.127   5.719  1.6749 -1.6365  0.2833
13047TIP3   OH239083   5.820   6.919   0.174 -0.3469 -0.8562  0.0254
13047TIP3    H139084   5.882   6.956   0.111  0.5934 -2.4589 -0.0509
13047TIP3    H239085   5.735   6.949   0.145  0.2521  0.0311 -0.8600
13048TIP3   OH239086   6.544   2.751   6.417  1.0031 -0.2365  0.5107
13048TIP3    H139087   6.606   2.781   6.484 -0.4484  2.0056  0.9649
13048TIP3    H239088   6.498   2.831   6.390 -0.2402 -1.5013 -1.3176
13049TIP3   OH239089   6.768   3.540   4.884 -0.1126  0.3244 -0.2177
13049TIP3    H139090   6.848   3.498   4.852 -1.0633 -0.7533 -1.2846
13049TIP3    H239091   6.796   3.626   4.914  1.8487 -0.8506  1.6356
13050TIP3   OH239092   7.986   4.394   1.759 -0.0507 -0.1801  0.1271
13050TIP3    H139093   7.907   4.372   1.808  0.4111  0.0928  1.0141
13050TIP3    H239094   8.023   4.308   1.734  0.6158 -0.4138  1.7608
13051TIP3   OH239095   1.061   7.301   6.731  0.6761 -0.2530  0.2023
13051TIP3    H139096   0.980   7.276   6.776 -0.2350  0.2994 -1.0859
13051TIP3    H239097   1.063   7.396   6.737  2.0150 -0.3214  1.4906
13052TIP3   OH239098   7.100   7.296   3.146  0.4451 -0.5759 -0.3726
13052TIP3    H139099   7.191   7.276   3.123  0.3001 -0.2527 -1.2900
13052TIP3    H239100   7.080   7.374   3.095 -0.0278 -0.0327  0.6255
13053TIP3   OH239101   5.730   3.906   2.630 -0.1819 -0.1986 -0.4065
13053TIP3    H139102   5.721   3.941   2.541 -1.1201 -1.6379 -0.9041
13053TIP3    H239103   5.643   3.873   2.652 -0.1161  0.6326  1.2962
13054TIP3   OH239104   6.593   6.335   0.653  0.1566  0.1774  0.4243
13054TIP3    H139105   6.527   6.387   0.607  2.1108  1.3382 -1.2142
13054TIP3    H239106   6.565   6.244   0.640 -0.7117  0.6052 -0.9204
13055TIP3   OH239107   4.840   6.840   0.799 -0.1583 -0.2742  0.2473
13055TIP3    H139108   4.761   6.847   0.746 -0.7266 -1.8196  0.8310
13055TIP3    H239109   4.809   6.845   0.890  0.3206 -1.4444  0.4942
13056TIP3   OH239110   0.423   5.403   4.275 -0.1949 -0.0098 -0.5274
13056TIP3    H139111   0.462   5.451   4.348  0.3406 -1.4164  0.1363
13056TIP3    H239112   0.494   5.352   4.238 -0.9576 -1.0816 -0.5655
13057TIP3   OH239113   4.167   4.468   4.302 -0.5256  0.1672 -0.3801
13057TIP3    H139114   4.121   4.416   4.368  0.9907 -1.7418 -0.7228
13057TIP3    H239115   4.231   4.519   4.352 -1.5221  1.2134 -0.1177
13058TIP3   OH239116   0.244   4.210   1.079  0.0042  0.5753  0.1752
13058TIP3    H139117   0.228   4.185   1.170  0.4239 -0.2392  0.0292
13058TIP3    H239118   0.197   4.144   1.027 -1.6942  2.0011 -0.2174
13059TIP3   OH239119   0.692   2.542   3.826  0.3401 -0.3915  0.5850
13059TIP3    H139120   0.690   2.460   3.875  1.4694 -0.9577 -0.2920
13059TIP3    H239121   0.671   2.517   3.736 -1.4547  0.6040  0.6597
13060TIP3   OH239122   1.783   3.053   4.797 -0.0620 -0.1494  0.9029
13060TIP3    H139123   1.789   2.991   4.725  0.5946  0.1516  0.6901
13060TIP3    H239124   1.867   3.047   4.842  0.0298  0.6026  0.8538
13061TIP3   OH239125   7.862   6.583   1.869 -0.8163 -0.0527  0.1092
13061TIP3    H139126   7.823   6.631   1.941  0.0927 -0.1444  0.6805
13061TIP3    H239127   7.846   6.638   1.792 -0.3823  0.8453  0.6410
13062TIP3   OH239128   8.193   0.916   6.349 -0.2431  0.3370 -0.1717
13062TIP3    H139129   8.183   0.920   6.254  2.0050 -1.4783 -0.5572
13062TIP3    H239130   8.125   0.855   6.377 -0.0647 -0.1574 -0.7926
13063TIP3   OH239131   1.432   5.811   3.704 -0.2164 -0.0290 -0.3460
13063TIP3    H139132   1.457   5.873   3.772  0.1633  0.4881 -0.9513
13063TIP3    H239133   1.511   5.802   3.649 -0.0648 -1.4922  0.0635
13064TIP3   OH239134   2.482   3.234   6.020 -0.6046 -0.6852 -0.1242
13064TIP3    H139135   2.531   3.204   5.944 -0.4897 -1.6138  0.3068
13064TIP3    H239136   2.403   3.181   6.021 -1.8532  1.0474 -1.0241
13065TIP3   OH239137   3.860   3.319   1.925  0.3411 -0.2583  0.1737
13065TIP3    H139138   3.818   3.399   1.956 -0.6849 -1.1554  1.2027
13065TIP3    H239139   3.787   3.261   1.901  1.0705 -0.6741 -1.1820
13066TIP3   OH239140   4.387   0.286   0.359  0.1395 -0.1775 -0.0190
13066TIP3    H139141   4.431   0.242   0.287  0.3940 -0.2051  0.1535
13066TIP3    H239142   4.316   0.335   0.317  0.0403 -0.5094 -0.2428
13067TIP3   OH239143   6.528   1.518   0.118 -0.8874  1.0695  0.3262
13067TIP3    H139144   6.523   1.475   0.203 -1.0097  1.7657  0.6761
13067TIP3    H239145   6.469   1.468   0.062 -0.3406  0.2316  0.4750
13068TIP3   OH239146   2.410   2.280   4.863 -0.3131 -0.0407 -0.5151
13068TIP3    H139147   2.346   2.218   4.828 -2.3869  1.4506  0.4967
13068TIP3    H239148   2.413   2.261   4.957 -0.9489  1.3383 -0.1992
13069TIP3   OH239149   2.117   5.256   4.886  0.7284  0.5076 -0.2574
13069TIP3    H139150   2.029   5.231   4.912  1.4127 -0.8423  0.9300
13069TIP3    H239151   2.159   5.173   4.861  2.6197  0.5668  2.2967
13070TIP3   OH239152   6.767   7.223   4.330 -0.1790  0.1845 -0.2230
13070TIP3    H139153   6.839   7.285   4.319 -0.7402  0.4916 -2.8029
13070TIP3    H239154   6.707   7.267   4.391  0.9639  0.6773  0.5872
13071TIP3   OH239155   0.230   3.201   4.360 -0.2985  0.3286  0.4091
13071TIP3    H139156   0.191   3.272   4.310 -1.2977 -1.4427 -1.4712
13071TIP3    H239157   0.287   3.156   4.297  0.4466 -0.4445  1.5974
13072TIP3   OH239158   2.272   4.639   1.204  0.6363 -0.1446 -0.2010
13072TIP3    H139159   2.261   4.730   1.231 -0.3426 -0.2095 -0.3260
13072TIP3    H239160   2.225   4.588   1.270  0.9146 -0.5405 -0.3024
13073TIP3   OH239161   1.873   3.783   2.902  0.0749 -0.1002  0.0088
13073TIP3    H139162   1.855   3.874   2.926 -0.8893 -0.2981  0.0503
13073TIP3    H239163   1.790   3.738   2.914  0.7714 -1.1931  0.8960
13074TIP3   OH239164   6.294   2.918   0.458 -0.1333 -0.7167  0.3799
13074TIP3    H139165   6.333   2.849   0.511 -0.7982 -1.1896  0.2546
13074TIP3    H239166   6.324   2.999   0.500  3.6419 -0.9041 -1.4936
13075TIP3   OH239167   2.056   6.440   3.037  0.6430  0.5795  0.1000
13075TIP3    H139168   2.051   6.452   3.132  0.6113  1.6401 -0.0342
13075TIP3    H239169   1.988   6.497   3.002 -1.3787 -1.9728 -0.4301
13076TIP3   OH239170   8.213   5.453   5.262 -0.3741  0.2725 -0.5130
13076TIP3    H139171   8.197   5.399   5.184  0.7343  0.7532 -1.1022
13076TIP3    H239172   8.134   5.506   5.270 -0.4498  0.3150 -1.4037
13077TIP3   OH239173   1.525   5.747   4.446  0.9154 -0.1426  0.2255
13077TIP3    H139174   1.482   5.671   4.485 -0.2099 -0.1448 -0.9468
13077TIP3    H239175   1.452   5.805   4.421  1.4381 -0.6319 -2.8410
13078TIP3   OH239176   0.376   7.709   6.255 -0.0537  0.0607  0.3165
13078TIP3    H139177   0.442   7.770   6.221  0.5504 -1.3602 -1.1570
13078TIP3    H239178   0.425   7.630   6.276 -1.0361 -0.3913  0.9746
13079TIP3   OH239179   7.924   4.480   0.058  0.4657  0.6870  0.5705
13079TIP3    H139180   7.933   4.385   0.057 -0.5992  0.5604  1.7231
13079TIP3    H239181   7.997   4.511   0.004  0.2886 -0.8073 -0.5851
13080TIP3   OH239182   7.587   5.738   0.550 -0.0123 -0.0337 -0.3318
13080TIP3    H139183   7.562   5.668   0.489  1.2427 -1.4434  0.6949
13080TIP3    H239184   7.526   5.809   0.531 -2.3661 -1.9212 -0.4321
13081TIP3   OH239185   6.257   3.193   2.458 -0.2824 -0.3058 -0.5912
13081TIP3    H139186   6.201   3.196   2.380  0.3233  0.3145 -1.0084
13081TIP3    H239187   6.336   3.240   2.432 -0.5609  0.9939  0.7874
13082TIP3   OH239188   7.855   4.576   1.534 -0.2973 -0.5597  0.3953
13082TIP3    H139189   7.904   4.521   1.473  2.3511  0.4384  1.4758
13082TIP3    H239190   7.861   4.530   1.618  0.3853  0.4284  0.9135
13083TIP3   OH239191   3.140   3.665   4.151 -0.4574 -0.2899  0.0356
13083TIP3    H139192   3.095   3.691   4.071  0.2194  2.2993  0.4162
13083TIP3    H239193   3.230   3.649   4.123  0.0671  1.7829  0.4012
13084TIP3   OH239194   5.734   1.574   5.011  0.1448  0.1585  0.4459
13084TIP3    H139195   5.644   1.549   4.991  0.1813  1.1511 -1.1521
13084TIP3    H239196   5.726   1.650   5.068  0.0021 -0.2151  0.9388
13085TIP3   OH239197   6.517   5.438   0.916 -0.2210 -0.0442  0.1524
13085TIP3    H139198   6.439   5.384   0.902 -3.4520  4.1914 -0.5285
13085TIP3    H239199   6.559   5.442   0.831 -0.7016 -0.4328 -0.1122
13086TIP3   OH239200   5.157   3.313   4.721 -0.1130 -0.4017  0.4747
13086TIP3    H139201   5.075   3.302   4.770  0.1020  0.0274  0.9512
13086TIP3    H239202   5.139   3.276   4.635 -1.8958  2.5223 -0.5792
13087TIP3   OH239203   4.197   6.879   0.754  0.1559  0.0573  0.1894
13087TIP3    H139204   4.221   6.947   0.816 -1.0057 -0.7293  1.5532
13087TIP3    H239205   4.164   6.926   0.677 -2.8333  1.1502  1.9622
13088TIP3   OH239206   7.441   2.983   4.220 -0.2782  0.4814 -0.0277
13088TIP3    H139207   7.525   3.026   4.233 -0.7987  2.5376 -2.6534
13088TIP3    H239208   7.453   2.930   4.140 -1.7656  1.8561 -1.2299
13089TIP3   OH239209   4.559   3.533   5.382 -0.4570 -0.0200  0.0394
13089TIP3    H139210   4.614   3.463   5.415  1.0532  0.2474 -1.7544
13089TIP3    H239211   4.573   3.605   5.443  0.8904 -0.0918 -0.1516
13090TIP3   OH239212   6.984   0.971   1.210 -0.0570  0.1185  0.0779
13090TIP3    H139213   6.955   1.057   1.242  1.2650  0.2609  0.9721
13090TIP3    H239214   7.068   0.989   1.167 -0.3183 -0.5702 -0.7368
13091TIP3   OH239215   5.985   6.346   5.908 -0.5344  0.1653  0.3477
13091TIP3    H139216   6.075   6.370   5.930  0.3693 -0.7248 -2.0357
13091TIP3    H239217   5.936   6.357   5.990  1.9818 -0.6337  2.0654
13092TIP3   OH239218   2.886   1.640   3.081 -0.0069 -0.9051 -0.4289
13092TIP3    H139219   2.881   1.687   3.164  1.7702 -0.1343 -0.7275
13092TIP3    H239220   2.802   1.594   3.075  0.0359 -1.4662  2.0662
13093TIP3   OH239221   0.322   1.855   1.123  0.1503 -0.2863 -0.4614
13093TIP3    H139222   0.312   1.949   1.111  0.0495 -0.1764  0.4055
13093TIP3    H239223   0.247   1.817   1.076  0.1636  0.0651 -0.7697
13094TIP3   OH239224   5.622   6.301   1.175  0.0852 -0.8348 -0.6965
13094TIP3    H139225   5.575   6.367   1.124 -0.0376  0.0499  0.5332
13094TIP3    H239226   5.695   6.275   1.118 -0.4013 -0.3378 -1.5771
13095TIP3   OH239227   1.643   0.031   5.173  0.2766 -0.4583  0.2681
13095TIP3    H139228   1.696   0.110   5.171 -0.0574 -0.2370 -0.0103
13095TIP3    H239229   1.553   0.062   5.170  0.1553 -0.8660 -0.6602
13096TIP3   OH239230   2.907   1.943   3.781 -0.0706  0.2477  0.0200
13096TIP3    H139231   2.812   1.934   3.770 -0.0708  1.1318 -0.8375
13096TIP3    H239232   2.938   1.974   3.696  0.8468  0.9952  0.6085
13097TIP3   OH239233   7.751   7.324   6.284 -0.0157  0.2726  0.8772
13097TIP3    H139234   7.665   7.312   6.244  0.0956  0.8245  0.4647
13097TIP3    H239235   7.737   7.388   6.354  0.4936  2.3130 -0.7867
13098TIP3   OH239236   3.644   4.736   1.117  0.6811 -0.6150  0.0642
13098TIP3    H139237   3.585   4.731   1.042  0.7658 -0.0431 -0.0431
13098TIP3    H239238   3.605   4.678   1.183  1.0842 -1.8552 -0.7388
13099TIP3   OH239239   5.451   4.865   4.229  0.1794 -0.2210 -0.3291
13099TIP3    H139240   5.441   4.904   4.143  0.7586  1.1229  0.1828
13099TIP3    H239241   5.485   4.936   4.284  1.6193 -1.5238  0.5667
13100TIP3   OH239242   7.698   7.613   1.716 -0.1829 -0.6453 -0.0545
13100TIP3    H139243   7.706   7.709   1.722 -0.2081 -0.5437 -1.2801
13100TIP3    H239244   7.611   7.594   1.751 -0.3835 -0.1591 -0.2786
13101TIP3   OH239245   5.006   1.477   6.481  0.2984  0.2934 -1.2043
13101TIP3    H139246   4.924   1.437   6.452  0.4842  0.4788 -2.0157
13101TIP3    H239247   4.997   1.569   6.459 -0.4838  0.9343  1.4708
13102TIP3   OH239248   2.157   5.571   6.039  0.2928  0.2373  0.6905
13102TIP3    H139249   2.239   5.521   6.030 -1.3680 -2.5892  0.1401
13102TIP3    H239250   2.171   5.650   5.986  1.6237 -1.6040 -1.9104
13103TIP3   OH239251   0.381   1.169   3.810  0.0861 -0.1864 -0.1545
13103TIP3    H139252   0.296   1.146   3.772 -0.1237  2.0143 -1.2116
13103TIP3    H239253   0.359   1.228   3.882  0.6782 -1.0043  0.7168
13104TIP3   OH239254   7.341   0.102   4.107 -0.3198 -0.0812 -0.2262
13104TIP3    H139255   7.365   0.084   4.017 -0.4668 -1.7206  0.0188
13104TIP3    H239256   7.330   0.197   4.111 -1.7948 -0.1093 -2.2872
13105TIP3   OH239257   3.956   2.981   1.034 -0.2741 -0.3924 -0.0189
13105TIP3    H139258   3.997   3.010   0.952 -0.0432  0.8375  0.5129
13105TIP3    H239259   3.975   2.888   1.038  1.1409 -0.1596 -0.5664
13106TIP3   OH239260   5.679   2.276   2.404 -0.0626  0.0747  0.2789
13106TIP3    H139261   5.587   2.252   2.413  0.0511 -0.3097  0.4261
13106TIP3    H239262   5.725   2.216   2.462  0.0976  1.5682  1.7525
13107TIP3   OH239263   4.634   1.545   5.916 -0.0827 -0.4881 -0.1196
13107TIP3    H139264   4.724   1.574   5.930 -0.0477 -1.0278  0.8368
13107TIP3    H239265   4.583   1.626   5.913  0.5274 -0.1268 -1.5084
13108TIP3   OH239266   3.405   1.529   0.962  0.2095 -0.1356  0.1823
13108TIP3    H139267   3.348   1.575   1.024 -0.4246  0.7623 -1.0421
13108TIP3    H239268   3.346   1.480   0.905  0.5815  1.2295 -1.4431
13109TIP3   OH239269   5.306   1.583   3.836 -0.5113  0.0103 -0.0170
13109TIP3    H139270   5.285   1.503   3.885  0.8538  0.1255  0.8227
13109TIP3    H239271   5.225   1.605   3.790 -0.6422 -2.4913 -1.2013
13110TIP3   OH239272   3.518   4.802   5.107 -0.2112  0.3282 -0.4811
13110TIP3    H139273   3.595   4.770   5.155  0.1342  1.3059 -0.3466
13110TIP3    H239274   3.549   4.883   5.064 -1.0910  0.5908 -0.6443
13111TIP3   OH239275   2.803   0.510   2.117 -0.1971  0.5441  0.4034
13111TIP3    H139276   2.850   0.593   2.109 -0.0198  0.5530  1.4674
13111TIP3    H239277   2.866   0.445   2.085  0.1624  0.6768  0.8237
13112TIP3   OH239278   6.803   7.083   3.892 -0.0312 -0.0003  0.0122
13112TIP3    H139279   6.768   7.026   3.960  0.2532 -0.1514  0.0353
13112TIP3    H239280   6.792   7.172   3.926 -1.8257  0.0738 -0.6438
13113TIP3   OH239281   4.682   0.230   1.498 -0.1479 -0.2849  0.3572
13113TIP3    H139282   4.711   0.229   1.407 -0.8911  0.4310  0.0994
13113TIP3    H239283   4.624   0.306   1.504 -1.0376 -1.0045  1.1359
13114TIP3   OH239284   6.971   5.010   3.395  0.2000  0.2117 -0.1227
13114TIP3    H139285   6.973   4.974   3.306 -2.1141  3.2706 -1.5932
13114TIP3    H239286   7.063   5.020   3.419  0.8803 -1.1036 -1.9934
13115TIP3   OH239287   1.440   0.803   5.060  0.4387  0.2185 -0.1301
13115TIP3    H139288   1.424   0.763   4.975 -0.3959  0.4762 -0.1018
13115TIP3    H239289   1.387   0.883   5.060 -1.3182 -0.8686  1.4517
13116TIP3   OH239290   5.454   2.554   2.900  0.3904 -0.8210  0.0673
13116TIP3    H139291   5.396   2.525   2.969  0.9789 -1.4276  0.3211
13116TIP3    H239292   5.458   2.649   2.909 -0.3725 -0.7994  0.1854
13117TIP3   OH239293   4.084   3.427   4.487  0.1378  1.0275 -0.4843
13117TIP3    H139294   3.990   3.429   4.506  0.3521  1.9101  0.5652
13117TIP3    H239295   4.093   3.359   4.420 -1.0594 -0.0687  0.4084
13118TIP3   OH239296   1.629   4.678   0.126  0.1068  0.5480 -0.4284
13118TIP3    H139297   1.717   4.668   0.090 -0.9583  1.1346 -3.4690
13118TIP3    H239298   1.612   4.772   0.126  0.0636  0.6018  1.8605
13119TIP3   OH239299   1.052   0.666   2.788  0.4314  0.0786 -0.1023
13119TIP3    H139300   1.038   0.739   2.848  1.4452  0.1185  0.1089
13119TIP3    H239301   1.147   0.653   2.789  0.3935 -0.3342 -1.2125
13120TIP3   OH239302   0.478   2.750   0.169  0.1053 -0.2959  0.0249
13120TIP3    H139303   0.513   2.695   0.099  0.0004 -0.0610 -0.2126
13120TIP3    H239304   0.424   2.815   0.124  0.2737  0.0374  0.2959
13121TIP3   OH239305   6.182   5.942   3.293  0.4705 -0.6317 -0.1378
13121TIP3    H139306   6.245   5.926   3.363 -0.7803 -0.6749  1.0252
13121TIP3    H239307   6.172   6.037   3.290 -0.3685 -0.6857  0.5884
13122TIP3   OH239308   8.268   1.779   4.809  0.2509 -0.0099 -0.3482
13122TIP3    H139309   8.309   1.694   4.825 -1.8007 -0.6254  2.7704
13122TIP3    H239310   8.299   1.834   4.881  0.0866  1.3249 -1.2596
13123TIP3   OH239311   6.915   4.698   0.573 -0.1059  0.2021  0.2681
13123TIP3    H139312   7.004   4.726   0.557 -0.3132  0.2006 -0.9728
13123TIP3    H239313   6.921   4.603   0.582  0.0751  0.2495  0.6770
13124TIP3   OH239314   0.884   4.786   4.465  0.2808  0.3986 -0.2010
13124TIP3    H139315   0.853   4.721   4.529  0.1551 -0.3508 -0.9985
13124TIP3    H239316   0.819   4.783   4.394 -1.4240  3.5600  1.0212
13125TIP3   OH239317   1.089   7.582   6.595 -0.1688  0.1612 -0.3941
13125TIP3    H139318   1.171   7.543   6.564  0.7235  1.7937 -0.1739
13125TIP3    H239319   1.063   7.642   6.526 -1.0895 -0.2003 -0.3731
13126TIP3   OH239320   1.948   6.030   0.850  0.3477 -0.8949 -0.6933
13126TIP3    H139321   1.895   5.952   0.866  1.6854 -1.5474  0.8587
13126TIP3    H239322   1.953   6.072   0.936 -0.7766  1.2334 -1.5942
13127TIP3   OH239323   7.035   2.071   4.867  0.1530  0.2075 -0.4173
13127TIP3    H139324   7.094   2.059   4.942  0.8972  0.5798 -0.9274
13127TIP3    H239325   7.093   2.075   4.791 -0.5732  0.0952 -0.9884
13128TIP3   OH239326   5.380   3.317   1.312  0.2000  0.4264  0.4915
13128TIP3    H139327   5.392   3.401   1.266 -0.3046 -0.4871 -1.4147
13128TIP3    H239328   5.427   3.254   1.258 -1.7366 -0.9662  0.3552
13129TIP3   OH239329   1.587   0.950   0.652 -0.0899  0.0501 -0.2912
13129TIP3    H139330   1.682   0.961   0.657 -0.0212  0.7334 -2.3501
13129TIP3    H239331   1.558   0.952   0.743  1.7501  0.9952  0.3222
13130TIP3   OH239332   3.294   5.815   6.320 -0.1576 -0.1995  0.5707
13130TIP3    H139333   3.280   5.909   6.319  0.7975 -0.0426  0.9363
13130TIP3    H239334   3.301   5.790   6.228 -1.4639 -0.0961  0.4240
13131TIP3   OH239335   7.061   6.652   5.165 -0.4963  0.4497  0.1818
13131TIP3    H139336   6.985   6.600   5.192 -0.3382 -0.7403 -1.4673
13131TIP3    H239337   7.082   6.619   5.077  0.5495  2.3050 -0.3181
13132TIP3   OH239338   4.170   2.732   0.131 -0.6431 -0.1941 -0.2418
13132TIP3    H139339   4.082   2.753   0.101 -1.0236 -0.4057  0.6857
13132TIP3    H239340   4.199   2.661   0.075 -1.0228 -0.0501 -0.6243
13133TIP3   OH239341   4.634   4.962   4.183 -0.0878 -0.6957  0.0808
13133TIP3    H139342   4.674   4.919   4.108 -0.0734 -2.2357  0.9309
13133TIP3    H239343   4.569   5.021   4.145  0.5158 -0.8103 -1.1675
13134TIP3   OH239344   6.433   6.181   3.447 -0.6249 -0.1732 -0.4738
13134TIP3    H139345   6.466   6.240   3.515 -2.8549  2.7575 -1.7464
13134TIP3    H239346   6.467   6.218   3.365 -2.2829 -0.4640 -1.3316
13135TIP3   OH239347   7.670   3.383   5.465 -0.4244 -0.5302 -0.0947
13135TIP3    H139348   7.590   3.424   5.432  0.6539  2.1164  0.3300
13135TIP3    H239349   7.723   3.369   5.387 -0.5398 -0.4742 -0.1852
13136TIP3   OH239350   8.080   6.525   0.292  0.0885  0.5338 -0.8040
13136TIP3    H139351   8.164   6.570   0.289 -0.1808  1.2335  0.8873
13136TIP3    H239352   8.101   6.432   0.282  1.1878  0.6060  0.6188
13137TIP3   OH239353   5.706   4.983   5.703 -0.4531 -0.4494  0.3316
13137TIP3    H139354   5.613   4.999   5.718 -0.2539 -0.2431  1.4182
13137TIP3    H239355   5.748   5.066   5.723  0.0282 -0.7386  0.5367
13138TIP3   OH239356   5.839   5.742   0.205 -0.3197  0.3021 -0.0529
13138TIP3    H139357   5.782   5.750   0.281 -1.0388  0.2940 -0.5824
13138TIP3    H239358   5.811   5.662   0.162  1.0605 -0.4914  0.4544
13139TIP3   OH239359   5.457   4.972   3.960 -0.0949 -0.6332  0.1961
13139TIP3    H139360   5.541   4.977   3.915 -0.1847  1.5041  0.1409
13139TIP3    H239361   5.392   4.977   3.890 -0.2314  2.3782  0.3869
13140TIP3   OH239362   1.591   5.266   1.917  0.1875  0.1268  0.2071
13140TIP3    H139363   1.520   5.284   1.979 -0.7777  1.1838 -1.1373
13140TIP3    H239364   1.560   5.303   1.834  1.3215 -1.4786 -0.9889
13141TIP3   OH239365   1.856   3.035   6.692  0.7002 -0.3883  0.4153
13141TIP3    H139366   1.916   3.099   6.653  1.8266 -2.1316 -0.8860
13141TIP3    H239367   1.770   3.058   6.656  1.3894 -0.6970 -1.5810
13142TIP3   OH239368   7.997   7.561   5.154 -0.1668  0.2124 -0.4047
13142TIP3    H139369   7.984   7.618   5.230  0.9479 -0.7197  0.5022
13142TIP3    H239370   8.082   7.587   5.119  0.4589 -1.0177  0.1516
13143TIP3   OH239371   1.840   3.465   1.776 -0.1406 -0.3496 -0.2211
13143TIP3    H139372   1.870   3.375   1.766 -1.2785 -0.6783 -0.9507
13143TIP3    H239373   1.830   3.477   1.870  0.1331 -0.9482 -0.1116
13144TIP3   OH239374   7.761   0.390   3.636  0.2476 -0.4994  0.9927
13144TIP3    H139375   7.834   0.428   3.685  1.6919  0.1753 -1.5309
13144TIP3    H239376   7.789   0.301   3.616 -1.2071 -1.4919  2.9949
13145TIP3   OH239377   5.791   5.721   5.559  0.7288 -0.0969  0.1369
13145TIP3    H139378   5.726   5.721   5.489  1.0920 -1.3064 -0.2341
13145TIP3    H239379   5.875   5.727   5.513  0.9111  0.6143  0.5611
13146TIP3   OH239380   4.930   0.590   2.360 -0.1230  0.2036 -0.2865
13146TIP3    H139381   4.961   0.651   2.293 -0.3721 -0.4200 -0.9837
13146TIP3    H239382   4.840   0.617   2.378  0.3829  1.2496  0.8480
13147TIP3   OH239383   2.413   5.958   2.395 -0.0408 -0.2411  0.5860
13147TIP3    H139384   2.366   5.918   2.322  1.9254  0.6340 -1.2784
13147TIP3    H239385   2.400   6.052   2.384  0.2473 -0.0885  1.4177
13148TIP3   OH239386   3.552   4.003   2.794 -0.4210 -0.5038 -0.3342
13148TIP3    H139387   3.520   4.068   2.732  1.7620  2.2010  1.1535
13148TIP3    H239388   3.551   4.048   2.878  1.1937 -2.4117  0.7726
13149TIP3   OH239389   4.690   1.238   4.624  0.3337  0.5073  0.0040
13149TIP3    H139390   4.680   1.159   4.571 -0.1393  0.0863  0.6974
13149TIP3    H239391   4.601   1.267   4.642  0.5096  1.3944 -0.5143
13150TIP3   OH239392   5.762   7.091   1.566 -0.1761  0.0708 -0.1860
13150TIP3    H139393   5.671   7.077   1.594 -0.0102 -0.1085  0.2685
13150TIP3    H239394   5.814   7.071   1.643  0.3801 -1.5881 -0.9521
13151TIP3   OH239395   3.959   7.600   2.121  0.1278 -0.5760 -0.6174
13151TIP3    H139396   3.957   7.665   2.191 -0.2713 -1.0318 -0.2021
13151TIP3    H239397   3.912   7.525   2.156 -0.4279 -0.6666 -1.5260
13152TIP3   OH239398   0.254   7.544   2.427  0.2032 -0.3095 -0.0021
13152TIP3    H139399   0.165   7.566   2.400 -0.3879  1.1021  2.7430
13152TIP3    H239400   0.310   7.608   2.383 -0.4626  0.5157  0.3402
13153TIP3   OH239401   0.089   2.676   5.934 -0.0285 -0.2322 -0.8111
13153TIP3    H139402   0.093   2.581   5.926 -0.0417 -0.2679 -0.3842
13153TIP3    H239403   0.181   2.703   5.943 -0.0715 -0.2653 -0.2458
13154TIP3   OH239404   4.744   0.147   0.988  0.5485 -0.2445  0.2617
13154TIP3    H139405   4.651   0.124   0.993  0.7087 -0.9363  0.1077
13154TIP3    H239406   4.750   0.209   0.916 -0.0399  1.0605  1.2978
13155TIP3   OH239407   4.980   1.144   5.155 -0.3665 -0.2145  0.4049
13155TIP3    H139408   4.977   1.091   5.075 -1.3065  1.1985 -0.5393
13155TIP3    H239409   5.062   1.119   5.197 -0.3288 -1.7085 -0.4830
13156TIP3   OH239410   3.821   5.417   6.316  0.3635 -0.4618 -0.1513
13156TIP3    H139411   3.785   5.343   6.266 -2.6796  1.2142 -0.6576
13156TIP3    H239412   3.815   5.388   6.407 -1.0002 -0.7973 -0.3241
13157TIP3   OH239413   5.492   5.410   1.972 -0.2676  0.0416 -0.0801
13157TIP3    H139414   5.418   5.426   1.913 -1.3518  1.3067  1.5216
13157TIP3    H239415   5.458   5.349   2.037  1.2229 -2.1565 -1.2314
13158TIP3   OH239416   7.954   4.361   2.095  0.1243 -0.0511 -0.2832
13158TIP3    H139417   7.954   4.304   2.018  1.0427 -1.8137  0.9459
13158TIP3    H239418   7.890   4.322   2.154 -0.6368  1.3282 -0.1472
13159TIP3   OH239419   6.128   1.367   6.024 -0.1561 -0.4435  0.9295
13159TIP3    H139420   6.035   1.392   6.025 -0.0164  0.1659 -0.2087
13159TIP3    H239421   6.163   1.406   5.944  1.2590 -0.0715  1.6954
13160TIP3   OH239422   5.437   4.021   4.596  0.0644  0.0847  0.3801
13160TIP3    H139423   5.457   3.992   4.684  1.5507  0.0569  0.0523
13160TIP3    H239424   5.373   4.092   4.608 -0.1453 -0.2652  1.4228
13161TIP3   OH239425   5.845   7.028   1.828  0.5940  0.0340 -0.2033
13161TIP3    H139426   5.935   7.052   1.851  0.5228  2.3841 -2.0180
13161TIP3    H239427   5.814   6.977   1.903  2.7544  0.8676  1.3660
13162TIP3   OH239428   3.456   0.807   4.100  0.3393 -0.2804  0.1561
13162TIP3    H139429   3.413   0.799   4.185  2.0920  0.0771  1.1077
13162TIP3    H239430   3.502   0.891   4.103  0.3289 -0.1969 -1.2033
13163TIP3   OH239431   0.357   0.149   1.329  0.0449  0.1697 -0.2024
13163TIP3    H139432   0.390   0.063   1.303 -0.3286 -0.2720  0.7261
13163TIP3    H239433   0.396   0.210   1.267  2.5726 -0.3220  0.7911
13164TIP3   OH239434   1.415   4.227   4.246  0.0285 -0.4060 -0.6268
13164TIP3    H139435   1.458   4.276   4.316 -2.8209  0.8504  0.3954
13164TIP3    H239436   1.481   4.164   4.217  2.0334  0.4479  1.7085
13165TIP3   OH239437   1.440   4.462   1.522 -0.1641 -0.2590  0.6130
13165TIP3    H139438   1.495   4.540   1.525  0.3214 -0.4605 -1.3608
13165TIP3    H239439   1.454   4.419   1.606  0.5188  1.1357  1.2450
13166TIP3   OH239440   1.977   1.260   2.769 -0.5020 -0.3845 -0.5983
13166TIP3    H139441   2.051   1.215   2.729  0.6090  0.4390  0.4616
13166TIP3    H239442   1.988   1.352   2.747 -2.5514 -0.4953 -2.4253
13167TIP3   OH239443   7.614   1.529   4.602  0.1283 -0.0498 -0.0376
13167TIP3    H139444   7.588   1.467   4.670  0.5114  0.8921  1.0095
13167TIP3    H239445   7.708   1.539   4.613  0.3888 -0.7216 -1.4538
13168TIP3   OH239446   3.323   2.247   3.134  0.5760  0.3357  0.1010
13168TIP3    H139447   3.234   2.279   3.152  0.2951 -0.6158  0.4737
13168TIP3    H239448   3.380   2.321   3.157 -0.0902  0.8247  0.2362
13169TIP3   OH239449   7.888   4.294   5.075 -0.3997  0.4987 -0.3936
13169TIP3    H139450   7.931   4.274   5.159  0.3644  0.6673 -0.7296
13169TIP3    H239451   7.795   4.277   5.090  0.1259 -3.5875 -0.7061
13170TIP3   OH239452   6.597   1.221   4.072 -0.4533  0.5702 -0.1658
13170TIP3    H139453   6.532   1.153   4.056 -0.4117  0.4928 -0.0076
13170TIP3    H239454   6.559   1.300   4.034 -1.5389  0.9718  1.5970
13171TIP3   OH239455   4.840   3.341   0.317  0.2371 -0.1754 -0.4142
13171TIP3    H139456   4.789   3.271   0.357 -2.0203  0.7003 -1.6035
13171TIP3    H239457   4.849   3.407   0.386  1.4072 -1.0895  0.3574
13172TIP3   OH239458   3.188   4.447   1.059 -0.0967  0.0066 -0.0923
13172TIP3    H139459   3.219   4.401   1.137 -2.6352 -1.3603  0.1986
13172TIP3    H239460   3.114   4.500   1.090  0.2225  1.1703 -1.2047
13173TIP3   OH239461   7.362   2.838   6.395 -0.3798 -0.3305 -0.1740
13173TIP3    H139462   7.420   2.899   6.350  0.0733 -0.3384  0.3958
13173TIP3    H239463   7.286   2.830   6.336 -0.5366  0.9313 -0.1723
13174TIP3   OH239464   4.529   2.183   6.082  0.6144  0.8672  0.1376
13174TIP3    H139465   4.551   2.117   6.148  1.2710  0.0727 -0.8309
13174TIP3    H239466   4.505   2.260   6.132 -1.6268 -0.5169  1.3594
13175TIP3   OH239467   4.014   2.194   5.494  0.3611  0.1288 -0.4569
13175TIP3    H139468   4.050   2.278   5.520 -1.5700  0.5858  0.9308
13175TIP3    H239469   4.024   2.138   5.571 -1.1467  0.0496 -0.2871
13176TIP3   OH239470   2.925   1.062   0.834  0.3229 -0.1659  0.1682
13176TIP3    H139471   3.009   1.040   0.792 -0.2268 -2.0414 -0.0418
13176TIP3    H239472   2.946   1.066   0.927  1.1048  1.8419 -0.0377
13177TIP3   OH239473   3.683   0.663   0.267 -0.1279  0.2753 -0.1298
13177TIP3    H139474   3.589   0.679   0.261 -0.3225  0.3072  2.0566
13177TIP3    H239475   3.690   0.577   0.309  0.6776  1.6586  2.8877
13178TIP3   OH239476   3.426   1.566   0.656  0.0682  0.0687 -0.1243
13178TIP3    H139477   3.502   1.519   0.621 -1.0010 -0.4163 -1.9400
13178TIP3    H239478   3.357   1.500   0.661 -0.7332  0.8791 -0.2256
13179TIP3   OH239479   2.729   5.597   1.133 -0.3529 -0.2194 -0.1958
13179TIP3    H139480   2.711   5.589   1.039 -0.8685  1.0498 -0.2218
13179TIP3    H239481   2.804   5.656   1.138  0.5270 -1.3189  0.1602
13180TIP3   OH239482   4.196   5.879   5.383 -0.1299  0.0649 -0.0168
13180TIP3    H139483   4.223   5.935   5.310  0.3761 -0.2386 -0.0693
13180TIP3    H239484   4.277   5.858   5.429 -0.4112  0.0163  0.4669
13181TIP3   OH239485   0.852   2.182   0.543  0.2182  0.2859 -0.6389
13181TIP3    H139486   0.850   2.086   0.545 -0.0328  0.2991 -0.0978
13181TIP3    H239487   0.915   2.203   0.474  0.3680 -0.2683 -0.6765
13182TIP3   OH239488   3.553   7.063   6.020 -0.7278  0.3831 -0.3138
13182TIP3    H139489   3.583   7.152   6.038  0.1238  0.3376 -1.3813
13182TIP3    H239490   3.508   7.036   6.100  0.2249  1.2584  0.5443
13183TIP3   OH239491   4.462   4.691   2.590  0.0176 -0.2927  0.1502
13183TIP3    H139492   4.516   4.767   2.612  0.3510 -0.3766 -0.3555
13183TIP3    H239493   4.456   4.694   2.495 -1.2734 -0.0150  0.2268
13184TIP3   OH239494   3.704   6.792   0.477  0.3212 -0.1843  0.0025
13184TIP3    H139495   3.757   6.724   0.519 -1.0977 -0.7340  1.0098
13184TIP3    H239496   3.626   6.745   0.446 -0.9321  1.0249  1.1725
13185TIP3   OH239497   4.741   2.087   4.909 -0.2732  0.7262 -0.2658
13185TIP3    H139498   4.760   2.110   4.818 -0.3238 -1.1349 -0.7783
13185TIP3    H239499   4.664   2.031   4.904 -0.2667  0.5909  0.9192
13186TIP3   OH239500   5.770   4.512   4.204  0.1523  0.2747  0.1271
13186TIP3    H139501   5.849   4.566   4.209  0.0048  0.4732  0.3014
13186TIP3    H239502   5.797   4.435   4.153 -0.0258  1.2281 -1.4899
13187TIP3   OH239503   3.251   1.257   2.621 -0.7059 -0.3987  0.4567
13187TIP3    H139504   3.300   1.294   2.695 -2.0224 -0.7278  1.5419
13187TIP3    H239505   3.163   1.242   2.657 -1.7152  0.5185 -1.5009
13188TIP3   OH239506   3.504   0.910   2.977  0.5416  0.3972 -0.4928
13188TIP3    H139507   3.529   0.820   2.999  0.4454  0.6014  0.4876
13188TIP3    H239508   3.415   0.919   3.013  1.1844  1.4041  0.9070
13189TIP3   OH239509   1.199   7.053   6.435 -0.6891 -0.2083  0.0199
13189TIP3    H139510   1.272   7.100   6.476  0.2471 -1.5958 -0.0111
13189TIP3    H239511   1.240   6.984   6.384 -1.8871  0.7114 -2.3516
13190TIP3   OH239512   7.040   0.828   1.930  0.1067 -0.4686  0.2165
13190TIP3    H139513   7.128   0.793   1.941 -0.1895 -2.0810 -1.7226
13190TIP3    H239514   7.018   0.808   1.839 -1.7693  1.0950  0.2521
13191TIP3   OH239515   0.163   6.942   3.246  0.3107 -0.0766  0.0485
13191TIP3    H139516   0.084   6.891   3.264  0.2388 -1.0604 -2.6667
13191TIP3    H239517   0.144   7.029   3.282 -1.5389 -0.5943  0.4340
13192TIP3   OH239518   5.676   6.420   4.951 -0.3801  0.1228 -0.3923
13192TIP3    H139519   5.716   6.501   4.983 -0.4756  0.6063 -1.4595
13192TIP3    H239520   5.611   6.448   4.887  0.2952 -0.8309 -1.5483
13193TIP3   OH239521   7.312   5.760   1.109 -0.8247  0.3305 -0.0740
13193TIP3    H139522   7.250   5.800   1.170 -1.4868 -0.8446  0.0553
13193TIP3    H239523   7.335   5.676   1.150 -0.2512  0.1158 -0.8121
13194TIP3   OH239524   2.813   1.401   2.394  0.0444 -0.1213  0.0826
13194TIP3    H139525   2.831   1.358   2.310  0.3943  2.2505 -1.1596
13194TIP3    H239526   2.724   1.374   2.417 -0.3556 -0.2074 -1.4646
13195TIP3   OH239527   6.126   7.429   3.934  0.2752  0.2413 -0.0040
13195TIP3    H139528   6.150   7.521   3.939  1.1211  0.1590 -1.8791
13195TIP3    H239529   6.036   7.426   3.967  0.2453  1.7149  0.1013
13196TIP3   OH239530   3.924   1.402   1.730 -0.0832 -0.1329 -0.7593
13196TIP3    H139531   3.842   1.359   1.706  0.4380 -1.0757 -0.8973
13196TIP3    H239532   3.936   1.383   1.822 -0.3678  0.6116 -0.5591
13197TIP3   OH239533   7.659   4.844   4.734 -0.2568  0.2333 -0.1403
13197TIP3    H139534   7.678   4.760   4.693 -0.9316 -0.1102  0.2301
13197TIP3    H239535   7.725   4.853   4.803 -0.5334 -0.2713  0.1981
13198TIP3   OH239536   2.575   1.887   4.613 -0.2960  0.3445 -0.3303
13198TIP3    H139537   2.637   1.944   4.658  0.6450 -0.6228 -0.3569
13198TIP3    H239538   2.626   1.847   4.543 -0.3767 -1.9752  0.8418
13199TIP3   OH239539   7.637   1.200   6.075 -0.2703  0.1004 -0.0665
13199TIP3    H139540   7.730   1.178   6.079 -0.5263 -0.9382  0.6231
13199TIP3    H239541   7.632   1.289   6.109  0.0518 -1.2088  3.9201
13200TIP3   OH239542   1.294   5.256   1.447 -0.3562 -0.2066  0.0867
13200TIP3    H139543   1.314   5.242   1.355 -1.0656 -0.8632  0.0236
13200TIP3    H239544   1.272   5.169   1.481  0.8358 -0.1273  1.1151
13201TIP3   OH239545   2.895   5.665   0.291  0.0394 -0.3429  0.4249
13201TIP3    H139546   2.980   5.679   0.334 -1.5289  0.7724  3.5047
13201TIP3    H239547   2.906   5.701   0.203  2.5060  0.4959  0.9878
13202TIP3   OH239548   6.173   2.999   1.924 -0.2072  0.4375 -0.0826
13202TIP3    H139549   6.089   2.995   1.970 -0.1848  0.5887 -0.0271
13202TIP3    H239550   6.162   3.069   1.859 -0.3060  0.0881 -0.4460
13203TIP3   OH239551   2.301   3.844   3.593  0.0457 -0.5639 -0.6667
13203TIP3    H139552   2.312   3.778   3.661 -0.6617  0.0463  0.0470
13203TIP3    H239553   2.282   3.793   3.514 -0.6686 -1.2168 -0.0933
13204TIP3   OH239554   7.348   3.481   6.093 -0.3867 -0.5834 -0.1610
13204TIP3    H139555   7.298   3.517   6.021  0.4780  1.9011  0.3794
13204TIP3    H239556   7.410   3.550   6.116  2.2033 -2.8469  0.2653
13205TIP3   OH239557   5.621   6.340   4.507  0.4012 -0.3475  0.5350
13205TIP3    H139558   5.543   6.395   4.509  0.7009  0.0528  1.2540
13205TIP3    H239559   5.680   6.384   4.446  1.0039  0.6334  1.8000
13206TIP3   OH239560   1.775   1.279   0.349 -0.1258 -0.5182  0.5564
13206TIP3    H139561   1.800   1.198   0.304 -0.1548 -0.0296 -0.3340
13206TIP3    H239562   1.689   1.259   0.388  0.0305 -1.0283  0.6526
13207TIP3   OH239563   3.587   7.305   1.072  0.8655 -0.1250  0.1896
13207TIP3    H139564   3.555   7.333   1.158  1.1727  1.1407 -0.0926
13207TIP3    H239565   3.509   7.277   1.025  0.7089 -0.9568  0.9128
13208TIP3   OH239566   5.555   3.491   0.071  0.3996  0.2512 -0.0941
13208TIP3    H139567   5.577   3.536  -0.011 -0.5904  0.3346 -0.3248
13208TIP3    H239568   5.460   3.478   0.067  0.2388  0.8032  1.3093
13209TIP3   OH239569   1.494   7.431   3.001  0.2221  0.1113  0.6281
13209TIP3    H139570   1.419   7.372   3.006  0.4080 -0.1286  0.6129
13209TIP3    H239571   1.464   7.511   3.045 -0.6710  0.7151 -1.0155
13210TIP3   OH239572   0.481   0.956   3.472  0.3570 -0.8443  0.5047
13210TIP3    H139573   0.388   0.938   3.460  0.5781 -0.9422 -1.3416
13210TIP3    H239574   0.484   1.046   3.505 -0.3817 -0.7441  0.3149
13211TIP3   OH239575   5.791   1.324   0.263  0.2187 -0.0084  0.1013
13211TIP3    H139576   5.705   1.337   0.223 -0.4833  1.9901  2.0683
13211TIP3    H239577   5.850   1.310   0.188 -1.3814  1.1970 -1.4874
13212TIP3   OH239578   4.435   7.683   4.144 -0.0374  0.3267 -0.0234
13212TIP3    H139579   4.461   7.774   4.159  3.2256 -0.2997 -1.0615
13212TIP3    H239580   4.414   7.679   4.051 -0.5019  0.0820  0.0900
13213TIP3   OH239581   6.040   2.448   5.311 -0.0612  0.5816 -0.0625
13213TIP3    H139582   6.008   2.535   5.335 -0.6503  0.6776 -1.1444
13213TIP3    H239583   5.969   2.389   5.338  0.5774  0.3553  1.1958
13214TIP3   OH239584   4.156   0.733   3.569  0.0051  0.3837 -0.2660
13214TIP3    H139585   4.220   0.707   3.503  1.8478  2.7015  0.4909
13214TIP3    H239586   4.206   0.738   3.651 -0.8352  3.1956  0.1893
13215TIP3   OH239587   1.629   2.304   1.587  0.5706  0.0661 -0.1018
13215TIP3    H139588   1.653   2.212   1.594 -1.5264 -0.5726 -0.6748
13215TIP3    H239589   1.589   2.325   1.671 -0.2054  0.0315 -0.4506
13216TIP3   OH239590   4.853   1.122   3.002 -0.2054  0.0799  0.3081
13216TIP3    H139591   4.828   1.119   3.094  0.7929  1.8117  0.6746
13216TIP3    H239592   4.781   1.168   2.959 -1.1922 -1.6850 -0.0070
13217TIP3   OH239593   1.088   2.990   5.307  0.0583 -0.2363  0.0877
13217TIP3    H139594   1.046   3.005   5.222 -0.9725 -0.6580  0.5038
13217TIP3    H239595   1.118   3.077   5.334  0.2275 -0.0670 -0.6118
13218TIP3   OH239596   6.411   1.689   4.449 -0.5868 -0.0059  0.2755
13218TIP3    H139597   6.356   1.741   4.508 -0.5301  0.0624  0.2684
13218TIP3    H239598   6.352   1.660   4.380 -0.3919  0.9539 -0.3090
13219TIP3   OH239599   6.095   7.249   2.589  0.6425 -0.1369  0.5475
13219TIP3    H139600   6.102   7.320   2.525  2.1367  0.4977  1.3661
13219TIP3    H239601   6.071   7.292   2.671 -1.0575 -0.9202  0.5081
13220TIP3   OH239602   4.465   3.120   5.039 -0.3459 -0.0275  0.2925
13220TIP3    H139603   4.429   3.078   5.117 -2.5510  1.0733 -0.0457
13220TIP3    H239604   4.440   3.212   5.049  0.1467  0.2988 -1.2768
13221TIP3   OH239605   0.435   7.313   5.380 -0.1553  0.3975 -0.2930
13221TIP3    H139606   0.403   7.248   5.318  2.2333 -1.3306  0.1021
13221TIP3    H239607   0.357   7.351   5.419 -1.7050 -2.2665 -0.5771
13222TIP3   OH239608   2.294   1.606   2.765 -0.3707 -0.2459  0.0154
13222TIP3    H139609   2.325   1.620   2.855 -1.3976 -0.8958  0.5029
13222TIP3    H239610   2.363   1.641   2.709  0.4668 -0.1814  1.0590
13223TIP3   OH239611   7.166   4.413   0.901  0.2380  0.0085  0.0244
13223TIP3    H139612   7.257   4.383   0.906  0.0224 -0.9413 -1.3571
13223TIP3    H239613   7.173   4.508   0.895  1.0092  0.1858  2.4501
13224TIP3   OH239614   7.181   7.189   2.152  0.8053  0.7091  0.7070
13224TIP3    H139615   7.232   7.202   2.073 -1.1775  1.9550 -0.4541
13224TIP3    H239616   7.165   7.094   2.155 -0.7394  0.8238 -1.5435
13225TIP3   OH239617   7.696   0.653   0.601  0.3307 -0.1596 -0.3450
13225TIP3    H139618   7.748   0.730   0.623 -0.9051  0.8254 -0.7700
13225TIP3    H239619   7.759   0.593   0.561  1.2257  0.8301 -0.4894
13226TIP3   OH239620   3.360   2.002   6.758  0.1609 -0.5358 -0.0180
13226TIP3    H139621   3.448   1.968   6.772  0.3308  0.4478  1.6723
13226TIP3    H239622   3.307   1.925   6.739  1.1318 -1.3198  0.3670
13227TIP3   OH239623   0.472   7.184   5.680 -0.4532  0.6072 -0.1824
13227TIP3    H139624   0.488   7.189   5.586  0.6252 -1.0807 -0.1240
13227TIP3    H239625   0.497   7.270   5.714  1.7179  0.3821 -1.0953
13228TIP3   OH239626   4.475   1.344   3.445  0.4270 -0.1346 -0.1076
13228TIP3    H139627   4.546   1.280   3.441 -0.4554 -1.0835 -2.8723
13228TIP3    H239628   4.402   1.297   3.485 -1.0202 -1.9463 -4.3239
13229TIP3   OH239629   2.302   5.861   4.469  0.1463  0.1175 -0.0957
13229TIP3    H139630   2.227   5.805   4.489 -0.2120  0.3242 -0.8336
13229TIP3    H239631   2.370   5.832   4.530 -0.5898  0.0589  0.7142
13230TIP3   OH239632   6.172   3.199   1.745 -0.1782 -0.0893 -0.2048
13230TIP3    H139633   6.158   3.281   1.793  0.2464  0.5668 -1.1611
13230TIP3    H239634   6.084   3.171   1.719 -0.4195 -0.5019  1.0024
13231TIP3   OH239635   6.750   5.757   2.970  0.5395  0.3978 -0.7078
13231TIP3    H139636   6.710   5.672   2.985 -1.2169  1.1829 -0.7137
13231TIP3    H239637   6.799   5.775   3.050  0.4098 -0.3426 -0.4533
13232TIP3   OH239638   0.274   6.023   1.080 -0.6325  0.1504  0.4449
13232TIP3    H139639   0.231   6.086   1.022 -1.0232  0.1707  0.7535
13232TIP3    H239640   0.354   5.998   1.033 -0.6739  0.5764  0.1457
13233TIP3   OH239641   6.574   3.372   6.572 -0.2562 -0.0290 -0.4468
13233TIP3    H139642   6.559   3.391   6.664 -2.0460 -1.9286 -0.2613
13233TIP3    H239643   6.620   3.288   6.571 -0.3283 -0.0721 -1.2809
13234TIP3   OH239644   5.611   6.460   1.405 -0.2535  0.2149  0.1895
13234TIP3    H139645   5.517   6.458   1.422 -0.6651  0.0959 -1.8568
13234TIP3    H239646   5.622   6.415   1.321  1.3815  1.9079 -0.5805
13235TIP3   OH239647   1.762   5.292   2.612 -0.4740 -0.6426  0.1262
13235TIP3    H139648   1.675   5.279   2.573  0.2963 -3.1137 -1.0077
13235TIP3    H239649   1.819   5.233   2.562  2.5304  2.9396 -1.1871
13236TIP3   OH239650   1.347   4.200   2.883  0.0647  0.8450 -0.5075
13236TIP3    H139651   1.379   4.135   2.821  2.6388  0.6875  0.8656
13236TIP3    H239652   1.269   4.237   2.840 -0.3563 -1.7139 -2.1821
13237TIP3   OH239653   5.531   1.242   0.885 -0.5470 -0.0041 -0.0772
13237TIP3    H139654   5.597   1.233   0.816  1.3437 -1.2096  1.7754
13237TIP3    H239655   5.580   1.230   0.967 -2.4950  2.3534  1.5744
13238TIP3   OH239656   8.213   4.483   5.031  0.2542  0.1112  0.1733
13238TIP3    H139657   8.286   4.494   4.971 -0.1863  0.0386 -0.3813
13238TIP3    H239658   8.241   4.415   5.092  0.1943 -0.7704 -0.7619
13239TIP3   OH239659   7.997   5.686   0.656 -0.1779 -0.2178  0.0610
13239TIP3    H139660   8.008   5.631   0.733  3.0815  0.8095  0.4617
13239TIP3    H239661   7.978   5.773   0.692 -0.7683 -0.1503 -0.4032
13240TIP3   OH239662   2.170   0.027   0.531  0.0661 -0.0045 -0.0503
13240TIP3    H139663   2.251   0.075   0.547  0.4067 -0.8989  0.9789
13240TIP3    H239664   2.189  -0.028   0.455  0.0412  0.6271 -0.5224
13241TIP3   OH239665   5.972   3.917   5.552 -0.0105  0.1495 -0.2977
13241TIP3    H139666   6.031   3.844   5.567 -1.0825 -0.4443  1.1987
13241TIP3    H239667   5.885   3.878   5.550 -0.4563  1.1204 -1.5723
13242TIP3   OH239668   3.363   2.998   5.776 -0.3318  0.3726  0.5963
13242TIP3    H139669   3.352   2.998   5.871 -1.2053  0.1947  0.5037
13242TIP3    H239670   3.457   2.990   5.763 -0.2214  0.1532  1.4477
13243TIP3   OH239671   0.931   6.103   3.539 -0.2548 -0.4775  0.0406
13243TIP3    H139672   0.972   6.020   3.514 -1.8738 -1.3757  0.1684
13243TIP3    H239673   0.894   6.086   3.626  0.4485  0.7986  0.6150
13244TIP3   OH239674   6.736  -0.003   1.343 -0.2490 -0.1627  0.4853
13244TIP3    H139675   6.700   0.079   1.309  0.3912 -0.3840 -0.7725
13244TIP3    H239676   6.710  -0.004   1.435 -2.4140  0.2455 -0.0705
13245TIP3   OH239677   3.829   0.237   5.978  0.4002 -0.3509  0.3318
13245TIP3    H139678   3.883   0.223   6.055 -3.2113 -1.5514  2.9273
13245TIP3    H239679   3.838   0.330   5.959  0.9148  0.1381  2.6650
13246TIP3   OH239680   1.378   4.451   5.145  0.0486  0.5626 -0.0786
13246TIP3    H139681   1.373   4.433   5.051 -1.4648  0.3554  0.0062
13246TIP3    H239682   1.471   4.452   5.165  0.4171  1.0800 -1.6700
13247TIP3   OH239683   1.938   6.581   2.002  0.0165 -0.1126 -0.2311
13247TIP3    H139684   1.924   6.516   2.071  1.5133 -0.5052 -0.2756
13247TIP3    H239685   1.849   6.603   1.972 -0.5697 -1.3366  0.5141
13248TIP3   OH239686   4.473   3.900   1.650  0.8300 -0.0529  0.2848
13248TIP3    H139687   4.402   3.906   1.586 -1.2670  1.0735  2.5462
13248TIP3    H239688   4.442   3.835   1.713 -0.1480  3.1027  3.3798
13249TIP3   OH239689   5.814   6.354   6.113  0.5221  0.0196 -0.1833
13249TIP3    H139690   5.752   6.416   6.152  0.0958  0.0127 -0.8452
13249TIP3    H239691   5.807   6.276   6.168  0.6944  0.3731  0.3549
13250TIP3   OH239692   2.218   0.088   2.015  0.0250 -0.7556 -0.5506
13250TIP3    H139693   2.263   0.089   2.099  0.9308 -0.4468 -1.0197
13250TIP3    H239694   2.147   0.151   2.025  0.5439 -0.2127 -0.2338
13251TIP3   OH239695   2.260   4.874   1.000  0.3332 -0.2353 -0.0826
13251TIP3    H139696   2.225   4.894   1.087 -1.5836  0.6026 -0.9762
13251TIP3    H239697   2.327   4.808   1.016 -3.2849 -3.9545  1.6948
13252TIP3   OH239698   1.458   1.667   6.325 -0.0648 -0.1017 -0.5121
13252TIP3    H139699   1.369   1.701   6.321  0.0921  0.3606 -0.1095
13252TIP3    H239700   1.509   1.728   6.271  0.5608  1.4252  1.6733
13253TIP3   OH239701   4.987   1.003   4.632  0.6452  0.0148  0.7166
13253TIP3    H139702   5.081   0.985   4.634  0.5825 -0.5419 -0.3884
13253TIP3    H239703   4.978   1.071   4.565  0.2569 -0.0407  0.7119
13254TIP3   OH239704   4.175   6.541   1.928 -0.0738  0.0242  0.5499
13254TIP3    H139705   4.218   6.597   1.993  1.0185  1.1298 -1.0676
13254TIP3    H239706   4.115   6.599   1.881  0.1771 -0.4243 -0.3514
13255TIP3   OH239707   6.682   3.882   2.056 -0.1956  0.1077  0.5243
13255TIP3    H139708   6.679   3.862   2.150  0.1910 -1.0706  0.3123
13255TIP3    H239709   6.763   3.841   2.026  0.9433  2.5158  0.0914
13256TIP3   OH239710   0.216   5.553   5.279  0.5436  0.2788  0.2776
13256TIP3    H139711   0.188   5.514   5.196  2.0092  0.2021 -0.2158
13256TIP3    H239712   0.173   5.502   5.346  0.0396 -0.2373 -0.4279
13257TIP3   OH239713   7.984   6.422   3.590 -0.0669 -0.5305 -0.1620
13257TIP3    H139714   8.014   6.507   3.622  0.9370 -0.3808 -1.4314
13257TIP3    H239715   7.994   6.364   3.665  0.0811  0.2776  0.4671
13258TIP3   OH239716   2.381   6.270   1.020  0.5411 -1.0611  0.3116
13258TIP3    H139717   2.350   6.180   1.034 -2.0703 -0.4980 -1.0936
13258TIP3    H239718   2.403   6.302   1.107 -0.8576 -2.2946  1.1807
13259TIP3   OH239719   1.505   1.551   3.374  0.0943 -0.0993  0.2900
13259TIP3    H139720   1.484   1.636   3.413  0.2294  0.3827 -0.6488
13259TIP3    H239721   1.566   1.572   3.304  0.3894 -1.0192  0.2606
13260TIP3   OH239722   7.764   5.016   2.043 -0.2167  0.6610 -0.4220
13260TIP3    H139723   7.720   4.934   2.023 -0.0085 -0.3673  2.7416
13260TIP3    H239724   7.857   4.994   2.042 -0.0543  1.3371 -1.3096
13261TIP3   OH239725   7.050   2.130   0.482 -0.4323 -0.6944  0.0757
13261TIP3    H139726   7.007   2.045   0.480 -1.8136 -0.0386 -2.2765
13261TIP3    H239727   6.978   2.194   0.478  0.5481  0.4485 -3.3581
13262TIP3   OH239728   4.607   2.597   0.271  0.0826 -0.5309 -0.0108
13262TIP3    H139729   4.558   2.515   0.278 -0.2761 -0.5370 -2.0509
13262TIP3    H239730   4.539   2.665   0.268  0.2810 -0.3484 -0.4661
13263TIP3   OH239731   1.790   3.068   1.993  0.4315 -0.2001  0.4445
13263TIP3    H139732   1.825   3.067   1.904 -0.1189  0.8609  0.1943
13263TIP3    H239733   1.856   3.115   2.044  0.2915  0.0572  0.3891
13264TIP3   OH239734   5.433   4.454   5.958 -0.0240  0.2938 -0.1103
13264TIP3    H139735   5.524   4.427   5.971 -0.2910 -0.7538 -0.3215
13264TIP3    H239736   5.428   4.541   5.998  0.9086  0.0878  0.4946
13265TIP3   OH239737   2.570   5.942   0.914  0.0872  0.1442  0.0907
13265TIP3    H139738   2.653   5.902   0.942  0.1398  0.6897  0.7464
13265TIP3    H239739   2.597   6.016   0.859  0.0127 -0.1126 -0.2961
13266TIP3   OH239740   6.732   6.299   5.974  0.1583  0.3992  0.0250
13266TIP3    H139741   6.728   6.380   5.923  0.0888  0.7099  0.5188
13266TIP3    H239742   6.804   6.249   5.934  0.7892  1.0883  0.2732
13267TIP3   OH239743   4.407   3.521   4.913  0.0991 -0.2071 -0.2508
13267TIP3    H139744   4.480   3.538   4.853  0.0080 -0.1298 -0.3403
13267TIP3    H239745   4.344   3.590   4.893 -1.2465 -1.8746 -2.1347
13268TIP3   OH239746   3.398   5.518   0.538  0.2024  0.1226  0.3766
13268TIP3    H139747   3.451   5.456   0.588  0.9933  0.1157 -0.4408
13268TIP3    H239748   3.415   5.496   0.446 -1.6756 -0.2560  0.0790
13269TIP3   OH239749   4.812   3.858   0.775 -0.0366  0.0628 -0.0128
13269TIP3    H139750   4.772   3.922   0.835 -2.0465 -1.0090 -0.1315
13269TIP3    H239751   4.843   3.788   0.832 -0.5405 -0.2226 -0.0763
13270TIP3   OH239752   1.984   2.056   0.168 -0.0358 -0.6701 -0.0787
13270TIP3    H139753   1.904   2.023   0.207  0.9043  1.2949  4.0334
13270TIP3    H239754   2.041   1.979   0.159 -1.0505 -1.5163  0.5728
13271TIP3   OH239755   8.100   0.592   5.795 -0.5374 -0.1828  0.0114
13271TIP3    H139756   8.164   0.539   5.842  3.0155  2.8291 -0.9196
13271TIP3    H239757   8.057   0.644   5.863  0.8669  0.5254  0.3834
13272TIP3   OH239758   2.093   0.194   3.592 -0.1444 -0.3526 -0.0813
13272TIP3    H139759   2.085   0.103   3.564  0.8192 -0.5307  0.1895
13272TIP3    H239760   2.013   0.211   3.642  0.4198 -1.5909  1.3279
13273TIP3   OH239761   2.140   6.038   3.696  0.7927  0.4770 -0.3275
13273TIP3    H139762   2.113   6.059   3.786  4.1136  2.3986  0.3693
13273TIP3    H239763   2.116   6.116   3.646 -2.4221 -1.1506 -1.6175
13274TIP3   OH239764   4.469   5.411   5.310 -0.2987 -0.3795  0.2540
13274TIP3    H139765   4.507   5.488   5.353 -0.8249 -0.0633  0.1605
13274TIP3    H239766   4.465   5.436   5.217  0.2574 -0.8213  0.1047
13275TIP3   OH239767   4.440   2.876   4.304 -0.0129  0.1680  0.1001
13275TIP3    H139768   4.513   2.817   4.282 -0.7102 -0.0678 -1.7112
13275TIP3    H239769   4.482   2.949   4.350  1.2130 -0.5384  0.1508
13276TIP3   OH239770   0.686   5.513   0.769  0.9582  0.0074 -0.5895
13276TIP3    H139771   0.750   5.464   0.718 -0.5454 -0.9905 -1.6058
13276TIP3    H239772   0.673   5.462   0.848  0.5631 -0.4200 -0.9248
13277TIP3   OH239773   5.939   6.053   4.458 -0.0298  0.7885  0.4385
13277TIP3    H139774   5.957   6.117   4.389  1.4312  1.5244  1.4643
13277TIP3    H239775   5.845   6.061   4.474 -0.5315  0.2224 -1.7978
13278TIP3   OH239776   1.780   4.483   4.406  0.1854 -0.5108  0.2245
13278TIP3    H139777   1.868   4.465   4.373 -0.2318  0.3312 -1.4514
13278TIP3    H239778   1.762   4.572   4.378 -1.6531 -1.0697 -0.5248
13279TIP3   OH239779   7.083   6.266   3.445 -0.0967  0.1523  0.4694
13279TIP3    H139780   7.161   6.218   3.473  0.4485  0.5792 -0.3169
13279TIP3    H239781   7.025   6.198   3.411 -0.6137 -0.3351  2.2062
13280TIP3   OH239782   4.983   6.574   1.968 -0.1906  0.0203 -0.3408
13280TIP3    H139783   4.892   6.563   1.995  0.3031 -1.8495  0.7401
13280TIP3    H239784   5.010   6.487   1.937  0.8660  0.8406 -1.8724
13281TIP3   OH239785   6.496   5.805   5.750 -1.3736 -0.2658  0.3995
13281TIP3    H139786   6.591   5.805   5.755 -1.3309 -0.0281 -0.2819
13281TIP3    H239787   6.468   5.753   5.826 -0.7562  0.6514  1.2718
13282TIP3   OH239788   8.246   5.997   5.755  0.0514  0.4962  0.0280
13282TIP3    H139789   8.258   5.972   5.847 -0.6574  1.6711  0.4669
13282TIP3    H239790   8.322   6.053   5.736  0.1731  0.2903 -0.0920
13283TIP3   OH239791   1.582   5.194   3.139  0.1910  0.3335 -0.0084
13283TIP3    H139792   1.509   5.255   3.133 -0.5574 -0.3742  1.3264
13283TIP3    H239793   1.556   5.132   3.208  2.1482  0.2170  0.6946
13284TIP3   OH239794   5.658   6.152   3.515  0.7355 -0.8654  0.4048
13284TIP3    H139795   5.624   6.241   3.523 -1.1971 -1.5007 -0.1579
13284TIP3    H239796   5.747   6.157   3.549  0.3065  1.0527  1.3848
13285TIP3   OH239797   6.124   7.010   2.671  0.0826  0.4581  0.1926
13285TIP3    H139798   6.111   7.092   2.623 -1.1041  0.4663  0.4806
13285TIP3    H239799   6.204   6.973   2.635  1.5882  2.5507  1.2076
13286TIP3   OH239800   7.282   2.876   1.986  0.1549 -0.1851 -0.3476
13286TIP3    H139801   7.219   2.948   1.993 -0.0651 -0.2728 -1.3066
13286TIP3    H239802   7.249   2.821   1.915  0.1348 -1.4408  0.6047
13287TIP3   OH239803   2.165   1.677   6.735  0.0849  0.3395  0.6801
13287TIP3    H139804   2.112   1.739   6.786 -0.3151 -0.0781  0.7861
13287TIP3    H239805   2.143   1.696   6.644  0.3369  0.6775  0.6852
13288TIP3   OH239806   6.837   1.211   3.817 -0.2175  0.1895 -0.1437
13288TIP3    H139807   6.751   1.234   3.852  0.9268  2.3138  1.5423
13288TIP3    H239808   6.882   1.170   3.891  0.6912  0.4620 -0.5326
13289TIP3   OH239809   5.335   4.722   2.399 -0.0075  0.0927 -0.0655
13289TIP3    H139810   5.394   4.665   2.449  0.9299  1.1205  0.0324
13289TIP3    H239811   5.343   4.808   2.441 -1.4551  0.2980 -0.1656
13290TIP3   OH239812   7.500   4.199   5.038  0.2678  0.5431 -0.4233
13290TIP3    H139813   7.539   4.258   5.103 -0.2162  1.5099 -0.9784
13290TIP3    H239814   7.407   4.222   5.037 -0.4613 -1.9327  1.0907
13291TIP3   OH239815   0.706   7.355   5.458 -0.2335  0.2304  0.5500
13291TIP3    H139816   0.616   7.331   5.439  0.5647 -3.2426  0.5397
13291TIP3    H239817   0.758   7.310   5.392  1.5562  2.9700 -0.1024
13292TIP3   OH239818   6.055   0.216   0.078 -0.1439 -0.2420 -0.1151
13292TIP3    H139819   6.046   0.239  -0.014  0.9649  0.5389 -0.0534
13292TIP3    H239820   6.149   0.225   0.096 -0.3771 -0.1106  1.1511
13293TIP3   OH239821   2.072   5.143  -0.002 -0.0021 -0.0831 -0.0898
13293TIP3    H139822   2.145   5.205  -0.009 -1.4503  1.5614 -1.8211
13293TIP3    H239823   2.070   5.117   0.090  0.7979  2.3083  0.6596
13294TIP3   OH239824   3.883   6.531   1.298 -0.5798  0.7034 -0.5018
13294TIP3    H139825   3.967   6.563   1.264 -1.0351  0.7309 -1.6610
13294TIP3    H239826   3.885   6.551   1.391 -0.2292  2.7398 -0.9143
13295TIP3   OH239827   3.307   6.280   6.519 -0.2387 -0.6385  0.1719
13295TIP3    H139828   3.369   6.346   6.489 -0.1755 -0.1501  1.3198
13295TIP3    H239829   3.228   6.295   6.468 -0.2632  0.4054  0.5023
13296TIP3   OH239830   6.103   7.411   4.955 -0.3769 -0.0260  0.0912
13296TIP3    H139831   6.130   7.471   5.024 -0.3659  0.2090 -0.1157
13296TIP3    H239832   6.153   7.440   4.878  0.0737 -0.6591  0.1330
13297TIP3   OH239833   0.106   5.692   5.842  0.1330 -0.7465  0.1090
13297TIP3    H139834   0.124   5.785   5.854 -0.7702 -0.4609 -0.6697
13297TIP3    H239835   0.179   5.661   5.787 -0.6010 -0.0399 -1.3194
13298TIP3   OH239836   2.134   2.940   2.625  0.3706 -0.2649 -0.2588
13298TIP3    H139837   2.225   2.917   2.606  0.4892 -1.0297  1.0908
13298TIP3    H239838   2.140   3.008   2.692 -0.0304 -1.3089  0.8770
13299TIP3   OH239839   7.689   0.499   4.193  0.1632 -0.3053 -0.2251
13299TIP3    H139840   7.703   0.478   4.101  1.1571  0.8143 -0.3575
13299TIP3    H239841   7.665   0.592   4.194  1.0570 -0.0497  0.6806
13300TIP3   OH239842   0.574   4.859   2.233  0.1363  0.4638  0.5402
13300TIP3    H139843   0.502   4.921   2.224  0.5973  1.0303  0.6933
13300TIP3    H239844   0.616   4.883   2.316  0.8241  0.4934  0.1921
13301TIP3   OH239845   4.516   6.914   2.283 -0.5539  0.1827  0.2206
13301TIP3    H139846   4.452   6.978   2.252  0.4757  1.4653  0.6629
13301TIP3    H239847   4.518   6.924   2.378 -0.8565 -0.9890  0.3692
13302TIP3   OH239848   8.193   2.062   5.683  0.5761  0.1834  0.2610
13302TIP3    H139849   8.198   2.158   5.677 -1.3876  0.3524  0.4337
13302TIP3    H239850   8.107   2.041   5.646  0.8121 -1.4777  0.6073
13303TIP3   OH239851   6.257   4.369   0.667  0.7800 -0.0939 -0.9845
13303TIP3    H139852   6.304   4.348   0.748 -0.8637  1.9280  0.6078
13303TIP3    H239853   6.323   4.405   0.609  1.8944 -1.0141 -0.3178
13304TIP3   OH239854   2.299   3.846   5.125 -0.6851 -0.8045 -0.2196
13304TIP3    H139855   2.392   3.858   5.145 -0.8649 -1.4228  1.0841
13304TIP3    H239856   2.269   3.933   5.098  0.3785 -0.7089 -1.1622
13305TIP3   OH239857   2.096   4.710   0.257 -0.2007  0.8375 -0.6301
13305TIP3    H139858   2.095   4.716   0.352  1.3604  0.0252 -0.5346
13305TIP3    H239859   2.021   4.655   0.235 -1.9140  2.8199 -0.0716
13306TIP3   OH239860   4.374   1.421   1.525  0.0892  0.5792  0.5378
13306TIP3    H139861   4.282   1.397   1.532  0.0355  0.5621 -0.1279
13306TIP3    H239862   4.398   1.453   1.611 -0.6677  1.0457  0.5754
13307TIP3   OH239863   3.095   2.840   2.807  0.5649 -0.3244 -0.1388
13307TIP3    H139864   3.108   2.913   2.868 -2.3642  0.8379 -0.7178
13307TIP3    H239865   3.119   2.877   2.722  0.3919 -0.5059 -0.2651
13308TIP3   OH239866   1.561   6.782   1.364 -0.0325 -0.6951 -0.3548
13308TIP3    H139867   1.524   6.856   1.412 -2.6278 -1.2551 -1.2896
13308TIP3    H239868   1.648   6.812   1.337 -0.3444  1.3731  0.7022
13309TIP3   OH239869   3.170   6.531   3.238 -0.3351  0.1021  0.4562
13309TIP3    H139870   3.196   6.599   3.301 -1.4787  0.3936  0.6239
13309TIP3    H239871   3.165   6.577   3.154  0.8433 -0.2132  0.1937
13310TIP3   OH239872   5.510   5.430   1.262  0.2008 -0.1363  0.3250
13310TIP3    H139873   5.555   5.496   1.315  1.3600 -0.6016 -0.0598
13310TIP3    H239874   5.445   5.480   1.212  1.1174  0.7421 -0.0319
13311TIP3   OH239875   1.586   1.562   0.691 -0.2486  0.1141  0.1484
13311TIP3    H139876   1.525   1.488   0.693  0.8008 -0.7621  0.8048
13311TIP3    H239877   1.622   1.566   0.780  2.8923 -1.3676 -0.9018
13312TIP3   OH239878   6.301   3.351   0.789 -0.7127 -1.1475  0.0554
13312TIP3    H139879   6.229   3.321   0.734 -0.4913 -1.8726  0.1407
13312TIP3    H239880   6.347   3.270   0.813  0.2238 -0.6859 -0.1379
13313TIP3   OH239881   0.087   5.255   3.730 -0.0342  0.3181 -0.2939
13313TIP3    H139882   0.008   5.290   3.689  1.1530  1.2577 -1.9408
13313TIP3    H239883   0.141   5.227   3.656  1.1790 -0.2559  0.7807
13314TIP3   OH239884   1.805   5.332   3.262  0.7134  0.5028 -0.3240
13314TIP3    H139885   1.733   5.274   3.238  2.3964 -0.8969 -2.3439
13314TIP3    H239886   1.763   5.418   3.275 -1.4376 -0.4913 -0.1942
13315TIP3   OH239887   3.286   4.759   6.277  0.0279 -0.4470 -0.0662
13315TIP3    H139888   3.199   4.796   6.265 -0.4234 -0.9122  1.4777
13315TIP3    H239889   3.345   4.834   6.272 -0.6215  0.1086  0.3911
13316TIP3   OH239890   1.069   7.330   6.345  0.4949  0.2268  0.5214
13316TIP3    H139891   1.138   7.271   6.373  1.9967  2.0085  0.7669
13316TIP3    H239892   1.083   7.410   6.396 -3.0617  0.0058  2.1956
13317TIP3   OH239893   0.504   0.293   3.159 -0.0297  0.3031 -0.6833
13317TIP3    H139894   0.487   0.387   3.155  2.0085  0.8741  1.4235
13317TIP3    H239895   0.438   0.259   3.220 -0.6402  0.3783 -1.2917
13318TIP3   OH239896   7.847   1.239   5.679  0.5782 -0.2851  0.1851
13318TIP3    H139897   7.787   1.220   5.607  0.0751  1.1373  0.1899
13318TIP3    H239898   7.907   1.304   5.643 -1.2910  2.5046  1.7152
13319TIP3   OH239899   6.932   5.075   4.944 -0.0763  0.3083 -0.2859
13319TIP3    H139900   6.878   5.119   5.009  0.9959  0.3931  0.5906
13319TIP3    H239901   6.939   4.985   4.975 -0.0683  0.1887 -0.6250
13320TIP3   OH239902   3.157   2.703   4.745 -0.1539 -0.3929  0.6729
13320TIP3    H139903   3.068   2.685   4.776 -1.1940 -0.4275 -2.0344
13320TIP3    H239904   3.163   2.799   4.743 -0.1124 -0.3915  0.9544
13321TIP3   OH239905   6.671   0.535   4.952 -0.4864  0.2581 -0.4998
13321TIP3    H139906   6.673   0.461   4.892 -1.2857  0.0883 -0.3233
13321TIP3    H239907   6.602   0.592   4.918 -0.8142  0.2529  0.1318
13322TIP3   OH239908   1.738   3.364   0.766  0.2595  0.2525 -0.3971
13322TIP3    H139909   1.805   3.307   0.728 -0.2068 -2.3421  2.2270
13322TIP3    H239910   1.708   3.316   0.843 -1.5086  3.3536  1.0242
13323TIP3   OH239911   6.121   0.500   6.125 -0.4938 -0.3942  0.0768
13323TIP3    H139912   6.165   0.539   6.050 -0.8121 -0.2518 -0.0382
13323TIP3    H239913   6.100   0.573   6.182 -2.3799 -0.1815 -0.8087
13324TIP3   OH239914   0.300   5.854   2.922  0.4989  0.1998 -0.3967
13324TIP3    H139915   0.226   5.862   2.863  1.1629 -0.3352 -1.3210
13324TIP3    H239916   0.348   5.936   2.912 -0.6934  1.1883  1.2855
13325TIP3   OH239917   8.088   1.648   1.338  0.2128 -0.1077 -0.4692
13325TIP3    H139918   8.111   1.700   1.261  1.7345  1.3371  0.8924
13325TIP3    H239919   8.036   1.707   1.392 -2.9694 -1.8492 -1.3342
13326TIP3   OH239920   0.491   5.506   5.016 -0.4217  0.7528  0.2133
13326TIP3    H139921   0.586   5.495   5.006 -0.5841 -0.7734  0.0920
13326TIP3    H239922   0.464   5.432   5.070 -1.0434  3.1814  3.5773
13327TIP3   OH239923   4.235   3.403   0.221 -0.3844 -0.2686 -0.1850
13327TIP3    H139924   4.217   3.366   0.307 -0.4610  2.5418  1.1069
13327TIP3    H239925   4.327   3.428   0.223  0.3136 -2.3857 -1.8903
13328TIP3   OH239926   4.177   4.924   0.325 -0.7321  0.2321 -0.1315
13328TIP3    H139927   4.263   4.918   0.282 -0.8335 -0.4415 -0.2589
13328TIP3    H239928   4.114   4.918   0.254 -0.9285  3.7652 -0.4085
13329TIP3   OH239929   1.955   7.769   5.002  0.2762 -0.4505 -0.0806
13329TIP3    H139930   1.996   7.718   5.071 -2.0719 -1.8574  0.3545
13329TIP3    H239931   2.001   7.743   4.922  1.1829 -0.8597  0.5613
13330TIP3   OH239932   1.659   5.150   1.563 -0.3444 -0.1708  0.8031
13330TIP3    H139933   1.585   5.207   1.586 -0.0460  0.1451  0.9878
13330TIP3    H239934   1.622   5.089   1.500 -0.5307  0.5951  0.1461
13331TIP3   OH239935   5.514   4.510   2.495  0.1629 -0.3188  0.3112
13331TIP3    H139936   5.524   4.508   2.591  0.7009  0.4599  0.2812
13331TIP3    H239937   5.603   4.516   2.462 -0.1014  1.5197 -0.1539
13332TIP3   OH239938   5.997   1.627   2.624  0.3931 -0.7410  0.5200
13332TIP3    H139939   6.087   1.648   2.648  2.0068 -3.0854 -2.8274
13332TIP3    H239940   5.979   1.544   2.668  0.0477 -0.5500  0.7449
13333TIP3   OH239941   2.437   4.131   5.347  0.1859  0.2521 -0.2478
13333TIP3    H139942   2.368   4.136   5.413 -2.5950  0.0601 -2.8579
13333TIP3    H239943   2.439   4.039   5.321  1.7880  0.1769  0.0668
13334TIP3   OH239944   6.625   0.593   0.361 -0.3634 -0.3401  0.0405
13334TIP3    H139945   6.617   0.548   0.445  3.2572 -0.9866  0.2209
13334TIP3    H239946   6.654   0.524   0.301 -0.8683  0.5345 -1.2294
13335TIP3   OH239947   1.256   2.848   4.587 -0.0860 -0.4702 -0.0882
13335TIP3    H139948   1.233   2.910   4.656 -0.1591 -0.7332  0.1245
13335TIP3    H239949   1.176   2.839   4.536  0.1150  0.1179 -0.5171
13336TIP3   OH239950   5.265   3.514   5.204  0.6861  0.1361 -0.2143
13336TIP3    H139951   5.249   3.429   5.163 -0.9196  0.2344  0.1232
13336TIP3    H239952   5.233   3.578   5.140  0.9780  0.4331 -0.0652
13337TIP3   OH239953   6.206   2.926   2.275  0.3014 -0.0214 -0.1926
13337TIP3    H139954   6.146   2.867   2.321  0.6719 -0.3201 -0.0850
13337TIP3    H239955   6.153   2.964   2.205  0.0838 -0.5618 -0.3270
13338TIP3   OH239956   0.087   6.808   0.119  0.3317 -0.0622 -0.0322
13338TIP3    H139957   0.085   6.900   0.093 -0.0311  0.0067  0.2491
13338TIP3    H239958   0.024   6.766   0.061  1.5034 -0.3893 -1.1330
13339TIP3   OH239959   5.950   0.706   0.341  0.1660 -0.4517  0.4057
13339TIP3    H139960   6.012   0.745   0.403 -0.1082  0.2198  0.2709
13339TIP3    H239961   5.925   0.779   0.285 -0.4732 -0.8007  0.2363
13340TIP3   OH239962   6.624   3.301   3.382 -0.3597  0.5837 -0.1236
13340TIP3    H139963   6.658   3.218   3.415  1.4382  2.0568  2.0620
13340TIP3    H239964   6.545   3.317   3.433  0.3392  1.0490  0.8638
13341TIP3   OH239965   7.863   3.936   2.582  0.0146 -0.4688 -0.0222
13341TIP3    H139966   7.836   3.926   2.490 -0.0704 -2.5959  0.1861
13341TIP3    H239967   7.927   3.866   2.596  0.8151  0.4849  1.2804
13342TIP3   OH239968   5.974   5.699   0.560 -0.4159  0.1369 -0.6265
13342TIP3    H139969   5.901   5.757   0.542 -0.1181 -0.0469 -2.5907
13342TIP3    H239970   6.052   5.751   0.539  0.0036  0.0172  0.5471
13343TIP3   OH239971   3.799   6.812   5.137  0.1263 -0.0361 -0.4580
13343TIP3    H139972   3.787   6.886   5.195 -1.6158 -0.4058 -0.2668
13343TIP3    H239973   3.893   6.797   5.134  0.4009  1.3989  0.4649
13344TIP3   OH239974   7.832   2.226   1.208  0.0940 -0.0460 -0.3270
13344TIP3    H139975   7.798   2.283   1.139  0.2052 -0.4264 -0.7045
13344TIP3    H239976   7.883   2.160   1.161 -1.2468 -1.3439 -0.0298
13345TIP3   OH239977   8.179   3.196   5.131 -0.1014  0.5878 -0.5916
13345TIP3    H139978   8.240   3.232   5.067  0.6657  0.7503  0.2258
13345TIP3    H239979   8.189   3.251   5.208  1.1937 -1.3948  0.7424
13346TIP3   OH239980   6.640   5.877   6.218 -0.6020  0.5415 -0.0580
13346TIP3    H139981   6.560   5.831   6.242 -0.0743 -0.0315  0.6502
13346TIP3    H239982   6.709   5.811   6.225 -0.1601  0.8370 -1.3969
13347TIP3   OH239983   4.626   4.443   2.830  0.6164 -0.6178 -0.4820
13347TIP3    H139984   4.668   4.382   2.769  1.0223 -2.7484  1.7917
13347TIP3    H239985   4.538   4.408   2.841 -0.5370  1.5423 -2.1227
13348TIP3   OH239986   7.380   3.167   4.434  0.2917 -0.2289  0.6374
13348TIP3    H139987   7.286   3.184   4.434  0.3944  0.6762 -1.6552
13348TIP3    H239988   7.391   3.088   4.381  1.0229  1.7822 -2.4431
13349TIP3   OH239989   0.892   4.295   4.101  0.0652 -0.7529 -0.0459
13349TIP3    H139990   0.855   4.367   4.050 -0.2573 -2.4229 -2.3342
13349TIP3    H239991   0.840   4.219   4.077  0.7521 -1.9061  1.8587
13350TIP3   OH239992   7.501   1.434   4.021  0.1013  0.6701  0.1869
13350TIP3    H139993   7.516   1.528   4.013  0.8425  0.6944  1.5443
13350TIP3    H239994   7.445   1.412   3.947  0.4646  2.0570 -0.5293
13351TIP3   OH239995   7.857   1.522   3.861 -0.4540  0.1775 -0.5874
13351TIP3    H139996   7.863   1.616   3.879  0.6493  0.0168 -0.0354
13351TIP3    H239997   7.898   1.480   3.936  0.5011 -0.6769 -1.5516
13352TIP3   OH239998   4.671   6.246   0.827 -0.2969 -0.1062  0.2184
13352TIP3    H139999   4.706   6.323   0.783  0.5853  0.2060  1.4062
13352TIP3    H240000   4.576   6.257   0.824 -0.1838  0.9006  0.1506
13353TIP3   OH240001   3.717   2.484   4.628 -0.2841  0.1214  0.4614
13353TIP3    H140002   3.726   2.445   4.541  0.8746  1.2506  0.0461
13353TIP3    H240003   3.760   2.423   4.687  1.0656  0.4850 -0.1107
13354TIP3   OH240004   6.218   4.941   1.771 -0.0534 -1.0258  0.4441
13354TIP3    H140005   6.275   4.869   1.795  1.2891 -0.6654 -1.4657
13354TIP3    H240006   6.189   4.921   1.682  0.7431  0.9902 -0.3345
13355TIP3   OH240007   3.140   1.032   6.058 -0.0962  0.8154 -0.4934
13355TIP3    H140008   3.213   1.094   6.058  0.1240  0.5833 -1.8171
13355TIP3    H240009   3.095   1.048   6.142  2.6050 -0.4199  1.3233
13356TIP3   OH240010   0.724   1.311   1.954  0.0600  0.6559  0.3979
13356TIP3    H140011   0.806   1.357   1.938  0.3917  0.3312  1.0996
13356TIP3    H240012   0.722   1.298   2.049  1.0281 -2.5948  0.1230
13357TIP3   OH240013   5.675   7.760   5.383 -0.1634  0.4247  0.2572
13357TIP3    H140014   5.635   7.673   5.385  1.4260 -0.3214  0.9280
13357TIP3    H240015   5.747   7.751   5.321  0.7260  0.9429  1.2005
13358TIP3   OH240016   3.423   6.616   0.349  0.1656  0.0486 -0.0615
13358TIP3    H140017   3.371   6.543   0.383 -1.7770  1.7975  1.0160
13358TIP3    H240018   3.458   6.584   0.267  2.0889 -3.1733  1.8028
13359TIP3   OH240019   0.448   5.975   0.467  0.6348 -0.6396 -0.1115
13359TIP3    H140020   0.388   5.923   0.520 -1.6020  2.2110  0.3994
13359TIP3    H240021   0.401   5.989   0.385  0.5483  1.5521  0.2509
13360TIP3   OH240022   1.117   0.712   1.259  0.3283 -0.2188 -0.2357
13360TIP3    H140023   1.030   0.752   1.257 -0.1073 -1.1527 -2.3514
13360TIP3    H240024   1.164   0.762   1.325 -0.9545  2.1456 -0.9818
13361TIP3   OH240025   7.848   3.425   5.711 -0.0530 -0.1203 -0.4341
13361TIP3    H140026   7.880   3.335   5.708 -2.9474 -1.3008  0.5195
13361TIP3    H240027   7.791   3.433   5.634 -0.7297  0.4978  0.1153
13362TIP3   OH240028   0.605   0.648   1.506 -0.6472 -0.1161 -0.9206
13362TIP3    H140029   0.552   0.570   1.488 -0.5369 -0.8783  1.6513
13362TIP3    H240030   0.600   0.658   1.601  0.4540  2.2471 -1.0590
13363TIP3   OH240031   7.090   0.763   2.876 -0.0949  0.5031 -0.3846
13363TIP3    H140032   7.154   0.719   2.820  1.5062  0.4181  1.4107
13363TIP3    H240033   7.079   0.704   2.950  0.6346  2.2080  1.1358
13364TIP3   OH240034   7.256   1.463   1.547 -0.0853  0.3454 -0.4465
13364TIP3    H140035   7.303   1.522   1.488  0.3581 -1.3834 -1.8693
13364TIP3    H240036   7.324   1.427   1.604  0.3590 -1.7642 -2.1749
13365TIP3   OH240037   6.166   3.747   0.627  0.0098  0.4472  0.4999
13365TIP3    H140038   6.250   3.759   0.671  0.2809  0.4751 -0.0242
13365TIP3    H240039   6.101   3.752   0.698  0.4589  0.2191  0.9295
13366TIP3   OH240040   4.592   6.942   0.980  0.3124 -0.1685 -0.3132
13366TIP3    H140041   4.617   7.005   1.049 -3.4790  1.6534 -0.3360
13366TIP3    H240042   4.530   6.990   0.926 -0.4259 -3.0709 -2.2339
13367TIP3   OH240043   7.786   3.351   6.497  0.0435 -0.1561  0.1505
13367TIP3    H140044   7.799   3.270   6.547  1.0914 -2.4839 -3.4946
13367TIP3    H240045   7.874   3.379   6.472 -0.4550 -0.4961 -2.2441
13368TIP3   OH240046   4.386   1.311   4.382 -0.0011 -0.5168  0.5607
13368TIP3    H140047   4.317   1.376   4.394  2.6699  2.2080  2.9528
13368TIP3    H240048   4.385   1.259   4.463 -0.5127 -1.8939 -0.2891
13369TIP3   OH240049   3.734   7.265   1.872 -0.5925 -0.2940 -0.0566
13369TIP3    H140050   3.681   7.243   1.949  0.7765 -1.1302  0.6945
13369TIP3    H240051   3.816   7.297   1.908 -0.1486 -0.1255 -1.1838
13370TIP3   OH240052   3.856   2.579   0.575 -0.0180 -0.2099  0.0175
13370TIP3    H140053   3.852   2.641   0.502  2.6112  1.4444  1.1285
13370TIP3    H240054   3.929   2.521   0.553  1.4207  0.8697  1.6057
13371TIP3   OH240055   6.588   7.349   4.495 -0.3402  0.2997  0.0817
13371TIP3    H140056   6.551   7.393   4.571  0.0645  0.4283  0.2070
13371TIP3    H240057   6.541   7.266   4.490 -0.6607  0.4701  0.2219
13372TIP3   OH240058   2.142   2.782   3.874  0.3989 -0.4000  0.2402
13372TIP3    H140059   2.143   2.784   3.969 -0.0089 -0.7613  0.2551
13372TIP3    H240060   2.049   2.781   3.851  0.4892  0.0571 -0.1701
13373TIP3   OH240061   7.235   1.319   3.233  0.0042  0.0259 -0.0746
13373TIP3    H140062   7.228   1.317   3.328  0.0077  1.5289 -0.0189
13373TIP3    H240063   7.325   1.291   3.215  0.4335  1.0163  0.4583
13374TIP3   OH240064   2.451   3.794   1.454  0.0160 -0.0704  0.0247
13374TIP3    H140065   2.427   3.859   1.389 -1.1701 -1.0536 -0.5598
13374TIP3    H240066   2.429   3.710   1.414 -0.6862 -0.7159  1.6568
13375TIP3   OH240067   6.994   0.602   6.761  0.0213 -0.1655  0.1883
13375TIP3    H140068   7.026   0.671   6.819  1.4370 -0.7196  0.1062
13375TIP3    H240069   7.039   0.619   6.678 -0.5414 -0.4929 -0.1904
13376TIP3   OH240070   4.731   6.063   4.983 -0.0780  0.2845  0.2762
13376TIP3    H140071   4.678   6.001   5.033  0.6282 -0.5803 -0.0121
13376TIP3    H240072   4.792   6.008   4.934  0.5780  1.2167  0.0170
13377TIP3   OH240073   2.745   1.442   3.452 -0.1798  0.0317  0.2225
13377TIP3    H140074   2.687   1.428   3.378  1.0605  1.1138 -0.9983
13377TIP3    H240075   2.795   1.360   3.461 -0.2007 -0.0321 -0.2585
13378TIP3   OH240076   1.100   2.056   2.886  0.1630 -0.0634 -0.1782
13378TIP3    H140077   1.092   1.965   2.913  0.3313  0.3070  1.1675
13378TIP3    H240078   1.009   2.086   2.878  0.0228 -0.9737 -2.9810
13379TIP3   OH240079   2.722   3.719   1.865 -0.0318  0.2004  1.0974
13379TIP3    H140080   2.629   3.694   1.867 -0.2913  1.1678  1.8599
13379TIP3    H240081   2.768   3.644   1.903 -0.3724 -0.7122 -0.2003
13380TIP3   OH240082   2.706   2.751   1.784  0.4025  0.5287  0.9266
13380TIP3    H140083   2.798   2.769   1.806  0.5882  1.6886 -0.6610
13380TIP3    H240084   2.673   2.703   1.860  2.4340 -0.3415  1.3435
13381TIP3   OH240085   0.096   5.132   0.342  0.2314 -0.2384 -0.2107
13381TIP3    H140086   0.109   5.226   0.334 -2.1051  0.1637  0.1317
13381TIP3    H240087   0.131   5.096   0.260 -0.8158  1.1681 -1.3163
13382TIP3   OH240088   7.894   7.701   2.282  0.8158  0.3451 -1.1540
13382TIP3    H140089   7.926   7.620   2.322 -1.7771  0.0241  0.5179
13382TIP3    H240090   7.834   7.671   2.214 -0.4534  0.8071 -0.2694
13383TIP3   OH240091   4.193   6.048   2.920  0.4501 -0.3696 -0.0152
13383TIP3    H140092   4.269   6.009   2.877 -1.0972 -2.1527 -1.3027
13383TIP3    H240093   4.117   6.011   2.873 -1.2346  0.7204  1.6984
13384TIP3   OH240094   8.279   3.192   1.376 -0.4233 -0.3854 -0.6235
13384TIP3    H140095   8.346   3.230   1.319 -0.7232 -1.4414 -1.7299
13384TIP3    H240096   8.213   3.260   1.385 -0.0580  0.0206 -1.0083
13385TIP3   OH240097   7.864   6.635   3.138  0.1393 -0.0723 -0.6926
13385TIP3    H140098   7.813   6.554   3.147  2.4490 -1.9234 -2.8992
13385TIP3    H240099   7.919   6.620   3.062  1.1599  3.3902 -0.7936
13386TIP3   OH240100   7.763   5.718   4.874 -0.1869 -0.0587 -0.0795
13386TIP3    H140101   7.733   5.726   4.965  0.4202 -2.7754  0.4277
13386TIP3    H240102   7.720   5.640   4.841  2.5295 -1.3582 -0.8439
13387TIP3   OH240103   6.526   4.708   0.326  0.2012 -0.0331  0.2455
13387TIP3    H140104   6.621   4.717   0.319  0.1004  1.5695  0.6284
13387TIP3    H240105   6.511   4.614   0.316  2.0307 -0.6610  2.4103
13388TIP3   OH240106   2.313   2.998   1.046  0.3580 -0.0810 -0.2282
13388TIP3    H140107   2.294   3.073   0.989 -1.4475  0.7696  1.3640
13388TIP3    H240108   2.407   2.983   1.035  0.5374  1.6135 -1.5467
13389TIP3   OH240109   0.501   3.193   5.665 -0.5115 -0.0359  0.5201
13389TIP3    H140110   0.555   3.181   5.743 -1.1007  0.3200  0.9922
13389TIP3    H240111   0.487   3.105   5.631  0.6381 -0.1020  0.2016
13390TIP3   OH240112   4.575   4.385   6.246 -0.4552  0.1410  0.4320
13390TIP3    H140113   4.551   4.374   6.339 -0.7174  0.5013  0.4110
13390TIP3    H240114   4.662   4.425   6.248 -0.1462 -0.5255  0.5147
13391TIP3   OH240115   3.032   6.385   5.535  0.0822 -0.6499 -0.7541
13391TIP3    H140116   3.000   6.452   5.595 -0.2749 -0.2289 -1.4043
13391TIP3    H240117   2.999   6.303   5.571 -1.1279 -0.2954 -1.0040
13392TIP3   OH240118   5.400   2.419   2.145 -0.0761  0.2612  0.1780
13392TIP3    H140119   5.378   2.377   2.062 -0.5718  0.4321  0.2248
13392TIP3    H240120   5.419   2.510   2.121 -0.4669  0.3703  0.2903
13393TIP3   OH240121   5.084   5.885   1.392 -0.2239  0.1446 -0.5150
13393TIP3    H140122   5.177   5.869   1.380  0.3395  0.4632  2.7057
13393TIP3    H240123   5.074   5.980   1.379  0.4663  0.5825  1.7988
13394TIP3   OH240124   7.676   6.272   4.929 -0.3677  0.4106 -0.0532
13394TIP3    H140125   7.686   6.180   4.952  1.3219  0.7506  0.7142
13394TIP3    H240126   7.681   6.274   4.834  3.4634 -0.0007 -0.0337
13395TIP3   OH240127   7.522   1.250   4.245  0.0659  0.3299 -0.0854
13395TIP3    H140128   7.604   1.201   4.240 -1.1403 -1.7743 -0.2757
13395TIP3    H240129   7.525   1.308   4.169  0.7847 -0.7136 -0.8889
13396TIP3   OH240130   6.595   4.338   5.849 -0.3526  0.8188  0.1460
13396TIP3    H140131   6.685   4.311   5.865 -0.4749  0.1073 -0.3588
13396TIP3    H240132   6.561   4.359   5.936  0.7536  2.5866  0.1916
13397TIP3   OH240133   0.334   7.272   4.844  0.3202  0.0191 -0.4606
13397TIP3    H140134   0.250   7.236   4.874  1.1948 -2.3606 -0.6589
13397TIP3    H240135   0.314   7.309   4.758 -0.6302 -0.0305 -0.2768
13398TIP3   OH240136   2.460   3.834   0.268  0.4084  0.2386 -0.0093
13398TIP3    H140137   2.398   3.885   0.319  1.0438  0.5596  0.4520
13398TIP3    H240138   2.546   3.864   0.297  0.8925 -2.3635  1.6590
13399TIP3   OH240139   2.042   4.022   3.871 -0.2061  0.1282  0.3288
13399TIP3    H140140   2.131   4.045   3.899  0.2817 -1.1434 -0.1125
13399TIP3    H240141   2.050   4.008   3.776 -0.9657  0.4193  0.2205
13400TIP3   OH240142   2.399   5.017   2.470 -0.1452 -0.0021 -0.7713
13400TIP3    H140143   2.349   4.942   2.439 -1.9154  1.0216 -0.5355
13400TIP3    H240144   2.452   5.043   2.394  1.9974 -2.5600 -0.3213
13401TIP3   OH240145   4.501   5.488   5.035  0.0637 -0.1743 -0.0438
13401TIP3    H140146   4.464   5.571   5.003  0.3620  0.7482  1.8505
13401TIP3    H240147   4.591   5.489   5.004  0.0063  0.1003 -0.2116
13402TIP3   OH240148   4.291   3.396   3.080 -0.2328  0.3033 -0.6233
13402TIP3    H140149   4.347   3.320   3.092 -0.7491  0.0429  0.2577
13402TIP3    H240150   4.227   3.370   3.013 -1.6718 -0.8169  1.0781
13403TIP3   OH240151   4.516   3.762   6.114  0.0240  0.2252  0.0060
13403TIP3    H140152   4.547   3.701   6.181  0.6208  1.2471  0.6782
13403TIP3    H240153   4.595   3.788   6.066 -0.4966 -1.2956 -1.8500
13404TIP3   OH240154   2.800   4.592   6.808 -0.1125  0.0070  0.5390
13404TIP3    H140155   2.720   4.546   6.786 -0.7821  0.9537  0.9240
13404TIP3    H240156   2.852   4.591   6.727  0.1716 -1.9159  0.6984
13405TIP3   OH240157   7.792   4.581   2.091  0.0627  0.2470 -0.3842
13405TIP3    H140158   7.724   4.538   2.143 -0.3146  0.6878 -0.5078
13405TIP3    H240159   7.870   4.527   2.105  0.3797  1.1747  1.8764
13406TIP3   OH240160   7.926   1.468   5.393  0.0059 -0.2478 -0.1169
13406TIP3    H140161   7.931   1.554   5.350  0.2708 -0.3485 -0.2941
13406TIP3    H240162   7.871   1.416   5.335  1.5076 -0.8155 -1.1119
13407TIP3   OH240163   6.507   6.541   3.181  0.1090  0.3971 -0.0415
13407TIP3    H140164   6.590   6.568   3.221 -0.8506  2.3002  0.8081
13407TIP3    H240165   6.485   6.613   3.121  0.6380 -1.5816 -2.8081
13408TIP3   OH240166   2.365   4.448   1.619  0.0718  0.5255 -0.5871
13408TIP3    H140167   2.366   4.354   1.632 -0.0959  0.5105 -0.6732
13408TIP3    H240168   2.457   4.475   1.624 -0.0103  0.5833  1.0342
13409TIP3   OH240169   2.512   5.242   3.181  0.1167 -0.3316 -0.5294
13409TIP3    H140170   2.528   5.292   3.261  0.5871 -0.4336 -0.5565
13409TIP3    H240171   2.474   5.305   3.121 -0.8384 -0.4066 -0.0151
13410TIP3   OH240172   5.993   4.332   0.853 -0.1332 -0.3849  0.2377
13410TIP3    H140173   6.041   4.252   0.877  0.1598 -0.8214 -1.6523
13410TIP3    H240174   6.057   4.385   0.805 -0.5341  0.6931  0.8477
13411TIP3   OH240175   2.839   0.795   2.751  0.1171 -0.0192 -0.4379
13411TIP3    H140176   2.863   0.853   2.678  2.0338 -2.3169 -1.7434
13411TIP3    H240177   2.782   0.729   2.711 -1.1023  0.2473  0.7848
13412TIP3   OH240178   4.123   3.835   4.012 -0.2702  0.2629  0.1816
13412TIP3    H140179   4.213   3.826   3.982 -0.4898 -2.5182  0.0888
13412TIP3    H240180   4.131   3.870   4.101  0.8494  0.4785  0.0106
13413TIP3   OH240181   4.471   5.655   3.856  0.0609 -0.1578 -0.0939
13413TIP3    H140182   4.516   5.728   3.898  0.4371 -1.3265  1.6681
13413TIP3    H240183   4.379   5.680   3.856  0.3074  0.7841 -0.5413
13414TIP3   OH240184   3.272   5.971   3.295  0.1237 -0.4066  0.2600
13414TIP3    H140185   3.199   5.941   3.241 -0.0841 -0.5906  0.6432
13414TIP3    H240186   3.267   5.919   3.375  0.0939  0.2547  0.7006
13415TIP3   OH240187   0.816   6.877   1.255 -0.2854 -0.2612  0.1026
13415TIP3    H140188   0.723   6.900   1.261  0.0879  0.9914  1.4112
13415TIP3    H240189   0.833   6.825   1.333 -0.2341 -1.9145 -0.9628
13416TIP3   OH240190   8.027   4.680   0.403  0.2894 -1.3421  0.5145
13416TIP3    H140191   8.069   4.698   0.319  1.1445  0.3022  1.2430
13416TIP3    H240192   7.943   4.641   0.380  0.7572 -1.4587 -1.0845
13417TIP3   OH240193   5.362   3.194   3.502  0.2538  0.2016 -0.6856
13417TIP3    H140194   5.400   3.129   3.562 -0.3102 -1.1949 -1.7881
13417TIP3    H240195   5.437   3.229   3.454  0.7246  1.3957  0.8480
13418TIP3   OH240196   6.030   0.629   2.167 -0.1329  0.1950 -0.3114
13418TIP3    H140197   6.052   0.708   2.118  1.5803  1.0453  1.7245
13418TIP3    H240198   5.935   0.634   2.178 -0.2460  1.1673 -1.4689
13419TIP3   OH240199   0.639   5.926   2.034  0.1270 -0.0682 -0.5354
13419TIP3    H140200   0.666   5.862   1.968  1.8607  0.0459  0.0106
13419TIP3    H240201   0.687   5.902   2.113 -0.2056  1.1210  0.0612
13420TIP3   OH240202   7.170   3.724   1.819 -0.2923  0.0047 -0.7456
13420TIP3    H140203   7.105   3.755   1.882 -0.7716 -1.4375 -0.5021
13420TIP3    H240204   7.129   3.650   1.776  0.7374 -0.1754 -1.4574
13421TIP3   OH240205   1.470   1.628   3.776  0.3000  0.4196  0.8320
13421TIP3    H140206   1.471   1.544   3.732  0.5200 -0.6377  2.7269
13421TIP3    H240207   1.541   1.678   3.736  0.5094 -0.4957  0.0453
13422TIP3   OH240208   6.005   7.171   6.305  0.5367  0.3470 -0.6079
13422TIP3    H140209   5.988   7.078   6.323  1.5898  0.3744  0.6780
13422TIP3    H240210   5.920   7.206   6.276 -0.2824 -0.6562  0.4808
13423TIP3   OH240211   0.685   2.794   0.325 -0.0159  0.0633  0.3540
13423TIP3    H140212   0.599   2.760   0.300  1.1426 -2.0732 -1.0406
13423TIP3    H240213   0.711   2.740   0.399  0.1876  0.6310  0.7001
13424TIP3   OH240214   1.510   1.174   1.864  0.4586 -0.3592 -0.1165
13424TIP3    H140215   1.489   1.262   1.895  4.1100  0.4497  0.5599
13424TIP3    H240216   1.544   1.188   1.775  1.2051 -1.0181  0.0494
13425TIP3   OH240217   3.480   1.393   3.613 -0.1805  0.4874  0.0902
13425TIP3    H140218   3.465   1.318   3.555 -0.6540  0.1737  0.6137
13425TIP3    H240219   3.531   1.358   3.685 -2.3507  0.1046  1.5262
13426TIP3   OH240220   4.784   0.771   5.316 -0.0018  0.1086 -0.1836
13426TIP3    H140221   4.713   0.717   5.280 -0.0754  0.1120 -0.0450
13426TIP3    H240222   4.769   0.858   5.280 -0.5593  0.3068  0.5101
13427TIP3   OH240223   3.455   7.438   1.269 -0.2234 -0.1264  0.7686
13427TIP3    H140224   3.503   7.484   1.338  0.1137  0.2002  0.3296
13427TIP3    H240225   3.377   7.404   1.312 -1.0722  1.8039  0.8972
13428TIP3   OH240226   1.192   2.331   5.085 -0.5222  0.2888 -0.7994
13428TIP3    H140227   1.166   2.263   5.147 -0.7868  0.8744 -0.2578
13428TIP3    H240228   1.111   2.350   5.036 -0.2877 -0.2531 -1.4149
13429TIP3   OH240229   1.521   6.087   0.175 -0.1526  0.1204  0.1908
13429TIP3    H140230   1.465   6.164   0.186 -2.3979 -1.5798  1.4551
13429TIP3    H240231   1.550   6.091   0.084  1.3407  3.3487  0.6343
13430TIP3   OH240232   8.100   1.706   6.318 -0.0551 -0.3045 -0.5442
13430TIP3    H140233   8.077   1.796   6.341  1.6692  0.1337 -0.4214
13430TIP3    H240234   8.146   1.714   6.234  0.7478 -0.9843 -0.1756
13431TIP3   OH240235   7.062   0.432   6.414  0.1995  0.7572 -0.4698
13431TIP3    H140236   7.009   0.369   6.463  0.4993  2.1220  1.7573
13431TIP3    H240237   7.074   0.392   6.328  0.1064 -2.0675  0.7165
13432TIP3   OH240238   0.309   6.643   3.863 -0.2862 -0.0914  0.1050
13432TIP3    H140239   0.360   6.689   3.797  1.4763 -2.6959 -0.5022
13432TIP3    H240240   0.262   6.575   3.814 -1.8318  0.2094  1.0948
13433TIP3   OH240241   6.329   4.823   1.120 -0.1365 -0.1711 -0.0379
13433TIP3    H140242   6.337   4.848   1.212 -0.8120 -1.4409  0.3922
13433TIP3    H240243   6.236   4.834   1.100 -0.2096 -1.0482 -0.2091
13434TIP3   OH240244   2.050   2.235   0.383  0.3907 -0.1401 -0.0520
13434TIP3    H140245   2.047   2.158   0.326 -1.1310  0.4794 -0.8692
13434TIP3    H240246   1.962   2.271   0.379  0.9485  1.3954  0.6806
13435TIP3   OH240247   7.371   2.702   6.068  0.5010  0.1515  0.6706
13435TIP3    H140248   7.304   2.719   6.134 -1.8398  2.3344 -2.0167
13435TIP3    H240249   7.414   2.786   6.055 -0.0372  0.1639 -1.4432
13436TIP3   OH240250   5.415   3.236   3.813  0.3517  0.1581 -0.0242
13436TIP3    H140251   5.327   3.226   3.778  0.8099 -0.6388 -1.0021
13436TIP3    H240252   5.413   3.318   3.862 -1.3828 -0.6694  1.3715
13437TIP3   OH240253   8.102   3.021   5.759 -0.4206  0.5011  0.2944
13437TIP3    H140254   8.045   2.965   5.706 -0.0879 -0.4124  0.8789
13437TIP3    H240255   8.073   3.005   5.849  0.1200  0.7738  0.5169
13438TIP3   OH240256   8.231   2.204   1.326  0.6143  0.0116  0.3266
13438TIP3    H140257   8.147   2.172   1.293  1.3747 -0.2340 -1.4995
13438TIP3    H240258   8.230   2.183   1.419 -1.8332  1.1058  0.6068
13439TIP3   OH240259   1.978   4.826   2.800  0.1622 -0.2940 -0.0359
13439TIP3    H140260   2.041   4.898   2.796 -0.8659  0.7659  1.7392
13439TIP3    H240261   2.009   4.765   2.733  1.9222  1.0872 -0.5921
13440TIP3   OH240262   1.854   4.948   3.570 -0.3262  0.1476 -0.0800
13440TIP3    H140263   1.822   5.028   3.611  1.6363  0.4463  1.0066
13440TIP3    H240264   1.934   4.974   3.524  0.3473 -1.1681  0.2742
13441TIP3   OH240265   8.247   7.204   4.496 -0.4123  0.0668  0.2021
13441TIP3    H140266   8.323   7.147   4.505 -1.7702 -1.8880 -0.1487
13441TIP3    H240267   8.258   7.245   4.410  1.2497  1.4661  1.0167
13442TIP3   OH240268   4.129   2.368   3.068  0.2175 -0.1148 -0.1870
13442TIP3    H140269   4.097   2.328   3.149 -0.5446 -1.1407 -0.9678
13442TIP3    H240270   4.085   2.453   3.064  0.2070 -0.0875  0.4400
13443TIP3   OH240271   8.012   4.373   0.337  0.0312 -0.2072  0.2152
13443TIP3    H140272   7.929   4.351   0.378  0.4018 -0.8313  0.6424
13443TIP3    H240273   7.988   4.412   0.253 -0.6776 -0.8855  0.0957
13444TIP3   OH240274   3.589   1.826   4.184  0.1859  0.2384  0.4950
13444TIP3    H140275   3.555   1.800   4.098  0.4164  0.2693  0.3927
13444TIP3    H240276   3.539   1.774   4.247  1.1920 -1.0634  0.2633
13445TIP3   OH240277   5.752   1.301   2.310 -0.4844 -0.1281  0.1887
13445TIP3    H140278   5.731   1.208   2.308  0.2200 -0.2991  0.3977
13445TIP3    H240279   5.780   1.317   2.400 -2.3804  0.7078  0.6943
13446TIP3   OH240280   3.586   2.555   2.264  0.6971 -0.0617 -0.0038
13446TIP3    H140281   3.587   2.487   2.196  0.2670 -1.0134  0.9060
13446TIP3    H240282   3.555   2.510   2.343  1.4844  0.9284  0.9200
13447TIP3   OH240283   5.626   1.688   0.338  0.1089  0.5260  0.2256
13447TIP3    H140284   5.564   1.744   0.292 -0.5704  1.0191  1.6691
13447TIP3    H240285   5.636   1.611   0.283 -3.6808 -0.7134  1.0158
13448TIP3   OH240286   6.322   2.451   5.328  0.6017  0.1988 -0.3414
13448TIP3    H140287   6.227   2.458   5.313  0.7088  1.0404 -0.6737
13448TIP3    H240288   6.330   2.424   5.419  0.0426  0.2450 -0.2736
13449TIP3   OH240289   3.782   4.453   1.594 -0.2007  0.0731 -0.2975
13449TIP3    H140290   3.745   4.433   1.680  1.3216 -0.1606  0.3367
13449TIP3    H240291   3.824   4.539   1.605  2.5301 -1.2147  0.0939
13450TIP3   OH240292   0.237   5.721   2.607 -0.3006  0.0915  0.1570
13450TIP3    H140293   0.326   5.747   2.631 -0.0871  2.3454 -2.6423
13450TIP3    H240294   0.182   5.764   2.672  0.5605 -0.2249  1.1283
13451TIP3   OH240295   2.788   7.115   1.573  0.5206 -0.1744 -0.7211
13451TIP3    H140296   2.711   7.102   1.627  1.3025 -0.4677  0.3614
13451TIP3    H240297   2.754   7.127   1.484 -0.9902  2.8182  0.1092
13452TIP3   OH240298   3.778   5.311   0.444 -0.2698 -0.3168  0.2699
13452TIP3    H140299   3.799   5.219   0.458  0.2906 -0.4777 -1.3991
13452TIP3    H240300   3.709   5.310   0.378  0.2663  0.4576 -0.3286
13453TIP3   OH240301   4.638   4.623   6.553  0.0626  0.1716 -0.3738
13453TIP3    H140302   4.709   4.607   6.490  1.1082  1.1669  0.5202
13453TIP3    H240303   4.671   4.692   6.610 -1.5059  0.4178  0.2879
13454TIP3   OH240304   4.637   0.292   3.505  0.0259  0.2295 -0.2403
13454TIP3    H140305   4.621   0.325   3.593 -0.4181 -3.1241  1.0893
13454TIP3    H240306   4.726   0.256   3.509 -0.9260 -2.3061 -0.2589
13455TIP3   OH240307   1.939   6.176   1.750  0.2412  0.1938 -0.2444
13455TIP3    H140308   1.916   6.210   1.664  1.4829  0.6807 -0.4028
13455TIP3    H240309   1.984   6.249   1.793  1.2448 -0.6248  0.1260
13456TIP3   OH240310   5.795   6.600   2.999 -0.2322  0.0617  0.2892
13456TIP3    H140311   5.794   6.696   2.992  0.0446 -0.0198 -1.1652
13456TIP3    H240312   5.704   6.574   2.983  0.0753 -0.0221 -1.4361
13457TIP3   OH240313   6.569   7.212   4.885 -0.1878  0.3099 -0.4382
13457TIP3    H140314   6.572   7.301   4.919  0.1029  0.9401 -2.0556
13457TIP3    H240315   6.610   7.217   4.799  1.4565 -1.7311  0.1468
13458TIP3   OH240316   2.538   1.194   2.078  0.1484 -0.0048 -0.2718
13458TIP3    H140317   2.544   1.157   1.990  0.4889  2.2273 -1.2691
13458TIP3    H240318   2.448   1.176   2.106 -0.2082 -0.0350 -1.4143
13459TIP3   OH240319   4.081   2.075   5.276  0.5617  0.0847  0.4427
13459TIP3    H140320   4.133   2.137   5.226 -0.7530  0.6454 -0.3008
13459TIP3    H240321   4.047   2.125   5.350 -1.9015  0.8571 -1.0605
13460TIP3   OH240322   2.256   0.198   4.740 -0.0776  0.1887 -0.1048
13460TIP3    H140323   2.342   0.204   4.780  0.1700 -0.3780 -0.5425
13460TIP3    H240324   2.249   0.277   4.686  0.7175 -0.4125 -1.1206
13461TIP3   OH240325   4.681   7.700   1.476 -0.6593  0.4260  0.1996
13461TIP3    H140326   4.606   7.759   1.489 -1.2437  0.0781 -1.3592
13461TIP3    H240327   4.650   7.637   1.411  0.9047  0.1319 -0.2870
13462TIP3   OH240328   5.285   3.792   0.761  0.2257 -0.4677  0.2021
13462TIP3    H140329   5.336   3.765   0.684  0.5845  1.3217 -0.2443
13462TIP3    H240330   5.211   3.841   0.724 -0.4543 -0.9156  0.9507
13463TIP3   OH240331   4.628   0.786   2.128  0.5513  0.1012  0.2200
13463TIP3    H140332   4.551   0.839   2.150  1.4360  1.9601 -0.8543
13463TIP3    H240333   4.701   0.832   2.170  1.4101  0.0584 -1.1715
13464TIP3   OH240334   4.647   5.122   5.506 -0.7906  0.1074  0.0560
13464TIP3    H140335   4.637   5.217   5.511 -3.4825 -0.1534  1.0929
13464TIP3    H240336   4.586   5.094   5.438 -0.7730 -0.9703  0.4580
13465TIP3   OH240337   2.816   0.796   4.961  0.3423 -0.0099  0.5550
13465TIP3    H140338   2.912   0.804   4.964  0.1904  2.0925  2.3320
13465TIP3    H240339   2.785   0.858   5.027 -2.2947  0.2549 -0.8028
13466TIP3   OH240340   0.409   0.173   1.642 -0.3705 -1.1653 -0.4395
13466TIP3    H140341   0.331   0.176   1.698  0.4633  2.8870  0.8294
13466TIP3    H240342   0.375   0.152   1.555 -2.5514 -1.7317  0.4773
13467TIP3   OH240343   5.195   2.574   5.867 -0.0450  0.2591 -0.0454
13467TIP3    H140344   5.260   2.504   5.876 -0.1488  0.4550  3.4863
13467TIP3    H240345   5.246   2.654   5.856  0.1214 -0.0110 -1.5209
13468TIP3   OH240346   7.021   5.338   4.891  0.2472 -0.2835 -0.4184
13468TIP3    H140347   6.969   5.407   4.849  0.5730 -0.3698 -0.9699
13468TIP3    H240348   6.963   5.262   4.893 -0.7041  0.4149  1.6455
13469TIP3   OH240349   2.903   0.164   6.717  0.3437  0.6153 -0.2531
13469TIP3    H140350   2.838   0.215   6.766 -0.6044  0.1561 -0.9885
13469TIP3    H240351   2.987   0.194   6.750 -0.2483  0.1865  1.7844
13470TIP3   OH240352   7.579   1.537   2.148 -0.0476  0.5976 -0.1686
13470TIP3    H140353   7.624   1.613   2.110 -0.9457  0.8853 -0.7002
13470TIP3    H240354   7.491   1.539   2.109 -0.0289 -0.8308 -0.3364
13471TIP3   OH240355   5.133   0.335   4.288  0.1211 -0.1554 -0.1257
13471TIP3    H140356   5.077   0.406   4.257 -0.1280 -0.4467 -0.3442
13471TIP3    H240357   5.192   0.377   4.350 -0.3468  0.1476  0.1173
13472TIP3   OH240358   2.913   3.827   3.198 -0.0992 -0.5337 -0.5038
13472TIP3    H140359   2.900   3.830   3.103  1.3294 -0.4115 -0.7121
13472TIP3    H240360   2.833   3.866   3.234  0.7276  2.5589 -1.7508
13473TIP3   OH240361   1.990   5.839   5.465  0.2164 -0.2395  0.9569
13473TIP3    H140362   1.932   5.882   5.528 -1.4529 -1.3714  0.2569
13473TIP3    H240363   2.015   5.908   5.404 -1.5351  0.0138  0.4855
13474TIP3   OH240364   0.795   5.031   4.525  0.5938  0.2957 -0.2582
13474TIP3    H140365   0.828   4.948   4.492  0.7890  0.3905 -0.3010
13474TIP3    H240366   0.824   5.035   4.616 -0.3703 -0.1962  0.0857
13475TIP3   OH240367   1.688   4.728   4.296 -0.3558  0.2791 -0.0473
13475TIP3    H140368   1.682   4.760   4.207  2.3646  3.0011  0.6052
13475TIP3    H240369   1.635   4.789   4.347  2.5277  2.2274  0.8254
13476TIP3   OH240370   7.135   4.318   2.333  0.1201  0.4446 -0.4215
13476TIP3    H140371   7.091   4.267   2.266  1.0316  0.7540 -1.2749
13476TIP3    H240372   7.224   4.283   2.337  0.8043  1.9955 -1.1062
13477TIP3   OH240373   4.899   3.328   0.729  0.3461 -0.2620  0.0377
13477TIP3    H140374   4.891   3.321   0.824 -0.1605  1.2781  0.1417
13477TIP3    H240375   4.823   3.280   0.694 -0.6490  0.9348  0.5001
13478TIP3   OH240376   0.607   5.230   5.436 -0.6201  0.5467 -0.7038
13478TIP3    H140377   0.556   5.193   5.508 -1.8638 -0.9706 -2.2757
13478TIP3    H240378   0.632   5.317   5.468 -2.8412  0.7469  0.7959
13479TIP3   OH240379   1.709   5.038   5.618 -0.2120  0.1705  0.1690
13479TIP3    H140380   1.625   5.082   5.632 -0.5174 -0.5653  0.6864
13479TIP3    H240381   1.773   5.093   5.664 -0.8059 -0.7130  2.1482
13480TIP3   OH240382   0.917   4.772   1.002  0.4994 -0.0574 -0.3056
13480TIP3    H140383   0.858   4.844   1.027  0.5190 -0.4556  0.9785
13480TIP3    H240384   1.004   4.803   1.027  0.4252 -0.7974  0.9793
13481TIP3   OH240385   6.628   3.433   1.320 -0.0724 -0.3647 -0.1621
13481TIP3    H140386   6.639   3.398   1.231 -1.9835  0.4700 -0.7825
13481TIP3    H240387   6.588   3.361   1.369 -0.5343 -0.2978 -0.4340
13482TIP3   OH240388   6.143   5.541   0.854 -0.4747 -1.0490  0.1758
13482TIP3    H140389   6.208   5.499   0.911  0.7903  1.4378  0.6682
13482TIP3    H240390   6.094   5.598   0.912  1.4735  2.2918 -1.1909
13483TIP3   OH240391   1.422   0.095   2.097 -0.3862 -0.3146 -0.4647
13483TIP3    H140392   1.383   0.136   2.019 -0.0067  1.9528  0.4587
13483TIP3    H240393   1.348   0.086   2.157 -0.1295  0.9024  0.0584
13484TIP3   OH240394   2.376   3.641   0.824  0.3454 -0.2871  0.4953
13484TIP3    H140395   2.304   3.695   0.856  0.8301 -0.2142  1.5162
13484TIP3    H240396   2.445   3.703   0.799 -0.2652 -0.3058 -1.4078
13485TIP3   OH240397   2.734   5.384   5.498  0.2091 -0.4415  0.3925
13485TIP3    H140398   2.724   5.393   5.403 -3.1168  0.8716  0.7227
13485TIP3    H240399   2.805   5.444   5.520 -1.0930  1.7631 -0.9893
13486TIP3   OH240400   0.419   7.631   4.582  0.0338 -0.3357  0.0902
13486TIP3    H140401   0.349   7.678   4.537  0.1499 -0.9095 -0.7031
13486TIP3    H240402   0.499   7.676   4.556  0.0159  0.0013  0.5934
13487TIP3   OH240403   0.531   7.196   0.780 -0.2261 -0.1102  0.5109
13487TIP3    H140404   0.577   7.251   0.717  0.0966 -0.1539  0.7030
13487TIP3    H240405   0.463   7.152   0.729 -2.5672  2.7940  0.9310
13488TIP3   OH240406   7.796   2.857   2.008 -0.2124 -0.1246  0.2162
13488TIP3    H140407   7.804   2.952   2.020 -0.0739 -0.1788  0.5801
13488TIP3    H240408   7.878   2.831   1.965  0.1322 -0.1983  0.8977
13489TIP3   OH240409   5.219   4.228   4.621 -0.4168 -0.2388  0.0335
13489TIP3    H140410   5.134   4.260   4.590 -0.2843 -0.1970 -0.2811
13489TIP3    H240411   5.223   4.258   4.712 -0.3470  0.5293 -0.2212
13490TIP3   OH240412   2.830   4.948   2.489  0.1957  0.5607  0.3693
13490TIP3    H140413   2.789   4.862   2.496 -0.2015  0.6911 -0.3198
13490TIP3    H240414   2.757   5.010   2.497  0.0559  0.7784 -2.0277
13491TIP3   OH240415   0.437   5.787   0.106  0.0000  0.0040 -0.0614
13491TIP3    H140416   0.359   5.732   0.095 -0.2743  0.0298  1.6035
13491TIP3    H240417   0.502   5.728   0.144  0.5464  0.2025 -0.6674
13492TIP3   OH240418   6.394   3.375   4.422 -0.0939  0.4305 -0.0403
13492TIP3    H140419   6.468   3.424   4.386  0.3256  0.6024  1.0244
13492TIP3    H240420   6.320   3.402   4.368  0.2256  1.8383  0.1732
13493TIP3   OH240421   6.276   0.057   0.536 -0.6304 -0.1716 -0.6507
13493TIP3    H140422   6.278   0.027   0.445 -0.3463  0.6437 -0.9154
13493TIP3    H240423   6.234  -0.015   0.583  1.3512 -1.6437 -1.0309
13494TIP3   OH240424   7.710   4.435   4.837  0.1256  0.5613  0.3179
13494TIP3    H140425   7.744   4.498   4.900  1.4810  0.0687  0.0966
13494TIP3    H240426   7.685   4.488   4.761  0.0366  0.9690  0.6288
13495TIP3   OH240427  -0.016   2.518   3.862 -0.1988 -0.1386 -0.5445
13495TIP3    H140428   0.018   2.473   3.939 -1.9777 -0.7125 -0.0655
13495TIP3    H240429   0.025   2.605   3.865 -1.1851  0.3136  1.7479
13496TIP3   OH240430   3.527   2.401   0.074  0.0066  0.3160  0.0881
13496TIP3    H140431   3.555   2.339   0.141  2.3403  0.4192 -0.6986
13496TIP3    H240432   3.432   2.389   0.067 -0.0861 -0.7071  2.3539
13497TIP3   OH240433   0.774   3.907   2.313  0.4063 -0.0504 -0.1771
13497TIP3    H140434   0.861   3.871   2.302 -0.0422 -1.9680  1.8404
13497TIP3    H240435   0.715   3.842   2.275 -0.2073  1.7079 -2.5271
13498TIP3   OH240436   6.935   3.642   3.814 -0.1262 -0.0617 -0.2255
13498TIP3    H140437   7.004   3.696   3.853 -0.4143 -0.5823  1.0466
13498TIP3    H240438   6.857   3.697   3.818 -0.3406 -0.4263  0.7354
13499TIP3   OH240439   3.397   5.296   2.065 -0.2990  0.0297 -0.0913
13499TIP3    H140440   3.339   5.298   2.141 -0.8413 -0.9681 -0.4559
13499TIP3    H240441   3.397   5.386   2.033 -1.3507  0.1280  0.1399
13500TIP3   OH240442   6.072   3.941   4.202 -0.0511 -0.2383  0.0496
13500TIP3    H140443   6.121   3.971   4.278  0.1881  0.8992 -0.5362
13500TIP3    H240444   6.102   3.997   4.130 -1.2348 -0.4200 -0.6107
13501TIP3   OH240445   3.073   3.481   4.312 -0.0875  0.3157  0.1051
13501TIP3    H140446   3.095   3.561   4.263  0.7673 -0.4095 -0.7418
13501TIP3    H240447   3.150   3.425   4.301 -0.7531 -0.7069  0.5319
13502TIP3   OH240448   3.489   6.569   3.079 -0.0192  0.1695 -0.0150
13502TIP3    H140449   3.476   6.511   3.154  2.2864 -1.1455 -0.5615
13502TIP3    H240450   3.451   6.522   3.005 -0.7783  0.7192  0.0066
13503TIP3   OH240451   6.696   7.186   1.517  0.0784 -0.5337 -0.0130
13503TIP3    H140452   6.669   7.275   1.492  1.2337 -0.1696  0.0007
13503TIP3    H240453   6.635   7.129   1.469 -0.4046  0.2492 -0.3570
13504TIP3   OH240454   6.653   7.129   5.384 -0.1759  0.2485 -0.0272
13504TIP3    H140455   6.655   7.046   5.337  0.6285  0.2806 -0.0519
13504TIP3    H240456   6.710   7.187   5.333 -0.3351  0.6658  0.2683
13505TIP3   OH240457   1.031   3.234   2.546 -0.6087 -0.3990  0.2452
13505TIP3    H140458   0.991   3.182   2.615  1.1256  0.2147  1.7923
13505TIP3    H240459   1.010   3.187   2.465 -1.7434 -1.7454  1.2844
13506TIP3   OH240460   5.433   2.096   1.542 -0.0564  0.0003  0.2386
13506TIP3    H140461   5.361   2.040   1.512 -0.4348 -0.1978  1.4542
13506TIP3    H240462   5.504   2.079   1.480 -0.3829 -1.3466  0.2046
13507TIP3   OH240463   7.122   5.824   4.605 -0.5273 -0.4314  0.3691
13507TIP3    H140464   7.122   5.920   4.608  1.1026 -0.4223  1.2446
13507TIP3    H240465   7.150   5.803   4.515  0.0808 -0.0652  0.4679
13508TIP3   OH240466   0.389   3.688   3.854  0.0300  0.1112 -0.0225
13508TIP3    H140467   0.328   3.734   3.913  0.8368  2.5913 -0.9939
13508TIP3    H240468   0.332   3.652   3.785 -0.5521  0.4942  0.2442
13509TIP3   OH240469   1.987   1.130   3.199  0.1764  0.4141 -0.2196
13509TIP3    H140470   2.010   1.157   3.288  2.0807 -0.0507 -0.5218
13509TIP3    H240471   1.944   1.207   3.161  1.9060  1.6693  0.2221
13510TIP3   OH240472   4.613   5.856   0.567  0.6979  0.2417 -0.3363
13510TIP3    H140473   4.671   5.892   0.634 -0.8046  1.6208  0.2781
13510TIP3    H240474   4.528   5.846   0.610  0.1593 -0.6118 -1.5358
13511TIP3   OH240475   5.862   0.833   5.902 -0.9671  0.1737  0.2113
13511TIP3    H140476   5.780   0.876   5.928  0.3306  2.3015  0.9363
13511TIP3    H240477   5.931   0.890   5.933  0.9616 -2.8915  2.1404
13512TIP3   OH240478   2.728   4.742   5.753 -0.0135 -0.1122  0.0245
13512TIP3    H140479   2.657   4.768   5.811 -0.5726 -0.0986 -0.6512
13512TIP3    H240480   2.751   4.653   5.782  2.1650  1.1411  2.5858
13513TIP3   OH240481   1.705   2.908   3.407 -0.4561  0.4782  0.1871
13513TIP3    H140482   1.780   2.849   3.409  0.6271  1.7363 -1.2748
13513TIP3    H240483   1.732   2.984   3.459 -1.6377 -0.0034  1.6053
13514TIP3   OH240484   7.505   7.050   2.763  0.0924  0.3661  0.4377
13514TIP3    H140485   7.479   6.977   2.708 -0.9704  2.0663 -1.4154
13514TIP3    H240486   7.509   7.012   2.852 -0.4476 -1.8938 -0.4267
13515TIP3   OH240487   3.877   5.799   5.687  0.0752 -0.2221 -0.3550
13515TIP3    H140488   3.824   5.738   5.637 -1.1274  1.4972 -1.2732
13515TIP3    H240489   3.883   5.877   5.632  1.4227  0.5668  0.8347
13516TIP3   OH240490   1.480   2.586   2.049 -0.1352 -0.3720 -0.2430
13516TIP3    H140491   1.571   2.587   2.081 -0.2515 -0.9591  0.1239
13516TIP3    H240492   1.445   2.503   2.081 -0.5045 -0.6029 -1.2212
13517TIP3   OH240493   7.624   3.651   2.527  0.1416  0.0646 -0.2518
13517TIP3    H140494   7.625   3.747   2.528  0.5129  0.0907 -1.3613
13517TIP3    H240495   7.569   3.629   2.451 -0.0658 -0.6056  0.0878
13518TIP3   OH240496   5.757   5.303   1.081  0.1921 -0.0260 -0.6525
13518TIP3    H140497   5.674   5.329   1.121  0.6000  3.4425 -1.6916
13518TIP3    H240498   5.739   5.217   1.043 -2.5643  0.0901  0.1234
13519TIP3   OH240499   2.469   2.252   5.801 -0.1915  0.4684  0.0174
13519TIP3    H140500   2.554   2.210   5.785 -0.2704  0.1998  0.2957
13519TIP3    H240501   2.459   2.312   5.727  1.1364  1.9524  0.9924
13520TIP3   OH240502   1.669   3.934   6.686 -0.5776 -0.3628  0.1022
13520TIP3    H140503   1.735   3.896   6.628 -0.5691 -0.3313  0.0911
13520TIP3    H240504   1.682   3.889   6.770  0.2437  0.4876  0.4404
13521TIP3   OH240505   6.262   0.426   5.787  0.1130  0.1458  0.2348
13521TIP3    H140506   6.254   0.516   5.820 -0.9129  0.0674  0.2138
13521TIP3    H240507   6.330   0.387   5.842  0.2442  0.7939  0.5514
13522TIP3   OH240508   3.072   2.314   6.270 -0.2754  0.4277  0.0798
13522TIP3    H140509   3.105   2.289   6.356 -0.6454 -1.3949 -0.2762
13522TIP3    H240510   3.069   2.233   6.221  0.6443  1.5424 -1.9403
13523TIP3   OH240511   6.192   7.388   5.217  0.0069 -0.3026 -0.1601
13523TIP3    H140512   6.237   7.310   5.249 -2.0447 -1.1620  0.8309
13523TIP3    H240513   6.151   7.426   5.295 -2.4688 -0.6323 -1.2113
13524TIP3   OH240514   5.423   7.126   3.682  0.3649 -0.6754 -0.1313
13524TIP3    H140515   5.399   7.188   3.614  1.2456  1.1289  1.1140
13524TIP3    H240516   5.362   7.143   3.754  0.0065 -1.9402 -0.1091
13525TIP3   OH240517   2.418   1.130   2.422 -0.1184 -0.1472 -0.1732
13525TIP3    H140518   2.323   1.138   2.424 -0.2325 -0.5251 -1.9577
13525TIP3    H240519   2.451   1.220   2.433 -0.7415  0.1877 -0.9540
13526TIP3   OH240520   5.573   3.304   3.380  0.3710 -0.1236  0.1798
13526TIP3    H140521   5.659   3.295   3.419 -0.0877  0.4910  1.3717
13526TIP3    H240522   5.562   3.398   3.365  0.6619 -0.3520 -1.7921
13527TIP3   OH240523   4.015   1.326   5.652 -0.1716  0.1355 -0.2696
13527TIP3    H140524   3.941   1.353   5.597 -0.9482 -0.5334  0.4077
13527TIP3    H240525   4.075   1.400   5.650 -1.2277  1.0146 -0.1964
13528TIP3   OH240526   6.120   5.635   5.852 -0.4845 -0.1712  0.2372
13528TIP3    H140527   6.088   5.710   5.902 -0.2438  0.0736  0.0255
13528TIP3    H240528   6.163   5.673   5.776  0.5607 -0.4865  0.6532
13529TIP3   OH240529   0.318   0.166   0.967 -0.3411  0.0847  0.0967
13529TIP3    H140530   0.398   0.115   0.982  1.0396  2.5153  1.6801
13529TIP3    H240531   0.338   0.220   0.890 -0.1529  1.2016  0.9106
13530TIP3   OH240532   7.437   6.661   4.575  0.7669  0.1528 -0.1042
13530TIP3    H140533   7.345   6.684   4.568  0.5881 -0.2315  0.7901
13530TIP3    H240534   7.453   6.601   4.502 -0.3207 -1.6691  1.0787
13531TIP3   OH240535   5.809   5.343   6.450 -0.2626  0.0989 -0.5315
13531TIP3    H140536   5.898   5.376   6.465  1.1024 -2.1417 -2.8487
13531TIP3    H240537   5.764   5.357   6.533  1.7095  2.7952  0.2505
13532TIP3   OH240538   0.643   0.623   4.238  0.2496 -0.0844 -0.1950
13532TIP3    H140539   0.655   0.558   4.307  0.5411  0.8616  0.6631
13532TIP3    H240540   0.661   0.707   4.280 -2.3411  0.8029 -0.6625
13533TIP3   OH240541   8.013   5.341   3.098  0.0924  0.1720 -0.4121
13533TIP3    H140542   7.920   5.333   3.120  0.7544  1.0677  3.4506
13533TIP3    H240543   8.052   5.258   3.127  0.7869  0.6233 -0.0256
13534TIP3   OH240544   6.832   0.019   2.900  0.2009  0.3003 -0.2502
13534TIP3    H140545   6.774  -0.056   2.909  0.2666  0.3665  0.9311
13534TIP3    H240546   6.799   0.066   2.823 -0.1541 -0.6515 -0.6902
13535TIP3   OH240547   8.017   7.724   4.867  0.8639  0.5867 -0.0793
13535TIP3    H140548   8.010   7.655   4.802  1.9436  1.6545 -1.3801
13535TIP3    H240549   8.089   7.698   4.923 -1.0295 -1.1049  1.7358
13536TIP3   OH240550   0.868   2.597   0.422  0.7363  0.0316 -0.3369
13536TIP3    H140551   0.939   2.557   0.371  0.5083 -0.7921 -0.0393
13536TIP3    H240552   0.795   2.536   0.411  0.6902 -0.1963  0.9845
13537TIP3   OH240553   5.891   6.324   5.662  0.5137 -0.8822  0.0825
13537TIP3    H140554   5.940   6.255   5.618  0.8765 -0.3854 -0.2992
13537TIP3    H240555   5.937   6.336   5.746  1.1756 -0.2767 -0.3601
13538TIP3   OH240556   4.545   6.604   4.651  0.0287  0.1406  0.6277
13538TIP3    H140557   4.525   6.555   4.571  0.5567  1.6769 -0.4813
13538TIP3    H240558   4.468   6.591   4.707 -1.2008  0.5930 -0.8943
13539TIP3   OH240559   0.917   3.736   3.778 -0.3707 -0.1907 -0.2245
13539TIP3    H140560   0.894   3.728   3.685  0.1426 -0.9052 -0.3042
13539TIP3    H240561   0.848   3.688   3.824 -0.5857  0.1018 -0.2391
13540TIP3   OH240562   2.853   7.460   3.641 -0.1358 -0.4535 -0.3833
13540TIP3    H140563   2.876   7.528   3.577  1.1461  0.9190  1.4256
13540TIP3    H240564   2.936   7.415   3.659 -0.9239 -2.3713 -1.3554
13541TIP3   OH240565   2.827   4.426   1.816  0.1436  0.1359  0.1727
13541TIP3    H140566   2.743   4.380   1.812 -0.3395  1.0608 -1.9862
13541TIP3    H240567   2.880   4.374   1.876 -1.3580 -1.5200  0.1626
13542TIP3   OH240568   1.441   7.448   1.499  0.0750  0.0504  0.2071
13542TIP3    H140569   1.505   7.506   1.458 -0.4064 -0.0802 -0.7796
13542TIP3    H240570   1.365   7.505   1.515 -1.0505 -0.5821 -2.3316
13543TIP3   OH240571   5.427   4.986   0.240  0.4809 -0.7105 -0.0238
13543TIP3    H140572   5.333   5.006   0.237  0.3623 -1.3170 -2.5675
13543TIP3    H240573   5.469   5.071   0.258 -0.4291  0.3136 -2.3197
13544TIP3   OH240574   7.765   4.006   6.312 -0.4191  0.5278  0.4463
13544TIP3    H140575   7.792   3.936   6.371 -0.8136  1.7459  2.1225
13544TIP3    H240576   7.738   3.960   6.232 -0.3730 -1.2031  1.3812
13545TIP3   OH240577   1.373   0.768   5.991 -0.8629 -0.2194  0.5701
13545TIP3    H140578   1.430   0.698   5.960  2.2880  2.2426  0.1757
13545TIP3    H240579   1.378   0.835   5.922 -2.2404  1.1253  1.6993
13546TIP3   OH240580   3.108   7.367   0.991  0.2270 -0.0032 -0.7060
13546TIP3    H140581   3.181   7.305   0.986  0.4691  0.1820  0.4268
13546TIP3    H240582   3.056   7.338   1.066  0.4556  1.2879 -0.0287
13547TIP3   OH240583   5.440   3.154   0.113 -0.4604 -0.6073 -0.3135
13547TIP3    H140584   5.374   3.094   0.149 -0.2221  0.0936  1.4252
13547TIP3    H240585   5.485   3.187   0.191  1.5888 -0.6550 -1.4397
13548TIP3   OH240586   2.249   3.580   6.452 -0.3843  0.5042 -0.1003
13548TIP3    H140587   2.210   3.664   6.476 -0.9633 -0.2322  1.7401
13548TIP3    H240588   2.341   3.600   6.433 -0.4779  1.5136  0.4636
13549TIP3   OH240589   3.399   1.196   3.093  0.2921  0.2416  0.7953
13549TIP3    H140590   3.399   1.136   3.019  0.0278  1.1442  0.0365
13549TIP3    H240591   3.465   1.262   3.070 -2.0464  2.3881 -0.2678
13550TIP3   OH240592   4.364   3.889   4.581  0.1191  0.1948 -0.5011
13550TIP3    H140593   4.359   3.815   4.521  0.3118 -0.2425  0.0214
13550TIP3    H240594   4.310   3.957   4.539  0.1726 -0.1388 -1.1156
13551TIP3   OH240595   5.336   2.287   2.368 -0.0455 -0.4879 -0.1492
13551TIP3    H140596   5.365   2.341   2.294  0.3742 -0.3556  0.1090
13551TIP3    H240597   5.256   2.330   2.398 -0.3696 -0.6971 -0.6941
13552TIP3   OH240598   3.064   1.576   6.670  0.2561 -0.7060  0.2505
13552TIP3    H140599   2.983   1.564   6.619  0.4824  0.1715 -0.3274
13552TIP3    H240600   3.039   1.553   6.759 -0.8177  0.1898  0.1985
13553TIP3   OH240601   6.385   2.356   3.396  0.1903 -0.0639 -0.0720
13553TIP3    H140602   6.348   2.280   3.441 -0.2167  0.0927 -0.1397
13553TIP3    H240603   6.309   2.407   3.368  0.4508  1.1841  1.3428
13554TIP3   OH240604   5.645   5.969   3.727  0.3791  0.1100  0.4263
13554TIP3    H140605   5.660   5.990   3.634 -0.5051  2.0700  0.6711
13554TIP3    H240606   5.648   5.873   3.731 -1.2572 -0.1164 -1.9446
13555TIP3   OH240607   2.147   6.238   1.398  0.8069  0.4643  0.4410
13555TIP3    H140608   2.077   6.197   1.447  1.6774 -1.5789  0.1006
13555TIP3    H240609   2.121   6.329   1.389  0.7871  1.1208  4.9902
13556TIP3   OH240610   3.455   4.207   1.274 -0.0360 -0.0555 -0.5293
13556TIP3    H140611   3.515   4.271   1.312 -0.5508 -0.4064  0.9474
13556TIP3    H240612   3.468   4.215   1.179  2.1722  0.0130 -0.2696
13557TIP3   OH240613   1.164   0.689   6.490 -0.1637 -0.0992 -0.0022
13557TIP3    H140614   1.169   0.766   6.435 -0.8249 -0.3644 -0.4445
13557TIP3    H240615   1.078   0.652   6.472  0.6637 -1.7177 -0.8486
13558TIP3   OH240616   5.107   0.198   1.978 -0.1158  0.2140  0.1101
13558TIP3    H140617   5.051   0.273   1.957 -1.4092 -1.3324 -2.3616
13558TIP3    H240618   5.066   0.158   2.055 -0.6561  0.8290  0.1455
13559TIP3   OH240619   6.875   5.477   6.411 -0.0874  0.2860 -0.1863
13559TIP3    H140620   6.830   5.443   6.489  2.8150  1.5604  2.2782
13559TIP3    H240621   6.964   5.444   6.419  1.2739  3.3936 -0.8938
13560TIP3   OH240622   3.353   2.738   4.958  0.1473 -0.4275 -0.5822
13560TIP3    H140623   3.313   2.653   4.976 -0.0938 -0.4944 -1.3998
13560TIP3    H240624   3.289   2.783   4.902  0.4947  0.0958 -0.5625
13561TIP3   OH240625   0.653   6.828   5.241 -0.3084 -0.4062 -0.6528
13561TIP3    H140626   0.607   6.767   5.183  0.0963 -0.4831 -0.8922
13561TIP3    H240627   0.619   6.807   5.328 -1.1256 -0.0996 -0.8813
13562TIP3   OH240628   3.984   6.107   6.050  0.2349  0.5240  0.1356
13562TIP3    H140629   3.944   6.185   6.088  1.2901  0.8947  0.4942
13562TIP3    H240630   4.063   6.093   6.101  0.8193  0.0776 -0.8741
13563TIP3   OH240631   7.300   7.545   5.072 -0.0598  0.0174  0.4023
13563TIP3    H140632   7.395   7.556   5.079 -0.0176 -0.4485  0.5832
13563TIP3    H240633   7.289   7.462   5.027 -0.3838 -0.1605  0.8004
13564TIP3   OH240634   5.518   3.810   0.916 -0.2775  0.0508  0.3329
13564TIP3    H140635   5.435   3.792   0.870 -0.6672  1.8810  0.2444
13564TIP3    H240636   5.518   3.905   0.927  1.3303 -0.0456  1.2914
13565TIP3   OH240637   0.752   7.310   1.757  0.5758 -0.0338  0.1278
13565TIP3    H140638   0.657   7.298   1.764  0.4882  0.3782 -0.3001
13565TIP3    H240639   0.787   7.221   1.751  0.1480 -0.1711 -0.5115
13566TIP3   OH240640   7.274   6.389   6.588 -0.2685 -0.2022 -0.0277
13566TIP3    H140641   7.241   6.395   6.678  0.6999  1.1540  0.2770
13566TIP3    H240642   7.317   6.304   6.584 -0.5820 -0.4032  0.7041
13567TIP3   OH240643   2.265   5.379   5.142 -0.3212  0.6054 -0.0569
13567TIP3    H140644   2.206   5.380   5.066  0.3368  2.0694 -0.5788
13567TIP3    H240645   2.352   5.388   5.106  0.0506  0.8215  0.8558
13568TIP3   OH240646   3.603   6.308   5.597  0.0678  0.3785 -0.5421
13568TIP3    H140647   3.588   6.357   5.516  1.4674 -0.1199 -1.1369
13568TIP3    H240648   3.603   6.216   5.570  0.1712  0.1799  0.1065
13569TIP3   OH240649   2.285   4.444   6.152  0.1191 -0.0512 -0.4263
13569TIP3    H140650   2.229   4.368   6.165 -1.9602  1.2748 -1.0837
13569TIP3    H240651   2.264   4.502   6.226  0.4350  0.5973 -0.8332
13570TIP3   OH240652   8.142   7.397   0.072  0.0019  0.4033  0.3888
13570TIP3    H140653   8.169   7.479   0.113 -0.7013  0.7092  0.2590
13570TIP3    H240654   8.077   7.423   0.007  1.5553  0.0031 -1.3925
13571TIP3   OH240655   2.966   1.474   2.082  0.3399  0.1965  0.6876
13571TIP3    H140656   3.004   1.508   2.163  1.7277 -1.7715  0.9422
13571TIP3    H240657   2.900   1.411   2.111  0.5817 -0.2474  0.2920
13572TIP3   OH240658   0.457   7.165   6.535  0.7939  0.1284  0.3312
13572TIP3    H140659   0.506   7.163   6.453 -0.3034 -0.5530 -0.3369
13572TIP3    H240660   0.383   7.223   6.516 -0.4817 -1.4686  0.2094
13573TIP3   OH240661   7.695   5.392   6.607 -0.5900  0.0594 -0.1322
13573TIP3    H140662   7.635   5.461   6.579  0.9545  0.4371 -2.8488
13573TIP3    H240663   7.739   5.428   6.684 -0.9106  1.4775 -0.5775
13574TIP3   OH240664   3.801   3.436   4.155 -0.0443  0.1146 -0.1333
13574TIP3    H140665   3.776   3.482   4.235 -1.1665 -1.7724  0.6757
13574TIP3    H240666   3.890   3.465   4.137  0.0071  1.0521  1.4533
13575TIP3   OH240667   5.648   0.445   0.293 -0.4760  1.1203 -0.1557
13575TIP3    H140668   5.717   0.398   0.246 -1.9332 -0.4016 -0.8749
13575TIP3    H240669   5.592   0.482   0.225 -0.8132  1.6934  0.4119
13576TIP3   OH240670   4.656   4.743   0.892  0.7846  0.3913  0.3109
13576TIP3    H140671   4.693   4.666   0.848 -0.0357  1.1206 -1.7503
13576TIP3    H240672   4.659   4.720   0.985 -0.0991 -2.4393 -0.2498
13577TIP3   OH240673   5.101   1.848   3.408 -0.2005 -0.1904  0.3513
13577TIP3    H140674   5.185   1.874   3.446  0.4692 -1.1787 -0.3839
13577TIP3    H240675   5.124   1.820   3.319 -1.6125  1.4193 -0.5806
13578TIP3   OH240676   2.611   6.755   6.302  0.0964 -0.2023 -0.0377
13578TIP3    H140677   2.618   6.835   6.249 -1.5841  0.1525  0.2388
13578TIP3    H240678   2.633   6.783   6.391 -2.0760  0.3569  0.3680
13579TIP3   OH240679   1.956   1.096   5.425  0.4839  0.1096  0.3255
13579TIP3    H140680   1.867   1.126   5.444 -0.1892 -1.8362  0.4565
13579TIP3    H240681   2.006   1.120   5.503 -0.5756 -1.1481  1.4558
13580TIP3   OH240682   4.429   5.240   5.962 -0.1002 -0.3815 -0.4523
13580TIP3    H140683   4.348   5.206   6.002 -0.5031 -1.4757 -2.1008
13580TIP3    H240684   4.499   5.195   6.008 -0.5073 -0.8782 -0.3062
13581TIP3   OH240685   4.565   7.004   3.558 -0.2765 -0.3696  0.0442
13581TIP3    H140686   4.566   7.073   3.492 -0.8875 -1.2733 -0.9418
13581TIP3    H240687   4.493   7.028   3.616 -0.5690 -0.2532 -0.3646
13582TIP3   OH240688   4.737   4.488   0.795 -0.6771 -0.2114  0.3493
13582TIP3    H140689   4.826   4.514   0.817 -0.8526  0.7637 -0.0442
13582TIP3    H240690   4.736   4.394   0.809  0.0064 -0.0416  1.7506
13583TIP3   OH240691   1.959   6.103   3.216 -0.8126  0.5062 -0.0673
13583TIP3    H140692   1.906   6.077   3.291  0.5249  0.9914  1.0869
13583TIP3    H240693   1.895   6.121   3.147 -1.9860 -1.7127  0.3524
13584TIP3   OH240694   1.875   3.077   2.370  0.4621  0.2385  0.4857
13584TIP3    H140695   1.943   3.133   2.334 -0.5531 -0.1715 -2.3419
13584TIP3    H240696   1.920   2.996   2.395  1.4156  1.0545  1.5358
13585TIP3   OH240697   0.185   4.950   0.588  0.0204 -0.6002  0.0557
13585TIP3    H140698   0.236   4.948   0.508 -1.8108 -1.0369 -1.1607
13585TIP3    H240699   0.173   5.043   0.607  0.2044 -0.4937 -0.3515
13586TIP3   OH240700   5.272   2.394   3.037  0.3475  0.3030  0.3992
13586TIP3    H140701   5.334   2.325   3.060  0.1191 -0.6256 -1.5243
13586TIP3    H240702   5.186   2.355   3.054  0.2282  0.2210 -0.3435
13587TIP3   OH240703   2.569   5.159   5.285 -0.1403  0.0070 -0.9936
13587TIP3    H140704   2.601   5.249   5.285  0.6260 -0.2369 -2.1902
13587TIP3    H240705   2.561   5.136   5.378 -2.3745  1.9665 -0.5779
13588TIP3   OH240706   3.932   5.577   5.029  0.0654  0.3256 -0.4074
13588TIP3    H140707   4.008   5.534   4.990 -0.9801 -1.9677 -0.0837
13588TIP3    H240708   3.921   5.533   5.114 -2.9854 -1.1852 -1.4338
13589TIP3   OH240709   2.065   3.883   5.891  0.2544 -0.0532 -0.0121
13589TIP3    H140710   2.089   3.792   5.873 -0.7561 -0.1327 -1.0479
13589TIP3    H240711   2.048   3.921   5.805  0.1865  0.9824  0.4468
13590TIP3   OH240712   5.804   6.963   1.012 -0.3707 -0.0010 -0.4530
13590TIP3    H140713   5.892   6.999   1.008 -0.3336 -0.1608 -1.1970
13590TIP3    H240714   5.755   7.024   1.068 -0.1811  0.9281 -1.2729
13591TIP3   OH240715   1.141   2.110   4.635 -0.0495 -0.6654  0.1948
13591TIP3    H140716   1.207   2.068   4.581  0.1813  2.9442 -2.7555
13591TIP3    H240717   1.190   2.148   4.708  0.2278 -2.3056  0.9165
13592TIP3   OH240718   2.722   6.265   4.128 -0.0134 -0.1852  0.1487
13592TIP3    H140719   2.773   6.294   4.204  0.3970 -0.8604  0.1356
13592TIP3    H240720   2.640   6.313   4.136  0.0393 -0.2068  1.0054
13593TIP3   OH240721   4.598   5.635   2.751 -0.7346 -0.1318  0.2211
13593TIP3    H140722   4.624   5.546   2.774 -0.9304  0.0210  1.0441
13593TIP3    H240723   4.535   5.624   2.680  0.0165 -0.5955 -0.3920
13594TIP3   OH240724   1.739   4.220   3.473 -0.0720 -0.0134  0.3255
13594TIP3    H140725   1.775   4.271   3.545 -0.2125  2.3393 -1.1964
13594TIP3    H240726   1.758   4.271   3.394  2.0703 -3.5099 -1.6969
13595TIP3   OH240727   6.962   4.545   6.615  0.1860  0.2165 -0.3318
13595TIP3    H140728   6.878   4.591   6.619  0.6359  1.3328 -2.3739
13595TIP3    H240729   6.970   4.503   6.700 -2.4896 -0.0153 -0.0916
13596TIP3   OH240730   7.270   2.107   0.268 -0.0319  0.2724 -0.7797
13596TIP3    H140731   7.202   2.102   0.335 -0.1419  2.6077 -0.6320
13596TIP3    H240732   7.313   2.191   0.283  0.5730  0.4392 -3.0560
13597TIP3   OH240733   7.295   5.354   5.804 -0.0649  0.2150 -0.9289
13597TIP3    H140734   7.267   5.271   5.842  0.0758  0.0603 -1.1576
13597TIP3    H240735   7.342   5.399   5.874 -0.6314  0.3473 -0.6312
13598TIP3   OH240736   4.825   4.481   6.197  0.3066 -0.3303  0.0581
13598TIP3    H140737   4.825   4.460   6.104 -1.8204  0.0351 -0.0789
13598TIP3    H240738   4.903   4.536   6.209  0.4925 -0.1879 -1.5376
13599TIP3   OH240739   8.151   1.575   1.036 -0.4698  0.6019  0.3924
13599TIP3    H140740   8.244   1.592   1.053 -0.6629  0.4961  1.6237
13599TIP3    H240741   8.139   1.483   1.059 -0.1843 -0.4059 -2.9577
13600TIP3   OH240742   5.286   7.169   0.121  0.1263  0.0857 -0.0159
13600TIP3    H140743   5.211   7.164   0.181  0.9831  1.3263  1.2114
13600TIP3    H240744   5.253   7.131   0.039 -0.9596 -2.0845  1.3122
13601TIP3   OH240745   0.655   1.604   6.059  0.2631 -0.4565 -0.1779
13601TIP3    H140746   0.715   1.533   6.037  0.8938  0.1384 -0.4042
13601TIP3    H240747   0.707   1.664   6.114 -0.1937 -0.0579 -0.1689
13602TIP3   OH240748   6.741   4.705   1.612  0.6039  0.6757  0.1916
13602TIP3    H140749   6.767   4.785   1.567  1.3423  0.1692 -0.3027
13602TIP3    H240750   6.764   4.634   1.552  2.5547 -0.0876  1.7139
13603TIP3   OH240751   4.353   7.652   1.015  0.1127 -0.1937  0.2125
13603TIP3    H140752   4.378   7.646   0.923  0.0964 -0.2110  0.2091
13603TIP3    H240753   4.427   7.614   1.063  1.0177  1.6089  0.3378
13604TIP3   OH240754   1.248   1.851   6.636  0.5015 -0.2401 -0.7123
13604TIP3    H140755   1.165   1.887   6.667  0.1562 -2.2752  0.9161
13604TIP3    H240756   1.236   1.842   6.541 -0.9206  0.0127 -0.5818
13605TIP3   OH240757   6.008   5.440   0.641 -0.4976 -0.4503 -0.2369
13605TIP3    H140758   5.990   5.523   0.596 -0.3932  0.0491  0.6209
13605TIP3    H240759   6.057   5.465   0.719  0.5022 -1.4243 -0.5274
13606TIP3   OH240760   4.756   6.790   0.376  0.2831 -0.1709  0.5330
13606TIP3    H140761   4.743   6.844   0.298  0.6006 -1.4242 -0.4144
13606TIP3    H240762   4.682   6.812   0.433  1.4854  2.7856  1.1257
13607TIP3   OH240763   0.607   4.338   5.123 -0.0213  0.0198  0.1291
13607TIP3    H140764   0.538   4.332   5.057  0.2882  0.7869 -0.2825
13607TIP3    H240765   0.644   4.250   5.128 -1.1086 -0.4225  0.4416
13608TIP3   OH240766   3.728   1.302   2.046  0.1944  0.3805 -0.3831
13608TIP3    H140767   3.822   1.318   2.036  0.5943 -2.0724 -1.2507
13608TIP3    H240768   3.705   1.344   2.129  2.0469  1.0404 -0.1554
13609TIP3   OH240769   7.318   4.584   4.796  0.0651  0.3496 -0.4356
13609TIP3    H140770   7.392   4.586   4.856 -0.2077  3.4721 -0.0534
13609TIP3    H240771   7.358   4.591   4.709  0.3022  2.0436 -0.2320
13610TIP3   OH240772   7.936   0.014   2.882 -0.4249  0.0645  0.3384
13610TIP3    H140773   7.870   0.079   2.908 -0.0366 -0.1026  1.8574
13610TIP3    H240774   8.016   0.043   2.925  0.1362 -0.5766 -0.2462
13611TIP3   OH240775   1.121   5.082   6.733 -0.0084  0.3002 -0.2360
13611TIP3    H140776   1.140   5.133   6.655  0.9101 -0.5825 -0.6008
13611TIP3    H240777   1.039   5.119   6.766 -0.0102  1.1786 -1.1831
13612TIP3   OH240778   0.071   2.202   5.461 -0.3483  0.4528 -0.0272
13612TIP3    H140779   0.036   2.196   5.549  1.6356 -1.2167  0.7131
13612TIP3    H240780   0.074   2.296   5.443 -1.0472  0.8077  1.5394
13613TIP3   OH240781   5.707   2.114   0.941  0.1594  0.2990  0.4283
13613TIP3    H140782   5.716   2.145   0.850  1.4228  0.3295  0.5556
13613TIP3    H240783   5.652   2.036   0.933 -2.5314  2.0695  0.0222
13614TIP3   OH240784   1.705   0.208   2.000 -0.2851  0.3337  0.2279
13614TIP3    H140785   1.641   0.186   1.932 -1.0180  2.0849  0.2988
13614TIP3    H240786   1.654   0.252   2.067  0.8863  1.0931  0.6462
13615TIP3   OH240787   3.284   6.709   3.726  0.0609  0.5492 -0.5370
13615TIP3    H140788   3.322   6.776   3.783  0.8335 -0.8473  0.6387
13615TIP3    H240789   3.249   6.643   3.786  0.1361 -0.5569 -1.6807
13616TIP3   OH240790   2.692   3.879   5.427 -0.1754 -0.3087 -0.3431
13616TIP3    H140791   2.782   3.846   5.417 -0.2133 -0.3741 -0.4721
13616TIP3    H240792   2.651   3.862   5.343 -0.9739 -2.3181  0.4037
13617TIP3   OH240793   2.758   7.289   6.112  0.3845  0.1298  0.2454
13617TIP3    H140794   2.731   7.243   6.033  1.3477 -1.2099  0.6806
13617TIP3    H240795   2.845   7.322   6.093 -0.1569  1.5515  0.0614
13618TIP3   OH240796   6.522   0.326   6.735  0.1877 -0.0965  0.1212
13618TIP3    H140797   6.597   0.355   6.683 -0.9787  1.1123 -0.9711
13618TIP3    H240798   6.471   0.405   6.750 -1.2613 -0.9956  0.1544
13619TIP3   OH240799   6.920   2.411   6.607 -0.3697 -0.0770 -0.4863
13619TIP3    H140800   6.988   2.385   6.669 -0.9326  1.7399  0.9786
13619TIP3    H240801   6.866   2.332   6.596  0.5838 -0.8451  0.1980
13620TIP3   OH240802   2.050   1.788   1.671  0.6823  0.5533 -0.1630
13620TIP3    H140803   2.096   1.718   1.717  0.8165  1.6921  1.5333
13620TIP3    H240804   2.120   1.845   1.637  0.5601  0.5284 -0.4605
13621TIP3   OH240805   7.647   4.320   3.955  0.4720 -0.1633  0.2022
13621TIP3    H140806   7.597   4.354   4.029  0.8675 -0.7013  0.7194
13621TIP3    H240807   7.580   4.281   3.898  0.1465  0.4314  0.1705
13622TIP3   OH240808   3.200   4.171   5.713  0.3718  0.1217 -0.2250
13622TIP3    H140809   3.273   4.191   5.654  0.5141  0.4194  0.0484
13622TIP3    H240810   3.172   4.083   5.688 -0.6655  0.8723 -1.8904
13623TIP3   OH240811   1.590   2.097   3.284  0.0924 -0.4380  0.0061
13623TIP3    H140812   1.531   2.060   3.218  0.2365 -1.7753  0.5860
13623TIP3    H240813   1.535   2.155   3.336 -0.0947  0.3866 -1.0797
13624TIP3   OH240814   3.114   4.112   4.589  0.2684 -0.1659 -0.0047
13624TIP3    H140815   3.143   4.203   4.582 -1.9448  0.7553  1.6187
13624TIP3    H240816   3.036   4.107   4.534 -1.1913 -0.2739  1.9655
13625TIP3   OH240817   2.786   5.864   6.017  0.5659  0.2186  0.1612
13625TIP3    H140818   2.717   5.807   5.982  1.1575  0.2028 -1.0205
13625TIP3    H240819   2.856   5.858   5.953  1.2973  0.9796  0.8794
13626TIP3   OH240820   2.666   6.513   2.238  0.0960  0.2968 -0.3727
13626TIP3    H140821   2.692   6.468   2.318  0.1952  0.5475 -0.2609
13626TIP3    H240822   2.679   6.449   2.169  0.2047  0.1438 -0.2121
13627TIP3   OH240823   4.205   5.879   3.601  0.5045  0.0704  0.0247
13627TIP3    H140824   4.129   5.837   3.642 -0.2016  0.5378 -0.7899
13627TIP3    H240825   4.243   5.811   3.546  0.3160  0.0131 -0.0357
13628TIP3   OH240826   3.806   4.783   6.084  0.0422  0.3654  0.2387
13628TIP3    H140827   3.718   4.815   6.064  0.2586  0.1195 -1.2194
13628TIP3    H240828   3.855   4.798   6.003  1.1800 -0.0684  0.8369
13629TIP3   OH240829   6.682   7.314   3.285  0.5172  0.1515  0.0185
13629TIP3    H140830   6.593   7.289   3.310  0.7796 -1.1984 -0.2867
13629TIP3    H240831   6.673   7.356   3.200  0.1042  0.6541  0.3085
13630TIP3   OH240832   3.701   2.042   4.074  0.6773 -0.2671 -0.2074
13630TIP3    H140833   3.637   2.054   4.004 -1.2599  0.8218  1.6237
13630TIP3    H240834   3.666   1.970   4.127 -0.4489  1.7939  2.1094
13631TIP3   OH240835   3.776   2.280   3.730  0.6259  0.2395  0.2224
13631TIP3    H140836   3.855   2.333   3.740  0.6892  0.0299  0.9182
13631TIP3    H240837   3.728   2.294   3.812 -1.8911  3.2819 -1.5178
13632TIP3   OH240838   6.430   0.432   5.228  0.3475 -0.0070  0.1862
13632TIP3    H140839   6.396   0.407   5.142 -1.2268  0.0024  0.7623
13632TIP3    H240840   6.493   0.364   5.250 -0.0427 -0.6107 -0.5100
13633TIP3   OH240841   1.446   0.410   1.635 -0.0016  0.5098  0.4164
13633TIP3    H140842   1.534   0.404   1.597  0.1163 -1.1493  0.8613
13633TIP3    H240843   1.446   0.494   1.681  0.7190  1.3740 -1.0585
13634TIP3   OH240844   7.074   7.018   4.190  0.0357  0.6368 -0.8448
13634TIP3    H140845   7.135   6.976   4.251  0.6249  1.8375 -0.5735
13634TIP3    H240846   7.021   6.946   4.156 -2.3164  0.1713  3.1931
13635TIP3   OH240847   1.922   3.062   4.034 -0.0676  0.2506 -0.0643
13635TIP3    H140848   1.965   3.016   3.962 -1.4037 -0.5890 -0.3563
13635TIP3    H240849   1.864   2.997   4.073  0.2761  0.8264  1.4841
13636TIP3   OH240850   4.941   4.687   1.472 -0.0165 -0.8364  0.3255
13636TIP3    H140851   4.953   4.775   1.508 -0.6931 -0.8377  0.5709
13636TIP3    H240852   5.024   4.642   1.491  0.3977 -0.2054  0.0486
13637TIP3   OH240853   7.049   1.997   0.825  0.0962  0.2444  0.0212
13637TIP3    H140854   7.052   2.092   0.817  1.9393  0.2861  0.6479
13637TIP3    H240855   7.022   1.981   0.915  0.3722  0.1907  0.0955
13638TIP3   OH240856   2.960   1.800   4.968  0.0767 -0.1972  0.1770
13638TIP3    H140857   3.000   1.873   4.920 -1.1246  1.0749  1.0022
13638TIP3    H240858   2.918   1.842   5.043 -0.4725 -1.7931  0.8000
13639TIP3   OH240859   6.317   6.594   5.023  0.2622 -0.0644  0.2099
13639TIP3    H140860   6.344   6.523   4.964 -1.0533 -0.3358 -0.1037
13639TIP3    H240861   6.342   6.674   4.977  2.9644 -0.2669  1.1504
13640TIP3   OH240862   2.384   1.888   3.239 -0.2568  0.1661  0.2780
13640TIP3    H140863   2.470   1.923   3.217  0.7559 -2.3317 -0.1037
13640TIP3    H240864   2.341   1.874   3.155 -0.7122  0.6039  0.4316
13641TIP3   OH240865   2.731   4.146   4.217 -0.0204 -0.0368  0.9472
13641TIP3    H140866   2.671   4.094   4.270 -0.1231  0.3787  1.2447
13641TIP3    H240867   2.677   4.181   4.146  0.3332 -1.4378 -0.0373
13642TIP3   OH240868   1.299   0.405   2.226 -0.1495  0.2990  0.0607
13642TIP3    H140869   1.246   0.326   2.242 -0.4018  0.4255 -0.1388
13642TIP3    H240870   1.265   0.440   2.144 -0.6143  1.0811  0.5756
13643TIP3   OH240871   2.072   3.919   2.406 -0.1984  0.5010 -0.6175
13643TIP3    H140872   2.153   3.909   2.456  0.6759  1.8515 -1.6796
13643TIP3    H240873   2.003   3.907   2.471  0.7658 -1.9960  0.0735
13644TIP3   OH240874   1.356   6.539   0.640  0.1549 -0.0099 -0.0468
13644TIP3    H140875   1.441   6.500   0.620 -0.9848 -2.1744 -1.0909
13644TIP3    H240876   1.352   6.618   0.587  1.7263  0.4474  0.4720
13645TIP3   OH240877   4.883   5.366   5.304 -0.1663 -0.5460  0.1900
13645TIP3    H140878   4.975   5.383   5.326 -0.7421  0.5104  2.0457
13645TIP3    H240879   4.861   5.434   5.240  0.6156 -1.5138 -1.1602
13646TIP3   OH240880   4.023   5.319   5.224  0.2365 -0.2626 -0.9389
13646TIP3    H140881   4.064   5.351   5.304  0.2303 -1.2994 -0.4966
13646TIP3    H240882   4.096   5.282   5.173  0.0603 -0.8506 -0.7772
13647TIP3   OH240883   8.234   0.307   0.393 -0.4390  0.0066 -0.1247
13647TIP3    H140884   8.187   0.280   0.314  0.8913  0.3395 -1.0568
13647TIP3    H240885   8.164   0.335   0.453 -1.4042  2.2790 -2.1334
13648TIP3   OH240886   0.130   6.191   0.629  0.8148 -0.3832  0.1326
13648TIP3    H140887   0.066   6.129   0.594  1.6075 -1.5977  0.7675
13648TIP3    H240888   0.148   6.251   0.557 -1.2485  0.1990  0.0272
13649TIP3   OH240889   6.342   0.284   0.286  0.3904  0.4768 -0.8106
13649TIP3    H140890   6.273   0.349   0.269 -1.5792 -0.9904  0.9841
13649TIP3    H240891   6.344   0.230   0.208 -1.0601  0.1048 -0.6224
13650TIP3   OH240892   3.420   6.691   1.079  0.4559  0.0796  0.0927
13650TIP3    H140893   3.369   6.611   1.061 -1.0514  1.2720 -1.2335
13650TIP3    H240894   3.486   6.663   1.142 -0.9116 -1.8991  0.7684
13651TIP3   OH240895   4.966   3.752   4.928 -0.5471 -0.1883 -0.2758
13651TIP3    H140896   4.934   3.705   4.851  0.3413 -0.8977 -0.2184
13651TIP3    H240897   4.886   3.783   4.971 -1.0604  0.9813 -1.9198
13652TIP3   OH240898   7.040   4.466   6.256  0.3273 -0.2784  0.0714
13652TIP3    H140899   7.087   4.497   6.179  1.0864 -0.9372  0.2654
13652TIP3    H240900   6.977   4.403   6.222  0.2956 -0.1740 -0.0651
13653TIP3   OH240901   1.278   7.797   0.400 -0.0130  0.4208  0.1099
13653TIP3    H140902   1.270   7.726   0.337 -1.1643 -0.9058  1.6842
13653TIP3    H240903   1.371   7.823   0.395 -0.0090  0.1755 -1.8675
13654TIP3   OH240904   6.906   7.137   1.988 -0.2072  0.0938  0.3964
13654TIP3    H140905   6.928   7.205   2.052  0.1508  1.2142 -0.8817
13654TIP3    H240906   6.910   7.181   1.903  2.6289 -2.0494 -0.7662
13655TIP3   OH240907   7.527   3.222   1.729 -0.3286  0.0571  0.7507
13655TIP3    H140908   7.485   3.307   1.745 -0.4489 -0.1134  1.3363
13655TIP3    H240909   7.551   3.190   1.816  0.5264 -0.0995  0.4724
13656TIP3   OH240910   7.339   7.311   2.411  0.3652  0.1319 -0.2680
13656TIP3    H140911   7.299   7.356   2.336 -0.5646 -1.4728 -0.7838
13656TIP3    H240912   7.372   7.229   2.374  0.5920 -0.3335  0.9317
13657TIP3   OH240913   5.810   6.787   0.513 -0.5639 -0.1973 -0.2051
13657TIP3    H140914   5.846   6.802   0.600  1.4070  1.3330 -1.2346
13657TIP3    H240915   5.844   6.858   0.459 -0.3045 -2.0306 -2.6458
13658TIP3   OH240916   0.502   5.987   0.944  0.0497 -0.6146  0.6010
13658TIP3    H140917   0.478   6.053   0.879  2.8123 -0.1133 -0.0227
13658TIP3    H240918   0.515   5.907   0.894  1.2314 -0.4677  0.6552
13659TIP3   OH240919   6.975   6.701   3.760  0.1545  0.2109 -0.2520
13659TIP3    H140920   6.958   6.607   3.760  2.0626 -0.2772  2.8140
13659TIP3    H240921   7.015   6.718   3.674  0.5604 -1.9411 -0.5533
13660TIP3   OH240922   7.973   1.727   1.820  0.2856  0.0055  0.0113
13660TIP3    H140923   8.040   1.709   1.886 -0.9378  0.6958  1.5025
13660TIP3    H240924   7.996   1.813   1.785 -0.9913  1.3002  2.1391
13661TIP3   OH240925   0.636   0.275   1.871  0.1893  0.5257  0.4392
13661TIP3    H140926   0.601   0.186   1.870  1.5370 -0.0348  0.0420
13661TIP3    H240927   0.710   0.271   1.932  0.7919  1.1459 -0.2196
13662TIP3   OH240928   2.496   7.720   6.299 -0.3261 -0.5686  0.0815
13662TIP3    H140929   2.491   7.647   6.237  0.6339 -0.5657 -0.0271
13662TIP3    H240930   2.526   7.794   6.246 -0.8106 -0.2182  0.2902
13663TIP3   OH240931   6.734   5.730   4.470 -0.0986 -0.1367 -0.5399
13663TIP3    H140932   6.773   5.653   4.428 -1.0347 -1.6084  1.1660
13663TIP3    H240933   6.640   5.723   4.450 -0.1972  0.5583 -0.3424
13664TIP3   OH240934   1.989   2.364   1.641  0.3096  0.1004  0.2801
13664TIP3    H140935   2.001   2.270   1.659  1.7526  0.4411  1.2520
13664TIP3    H240936   1.945   2.398   1.719 -1.7329 -0.0097 -0.7415
13665TIP3   OH240937   8.230   4.707   4.459 -0.2278 -0.2693 -0.3952
13665TIP3    H140938   8.227   4.611   4.460 -0.3543 -0.2647 -0.3522
13665TIP3    H240939   8.215   4.731   4.367 -1.9839 -0.2298 -0.1250
13666TIP3   OH240940   1.745   5.176   1.287  0.1573 -0.3064  0.5329
13666TIP3    H140941   1.657   5.203   1.261  0.8057  0.1018 -1.3586
13666TIP3    H240942   1.732   5.092   1.332 -1.2045 -0.1691  0.4388
13667TIP3   OH240943   3.518   0.235   6.029  0.2749 -0.3635  0.6948
13667TIP3    H140944   3.562   0.314   5.996  0.4700 -0.3917  0.8814
13667TIP3    H240945   3.486   0.191   5.951 -0.4499  0.2576  0.6267
13668TIP3   OH240946   7.619   2.359   2.099 -0.5247 -0.3106 -0.4190
13668TIP3    H140947   7.641   2.268   2.078 -2.1552 -0.6409 -0.8564
13668TIP3    H240948   7.525   2.366   2.080 -0.5265  1.3497  0.0309
13669TIP3   OH240949   1.574   6.888   5.095 -0.0841 -0.1218  0.0815
13669TIP3    H140950   1.613   6.963   5.052  0.1621 -0.3734 -0.1372
13669TIP3    H240951   1.603   6.812   5.044 -0.7252 -0.3282  0.0039
13670TIP3   OH240952   7.546   0.511   0.043 -0.6447  0.2029 -0.1199
13670TIP3    H140953   7.570   0.536   0.133  2.6250 -0.5781 -0.6676
13670TIP3    H240954   7.571   0.586  -0.010 -2.4939  0.6248 -0.4719
13671TIP3   OH240955   2.384   5.031   3.437  0.3530  0.2567 -0.2798
13671TIP3    H140956   2.326   5.014   3.363 -0.0343 -0.1590  0.1194
13671TIP3    H240957   2.361   4.965   3.502  1.7756 -0.3856 -0.3983
13672TIP3   OH240958   3.125   5.687   1.360  0.6791 -0.1686  0.1521
13672TIP3    H140959   3.144   5.602   1.320  0.8895 -0.8341  1.5788
13672TIP3    H240960   3.042   5.714   1.321  1.7636  0.1517 -2.0923
13673TIP3   OH240961   0.693   7.670   3.640  0.3637  0.0674 -0.5589
13673TIP3    H140962   0.738   7.626   3.712 -0.5256 -0.3955 -0.2742
13673TIP3    H240963   0.734   7.634   3.561  2.7239  2.0236 -0.3347
13674TIP3   OH240964   8.204   2.503   2.703  0.2053  0.4433  0.2114
13674TIP3    H140965   8.179   2.496   2.611 -0.6182  0.6908  0.4100
13674TIP3    H240966   8.150   2.575   2.737  0.1261  0.0121  1.0133
13675TIP3   OH240967   0.671   6.831   1.704 -0.5363  0.1752  0.2993
13675TIP3    H140968   0.668   6.774   1.781 -1.2566 -1.1074 -0.6377
13675TIP3    H240969   0.579   6.847   1.682 -0.3395  1.4873  0.3700
13676TIP3   OH240970   3.194   7.437   1.392  0.3536  0.3097  0.5998
13676TIP3    H140971   3.182   7.407   1.482 -0.0004 -0.1919  0.3902
13676TIP3    H240972   3.111   7.481   1.370 -0.2032 -0.9812 -0.0132
13677TIP3   OH240973   5.637   1.926   1.847 -0.0796  0.2509  0.1496
13677TIP3    H140974   5.585   1.999   1.813 -0.1862 -0.3268 -0.9767
13677TIP3    H240975   5.574   1.868   1.887 -0.2391 -0.1206 -0.6181
13678TIP3   OH240976   5.401   0.310   0.564  0.0038 -0.0651 -0.5632
13678TIP3    H140977   5.360   0.356   0.638  0.0534 -0.6360 -0.1725
13678TIP3    H240978   5.381   0.364   0.488 -0.5152  0.2519 -0.2084
13679TIP3   OH240979   5.680   6.579   6.204 -0.1085 -0.3475 -0.2240
13679TIP3    H140980   5.725   6.622   6.277 -0.5233  0.5237 -0.4716
13679TIP3    H240981   5.727   6.609   6.126  0.5598 -1.5512 -0.3148
13680TIP3   OH240982   0.332   4.603   5.454  0.0631  0.3254 -0.4549
13680TIP3    H140983   0.316   4.509   5.452 -0.2993  0.3914 -2.4442
13680TIP3    H240984   0.404   4.617   5.393  1.6627  1.1151  1.5078
13681TIP3   OH240985   0.740   2.665   6.336 -0.1268  0.0697  0.6422
13681TIP3    H140986   0.809   2.604   6.361  1.2513  0.4433 -1.9415
13681TIP3    H240987   0.659   2.618   6.356  0.8684 -2.4991 -0.8191
13682TIP3   OH240988   7.488   0.044   6.090 -0.2034 -0.4066  0.1867
13682TIP3    H140989   7.396   0.071   6.095 -0.8122 -2.4280  2.0159
13682TIP3    H240990   7.529   0.084   6.167 -0.2591 -1.6137  0.8839
13683TIP3   OH240991   4.108   7.364   4.329 -0.1644 -0.2977 -0.0418
13683TIP3    H140992   4.168   7.404   4.392 -0.9754  0.1723  0.4538
13683TIP3    H240993   4.098   7.273   4.360  0.4285 -0.4299 -0.2342
13684TIP3   OH240994   2.767   7.764   1.511 -0.2197  0.4166 -0.4767
13684TIP3    H140995   2.793   7.856   1.505  0.3365  0.2639 -0.4441
13684TIP3    H240996   2.672   7.767   1.522 -0.2506  0.9746 -0.8595
13685TIP3   OH240997   2.673   2.705   0.134 -0.1710  0.3624  0.4107
13685TIP3    H140998   2.619   2.626   0.131  2.2802 -1.3738 -2.0335
13685TIP3    H240999   2.751   2.679   0.183  1.0256  0.9818 -1.0998
13686TIP3   OH241000   2.809   3.144   2.476  0.3441 -0.0398 -0.1888
13686TIP3    H141001   2.894   3.180   2.450 -0.2157  1.2745 -0.2851
13686TIP3    H241002   2.750   3.168   2.405 -0.0324 -1.3746 -0.3616
13687TIP3   OH241003   5.672   4.151   4.545 -0.7036  0.3668  0.9441
13687TIP3    H141004   5.585   4.111   4.549 -0.3880 -0.2600  1.6545
13687TIP3    H241005   5.657   4.243   4.569 -1.0205  0.0108  2.1617
13688TIP3   OH241006   7.691   7.540   3.567 -0.4795 -0.0243 -0.0243
13688TIP3    H141007   7.669   7.450   3.543  1.9659 -0.5581 -0.5104
13688TIP3    H241008   7.707   7.537   3.661 -0.8139  0.0111  0.0358
13689TIP3   OH241009   1.245   1.723   3.642 -0.3359 -0.4273  0.1684
13689TIP3    H141010   1.319   1.781   3.625 -0.8701  0.1919 -0.1051
13689TIP3    H241011   1.272   1.670   3.716  0.5462 -0.5020 -0.1973
13690TIP3   OH241012   7.229   2.499   3.134  0.1197  0.0094 -0.0686
13690TIP3    H141013   7.149   2.447   3.136  0.9202 -1.3007  2.3011
13690TIP3    H241014   7.216   2.564   3.203  1.5272 -1.0260  1.2384
13691TIP3   OH241015   3.243   1.336   4.365  0.1656 -0.3028 -0.6063
13691TIP3    H141016   3.153   1.309   4.347 -0.1544  0.5039 -0.2585
13691TIP3    H241017   3.261   1.403   4.300 -0.2498  1.0761  0.6250
13692TIP3   OH241018   6.204   1.852   3.520  0.3171 -0.5500 -0.6612
13692TIP3    H141019   6.164   1.933   3.490  0.5219 -0.4464 -0.6581
13692TIP3    H241020   6.150   1.782   3.483  0.3658 -0.4176 -0.9783
13693TIP3   OH241021   4.636   3.836   4.074 -0.1816 -0.2328 -0.4535
13693TIP3    H141022   4.558   3.783   4.084  0.3607 -0.9880 -0.1333
13693TIP3    H241023   4.702   3.776   4.039  0.0756  0.5471 -1.3467
13694TIP3   OH241024   5.623   7.458   4.556  0.8723 -0.0559 -0.2014
13694TIP3    H141025   5.641   7.539   4.604  0.7988 -0.1772  0.0326
13694TIP3    H241026   5.529   7.462   4.536  0.9796  0.1788 -0.6808
13695TIP3   OH241027   6.328   7.290   0.687 -0.1146  0.2587 -0.0629
13695TIP3    H141028   6.417   7.254   0.689  0.4860  1.3961 -2.3023
13695TIP3    H241029   6.339   7.381   0.658 -2.0197  0.2168 -1.1273
13696TIP3   OH241030   0.918   2.407   6.358  0.4143  0.1218  0.4658
13696TIP3    H141031   1.011   2.420   6.375  0.1766  4.8837 -0.3573
13696TIP3    H241032   0.914   2.384   6.265  0.7908  1.0321  0.2088
13697TIP3   OH241033   3.183   1.669   0.607 -0.0395  0.2877  0.0459
13697TIP3    H141034   3.275   1.644   0.620  0.1000  0.0689 -1.1709
13697TIP3    H241035   3.187   1.741   0.544 -0.7170  0.0061 -0.3236
13698TIP3   OH241036   1.166   3.904   4.988  0.0566  0.0882 -0.8388
13698TIP3    H141037   1.158   3.889   4.894 -0.3516 -2.0389 -0.4980
13698TIP3    H241038   1.244   3.959   4.997  0.6096 -0.4033 -2.3562
13699TIP3   OH241039   7.388   5.669   6.004 -0.0641 -0.3098 -0.2126
13699TIP3    H141040   7.445   5.592   6.004  1.8817  1.0317 -1.8574
13699TIP3    H241041   7.351   5.671   6.092  2.2000 -1.4545  0.8511
13700TIP3   OH241042   3.131   3.967   6.199 -0.7339 -0.0104 -0.4654
13700TIP3    H141043   3.190   3.923   6.137  1.6432 -0.1838  1.7465
13700TIP3    H241044   3.163   4.057   6.203 -0.7959 -0.0230  0.5370
13701TIP3   OH241045   7.615   5.494   4.799  0.3682  0.2380  0.0569
13701TIP3    H141046   7.529   5.454   4.815 -0.0409  0.6606 -0.9703
13701TIP3    H241047   7.648   5.449   4.721  0.4879  0.9906 -0.3314
13702TIP3   OH241048   1.172   4.808   1.077 -0.0241 -0.1164  0.2869
13702TIP3    H141049   1.200   4.791   1.167 -0.3660  1.1003  0.6424
13702TIP3    H241050   1.253   4.804   1.026  0.2980  0.0374  0.7777
13703TIP3   OH241051   4.527   1.927   1.083  0.2649 -0.0218  0.2173
13703TIP3    H141052   4.590   1.988   1.046 -1.2432  0.0511 -2.4846
13703TIP3    H241053   4.453   1.929   1.022 -1.9933 -0.7859  2.7052
13704TIP3   OH241054   4.479   5.532   6.467 -0.3709  0.4675 -0.7336
13704TIP3    H141055   4.513   5.617   6.495  0.4819 -0.7660  2.4741
13704TIP3    H241056   4.527   5.469   6.521 -2.3379 -1.9058 -1.6137
13705TIP3   OH241057   2.981   0.378   3.280 -0.4624  0.2412 -0.8943
13705TIP3    H141058   2.976   0.451   3.342 -0.7609  1.4386 -2.2545
13705TIP3    H241059   2.891   0.351   3.268 -0.2986 -0.7832  0.0581
13706TIP3   OH241060   7.436   4.898   2.183 -0.4209  0.1289  0.2077
13706TIP3    H141061   7.488   4.957   2.238  0.4644 -0.8745  0.4860
13706TIP3    H241062   7.440   4.938   2.096  1.5432 -0.3189  0.0321
13707TIP3   OH241063   5.685   5.082   5.426  0.0079 -0.0093 -0.3691
13707TIP3    H141064   5.692   5.023   5.351  2.4521 -0.3141  0.0026
13707TIP3    H241065   5.646   5.029   5.495 -2.6907  0.4021 -1.4606
13708TIP3   OH241066   7.119   6.925   1.785  0.3355  0.2605 -0.3402
13708TIP3    H141067   7.153   7.005   1.743 -0.4845 -1.3252 -4.5716
13708TIP3    H241068   7.025   6.942   1.795  0.2839  0.1270 -0.5770
13709TIP3   OH241069   4.371   0.640   0.313  0.1202 -0.4754 -0.2705
13709TIP3    H141070   4.447   0.584   0.329  0.8689  0.6050  0.0498
13709TIP3    H241071   4.393   0.722   0.356 -1.5898 -0.4119  0.5164
13710TIP3   OH241072   4.277   3.612   2.177  0.0982  0.8429  0.3969
13710TIP3    H141073   4.203   3.563   2.214 -0.4025  1.4333  0.2014
13710TIP3    H241074   4.244   3.645   2.093  1.7526 -1.9094 -1.5107
13711TIP3   OH241075   2.640   6.210   0.333  0.3542 -0.2038 -0.2341
13711TIP3    H141076   2.623   6.257   0.251 -0.5245  0.7133  0.4515
13711TIP3    H241077   2.636   6.278   0.401 -1.0932 -1.2706  0.8170
13712TIP3   OH241078   5.286   6.356   2.864  0.2929 -0.3311 -1.0494
13712TIP3    H141079   5.370   6.318   2.838 -0.5245 -0.3760 -4.0953
13712TIP3    H241080   5.258   6.406   2.787 -1.8954  0.7110  0.3304
13713TIP3   OH241081   4.022   6.895   1.311  0.3325  1.1340 -0.1521
13713TIP3    H141082   3.943   6.900   1.256  0.2649 -0.0130 -0.1738
13713TIP3    H241083   4.001   6.947   1.388 -0.8173  0.0920  0.2678
13714TIP3   OH241084   5.727   4.292   5.112 -0.2103 -0.2212 -0.2602
13714TIP3    H141085   5.758   4.255   5.029 -0.7130  0.8958 -0.9602
13714TIP3    H241086   5.802   4.284   5.170 -0.0325 -1.5473 -0.6423
13715TIP3   OH241087   1.395   5.378   6.390 -0.6132 -0.2768 -0.0642
13715TIP3    H141088   1.393   5.378   6.486 -0.0037 -0.6653 -0.0463
13715TIP3    H241089   1.456   5.308   6.367 -1.0269 -0.4297 -0.7477
13716TIP3   OH241090   2.750   7.316   4.154 -0.7085 -0.0911 -0.7442
13716TIP3    H141091   2.754   7.329   4.059 -2.0433  0.2293 -0.7769
13716TIP3    H241092   2.839   7.335   4.185 -1.2312  4.3869 -1.3699
13717TIP3   OH241093   0.414   0.538   6.673  0.5562 -0.1323  0.1700
13717TIP3    H141094   0.388   0.534   6.766  1.1191 -2.5736  0.2803
13717TIP3    H241095   0.339   0.579   6.630 -0.6678 -0.9206  1.4260
13718TIP3   OH241096   5.012   2.140   2.280 -0.5706 -0.5180 -0.0862
13718TIP3    H141097   5.020   2.225   2.323  1.0930 -0.6739  0.0062
13718TIP3    H241098   5.032   2.158   2.188  1.3358 -1.0027  0.1905
13719TIP3   OH241099   2.369   0.215   2.898  0.0265  0.6451 -0.3295
13719TIP3    H141100   2.326   0.275   2.959  0.4485 -0.6525  1.3022
13719TIP3    H241101   2.312   0.138   2.895  0.0461  0.6611 -1.5526
13720TIP3   OH241102   1.748   0.425   5.242 -0.3438  0.3153 -0.1718
13720TIP3    H141103   1.833   0.412   5.282 -1.8817 -0.4441  3.1641
13720TIP3    H241104   1.725   0.515   5.263 -1.4885 -0.3174  1.4967
13721TIP3   OH241105   1.184   2.371   6.438  0.5679 -1.0801  0.6956
13721TIP3    H141106   1.228   2.297   6.480  0.8075 -1.1221  0.3755
13721TIP3    H241107   1.229   2.381   6.354  0.1831 -0.9131  0.5067
13722TIP3   OH241108   0.674   2.895   6.643  0.4387 -0.0241  0.2022
13722TIP3    H141109   0.618   2.909   6.720  0.2453 -0.2440  0.1023
13722TIP3    H241110   0.689   2.801   6.641  1.5360  0.1266  0.7271
13723TIP3   OH241111   5.634   7.345   2.697  0.4582  0.2203 -0.2930
13723TIP3    H141112   5.664   7.319   2.610 -0.4993  1.2419 -0.9481
13723TIP3    H241113   5.668   7.433   2.710  1.6079 -0.3583  0.8918
13724TIP3   OH241114   3.329   0.367   2.380  0.5942 -0.2354  0.0213
13724TIP3    H141115   3.412   0.327   2.406 -0.3368 -1.5861  1.0045
13724TIP3    H241116   3.275   0.294   2.351 -0.4163  0.5766 -0.2070
13725TIP3   OH241117   1.462   1.230   1.008 -0.1264 -0.1422 -0.2732
13725TIP3    H141118   1.414   1.166   1.060  0.2281  1.2735  1.9677
13725TIP3    H241119   1.414   1.312   1.020  2.2450  1.1546  1.4204
13726TIP3   OH241120   1.880   0.721   6.113 -0.6078  0.2487  0.5074
13726TIP3    H141121   1.918   0.677   6.037  0.0442  1.6156  0.0192
13726TIP3    H241122   1.940   0.699   6.185 -1.3550 -1.2434  0.7296
13727TIP3   OH241123   4.050   3.296   3.275 -0.6272  0.4737 -0.4541
13727TIP3    H141124   4.074   3.204   3.281  0.6986  0.8119 -0.1637
13727TIP3    H241125   3.959   3.296   3.248 -0.5840 -0.9203 -0.6450
13728TIP3   OH241126   4.011   1.290   4.636  0.0564  0.2011  0.0052
13728TIP3    H141127   4.003   1.261   4.727  0.2930  0.2188  0.0323
13728TIP3    H241128   4.096   1.334   4.633  0.4595 -0.5915 -0.4430
13729TIP3   OH241129   5.464   6.719   5.958 -0.0840  0.6681 -0.2963
13729TIP3    H141130   5.406   6.696   5.886 -1.7626  0.5518  1.0216
13729TIP3    H241131   5.528   6.779   5.920 -0.1675 -0.3610 -2.1226
13730TIP3   OH241132   5.024   0.457   1.386 -0.1617 -0.4108  0.1476
13730TIP3    H141133   4.987   0.523   1.444 -0.5800 -2.2652  2.0963
13730TIP3    H241134   4.948   0.407   1.355  0.3453 -1.6923  0.9147
13731TIP3   OH241135   7.153   5.419   2.693 -0.0049 -0.4695  0.3053
13731TIP3    H141136   7.119   5.381   2.612 -0.2337  0.0313  0.1657
13731TIP3    H241137   7.117   5.364   2.762 -1.3199  0.2005  0.1777
13732TIP3   OH241138   2.901   5.910   2.292  0.1190 -0.2814  0.1855
13732TIP3    H141139   2.955   5.848   2.341  1.2788  1.0642  0.6824
13732TIP3    H241140   2.819   5.913   2.341  0.0575 -1.3514  0.1870
13733TIP3   OH241141   1.358   4.779   0.469  0.5586  0.2278 -0.2869
13733TIP3    H141142   1.281   4.776   0.526 -0.7270 -2.0747 -1.9560
13733TIP3    H241143   1.432   4.764   0.527 -0.4815  0.3049  1.0956
13734TIP3   OH241144   0.169   0.510   0.212 -0.4624  0.9716 -0.1272
13734TIP3    H141145   0.120   0.564   0.149  0.1116  1.1684 -0.4141
13734TIP3    H241146   0.251   0.490   0.168  0.3735  1.9425  0.9239
13735TIP3   OH241147   4.115   6.016   2.532 -0.0157  1.3472  0.5161
13735TIP3    H141148   4.207   6.013   2.556 -0.1343  5.0845  2.1752
13735TIP3    H241149   4.068   6.007   2.615 -1.1774 -0.1301 -0.2592
13736TIP3   OH241150   2.502   5.237   2.656  0.4310  0.2300 -0.7323
13736TIP3    H141151   2.510   5.265   2.747  3.1371 -0.9843 -0.4937
13736TIP3    H241152   2.456   5.309   2.613 -1.2628  0.6667  1.6217
13737TIP3   OH241153   0.317   5.184   1.803  0.0752 -0.1181 -0.4834
13737TIP3    H141154   0.410   5.184   1.778  0.6695 -0.8138  1.5015
13737TIP3    H241155   0.276   5.126   1.740  1.1724 -0.5521 -0.8340
13738TIP3   OH241156   6.604   6.825   6.475 -0.3099 -0.0760  0.2574
13738TIP3    H141157   6.652   6.883   6.534  0.3060 -0.5636  0.2421
13738TIP3    H241158   6.664   6.810   6.401 -1.7646  2.0734 -1.4985
13739TIP3   OH241159   0.138   5.423   4.709 -0.2329  0.2546 -0.3778
13739TIP3    H141160   0.089   5.502   4.685 -1.6071 -0.6309 -0.5943
13739TIP3    H241161   0.113   5.406   4.800 -2.2193 -1.4913 -1.1696
13740TIP3   OH241162   8.261   0.759   1.793  0.6836 -0.2348 -0.3607
13740TIP3    H141163   8.257   0.806   1.876 -0.4007  1.9399 -1.5337
13740TIP3    H241164   8.341   0.789   1.752  1.1908 -1.2647 -0.1485
13741TIP3   OH241165   1.627   7.730   3.145  0.4688  0.1108  0.8244
13741TIP3    H141166   1.535   7.725   3.171 -0.0749  2.0889 -0.4888
13741TIP3    H241167   1.675   7.730   3.227 -0.6284 -1.5129  1.5230
13742TIP3   OH241168   2.145   5.183   5.628  0.1939 -0.0542  0.0153
13742TIP3    H141169   2.216   5.122   5.610  1.6534  1.8565 -1.1205
13742TIP3    H241170   2.174   5.266   5.590 -1.2970  1.6022  2.2170
13743TIP3   OH241171   2.909   2.555   0.236 -0.1578 -0.5456 -0.2820
13743TIP3    H141172   2.954   2.634   0.267 -0.9696  0.2075 -0.9632
13743TIP3    H241173   2.902   2.499   0.314 -1.9270  1.1820  0.8948
13744TIP3   OH241174   6.039   2.616   6.655 -0.3166  0.0133  0.0365
13744TIP3    H141175   6.049   2.523   6.636 -1.4908 -0.1992  0.3917
13744TIP3    H241176   5.953   2.623   6.695 -0.1345  1.2232  0.2495
13745TIP3   OH241177   1.661   5.281   0.975 -0.0058  0.0036 -0.4275
13745TIP3    H141178   1.572   5.304   0.949  0.0736  1.0253  0.1524
13745TIP3    H241179   1.686   5.211   0.915 -1.5883 -1.0727  0.1119
13746TIP3   OH241180   0.337   2.360   3.123 -0.0946 -0.0722  0.0789
13746TIP3    H141181   0.327   2.324   3.035  0.5540 -0.3200  0.1021
13746TIP3    H241182   0.425   2.334   3.150  0.4305  1.6340  0.0601
13747TIP3   OH241183   6.970   5.831   3.143 -0.5451  0.5258  0.3523
13747TIP3    H141184   7.025   5.850   3.066 -1.3422  0.6531 -0.1946
13747TIP3    H241185   6.968   5.914   3.191  1.0173  0.1083  1.2274
13748TIP3   OH241186   3.773   5.988   2.007  0.0668  0.1103  0.0554
13748TIP3    H141187   3.838   6.053   2.036  0.0032 -0.4519  1.5225
13748TIP3    H241188   3.689   6.035   2.012  0.2229  0.5167 -0.8514
13749TIP3   OH241189   6.825   2.819   1.721 -0.6883 -0.9223 -0.1462
13749TIP3    H141190   6.845   2.735   1.763 -1.1105 -0.1089  1.8040
13749TIP3    H241191   6.738   2.807   1.684 -1.0229 -1.1566  0.6933
13750TIP3   OH241192   0.320   0.805   2.940 -0.5988 -0.0234 -0.0134
13750TIP3    H141193   0.232   0.834   2.916 -0.1967  0.4272 -1.0385
13750TIP3    H241194   0.378   0.858   2.884  0.3354 -0.0900  0.8705
13751TIP3   OH241195   3.504   5.318   6.410  0.0194  0.3799 -0.3763
13751TIP3    H141196   3.510   5.413   6.399  0.3142  0.2587 -1.3692
13751TIP3    H241197   3.557   5.282   6.339 -0.3376 -0.5350 -0.1957
13752TIP3   OH241198   0.403   6.605   6.709 -0.6465  0.2096 -0.5197
13752TIP3    H141199   0.409   6.675   6.644 -0.5632 -0.2352 -0.9923
13752TIP3    H241200   0.370   6.529   6.661 -0.8129 -0.0595  0.0052
13753TIP3   OH241201   1.919   4.148   5.012  0.4614  0.3680  0.2400
13753TIP3    H141202   1.933   4.062   4.972  0.8235  0.1705  0.7790
13753TIP3    H241203   1.851   4.132   5.078  0.4336  0.5248  0.2498
13754TIP3   OH241204   0.777   5.478   4.963 -0.1018 -0.3792  0.0782
13754TIP3    H141205   0.754   5.407   4.902 -1.2573  0.1659 -0.1638
13754TIP3    H241206   0.851   5.523   4.921 -0.8956  0.0070 -0.9745
13755TIP3   OH241207   1.327   3.770   3.668 -0.4619 -0.2915  0.3984
13755TIP3    H141208   1.398   3.835   3.672 -0.3496 -0.4651  1.3465
13755TIP3    H241209   1.311   3.746   3.759 -0.7928 -1.2856  0.0865
13756TIP3   OH241210   4.837   2.405   5.989  0.0816  0.2066  0.0343
13756TIP3    H141211   4.804   2.391   6.078 -1.4462 -1.4046 -0.7367
13756TIP3    H241212   4.873   2.321   5.963 -1.3996  0.0339 -1.6109
13757TIP3   OH241213   7.340   3.490   3.804  0.5678  0.0287  1.0940
13757TIP3    H141214   7.259   3.440   3.813  0.9715 -0.9087 -0.2329
13757TIP3    H241215   7.376   3.493   3.893 -0.7349  0.1590  1.6355
13758TIP3   OH241216   5.217   3.386   3.630 -0.6971 -0.4984 -0.2794
13758TIP3    H141217   5.258   3.318   3.576  0.0526 -1.2984  1.2348
13758TIP3    H241218   5.125   3.360   3.634 -0.2144 -2.1867  1.2829
13759TIP3   OH241219   4.835   4.031   0.022  0.0949 -0.6457 -0.6683
13759TIP3    H141220   4.907   3.969   0.024 -0.4544 -1.3343 -1.5584
13759TIP3    H241221   4.764   3.985  -0.022 -0.5538  0.3751 -0.7412
13760TIP3   OH241222   4.078   4.180   5.402 -0.0291  0.6450 -0.0529
13760TIP3    H141223   4.144   4.247   5.420  0.4842  0.1599 -0.1068
13760TIP3    H241224   4.049   4.151   5.489 -0.0353  0.7193 -0.0297
13761TIP3   OH241225   7.844   6.268   3.399 -0.1651 -0.0213  0.0241
13761TIP3    H141226   7.881   6.305   3.479  1.0127  1.4156 -1.1302
13761TIP3    H241227   7.914   6.215   3.362 -0.8171 -0.9555  0.0722
13762TIP3   OH241228   4.009   4.506   5.446  0.3844  0.2612 -0.0339
13762TIP3    H141229   3.922   4.466   5.455  0.6125 -0.1800  0.2614
13762TIP3    H241230   4.043   4.509   5.535  0.5583  0.7004 -0.1144
13763TIP3   OH241231   7.970   5.870   2.379 -0.4537 -0.2102 -0.1874
13763TIP3    H141232   8.004   5.927   2.448 -0.2020  0.6374 -0.9874
13763TIP3    H241233   8.009   5.785   2.397  1.4097  0.5179 -0.5610
13764TIP3   OH241234   4.870   1.462   2.466  0.1578 -1.0499  0.1160
13764TIP3    H141235   4.864   1.477   2.560  1.0163 -2.1716  0.3828
13764TIP3    H241236   4.942   1.518   2.437  1.1103 -2.0511  0.4825
13765TIP3   OH241237   6.408   2.738   5.261 -0.4549  0.4764 -0.1809
13765TIP3    H141238   6.413   2.736   5.166 -2.2823  1.2976 -0.3411
13765TIP3    H241239   6.385   2.649   5.286 -0.0834  0.2850 -0.5140
13766TIP3   OH241240   6.630   5.138   0.418 -0.3172  0.6123  0.2071
13766TIP3    H141241   6.694   5.071   0.440 -0.7208 -0.0066 -0.4808
13766TIP3    H241242   6.674   5.193   0.354 -0.2634  0.5497  0.1902
13767TIP3   OH241243   1.443   2.034   6.757 -0.3379  0.1507  0.3462
13767TIP3    H141244   1.520   1.989   6.723 -0.8767 -0.3746 -0.2024
13767TIP3    H241245   1.377   1.966   6.765 -0.8569  0.6610  0.4764
13768TIP3   OH241246   1.636   4.354   5.817  0.3371  0.0174 -0.3238
13768TIP3    H141247   1.628   4.300   5.895  2.0554 -1.5764 -1.1649
13768TIP3    H241248   1.624   4.294   5.744  0.8068  1.0502 -1.2865
13769TIP3   OH241249   5.917   6.198   1.871  0.6130 -0.2402 -0.4596
13769TIP3    H141250   5.951   6.216   1.959 -0.4998  0.2206 -0.1036
13769TIP3    H241251   5.983   6.143   1.831  1.1499 -0.4520  0.6666
13770TIP3   OH241252   4.615   6.938   6.448  0.6654 -0.3566 -0.2421
13770TIP3    H141253   4.591   7.030   6.459 -1.1046 -0.6896 -0.9954
13770TIP3    H241254   4.554   6.891   6.505  0.5209 -1.1602 -1.0543
13771TIP3   OH241255   0.130   5.214   6.495 -0.1838 -0.1006 -0.1136
13771TIP3    H141256   0.115   5.142   6.434 -2.6959 -0.5911  0.9374
13771TIP3    H241257   0.103   5.293   6.448  0.7038 -0.0776 -0.6005
13772TIP3   OH241258   0.930   0.967   6.038  0.5392  0.0467  0.4855
13772TIP3    H141259   0.897   1.014   6.115 -1.0782 -0.1921 -0.0362
13772TIP3    H241260   0.852   0.947   5.987  1.4790 -0.8576 -0.6356
13773TIP3   OH241261   0.098   2.756   0.325  0.1078  0.5440 -0.3072
13773TIP3    H141262   0.079   2.743   0.418  0.4538  2.1767  0.0222
13773TIP3    H241263   0.135   2.844   0.320 -0.5572  0.7667 -2.0976
13774TIP3   OH241264   3.591   0.793   0.881 -0.5979 -0.1500 -0.3330
13774TIP3    H141265   3.614   0.716   0.830 -0.3301  1.1506 -2.2972
13774TIP3    H241266   3.673   0.844   0.885 -0.7577  0.0461  0.9515
13775TIP3   OH241267   4.896   1.562   3.291  0.2270 -0.1422 -0.2434
13775TIP3    H141268   4.983   1.561   3.251 -0.3185 -2.2476 -1.5247
13775TIP3    H241269   4.902   1.500   3.364 -0.3652 -0.8275 -0.7658
13776TIP3   OH241270   1.792   0.649   0.452  0.0714  0.3763  0.0064
13776TIP3    H141271   1.822   0.700   0.527  0.0111 -0.7215  0.8165
13776TIP3    H241272   1.768   0.564   0.490 -2.1390  0.5294 -0.8897
13777TIP3   OH241273   7.303   0.776   3.883 -0.0371 -0.0420 -0.1973
13777TIP3    H141274   7.294   0.697   3.831 -0.6870  0.2043 -0.4581
13777TIP3    H241275   7.325   0.845   3.820  1.7846 -0.2398  0.1739
13778TIP3   OH241276   2.433   0.554   4.743  0.1579 -0.1267  0.4818
13778TIP3    H141277   2.466   0.643   4.758  2.4643 -0.6843 -0.8289
13778TIP3    H241278   2.391   0.530   4.826  1.8541  1.2214  1.8137
13779TIP3   OH241279   0.203   6.935   2.852  0.3781 -0.4524 -0.1908
13779TIP3    H141280   0.292   6.927   2.888  0.9921 -0.8204 -1.7127
13779TIP3    H241281   0.215   6.975   2.766 -1.1233  1.1060  0.2726
13780TIP3   OH241282   1.389   3.622   0.283  0.0722  0.1927  0.3402
13780TIP3    H141283   1.344   3.698   0.247  0.4521 -0.5049 -1.7587
13780TIP3    H241284   1.395   3.640   0.377 -2.3297  1.4377  0.3410
13781TIP3   OH241285   2.474   4.758   5.843 -0.0733 -0.4548 -0.1750
13781TIP3    H141286   2.439   4.769   5.755 -1.1307  0.0091  0.2945
13781TIP3    H241287   2.474   4.846   5.881 -2.1946 -0.9784  1.2246
13782TIP3   OH241288   7.588   7.655   1.468 -0.4318  0.8334 -0.0976
13782TIP3    H141289   7.626   7.722   1.412  1.1634 -1.2394 -1.6781
13782TIP3    H241290   7.652   7.644   1.538 -0.1835  0.3142 -0.3964
13783TIP3   OH241291   4.792   2.637   0.976 -0.3933  0.5386 -0.4528
13783TIP3    H141292   4.849   2.662   0.903  1.7392 -1.5621  0.3605
13783TIP3    H241293   4.773   2.719   1.021  1.6985  1.3950 -1.0071
13784TIP3   OH241294   6.054   3.560   3.387  0.6067 -0.1377 -0.4038
13784TIP3    H141295   6.027   3.510   3.465 -0.1418  1.2540  0.2595
13784TIP3    H241296   6.014   3.646   3.399  1.6190  0.5339 -1.6690
13785TIP3   OH241297   4.454   2.157   5.640  0.1509  0.1885 -0.7042
13785TIP3    H141298   4.432   2.155   5.733 -1.4103 -1.2676 -1.0607
13785TIP3    H241299   4.496   2.242   5.628 -0.0321  0.6135  1.2289
13786TIP3   OH241300   1.185   6.356   0.369 -0.0795 -0.5903  0.3589
13786TIP3    H141301   1.205   6.362   0.276  0.7171 -0.2315  0.5458
13786TIP3    H241302   1.268   6.329   0.410 -0.2091  0.0415  1.0503
13787TIP3   OH241303   6.303   5.810   4.837  0.1390  0.2690  0.1176
13787TIP3    H141304   6.361   5.856   4.777  0.8248 -0.6319  0.0810
13787TIP3    H241305   6.215   5.826   4.803  0.4804  0.2241 -0.8073
13788TIP3   OH241306   1.922   0.539   0.232  0.3425  0.0103  0.0125
13788TIP3    H141307   1.861   0.511   0.300 -0.1546  1.4965  0.2115
13788TIP3    H241308   1.940   0.460   0.181 -2.0574 -0.3916 -0.2917
13789TIP3   OH241309   6.404   0.252   1.479 -0.0813  0.7922  0.7153
13789TIP3    H141310   6.426   0.283   1.567  0.0917  3.9727 -0.3415
13789TIP3    H241311   6.316   0.215   1.488  1.0966 -1.8617  2.7562
13790TIP3   OH241312   1.455   1.548   0.195 -0.1927 -0.3323  0.0787
13790TIP3    H141313   1.425   1.590   0.114 -1.4082  1.6534  1.4793
13790TIP3    H241314   1.387   1.483   0.215 -0.3291 -0.2256 -0.0383
13791TIP3   OH241315   6.743   6.611   1.662 -0.5220 -0.3454  0.7830
13791TIP3    H141316   6.739   6.555   1.740  0.9174 -1.6726 -0.0519
13791TIP3    H241317   6.807   6.678   1.685 -1.6277  0.5343  1.4644
13792TIP3   OH241318   6.550   7.769   4.780 -0.5467 -0.0177  0.2936
13792TIP3    H141319   6.547   7.864   4.766  1.3693  0.1739  0.8910
13792TIP3    H241320   6.593   7.735   4.701 -0.7757 -0.3239  0.3030
13793TIP3   OH241321   6.223   3.504   0.328 -0.1338 -0.4889  0.4564
13793TIP3    H141322   6.149   3.564   0.317 -0.8692 -1.5166 -0.3135
13793TIP3    H241323   6.186   3.428   0.373  1.0778  0.1618  2.7108
13794TIP3   OH241324   5.331   2.541   5.571 -0.3865 -0.4354  0.3065
13794TIP3    H141325   5.311   2.631   5.597  0.1190  0.0885 -1.0201
13794TIP3    H241326   5.426   2.540   5.559 -0.6880 -0.1641 -2.9486
13795TIP3   OH241327   1.902   1.975   0.640  0.4243  0.1886  1.0714
13795TIP3    H141328   1.858   1.904   0.688  0.4599 -1.2394 -0.9033
13795TIP3    H241329   1.840   2.001   0.573  1.3080  0.4375  0.3331
13796TIP3   OH241330   6.601   2.956   0.391 -0.3385 -0.0504  0.0170
13796TIP3    H141331   6.694   2.976   0.389 -0.3015  0.1071  1.6890
13796TIP3    H241332   6.557   3.038   0.367 -0.0588  0.2762  0.5977
13797TIP3   OH241333   0.339   1.452   6.473  0.2297  0.5046 -0.1492
13797TIP3    H141334   0.256   1.440   6.427 -0.1365 -1.4935  0.9223
13797TIP3    H241335   0.322   1.523   6.535 -1.5364 -1.4888  1.8053
13798TIP3   OH241336   5.336   5.614   5.428  0.4480 -0.1555 -0.0376
13798TIP3    H141337   5.282   5.677   5.381 -2.3365 -2.6923 -0.5244
13798TIP3    H241338   5.368   5.554   5.361  0.6885 -0.8962  0.7183
13799TIP3   OH241339   5.621   3.742   5.013 -0.3147  0.2939  0.1006
13799TIP3    H141340   5.704   3.721   4.970 -0.5365  2.0437 -1.3131
13799TIP3    H241341   5.639   3.731   5.106  1.2225 -0.2599 -0.2309
13800TIP3   OH241342   3.987   0.585   6.220 -0.5245  1.1115 -0.1489
13800TIP3    H141343   3.969   0.556   6.310 -1.6691  2.3573  0.0633
13800TIP3    H241344   4.032   0.669   6.231 -0.5980  1.2308 -0.7295
13801TIP3   OH241345   1.406   3.867   6.650 -0.2050  0.0776  0.2357
13801TIP3    H141346   1.492   3.885   6.686 -0.8439  1.6605  1.0670
13801TIP3    H241347   1.402   3.919   6.570 -0.0663 -0.7208 -0.3030
13802TIP3   OH241348   7.253   4.656   0.850 -0.2208  0.5331  0.4845
13802TIP3    H141349   7.321   4.723   0.847 -0.4515  0.7455 -0.0707
13802TIP3    H241350   7.176   4.702   0.884 -0.7238  0.8613 -1.0545
13803TIP3   OH241351   1.060   0.401   2.660  0.0830  0.6532  0.4588
13803TIP3    H141352   1.034   0.483   2.701  1.0612  1.8142 -1.1004
13803TIP3    H241353   1.142   0.422   2.614 -0.1827 -0.9128 -0.8312
13804TIP3   OH241354   3.365   0.756   3.619  0.1587  0.3375  0.1639
13804TIP3    H141355   3.320   0.736   3.536 -0.1380  2.0195 -0.1213
13804TIP3    H241356   3.405   0.841   3.604  0.8243  0.2743  1.4935
13805TIP3   OH241357   3.018   6.112   1.683 -0.0748 -0.2500  1.0450
13805TIP3    H141358   3.055   6.038   1.635  0.3547  0.6087  0.0246
13805TIP3    H241359   2.925   6.089   1.693 -0.5468  0.1908 -1.5382
13806TIP3   OH241360   0.495   5.915   1.340 -0.0063  0.0003 -0.1335
13806TIP3    H141361   0.529   5.881   1.258 -0.9415  1.2783 -1.0978
13806TIP3    H241362   0.479   6.008   1.323  0.2803  0.4275  1.6602
13807TIP3   OH241363   1.025   6.386   5.521 -0.1288 -0.0520 -0.1886
13807TIP3    H141364   1.056   6.421   5.437  1.0755  2.4698  1.1735
13807TIP3    H241365   0.930   6.396   5.518 -0.0139  0.9644 -0.8890
13808TIP3   OH241366   5.184   1.848   5.503 -0.6122 -0.1351 -0.0534
13808TIP3    H141367   5.209   1.873   5.592 -3.8518  1.3182  0.5927
13808TIP3    H241368   5.129   1.920   5.472  1.6402  0.1946 -3.9662
13809TIP3   OH241369   4.464   6.620   2.663  0.3311  0.5051  0.0887
13809TIP3    H141370   4.394   6.569   2.703  0.3028  0.3736 -0.1256
13809TIP3    H241371   4.513   6.556   2.610  1.7459  0.1867  1.6717
13810TIP3   OH241372   6.112   4.083   0.616 -0.4602  0.1329 -0.0135
13810TIP3    H141373   6.136   4.174   0.600 -1.2947  0.0026 -2.2559
13810TIP3    H241374   6.130   4.038   0.534 -0.8279 -1.5794  0.7956
13811TIP3   OH241375   1.998   4.850   4.301  0.3847 -0.0783 -0.3844
13811TIP3    H141376   2.034   4.765   4.276  1.1688  0.6577 -1.8748
13811TIP3    H241377   1.904   4.842   4.282  0.3489 -0.8129  0.0815
13812TIP3   OH241378   2.051   1.977   6.337 -0.4703  0.1316 -0.3599
13812TIP3    H141379   2.089   1.963   6.424 -0.1219 -3.8325 -0.9434
13812TIP3    H241380   1.957   1.965   6.349 -0.6297  1.4319 -0.2586
13813TIP3   OH241381   3.069   2.314   3.231 -0.0623  0.4111 -0.2434
13813TIP3    H141382   3.033   2.226   3.231 -0.0623  0.3484 -2.3338
13813TIP3    H241383   3.002   2.368   3.273 -0.2449 -0.5081  0.6640
13814TIP3   OH241384   4.152   1.052   5.600  0.0745 -0.5413  0.7374
13814TIP3    H141385   4.165   1.146   5.589 -1.0704 -0.3025  1.3308
13814TIP3    H241386   4.089   1.044   5.670 -0.4100 -1.7381  0.1947
13815TIP3   OH241387   7.953   5.837   1.744 -0.7252 -0.0580  0.1557
13815TIP3    H141388   8.001   5.755   1.754 -1.0210 -0.3164 -0.4405
13815TIP3    H241389   7.974   5.866   1.655  0.9265  1.5375  1.0199
13816TIP3   OH241390   4.615   3.039   6.719 -0.3136  0.1819 -0.2083
13816TIP3    H141391   4.522   3.061   6.715 -0.4303  0.0848  1.5268
13816TIP3    H241392   4.624   2.984   6.797  0.9911 -0.9197 -1.0929
13817TIP3   OH241393   2.965   6.187   3.281 -0.6901 -0.2333 -0.0662
13817TIP3    H141394   2.920   6.265   3.316  0.5993  0.7566 -0.5349
13817TIP3    H241395   2.988   6.136   3.359  3.6550  2.7632  0.9646
13818TIP3   OH241396   4.565   3.935   5.192  0.3128  0.2258  0.0499
13818TIP3    H141397   4.500   3.867   5.207  0.9413 -0.7024 -1.2626
13818TIP3    H241398   4.594   3.960   5.279  0.3432 -1.4683  0.5546
13819TIP3   OH241399   6.492   1.435   0.669 -0.0818 -0.1997 -0.2156
13819TIP3    H141400   6.578   1.476   0.659  0.0624 -0.0196  1.4414
13819TIP3    H241401   6.510   1.354   0.717 -0.8428 -0.0901  0.2742
13820TIP3   OH241402   6.186   1.684   2.892  0.7971 -0.2531  0.5224
13820TIP3    H141403   6.208   1.729   2.811  0.7656 -0.3748  0.4463
13820TIP3    H241404   6.191   1.752   2.959  4.3208 -0.8118  1.0005
13821TIP3   OH241405   7.525   2.391   1.836  0.4380  0.4196 -0.1735
13821TIP3    H141406   7.552   2.308   1.875  0.5464  0.5944  0.1321
13821TIP3    H241407   7.539   2.455   1.906 -0.4544  0.5661 -0.1187
13822TIP3   OH241408   0.505   0.855   1.324 -0.3064  0.5862 -0.1475
13822TIP3    H141409   0.513   0.780   1.382 -2.8819 -0.5668 -1.1344
13822TIP3    H241410   0.449   0.917   1.372  0.1685  1.0120 -0.1367
13823TIP3   OH241411   5.240   3.928   6.093  0.4247 -0.6799  0.1642
13823TIP3    H141412   5.290   3.894   6.168 -0.3061  1.8452  1.9391
13823TIP3    H241413   5.149   3.916   6.118  0.1666  0.9681  0.1014
13824TIP3   OH241414   0.207   0.984   3.529  0.0807 -0.6374 -0.0514
13824TIP3    H141415   0.156   1.015   3.604 -1.3060  0.8800 -1.5551
13824TIP3    H241416   0.149   0.923   3.484  0.8187 -1.3596 -0.0538
13825TIP3   OH241417   0.575   6.020   2.843 -0.0575 -0.8209  0.0432
13825TIP3    H141418   0.497   6.010   2.789 -0.0627  2.3757 -0.7145
13825TIP3    H241419   0.648   6.011   2.781 -0.0086  0.7989 -0.1747
13826TIP3   OH241420   2.545   2.896   2.299 -0.4739 -0.2582  0.2427
13826TIP3    H141421   2.606   2.898   2.225 -0.8233 -0.6236 -0.0585
13826TIP3    H241422   2.502   2.982   2.297 -0.0113 -0.0219  0.4216
13827TIP3   OH241423   5.788   7.282   6.169  0.5474 -0.0114 -0.0291
13827TIP3    H141424   5.750   7.353   6.117  0.4915  1.1020  1.4674
13827TIP3    H241425   5.714   7.229   6.196  0.3008  0.7884  0.8958
13828TIP3   OH241426   3.764   2.663   3.446  0.6512 -0.1923 -0.3478
13828TIP3    H141427   3.748   2.707   3.363  2.0168 -0.5051 -0.8099
13828TIP3    H241428   3.689   2.687   3.501  0.0467  0.5350 -1.4504
13829TIP3   OH241429   3.040   4.606   2.782 -0.1778  0.3803  0.2064
13829TIP3    H141430   2.987   4.686   2.780 -1.5161 -0.4747  0.4359
13829TIP3    H241431   3.103   4.622   2.853 -0.9678  0.9139  0.8188
13830TIP3   OH241432   0.903   7.123   5.089  0.4881  0.4433 -0.2304
13830TIP3    H141433   0.996   7.125   5.069  0.1708  1.9051 -1.9175
13830TIP3    H241434   0.861   7.156   5.009 -1.5530 -1.0923  0.1107
13831TIP3   OH241435   0.976   3.863   5.342  0.0109  0.1542  0.3851
13831TIP3    H141436   0.914   3.809   5.391  1.3420  0.4742  2.5624
13831TIP3    H241437   1.039   3.801   5.306  0.7641  0.0890  1.7384
13832TIP3   OH241438   4.943   4.979   2.704  0.0783 -0.2106 -0.1138
13832TIP3    H141439   5.013   5.011   2.647 -0.4203 -0.8265 -1.0923
13832TIP3    H241440   4.920   5.055   2.758 -0.4428  0.8459 -1.7447
13833TIP3   OH241441   0.068   0.083   5.080 -0.5491  0.5552  0.2415
13833TIP3    H141442   0.110   0.084   5.165  0.8836  0.2393 -0.4295
13833TIP3    H241443   0.140   0.087   5.017 -1.6161  2.3645 -0.9631
13834TIP3   OH241444   4.036   1.157   5.886 -0.6483 -0.6451 -0.2086
13834TIP3    H141445   4.049   1.214   5.810  0.8418 -3.0101 -1.8438
13834TIP3    H241446   4.120   1.157   5.931 -0.5231 -1.7998 -0.4224
13835TIP3   OH241447   6.282   6.939   5.706  0.8780 -0.3453 -0.0321
13835TIP3    H141448   6.332   6.905   5.632 -0.1178  0.9048 -1.3653
13835TIP3    H241449   6.276   7.033   5.689 -0.8887 -0.2813  0.6786
13836TIP3   OH241450   7.759   2.765   6.618 -0.0817 -0.4017  1.1238
13836TIP3    H141451   7.779   2.784   6.526  0.1538  1.6760  1.5710
13836TIP3    H241452   7.841   2.732   6.654  0.8885  2.1992  1.4303
13837TIP3   OH241453   3.850   0.978   5.498 -0.4168 -0.4431 -0.7350
13837TIP3    H141454   3.835   0.980   5.404 -0.4643 -3.0812 -0.8484
13837TIP3    H241455   3.819   0.892   5.526 -1.6010  0.7357  1.9406
13838TIP3   OH241456   4.447   5.996   3.273 -0.1054 -0.4572 -0.1618
13838TIP3    H141457   4.537   5.968   3.255  0.3877  0.0782  1.3042
13838TIP3    H241458   4.450   6.029   3.363 -1.4300  0.9685 -0.5888
13839TIP3   OH241459   7.849   1.075   3.859  0.6319  0.1825 -0.3379
13839TIP3    H141460   7.821   1.155   3.814 -0.1416  0.0416 -0.1336
13839TIP3    H241461   7.925   1.045   3.810  0.0485  0.2430 -1.3244
13840TIP3   OH241462   1.976   4.240   4.703  0.0450 -0.3076 -0.8782
13840TIP3    H141463   2.067   4.236   4.673  0.3889  0.4185  0.0335
13840TIP3    H241464   1.981   4.252   4.797 -1.0074 -0.3925 -0.7922
13841TIP3   OH241465   6.528   0.389   0.900 -0.8216 -0.2276 -0.4048
13841TIP3    H141466   6.531   0.479   0.931  0.4007 -0.4130  0.0483
13841TIP3    H241467   6.443   0.383   0.855 -1.1470  0.9901 -0.0116
13842TIP3   OH241468   1.531   2.752   2.533 -0.3276  0.3219  0.0389
13842TIP3    H141469   1.497   2.808   2.603  0.4075 -0.1400  0.7776
13842TIP3    H241470   1.460   2.690   2.515 -1.6039  2.1097 -1.5570
13843TIP3   OH241471   2.419   1.312   4.229  0.4341 -0.1339 -0.4961
13843TIP3    H141472   2.472   1.311   4.309  0.6386 -0.2833 -0.6358
13843TIP3    H241473   2.341   1.262   4.253  0.1784  0.4091 -0.1711
13844TIP3   OH241474   5.516   6.248   6.440  0.2471  0.5362  0.1063
13844TIP3    H141475   5.441   6.214   6.390  0.8528  0.0807 -0.5170
13844TIP3    H241476   5.499   6.221   6.530 -0.3166  0.3935 -0.0374
13845TIP3   OH241477   3.347   4.634   6.576  0.0657  0.3027 -0.2469
13845TIP3    H141478   3.330   4.727   6.593 -1.2907 -0.3825  2.8510
13845TIP3    H241479   3.429   4.616   6.622  0.0559 -0.1357 -0.4014
13846TIP3   OH241480   6.649   4.642   2.810 -0.1081 -0.5089 -0.2541
13846TIP3    H141481   6.666   4.657   2.903  0.2535  0.6378 -0.4953
13846TIP3    H241482   6.735   4.630   2.771 -0.0778  1.2491 -0.7987
13847TIP3   OH241483   6.229   6.129   1.140  0.1311  0.5671  0.2184
13847TIP3    H141484   6.208   6.185   1.065  0.1868  1.5477  0.9108
13847TIP3    H241485   6.159   6.146   1.202 -0.9870 -1.6874 -0.3277
13848TIP3   OH241486   3.774   2.552   0.849 -0.5699 -0.2958  0.0803
13848TIP3    H141487   3.678   2.548   0.853 -0.5423 -0.9303  0.2691
13848TIP3    H241488   3.793   2.574   0.758 -0.9085  0.7949  0.2518
13849TIP3   OH241489   7.227   2.110   2.934  0.1966 -0.4368 -0.1922
13849TIP3    H141490   7.157   2.156   2.889 -0.5066  0.3864  1.6384
13849TIP3    H241491   7.219   2.137   3.026  2.2731 -1.1239  0.2510
13850TIP3   OH241492   5.719   3.910   3.619  0.1840 -0.9614  0.1235
13850TIP3    H141493   5.782   3.941   3.684 -0.3777  0.5565 -0.0301
13850TIP3    H241494   5.667   3.844   3.665  0.9926 -1.2585  0.6388
13851TIP3   OH241495   5.041   6.147   6.326 -0.1188  0.3319 -0.0811
13851TIP3    H141496   4.958   6.194   6.330 -1.8745 -2.4178 -1.2801
13851TIP3    H241497   5.068   6.139   6.417 -0.7635  1.8572  0.2812
13852TIP3   OH241498   6.285   1.791   3.770  0.8049  0.1934 -0.0463
13852TIP3    H141499   6.243   1.825   3.691 -1.2783  0.3434  1.0496
13852TIP3    H241500   6.279   1.696   3.761  0.4842  0.2109 -0.0469
13853TIP3   OH241501   0.678   3.925   4.269 -0.2197 -0.4367 -0.5456
13853TIP3    H141502   0.641   3.997   4.219  1.7201  1.4399  0.5149
13853TIP3    H241503   0.759   3.961   4.306 -0.5629 -2.2822  2.3287
13854TIP3   OH241504   5.195   5.646   4.912 -0.0693 -0.1099 -0.3693
13854TIP3    H141505   5.111   5.644   4.866  0.0467 -1.4001 -0.5533
13854TIP3    H241506   5.210   5.739   4.929 -1.1861  0.2032 -0.9658
13855TIP3   OH241507   3.274   1.172   3.970  0.0634 -0.5198 -0.0357
13855TIP3    H141508   3.353   1.202   4.016 -0.4211  0.6364  0.0756
13855TIP3    H241509   3.232   1.113   4.032  1.2169 -1.7806 -0.3922
13856TIP3   OH241510   1.761   2.498   5.066  0.5822 -0.3681  0.1124
13856TIP3    H141511   1.813   2.422   5.096  1.0562 -0.5921 -1.2164
13856TIP3    H241512   1.764   2.559   5.140  1.6776 -0.9177  0.5508
13857TIP3   OH241513   4.670   7.300   5.341  0.4054  0.0091 -0.1492
13857TIP3    H141514   4.718   7.348   5.275 -1.7958 -0.4245 -2.2065
13857TIP3    H241515   4.642   7.366   5.404  2.3472  0.4558  0.3117
13858TIP3   OH241516   6.756   1.467   5.660  0.4424 -0.4418  0.5931
13858TIP3    H141517   6.678   1.471   5.716 -0.2255 -2.3311 -0.1301
13858TIP3    H241518   6.742   1.536   5.595 -0.1815 -0.1493  1.0248
13859TIP3   OH241519   2.184   1.079   1.546  0.4171 -0.1389  0.6063
13859TIP3    H141520   2.210   1.146   1.482  0.5861 -0.9999 -0.2535
13859TIP3    H241521   2.267   1.043   1.577  0.3171 -0.3381  0.6420
13860TIP3   OH241522   6.527   5.048   2.283  0.5956  0.0053  0.3762
13860TIP3    H141523   6.542   5.131   2.328  0.5048 -0.6158  1.5892
13860TIP3    H241524   6.613   5.006   2.279  0.7926  0.4838 -0.9523
13861TIP3   OH241525   2.542   2.248   5.124  0.3586 -0.2538 -0.4961
13861TIP3    H141526   2.474   2.182   5.136  2.4896 -2.6150 -0.5544
13861TIP3    H241527   2.610   2.204   5.072  1.6371  2.1994 -1.0682
13862TIP3   OH241528   7.496   4.406   1.691  0.3830 -0.0341  1.0297
13862TIP3    H141529   7.470   4.466   1.621  1.7965 -0.0153  0.4925
13862TIP3    H241530   7.540   4.334   1.646  3.3092  1.0364  1.9931
13863TIP3   OH241531   7.952   4.192   0.058  0.4740  0.0699 -0.3434
13863TIP3    H141532   8.032   4.151   0.091  0.2036  0.5096  0.9230
13863TIP3    H241533   7.889   4.120   0.051  0.2166  0.1112  1.1796
13864TIP3   OH241534   1.647   7.177   4.251 -0.5966  0.4619  0.1270
13864TIP3    H141535   1.649   7.086   4.281 -1.2734  0.5304  0.4102
13864TIP3    H241536   1.577   7.217   4.303 -2.0212  0.5139 -1.7322
13865TIP3   OH241537   5.632   7.309   3.059  0.0636 -0.3375 -0.0988
13865TIP3    H141538   5.644   7.394   3.017 -0.9628 -0.1682 -0.0740
13865TIP3    H241539   5.643   7.245   2.989  0.1333 -0.1481 -0.2608
13866TIP3   OH241540   3.867   7.000   5.347 -0.6381 -0.8037  0.1362
13866TIP3    H141541   3.858   7.094   5.337 -2.7606 -0.9680 -0.0374
13866TIP3    H241542   3.782   6.971   5.381  0.8074 -2.3518  2.7214
13867TIP3   OH241543   2.224   2.598   0.868 -0.3016 -0.1720  0.3083
13867TIP3    H141544   2.165   2.655   0.917  0.1133  0.8040 -0.2855
13867TIP3    H241545   2.180   2.584   0.784  0.0596  0.1040  0.0726
13868TIP3   OH241546   3.469   2.368   6.672 -0.6190  0.6379  0.6227
13868TIP3    H141547   3.555   2.334   6.697  0.2164 -1.1646 -3.8517
13868TIP3    H241548   3.410   2.336   6.740  1.8063 -0.5617  2.2929
13869TIP3   OH241549   6.688   3.351   6.138 -0.8892 -0.4818  0.4663
13869TIP3    H141550   6.679   3.379   6.047 -0.7097  0.6325  0.7758
13869TIP3    H241551   6.692   3.256   6.133 -1.4726 -0.4708 -0.6406
13870TIP3   OH241552   3.401   0.800   1.704  0.1789  0.3397 -0.2217
13870TIP3    H141553   3.396   0.828   1.612  0.5246  3.3329  0.5677
13870TIP3    H241554   3.471   0.854   1.741  0.9276 -1.7252  1.5597
13871TIP3   OH241555   1.543   0.336   6.514  0.3107  0.0621 -0.0175
13871TIP3    H141556   1.472   0.295   6.464  0.6719  0.0944 -0.5681
13871TIP3    H241557   1.528   0.430   6.503 -1.0958  0.1383  2.0592
13872TIP3   OH241558   4.009   4.212   0.721  0.7395 -0.1900  0.0846
13872TIP3    H141559   4.096   4.181   0.699 -0.2337 -0.9969 -3.1865
13872TIP3    H241560   4.023   4.279   0.787  3.5924 -1.8479  1.3392
13873TIP3   OH241561   4.921   6.137   0.558  0.2517 -0.7151  0.2447
13873TIP3    H141562   4.835   6.179   0.555 -0.3251 -1.7682  1.0114
13873TIP3    H241563   4.911   6.069   0.626  2.2417  0.3457  1.6955
13874TIP3   OH241564   1.985   2.267   4.027 -0.0861  0.0001 -0.7561
13874TIP3    H141565   2.029   2.185   4.008 -1.6633 -1.3588  1.0219
13874TIP3    H241566   1.891   2.246   4.022 -0.5588  1.1024  1.7077
13875TIP3   OH241567   4.232   6.137   1.057 -0.1913  0.5759 -0.3234
13875TIP3    H141568   4.139   6.121   1.070 -0.4341  2.0683 -0.1203
13875TIP3    H241569   4.268   6.051   1.035 -2.0218  0.3466 -2.8403
13876TIP3   OH241570   5.995   6.464   3.846 -0.5107  0.3544  0.1471
13876TIP3    H141571   5.977   6.552   3.877  0.3784  0.4598  0.4104
13876TIP3    H241572   5.951   6.406   3.909  0.4417  0.5845  1.0539
13877TIP3   OH241573   7.399   1.248   4.550 -0.3447  0.4044 -0.8709
13877TIP3    H141574   7.314   1.250   4.592  0.7569  1.3098  1.4973
13877TIP3    H241575   7.448   1.181   4.598  0.6070  0.6720 -1.4436
13878TIP3   OH241576   7.364   0.406   6.050 -0.1959 -0.0205 -0.0873
13878TIP3    H141577   7.389   0.463   5.978 -2.5570  2.5880  0.9462
13878TIP3    H241578   7.423   0.430   6.122 -1.4259  1.5801  0.4644
13879TIP3   OH241579   3.378   0.657   4.980  0.0742  0.1506  0.5166
13879TIP3    H141580   3.416   0.569   4.981 -2.4957 -1.0419  1.7649
13879TIP3    H241581   3.346   0.668   4.890 -1.3421 -1.0551  0.8390
13880TIP3   OH241582   2.360   7.313   5.152  0.4892 -0.3732 -0.7387
13880TIP3    H141583   2.443   7.287   5.112  1.9207  2.9225 -0.2875
13880TIP3    H241584   2.378   7.314   5.246  0.4417  1.5687 -0.7003
13881TIP3   OH241585   4.735   2.392   3.641 -0.2913 -0.3430 -0.3103
13881TIP3    H141586   4.734   2.301   3.614 -1.9869 -0.7799  0.9879
13881TIP3    H241587   4.685   2.438   3.574  1.3247 -0.1617 -1.4438
13882TIP3   OH241588   8.009   3.899   3.505 -0.1572 -0.7138  0.3046
13882TIP3    H141589   8.066   3.934   3.437 -1.4535 -0.8452 -0.8755
13882TIP3    H241590   7.997   3.972   3.566  0.3686 -0.3530 -0.0094
13883TIP3   OH241591   1.600   0.663   2.761 -0.4505  0.2236  0.0951
13883TIP3    H141592   1.665   0.711   2.710 -1.9337  0.2473 -1.9248
13883TIP3    H241593   1.554   0.731   2.811 -0.3928  0.4891 -0.2070
13884TIP3   OH241594   2.468   1.493   1.875 -0.6739  0.8694 -0.6634
13884TIP3    H141595   2.428   1.578   1.896  0.8701  2.0192 -2.0467
13884TIP3    H241596   2.562   1.508   1.886 -0.3005 -0.3716 -1.9189
13885TIP3   OH241597   3.985   7.107   5.734 -0.5694 -0.0862 -0.4705
13885TIP3    H141598   3.948   7.028   5.773 -0.7344  0.7838  1.2184
13885TIP3    H241599   3.995   7.168   5.807 -0.1857  1.3681 -1.6769
13886TIP3   OH241600   5.118   2.642   2.786  0.0789 -0.1765  0.3076
13886TIP3    H141601   5.029   2.661   2.759 -0.1710 -1.0504  0.4916
13886TIP3    H241602   5.126   2.683   2.873 -0.3626 -0.6658  0.5820
13887TIP3   OH241603   5.437   7.132   6.403 -0.5092  0.4624  0.8980
13887TIP3    H141604   5.514   7.091   6.444 -0.6266 -0.4970  0.2019
13887TIP3    H241605   5.368   7.124   6.469 -0.1836  0.7236  1.2734
13888TIP3   OH241606   2.496   4.661   3.219 -0.5708 -0.2368  0.0262
13888TIP3    H141607   2.540   4.691   3.299 -1.6581 -0.4855  0.7423
13888TIP3    H241608   2.478   4.742   3.170 -0.0760 -0.0666  0.1150
13889TIP3   OH241609   7.748   3.222   1.544 -0.1470 -0.0585  0.2247
13889TIP3    H141610   7.685   3.198   1.612 -0.0955 -0.8370  0.0059
13889TIP3    H241611   7.739   3.153   1.478 -0.3993  0.8302 -0.6947
13890TIP3   OH241612   2.091   5.706   4.592  0.2637 -0.1739 -0.3118
13890TIP3    H141613   2.067   5.629   4.644 -0.8999 -0.7899 -1.7015
13890TIP3    H241614   2.120   5.671   4.509  0.8795  0.8499 -0.5452
13891TIP3   OH241615   2.297   7.463   2.593  0.4778  0.0376  0.0666
13891TIP3    H141616   2.287   7.542   2.541  0.7880  0.1342  0.1523
13891TIP3    H241617   2.345   7.402   2.536 -0.8397 -0.5427 -0.4656
13892TIP3   OH241618   7.786   1.316   3.100 -0.2975  0.3951  0.0793
13892TIP3    H141619   7.816   1.395   3.145 -0.6707  0.2536  0.5806
13892TIP3    H241620   7.796   1.246   3.164 -1.6904  0.3386  0.2681
13893TIP3   OH241621   7.720   0.026   0.774 -0.0236 -0.6360  0.0639
13893TIP3    H141622   7.734   0.104   0.721 -2.3389 -0.6311 -0.6521
13893TIP3    H241623   7.718   0.058   0.864 -3.0248  0.5903 -0.3228
13894TIP3   OH241624   7.882   7.078   0.771 -0.4757 -0.5061 -0.1020
13894TIP3    H141625   7.846   7.008   0.718  0.5049  0.5462 -2.2915
13894TIP3    H241626   7.896   7.150   0.710 -0.0479  1.0896  1.7612
13895TIP3   OH241627   5.950   4.364   2.899 -0.0993  0.2322  0.3990
13895TIP3    H141628   5.880   4.364   2.965 -0.5080 -0.4122 -0.0267
13895TIP3    H241629   5.933   4.287   2.845  0.7382  0.2679  0.0668
13896TIP3   OH241630   5.313   5.629   2.839 -0.1305 -0.4765 -0.0827
13896TIP3    H141631   5.260   5.705   2.863  0.2783 -0.2565  0.1173
13896TIP3    H241632   5.328   5.582   2.921  2.0397  0.7655  0.2983
13897TIP3   OH241633   2.628   3.252   1.125  0.3501 -0.5611 -0.0058
13897TIP3    H141634   2.572   3.328   1.112  0.1864 -0.6430  0.2071
13897TIP3    H241635   2.716   3.282   1.101  0.2197 -0.4263 -0.3228
13898TIP3   OH241636   7.866   4.132   0.327  0.4274  0.0500 -0.5749
13898TIP3    H141637   7.854   4.097   0.239  0.8745 -2.9401  0.4499
13898TIP3    H241638   7.956   4.110   0.350  0.4264  1.0840  0.5144
13899TIP3   OH241639   7.526   0.291   5.330  0.8148  0.1131  0.2394
13899TIP3    H141640   7.455   0.301   5.393  0.0184  1.4931 -0.8333
13899TIP3    H241641   7.601   0.336   5.371  0.8855 -0.6840  1.0294
13900TIP3   OH241642   3.558  -0.029   6.065  0.1087  0.5665  0.5483
13900TIP3    H141643   3.531  -0.004   5.977 -1.5525  0.9848  1.1293
13900TIP3    H241644   3.594   0.051   6.103 -0.1354  0.6616  0.5827
13901TIP3   OH241645   0.362   4.057   2.374 -0.4028  0.3045  0.0964
13901TIP3    H141646   0.321   4.028   2.455  0.7455 -2.9480 -0.3366
13901TIP3    H241647   0.453   4.073   2.397 -0.3056  0.4424 -0.3590
13902TIP3   OH241648   4.580   7.120   4.702 -0.0855 -0.3768  0.2055
13902TIP3    H141649   4.574   7.025   4.704  2.4430 -0.6072  0.0300
13902TIP3    H241650   4.512   7.150   4.763  1.1020 -2.4461  2.7583
13903TIP3   OH241651   7.617   7.335   4.721 -0.0346  0.0151  0.1361
13903TIP3    H141652   7.674   7.355   4.796  1.0755 -2.3981  0.0251
13903TIP3    H241653   7.676   7.295   4.657 -1.6493 -1.6081 -0.3981
13904TIP3   OH241654   5.294   1.650   5.126  0.2718 -0.9988  0.1953
13904TIP3    H141655   5.231   1.691   5.068  0.5531 -1.3955 -0.3989
13904TIP3    H241656   5.254   1.655   5.213  0.7079  1.3645  0.3208
13905TIP3   OH241657   0.521   1.705   1.969 -0.5937  0.0492 -0.6821
13905TIP3    H141658   0.465   1.780   1.988 -0.3829  0.2249 -0.7458
13905TIP3    H241659   0.609   1.735   1.991 -0.6025 -0.4549  0.0968
13906TIP3   OH241660   2.448   3.361   1.664  0.1632 -0.2878  0.3909
13906TIP3    H141661   2.373   3.305   1.645  0.0743  0.5172 -1.8459
13906TIP3    H241662   2.506   3.352   1.589 -0.1798  3.0993 -0.4429
13907TIP3   OH241663   0.104   6.682   6.067  0.3753  0.2242 -0.2702
13907TIP3    H141664   0.187   6.645   6.037 -0.1945 -1.6550  0.3262
13907TIP3    H241665   0.127   6.728   6.148  0.6560 -1.6534  0.7918
13908TIP3   OH241666   3.394   2.574   3.057 -0.4475  0.0821 -0.1553
13908TIP3    H141667   3.397   2.565   3.152 -1.2440  2.4957  0.1769
13908TIP3    H241668   3.301   2.569   3.035 -0.3449  0.3796 -0.6820
13909TIP3   OH241669   6.769   3.063   2.084 -0.6513 -0.0855  0.5052
13909TIP3    H141670   6.760   2.969   2.096  2.5107 -0.2726  2.5865
13909TIP3    H241671   6.765   3.100   2.172  1.8493  1.2199  0.1773
13910TIP3   OH241672   2.714   5.204   2.495  0.7562 -0.1727 -0.5136
13910TIP3    H141673   2.636   5.205   2.551  0.9356 -4.4318  0.1617
13910TIP3    H241674   2.679   5.190   2.407  0.6503 -1.6010 -0.2737
13911TIP3   OH241675   7.023   4.334   2.941 -0.2364  0.0728 -0.1792
13911TIP3    H141676   7.109   4.367   2.917  0.9798 -1.7331  1.3788
13911TIP3    H241677   7.011   4.256   2.887 -0.7493  0.1243 -0.1439
13912TIP3   OH241678   6.338   1.715   1.072 -0.2071  0.2660 -0.1278
13912TIP3    H141679   6.323   1.704   0.979 -1.6560  0.4585  0.0572
13912TIP3    H241680   6.403   1.649   1.095  0.0870  0.1600 -1.2522
13913TIP3   OH241681   1.174   6.100   1.618  0.2160  0.0890  0.0663
13913TIP3    H141682   1.158   6.065   1.530  0.4047  0.1798 -0.0067
13913TIP3    H241683   1.107   6.166   1.630 -0.0323 -0.1731  0.1333
13914TIP3   OH241684   3.237   1.513   3.637 -0.7548  0.1549 -0.3313
13914TIP3    H141685   3.168   1.447   3.645 -0.3109 -0.2827 -0.0077
13914TIP3    H241686   3.318   1.462   3.631 -0.3491  0.6856  0.5080
13915TIP3   OH241687   5.145   5.482   0.090  0.2292 -0.5564 -0.5257
13915TIP3    H141688   5.065   5.516   0.049  0.4150 -0.9384 -1.2329
13915TIP3    H241689   5.188   5.559   0.127 -0.8928 -0.4620  0.6390
13916TIP3   OH241690   6.398   1.110   4.891  1.1165  0.1104 -0.1137
13916TIP3    H141691   6.381   1.029   4.843 -1.4756  0.0339  0.7788
13916TIP3    H241692   6.386   1.087   4.983 -1.3793  1.7999  0.0673
13917TIP3   OH241693   6.830   5.835   6.690 -0.0792  0.0489  0.4839
13917TIP3    H141694   6.755   5.877   6.649  1.3327  3.0692  0.6651
13917TIP3    H241695   6.894   5.826   6.620  0.4385  0.3294  0.9100
13918TIP3   OH241696   2.697   5.401   5.208  0.6962  0.5921 -0.1611
13918TIP3    H141697   2.633   5.423   5.141  0.6329  1.6175  0.2111
13918TIP3    H241698   2.781   5.400   5.163  0.4877 -0.2125 -0.5422
13919TIP3   OH241699   3.567   3.668   1.866  0.4535  0.5613 -0.3549
13919TIP3    H141700   3.478   3.658   1.901 -0.6156  1.3556 -2.6039
13919TIP3    H241701   3.619   3.699   1.940 -1.8593  3.0978  0.3683
13920TIP3   OH241702   3.700   4.759   2.915 -0.1877  0.0487  0.5280
13920TIP3    H141703   3.741   4.679   2.882  1.1479  0.8528  0.1483
13920TIP3    H241704   3.664   4.734   3.000  0.4071 -0.8949  0.5236
13921TIP3   OH241705   0.830   5.295   1.658  0.7660  0.2351 -0.0450
13921TIP3    H141706   0.907   5.253   1.695  0.4794  0.5707  0.9617
13921TIP3    H241707   0.847   5.298   1.564  2.0790  0.5067  0.1866
13922TIP3   OH241708   6.180   4.031   2.351 -0.2156  0.8098 -0.3096
13922TIP3    H141709   6.187   4.049   2.258  2.7820  1.3637 -0.0714
13922TIP3    H241710   6.191   4.116   2.393 -0.6985  0.4529  0.5683
13923TIP3   OH241711   3.287   2.490   4.658 -0.3086 -0.4283  0.4560
13923TIP3    H141712   3.247   2.571   4.689  0.8696  0.6894 -0.8495
13923TIP3    H241713   3.359   2.518   4.601  0.3508 -2.3867  0.2445
13924TIP3   OH241714   0.439   3.321   2.124 -0.1070 -0.0807 -0.5681
13924TIP3    H141715   0.362   3.321   2.067 -0.9554 -2.4865  0.4489
13924TIP3    H241716   0.511   3.347   2.067 -1.5093  1.3971 -1.7644
13925TIP3   OH241717   6.025   1.030   4.511 -0.5540 -0.0419  0.3971
13925TIP3    H141718   6.042   1.113   4.468  0.1135 -0.8489 -0.9560
13925TIP3    H241719   6.075   1.035   4.593  1.0258  0.1914 -0.5234
13926TIP3   OH241720   3.506   4.867   3.441 -0.9823 -0.6010 -0.0706
13926TIP3    H141721   3.493   4.773   3.444 -1.3916 -0.5064  1.4197
13926TIP3    H241722   3.547   4.889   3.524 -0.5042  0.4898 -0.5704
13927TIP3   OH241723   7.984   1.516   6.032  0.4804 -0.2122 -0.0981
13927TIP3    H141724   7.917   1.499   5.965  0.0272 -0.6120  0.4498
13927TIP3    H241725   7.944   1.582   6.089  0.0786 -1.2736  0.8881
13928TIP3   OH241726   3.684   5.701   1.958 -0.3001  0.0997  0.0796
13928TIP3    H141727   3.608   5.758   1.943 -1.0818 -0.6601  0.9862
13928TIP3    H241728   3.737   5.749   2.022 -0.8658 -0.0934  0.7048
13929TIP3   OH241729   2.707   5.505   2.532  0.0843  0.2380 -0.0079
13929TIP3    H141730   2.697   5.409   2.529 -1.8880  0.3091  1.7779
13929TIP3    H241731   2.749   5.521   2.617 -0.3486  0.9810  0.0715
13930TIP3   OH241732   6.915   5.884   0.841 -0.0914 -0.1322 -0.1934
13930TIP3    H141733   6.861   5.829   0.784  1.2009 -0.1192 -1.5148
13930TIP3    H241734   7.004   5.852   0.827  0.2088 -0.6948  2.5354
13931TIP3   OH241735   4.722   1.091   4.336 -0.0246 -0.3303  0.2521
13931TIP3    H141736   4.727   0.997   4.353  1.2209 -0.5951 -1.3714
13931TIP3    H241737   4.810   1.123   4.355  0.4432 -0.0590 -2.1545
13932TIP3   OH241738   2.184   0.543   1.656 -0.1456 -0.3723 -0.1966
13932TIP3    H141739   2.159   0.602   1.727  2.2879  0.3081  0.1911
13932TIP3    H241740   2.108   0.488   1.643 -1.2285  0.5100  1.8924
13933TIP3   OH241741   7.053   2.657   6.796 -0.1075 -0.2709  0.4480
13933TIP3    H141742   6.991   2.602   6.750  0.2167  0.1877 -0.5607
13933TIP3    H241743   7.135   2.646   6.748 -0.1133  1.3329  0.0086
13934TIP3   OH241744   4.155   5.401   3.238 -0.0172  0.7167  1.1852
13934TIP3    H141745   4.102   5.461   3.292 -0.1432  1.6970  0.0109
13934TIP3    H241746   4.233   5.385   3.290  0.1089  2.0775  1.4509
13935TIP3   OH241747   0.104   5.166   2.003 -0.0905 -0.7817 -0.4978
13935TIP3    H141748   0.059   5.211   1.931  1.7324  1.0259 -0.6031
13935TIP3    H241749   0.190   5.144   1.968  0.5200 -0.6324  0.8444
13936TIP3   OH241750   5.252   6.730   4.610  0.2714 -0.1109  0.4557
13936TIP3    H141751   5.157   6.727   4.601  0.4395  0.3011 -3.1953
13936TIP3    H241752   5.268   6.790   4.682 -2.2761  1.8511 -0.4640
13937TIP3   OH241753   4.456   1.788   6.253 -0.5330  0.4783 -0.1568
13937TIP3    H141754   4.400   1.715   6.226 -0.2396 -0.1957  0.9766
13937TIP3    H241755   4.395   1.856   6.283 -0.7821 -0.2537  1.0829
13938TIP3   OH241756   4.619   0.589   5.180  0.6961  0.5242 -0.0558
13938TIP3    H141757   4.690   0.569   5.119  0.5003  1.4912 -0.6265
13938TIP3    H241758   4.555   0.637   5.127 -0.5361 -0.5961  0.3659
13939TIP3   OH241759   4.130   5.190   4.296 -0.2133  0.7254 -0.0550
13939TIP3    H141760   4.154   5.231   4.213  1.0704 -0.9098 -0.5567
13939TIP3    H241761   4.201   5.214   4.355 -1.3297  2.2227  0.7265
13940TIP3   OH241762   0.629   5.360   0.994  0.3429  0.0052  0.5283
13940TIP3    H141763   0.540   5.325   0.990  0.6892 -0.7166 -1.3348
13940TIP3    H241764   0.685   5.286   0.974  1.2495  0.9253 -0.4084
13941TIP3   OH241765   2.960   4.287   3.084  0.3057  0.5394  0.3218
13941TIP3    H141766   3.028   4.219   3.090 -0.4336 -0.1390  1.3666
13941TIP3    H241767   2.947   4.298   2.989 -0.3141 -1.6013  0.0858
13942TIP3   OH241768   6.097   4.181   1.539  0.5235  0.0069  0.3791
13942TIP3    H141769   6.093   4.168   1.444 -1.1490 -0.4370  0.4790
13942TIP3    H241770   6.082   4.094   1.575  0.0573  0.3589  1.0487
13943TIP3   OH241771   7.910   4.827   5.983 -0.3236 -0.5575 -0.1964
13943TIP3    H141772   7.830   4.834   6.036  1.1828 -1.7710  2.4153
13943TIP3    H241773   7.928   4.733   5.979  0.7837 -0.3269 -1.0536
13944TIP3   OH241774   4.848   6.735   5.655 -0.2908  0.2663 -0.3626
13944TIP3    H141775   4.767   6.739   5.706 -0.7292 -0.4032 -0.9886
13944TIP3    H241776   4.849   6.817   5.605  0.6180  1.3756  1.3852
13945TIP3   OH241777   3.261   6.196   5.693  0.0835 -0.2221 -0.3711
13945TIP3    H141778   3.342   6.145   5.693 -0.5905 -1.4204 -2.6493
13945TIP3    H241779   3.274   6.261   5.625 -0.4445  0.3330  0.0548
13946TIP3   OH241780   1.943   6.932   4.321  0.3486 -0.4035 -0.1137
13946TIP3    H141781   2.037   6.940   4.336  0.0781  0.2602  1.4959
13946TIP3    H241782   1.917   7.015   4.282  0.3939 -0.5008 -0.3514
13947TIP3   OH241783   3.187   5.918   1.526 -0.5687 -0.0122  0.1404
13947TIP3    H141784   3.144   5.838   1.499  1.3699 -1.6539  1.5999
13947TIP3    H241785   3.278   5.893   1.544  0.3663  2.7035 -0.2152
13948TIP3   OH241786   8.065   7.113   1.538  0.2134  0.1914  0.0973
13948TIP3    H141787   7.994   7.142   1.595 -0.1443  0.0295 -0.2667
13948TIP3    H241788   8.080   7.022   1.562  0.5411  0.3278  0.4210
13949TIP3   OH241789   5.791   6.311   2.956  0.0341  0.1579 -0.3720
13949TIP3    H141790   5.779   6.391   3.006  0.3543  0.1205 -0.2333
13949TIP3    H241791   5.789   6.241   3.021  0.2532  0.0939 -0.4298
13950TIP3   OH241792   2.902   0.349   1.480 -0.3235 -0.0678  0.0429
13950TIP3    H141793   2.900   0.376   1.572  2.1816  2.7710 -0.5723
13950TIP3    H241794   2.849   0.415   1.435 -2.0750 -1.7977 -0.5809
13951TIP3   OH241795   0.752   2.610   1.748  0.4817  0.1713 -0.4054
13951TIP3    H141796   0.809   2.667   1.799  0.0472 -0.5536  0.9278
13951TIP3    H241797   0.811   2.545   1.709  0.6894  0.0301  0.1370
13952TIP3   OH241798   5.071   0.745   5.780 -0.2751 -0.2062 -0.3468
13952TIP3    H141799   5.005   0.774   5.717 -0.3143 -0.1701 -0.2890
13952TIP3    H241800   5.051   0.793   5.860 -0.2871 -0.3278 -0.2764
13953TIP3   OH241801   6.816   1.661   1.664  0.2389 -0.0330  0.0818
13953TIP3    H141802   6.907   1.692   1.657  0.5744 -0.6471  1.3774
13953TIP3    H241803   6.780   1.673   1.577  1.8857 -0.7187 -0.7535
13954TIP3   OH241804   6.261   3.161   3.068  0.6034 -0.0881 -0.1447
13954TIP3    H141805   6.270   3.186   3.160  1.5033 -0.5702 -0.0874
13954TIP3    H241806   6.183   3.104   3.066 -0.1694  0.9338  0.0851
13955TIP3   OH241807   5.049   0.229   2.465  0.0672 -0.0890  0.1076
13955TIP3    H141808   4.963   0.261   2.439  0.5097  0.7883 -0.3314
13955TIP3    H241809   5.054   0.246   2.559 -0.2364 -0.1536  0.1364
13956TIP3   OH241810   1.027   1.048   2.674 -0.7957  0.0282 -0.1606
13956TIP3    H141811   1.068   1.109   2.612  1.1867 -0.4339  0.6183
13956TIP3    H241812   0.996   1.104   2.745 -0.5871  0.2916 -0.2749
13957TIP3   OH241813   4.456   7.770   6.425 -0.7083 -0.0876  0.2507
13957TIP3    H141814   4.438   7.716   6.502  4.4302 -1.6286  0.7530
13957TIP3    H241815   4.438   7.712   6.350 -2.0358  0.0660  0.4370
13958TIP3   OH241816   0.626   3.746   5.293  0.1906  0.2276  0.1907
13958TIP3    H141817   0.689   3.803   5.250  0.1851 -0.2446 -0.4632
13958TIP3    H241818   0.667   3.660   5.292  0.2450  0.2253  1.2637
13959TIP3   OH241819   7.289   7.136   1.711 -0.1388 -0.3751  0.0747
13959TIP3    H141820   7.373   7.175   1.736  0.0020 -0.4524 -0.2811
13959TIP3    H241821   7.308   7.085   1.632 -1.1760  2.3759 -2.0999
13960TIP3   OH241822   6.523   4.198   0.458  0.3428 -0.0698 -0.3487
13960TIP3    H141823   6.463   4.123   0.455  0.2720 -0.0913  0.8562
13960TIP3    H241824   6.499   4.251   0.382 -2.1669  0.6137  0.7972
13961TIP3   OH241825   2.344   3.585   1.361  0.3885  0.1364 -0.0246
13961TIP3    H141826   2.355   3.541   1.277  1.5705  0.8741 -0.2819
13961TIP3    H241827   2.261   3.552   1.395  0.8374 -1.6645 -0.5690
13962TIP3   OH241828   2.409   1.627   1.104  0.1211 -0.3072 -0.2054
13962TIP3    H141829   2.401   1.654   1.196  1.8286 -0.9102  0.1616
13962TIP3    H241830   2.455   1.544   1.108 -0.1931 -0.5638 -1.6012
13963TIP3   OH241831   1.243   7.311   3.033  0.6955 -0.1040  0.5599
13963TIP3    H141832   1.181   7.238   3.025  0.7968 -0.4345  2.3913
13963TIP3    H241833   1.200   7.373   3.091  0.1929  1.8252 -1.7268
13964TIP3   OH241834   5.948   0.775   5.648 -0.5005 -0.1523  0.2350
13964TIP3    H141835   6.026   0.826   5.670  1.0885 -2.4739  0.3520
13964TIP3    H241836   5.909   0.752   5.732  1.4482 -2.9148  0.5056
13965TIP3   OH241837   3.401   3.322   3.470  0.2360  0.4644  0.4584
13965TIP3    H141838   3.328   3.355   3.523  0.4041  0.9972  0.3679
13965TIP3    H241839   3.472   3.309   3.532  0.4109  1.0211  0.3821
13966TIP3   OH241840   0.151   7.598   4.346 -0.0576  0.0675 -0.5190
13966TIP3    H141841   0.100   7.544   4.406 -1.9767  1.1492 -1.0833
13966TIP3    H241842   0.151   7.685   4.387 -0.2053  0.4939 -1.3905
13967TIP3   OH241843   3.998   3.013   1.490  0.6240  0.3749 -0.1066
13967TIP3    H141844   4.047   2.937   1.524  0.7710  0.1647 -0.7808
13967TIP3    H241845   3.997   3.075   1.563 -1.3900 -1.1169  1.2502
13968TIP3   OH241846   0.081   7.802   0.072  0.2306  0.5821 -0.0261
13968TIP3    H141847   0.055   7.814   0.164  2.7998  0.0334  0.8577
13968TIP3    H241848   0.171   7.833   0.069  0.5867 -0.5185 -2.1018
13969TIP3   OH241849   3.140   0.697   6.692 -0.0729  0.2222  0.0864
13969TIP3    H141850   3.190   0.774   6.718  0.6055  0.0151 -0.5575
13969TIP3    H241851   3.196   0.653   6.628  0.2557 -1.6446  1.5661
13970TIP3   OH241852   5.003   6.201   0.298  0.0296 -0.1628  0.2923
13970TIP3    H141853   4.923   6.181   0.249 -0.4500  0.5376  0.7616
13970TIP3    H241854   4.980   6.185   0.389 -0.3451  2.2712  0.6811
13971TIP3   OH241855   7.445   7.345   6.548 -0.0273  0.3984 -0.2194
13971TIP3    H141856   7.471   7.272   6.492 -1.2979 -0.5076  0.3366
13971TIP3    H241857   7.462   7.314   6.637 -1.3076  0.4518  0.0620
13972TIP3   OH241858   3.425   0.111   0.570  0.4445 -0.0680  0.1654
13972TIP3    H141859   3.482   0.074   0.503 -1.3687  0.7923 -1.9822
13972TIP3    H241860   3.485   0.141   0.639  2.2258 -2.9343  0.0165
13973TIP3   OH241861   4.788   1.337   6.323  0.4193 -0.3673  0.0744
13973TIP3    H141862   4.818   1.263   6.376 -0.2717 -0.6771  0.0443
13973TIP3    H241863   4.694   1.343   6.341  0.2846 -0.1140 -0.6794
13974TIP3   OH241864   6.138   1.874   0.191  0.6440  0.1931  0.5755
13974TIP3    H141865   6.145   1.829   0.107  2.1254  0.3095  0.6239
13974TIP3    H241866   6.164   1.809   0.256 -1.8313 -0.3598  1.1521
13975TIP3   OH241867   4.798   7.717   6.415  0.2129  0.0405 -0.4172
13975TIP3    H141868   4.770   7.650   6.354  0.7219  0.8429 -1.5779
13975TIP3    H241869   4.892   7.728   6.398 -0.2210  2.4832 -1.7922
13976TIP3   OH241870   0.097   6.611   1.366  0.0208  0.2571  0.1765
13976TIP3    H141871   0.120   6.546   1.300  1.3419 -0.2209  1.0644
13976TIP3    H241872   0.024   6.572   1.413 -1.6618  1.0610 -1.6200
13977TIP3   OH241873   0.109   6.347   1.217  0.2605 -0.4082  0.7771
13977TIP3    H141874   0.054   6.332   1.140  0.0015 -0.2546  0.9275
13977TIP3    H241875   0.099   6.268   1.269  1.6094 -1.1538 -0.0311
13978TIP3   OH241876   6.822   4.988   0.115  0.9214  0.1296  0.1951
13978TIP3    H141877   6.878   4.912   0.101  1.4195  0.3534  0.8589
13978TIP3    H241878   6.858   5.029   0.195 -0.9476 -0.4228  1.3835
13979TIP3   OH241879   0.826   1.229   5.137  0.2317  0.2142 -0.3988
13979TIP3    H141880   0.815   1.303   5.077  0.5346  1.0568  0.5525
13979TIP3    H241881   0.764   1.163   5.105 -2.1166  1.9290  0.3516
13980TIP3   OH241882   4.362   2.095   5.910  0.2297 -0.0094 -0.1924
13980TIP3    H141883   4.433   2.125   5.967  0.2957 -0.3259 -0.1043
13980TIP3    H241884   4.329   2.016   5.953 -0.9573  0.7690  0.4003
13981TIP3   OH241885   7.501   2.493   3.013 -0.1817 -0.2996 -0.2071
13981TIP3    H141886   7.521   2.585   2.995 -1.0686  0.0228  0.3632
13981TIP3    H241887   7.408   2.493   3.037  0.1632 -1.1351  1.2465
13982TIP3   OH241888   7.525   5.357   0.802 -0.5277 -0.1072 -0.1161
13982TIP3    H141889   7.531   5.446   0.839 -0.2590 -0.8699  1.7733
13982TIP3    H241890   7.616   5.330   0.791 -0.6080 -0.4684  0.1123
13983TIP3   OH241891   8.291   2.182   5.120 -0.7201 -0.2774 -0.3379
13983TIP3    H141892   8.223   2.177   5.187  0.3529 -1.0653  0.7414
13983TIP3    H241893   8.299   2.275   5.101 -1.4305 -0.0919  0.2234
13984TIP3   OH241894   2.583   3.262   3.482  0.0223 -0.0813 -0.0441
13984TIP3    H141895   2.596   3.340   3.429 -1.9969  0.6868  0.4726
13984TIP3    H241896   2.583   3.293   3.572 -0.2670 -0.7506  0.1970
13985TIP3   OH241897   7.219   0.957   2.283 -0.5420 -0.7722 -0.4099
13985TIP3    H141898   7.132   0.998   2.280 -0.3423 -0.2893  0.1099
13985TIP3    H241899   7.271   1.016   2.338  0.1922 -0.9239 -0.9335
13986TIP3   OH241900   0.787   0.924   3.942 -0.7295 -0.4015  0.2760
13986TIP3    H141901   0.711   0.964   3.985 -1.6798 -1.9932  0.1790
13986TIP3    H241902   0.854   0.921   4.011 -0.1789  2.3683 -0.0486
13987TIP3   OH241903   6.587   1.221   0.433  0.3315  0.3954 -0.2110
13987TIP3    H141904   6.679   1.246   0.444  0.4130  0.5653 -1.1828
13987TIP3    H241905   6.591   1.128   0.407  0.2440  0.4713 -0.4964
13988TIP3   OH241906   2.096   1.356   5.236  0.4666 -0.4526  0.6404
13988TIP3    H141907   2.023   1.417   5.233  2.6217  2.2935 -0.2887
13988TIP3    H241908   2.092   1.319   5.325 -2.7275 -1.4743  0.1875
13989TIP3   OH241909   8.195   7.596   1.203  0.1153  0.1938  0.8983
13989TIP3    H141910   8.200   7.509   1.165  1.3275  0.0783  1.2987
13989TIP3    H241911   8.169   7.653   1.130  0.1353 -0.3700  0.4496
13990TIP3   OH241912   2.020   0.685   6.349  0.1382  0.5470  0.0498
13990TIP3    H141913   2.019   0.701   6.444 -1.1745  0.0155  0.1422
13990TIP3    H241914   2.041   0.592   6.340  0.7860  0.7128 -0.2135
13991TIP3   OH241915   5.078   2.920   5.767 -0.0424 -0.1122 -0.5438
13991TIP3    H141916   5.084   2.901   5.861  1.4458 -1.0860 -0.8033
13991TIP3    H241917   5.060   3.013   5.762 -0.2584 -0.0707  0.7169
13992TIP3   OH241918   7.834   0.927   5.364  0.0728  0.3439 -0.8039
13992TIP3    H141919   7.888   0.885   5.431  0.2287  1.8192  0.0469
13992TIP3    H241920   7.897   0.961   5.301 -0.0008  0.1343 -0.9927
13993TIP3   OH241921   3.430   3.028   6.670 -0.4768  0.0752 -0.0201
13993TIP3    H141922   3.504   2.982   6.630 -0.3941 -1.1777  1.4604
13993TIP3    H241923   3.355   3.001   6.618 -0.2445 -0.7186  0.0403
13994TIP3   OH241924   2.980   7.625   2.981 -0.5347 -0.1866 -0.1286
13994TIP3    H141925   2.904   7.594   3.030 -0.7904  0.4876 -0.0965
13994TIP3    H241926   3.004   7.551   2.925  0.3337 -1.3332  1.6701
13995TIP3   OH241927   6.899   3.454   0.799  0.3025 -0.0924 -0.2575
13995TIP3    H141928   6.947   3.531   0.766 -1.3472  0.4326 -1.5552
13995TIP3    H241929   6.966   3.401   0.841  1.7363  1.4038 -0.5347
13996TIP3   OH241930   6.228   6.378   2.412  0.2380  0.2920 -0.5663
13996TIP3    H141931   6.248   6.373   2.318 -1.2566 -0.6640 -0.8732
13996TIP3    H241932   6.238   6.287   2.443 -2.2827 -0.0270 -0.5044
13997TIP3   OH241933   1.263   4.624   2.574 -0.2983 -0.3260 -0.1057
13997TIP3    H141934   1.290   4.665   2.656 -0.8012 -0.0487 -0.0764
13997TIP3    H241935   1.195   4.562   2.599  0.6842 -1.4568 -0.1020
13998TIP3   OH241936   7.692   2.288   2.510 -0.0476 -0.6297 -0.1355
13998TIP3    H141937   7.603   2.281   2.475 -0.5841  0.1239  1.0236
13998TIP3    H241938   7.746   2.302   2.433 -1.1649  0.7091 -0.7424
13999TIP3   OH241939   6.288   2.264   2.752 -0.4089 -0.4983  0.9477
13999TIP3    H141940   6.220   2.199   2.769  0.2912 -1.6974 -0.5537
13999TIP3    H241941   6.367   2.227   2.792 -0.6734  1.0864  3.0572
14000TIP3   OH241942   3.260   4.594   5.937  0.3462  0.2440  0.2137
14000TIP3    H141943   3.203   4.668   5.956  0.0884  0.1477 -0.1987
14000TIP3    H241944   3.210   4.517   5.964 -0.4201  0.0255 -1.7390
14001TIP3   OH241945   1.852   3.508   0.967 -0.2268  0.7441  0.5552
14001TIP3    H141946   1.783   3.529   0.904 -1.3272  0.0994  1.5101
14001TIP3    H241947   1.926   3.482   0.914 -2.2119 -3.4913 -0.6028
14002TIP3   OH241948   4.329   5.699   2.318  0.0791 -0.1433  0.9731
14002TIP3    H141949   4.258   5.761   2.308  0.4074  0.0833 -0.1083
14002TIP3    H241950   4.287   5.616   2.339 -0.6097 -0.2818 -0.8148
14003TIP3   OH241951   8.175   6.335   3.777  0.6993 -0.0647  0.6233
14003TIP3    H141952   8.268   6.354   3.761  0.6229  0.6708  1.0007
14003TIP3    H241953   8.156   6.377   3.861  0.1204 -0.5442  0.7371
14004TIP3   OH241954   2.179   1.579   3.079 -0.2014  0.3126  0.6602
14004TIP3    H141955   2.182   1.484   3.071 -0.0282  0.3002  0.8798
14004TIP3    H241956   2.102   1.605   3.028 -0.9963 -0.0585  1.6465
14005TIP3   OH241957   7.350   5.026   4.979 -0.3066  0.1139 -0.2751
14005TIP3    H141958   7.300   4.946   4.991 -0.4163  0.0390 -1.1118
14005TIP3    H241959   7.328   5.080   5.055  0.1953 -0.8529  0.5751
14006TIP3   OH241960   7.721   6.449   0.911 -0.1239  0.0762 -0.5315
14006TIP3    H141961   7.645   6.479   0.960  0.0472 -0.2365 -0.0622
14006TIP3    H241962   7.793   6.451   0.974  0.1435 -0.1386 -0.8236
14007TIP3   OH241963   2.952   5.844   0.754  0.0417 -0.1311 -0.1324
14007TIP3    H141964   2.928   5.885   0.838 -0.4731 -1.5858  0.4619
14007TIP3    H241965   3.016   5.777   0.778  0.3564 -0.1522 -1.0046
14008TIP3   OH241966   3.720   5.450   4.396 -0.4396 -0.7348 -0.0628
14008TIP3    H141967   3.736   5.544   4.399 -1.8849 -0.4463 -0.5324
14008TIP3    H241968   3.736   5.420   4.485  0.7193 -0.1761 -0.0657
14009TIP3   OH241969   4.863   3.025   0.936 -0.2056 -0.2713 -0.1326
14009TIP3    H141970   4.856   3.112   0.976  1.2034 -0.8867  1.6148
14009TIP3    H241971   4.914   2.974   0.999 -1.0755 -2.4115 -1.0675
14010TIP3   OH241972   5.836   1.116   4.226 -0.3325 -0.1368 -0.2717
14010TIP3    H141973   5.854   1.023   4.239 -0.8800 -0.0826  1.0119
14010TIP3    H241974   5.741   1.121   4.216 -0.3302  0.3121 -0.0915
14011TIP3   OH241975   2.876   0.757   5.405  0.5223  0.1946  0.0584
14011TIP3    H141976   2.837   0.762   5.493  1.3708 -0.8917  0.5318
14011TIP3    H241977   2.958   0.805   5.413  0.5251  0.2300 -0.1855
14012TIP3   OH241978   5.266   4.507   6.689  0.5238  0.2323 -0.7940
14012TIP3    H141979   5.310   4.422   6.695 -1.2618 -0.8078 -1.5510
14012TIP3    H241980   5.306   4.548   6.613  2.0387  0.4916  0.1074
14013TIP3   OH241981   1.343   7.484   0.500  0.3846 -0.0286 -0.0853
14013TIP3    H141982   1.337   7.546   0.574 -1.0948 -0.2870  0.0363
14013TIP3    H241983   1.275   7.512   0.440  0.0055 -1.2672 -0.2467
14014TIP3   OH241984   0.735   1.407   4.174  0.2912 -0.1527 -0.1078
14014TIP3    H141985   0.727   1.500   4.196  0.7657 -0.6203  2.2622
14014TIP3    H241986   0.818   1.380   4.214 -1.1485 -2.2049  1.7442
14015TIP3   OH241987   2.770   5.533   1.853  0.3434 -0.1274  0.6731
14015TIP3    H141988   2.704   5.602   1.865 -0.5791 -0.8479 -0.1019
14015TIP3    H241989   2.838   5.574   1.800  2.2698  1.6923  4.1591
14016TIP3   OH241990   7.453   2.270   3.256 -0.5312  0.3627  0.0724
14016TIP3    H141991   7.515   2.256   3.185 -1.2338 -2.5772 -0.0955
14016TIP3    H241992   7.455   2.364   3.272  1.7390  0.7347 -1.9035
14017TIP3   OH241993   3.317   2.622   5.882 -0.0850  0.1077  0.0988
14017TIP3    H141994   3.273   2.625   5.968 -1.7484  1.1641 -0.7210
14017TIP3    H241995   3.354   2.534   5.876  0.6734  0.2321  2.1670
14018TIP3   OH241996   1.050   0.236   5.551 -0.3969 -0.1568 -0.0232
14018TIP3    H141997   0.973   0.288   5.576 -1.4624 -1.7457  0.1570
14018TIP3    H241998   1.098   0.292   5.490 -0.7765  1.5497  1.1561
14019TIP3   OH241999   6.625   3.311   4.920  0.3740  0.1050  0.1470
14019TIP3    H142000   6.601   3.270   4.837  0.3342 -0.4589  0.4337
14019TIP3    H242001   6.649   3.401   4.897 -0.8352  0.3212 -0.3134
14020TIP3   OH242002   5.689   0.418   5.502 -0.0348  0.5154 -0.8883
14020TIP3    H142003   5.667   0.342   5.449  0.3292  0.4392 -0.9310
14020TIP3    H242004   5.709   0.487   5.438 -0.4895  0.6894 -0.8512
14021TIP3   OH242005   0.056   2.407   4.101 -0.2334 -0.0811  0.1536
14021TIP3    H142006   0.086   2.443   4.184  0.7294  0.7233 -0.5291
14021TIP3    H242007  -0.038   2.394   4.114 -0.7573  3.1602  0.2894
14022TIP3   OH242008   1.826   5.098   3.895  0.0092 -0.2198  0.0967
14022TIP3    H142009   1.890   5.159   3.859 -0.1008 -0.6621 -0.8795
14022TIP3    H242010   1.796   5.139   3.976 -0.2276  1.1276 -0.6549
14023TIP3   OH242011   2.272   7.390   1.199 -0.6337  0.1327 -0.6554
14023TIP3    H142012   2.197   7.424   1.151 -0.5577  0.0947 -0.8016
14023TIP3    H242013   2.331   7.356   1.131 -0.7911 -0.4571 -0.5040
14024TIP3   OH242014   6.210   7.286   4.612 -0.7567 -0.2371  0.2719
14024TIP3    H142015   6.183   7.359   4.557 -0.2456 -0.2202  0.0448
14024TIP3    H242016   6.131   7.264   4.662 -0.8733  0.5683  0.4602
14025TIP3   OH242017   5.753   0.650   2.133 -0.2920 -0.2872  0.8495
14025TIP3    H142018   5.675   0.610   2.094 -0.2999  0.5167 -0.0015
14025TIP3    H242019   5.721   0.693   2.212 -0.5383 -0.7482  1.0030
14026TIP3   OH242020   7.779   5.559   3.031 -0.0882 -0.0766 -0.6427
14026TIP3    H142021   7.725   5.487   3.060  0.2917 -0.0725  0.1072
14026TIP3    H242022   7.802   5.538   2.941 -0.5056 -0.5737 -0.6327
14027TIP3   OH242023   0.452   2.294   5.389 -0.2054  0.5292  0.7505
14027TIP3    H142024   0.509   2.359   5.347 -1.3338  0.7559 -0.5064
14027TIP3    H242025   0.401   2.258   5.317 -1.0444 -0.2844  1.7286
14028TIP3   OH242026   7.487   3.949   2.978 -0.1695 -0.0704  0.3587
14028TIP3    H142027   7.526   3.917   2.897  3.1775  1.4192  1.2220
14028TIP3    H242028   7.401   3.982   2.952  0.3857 -0.5339 -2.3616
14029TIP3   OH242029   4.606   7.390   0.431 -0.0981  0.7229 -0.1403
14029TIP3    H142030   4.629   7.469   0.479 -0.7009 -0.1213  1.6558
14029TIP3    H242031   4.510   7.390   0.431 -0.1204 -0.4074  0.6574
14030TIP3   OH242032   5.719   4.875   5.051  0.7903  0.3067 -0.1589
14030TIP3    H142033   5.755   4.865   5.139  1.6214  1.0263 -0.4093
14030TIP3    H242034   5.724   4.787   5.014  1.6050  0.2452  0.0789
14031TIP3   OH242035   5.793   6.584   1.683  0.4471  0.2105  0.2696
14031TIP3    H142036   5.864   6.621   1.629  1.0100 -1.8699 -0.4969
14031TIP3    H242037   5.824   6.597   1.773  0.1747  2.3959  0.1074
14032TIP3   OH242038   1.906   3.850   0.675  0.1158  0.1205 -0.3880
14032TIP3    H142039   1.984   3.830   0.623  1.0126 -0.5573  1.1548
14032TIP3    H242040   1.937   3.850   0.766 -1.7511 -0.4685  0.2903
14033TIP3   OH242041   4.944   1.455   4.465  0.4376 -0.1865  0.1346
14033TIP3    H142042   4.911   1.461   4.555 -0.1343 -0.6604 -0.0341
14033TIP3    H242043   4.866   1.470   4.410  0.3543 -1.9136 -0.2732
14034TIP3   OH242044   6.472   6.947   1.687  0.1953  0.2751 -0.2375
14034TIP3    H142045   6.533   6.969   1.757  1.2468 -1.8651 -0.3673
14034TIP3    H242046   6.442   6.858   1.708 -2.1509  0.8962 -0.7156
14035TIP3   OH242047   0.768   6.628   0.705 -0.4042 -0.1945  0.1938
14035TIP3    H142048   0.714   6.707   0.696  0.9571  0.8383  0.7225
14035TIP3    H242049   0.836   6.653   0.767  2.5864 -0.3695 -2.7389
14036TIP3   OH242050   3.921   1.700   6.707  0.0822 -0.6533  0.4955
14036TIP3    H142051   3.876   1.720   6.789  0.8840  0.8932  0.5878
14036TIP3    H242052   4.003   1.749   6.712  0.1615 -0.5607 -1.2112
14037TIP3   OH242053   3.071   1.342   3.232 -0.2603  0.1849 -0.8405
14037TIP3    H142054   3.005   1.315   3.296  1.9833 -0.1318  1.5082
14037TIP3    H242055   3.149   1.293   3.256  0.7283  0.0715 -3.9042
14038TIP3   OH242056   4.332   1.546   2.426  0.0074 -0.0310 -0.4583
14038TIP3    H142057   4.313   1.632   2.389 -0.5843 -0.4483 -1.1470
14038TIP3    H242058   4.425   1.550   2.450  0.0679  0.6808 -0.7878
14039TIP3   OH242059   3.881   6.590   1.581  0.1298 -0.0431  0.1007
14039TIP3    H142060   3.922   6.645   1.648  0.7944 -1.0944  0.5683
14039TIP3    H242061   3.886   6.501   1.616 -2.5354 -0.2417  0.1700
14040TIP3   OH242062   7.735   1.828   5.918 -0.0931  0.4328 -0.4187
14040TIP3    H142063   7.786   1.909   5.923 -0.1651  0.5801 -1.6434
14040TIP3    H242064   7.773   1.771   5.985  1.3843  0.7142 -0.9783
14041TIP3   OH242065   3.775   0.373   3.300 -0.2668  0.6100  0.4966
14041TIP3    H142066   3.855   0.398   3.255 -0.9736  0.9335 -0.6203
14041TIP3    H242067   3.792   0.394   3.392  0.7307  1.1682  0.2027
14042TIP3   OH242068   2.991   5.005   1.782 -0.2676 -0.0067 -0.4130
14042TIP3    H142069   2.964   4.934   1.840  0.5398  0.6726  0.8458
14042TIP3    H242070   2.908   5.043   1.751 -0.7174 -0.4707  0.1906
14043TIP3   OH242071   4.113   3.790   3.516 -0.3836  0.2507  0.3643
14043TIP3    H142072   4.111   3.797   3.420  1.9341 -1.0275  0.1558
14043TIP3    H242073   4.117   3.696   3.533  1.6459  0.4920  1.5660
14044TIP3   OH242074   3.790   5.378   4.153  0.5980 -0.0967  0.3427
14044TIP3    H142075   3.878   5.408   4.128 -0.4254  2.0405 -0.9642
14044TIP3    H242076   3.776   5.417   4.240  0.0615  1.6694 -0.4872
14045TIP3   OH242077   5.202   7.214   1.401 -0.7509 -0.7645  0.0405
14045TIP3    H142078   5.193   7.300   1.442  1.5396  0.0775 -1.0555
14045TIP3    H242079   5.158   7.222   1.317 -1.0354 -0.8455  0.1823
14046TIP3   OH242080   0.903   3.761   5.017  0.3715  0.3875 -0.0028
14046TIP3    H142081   0.934   3.681   4.977 -0.4392 -0.6930  1.4116
14046TIP3    H242082   0.975   3.790   5.073  1.0601  1.2625 -1.2847
14047TIP3   OH242083   0.118   6.023   3.412  0.4431 -0.0001  0.4673
14047TIP3    H142084   0.033   5.981   3.401  0.6727 -1.1723  2.6083
14047TIP3    H242085   0.173   5.985   3.344 -0.8655  1.3209 -1.4301
14048TIP3   OH242086   4.279   4.306   5.570  0.1944 -0.3086 -0.5326
14048TIP3    H142087   4.362   4.303   5.617 -0.8513 -0.6142  1.4109
14048TIP3    H242088   4.221   4.357   5.627 -1.2304 -0.9304 -1.3637
14049TIP3   OH242089   7.444   3.541   1.044 -0.1672  0.2169 -0.4746
14049TIP3    H142090   7.455   3.634   1.062  1.5310  0.1638 -1.0714
14049TIP3    H242091   7.472   3.497   1.124 -0.5656  0.1949 -0.3437
14050TIP3   OH242092   3.833   6.487   6.015 -0.2635  0.0994  0.1030
14050TIP3    H142093   3.892   6.521   5.947 -0.3237 -0.9838 -0.5165
14050TIP3    H242094   3.892   6.449   6.080 -0.1425  2.1935  1.3125
14051TIP3   OH242095   7.911   2.612   2.876  0.0686 -0.0357 -0.1031
14051TIP3    H142096   7.934   2.687   2.821 -0.2278  1.4417  1.7015
14051TIP3    H242097   7.843   2.567   2.827  1.0329  0.1878 -1.7431
14052TIP3   OH242098   2.270   7.148   1.618 -0.6650 -0.3039  0.0378
14052TIP3    H142099   2.244   7.061   1.588 -1.0919 -0.5960  1.1770
14052TIP3    H242100   2.345   7.132   1.676  0.8468  0.3455 -1.6515
14053TIP3   OH242101   0.230   6.802   5.404 -0.7856 -0.0969  0.3973
14053TIP3    H142102   0.167   6.874   5.410 -0.2710  0.2779  1.6353
14053TIP3    H242103   0.315   6.841   5.424 -0.4515 -0.9639  0.7556
14054TIP3   OH242104   6.111   2.761   2.519  0.3603  0.1921  0.6774
14054TIP3    H142105   6.186   2.705   2.497 -0.4638 -0.9800  0.7786
14054TIP3    H242106   6.088   2.735   2.609 -1.7038 -1.2955 -0.1933
14055TIP3   OH242107   0.761   5.929   4.084  0.2282 -0.3640 -0.5089
14055TIP3    H142108   0.761   5.941   4.179 -0.8067  2.0538 -0.7247
14055TIP3    H242109   0.700   5.858   4.068 -0.0351 -0.4020  0.5985
14056TIP3   OH242110   7.015   1.215   6.079  0.2752  0.1030 -0.0487
14056TIP3    H142111   7.020   1.247   6.169  1.7708 -2.1134  0.7571
14056TIP3    H242112   6.940   1.154   6.080  0.2800  0.0925 -0.3099
14057TIP3   OH242113   4.391   4.629   6.372  0.1102  0.7099 -0.6751
14057TIP3    H142114   4.339   4.685   6.431 -0.6705  1.3660 -1.9289
14057TIP3    H242115   4.453   4.584   6.430 -0.9610  0.9270  0.7039
14058TIP3   OH242116   3.178   3.711   5.888  0.0077 -0.3773 -0.5154
14058TIP3    H142117   3.260   3.755   5.864  0.4196 -0.3990  0.7713
14058TIP3    H242118   3.202   3.619   5.899 -0.2760 -0.4554 -0.5466
14059TIP3   OH242119   3.333   1.821   3.053 -0.1163  0.1209 -0.3606
14059TIP3    H142120   3.423   1.811   3.021 -0.5562 -1.7277 -1.1863
14059TIP3    H242121   3.299   1.731   3.058 -0.9513  0.5173  2.9051
14060TIP3   OH242122   2.713   5.984   4.117 -0.6436 -0.7863 -0.2168
14060TIP3    H142123   2.641   5.970   4.178 -0.7611  0.4882 -0.0282
14060TIP3    H242124   2.703   6.075   4.088  0.8355 -0.6015 -0.2500
14061TIP3   OH242125   1.807   2.931   2.692 -0.4509  0.3852  0.4527
14061TIP3    H142126   1.742   2.868   2.724 -0.5524  0.9002  1.2935
14061TIP3    H242127   1.869   2.878   2.643  0.0341 -0.5647  2.0020
14062TIP3   OH242128   0.172   6.939   1.475 -0.9926  0.4641 -0.4549
14062TIP3    H142129   0.155   6.980   1.391 -1.0040  0.6192 -0.3769
14062TIP3    H242130   0.086   6.910   1.506 -0.9489  0.1175 -0.6437
14063TIP3   OH242131   0.408   4.957   3.333  0.0228  0.5299 -0.3057
14063TIP3    H142132   0.461   5.033   3.308  0.0669  0.2450 -1.1234
14063TIP3    H242133   0.318   4.984   3.318 -0.0926  1.0505  1.1835
14064TIP3   OH242134   4.910   3.056   0.047  0.9299 -0.2700  0.4429
14064TIP3    H142135   4.999   3.040   0.016  0.9242 -0.8268  0.6964
14064TIP3    H242136   4.873   3.118  -0.016  2.2706  1.8912  1.6690
14065TIP3   OH242137   2.311   3.368   5.703 -0.0816 -0.4481  0.6421
14065TIP3    H142138   2.369   3.294   5.688 -0.6086 -0.6240 -0.7077
14065TIP3    H242139   2.223   3.331   5.694 -0.3974 -0.0278  1.8506
14066TIP3   OH242140   4.289   4.318   1.911  0.4424 -0.5765  0.1121
14066TIP3    H142141   4.260   4.283   1.827  0.9138 -0.8659  0.0645
14066TIP3    H242142   4.338   4.397   1.888 -0.5809  0.1148  0.2161
14067TIP3   OH242143   2.441   4.146   4.646 -0.0931  0.2546 -0.0063
14067TIP3    H142144   2.407   4.137   4.557 -0.8838  2.6947 -0.0302
14067TIP3    H242145   2.411   4.068   4.692  0.0975 -0.9100 -1.7958
14068TIP3   OH242146   3.799   7.578   0.596  0.1455 -0.7672  0.0130
14068TIP3    H142147   3.733   7.617   0.539  2.0891  1.0277 -1.1380
14068TIP3    H242148   3.806   7.487   0.565  0.2382 -0.1831 -1.7999
14069TIP3   OH242149   2.785   1.006   4.246  0.4767 -0.0376 -0.5927
14069TIP3    H142150   2.800   0.927   4.298 -1.6264 -0.5904 -0.7238
14069TIP3    H242151   2.774   1.075   4.311  0.0349 -0.3067 -0.3754
14070TIP3   OH242152   8.063   4.316   4.601 -0.6204  0.3302  0.3568
14070TIP3    H142153   8.111   4.247   4.555 -0.4739  0.3642  0.4581
14070TIP3    H242154   8.062   4.289   4.692  2.3971  2.0563  1.0445
14071TIP3   OH242155   4.032   2.608   4.807 -0.0050 -0.1214  0.0136
14071TIP3    H142156   4.122   2.577   4.798  0.3161  0.8038 -0.0914
14071TIP3    H242157   4.028   2.646   4.895 -0.2446 -0.0216 -0.0395
14072TIP3   OH242158   1.848   5.950   5.941 -0.3126 -0.0389  0.2516
14072TIP3    H142159   1.762   5.992   5.946 -0.6163 -0.7787  2.0087
14072TIP3    H242160   1.910   6.019   5.965 -0.4837  0.2504 -0.1247
14073TIP3   OH242161   3.634   0.165   4.702 -0.3225 -0.0163  0.7043
14073TIP3    H142162   3.628   0.260   4.704 -0.2167 -0.0158  1.1715
14073TIP3    H242163   3.551   0.134   4.738 -0.3792 -0.1006  0.5012
14074TIP3   OH242164   0.274   4.025   3.969  0.1614  0.0162 -0.4425
14074TIP3    H142165   0.209   4.054   4.033 -2.4162 -1.8927 -2.0493
14074TIP3    H242166   0.296   3.936   3.995  2.9572  0.8493  0.5454
14075TIP3   OH242167   3.988   7.357   1.554  0.3059 -0.5223  0.0027
14075TIP3    H142168   4.082   7.339   1.551  0.3165 -0.5328  0.3548
14075TIP3    H242169   3.982   7.452   1.564  0.2938 -0.6018  0.7730
14076TIP3   OH242170   4.262   2.077   0.089  0.1028  0.9986 -0.0638
14076TIP3    H142171   4.233   2.163   0.061 -0.8862  0.3437 -1.1738
14076TIP3    H242172   4.188   2.019   0.068  0.2065  0.0841  1.8856
14077TIP3   OH242173   5.024   0.521   0.663 -0.0408 -0.0424  0.3130
14077TIP3    H142174   4.979   0.491   0.584  0.3998 -0.7421  0.3164
14077TIP3    H242175   4.977   0.600   0.689 -0.4794 -0.0649 -0.3856
14078TIP3   OH242176   3.060   2.883   0.541  0.1224  0.2466 -0.8435
14078TIP3    H142177   3.059   2.844   0.454 -0.7803 -0.4201 -0.5428
14078TIP3    H242178   3.037   2.975   0.527 -1.1027 -0.0962 -1.2031
14079TIP3   OH242179   3.974   4.014   6.431 -0.2030  0.5442  0.4947
14079TIP3    H142180   3.898   3.971   6.469 -0.8078  1.7356  0.6700
14079TIP3    H242181   4.045   3.950   6.441 -0.7921  0.0703  1.8690
14080TIP3   OH242182   1.300   4.000   4.365  0.8564 -0.3744  0.3602
14080TIP3    H142183   1.329   4.079   4.320  3.6653 -0.4251  1.7945
14080TIP3    H242184   1.236   4.030   4.429 -1.4364  0.0100 -1.9672
14081TIP3   OH242185   0.488   1.967   2.525  0.5750  0.1938  0.0621
14081TIP3    H142186   0.482   1.886   2.475  0.2418  1.3407 -1.8590
14081TIP3    H242187   0.410   1.967   2.581 -1.0224  0.4381 -2.0001
14082TIP3   OH242188   0.602   6.884   2.301 -0.0211  0.3315 -0.3684
14082TIP3    H142189   0.540   6.832   2.353  0.6119  0.9686  1.1041
14082TIP3    H242190   0.559   6.970   2.293  0.6693  0.8173  0.7734
14083TIP3   OH242191   7.941   5.044   4.101 -0.0856 -0.2610 -0.0151
14083TIP3    H142192   7.903   5.120   4.146 -2.2736 -0.7384 -0.9463
14083TIP3    H242193   7.985   4.995   4.170 -1.0304  0.4297  1.1125
14084TIP3   OH242194   4.944   7.260   6.763 -0.5028 -0.2653 -0.1451
14084TIP3    H142195   4.929   7.301   6.678  0.1111  0.9567  0.3034
14084TIP3    H242196   4.920   7.329   6.826  0.2171 -0.7249  0.6464
14085TIP3   OH242197   3.489   1.081   1.108  0.2452 -0.0618  0.7021
14085TIP3    H142198   3.482   1.169   1.145  1.3369 -0.4172  1.7852
14085TIP3    H242199   3.571   1.081   1.059  0.0604 -0.3731  0.3801
14086TIP3   OH242200   8.289   7.742   2.822 -0.3035 -0.0544  0.5825
14086TIP3    H142201   8.247   7.758   2.737 -0.4250  0.6480  0.7763
14086TIP3    H242202   8.284   7.825   2.868 -0.9337 -0.6361  1.5945
14087TIP3   OH242203   0.517   6.756   5.480  0.2495 -0.0734  0.5754
14087TIP3    H142204   0.570   6.807   5.542  0.4233  0.6426 -0.1357
14087TIP3    H242205   0.489   6.679   5.529  3.3573 -1.3794  0.5441
14088TIP3   OH242206   5.588   2.541   5.454  0.5606 -0.3796  0.4100
14088TIP3    H142207   5.528   2.559   5.382 -1.2449 -0.1981  1.8559
14088TIP3    H242208   5.607   2.447   5.447  0.6534 -0.2985 -0.4619
14089TIP3   OH242209   7.086   5.961   4.077  0.1047 -0.2632 -0.3528
14089TIP3    H142210   7.080   5.952   3.982 -2.9793 -0.2608 -0.2687
14089TIP3    H242211   7.043   5.882   4.110 -1.5572  1.1177  0.9343
14090TIP3   OH242212   3.162   3.396   2.119 -0.5917  0.4442 -0.4950
14090TIP3    H142213   3.173   3.309   2.080  0.8006  0.3187  0.0906
14090TIP3    H242214   3.075   3.424   2.093 -0.8859 -0.9399 -1.0762
14091TIP3   OH242215   4.828   3.562   5.165 -0.1463  0.6174  0.3741
14091TIP3    H142216   4.770   3.638   5.158 -0.0370  0.7943  1.3225
14091TIP3    H242217   4.792   3.512   5.238  0.4129  0.2999  0.4310
14092TIP3   OH242218   7.308   4.141   0.068 -0.2567 -0.0118  0.1828
14092TIP3    H142219   7.270   4.229   0.062 -0.9552 -0.3080  0.1098
14092TIP3    H242220   7.374   4.138  -0.000  1.3357  1.1963  1.5988
14093TIP3   OH242221   3.477   3.758   5.951 -0.3403 -0.3167  0.1338
14093TIP3    H142222   3.439   3.685   5.901 -0.9153 -0.0372  0.1576
14093TIP3    H242223   3.523   3.810   5.885  1.1316 -1.3624  0.3023
14094TIP3   OH242224   4.680   2.297   2.920 -0.3753 -0.3133  0.3829
14094TIP3    H142225   4.704   2.208   2.891  1.0543 -0.9637  3.2124
14094TIP3    H242226   4.596   2.286   2.964 -0.5690 -0.1089  0.0662
14095TIP3   OH242227   5.653   5.798   3.482 -0.0396 -0.1491 -0.6419
14095TIP3    H142228   5.646   5.824   3.390 -1.4071 -3.2615 -1.5554
14095TIP3    H242229   5.745   5.812   3.505  0.4186  0.3133 -2.5914
14096TIP3   OH242230   4.660   2.080   4.013  0.4843 -0.3830 -0.2520
14096TIP3    H142231   4.606   2.039   4.081 -2.6407  2.0376 -1.0368
14096TIP3    H242232   4.638   2.032   3.933 -0.7526  0.7342 -0.6088
14097TIP3   OH242233   7.175   0.747   0.536 -0.1978 -0.2342  0.2594
14097TIP3    H142234   7.257   0.718   0.577 -0.6235 -2.4594 -0.3245
14097TIP3    H242235   7.152   0.826   0.584  0.5316 -1.4220  2.7946
14098TIP3   OH242236   3.298   6.884   0.081  0.0498  0.0219 -0.1723
14098TIP3    H142237   3.261   6.970   0.065  0.2466 -0.0859 -1.2840
14098TIP3    H242238   3.357   6.896   0.156 -0.8334  0.5751  0.4464
14099TIP3   OH242239   1.426   2.322   3.347  0.1646 -0.1078 -0.6726
14099TIP3    H142240   1.401   2.376   3.273  0.1639 -0.2153 -0.7500
14099TIP3    H242241   1.491   2.375   3.394 -1.4142  0.9020  0.4637
14100TIP3   OH242242   3.504   2.608   6.537  0.3762 -0.2723 -0.2650
14100TIP3    H142243   3.514   2.519   6.571 -0.8297 -0.7999 -1.1923
14100TIP3    H242244   3.424   2.641   6.579 -1.2058 -0.9746 -2.5298
14101TIP3   OH242245   1.493   1.244   6.793 -0.3209 -0.3906  0.0770
14101TIP3    H142246   1.458   1.176   6.734  1.0841 -0.1184 -1.1251
14101TIP3    H242247   1.567   1.282   6.745 -1.2073  2.1953  0.6049
14102TIP3   OH242248   2.092   6.135   6.431 -0.3814 -0.7472 -0.0637
14102TIP3    H142249   2.057   6.071   6.369 -1.7299  1.0089 -1.2058
14102TIP3    H242250   2.018   6.160   6.485 -0.3797  1.1213 -0.8221
14103TIP3   OH242251   7.556   5.565   4.049  0.3976  0.3773  0.0521
14103TIP3    H142252   7.515   5.611   4.123 -1.1627 -1.8002  0.6270
14103TIP3    H242253   7.644   5.544   4.080 -0.0504 -0.0275  1.0934
14104TIP3   OH242254   6.778   5.246   4.363 -0.2851 -0.0317 -0.6924
14104TIP3    H142255   6.845   5.251   4.295 -0.4417  0.0979 -0.8399
14104TIP3    H242256   6.720   5.176   4.334  0.6225 -1.1919  0.2071
14105TIP3   OH242257   4.640   0.954   2.693 -0.1301 -0.3005 -0.0285
14105TIP3    H142258   4.593   1.007   2.628 -0.1235 -2.2677 -1.7804
14105TIP3    H242259   4.571   0.906   2.739 -0.0091 -1.8809 -1.3989
14106TIP3   OH242260   2.046   4.622   5.021 -0.1138  0.3642 -0.1045
14106TIP3    H142261   2.025   4.702   4.973  2.6197  0.4504 -1.3521
14106TIP3    H242262   1.997   4.553   4.977  1.1568  0.6884 -2.1460
14107TIP3   OH242263   4.213   6.466   4.980 -0.2740 -0.1778 -0.4461
14107TIP3    H142264   4.264   6.435   5.055 -0.3684  0.9553  0.1017
14107TIP3    H242265   4.125   6.431   4.995 -0.1674 -0.3851 -0.2969
14108TIP3   OH242266   3.752   5.657   1.217 -0.3036  0.1513 -0.5654
14108TIP3    H142267   3.822   5.671   1.281  0.2179  0.5026 -1.1987
14108TIP3    H242268   3.672   5.675   1.265  0.0265 -0.3431  0.2021
14109TIP3   OH242269   7.010   7.689   5.813  0.6879  0.0791 -0.0913
14109TIP3    H142270   7.004   7.601   5.849  0.1567  0.5997  1.1535
14109TIP3    H242271   7.016   7.746   5.890 -1.1214  1.2848 -0.7775
14110TIP3   OH242272   4.310   5.229   1.200 -0.3942  0.0986  0.0864
14110TIP3    H142273   4.379   5.236   1.134 -0.7320 -0.4757 -0.3385
14110TIP3    H242274   4.284   5.137   1.198 -0.7713  0.1874  0.6529
14111TIP3   OH242275   5.089   1.640   1.237  0.9411 -0.4234 -0.3091
14111TIP3    H142276   5.105   1.726   1.197  1.0594 -0.1374  0.3362
14111TIP3    H242277   5.168   1.590   1.218  0.9460 -0.3279 -0.5403
14112TIP3   OH242278   4.244   6.193   4.199 -0.4528 -0.0869 -0.6116
14112TIP3    H142279   4.270   6.195   4.106 -1.0221  0.2902 -0.7677
14112TIP3    H242280   4.157   6.232   4.200 -0.7417 -0.7303 -0.0036
14113TIP3   OH242281   4.393   7.682   3.847 -0.6461  0.0331  0.1079
14113TIP3    H142282   4.435   7.616   3.793 -0.7483  0.3364 -0.3451
14113TIP3    H242283   4.299   7.668   3.835 -0.6680  0.5212 -0.3162
14114TIP3   OH242284   4.308   0.843   2.558 -0.0630  0.2717  0.7619
14114TIP3    H142285   4.382   0.865   2.502  0.2959 -0.1992  1.0421
14114TIP3    H242286   4.233   0.838   2.498  0.3231 -0.2703  0.3154
14115TIP3   OH242287   2.611   4.450   0.159  0.5641  0.7503  0.8712
14115TIP3    H142288   2.591   4.406   0.241 -1.3058  1.3505  0.7959
14115TIP3    H242289   2.604   4.543   0.180 -0.2852  0.9025 -0.0347
14116TIP3   OH242290   3.232   6.313   1.308  0.6488  0.5589  0.2213
14116TIP3    H142291   3.199   6.267   1.385  0.6856  0.5140  0.2104
14116TIP3    H242292   3.168   6.383   1.292  0.8974  0.8771  0.5887
14117TIP3   OH242293   2.958   1.257   4.342  0.3409  0.1990 -0.2635
14117TIP3    H142294   2.867   1.283   4.355 -0.1566 -1.8813  0.8484
14117TIP3    H242295   2.966   1.173   4.386  2.2714 -0.6791 -2.0910
14118TIP3   OH242296   7.573   6.330   1.171  0.2399 -0.4982 -0.2724
14118TIP3    H142297   7.587   6.276   1.093 -1.4012  0.3845 -1.2423
14118TIP3    H242298   7.552   6.268   1.240 -3.7043 -1.1784 -1.8306
14119TIP3   OH242299   0.293   3.642   4.765  0.3687 -0.1799 -0.1342
14119TIP3    H142300   0.216   3.591   4.792 -1.1328  1.5890 -0.8779
14119TIP3    H242301   0.263   3.733   4.765  1.8326  0.3842 -2.5401
14120TIP3   OH242302   0.278   0.476   3.292 -0.3032 -0.9005  0.3446
14120TIP3    H142303   0.238   0.389   3.284 -0.9362 -0.5709 -0.2401
14120TIP3    H242304   0.233   0.528   3.226  0.3843 -0.2396  0.3880
14121TIP3   OH242305   2.926   2.310   4.851 -0.2213 -0.3484 -0.6242
14121TIP3    H142306   2.842   2.346   4.878 -0.1622 -0.4962 -0.2293
14121TIP3    H242307   2.974   2.296   4.933  0.0253 -0.6594 -0.8159
14122TIP3   OH242308   6.892   6.118   5.825 -0.1235  0.3936 -0.8006
14122TIP3    H142309   6.938   6.045   5.867  0.4161  0.7956 -0.6912
14122TIP3    H242310   6.821   6.076   5.776 -0.6918 -0.0925  0.4085
14123TIP3   OH242311   0.114   5.406   0.260  0.3296  0.1141  0.2397
14123TIP3    H142312   0.030   5.374   0.227  1.4053 -1.9127 -0.7419
14123TIP3    H242313   0.147   5.464   0.191 -0.5010  1.4268  0.9078
14124TIP3   OH242314   5.900   1.257   5.531 -0.3889 -0.0077  0.3041
14124TIP3    H142315   5.852   1.186   5.574  1.1307 -0.1578  1.8835
14124TIP3    H242316   5.939   1.306   5.603  1.8446  0.0739 -0.8626
14125TIP3   OH242317   7.433   5.540   5.083  0.3589  0.0962 -0.1930
14125TIP3    H142318   7.404   5.540   4.991  1.7531  1.0380 -0.6675
14125TIP3    H242319   7.442   5.632   5.105  1.2401 -0.1462  0.4946
14126TIP3   OH242320   2.290   5.874   5.650  0.1765  0.6812  0.0410
14126TIP3    H142321   2.372   5.910   5.685  0.2568 -0.1555  0.7849
14126TIP3    H242322   2.232   5.949   5.641  0.9070  1.2329 -0.1343
14127TIP3   OH242323   5.086   5.860   1.113  0.3481 -0.2840 -0.1557
14127TIP3    H142324   5.173   5.879   1.078 -0.0154  0.9234 -0.4648
14127TIP3    H242325   5.100   5.848   1.207  0.8066  0.3437 -0.1355
14128TIP3   OH242326   6.765   1.974   0.401 -0.2097 -0.1527  0.0350
14128TIP3    H142327   6.778   1.952   0.309 -2.0844 -1.0927 -0.0566
14128TIP3    H242328   6.686   2.027   0.402 -0.1529 -0.0674  1.0918
14129TIP3   OH242329   6.899   5.090   2.251  0.6217  0.1680  0.4787
14129TIP3    H142330   6.860   5.008   2.221 -0.6770  0.2850  1.6990
14129TIP3    H242331   6.990   5.068   2.271  0.5773 -0.7058 -0.2229
14130TIP3   OH242332   5.620   3.534   5.982 -0.1082 -0.1531  0.2598
14130TIP3    H142333   5.689   3.515   6.045 -0.2281  1.7107  1.0252
14130TIP3    H242334   5.660   3.594   5.919 -0.3755 -0.9551 -0.7177
14131TIP3   OH242335   3.303   7.483   0.556  0.1576 -0.0321  0.3512
14131TIP3    H142336   3.262   7.461   0.640 -0.0322  0.0855  0.2906
14131TIP3    H242337   3.272   7.571   0.536  1.2485  0.4697  0.7976
14132TIP3   OH242338   1.510   7.552  -0.005  0.1979  0.0166 -0.1123
14132TIP3    H142339   1.562   7.625   0.028 -1.3589  1.0569  0.1546
14132TIP3    H242340   1.566   7.475   0.008  0.5481  0.6410  3.0171
14133TIP3   OH242341   0.184   0.279   5.280  0.2773  0.0696  0.1513
14133TIP3    H142342   0.161   0.337   5.207 -1.1485  2.0260  2.0068
14133TIP3    H242343   0.101   0.268   5.328  1.3505 -0.3886  1.9752
14134TIP3   OH242344   3.428   5.047   1.914 -0.4597 -0.0429 -0.0685
14134TIP3    H142345   3.411   5.131   1.956  0.1679 -0.8147  1.8382
14134TIP3    H242346   3.500   5.065   1.853 -0.7316  0.9073 -0.1310
14135TIP3   OH242347   4.395   3.713   4.087 -0.3046 -0.4129  0.0396
14135TIP3    H142348   4.390   3.649   4.159  0.5075  0.6410  1.0740
14135TIP3    H242349   4.380   3.661   4.008  1.7272 -2.1691  0.7003
14136TIP3   OH242350   0.407   5.414   6.626 -0.5896  0.0218 -0.9197
14136TIP3    H142351   0.354   5.464   6.563  0.1957  0.9539 -0.8768
14136TIP3    H242352   0.488   5.395   6.578 -0.2225  0.2319 -0.3884
14137TIP3   OH242353   6.782   4.526   5.151 -0.0893 -0.8327  0.1437
14137TIP3    H142354   6.729   4.606   5.153  0.5952 -0.3852  1.2196
14137TIP3    H242355   6.830   4.526   5.234  1.0137 -1.6217 -0.4587
14138TIP3   OH242356   6.728   4.793   2.034  0.3551 -0.6920 -0.1722
14138TIP3    H142357   6.776   4.720   1.994  0.5225  0.3406 -1.9488
14138TIP3    H242358   6.709   4.852   1.961  0.3113  1.0975  1.2243
14139TIP3   OH242359   0.190   5.328   4.431  0.0142 -0.2419  0.2817
14139TIP3    H142360   0.183   5.370   4.516  2.5964 -0.7985  0.8457
14139TIP3    H242361   0.271   5.363   4.393 -1.4790  0.6473 -2.3599
14140TIP3   OH242362   7.866   0.524   5.664 -0.2808  0.3211  0.3395
14140TIP3    H142363   7.842   0.482   5.746  0.2143 -1.4980 -0.4004
14140TIP3    H242364   7.958   0.549   5.675  0.5569 -2.1449 -0.4583
14141TIP3   OH242365   7.924   6.805   0.301 -0.3392 -0.0649 -0.3194
14141TIP3    H142366   7.928   6.720   0.346 -0.7818  0.2657  0.3530
14141TIP3    H242367   7.843   6.800   0.249 -0.5249  0.0522 -0.0466
14142TIP3   OH242368   2.437   7.281   1.398 -0.7452  0.3588 -0.7419
14142TIP3    H142369   2.375   7.325   1.340 -1.4699  0.8574  0.3773
14142TIP3    H242370   2.395   7.283   1.484 -0.0582 -1.0665 -0.3358
14143TIP3   OH242371   8.193   7.500   2.955 -0.1526  0.0054  0.1220
14143TIP3    H142372   8.260   7.486   3.021  1.3414 -2.0040 -1.6684
14143TIP3    H242373   8.228   7.570   2.900 -1.5794  1.9631  1.5785
14144TIP3   OH242374   0.638   3.624   2.632 -0.5607 -0.0267 -0.2743
14144TIP3    H142375   0.587   3.629   2.713  1.4635 -0.4584  1.1034
14144TIP3    H242376   0.682   3.538   2.637  2.5355  1.4272  0.1199
14145TIP3   OH242377   4.951   7.358   5.566 -0.2676  0.3649  0.2062
14145TIP3    H142378   4.879   7.378   5.505 -0.6904  1.7790  1.1206
14145TIP3    H242379   5.012   7.306   5.514 -2.2489 -1.4772 -0.4306
14146TIP3   OH242380   3.417   0.044   2.749 -0.0318  1.0667 -0.5307
14146TIP3    H142381   3.466   0.126   2.754  0.4627  0.8103 -1.1846
14146TIP3    H242382   3.442   0.005   2.666 -0.2137  0.2124 -0.1974
14147TIP3   OH242383   1.069   6.380   0.627 -0.3440  0.0787 -0.0618
14147TIP3    H142384   1.154   6.373   0.670 -0.8738  0.8111  1.1612
14147TIP3    H242385   1.088   6.370   0.534  0.9815 -0.4949  0.2503
14148TIP3   OH242386   4.419   5.659   6.112  0.6241 -0.9880  0.3020
14148TIP3    H142387   4.369   5.645   6.031 -2.0869 -0.0640  1.7153
14148TIP3    H242388   4.416   5.575   6.157 -0.9327 -0.5590  1.0288
14149TIP3   OH242389   3.797   4.286   5.037  0.3444 -0.2510 -0.8010
14149TIP3    H142390   3.849   4.300   4.958 -0.4418 -1.1338 -1.4927
14149TIP3    H242391   3.707   4.274   5.005 -0.3029  1.2593  0.3728
14150TIP3   OH242392   6.815   1.216   2.602 -0.2928  0.3806 -0.1170
14150TIP3    H142393   6.835   1.253   2.688 -0.6841  0.5117 -0.0770
14150TIP3    H242394   6.732   1.259   2.577 -1.0586 -0.8766  0.1705
14151TIP3   OH242395   3.184   5.192   0.981  0.5448 -0.2814 -0.3008
14151TIP3    H142396   3.173   5.107   0.938 -1.1572 -0.6844  0.8350
14151TIP3    H242397   3.098   5.233   0.976  0.6362  0.2163  1.5178
14152TIP3   OH242398   2.515   0.928   6.362  0.4524  0.0059  0.1722
14152TIP3    H142399   2.587   0.953   6.302 -0.6597 -2.1691 -2.2810
14152TIP3    H242400   2.522   0.833   6.369 -0.2728  0.0696  2.5830
14153TIP3   OH242401   7.252   6.949   5.535 -0.7786 -0.0331 -0.4882
14153TIP3    H142402   7.220   6.894   5.463  1.1897 -0.6782 -0.9271
14153TIP3    H242403   7.191   7.022   5.537 -1.1285 -0.1878 -2.5739
14154TIP3   OH242404   6.818   0.539   5.693  0.3244 -0.5790  0.2528
14154TIP3    H142405   6.794   0.468   5.633  1.5797 -0.3976 -0.5136
14154TIP3    H242406   6.737   0.561   5.739 -0.1059 -2.4313  0.4312
14155TIP3   OH242407   7.044   6.473   4.360  0.2351  0.8110  0.5509
14155TIP3    H142408   6.972   6.436   4.411 -0.3631 -1.5286 -1.7337
14155TIP3    H242409   7.110   6.404   4.358  0.6581  1.2157 -0.9442
14156TIP3   OH242410   3.031   7.115   4.307 -0.5858  0.5710  0.1698
14156TIP3    H142411   3.108   7.116   4.364 -0.2312 -1.8294 -0.1668
14156TIP3    H242412   3.037   7.196   4.258  0.0770  1.8676  2.2376
14157TIP3   OH242413   5.123   7.050   0.748  0.1834  0.6002 -0.1048
14157TIP3    H142414   5.179   7.017   0.678  0.8557 -1.3461  1.2514
14157TIP3    H242415   5.148   7.142   0.758 -1.0665  1.4474 -3.3915
14158TIP3   OH242416   7.536   6.819   1.285 -0.3654 -0.2687 -0.3671
14158TIP3    H142417   7.599   6.848   1.351  0.5686 -2.4708 -0.2010
14158TIP3    H242418   7.485   6.897   1.264  0.4798  0.8947  1.6600
14159TIP3   OH242419   2.979   3.602   1.250 -0.3747 -0.0236  0.1124
14159TIP3    H142420   2.925   3.680   1.236  1.5092  1.5407  1.0853
14159TIP3    H242421   3.065   3.626   1.216  0.6649 -1.0881  1.8286
14160TIP3   OH242422   5.383   6.733   4.164 -0.3400 -0.5364 -0.2281
14160TIP3    H142423   5.426   6.712   4.247  0.2216 -0.0320 -0.3930
14160TIP3    H242424   5.454   6.748   4.102 -0.5880  3.5170  0.2490
14161TIP3   OH242425   4.917   0.753   0.793  0.1152 -0.1279 -0.0380
14161TIP3    H142426   4.998   0.805   0.788 -0.3665  1.1294  3.0650
14161TIP3    H242427   4.847   0.818   0.796 -0.7912 -1.0999  0.2572
14162TIP3   OH242428   2.629   5.948   3.013  0.1440  0.0894 -0.1547
14162TIP3    H142429   2.552   5.913   2.970 -0.6760  2.2866 -0.6024
14162TIP3    H242430   2.703   5.906   2.968 -0.6989 -3.0409  1.1582
14163TIP3   OH242431   7.753   0.932   4.607  0.6259  0.0328 -0.0923
14163TIP3    H142432   7.798   0.850   4.629  0.1997 -0.1797  0.0085
14163TIP3    H242433   7.661   0.915   4.629  0.7536  1.0310  1.3464
14164TIP3   OH242434   4.661   4.067   2.717  0.6543  0.1382 -0.4876
14164TIP3    H142435   4.695   3.990   2.761  1.4055  0.2987 -0.7797
14164TIP3    H242436   4.693   4.060   2.627  1.1640  1.0397 -0.3949
14165TIP3   OH242437   1.255   6.018   2.989  0.4080 -0.1852 -0.4971
14165TIP3    H142438   1.191   6.007   3.060 -0.4228  0.9322 -1.0394
14165TIP3    H242439   1.305   5.936   2.990  0.5324 -0.1484  1.4622
14166TIP3   OH242440   1.481   4.894   3.537 -0.4620 -0.0998  0.0171
14166TIP3    H142441   1.552   4.852   3.586 -0.5857 -1.4531 -0.8999
14166TIP3    H242442   1.424   4.931   3.604 -0.2412 -1.2682  0.8753
14167TIP3   OH242443   1.236   6.389   3.091 -0.7543 -0.2814 -0.7761
14167TIP3    H142444   1.323   6.349   3.094 -0.7979 -0.3643  1.5843
14167TIP3    H242445   1.187   6.344   3.160 -1.7691  1.6838 -0.1405
14168TIP3   OH242446   5.051   6.195   5.256  0.0319 -0.2712 -0.0275
14168TIP3    H142447   4.958   6.205   5.237  0.5212 -0.1463 -2.6300
14168TIP3    H242448   5.055   6.189   5.352 -2.6128 -0.1570  0.1585
14169TIP3   OH242449   6.339   5.692   2.334  0.4224 -0.2397  0.0216
14169TIP3    H142450   6.259   5.642   2.315  1.3327 -1.6947 -0.1030
14169TIP3    H242451   6.348   5.686   2.429  0.7748 -0.7241 -0.0374
14170TIP3   OH242452   5.576   1.366   3.811 -0.2606 -0.4012 -0.4057
14170TIP3    H142453   5.543   1.374   3.722 -2.9610  2.5737  0.6630
14170TIP3    H242454   5.510   1.313   3.856  0.5925 -1.0867  0.0690
14171TIP3   OH242455   4.140   4.622   3.941  0.4404 -0.1834  0.3824
14171TIP3    H142456   4.153   4.708   3.981  1.4357  0.0029 -0.3015
14171TIP3    H242457   4.052   4.624   3.905  0.4262  0.5161  0.4557
14172TIP3   OH242458   7.597   5.198   1.418 -0.4543  0.2139 -0.0424
14172TIP3    H142459   7.510   5.186   1.379 -0.9073  1.9800  0.3178
14172TIP3    H242460   7.607   5.293   1.425  2.0030  0.1116 -1.1222
14173TIP3   OH242461   7.983   0.941   3.294  0.7172 -0.5728 -0.3787
14173TIP3    H142462   8.018   0.990   3.368 -0.3147 -0.0359 -0.2360
14173TIP3    H242463   7.978   0.850   3.326 -3.7788  0.2124  1.8549
14174TIP3   OH242464   3.288   5.247   6.641  0.3044 -0.0213  0.2019
14174TIP3    H142465   3.237   5.278   6.566  0.2827  0.5479  0.4432
14174TIP3    H242466   3.225   5.247   6.713 -0.0617 -1.9817 -0.0725
14175TIP3   OH242467   4.682   2.688   5.848 -0.1608  0.4366  0.2597
14175TIP3    H142468   4.666   2.678   5.942 -1.3269 -0.0625  0.0291
14175TIP3    H242469   4.758   2.633   5.831 -2.0666 -2.4751  0.3384
14176TIP3   OH242470   5.502   2.660   6.741 -0.2400  0.1591 -0.0063
14176TIP3    H142471   5.568   2.594   6.764  0.3741  0.3804 -1.0524
14176TIP3    H242472   5.476   2.636   6.652  0.0238  1.3595 -0.4148
14177TIP3   OH242473   0.239   6.462   5.080 -0.2637 -0.5669  0.5450
14177TIP3    H142474   0.191   6.383   5.105  2.4872 -2.8051 -0.6229
14177TIP3    H242475   0.330   6.441   5.100  0.6058  2.3203  0.0619
14178TIP3   OH242476   7.733   7.520   5.357  0.3271 -0.3094 -0.2205
14178TIP3    H142477   7.651   7.500   5.403 -0.5434  0.8613 -1.1682
14178TIP3    H242478   7.726   7.471   5.275  0.6237 -0.2912 -0.2561
14179TIP3   OH242479   5.279   6.976   0.545  0.1086 -0.6158  0.3931
14179TIP3    H142480   5.288   6.894   0.496  1.0195 -0.8091  0.8587
14179TIP3    H242481   5.330   7.040   0.495 -0.0473 -0.4937  0.3893
14180TIP3   OH242482   6.831   4.248   0.219  0.2917 -0.1418 -0.2528
14180TIP3    H142483   6.910   4.227   0.169  0.2120 -0.9196 -0.0632
14180TIP3    H242484   6.808   4.166   0.263  0.0375  0.3798  0.6101
14181TIP3   OH242485   5.264   1.855   1.206 -0.2351  0.5002  0.5566
14181TIP3    H142486   5.298   1.944   1.197 -0.3618  0.5089  0.1012
14181TIP3    H242487   5.341   1.801   1.218 -0.1144  0.6040  0.2530
14182TIP3   OH242488   5.637   4.635   4.597  0.1344  0.5207  0.9999
14182TIP3    H142489   5.596   4.560   4.554  1.7506 -1.0748  2.0733
14182TIP3    H242490   5.575   4.707   4.585 -1.6516 -1.0661  0.2212
14183TIP3   OH242491   3.308   0.204   5.418  0.2365 -0.2120 -0.4845
14183TIP3    H142492   3.355   0.255   5.484 -1.0433 -0.5072  0.7051
14183TIP3    H242493   3.315   0.256   5.338  1.4529  0.3651 -0.0340
14184TIP3   OH242494   4.537   5.364   5.728  0.1804  0.2887 -0.0571
14184TIP3    H142495   4.506   5.306   5.797 -2.7058  0.2518 -1.2421
14184TIP3    H242496   4.631   5.348   5.723 -0.0609 -2.1142  1.6030
14185TIP3   OH242497   4.100   4.001   6.028  0.1250 -0.0099  0.0231
14185TIP3    H142498   4.186   4.041   6.019  0.0898 -0.0526 -0.5566
14185TIP3    H242499   4.117   3.913   6.060  0.1257  0.9226  2.8422
14186TIP3   OH242500   1.816   7.491   6.410  0.1953 -0.1445  0.2387
14186TIP3    H142501   1.771   7.491   6.325 -0.0923 -0.0624  0.3885
14186TIP3    H242502   1.787   7.411   6.453 -0.5738  0.3847  0.7299
14187TIP3   OH242503   2.554   0.865   3.173  0.0753 -0.3183  0.3800
14187TIP3    H142504   2.546   0.900   3.262 -0.3836 -1.5173  0.8256
14187TIP3    H242505   2.646   0.877   3.151  0.2042 -0.0482  1.0314
14188TIP3   OH242506   2.019   2.510   3.931 -0.4374 -0.0851 -0.2608
14188TIP3    H142507   2.084   2.512   3.861  0.3502  1.6921  0.4639
14188TIP3    H242508   2.011   2.418   3.954  1.7689 -0.3560 -0.4273
14189TIP3   OH242509   0.783   6.712   1.459 -0.0139 -0.5340 -0.0070
14189TIP3    H142510   0.748   6.750   1.539  0.7561 -1.3733  0.7589
14189TIP3    H242511   0.712   6.658   1.425 -2.0136  3.2272 -2.4092
14190TIP3   OH242512   2.670   1.671   5.271  0.0696  0.0609  0.4009
14190TIP3    H142513   2.750   1.631   5.305  0.1412 -1.1391 -1.0704
14190TIP3    H242514   2.691   1.763   5.260  1.1202 -0.1694  0.4044
14191TIP3   OH242515   8.295   0.412   2.440  0.1642  0.1994  0.5768
14191TIP3    H142516   8.218   0.357   2.457  0.0600  0.2028  0.1422
14191TIP3    H242517   8.269   0.465   2.364  0.4980  0.3935  0.5995
14192TIP3   OH242518   7.569   4.817   2.857  0.0227  0.0014  0.5153
14192TIP3    H142519   7.517   4.870   2.797  0.4563  1.2297  1.1927
14192TIP3    H242520   7.653   4.807   2.813 -0.3683 -0.9649 -0.0411
14193TIP3   OH242521   4.961   1.628   6.154 -0.4136  0.2323  0.5068
14193TIP3    H142522   4.961   1.545   6.106 -1.5951  0.1242  0.6593
14193TIP3    H242523   4.886   1.621   6.213 -1.1309  1.8123 -0.1749
14194TIP3   OH242524   1.199   4.494   5.890  0.0105  0.2069  0.3317
14194TIP3    H142525   1.243   4.429   5.945  0.1636 -0.4662 -0.5655
14194TIP3    H242526   1.231   4.578   5.924 -0.3226 -0.1603  1.6138
14195TIP3   OH242527   0.146   1.859   5.925 -0.1180  0.3262  0.1555
14195TIP3    H142528   0.066   1.891   5.967  0.1285  1.1085  0.0511
14195TIP3    H242529   0.138   1.890   5.834  0.3435  0.4753  0.1676
14196TIP3   OH242530   5.596   4.133   2.732 -0.1297  0.3167  0.2832
14196TIP3    H142531   5.555   4.082   2.662 -0.8992  1.3017 -0.0005
14196TIP3    H242532   5.576   4.083   2.811  1.0106 -0.9721 -0.1897
14197TIP3   OH242533   3.989   4.105   5.641 -0.2210  0.0453 -0.1381
14197TIP3    H142534   3.978   4.010   5.650 -1.4677  0.2095  0.3425
14197TIP3    H242535   3.993   4.137   5.732  0.6530  0.4104 -0.2984
14198TIP3   OH242536   0.517   7.424   4.983  0.3260  0.1553 -0.2431
14198TIP3    H142537   0.475   7.429   5.069 -2.2255 -0.5130 -1.3629
14198TIP3    H242538   0.469   7.356   4.937  2.7153 -0.6732 -1.6835
14199TIP3   OH242539   1.242   6.345   0.078  0.2591 -0.2446  0.1481
14199TIP3    H142540   1.166   6.381   0.032 -1.1098 -1.9136  0.9914
14199TIP3    H242541   1.260   6.262   0.033  0.0450 -1.0095  1.4214
14200TIP3   OH242542   4.393   3.876   0.942  0.5043  0.1657 -0.3467
14200TIP3    H142543   4.304   3.868   0.978  0.6170 -4.6691 -0.4485
14200TIP3    H242544   4.451   3.856   1.015  1.0484 -2.8950 -1.4611
14201TIP3   OH242545   5.738   5.492   2.389  0.4692 -0.1430  0.5228
14201TIP3    H142546   5.664   5.443   2.425  0.7456 -0.3215  0.8661
14201TIP3    H242547   5.766   5.440   2.314  0.5487 -0.3383  0.6847
14202TIP3   OH242548   5.302   2.704   4.290 -0.0950 -0.8367 -0.1691
14202TIP3    H142549   5.209   2.728   4.283 -0.3921 -1.5123  1.1807
14202TIP3    H242550   5.344   2.749   4.216 -1.3902 -0.0258 -0.4414
14203TIP3   OH242551   6.180   0.213   5.270 -0.7196  0.1135  0.1360
14203TIP3    H142552   6.145   0.208   5.182 -0.0098  0.3947 -0.1727
14203TIP3    H242553   6.266   0.254   5.259  0.4836 -2.1248  0.6420
14204TIP3   OH242554   1.626   6.047   3.797 -0.2860  0.0186  0.5596
14204TIP3    H142555   1.616   6.123   3.740 -0.2779 -0.5585 -0.2344
14204TIP3    H242556   1.678   5.985   3.745 -0.0534 -0.4139  1.3021
14205TIP3   OH242557   0.950   6.440   4.747 -0.0268  0.6543  0.1016
14205TIP3    H142558   0.888   6.415   4.815 -0.7170 -1.6706 -1.2646
14205TIP3    H242559   1.017   6.372   4.749  0.6883  1.3132 -0.6391
14206TIP3   OH242560   8.159   2.530   3.298 -0.0077  0.0967 -0.3165
14206TIP3    H142561   8.206   2.607   3.267 -2.8142  2.0284 -0.1170
14206TIP3    H242562   8.086   2.521   3.237 -0.9611 -1.0933  0.9473
14207TIP3   OH242563   2.464   3.911   0.771  0.2743  0.5491  0.4636
14207TIP3    H142564   2.404   3.963   0.825 -0.6642 -0.0789  0.0578
14207TIP3    H242565   2.528   3.975   0.737 -0.1915  1.2441  0.8692
14208TIP3   OH242566   4.485   1.065   2.933 -0.2734 -0.3593  0.6009
14208TIP3    H142567   4.486   0.979   2.976  1.2994 -0.0794  1.1887
14208TIP3    H242568   4.484   1.128   3.004 -0.2192  0.1170  0.1866
14209TIP3   OH242569   2.716   0.137   4.550 -0.1256 -0.2015 -0.2320
14209TIP3    H142570   2.745   0.226   4.569 -1.3378  0.5350 -1.6134
14209TIP3    H242571   2.622   0.138   4.568 -0.3418 -0.9016 -1.2418
14210TIP3   OH242572   1.901   2.908   1.400  0.4553  0.2703 -0.2847
14210TIP3    H142573   1.812   2.898   1.434  0.1377  1.2509 -0.7958
14210TIP3    H242574   1.957   2.886   1.475 -0.2217  0.8599  0.4103
14211TIP3   OH242575   8.171   1.786   6.678 -0.0976 -0.0156 -0.0069
14211TIP3    H142576   8.180   1.805   6.772 -0.8303 -3.1874  0.8388
14211TIP3    H242577   8.260   1.788   6.644  0.2222  0.7666  0.8478
14212TIP3   OH242578   4.391   1.590   1.290  0.2203  0.3324 -0.0315
14212TIP3    H142579   4.426   1.676   1.310  0.3678  0.1193  0.6645
14212TIP3    H242580   4.393   1.543   1.374 -0.8401  0.0089 -0.1677
14213TIP3   OH242581   5.450   1.524   3.178  0.5568 -0.2051  0.2308
14213TIP3    H142582   5.458   1.554   3.269 -0.4502  0.1056  0.2259
14213TIP3    H242583   5.478   1.598   3.125 -0.3858  0.1801  0.2580
14214TIP3   OH242584   7.189   3.945   3.598 -0.3820  0.5511  0.4363
14214TIP3    H142585   7.166   3.949   3.505 -0.7699 -0.2444  0.4888
14214TIP3    H242586   7.257   3.877   3.603 -2.0937 -1.1924  1.0468
14215TIP3   OH242587   6.356   6.876   2.648 -0.1490  0.2081 -0.1546
14215TIP3    H142588   6.449   6.863   2.628  0.0966 -0.9539  1.5147
14215TIP3    H242589   6.314   6.794   2.622 -0.4972  0.2497  0.2602
14216TIP3   OH242590   5.852   4.816   3.404 -0.0121 -0.2054  0.1476
14216TIP3    H142591   5.783   4.867   3.446  1.8781  0.2480  2.9644
14216TIP3    H242592   5.922   4.878   3.389  0.9232 -1.2226  0.1766
14217TIP3   OH242593   4.180   2.765   2.677  0.4631  0.3985 -0.5418
14217TIP3    H142594   4.107   2.816   2.641  0.0476 -0.8405 -1.5151
14217TIP3    H242595   4.165   2.676   2.646  2.1985  0.0357 -0.4307
14218TIP3   OH242596   7.474   6.087   0.313 -0.0654  0.1543  0.2211
14218TIP3    H142597   7.564   6.117   0.325  0.5045 -1.5565  0.5243
14218TIP3    H242598   7.461   6.022   0.383 -0.8085 -1.1149 -1.0352
14219TIP3   OH242599   7.839   7.214   4.637 -0.2865  0.5945  0.0758
14219TIP3    H142600   7.915   7.237   4.583  0.5159  1.5848  1.5526
14219TIP3    H242601   7.805   7.134   4.597  1.4023  0.2451 -0.7771
14220TIP3   OH242602   3.752   6.139   2.537 -0.3713  0.8979 -0.2970
14220TIP3    H142603   3.764   6.197   2.462 -0.0203  0.5564 -0.5093
14220TIP3    H242604   3.841   6.124   2.571 -0.1877 -1.1590 -1.5055
14221TIP3   OH242605   8.167   7.514   1.630  0.0522  0.0707  0.0075
14221TIP3    H142606   8.093   7.482   1.579  0.8878  0.4558 -1.4777
14221TIP3    H242607   8.232   7.444   1.625  0.2447  0.2215  0.3290
14222TIP3   OH242608   7.774   4.883   3.374 -0.7231 -0.2116 -0.5267
14222TIP3    H142609   7.799   4.965   3.416 -2.0551 -0.0302 -0.0344
14222TIP3    H242610   7.834   4.874   3.299  0.5200  0.3509  0.3740
14223TIP3   OH242611   8.122   4.096   3.877 -0.1876  0.1555  0.2781
14223TIP3    H142612   8.097   4.144   3.956  2.8849  0.3186  1.2964
14223TIP3    H242613   8.215   4.117   3.865 -0.3334 -0.5383 -2.9363
14224TIP3   OH242614   5.024   2.188   3.610  0.2968 -0.5670  0.0067
14224TIP3    H142615   5.054   2.253   3.547  1.2300 -1.7060 -0.7691
14224TIP3    H242616   5.086   2.195   3.683 -0.5083  0.4305  0.6260
14225TIP3   OH242617   3.141   0.678   6.135  0.2560  0.3631  0.1004
14225TIP3    H142618   3.108   0.704   6.221  0.5963  1.4266 -0.0761
14225TIP3    H242619   3.131   0.756   6.081  1.2010  0.0982 -0.4876
14226TIP3   OH242620   4.210   1.653   2.735 -0.5701 -0.3933 -0.7638
14226TIP3    H142621   4.180   1.685   2.820 -0.6203 -0.7342 -0.6520
14226TIP3    H242622   4.295   1.612   2.753 -0.5265 -0.3626 -0.8970
14227TIP3   OH242623   3.639   4.224   6.089  0.4045 -0.5760 -0.0746
14227TIP3    H142624   3.611   4.292   6.151 -0.4284 -1.7640  0.9125
14227TIP3    H242625   3.723   4.193   6.123  1.6616  1.1030 -1.4994
14228TIP3   OH242626   1.916   2.413   6.746 -0.4488  0.2901 -0.3023
14228TIP3    H142627   1.936   2.409   6.840 -2.6730  0.1830  0.2300
14228TIP3    H242628   1.853   2.342   6.732 -0.4967  0.5945 -1.7797
14229TIP3   OH242629   6.639   5.572   3.742 -0.2925  0.3536 -0.0076
14229TIP3    H142630   6.694   5.568   3.664  0.0459 -1.4363  0.2913
14229TIP3    H242631   6.685   5.633   3.801 -0.1271  1.0690 -0.8615
14230TIP3   OH242632   3.455   1.059   2.563 -0.3514  0.2977 -0.1012
14230TIP3    H142633   3.371   1.101   2.581  0.7205  2.3172  0.4716
14230TIP3    H242634   3.472   1.078   2.471 -1.0815 -1.2621 -0.6036
14231TIP3   OH242635   8.000   5.440   1.516  0.1200  0.6369  0.4720
14231TIP3    H142636   7.985   5.346   1.521  2.8891  0.1591  3.2783
14231TIP3    H242637   7.919   5.479   1.548 -1.1870 -0.7273 -1.0282
14232TIP3   OH242638   4.027   5.172   3.278 -0.4228  0.0772 -0.4897
14232TIP3    H142639   3.959   5.187   3.212 -0.7030 -0.5119 -0.3440
14232TIP3    H242640   4.088   5.245   3.267  0.0617 -0.5225 -2.0504
14233TIP3   OH242641   3.270   4.818   3.683  0.3315 -0.1122 -0.1376
14233TIP3    H142642   3.299   4.727   3.680 -0.3492 -0.3835  0.8090
14233TIP3    H242643   3.348   4.868   3.706  0.9420 -0.3210 -1.6725
14234TIP3   OH242644   3.697   1.302   4.237 -1.0217 -0.7350  0.3357
14234TIP3    H142645   3.792   1.315   4.244 -0.8005 -2.3238  0.7588
14234TIP3    H242646   3.661   1.346   4.314 -0.5026 -1.0136  0.7509
14235TIP3   OH242647   3.911   6.659   3.917  0.3266  0.0834 -0.2668
14235TIP3    H142648   3.869   6.638   3.834  0.3219  0.1833 -0.2906
14235TIP3    H242649   3.991   6.706   3.893  0.3028  0.1518 -0.2139
14236TIP3   OH242650   0.893   6.478   4.070  0.0900  0.8144  0.1983
14236TIP3    H142651   0.956   6.409   4.050 -1.3863 -1.1438  1.9488
14236TIP3    H242652   0.945   6.559   4.067  2.1688 -0.4679 -0.5564
14237TIP3   OH242653   6.999   7.528   5.570  0.0430  0.6291 -0.0766
14237TIP3    H142654   7.077   7.479   5.597 -0.5543 -0.3118 -0.0107
14237TIP3    H242655   6.979   7.584   5.645  1.1897  1.5872 -0.4473
14238TIP3   OH242656   6.761   3.390   1.754 -0.2505  0.5239 -0.4799
14238TIP3    H142657   6.723   3.392   1.842  0.8654  1.2558 -0.0033
14238TIP3    H242658   6.803   3.304   1.747 -0.6750  0.3112 -0.4538
14239TIP3   OH242659   0.670   0.195   1.553 -0.6801 -0.1482  0.2048
14239TIP3    H142660   0.708   0.267   1.603 -1.3171 -0.3460  0.9890
14239TIP3    H242661   0.581   0.186   1.586 -1.1731 -0.2021 -1.0615
14240TIP3   OH242662   7.559   6.701   1.994 -0.4798 -0.4763  0.0801
14240TIP3    H142663   7.587   6.700   2.086  0.0856 -0.7301 -0.0903
14240TIP3    H242664   7.489   6.766   1.991  0.8479  1.0397  0.3110
14241TIP3   OH242665   3.166   4.961   0.827 -0.3357 -0.4415 -0.0627
14241TIP3    H142666   3.208   4.876   0.831 -1.0237 -0.7652  0.3809
14241TIP3    H242667   3.077   4.943   0.798 -0.4599  0.1396 -0.0680
14242TIP3   OH242668   0.699   3.955   0.160  0.1112  0.0880 -0.0332
14242TIP3    H142669   0.630   3.889   0.155  0.8798 -0.6680 -4.6968
14242TIP3    H242670   0.659   4.034   0.122  1.8455 -0.6384 -3.7812
14243TIP3   OH242671   5.258   5.541   3.907  0.2999 -0.3661 -0.1999
14243TIP3    H142672   5.321   5.613   3.910 -0.4820  0.3137  0.9647
14243TIP3    H242673   5.311   5.463   3.890  1.3256  0.3188 -0.2250
14244TIP3   OH242674   2.167   5.636   4.341 -0.0454  0.3271  0.0351
14244TIP3    H142675   2.255   5.624   4.377 -0.4997  0.3772  1.2251
14244TIP3    H242676   2.163   5.577   4.266  1.4795  1.4119 -0.9379
14245TIP3   OH242677   4.317   4.206   0.622  0.7290 -0.2467 -0.0661
14245TIP3    H142678   4.329   4.260   0.701 -0.8996 -0.5237  0.4075
14245TIP3    H242679   4.369   4.128   0.639 -0.1153 -0.5957  1.0517
14246TIP3   OH242680   4.729   4.000   0.993 -0.0970  0.2743  0.2874
14246TIP3    H142681   4.697   3.918   1.028  1.5761  0.4410  2.4281
14246TIP3    H242682   4.659   4.063   1.011 -0.6339 -0.3130  0.2948
14247TIP3   OH242683   3.598   5.159   1.700  0.6326 -0.0414  0.1431
14247TIP3    H142684   3.674   5.151   1.642  0.2788  0.3074 -0.3709
14247TIP3    H242685   3.550   5.234   1.666 -0.7805 -1.1951 -0.4748
14248TIP3   OH242686   2.992   6.432   0.222 -0.6584  0.0900 -0.0398
14248TIP3    H142687   3.063   6.398   0.167 -0.3078 -0.2400  0.6008
14248TIP3    H242688   2.955   6.354   0.264 -2.3268  0.0874 -1.4180
14249TIP3   OH242689   6.740   2.751   6.168 -0.0413 -0.6227 -0.9536
14249TIP3    H142690   6.803   2.792   6.228 -0.9452 -0.2994 -0.1776
14249TIP3    H242691   6.756   2.793   6.084  1.0944 -0.8996 -0.8871
14250TIP3   OH242692   2.162   0.952   0.610  0.2035  0.2924  0.4144
14250TIP3    H142693   2.196   0.960   0.699  0.5430 -3.8497  0.8412
14250TIP3    H242694   2.240   0.959   0.554  0.0670  2.2701  0.3893
14251TIP3   OH242695   8.030   3.868   0.951 -0.1650  0.0298 -0.1037
14251TIP3    H142696   8.074   3.920   0.884  0.3311  1.4026  1.2254
14251TIP3    H242697   8.020   3.781   0.912  0.2759  0.7309 -1.8587
14252TIP3   OH242698   7.386   0.230   2.545  0.3199  0.7838  0.4950
14252TIP3    H142699   7.446   0.228   2.470  1.6526  1.2870  1.4906
14252TIP3    H242700   7.348   0.318   2.543 -0.4308  0.4561 -0.1525
14253TIP3   OH242701   1.574   1.120   5.330  0.5512 -0.2347 -0.0938
14253TIP3    H142702   1.486   1.106   5.294 -0.0640  0.6211  1.0356
14253TIP3    H242703   1.632   1.089   5.261 -0.6290 -2.9470  0.0043
14254TIP3   OH242704   6.638   3.976   6.291  0.2772 -0.1325  0.3889
14254TIP3    H142705   6.558   3.925   6.304 -1.5444  1.7988 -2.2639
14254TIP3    H242706   6.657   4.014   6.377 -0.9062 -1.5764  1.3404
14255TIP3   OH242707   0.339   3.861   1.321  0.9244  0.1792  0.2373
14255TIP3    H142708   0.378   3.945   1.345  1.2590  0.2137 -0.4123
14255TIP3    H242709   0.255   3.859   1.367  1.4701  0.3169  1.2582
14256TIP3   OH242710   7.075   1.162   3.061  0.0336  0.2848 -0.0315
14256TIP3    H142711   7.128   1.231   3.021  1.8434 -0.3736  1.1182
14256TIP3    H242712   7.044   1.110   2.987  0.1009  1.2992 -0.7945
14257TIP3   OH242713   6.399   3.304   1.124  0.3104  0.5643  0.0332
14257TIP3    H142714   6.432   3.226   1.169 -0.6335  0.4914  0.6206
14257TIP3    H242715   6.358   3.270   1.045 -1.9250  0.2079  1.2756
14258TIP3   OH242716   6.675   5.544   3.154 -0.1118 -0.5336 -0.9319
14258TIP3    H142717   6.606   5.610   3.150  0.5291  0.0964 -2.2678
14258TIP3    H242718   6.646   5.476   3.093 -0.3910 -1.1167 -0.1554
14259TIP3   OH242719   2.948   0.871   2.342 -0.0920 -0.1432 -0.1114
14259TIP3    H142720   2.856   0.847   2.331 -0.6079  1.3967  0.5124
14259TIP3    H242721   2.961   0.873   2.436  0.4422  0.1643 -0.1881
14260TIP3   OH242722   3.218   4.951   4.853 -0.5711 -0.0398 -0.0424
14260TIP3    H142723   3.275   4.934   4.779  1.5338  2.1765  0.9330
14260TIP3    H242724   3.143   4.998   4.816  0.0853  0.3831 -0.8443
14261TIP3   OH242725   3.801   1.666   5.148  0.1041 -0.1472 -0.2078
14261TIP3    H142726   3.777   1.746   5.195  1.3548 -0.7152  1.4875
14261TIP3    H242727   3.759   1.676   5.063 -1.4844  1.3696  0.6656
14262TIP3   OH242728   3.279   4.383   3.931  0.2346 -0.2100 -0.0902
14262TIP3    H142729   3.314   4.296   3.952  0.1451 -0.1197  0.4273
14262TIP3    H242730   3.223   4.405   4.005  1.5370  1.0100  0.5720
14263TIP3   OH242731   1.958   0.836   0.368  0.2173 -0.4114  0.7185
14263TIP3    H142732   1.910   0.752   0.369  0.1673 -0.3891  0.1695
14263TIP3    H242733   2.004   0.837   0.452  0.5924 -1.2093  0.5388
14264TIP3   OH242734   3.403   3.287   2.996 -0.8579 -0.9400 -0.0284
14264TIP3    H142735   3.340   3.359   2.997 -0.6796 -0.7832 -0.0207
14264TIP3    H242736   3.476   3.320   2.943  0.0714 -0.3845  1.5379
14265TIP3   OH242737   2.212   2.392   4.445  0.6581  0.4615  0.2204
14265TIP3    H142738   2.305   2.367   4.446  1.3789  2.8529 -0.8971
14265TIP3    H242739   2.179   2.357   4.362  0.6740  0.0285  0.3941
14266TIP3   OH242740   7.221   4.473   5.187 -0.1958  0.1480 -0.1798
14266TIP3    H142741   7.293   4.533   5.204  0.8437 -0.8283 -0.9701
14266TIP3    H242742   7.189   4.447   5.274  0.6124  0.3580  0.1879
14267TIP3   OH242743   0.420   6.964   6.724 -0.3739  0.1792  0.1733
14267TIP3    H142744   0.426   7.054   6.691 -0.0706 -0.1169 -0.5946
14267TIP3    H242745   0.400   6.912   6.647 -2.8224 -0.1622  0.9517
14268TIP3   OH242746   3.468   6.159   0.762 -0.2828 -0.2174  0.0597
14268TIP3    H142747   3.544   6.128   0.811 -0.5321 -1.6115 -0.3840
14268TIP3    H242748   3.411   6.083   0.755 -0.8412  0.2861 -1.2751
14269TIP3   OH242749   7.362   1.610   1.965  1.2022 -0.4204  0.0896
14269TIP3    H142750   7.292   1.552   1.936  1.4087 -1.0162  0.7484
14269TIP3    H242751   7.425   1.611   1.892  0.0180  1.0133 -0.9874
14270TIP3   OH242752   6.329   6.917   0.914  0.6619 -0.4528 -0.6474
14270TIP3    H142753   6.417   6.938   0.943 -0.2166  0.7311  1.3366
14270TIP3    H242754   6.296   6.855   0.979 -0.9194  1.2830  0.2879
14271TIP3   OH242755   5.079   1.928   0.989 -0.2856 -0.0325  0.2760
14271TIP3    H142756   5.119   1.853   1.033  2.0004  0.6902 -0.4567
14271TIP3    H242757   5.046   1.893   0.906 -1.8879 -0.7638  1.1589
14272TIP3   OH242758   2.818   6.585   4.745 -0.8492  0.1917 -0.5921
14272TIP3    H142759   2.827   6.543   4.659 -1.5726  1.0950 -1.1307
14272TIP3    H242760   2.842   6.676   4.729 -1.5989  0.5064  0.0202
14273TIP3   OH242761   4.101   0.043   4.109  0.3694 -0.0825  0.1709
14273TIP3    H142762   4.128  -0.009   4.033 -0.9389  0.7952 -0.9505
14273TIP3    H242763   4.058   0.119   4.071  0.1675  0.6609  1.8144
14274TIP3   OH242764   5.399   4.224   4.902  0.0180  0.2236 -0.1336
14274TIP3    H142765   5.423   4.243   4.992  1.0450  1.6552 -0.6784
14274TIP3    H242766   5.441   4.140   4.883 -0.1525 -0.0517  0.6930
14275TIP3   OH242767   0.964   4.190   1.915  0.4191  0.0148  0.4731
14275TIP3    H142768   1.055   4.219   1.922  0.5147 -0.3918  1.0034
14275TIP3    H242769   0.913   4.267   1.938  0.6179  0.3417 -0.1542
14276TIP3   OH242770   2.345   4.805   3.606  0.2587 -0.1291 -0.1776
14276TIP3    H142771   2.344   4.775   3.697 -0.9137  1.6174  0.4215
14276TIP3    H242772   2.288   4.744   3.560 -2.0221  0.9942  1.0003
14277TIP3   OH242773   4.102   5.837   2.285  0.0071 -0.2164 -0.0918
14277TIP3    H142774   4.052   5.911   2.321  0.2630 -0.0029 -0.1707
14277TIP3    H242775   4.035   5.778   2.250 -0.2558 -0.4759  0.8172
14278TIP3   OH242776   5.626   3.532   4.159  0.5389 -0.0184  0.1260
14278TIP3    H142777   5.716   3.527   4.189 -0.2327 -0.9297  2.5946
14278TIP3    H242778   5.585   3.598   4.214 -1.1538 -2.3421  1.9060
14279TIP3   OH242779   5.968   4.396   2.500  0.2946  0.0325  0.3995
14279TIP3    H142780   5.911   4.382   2.575  1.2732 -0.9090  0.9885
14279TIP3    H242781   6.029   4.464   2.529 -0.0671  0.5240  0.0248
14280TIP3   OH242782   4.557   7.199   6.492  0.1116  0.1459  0.2020
14280TIP3    H142783   4.609   7.266   6.448 -0.6658 -0.3524 -1.5586
14280TIP3    H242784   4.570   7.216   6.585  2.2925  0.8838 -0.1842
14281TIP3   OH242785   7.284   2.266   6.451  0.4755 -0.2675  0.3244
14281TIP3    H142786   7.303   2.330   6.382 -0.5899 -0.4955 -0.2049
14281TIP3    H242787   7.352   2.200   6.441 -1.1184 -1.6819 -2.2885
14282TIP3   OH242788   1.033   1.653   1.190 -0.3258  0.0891 -0.2772
14282TIP3    H142789   0.995   1.740   1.198  1.3478  1.0523 -1.9841
14282TIP3    H242790   0.983   1.611   1.120  0.7382  0.8292 -1.5288
14283TIP3   OH242791   4.000   3.710   3.810  0.8172  0.2399  0.1594
14283TIP3    H142792   4.069   3.703   3.744  0.8021 -0.3587  0.2006
14283TIP3    H242793   4.035   3.771   3.875  1.4234 -0.2650  0.3125
14284TIP3   OH242794   0.273   3.259   5.404  0.1307 -0.0666  0.3253
14284TIP3    H142795   0.341   3.300   5.352  0.6230  0.9431  1.7001
14284TIP3    H242796   0.273   3.167   5.376  1.0288  0.2409 -0.7315
14285TIP3   OH242797   7.611   2.152   1.464  0.2429 -0.3070  0.3873
14285TIP3    H142798   7.632   2.236   1.504 -1.6490 -0.3842  1.6706
14285TIP3    H242799   7.521   2.135   1.490 -0.5765 -1.1580 -2.6604
14286TIP3   OH242800   3.894   3.966   3.587  0.2546 -0.6445  0.6594
14286TIP3    H142801   3.978   3.924   3.603  0.9516  0.2825 -0.3880
14286TIP3    H242802   3.867   3.935   3.501 -0.5054 -0.9798  1.0159
14287TIP3   OH242803   7.082   3.569   5.053 -0.5287 -0.4248 -0.0204
14287TIP3    H142804   7.146   3.638   5.073 -1.0003 -0.2181  0.8347
14287TIP3    H242805   7.085   3.560   4.957 -0.4718  0.7934 -0.1433
14288TIP3   OH242806   0.084   0.864   2.825  0.4726 -0.2572  0.0805
14288TIP3    H142807  -0.001   0.850   2.782 -0.6385 -0.7367  2.2677
14288TIP3    H242808   0.092   0.959   2.833  0.4123 -0.1885 -0.6083
14289TIP3   OH242809   1.080   6.054   3.901  0.5240  0.1269 -0.6698
14289TIP3    H142810   1.078   5.988   3.970  0.8018 -0.2320 -0.9985
14289TIP3    H242811   1.173   6.065   3.881  0.4135 -0.2710 -1.4489
14290TIP3   OH242812   0.608   1.903   4.991 -1.2709 -0.0723  0.1652
14290TIP3    H142813   0.643   1.919   4.903 -0.9548 -1.0048  0.1128
14290TIP3    H242814   0.531   1.959   4.997 -1.0067  0.3727 -0.5248
14291TIP3   OH242815   1.790   3.307   3.970  0.4052  0.6608 -0.1793
14291TIP3    H142816   1.755   3.306   3.881 -0.5877 -2.7132  0.1087
14291TIP3    H242817   1.855   3.236   3.972  0.1986  0.4455  1.8269
14292TIP3   OH242818   4.391   5.600   5.798 -0.3341  0.5490  0.3629
14292TIP3    H142819   4.298   5.583   5.788 -0.3010 -1.6052  2.7350
14292TIP3    H242820   4.434   5.520   5.767  0.4085 -0.2787  3.2123
14293TIP3   OH242821   3.900   6.616   4.181 -0.1294 -0.2069  0.4534
14293TIP3    H142822   3.996   6.616   4.182 -0.1252  0.4063  1.2906
14293TIP3    H242823   3.877   6.668   4.104  0.2039 -0.8418 -0.0787
14294TIP3   OH242824   2.246   6.281   4.044 -0.0019  0.4027 -0.1801
14294TIP3    H142825   2.151   6.289   4.035  0.0076 -0.2951 -0.9483
14294TIP3    H242826   2.265   6.189   4.028  0.6437  0.1686  1.6443
14295TIP3   OH242827   4.024   4.775   0.502 -0.2987  0.3167  0.9302
14295TIP3    H142828   4.080   4.809   0.432 -1.4753 -0.1906 -0.3131
14295TIP3    H242829   4.066   4.804   0.583  0.0521  2.6031 -0.0019
14296TIP3   OH242830   2.446   2.620   2.332 -0.0173  0.5304 -0.2502
14296TIP3    H142831   2.490   2.705   2.326  0.8502  0.0614 -0.6883
14296TIP3    H242832   2.435   2.605   2.426 -0.3531  1.2061 -0.1737
14297TIP3   OH242833   7.027   2.218   6.323  0.2536 -0.5584 -0.0818
14297TIP3    H142834   7.105   2.213   6.379 -1.7064 -1.4693  2.7761
14297TIP3    H242835   7.037   2.301   6.277  2.2821 -0.0209  1.1688
14298TIP3   OH242836   4.860   2.477   5.532 -0.4663  0.3579 -0.2090
14298TIP3    H142837   4.880   2.543   5.598 -1.1739  1.5247 -1.1185
14298TIP3    H242838   4.944   2.434   5.515  0.2690  1.7987 -0.4106
14299TIP3   OH242839   4.826   3.129   3.485  1.0276  0.1066  0.0568
14299TIP3    H142840   4.902   3.091   3.529  1.9053  1.7483  0.0165
14299TIP3    H242841   4.810   3.070   3.412  1.4070 -1.0064  0.8337
14300TIP3   OH242842   4.520   0.464   0.845  0.4785 -0.1904  0.5497
14300TIP3    H142843   4.605   0.420   0.852  0.0783 -0.8636  1.4579
14300TIP3    H242844   4.510   0.483   0.752  0.0367 -3.4035 -0.1942
14301TIP3   OH242845   0.165   5.593   1.955  0.2207 -0.5093 -0.2041
14301TIP3    H142846   0.141   5.656   1.886 -0.8940  0.9882  1.4608
14301TIP3    H242847   0.130   5.631   2.035  3.2606 -1.1580  1.5790
14302TIP3   OH242848   2.165   0.872   0.998 -0.1369 -0.6765  0.3258
14302TIP3    H142849   2.178   0.967   0.999  0.4641 -0.7644  0.9936
14302TIP3    H242850   2.245   0.837   0.959 -0.1233 -0.9487  0.5928
14303TIP3   OH242851   6.031   6.725   3.789  0.0354 -0.1859  0.6921
14303TIP3    H142852   5.976   6.660   3.745 -0.3976  1.1560 -0.8293
14303TIP3    H242853   6.113   6.679   3.806 -0.1683 -1.0627 -0.5552
14304TIP3   OH242854   5.673   2.653   6.147  0.5440  0.2579 -0.6733
14304TIP3    H142855   5.622   2.667   6.067 -2.4606  1.7133  1.3390
14304TIP3    H242856   5.630   2.579   6.190  1.4787  0.1490  0.0983
14305TIP3   OH242857   5.898   6.136   2.543  0.1606 -0.0541  0.8319
14305TIP3    H142858   5.911   6.228   2.520 -1.3750  0.1319  0.6196
14305TIP3    H242859   5.933   6.129   2.632 -0.5023  0.9551  1.1910
14306TIP3   OH242860   3.476   3.325   5.773 -0.2790 -0.1116  0.2315
14306TIP3    H142861   3.519   3.248   5.735 -2.2965 -0.4851 -1.5410
14306TIP3    H242862   3.397   3.290   5.815 -2.1636  0.9880 -2.0867
14307TIP3   OH242863   2.287   1.115   1.045  0.0943 -0.2060 -0.1213
14307TIP3    H142864   2.381   1.120   1.060  0.2399 -2.1158 -0.1564
14307TIP3    H242865   2.248   1.117   1.132  0.3092 -1.2930  0.0146
14308TIP3   OH242866   3.195   7.768   0.536 -0.9248  0.3627  0.2165
14308TIP3    H142867   3.238   7.850   0.513 -2.2337  0.9990 -0.0801
14308TIP3    H242868   3.123   7.761   0.473 -3.4777  1.1997  2.7961
14309TIP3   OH242869   1.852   3.932   5.290 -0.5021 -0.2313 -0.2713
14309TIP3    H142870   1.857   3.863   5.357 -1.3234 -0.2384 -0.2116
14309TIP3    H242871   1.879   4.011   5.336  0.0672 -0.4388 -0.2387
14310TIP3   OH242872   4.164   0.224   3.276 -0.7683 -0.2592 -0.0885
14310TIP3    H142873   4.252   0.238   3.239 -1.1652  1.3053 -0.5444
14310TIP3    H242874   4.107   0.282   3.225 -1.9413 -0.6789  0.6956
14311TIP3   OH242875   1.028   0.742   5.234 -0.2741  0.5654 -0.1375
14311TIP3    H142876   1.006   0.825   5.191  0.2490  0.0307 -1.4944
14311TIP3    H242877   1.004   0.755   5.326 -0.3135  2.1653 -0.3537
14312TIP3   OH242878   1.754   7.103   3.570 -0.5453  0.3036  0.1592
14312TIP3    H142879   1.697   7.063   3.505 -2.3634  0.8794  1.3349
14312TIP3    H242880   1.696   7.129   3.641  1.2728  0.3213  1.7329
14313TIP3   OH242881   7.364   3.295   5.710 -0.0766 -0.8479 -0.0084
14313TIP3    H142882   7.362   3.205   5.677  1.3445 -1.2454  0.8637
14313TIP3    H242883   7.273   3.314   5.732 -0.4100 -2.0723 -0.2268
14314TIP3   OH242884   1.436   7.256   0.669  0.0097  0.0825 -0.2892
14314TIP3    H142885   1.411   7.321   0.604  1.6110  1.7139  0.6284
14314TIP3    H242886   1.491   7.304   0.731  0.1777 -1.8666  1.1652
14315TIP3   OH242887   7.405   2.509   0.075 -0.2507 -0.2803  0.0153
14315TIP3    H142888   7.347   2.436   0.055 -0.8822 -0.3380  1.8657
14315TIP3    H242889   7.375   2.580   0.017 -0.5987 -1.0216 -0.7246
14316TIP3   OH242890   5.432   4.259   3.554 -0.1626 -0.0516  0.1398
14316TIP3    H142891   5.504   4.305   3.597 -0.0726  0.5184 -0.5925
14316TIP3    H242892   5.475   4.193   3.498 -0.0871  1.2807 -1.4636
14317TIP3   OH242893   1.602   1.175   3.061 -0.6495 -0.1575  0.0076
14317TIP3    H142894   1.545   1.218   3.124  0.0554  0.6959  0.0754
14317TIP3    H242895   1.654   1.245   3.023 -0.2164 -0.8169 -0.6560
14318TIP3   OH242896   0.043   2.726   3.102 -0.0364 -0.0443 -0.4475
14318TIP3    H142897   0.131   2.699   3.075  0.2265 -0.0998  0.4328
14318TIP3    H242898  -0.015   2.671   3.050  0.4793 -1.3649  0.3196
14319TIP3   OH242899   2.791   6.833   5.987 -0.2905  0.1696  0.0297
14319TIP3    H142900   2.856   6.856   6.054  0.1403 -0.1926 -0.2607
14319TIP3    H242901   2.813   6.743   5.963 -1.1344 -0.0831  0.1959
14320TIP3   OH242902   0.197   4.934   1.646  0.3582 -0.3225 -0.4722
14320TIP3    H142903   0.135   4.861   1.651 -0.0823  0.0023 -1.1589
14320TIP3    H242904   0.145   5.008   1.616  0.6489  0.4762  0.9022
14321TIP3   OH242905   3.205   3.844   2.465  0.1390 -0.1804 -0.5223
14321TIP3    H142906   3.260   3.767   2.482 -0.5734 -0.6864 -0.4698
14321TIP3    H242907   3.233   3.908   2.531  0.7493 -0.3821 -0.5758
14322TIP3   OH242908   0.396   4.788   6.169  1.0686 -0.6446 -0.4081
14322TIP3    H142909   0.312   4.746   6.152  1.9326 -2.0433 -1.4733
14322TIP3    H242910   0.381   4.842   6.246 -1.1684  0.2626 -1.3824
14323TIP3   OH242911   1.548   4.796   3.248  0.0292 -0.0593  0.0900
14323TIP3    H142912   1.514   4.831   3.330 -0.6597 -0.0692 -0.1846
14323TIP3    H242913   1.632   4.841   3.236 -0.2249  0.5170  0.4085
14324TIP3   OH242914   8.243   4.370   1.903  0.3205  0.0060 -0.1258
14324TIP3    H142915   8.239   4.352   1.809 -0.8714  2.5269 -0.6225
14324TIP3    H242916   8.154   4.395   1.927  0.6444 -0.3703  1.6754
14325TIP3   OH242917   5.313   6.299   5.502  0.5175 -0.1095 -0.2235
14325TIP3    H142918   5.310   6.226   5.564 -1.6688 -0.7970 -1.0368
14325TIP3    H242919   5.222   6.311   5.475  0.5679  3.7876  0.7958
14326TIP3   OH242920   1.488   3.440   6.799  0.7513  0.0980 -0.6473
14326TIP3    H142921   1.533   3.357   6.785  1.9064  0.2556  1.5933
14326TIP3    H242922   1.496   3.486   6.715 -0.2927 -2.1478 -2.0831
14327TIP3   OH242923   7.553   3.139   1.996 -0.2631  0.5543  0.3828
14327TIP3    H142924   7.645   3.132   2.021 -0.6165  1.3090  2.0752
14327TIP3    H242925   7.506   3.088   2.062 -1.0320 -0.4322 -0.8826
14328TIP3   OH242926   7.442   7.568   5.492 -0.6449 -0.0825 -0.0890
14328TIP3    H142927   7.376   7.590   5.558 -0.5140  1.4943 -0.4527
14328TIP3    H242928   7.452   7.647   5.440  1.3286 -0.3726 -0.2427
14329TIP3   OH242929   6.868   6.518   0.199  1.1075  0.2740 -0.0368
14329TIP3    H142930   6.839   6.494   0.287  0.6343  1.3085  0.1121
14329TIP3    H242931   6.961   6.499   0.198  1.3131  1.1106  1.0189
14330TIP3   OH242932   6.401   2.706   4.988  0.1768  0.0407 -0.4511
14330TIP3    H142933   6.490   2.719   4.955  1.0533 -1.6299  1.0900
14330TIP3    H242934   6.380   2.615   4.967  0.2172 -0.6413  2.1306
14331TIP3   OH242935   5.899   5.785   2.272  0.6386  0.6735  0.0211
14331TIP3    H142936   5.861   5.747   2.352  1.9570  0.7826  0.7300
14331TIP3    H242937   5.863   5.873   2.268 -1.2482 -0.0841 -0.7977
14332TIP3   OH242938   2.540   4.233   2.430  0.1290  0.4861  0.1110
14332TIP3    H142939   2.503   4.149   2.401  0.8322 -0.3194  1.4626
14332TIP3    H242940   2.598   4.259   2.358 -1.0974  0.5190 -0.9146
14333TIP3   OH242941   6.217   0.626   2.410  0.3467 -0.2865 -0.2743
14333TIP3    H142942   6.152   0.652   2.344  0.5319 -0.9537 -0.7205
14333TIP3    H242943   6.301   0.636   2.366  0.5692  0.6517  0.3316
14334TIP3   OH242944   4.834   7.241   3.151 -0.0089 -0.4074 -0.0879
14334TIP3    H142945   4.753   7.198   3.123 -0.2442 -0.3067  0.4327
14334TIP3    H242946   4.904   7.185   3.116 -0.2683 -2.6135  2.5592
14335TIP3   OH242947   4.211   0.787   3.850  0.0952  0.4995  0.3644
14335TIP3    H142948   4.154   0.765   3.924  0.3582  0.3760  0.5298
14335TIP3    H242949   4.168   0.863   3.809 -0.8126 -0.3031 -0.2134
14336TIP3   OH242950   0.276   7.759   5.406 -0.4945 -0.3154 -0.3054
14336TIP3    H142951   0.204   7.801   5.451 -0.9520  0.5543 -1.7717
14336TIP3    H242952   0.354   7.808   5.433 -0.3570 -1.4463  1.5131
14337TIP3   OH242953   5.084   0.839   1.379 -0.0042 -0.1716  0.4868
14337TIP3    H142954   5.127   0.910   1.330 -1.5959 -0.3743 -1.2912
14337TIP3    H242955   5.157   0.784   1.408  1.0458 -0.2601 -2.0208
14338TIP3   OH242956   7.422   7.838   2.920  0.0414  0.4230  0.3914
14338TIP3    H142957   7.400   7.746   2.905  1.0189  0.1467  0.5701
14338TIP3    H242958   7.476   7.862   2.845 -0.6087  1.0015  0.1026
14339TIP3   OH242959   7.462   3.349   3.127  0.4171  0.3598 -0.1553
14339TIP3    H142960   7.449   3.337   3.033  0.3437  0.6840 -0.1884
14339TIP3    H242961   7.422   3.434   3.146  0.4505  0.3054  0.1652
14340TIP3   OH242962   3.488   6.713   4.489  0.6750 -0.3522  0.5635
14340TIP3    H142963   3.399   6.687   4.464  0.6617 -0.3643  0.6249
14340TIP3    H242964   3.522   6.640   4.539  1.3348 -1.0803 -0.8969
14341TIP3   OH242965   7.026   0.895   3.538 -0.1057 -0.1467  0.4827
14341TIP3    H142966   7.094   0.831   3.517 -0.1666 -0.0559 -0.0209
14341TIP3    H242967   6.947   0.843   3.551 -0.3743 -0.1160 -0.8977
14342TIP3   OH242968   6.520   4.759   6.161  0.5920  0.3809 -0.2178
14342TIP3    H142969   6.513   4.818   6.086 -0.9914 -0.5558 -0.8531
14342TIP3    H242970   6.457   4.690   6.143  0.8056 -0.3296  1.5753
14343TIP3   OH242971   6.584   4.698   4.423  0.0932 -0.2539  0.0276
14343TIP3    H142972   6.508   4.750   4.451 -0.5865 -0.4499 -1.3861
14343TIP3    H242973   6.612   4.653   4.503 -0.2539  1.0831  0.9371
14344TIP3   OH242974   6.003   5.164   6.139  0.0432 -0.6224  0.4097
14344TIP3    H142975   6.019   5.250   6.178 -0.3390 -0.4758  0.2415
14344TIP3    H242976   5.908   5.154   6.139  0.0786 -0.9907  0.3073
14345TIP3   OH242977   0.976   4.391   6.403  0.0951  0.3138 -0.8831
14345TIP3    H142978   0.975   4.387   6.499  2.5866 -0.6095 -0.8233
14345TIP3    H242979   0.886   4.372   6.377 -0.4055 -0.5147  1.2516
14346TIP3   OH242980   4.113   1.016   6.384 -0.2885 -0.1694  0.4012
14346TIP3    H142981   4.104   1.102   6.427  0.9866  0.2213 -0.0950
14346TIP3    H242982   4.131   0.955   6.456  0.5666  0.2769  0.5779
14347TIP3   OH242983   6.982   5.477   3.924 -0.2726 -0.2084  0.6862
14347TIP3    H142984   7.020   5.437   3.846  1.4246 -0.4105  1.5702
14347TIP3    H242985   6.971   5.569   3.900  1.9739  0.1325  0.7600
14348TIP3   OH242986   5.971   0.072   1.838  0.1148 -0.1287 -0.3982
14348TIP3    H142987   5.924   0.149   1.871 -0.3093 -0.7847  0.5865
14348TIP3    H242988   5.944   0.066   1.746  0.9342  1.4592 -0.7797
14349TIP3   OH242989   7.903   6.094   1.850 -0.1510  0.1619  0.1036
14349TIP3    H142990   7.808   6.101   1.840 -0.3347 -1.4103  0.4744
14349TIP3    H242991   7.928   6.026   1.788  0.6185 -0.0097  0.5932
14350TIP3   OH242992   7.316   1.280   1.331  0.4599  0.0298  0.9544
14350TIP3    H142993   7.273   1.347   1.384 -0.3844  0.3321 -0.0676
14350TIP3    H242994   7.299   1.198   1.377  2.3310  0.5724  2.7406
14351TIP3   OH242995   3.476   1.627   2.839 -0.8874  0.1720 -0.1392
14351TIP3    H142996   3.541   1.639   2.908 -1.0072  1.7788 -0.2644
14351TIP3    H242997   3.503   1.547   2.794 -1.3780 -1.5223  2.3565
14352TIP3   OH242998   1.393   2.250   5.403  0.2994  0.1222  0.1479
14352TIP3    H142999   1.419   2.230   5.313  1.1434  0.1241  0.3830
14352TIP3    H243000   1.357   2.168   5.437 -1.7851  0.5797 -0.7609
14353TIP3   OH243001   3.949   0.378   3.023  0.7428  0.1254 -0.2879
14353TIP3    H143002   4.018   0.434   3.060  2.2544 -2.2172  0.6769
14353TIP3    H243003   3.984   0.352   2.937  0.2818  0.2805 -0.5213
14354TIP3   OH243004   0.775   1.798   2.668 -0.0926 -0.0203 -0.8305
14354TIP3    H143005   0.815   1.874   2.625  1.5555 -0.2083  0.2616
14354TIP3    H243006   0.701   1.835   2.717  1.8150  1.3201  1.2680
14355TIP3   OH243007   2.807   1.261   2.145  0.1698 -0.2865  0.0585
14355TIP3    H143008   2.847   1.174   2.148  0.8803 -0.0927 -1.9729
14355TIP3    H243009   2.715   1.245   2.127 -0.0870 -0.6511  1.6087
14356TIP3   OH243010   6.238   0.922   4.113  0.1047 -0.1558  0.5408
14356TIP3    H143011   6.149   0.926   4.078  0.2786 -1.2659 -0.0819
14356TIP3    H243012   6.287   0.985   4.060 -0.3550  0.6303  1.0418
14357TIP3   OH243013   2.485   5.132   4.462  0.6009  0.1688  0.1431
14357TIP3    H143014   2.544   5.205   4.444  1.2566 -0.2368  0.6276
14357TIP3    H243015   2.538   5.068   4.508  0.5608 -1.4968 -1.9850
14358TIP3   OH243016   7.078   7.845   4.636 -0.3020  0.4236 -0.0455
14358TIP3    H143017   7.119   7.758   4.641 -0.2471  0.5055  1.0859
14358TIP3    H243018   7.012   7.844   4.705  0.4326  1.6638  0.7000
14359TIP3   OH243019   5.340   7.792   5.175  0.1997  0.1463  0.8616
14359TIP3    H143020   5.348   7.697   5.166 -1.3438  0.1742 -3.2125
14359TIP3    H243021   5.398   7.827   5.108 -3.6082  1.6217 -2.0760
14360TIP3   OH243022   0.656   6.233   4.641  0.6078 -0.5370  0.2046
14360TIP3    H143023   0.688   6.310   4.593  1.0542  0.1813  1.5871
14360TIP3    H243024   0.572   6.261   4.677 -0.7160 -1.7470 -1.7466
14361TIP3   OH243025   2.623   5.297   1.983  0.0859 -0.1888 -0.1959
14361TIP3    H143026   2.666   5.380   1.962  0.5020 -0.8749 -2.4009
14361TIP3    H243027   2.695   5.238   2.006  0.4503 -1.2087 -3.4313
14362TIP3   OH243028   3.749   1.556   0.449 -0.4316  0.3455 -0.1026
14362TIP3    H143029   3.844   1.562   0.439 -0.4495  0.3234 -0.2876
14362TIP3    H243030   3.718   1.525   0.364 -0.5916  0.2283 -0.0014
14363TIP3   OH243031   4.360   7.594   2.587  0.3202 -0.5058 -0.7114
14363TIP3    H143032   4.404   7.626   2.509  2.3739 -1.7329 -0.1302
14363TIP3    H243033   4.313   7.516   2.557 -2.1266  1.1484 -1.4647
14364TIP3   OH243034   5.324   5.596   1.144 -0.4652 -0.0352  0.4080
14364TIP3    H143035   5.393   5.662   1.147  1.3521 -1.6005 -2.4971
14364TIP3    H243036   5.283   5.608   1.058  1.4869 -3.9770 -1.2853
14365TIP3   OH243037   4.114   5.193   5.938 -0.1269  0.2594  0.2273
14365TIP3    H143038   4.025   5.164   5.917  0.8262 -1.9047 -1.1306
14365TIP3    H243039   4.104   5.244   6.019 -2.3364 -1.6553  1.2772
14366TIP3   OH243040   1.573   6.946   3.437  0.3442 -0.3964  0.2601
14366TIP3    H143041   1.583   7.019   3.376 -0.6266  0.8778  1.5510
14366TIP3    H243042   1.490   6.964   3.482  0.6218 -1.7293  1.3686
14367TIP3   OH243043   2.932   6.257   4.635 -0.1692 -0.7061  0.3415
14367TIP3    H143044   2.966   6.205   4.562 -1.5335 -2.0014  0.5686
14367TIP3    H243045   2.864   6.311   4.597 -2.0956 -2.6268  0.8427
14368TIP3   OH243046   1.769   1.211   0.948 -0.2992  0.2562  0.0884
14368TIP3    H143047   1.674   1.207   0.963 -0.3294 -0.0875 -0.1954
14368TIP3    H243048   1.785   1.304   0.931 -0.4597  0.4474  0.9310
14369TIP3   OH243049   5.330   4.219   6.668  0.8250 -0.8721 -0.4723
14369TIP3    H143050   5.380   4.146   6.630  1.4856 -0.7244  0.0934
14369TIP3    H243051   5.374   4.237   6.751 -0.3324 -0.8978  0.1662
14370TIP3   OH243052   2.737   2.721   0.983  0.7075  0.6916 -1.0848
14370TIP3    H143053   2.766   2.642   0.937 -0.9247 -1.2155  0.9160
14370TIP3    H243054   2.702   2.688   1.067 -0.6557  3.4752 -0.4504
14371TIP3   OH243055   2.571   6.693   3.880 -0.0725  0.8318  0.5882
14371TIP3    H143056   2.516   6.648   3.944 -0.3500  1.5064  0.8296
14371TIP3    H243057   2.600   6.623   3.821 -0.4123  0.3201  1.0129
14372TIP3   OH243058   3.965   0.883   5.895  0.3047 -0.4449 -0.1498
14372TIP3    H143059   3.985   0.973   5.868 -0.8062 -0.2427 -0.3443
14372TIP3    H243060   3.978   0.883   5.989  0.1977 -0.0456 -0.1322
14373TIP3   OH243061   7.815   7.793   4.484 -0.1961 -0.2719 -0.1922
14373TIP3    H143062   7.854   7.735   4.550 -0.1806  1.4640  1.3934
14373TIP3    H243063   7.721   7.778   4.493 -0.1491 -0.8784 -0.6118
14374TIP3   OH243064   5.237   3.961   3.254  0.1119  0.5966 -0.5402
14374TIP3    H143065   5.195   3.977   3.170 -0.0069 -1.5821 -0.9625
14374TIP3    H243066   5.190   3.886   3.290  0.1752  1.4545  1.4944
14375TIP3   OH243067   1.530   7.647   4.544  0.6490 -0.6919 -0.1131
14375TIP3    H143068   1.441   7.645   4.581  1.1123  0.4094  1.1215
14375TIP3    H243069   1.517   7.676   4.454 -0.1691  0.7638  0.4322
14376TIP3   OH243070   4.787   0.323   1.240 -0.4465  0.2530 -0.3051
14376TIP3    H143071   4.848   0.309   1.168  0.9405  1.1622  0.6448
14376TIP3    H243072   4.749   0.409   1.224  0.6274  0.9177  0.5276
14377TIP3   OH243073   8.217   4.122   2.979 -0.3943  0.4845 -0.5021
14377TIP3    H143074   8.219   4.068   3.058  0.2198  1.2932  0.0530
14377TIP3    H243075   8.237   4.061   2.908  1.0553  0.1075  0.1964
14378TIP3   OH243076   2.545   3.657   3.487  0.1025 -0.3631 -0.9028
14378TIP3    H143077   2.539   3.577   3.435 -0.5932  0.2916 -1.8585
14378TIP3    H243078   2.492   3.640   3.564  0.9027 -1.2356 -0.5182
14379TIP3   OH243079   4.465   1.735   0.224  0.3842  0.6416 -0.0784
14379TIP3    H143080   4.371   1.753   0.213 -0.5160 -2.4029  1.4831
14379TIP3    H243081   4.489   1.782   0.303 -0.8337 -1.3355  1.5630
14380TIP3   OH243082   1.571   3.663   2.301  0.5453  0.7614 -0.3537
14380TIP3    H143083   1.621   3.587   2.330 -1.5448  0.3745  2.7525
14380TIP3    H243084   1.635   3.734   2.297  2.5559 -0.9848 -3.3540
14381TIP3   OH243085   5.065   2.408   3.411 -0.8309  0.2565  0.4953
14381TIP3    H143086   4.979   2.440   3.383 -0.5249  0.9634  0.3322
14381TIP3    H243087   5.127   2.457   3.357 -0.2776  0.6182  1.4319
14382TIP3   OH243088   7.592   5.996   4.684  0.2896  0.0060 -0.0975
14382TIP3    H143089   7.683   6.026   4.695  0.2929 -0.1532  0.3515
14382TIP3    H243090   7.593   5.946   4.603  0.8678 -0.9572  0.4789
14383TIP3   OH243091   8.159   3.450   2.766 -0.1360  0.0494 -0.3011
14383TIP3    H143092   8.238   3.398   2.786 -0.3125  0.7685  2.7495
14383TIP3    H243093   8.146   3.438   2.672  1.0313 -3.7215 -0.1560
14384TIP3   OH243094   0.563   2.426   6.599  0.1302 -0.5068  0.1806
14384TIP3    H143095   0.553   2.431   6.504 -1.8274 -0.7802  0.3232
14384TIP3    H243096   0.649   2.385   6.612  0.7156  0.1417 -1.4416
14385TIP3   OH243097   2.577   5.739   5.301  0.2133  0.5585  0.5838
14385TIP3    H143098   2.517   5.812   5.314 -0.3016  0.0173  1.3591
14385TIP3    H243099   2.541   5.668   5.355  0.3817 -0.4497 -0.5852
14386TIP3   OH243100   1.786   5.646   0.676 -0.1388  0.0842  0.6081
14386TIP3    H143101   1.735   5.707   0.623  0.3447 -1.2863 -1.5909
14386TIP3    H243102   1.877   5.670   0.658  0.0314 -0.2760  0.9750
14387TIP3   OH243103   2.281   5.537   1.220 -0.2952  0.1590  0.3998
14387TIP3    H143104   2.354   5.488   1.256 -1.6074 -1.3274  1.1383
14387TIP3    H243105   2.295   5.627   1.251  0.7333 -0.2747  1.2508
14388TIP3   OH243106   8.275   2.444   1.198 -0.8176 -0.1188 -0.1847
14388TIP3    H143107   8.216   2.489   1.258  3.2785  2.1094  2.6517
14388TIP3    H243108   8.297   2.362   1.243  0.0315  0.1836 -0.0395
14389TIP3   OH243109   6.613   6.865   3.429  0.4135 -0.0582  0.2486
14389TIP3    H143110   6.605   6.906   3.343 -0.3395  1.0213  0.8125
14389TIP3    H243111   6.587   6.933   3.490  0.1242 -1.0793  1.2881
14390TIP3   OH243112   7.510   6.977   3.020 -0.0456  0.4995 -0.2390
14390TIP3    H143113   7.580   6.979   3.086  1.0477  0.7469 -1.3525
14390TIP3    H243114   7.489   6.884   3.010  0.2202  0.4089  0.0213
14391TIP3   OH243115   3.911   0.092   6.705  0.7304  0.1452 -0.1934
14391TIP3    H143116   3.990   0.084   6.759 -0.9327  0.6881  2.5196
14391TIP3    H243117   3.885   0.001   6.687  1.2965 -0.0519 -0.0331
14392TIP3   OH243118   3.542   7.340   0.515  0.0871  0.0086  0.7024
14392TIP3    H143119   3.493   7.284   0.575 -0.7861 -0.1667 -0.1588
14392TIP3    H243120   3.488   7.418   0.505  2.6321  2.5679  4.3078
14393TIP3   OH243121   2.126   3.741   2.900 -0.3423  0.3577 -0.0711
14393TIP3    H143122   2.160   3.823   2.934 -0.1434  0.6328 -0.8991
14393TIP3    H243123   2.033   3.758   2.885 -0.2747  0.4752 -0.3621
14394TIP3   OH243124   1.839   7.709   6.052  0.0974 -0.3863 -0.0128
14394TIP3    H143125   1.858   7.785   5.997 -1.6329 -0.8398 -1.3436
14394TIP3    H243126   1.905   7.645   6.028  1.4531  0.5807  0.9805
14395TIP3   OH243127   3.986   7.712   0.892 -0.2566 -0.0662  0.5294
14395TIP3    H143128   3.992   7.806   0.909  0.4569 -0.0808  0.3671
14395TIP3    H243129   3.990   7.672   0.979  4.2279 -0.1848  0.4863
14396TIP3   OH243130   0.692   2.292   6.130 -0.3601  0.5730  0.1468
14396TIP3    H143131   0.707   2.372   6.080 -0.2791 -0.7855 -2.1643
14396TIP3    H243132   0.615   2.253   6.089 -1.0577 -0.0326  1.9357
14397TIP3   OH243133   4.347   1.720   1.643 -0.5287 -0.2780 -0.4779
14397TIP3    H143134   4.310   1.797   1.599 -0.0359 -0.3254 -0.9770
14397TIP3    H243135   4.271   1.667   1.666 -0.7348 -1.0246 -2.6883
14398TIP3   OH243136   0.801   7.562   0.049 -0.6077 -0.2516  0.0626
14398TIP3    H143137   0.734   7.521  -0.006 -1.0917  1.2677 -0.5465
14398TIP3    H243138   0.857   7.490   0.077 -1.4534 -1.3158 -0.8837
14399TIP3   OH243139   3.721   6.113   0.044  0.3998  0.1129  0.1854
14399TIP3    H143140   3.794   6.171   0.063  1.1081 -0.7626  0.2118
14399TIP3    H243141   3.691   6.139  -0.043 -0.3155  1.5426  0.8319
14400TIP3   OH243142   5.813   0.311   0.118 -0.3210  0.4130 -0.4072
14400TIP3    H143143   5.762   0.239   0.082  0.1381 -0.2592  0.2601
14400TIP3    H243144   5.901   0.276   0.128  0.2133  1.4533 -1.2336
14401TIP3   OH243145   7.205   3.745   4.652 -0.7643 -0.2643 -0.1217
14401TIP3    H143146   7.279   3.805   4.660 -0.2219 -0.5147 -2.4721
14401TIP3    H243147   7.137   3.783   4.707  0.3958  1.1460  0.3947
14402TIP3   OH243148   0.232   2.165   5.244 -0.4757 -0.2958 -0.0225
14402TIP3    H143149   0.156   2.147   5.189 -1.3599 -0.4179  1.2150
14402TIP3    H243150   0.197   2.182   5.331  0.8813  0.0901  0.4883
14403TIP3   OH243151   7.611   5.620   5.388 -0.1987 -0.4087 -0.3999
14403TIP3    H143152   7.619   5.607   5.482  1.2499 -0.2388 -0.4789
14403TIP3    H243153   7.612   5.532   5.351  0.7600 -0.4266 -0.3484
14404TIP3   OH243154   4.815   7.299   0.231  0.1212  0.5853 -0.3710
14404TIP3    H143155   4.736   7.337   0.269  0.5171  2.1489 -1.0118
14404TIP3    H243156   4.827   7.217   0.277 -1.9698  0.2284 -0.3770
14405TIP3   OH243157   8.189   0.370   1.245  0.2659  0.0122 -0.0082
14405TIP3    H143158   8.213   0.445   1.191  1.1886 -0.0276  0.3279
14405TIP3    H243159   8.260   0.308   1.233 -0.0918 -0.4767  0.3535
14406TIP3   OH243160   5.529   7.454   2.100  0.1337  0.2473  0.5774
14406TIP3    H143161   5.551   7.536   2.056 -1.0098  0.5127  0.4642
14406TIP3    H243162   5.600   7.440   2.162  1.2744  0.3751 -0.6646
14407TIP3   OH243163   3.414   2.333   2.113 -0.4799 -0.8264  0.2723
14407TIP3    H143164   3.327   2.335   2.073 -1.2100 -0.7469  1.7790
14407TIP3    H243165   3.470   2.292   2.047 -2.3521 -4.1314  0.4885
14408TIP3   OH243166   6.443   4.400   0.895 -0.0543 -0.2391  0.1000
14408TIP3    H143167   6.508   4.337   0.927 -0.5124 -0.4228  0.7070
14408TIP3    H243168   6.420   4.452   0.972 -1.4046 -0.8841  0.1774
14409TIP3   OH243169   5.516   2.430   6.172 -0.2573  0.1675 -0.2662
14409TIP3    H143170   5.528   2.339   6.147 -2.6762  0.2315 -1.9767
14409TIP3    H243171   5.421   2.443   6.175 -0.0340  2.1344  1.9893
14410TIP3   OH243172   5.802   0.849   1.533 -0.3148  0.7718 -0.1683
14410TIP3    H143173   5.811   0.849   1.437 -1.5738 -3.1505 -0.4716
14410TIP3    H243174   5.883   0.810   1.564 -0.2262  1.3349  0.3061
14411TIP3   OH243175   3.772   0.030   2.598 -0.0211  0.2584 -0.3729
14411TIP3    H143176   3.759   0.120   2.569 -0.2221 -0.1029 -1.4404
14411TIP3    H243177   3.783  -0.020   2.518  2.5608 -0.3266  0.2520
14412TIP3   OH243178   7.991   1.380   4.547 -0.0775 -0.0916 -0.6853
14412TIP3    H143179   7.953   1.307   4.596 -0.2143  0.4397  0.0193
14412TIP3    H243180   7.927   1.451   4.556 -0.1082  0.0126 -1.6527
14413TIP3   OH243181   4.050   0.004   4.759 -0.6065  0.7799  0.7746
14413TIP3    H143182   4.093   0.089   4.758  0.5225  0.2503 -1.4355
14413TIP3    H243183   4.088  -0.042   4.834 -0.9098  2.0234  1.7232
14414TIP3   OH243184   1.894   2.104   1.001  0.2251  0.0723  0.2893
14414TIP3    H143185   1.852   2.189   1.010  0.8677  0.5149 -0.7848
14414TIP3    H243186   1.936   2.089   1.085 -2.0838 -0.4135  1.4443
14415TIP3   OH243187   0.312   1.971   2.729 -0.1957  0.1904 -0.1359
14415TIP3    H143188   0.227   2.002   2.698 -0.5370  0.4587  1.0123
14415TIP3    H243189   0.296   1.879   2.754 -0.5708  0.6761  1.5351
14416TIP3   OH243190   2.925   5.392   1.218 -0.2028 -0.4616  0.4968
14416TIP3    H143191   2.883   5.309   1.194  1.1769 -0.7903 -0.9368
14416TIP3    H243192   2.903   5.452   1.147 -1.1286  0.4123  1.4908
14417TIP3   OH243193   5.570   1.499   1.318  0.3532  0.4826  0.5157
14417TIP3    H143194   5.564   1.405   1.306 -0.4658  0.4910  0.8098
14417TIP3    H243195   5.662   1.515   1.337  0.3275 -0.3683  1.3976
14418TIP3   OH243196   6.614   0.062   4.327 -0.8377 -0.1948 -0.0141
14418TIP3    H143197   6.681  -0.005   4.341 -0.6632 -1.0608 -3.7759
14418TIP3    H243198   6.659   0.145   4.345  0.9778 -0.8071 -1.3963
14419TIP3   OH243199   2.950   1.051   2.126 -0.2825  0.2453  0.6295
14419TIP3    H143200   2.921   0.989   2.193 -0.5245  1.2819  1.5059
14419TIP3    H243201   3.041   1.025   2.107 -1.1402 -1.9442 -0.8887
14420TIP3   OH243202   4.648   1.843   2.263 -0.3830 -0.2560 -0.2477
14420TIP3    H143203   4.672   1.775   2.200 -0.5355  0.7035 -1.3759
14420TIP3    H243204   4.555   1.828   2.280 -0.4614 -0.2273 -0.6394
14421TIP3   OH243205   7.640   4.188   6.017  0.1466 -0.0853  0.2591
14421TIP3    H143206   7.701   4.115   6.001  1.8116  0.8755  1.8295
14421TIP3    H243207   7.614   4.178   6.108  0.2538  1.1697  0.4437
14422TIP3   OH243208   4.589   2.397   5.575 -0.2786 -0.3555  0.5810
14422TIP3    H143209   4.658   2.463   5.578  0.3378 -0.8743 -1.0144
14422TIP3    H243210   4.618   2.335   5.508 -1.1997 -1.8400  1.5076
14423TIP3   OH243211   7.727   1.465   0.778  0.6244  0.4775 -0.0476
14423TIP3    H143212   7.747   1.391   0.721 -0.3909 -0.4248  0.7150
14423TIP3    H243213   7.729   1.429   0.866 -0.2065  1.2727  0.3183
14424TIP3   OH243214   4.869   7.097   5.062  0.0677  0.3993  0.9396
14424TIP3    H143215   4.898   7.187   5.049  1.1930 -0.0943 -0.2365
14424TIP3    H243216   4.815   7.077   4.985  0.1183 -0.0389  1.0111
14425TIP3   OH243217   3.463   2.422   2.480 -1.0514 -0.9355  0.1787
14425TIP3    H143218   3.419   2.355   2.428 -0.7741 -1.1557  0.2248
14425TIP3    H243219   3.462   2.388   2.570  1.5213 -2.2057 -0.1864
14426TIP3   OH243220   5.031   5.076   0.663  0.1913 -0.2168 -0.1857
14426TIP3    H143221   5.086   5.078   0.741 -1.1418 -0.0146  0.7688
14426TIP3    H243222   5.008   5.168   0.647  0.3390 -0.2717 -0.7418
14427TIP3   OH243223   7.254   0.670   1.206 -0.1421 -0.0266 -0.1955
14427TIP3    H143224   7.321   0.737   1.195  1.1488 -0.9837  1.3319
14427TIP3    H243225   7.201   0.700   1.280  0.4697 -0.6945  0.5253
14428TIP3   OH243226   6.465   3.233   1.491  0.1839  0.1599  0.2564
14428TIP3    H143227   6.443   3.310   1.543 -0.3687 -0.1688  0.5135
14428TIP3    H243228   6.482   3.165   1.556 -1.9322 -0.6544  0.0394
14429TIP3   OH243229   7.617   1.769   0.193 -0.2434  0.2779  0.2019
14429TIP3    H143230   7.642   1.677   0.202 -1.7743 -0.1438  0.4398
14429TIP3    H243231   7.524   1.771   0.216  0.4301  2.3839  3.3707
14430TIP3   OH243232   4.326   0.696   4.194  0.5200 -0.3046  0.2618
14430TIP3    H143233   4.379   0.750   4.135  0.2496 -0.9428 -0.5843
14430TIP3    H243234   4.258   0.756   4.225  2.6190  1.0325  2.7268
14431TIP3   OH243235   2.947   5.420   1.501 -0.2428 -0.3088  0.2275
14431TIP3    H143236   3.029   5.380   1.527  1.0131  1.3651 -0.9573
14431TIP3    H243237   2.951   5.424   1.406 -1.7025 -0.1661  0.1410
14432TIP3   OH243238   6.320   4.843   0.208  0.4211  0.5445  0.2087
14432TIP3    H143239   6.384   4.775   0.228  0.2421  0.5671  0.8905
14432TIP3    H243240   6.346   4.876   0.122  1.7316  1.0307  0.7789
14433TIP3   OH243241   7.564   7.343   5.220 -0.2349 -0.0733  0.2083
14433TIP3    H143242   7.472   7.334   5.194 -0.1299 -1.2426  0.1796
14433TIP3    H243243   7.578   7.274   5.285 -0.2747  2.2895  2.8944
14434TIP3   OH243244   6.600   7.087   0.701 -0.1583  0.4064 -0.3962
14434TIP3    H143245   6.676   7.044   0.741 -1.4733  0.1785  2.0248
14434TIP3    H243246   6.564   7.021   0.642 -0.4290 -0.8008  1.0489
14435TIP3   OH243247   4.721   6.035   4.570 -0.4368 -0.5091 -0.0544
14435TIP3    H143248   4.705   6.001   4.482 -2.0375  0.2116 -0.0730
14435TIP3    H243249   4.804   5.995   4.596 -0.2984 -1.3111 -1.5960
14436TIP3   OH243250   3.808   3.576   5.050  0.3900 -0.7144  0.4066
14436TIP3    H143251   3.884   3.550   4.998 -0.7296  1.0451 -2.3720
14436TIP3    H243252   3.749   3.501   5.045  0.5901 -0.8335 -0.3890
14437TIP3   OH243253   4.408   1.792   6.580  0.0784  0.2750 -0.7415
14437TIP3    H143254   4.439   1.752   6.499  0.6993  1.7238 -1.2661
14437TIP3    H243255   4.476   1.773   6.645  0.4538  0.6360 -1.0301
14438TIP3   OH243256   1.766   3.584   4.111  0.2941 -0.0814 -0.5970
14438TIP3    H143257   1.727   3.531   4.041 -1.5649 -0.6416  0.7806
14438TIP3    H243258   1.692   3.607   4.168  1.3416  2.4648 -0.1350
14439TIP3   OH243259   3.495   4.752   0.638  0.0864 -0.1444 -0.3952
14439TIP3    H143260   3.459   4.664   0.650  0.9245 -0.4864 -0.3476
14439TIP3    H243261   3.590   4.741   0.644  0.2462  0.6312 -1.2948
14440TIP3   OH243262   7.659   7.109   5.982  0.0510  0.1536  0.3043
14440TIP3    H143263   7.671   7.116   6.077 -1.2946  1.5890  0.4122
14440TIP3    H243264   7.601   7.182   5.960  1.2579  0.5420 -1.8091
14441TIP3   OH243265   6.368   2.142   3.075 -0.2242 -0.2719 -0.0204
14441TIP3    H143266   6.405   2.167   2.991 -1.3116  1.6651  0.0037
14441TIP3    H243267   6.408   2.203   3.137 -0.7760 -0.5001  0.5660
14442TIP3   OH243268   7.764   1.263   0.581  0.3961 -0.3531  0.0107
14442TIP3    H143269   7.847   1.241   0.539  0.5232  1.2987 -0.6909
14442TIP3    H243270   7.706   1.286   0.508  0.5057  2.2242  0.6256
14443TIP3   OH243271   1.660   5.054   2.322 -0.6098  0.5591  0.2710
14443TIP3    H143272   1.682   5.002   2.399  2.1431  1.8288  0.4812
14443TIP3    H243273   1.607   5.126   2.355 -0.4309  0.4581  0.7896
14444TIP3   OH243274   4.845   2.683   3.263  0.0753  0.3736 -0.3731
14444TIP3    H143275   4.790   2.605   3.258 -1.4274  1.3538 -0.0774
14444TIP3    H243276   4.890   2.687   3.179 -0.2471 -0.5178 -0.5983
14445TIP3   OH243277   3.615   0.229   1.652  0.3065 -0.0678 -0.0614
14445TIP3    H143278   3.586   0.138   1.640  0.3410 -0.0517 -0.2703
14445TIP3    H243279   3.682   0.241   1.585 -0.6436  0.5323 -0.9231
14446TIP3   OH243280   1.897   2.169   2.695  0.0151 -0.6527 -0.1480
14446TIP3    H143281   1.955   2.225   2.643 -0.1009  0.3764  0.7991
14446TIP3    H243282   1.847   2.120   2.630 -1.1232  1.6038 -1.0812
14447TIP3   OH243283   4.653   2.015   0.185  0.1578  0.7761  0.5531
14447TIP3    H143284   4.662   2.110   0.188  0.0582  1.0280 -2.9372
14447TIP3    H243285   4.660   1.993   0.092  2.3449 -2.8861  1.3956
14448TIP3   OH243286   0.584   7.245   2.408 -0.0247 -0.5168  0.2540
14448TIP3    H143287   0.492   7.239   2.383 -0.4527  0.7019  1.4176
14448TIP3    H243288   0.587   7.215   2.499  1.1686 -2.9338 -0.4981
14449TIP3   OH243289   4.464   7.192   2.001 -0.2251  0.3131 -0.2016
14449TIP3    H143290   4.450   7.160   2.090 -0.6339  2.5256  0.5846
14449TIP3    H243291   4.379   7.225   1.973  0.8125  4.0670  0.5274
14450TIP3   OH243292   0.819   0.282   2.804 -0.1531 -0.3285  0.0396
14450TIP3    H143293   0.847   0.195   2.774  1.6431  0.1005  0.3267
14450TIP3    H243294   0.797   0.268   2.897  0.8161 -0.3674  0.2787
14451TIP3   OH243295   0.844   2.557   4.087 -0.0936  0.0304  0.2603
14451TIP3    H143296   0.773   2.621   4.086  0.9542  1.4188  3.0560
14451TIP3    H243297   0.920   2.606   4.055  0.2430 -0.5158  0.2143
14452TIP3   OH243298   4.532   0.458   0.152 -0.4412  0.1443 -0.4239
14452TIP3    H143299   4.575   0.527   0.202  1.0887 -1.2256  0.2558
14452TIP3    H243300   4.588   0.446   0.075  0.5094 -1.6578  0.4684
14453TIP3   OH243301   2.181   0.288   5.446 -0.0966  0.2510  0.1405
14453TIP3    H143302   2.176   0.194   5.466 -1.2622  0.3687  0.4467
14453TIP3    H243303   2.271   0.301   5.416 -0.1136 -1.0993 -0.5740
14454TIP3   OH243304   6.726   4.864   0.775  0.1365  0.7565 -0.2336
14454TIP3    H143305   6.750   4.811   0.699 -0.3506  1.4601 -0.8854
14454TIP3    H243306   6.645   4.826   0.807  0.0437  0.8065 -0.4092
14455TIP3   OH243307   6.434   7.173   2.076 -0.2568 -0.0667  0.2656
14455TIP3    H143308   6.433   7.268   2.060  0.5573 -0.2173 -0.7726
14455TIP3    H243309   6.390   7.163   2.160 -1.5383  1.1179 -0.2250
14456TIP3   OH243310   5.810   5.048   4.086 -0.5358  0.3684 -0.5480
14456TIP3    H143311   5.877   5.075   4.149 -1.8667  0.8214  0.7507
14456TIP3    H243312   5.770   4.970   4.126 -1.8942  1.0954 -0.4284
14457TIP3   OH243313   1.348   5.067   6.411 -0.5302  0.1847  0.5557
14457TIP3    H143314   1.336   5.162   6.420 -4.3084 -0.1576  1.0593
14457TIP3    H243315   1.355   5.053   6.317  0.2877  0.9615  0.4854
14458TIP3   OH243316   2.608   7.810   3.424  0.3006  0.0638 -0.0187
14458TIP3    H143317   2.551   7.774   3.492  1.6009 -0.8249  0.6369
14458TIP3    H243318   2.572   7.776   3.342  1.5978 -3.0491  0.5732
14459TIP3   OH243319   6.475   5.735   3.207  0.0924  0.3295  0.0485
14459TIP3    H143320   6.464   5.733   3.302  0.0978  1.9664  0.1187
14459TIP3    H243321   6.445   5.823   3.182 -1.2808 -0.5731 -1.6423
14460TIP3   OH243322   3.472   3.281   6.267  0.0613  0.6995 -0.3163
14460TIP3    H143323   3.461   3.365   6.224  2.0428  0.8596 -0.5885
14460TIP3    H243324   3.486   3.302   6.359  1.8186  0.8018 -0.5739
14461TIP3   OH243325   5.940   3.765   6.100 -0.0963 -0.5030 -0.1020
14461TIP3    H143326   5.899   3.774   6.014 -2.5496 -1.0681  0.9251
14461TIP3    H243327   5.961   3.854   6.126 -1.2127 -0.1269 -0.4396
14462TIP3   OH243328   5.171   6.345   1.007 -0.4906  0.3996  0.0523
14462TIP3    H143329   5.185   6.423   1.060  0.2594 -0.4165  1.0978
14462TIP3    H243330   5.148   6.277   1.071  0.3959 -0.5993 -0.6692
14463TIP3   OH243331   4.742   6.004   2.931 -0.2289 -0.0934 -0.5187
14463TIP3    H143332   4.662   6.045   2.896 -0.0993 -0.7448 -1.6305
14463TIP3    H243333   4.726   5.995   3.024 -1.1448  0.4877 -0.6063
14464TIP3   OH243334   0.164   2.540   4.357 -0.2816  0.2697 -0.1422
14464TIP3    H143335   0.183   2.462   4.409  1.7517 -0.2221 -1.5063
14464TIP3    H243336   0.250   2.577   4.336 -1.1570  2.2751 -0.4720
14465TIP3   OH243337   4.949   4.693   0.258  0.4577  0.4890 -0.0754
14465TIP3    H143338   5.019   4.640   0.296 -0.3823 -1.2146 -0.8041
14465TIP3    H243339   4.942   4.663   0.167 -1.2392  0.5771 -0.0106
14466TIP3   OH243340   7.321   1.761   5.815  0.2708  0.0957  0.2611
14466TIP3    H143341   7.369   1.732   5.738  0.5835 -0.2350  0.5766
14466TIP3    H243342   7.349   1.702   5.885  1.8821  1.8964  1.2389
14467TIP3   OH243343   3.522   5.254   0.605  0.5152  0.2300 -0.0679
14467TIP3    H143344   3.455   5.196   0.644  0.1673  0.6905  0.0239
14467TIP3    H243345   3.542   5.213   0.521  0.1341  0.0764 -0.0876
14468TIP3   OH243346   2.012   4.379   0.573 -0.2084  0.3082 -0.3018
14468TIP3    H143347   1.925   4.340   0.564  0.9843 -2.1294 -2.3085
14468TIP3    H243348   1.997   4.458   0.626 -3.4056 -0.6856  0.4974
14469TIP3   OH243349   1.311   5.967   5.894 -0.2127  0.1704  0.0466
14469TIP3    H143350   1.344   5.992   5.807  0.1339  1.5065  0.5311
14469TIP3    H243351   1.382   5.915   5.932 -0.5759 -0.8656 -0.6480
14470TIP3   OH243352   7.302   0.248   4.508  0.3483  0.4813  0.3726
14470TIP3    H143353   7.276   0.167   4.551  1.1310  1.2047  2.3450
14470TIP3    H243354   7.366   0.220   4.442  2.5858 -0.4057  2.7073
14471TIP3   OH243355   6.842   6.177   1.566  0.1132  0.5983  0.4415
14471TIP3    H143356   6.786   6.169   1.489  2.5274 -0.6632 -1.3145
14471TIP3    H243357   6.844   6.088   1.603  1.2175  0.5401  0.2557
14472TIP3   OH243358   5.854   2.200   1.478 -0.6663 -0.6214  0.0099
14472TIP3    H143359   5.899   2.217   1.395 -1.9725  0.1985 -0.5730
14472TIP3    H243360   5.916   2.148   1.529  2.5609  3.4528  0.7967
14473TIP3   OH243361   6.724   4.823   5.847  0.4094 -0.1055  0.0437
14473TIP3    H143362   6.799   4.882   5.840  0.5080 -0.2522 -0.1298
14473TIP3    H243363   6.657   4.875   5.892 -0.5725  1.1530 -2.6861
14474TIP3   OH243364   3.853   0.196   4.519  0.0809  0.5566 -0.0505
14474TIP3    H143365   3.790   0.199   4.591  1.4637  1.4865  1.1851
14474TIP3    H243366   3.844   0.281   4.475 -1.2209 -0.2511 -1.4559
14475TIP3   OH243367   7.633   2.708   5.265  0.6409 -0.3336  0.1791
14475TIP3    H143368   7.701   2.736   5.325  0.8941 -0.3173 -0.1131
14475TIP3    H243369   7.586   2.789   5.244  0.7619 -0.2852  0.0935
14476TIP3   OH243370   5.667   1.230   1.853  0.0799 -0.0670  0.3867
14476TIP3    H143371   5.703   1.203   1.937  0.1464  1.1312  0.7634
14476TIP3    H243372   5.735   1.286   1.815  0.1645 -0.8009 -0.5998
14477TIP3   OH243373   1.133   3.861   6.176 -0.3014 -0.4580  0.1784
14477TIP3    H143374   1.116   3.898   6.090 -1.6021  2.5424  1.5745
14477TIP3    H243375   1.220   3.893   6.199 -1.5321  2.3073  1.4972
14478TIP3   OH243376   0.999   6.154   5.749 -0.1690 -0.1531  0.1849
14478TIP3    H143377   0.934   6.221   5.726 -0.7126 -1.4066 -2.2309
14478TIP3    H243378   1.082   6.201   5.749 -0.5813  0.6523 -1.1614
14479TIP3   OH243379   6.109   5.654   0.246  0.3077 -0.1038  0.3379
14479TIP3    H143380   6.086   5.567   0.277 -1.3352  0.3958  0.6106
14479TIP3    H243381   6.025   5.699   0.236  0.9582  0.7119 -2.0274
14480TIP3   OH243382   7.962   0.492   6.186 -0.3985 -0.1237  0.1127
14480TIP3    H143383   8.027   0.440   6.138 -0.3626 -0.6656  0.7322
14480TIP3    H243384   7.982   0.476   6.278 -1.1487  0.0321  0.3099
14481TIP3   OH243385   7.368   7.412   0.845  0.0176  0.0023  0.2036
14481TIP3    H143386   7.433   7.482   0.856 -0.4555  0.4151  0.4412
14481TIP3    H243387   7.339   7.393   0.935 -0.7107  0.3335  0.0506
14482TIP3   OH243388   3.287   2.091   5.145 -0.2033  0.6542 -0.3969
14482TIP3    H143389   3.352   2.117   5.080 -0.4670  0.0819 -0.9032
14482TIP3    H243390   3.337   2.074   5.224  0.7429 -2.6027 -1.5140
14483TIP3   OH243391   6.945   1.029   5.702 -0.1457 -0.3522  0.1455
14483TIP3    H143392   6.945   0.947   5.653  1.5060 -0.8233  0.8482
14483TIP3    H243393   7.030   1.068   5.682 -0.3319  0.4800  0.9424
14484TIP3   OH243394   3.021   7.220   2.605  0.1757 -0.3782  0.5955
14484TIP3    H143395   2.998   7.168   2.682  0.0242 -1.0647  0.0918
14484TIP3    H243396   2.938   7.258   2.576  0.4291  0.9523  1.5286
14485TIP3   OH243397   3.521   7.373   3.974  0.1357  0.1991  0.1521
14485TIP3    H143398   3.534   7.286   4.011  1.0390 -0.3213 -1.3025
14485TIP3    H243399   3.600   7.422   3.998 -1.4492  1.5409  3.2123
14486TIP3   OH243400   0.691   2.793   1.431 -0.1316 -0.2045  0.0208
14486TIP3    H143401   0.755   2.811   1.363  0.8749 -0.3187  0.9103
14486TIP3    H243402   0.698   2.867   1.491 -0.7418 -0.2826  0.1972
14487TIP3   OH243403   3.566   3.150   5.033 -0.3508  0.0195  0.2318
14487TIP3    H143404   3.656   3.155   5.001 -0.7404  0.5950 -0.8286
14487TIP3    H243405   3.555   3.059   5.061  0.2269 -0.3286 -0.6313
14488TIP3   OH243406   8.086   2.860   5.512 -0.3421 -0.0311  0.3461
14488TIP3    H143407   8.050   2.845   5.425 -1.6399  1.9792  0.4704
14488TIP3    H243408   8.179   2.843   5.502 -0.4457  0.2251 -1.4635
14489TIP3   OH243409   4.612   4.095   1.964  0.0866 -0.6455 -0.3414
14489TIP3    H143410   4.649   4.008   1.979  3.1067  0.5143 -0.4633
14489TIP3    H243411   4.613   4.106   1.869  0.3332 -0.2312 -0.2940
14490TIP3   OH243412   4.966   4.560   1.004  0.0372  0.4411 -0.1924
14490TIP3    H143413   4.879   4.562   1.043  0.4040 -0.3538  0.6920
14490TIP3    H243414   5.021   4.517   1.069  1.0247  0.6222 -0.8823
14491TIP3   OH243415   1.227   3.509   4.579 -0.3627  0.0222  0.1050
14491TIP3    H143416   1.274   3.509   4.496  0.9995 -0.5606  0.8454
14491TIP3    H243417   1.165   3.581   4.572  0.1846  0.3847 -1.1631
14492TIP3   OH243418   0.590   5.897   4.669  0.2239 -0.1786 -0.1059
14492TIP3    H143419   0.505   5.880   4.709 -0.1721  2.7458  0.5243
14492TIP3    H243420   0.648   5.917   4.742  0.5475  1.1930 -0.7101
14493TIP3   OH243421   6.077   6.710   6.015 -0.0327  0.0524 -0.2983
14493TIP3    H143422   5.994   6.663   6.009 -1.1000  1.6820  0.7767
14493TIP3    H243423   6.070   6.779   5.949  0.2675  0.4742  0.1078
14494TIP3   OH243424   4.663   5.627   3.215  0.9523 -0.0718 -0.5252
14494TIP3    H143425   4.636   5.557   3.274 -0.0552  0.3628 -0.4517
14494TIP3    H243426   4.610   5.614   3.136 -0.2441  1.3573 -0.0158
14495TIP3   OH243427   1.986   6.481   6.114  0.0117 -0.0224 -0.2276
14495TIP3    H143428   2.001   6.452   6.024  0.9625  0.8529 -0.3696
14495TIP3    H243429   2.053   6.548   6.129 -0.8883  0.7009  0.7249
14496TIP3   OH243430   5.065   2.869   6.050 -0.2408  0.1196  0.2595
14496TIP3    H143431   5.053   2.774   6.043 -2.5266  0.1620  2.4098
14496TIP3    H243432   5.039   2.890   6.139 -0.1687  2.8474 -0.2897
14497TIP3   OH243433   6.840   6.848   1.157 -0.2543  0.0509 -0.2209
14497TIP3    H143434   6.906   6.785   1.127 -1.4395 -0.1692 -2.5406
14497TIP3    H243435   6.802   6.807   1.235 -2.1069 -3.0325 -2.5044
14498TIP3   OH243436   1.606   1.424   4.696 -0.2498  0.1451 -0.2078
14498TIP3    H143437   1.593   1.350   4.637  0.0338  1.2262 -1.6772
14498TIP3    H243438   1.701   1.428   4.709 -0.1902  0.6735 -0.7350
14499TIP3   OH243439   5.307   3.020   6.398 -0.0356  0.2650 -0.2122
14499TIP3    H143440   5.302   2.991   6.489 -1.2138 -1.6939 -0.8273
14499TIP3    H243441   5.342   3.109   6.403  0.0151  0.1870  2.1309
14500TIP3   OH243442   3.866   1.633   0.029 -0.0027  0.6691  0.0946
14500TIP3    H143443   3.904   1.684  -0.043 -0.3854 -1.4267 -1.6913
14500TIP3    H243444   3.777   1.669   0.039 -0.9913 -0.7591 -2.4832
14501TIP3   OH243445   7.226   0.377   4.956 -0.3240  0.0337 -1.0235
14501TIP3    H143446   7.136   0.354   4.932 -0.7360  0.2883  0.1960
14501TIP3    H243447   7.224   0.384   5.052  0.2088  3.2653 -1.1594
14502TIP3   OH243448   5.334   5.248   1.343  0.2684  0.1604 -0.1289
14502TIP3    H143449   5.418   5.293   1.335  1.2663 -1.5739 -0.0176
14502TIP3    H243450   5.274   5.298   1.288  0.9008  2.4707  1.1752
14503TIP3   OH243451   6.513   0.916   2.826 -0.6364 -1.0622 -0.3172
14503TIP3    H143452   6.499   0.991   2.883  0.0705 -0.1613 -1.3021
14503TIP3    H243453   6.608   0.911   2.815 -0.7648  1.0848 -4.2814
14504TIP3   OH243454   1.307   1.034   4.994  0.0733  0.4577 -0.6761
14504TIP3    H143455   1.323   1.103   5.059  2.5272  0.4225 -1.1614
14504TIP3    H243456   1.318   1.078   4.910  0.5011 -0.2807 -1.0072
14505TIP3   OH243457   1.137   4.488   2.087  0.1733  0.2106  0.0573
14505TIP3    H143458   1.054   4.470   2.130 -0.1418  0.7164 -0.3252
14505TIP3    H243459   1.193   4.523   2.156 -0.1482  0.4872  0.1815
14506TIP3   OH243460   0.276   4.049   5.189 -0.3540  0.3388 -0.7814
14506TIP3    H143461   0.249   3.957   5.189  0.6739  0.0215 -0.3846
14506TIP3    H243462   0.204   4.095   5.232  0.2662 -0.6803  1.5149
14507TIP3   OH243463   0.881   5.362   0.602 -0.1436  0.0829  0.5862
14507TIP3    H143464   0.848   5.321   0.522  0.7543 -0.1494  0.3207
14507TIP3    H243465   0.959   5.409   0.575  0.7848 -0.8637  1.4931
14508TIP3   OH243466   5.921   7.752   0.208  0.1541 -0.0741  0.2478
14508TIP3    H143467   5.989   7.687   0.194  0.3991  0.3578 -0.6314
14508TIP3    H243468   5.934   7.816   0.138 -3.0047 -1.5196 -1.9054
14509TIP3   OH243469   0.661   2.298   2.185  0.2564 -0.0363 -0.0774
14509TIP3    H143470   0.611   2.272   2.262 -0.3257  0.3235 -0.3303
14509TIP3    H243471   0.618   2.255   2.112  0.5615 -0.0486 -0.2526
14510TIP3   OH243472   7.440   3.425   5.000 -0.5037 -0.1402 -0.2069
14510TIP3    H143473   7.503   3.436   4.928 -0.9189  0.4874 -0.4807
14510TIP3    H243474   7.459   3.338   5.035  1.3941  0.5151  0.5482
14511TIP3   OH243475   2.655   3.993   2.234 -0.0644 -0.2318  0.2733
14511TIP3    H143476   2.715   4.059   2.200 -0.6826  0.1702 -0.0461
14511TIP3    H243477   2.672   3.991   2.328  0.5099 -0.1914  0.1726
14512TIP3   OH243478   3.056   0.501   2.437 -0.0292 -0.8744 -0.5548
14512TIP3    H143479   3.085   0.591   2.426 -0.7954 -0.3247  1.4365
14512TIP3    H243480   3.133   0.448   2.417  1.1404  0.3468  0.5412
14513TIP3   OH243481   6.953   3.724   2.348 -0.3037 -0.2343  0.1676
14513TIP3    H143482   6.860   3.727   2.373 -0.1959 -1.9491  0.8661
14513TIP3    H243483   6.995   3.671   2.415  0.6172 -2.1282 -1.7712
14514TIP3   OH243484   3.119   0.851   4.964  0.1903 -0.3660  0.0453
14514TIP3    H143485   3.177   0.776   4.980  1.6666  0.9756  1.3693
14514TIP3    H243486   3.125   0.903   5.044 -0.1556  1.5580 -1.1185
14515TIP3   OH243487   1.178   7.565   1.546 -0.0662 -0.1751  0.4844
14515TIP3    H143488   1.189   7.638   1.484 -2.2834 -2.0336 -2.3821
14515TIP3    H243489   1.102   7.591   1.599 -0.5485 -0.1653 -0.1971
14516TIP3   OH243490   6.125   4.108   2.092  0.1510  0.7446 -0.2965
14516TIP3    H143491   6.127   4.203   2.079  4.3027  0.6014 -2.3958
14516TIP3    H243492   6.042   4.080   2.052  0.3840  3.2126 -2.8467
14517TIP3   OH243493   6.419   4.642   4.910 -0.0346  0.4031  0.3791
14517TIP3    H143494   6.361   4.712   4.943  0.7785  0.7514  1.1289
14517TIP3    H243495   6.499   4.688   4.884 -0.1805 -0.0393 -0.9065
14518TIP3   OH243496   4.108   3.815   2.429  0.0429 -0.2855  0.4042
14518TIP3    H143497   4.102   3.891   2.487 -2.5013  0.1192 -0.2676
14518TIP3    H243498   4.198   3.815   2.398  0.8245  0.8521  2.5154
14519TIP3   OH243499   1.658   5.444   5.686 -0.5655 -0.0470 -0.2534
14519TIP3    H143500   1.680   5.383   5.616 -2.9371  1.3341 -2.3790
14519TIP3    H243501   1.564   5.435   5.697 -0.4871  0.9753  1.6506
14520TIP3   OH243502   5.829   0.097   5.616  0.3714 -0.0248 -0.1595
14520TIP3    H143503   5.852   0.073   5.526 -0.0954 -0.4565 -0.1731
14520TIP3    H243504   5.832   0.192   5.618  0.0154  0.0018 -0.7357
14521TIP3   OH243505   4.689   0.023   1.266 -0.4901 -0.6223  0.4801
14521TIP3    H143506   4.725   0.083   1.201  0.4220 -0.8172  0.7912
14521TIP3    H243507   4.680  -0.060   1.219  0.6036 -0.8863  0.6998
14522TIP3   OH243508   7.386   5.741   2.809 -0.3965 -0.8030  0.0064
14522TIP3    H143509   7.481   5.746   2.796 -0.3413  0.9706  0.8043
14522TIP3    H243510   7.376   5.717   2.901 -0.7408 -1.7636 -0.2723
14523TIP3   OH243511   1.518   7.179   3.705  0.4859  0.7012 -0.0580
14523TIP3    H143512   1.432   7.170   3.666  0.3169  1.9218  0.0072
14523TIP3    H243513   1.508   7.248   3.770  0.9383 -0.7685  1.6595
14524TIP3   OH243514   2.923   3.990   1.619 -0.2452  0.1339  0.4551
14524TIP3    H143515   2.886   3.932   1.552  1.1920  0.7424 -0.9247
14524TIP3    H243516   2.976   3.932   1.674  2.1433  0.1696 -1.6118
14525TIP3   OH243517   7.016   7.388   2.306  0.0128  0.5256  0.1698
14525TIP3    H143518   7.045   7.425   2.390  1.0173  0.1316  0.0178
14525TIP3    H243519   7.090   7.335   2.277 -1.1943 -1.2381  0.1551
14526TIP3   OH243520   3.042   0.583   3.496  0.0019  0.2175 -0.3732
14526TIP3    H143521   3.007   0.645   3.559 -0.8348  1.0560 -1.6173
14526TIP3    H243522   3.130   0.615   3.476 -0.0016  0.3549 -0.1646
14527TIP3   OH243523   3.291   3.565   6.630  0.0495 -0.1288 -0.2630
14527TIP3    H143524   3.325   3.648   6.665  0.1344 -1.6489  3.7171
14527TIP3    H243525   3.205   3.588   6.594  1.4696  2.1956 -2.5540
14528TIP3   OH243526   2.765   3.691   1.530  0.5377 -0.4627 -0.0170
14528TIP3    H143527   2.774   3.598   1.511  0.5197 -1.1567  2.8751
14528TIP3    H243528   2.671   3.707   1.531  0.5460 -0.3512 -0.7115
14529TIP3   OH243529   1.171   5.186   5.014 -0.2886 -0.0254  0.6024
14529TIP3    H143530   1.218   5.252   4.963 -1.2311  0.2747  0.0753
14529TIP3    H243531   1.171   5.108   4.960 -2.0138  0.5362 -0.3003
14530TIP3   OH243532   5.794   7.537   1.133  0.1452  0.0009 -0.0305
14530TIP3    H143533   5.704   7.504   1.131  0.8312 -2.1427 -3.0540
14530TIP3    H243534   5.801   7.593   1.055  1.1021  1.2183  0.8978
14531TIP3   OH243535   4.834   4.947   3.372 -0.1080  0.1074  0.3157
14531TIP3    H143536   4.905   4.910   3.321 -0.0206  0.6818  0.0154
14531TIP3    H243537   4.777   4.873   3.392 -0.0345 -0.1547 -0.4379
14532TIP3   OH243538   0.217   6.534   3.397 -0.5300 -0.5652 -0.5544
14532TIP3    H143539   0.208   6.536   3.302  0.3182  0.4913 -0.6356
14532TIP3    H243540   0.183   6.619   3.426 -1.4129 -1.1457  0.1588
14533TIP3   OH243541   6.656   1.687   4.657 -0.0675  0.1586 -0.2964
14533TIP3    H143542   6.639   1.759   4.718  0.2226  0.3412 -0.4263
14533TIP3    H243543   6.569   1.655   4.633 -0.2391  1.1157 -1.0046
14534TIP3   OH243544   2.422   2.223   6.065  0.3188 -0.9401 -0.3054
14534TIP3    H143545   2.476   2.159   6.112  1.5207 -0.6561 -1.2411
14534TIP3    H243546   2.442   2.208   5.973  0.5636  0.7084 -0.5560
14535TIP3   OH243547   5.351   2.357   5.104 -0.1831 -0.0021 -0.0011
14535TIP3    H143548   5.383   2.397   5.185 -1.7972  0.4525  0.4657
14535TIP3    H243549   5.420   2.372   5.040  0.7551  0.3993  1.0735
14536TIP3   OH243550   5.113   1.444   5.554 -1.1025  0.3557 -0.0659
14536TIP3    H143551   5.156   1.476   5.475 -0.9133 -1.6923 -0.8446
14536TIP3    H243552   5.171   1.471   5.626  1.1661 -1.6023 -1.0142
14537TIP3   OH243553   7.475   4.705   6.367 -0.3943  0.6405 -0.2690
14537TIP3    H143554   7.516   4.620   6.351 -1.7993 -0.0788 -0.1297
14537TIP3    H243555   7.468   4.711   6.462 -0.0037  1.0634 -0.2635
14538TIP3   OH243556   7.265   6.927   4.348  0.0534 -0.1918  0.4360
14538TIP3    H143557   7.229   6.851   4.393  0.2142 -0.3724  0.2597
14538TIP3    H243558   7.292   6.986   4.419 -1.2627  0.2796  0.5870
14539TIP3   OH243559   2.007   1.970   2.404 -0.5216 -0.6294 -0.4005
14539TIP3    H143560   2.070   1.974   2.476 -1.4544 -2.3013  0.5846
14539TIP3    H243561   2.059   1.945   2.328  0.2573 -0.2936  0.0121
14540TIP3   OH243562   4.418   4.434   0.750  0.5476 -0.5751 -0.3004
14540TIP3    H143563   4.421   4.496   0.676  0.3362  0.4827  0.5419
14540TIP3    H243564   4.495   4.379   0.739  1.2502  0.4306 -0.6074
14541TIP3   OH243565   2.046   3.255   5.731  0.7054  0.0287  0.5431
14541TIP3    H143566   2.080   3.169   5.706 -2.1778 -0.7186 -1.2174
14541TIP3    H243567   2.003   3.240   5.815 -0.5367 -0.5373 -0.1571
14542TIP3   OH243568   4.311   3.480   1.912 -0.2648  0.6950 -0.3963
14542TIP3    H143569   4.325   3.454   2.003 -1.5481 -1.1098 -0.6389
14542TIP3    H243570   4.234   3.537   1.915  0.4099  1.6016 -0.2319
14543TIP3   OH243571   2.092   3.492   5.541 -0.2345 -0.2196  0.0657
14543TIP3    H143572   2.124   3.429   5.476 -0.1629 -0.9211  0.7767
14543TIP3    H243573   2.062   3.439   5.614  0.9331  0.6237  1.1819
14544TIP3   OH243574   6.229   2.301   0.874  0.6533 -0.4426  0.6918
14544TIP3    H143575   6.256   2.296   0.783 -0.0691 -0.1580  0.4583
14544TIP3    H243576   6.156   2.238   0.881 -0.5471  0.8912  0.6060
14545TIP3   OH243577   2.109   2.545   6.007  0.2132  0.1612  0.4373
14545TIP3    H143578   2.164   2.585   5.939 -1.4265  1.0094 -0.4502
14545TIP3    H243579   2.051   2.616   6.035 -0.7953 -0.8431  0.9527
14546TIP3   OH243580   3.416   2.083   6.465  0.8579  0.5058  0.0251
14546TIP3    H143581   3.463   2.166   6.467  1.1387  0.3384  0.7734
14546TIP3    H243582   3.379   2.074   6.553  1.5291 -0.5512  0.2163
14547TIP3   OH243583   2.438   6.641   0.214  0.2323  0.0637  0.2385
14547TIP3    H143584   2.438   6.612   0.123 -0.3537  0.2201  0.1825
14547TIP3    H243585   2.462   6.734   0.209  0.1697  0.0799  0.2422
14548TIP3   OH243586   1.752   6.146   4.014 -0.5545 -0.1380  0.1295
14548TIP3    H143587   1.700   6.106   3.943  0.6389 -0.7159 -0.4382
14548TIP3    H243588   1.835   6.099   4.013  0.2290  1.1833  0.6220
14549TIP3   OH243589   7.083   2.935   4.497 -0.2392  0.3550 -0.1919
14549TIP3    H143590   7.108   2.848   4.468  0.5454  0.7067 -0.6027
14549TIP3    H243591   7.057   2.924   4.588  1.7339  0.0197  0.3715
14550TIP3   OH243592   4.045   5.341   6.624  0.2004 -0.8667  0.0258
14550TIP3    H143593   3.951   5.341   6.606  0.0827 -2.0605  0.5580
14550TIP3    H243594   4.078   5.263   6.580  0.6206 -1.4618  1.3376
14551TIP3   OH243595   5.067   4.065   5.832  0.0096  0.0929  0.3420
14551TIP3    H143596   5.057   3.999   5.763 -0.7146  0.3237  0.2150
14551TIP3    H243597   5.066   4.015   5.913  0.4383 -0.1408  0.2056
14552TIP3   OH243598   2.221   4.190   2.225  0.1648 -0.2098  0.1662
14552TIP3    H143599   2.243   4.103   2.259  0.0417  0.2735  1.5430
14552TIP3    H243600   2.130   4.183   2.197  0.6068 -0.9296 -1.1612
14553TIP3   OH243601   4.058   1.633   5.007 -0.1147 -0.0712  0.0389
14553TIP3    H143602   3.968   1.628   5.041  0.2890  0.9510  1.3568
14553TIP3    H243603   4.112   1.651   5.084  1.4134 -1.9539 -0.5277
14554TIP3   OH243604   6.910   3.943   1.100  0.6955  0.4672  0.1137
14554TIP3    H143605   6.973   3.872   1.113  0.0402 -0.0663  0.4484
14554TIP3    H243606   6.853   3.913   1.029 -0.6741 -0.1357  1.4299
14555TIP3   OH243607   2.993   5.674   3.096  0.3525 -0.0935  0.1590
14555TIP3    H143608   3.088   5.681   3.104  0.2271  0.9560  0.8992
14555TIP3    H243609   2.959   5.696   3.182 -0.5828  0.0394 -0.2261
14556TIP3   OH243610   6.086   0.099   5.024  0.3675 -0.1817  0.4222
14556TIP3    H143611   6.147   0.117   4.952  0.0705  0.1041  0.2363
14556TIP3    H243612   6.000   0.106   4.983  0.1825  0.3605  0.8871
14557TIP3   OH243613   7.595   4.026   0.773  0.2713 -0.4934 -0.1256
14557TIP3    H143614   7.609   4.049   0.864 -1.3414 -0.4193  0.1402
14557TIP3    H243615   7.683   4.020   0.735  0.9573 -0.4702  1.4042
14558TIP3   OH243616   0.385   4.923   1.972 -0.0840  0.2570  0.2802
14558TIP3    H143617   0.400   4.968   2.054 -1.8739  0.6027  0.4582
14558TIP3    H243618   0.346   4.839   1.997  0.3253 -0.0855 -0.1860
14559TIP3   OH243619   4.922   3.486   2.791 -0.0136 -0.1605  0.0911
14559TIP3    H143620   4.883   3.487   2.703 -0.5089  0.2118  0.3062
14559TIP3    H243621   4.979   3.409   2.791  1.5611  0.9330 -1.2252
14560TIP3   OH243622   3.244   0.740   1.436 -0.2436  0.1815  0.2661
14560TIP3    H143623   3.244   0.835   1.426 -1.0162  0.1530 -0.0941
14560TIP3    H243624   3.294   0.708   1.360  0.4102  0.3129  0.6334
14561TIP3   OH243625   2.205   2.457   3.247  0.3692  0.4699 -0.7503
14561TIP3    H143626   2.204   2.539   3.197  0.8969 -0.2051 -1.9212
14561TIP3    H243627   2.273   2.469   3.312  1.0922  0.6352 -1.5196
14562TIP3   OH243628   0.660   6.149   0.234  0.1163 -0.4498 -0.6714
14562TIP3    H143629   0.678   6.110   0.319 -1.0808  0.1401 -0.1127
14562TIP3    H243630   0.744   6.184   0.205  0.2155  1.0022  1.1480
14563TIP3   OH243631   3.994   2.261   2.504 -0.6454 -0.3312 -0.0438
14563TIP3    H143632   3.900   2.267   2.521 -0.6437 -0.0048 -0.1502
14563TIP3    H243633   4.011   2.167   2.499 -0.8825 -0.4042  0.4501
14564TIP3   OH243634   1.231   6.617   1.946  0.0793 -0.1308 -0.3246
14564TIP3    H143635   1.232   6.713   1.950 -1.8121 -0.0005 -1.7315
14564TIP3    H243636   1.304   6.595   1.888 -0.1653  0.5352 -0.9003
14565TIP3   OH243637   3.184   0.405   0.034  0.0298  0.2977  0.5056
14565TIP3    H143638   3.231   0.456   0.100 -0.7609 -0.1888  1.4799
14565TIP3    H243639   3.095   0.397   0.069 -0.6594  0.7925 -1.0654
14566TIP3   OH243640   8.022   7.467   4.385 -0.0528  0.2601  0.4892
14566TIP3    H143641   8.028   7.540   4.324  2.1188 -0.5427 -0.3954
14566TIP3    H243642   7.998   7.392   4.331  3.1473 -0.7303  0.2141
14567TIP3   OH243643   6.820   1.174   4.475  0.7729 -0.3296  0.1972
14567TIP3    H143644   6.814   1.124   4.557  0.0276 -1.9649 -0.7960
14567TIP3    H243645   6.912   1.197   4.467  0.6444  1.0932  2.1713
14568TIP3   OH243646   4.182   5.461   1.691  0.0590  0.2483 -0.2638
14568TIP3    H143647   4.089   5.464   1.669  0.1289  0.6338 -0.5276
14568TIP3    H243648   4.226   5.448   1.607  0.1919 -1.0728 -0.0129
14569TIP3   OH243649   7.474   4.445   6.690  0.3434 -0.2672 -0.4336
14569TIP3    H143650   7.560   4.477   6.717  0.8192 -0.9950 -1.0201
14569TIP3    H243651   7.423   4.524   6.674  0.6858  0.1701  0.5789
14570TIP3   OH243652   5.290   7.524   6.414 -0.1698  0.2771 -0.0455
14570TIP3    H143653   5.210   7.470   6.411 -0.1457  0.2826 -1.2180
14570TIP3    H243654   5.270   7.598   6.358 -0.1678  1.4929  1.4903
14571TIP3   OH243655   0.878   2.131   3.912  0.4675 -0.2428  0.2519
14571TIP3    H143656   0.797   2.180   3.922  0.9288  0.8494 -1.0736
14571TIP3    H243657   0.854   2.055   3.858  0.5771  0.9046 -1.5063
14572TIP3   OH243658   3.005   1.839   5.503 -0.6515  0.0806 -0.0921
14572TIP3    H143659   2.947   1.898   5.455 -0.7999  0.3157  0.3755
14572TIP3    H243660   3.040   1.781   5.436 -0.8295  0.4309 -0.4933
14573TIP3   OH243661   7.825   7.372   3.238  0.3143  0.3863  0.2355
14573TIP3    H143662   7.897   7.366   3.176 -1.6625 -1.4292 -2.0799
14573TIP3    H243663   7.846   7.308   3.306  1.3445  0.6047  0.1294
14574TIP3   OH243664   1.296   4.598   2.293 -0.3357  0.1857  0.3686
14574TIP3    H143665   1.275   4.585   2.385 -0.5910  0.8934  0.4176
14574TIP3    H243666   1.317   4.691   2.286 -3.1800  0.8641 -0.8118
14575TIP3   OH243667   5.243   4.925   6.638  0.0605 -0.0092  0.6156
14575TIP3    H143668   5.336   4.928   6.660 -0.0858 -0.7568  1.4173
14575TIP3    H243669   5.201   4.980   6.704 -0.2408 -1.1821  1.4485
14576TIP3   OH243670   3.683   5.481   0.709 -0.1481 -0.3237  0.1890
14576TIP3    H143671   3.658   5.401   0.662  0.7377 -0.5575  0.0983
14576TIP3    H243672   3.757   5.454   0.763 -0.8270  0.0683  1.3441
14577TIP3   OH243673   6.642   0.772   0.749 -0.3189  0.1684 -0.5410
14577TIP3    H143674   6.549   0.762   0.727 -0.1914 -1.1873 -0.5125
14577TIP3    H243675   6.649   0.739   0.838  0.6483 -2.4073 -1.4851
14578TIP3   OH243676   5.361   2.929   1.644 -0.1421  0.1265 -0.6097
14578TIP3    H143677   5.320   2.955   1.562 -1.5037 -0.7714 -0.2345
14578TIP3    H243678   5.338   2.999   1.706 -0.1797  0.1663 -0.6688
14579TIP3   OH243679   3.779   5.263   5.092 -0.3242  0.4467 -0.3934
14579TIP3    H143680   3.844   5.285   5.159 -1.2607  0.2743  0.5914
14579TIP3    H243681   3.832   5.243   5.014  0.7643  1.0658  0.1585
14580TIP3   OH243682   3.761   4.717   5.302 -0.7354  0.2002 -0.3275
14580TIP3    H143683   3.778   4.646   5.364  1.7780  2.0117  1.2390
14580TIP3    H243684   3.831   4.710   5.238 -0.2910  1.4067  0.0107
14581TIP3   OH243685   4.802   3.293   0.990 -0.0289  0.0550 -0.2781
14581TIP3    H143686   4.824   3.309   1.082 -0.7244  0.4975 -0.1791
14581TIP3    H243687   4.725   3.349   0.974  0.3856  0.3638 -1.2621
14582TIP3   OH243688   6.380   7.278   5.937  0.2378 -0.1034 -0.3730
14582TIP3    H143689   6.302   7.221   5.940  0.3734 -0.2391  1.6239
14582TIP3    H243690   6.351   7.360   5.976  1.5356 -0.7988  2.2694
14583TIP3   OH243691   5.648   0.252   0.696  0.2915  0.2100 -0.5767
14583TIP3    H143692   5.556   0.272   0.714  0.2392  0.6714 -1.3146
14583TIP3    H243693   5.686   0.235   0.783  0.4461  3.9638  0.2678
14584TIP3   OH243694   3.131   0.814   4.208  0.2850 -0.5098 -0.0474
14584TIP3    H143695   3.198   0.843   4.270  0.3554 -3.0823  1.2235
14584TIP3    H243696   3.085   0.894   4.183  1.6461  0.8906  1.6754
14585TIP3   OH243697   3.167   3.544   1.829  0.0897  0.4339 -0.1875
14585TIP3    H143698   3.174   3.564   1.735  0.6986 -0.9372 -0.4568
14585TIP3    H243699   3.251   3.570   1.866 -0.1531  0.9803 -0.0146
14586TIP3   OH243700   4.979   6.712   6.087  0.5201  0.1196  0.4616
14586TIP3    H143701   4.939   6.798   6.070 -0.3727  0.1845  2.4564
14586TIP3    H243702   4.929   6.651   6.033 -1.1599  0.4619  1.5307
14587TIP3   OH243703   6.721   0.714   4.118 -0.2588  0.2530 -0.3808
14587TIP3    H143704   6.811   0.711   4.151 -0.1677 -2.1492 -0.6903
14587TIP3    H243705   6.725   0.775   4.044  1.0929  0.2698 -0.3237
14588TIP3   OH243706   4.395   0.897   0.406 -0.1766 -0.4798 -0.0855
14588TIP3    H143707   4.447   0.925   0.330 -2.1291 -0.4107 -1.4889
14588TIP3    H243708   4.418   0.959   0.475  1.8263 -0.6778 -0.5114
14589TIP3   OH243709   0.775   5.439   4.538  0.6370 -0.1877 -0.1333
14589TIP3    H143710   0.787   5.385   4.459 -1.9893 -1.4235  0.1881
14589TIP3    H243711   0.749   5.525   4.504  0.3494 -0.4693 -0.6482
14590TIP3   OH243712   0.687   4.837   4.796 -0.0223 -0.2554 -0.2985
14590TIP3    H143713   0.609   4.837   4.740 -0.7467 -0.1082  0.6829
14590TIP3    H243714   0.653   4.835   4.886  1.0969  0.2454  0.1659
14591TIP3   OH243715   0.444   3.641   4.233  0.3178 -0.3465 -0.0748
14591TIP3    H143716   0.506   3.665   4.302 -1.2913  0.4734  1.1559
14591TIP3    H243717   0.466   3.551   4.211  0.7419 -0.7061  1.6778
14592TIP3   OH243718   7.254   7.404   1.692 -0.9520  0.0490  0.4500
14592TIP3    H143719   7.170   7.445   1.713 -0.7163  1.1230 -0.5727
14592TIP3    H243720   7.243   7.312   1.715 -2.9469 -0.1494 -1.0432
14593TIP3   OH243721   3.045   2.946   2.320  0.6487 -0.0746 -0.4018
14593TIP3    H143722   3.026   2.910   2.233  0.3235 -0.3234 -0.2283
14593TIP3    H243723   3.067   3.037   2.303 -1.6659  0.5140 -0.5295
14594TIP3   OH243724   5.826   6.152   0.733  0.3836 -0.1407  0.0216
14594TIP3    H143725   5.771   6.078   0.758 -0.7293  0.8414  0.5987
14594TIP3    H243726   5.792   6.225   0.785  2.4207  0.4542  0.5968
14595TIP3   OH243727   4.296   5.523   1.018  0.2973 -0.1937  0.2812
14595TIP3    H143728   4.329   5.470   0.946  1.1978  1.6963 -0.7851
14595TIP3    H243729   4.363   5.516   1.086  0.1297 -0.8569  0.3835
14596TIP3   OH243730   3.253   4.135   0.388 -0.0177  0.2203  0.5109
14596TIP3    H143731   3.239   4.121   0.481  1.5978 -1.7240  0.5281
14596TIP3    H243732   3.188   4.080   0.345  0.2244 -0.0632  0.5059
14597TIP3   OH243733   7.431   7.490   4.608 -0.2039  0.2511  0.2893
14597TIP3    H143734   7.436   7.450   4.522 -0.0870 -0.1815  0.4924
14597TIP3    H243735   7.504   7.451   4.657 -1.1884 -0.7151  1.0709
14598TIP3   OH243736   0.754   0.029   3.078 -0.2246 -0.5865  0.3409
14598TIP3    H143737   0.827   0.088   3.097  0.9675 -2.2056  0.9889
14598TIP3    H243738   0.730  -0.007   3.164 -0.6479 -1.3654 -0.1008
14599TIP3   OH243739   0.414   2.147   6.288  0.4408  0.2362 -0.4946
14599TIP3    H143740   0.401   2.127   6.381 -1.2344 -1.5622 -1.0488
14599TIP3    H243741   0.367   2.229   6.274 -0.3781 -0.1306  0.0135
14600TIP3   OH243742   0.238   5.383   1.106  0.3178 -1.0581  0.0584
14600TIP3    H143743   0.144   5.376   1.122  0.5072  0.5779  2.5796
14600TIP3    H243744   0.269   5.444   1.173  2.3840  2.5489 -3.6564
14601TIP3   OH243745   7.191   7.331   5.671 -0.4706 -0.2030  0.1578
14601TIP3    H143746   7.276   7.330   5.627 -0.6610  0.3715 -0.2428
14601TIP3    H243747   7.135   7.277   5.616 -0.3855 -0.5193  0.3807
14602TIP3   OH243748   2.625   7.078   3.891  0.4241  0.3444  0.0957
14602TIP3    H143749   2.663   7.050   3.807 -0.0973  0.0677 -0.0537
14602TIP3    H243750   2.626   7.174   3.887 -0.0437  0.3346 -0.4422
14603TIP3   OH243751   6.202   7.618   1.399  0.0436  0.0368  0.1378
14603TIP3    H143752   6.297   7.625   1.408  0.0595  0.7596 -0.4905
14603TIP3    H243753   6.189   7.533   1.357  0.2596 -1.0491  2.1452
14604TIP3   OH243754   1.771   2.202   6.526  0.0991 -0.2317 -0.5562
14604TIP3    H143755   1.822   2.205   6.445 -2.5262  0.2913 -2.3396
14604TIP3    H243756   1.718   2.282   6.523 -0.2458 -0.3253  1.5923
14605TIP3   OH243757   6.275   4.975   4.237 -0.2351 -0.0409 -0.4487
14605TIP3    H143758   6.284   5.054   4.291 -1.9350 -0.8657  1.1602
14605TIP3    H243759   6.184   4.948   4.249 -0.1532 -1.3152 -2.3168
14606TIP3   OH243760   5.413   3.356   4.215 -0.0996 -0.2129  0.2703
14606TIP3    H143761   5.474   3.416   4.173  0.8095 -0.5762  1.0292
14606TIP3    H243762   5.407   3.388   4.305 -1.5586  0.2098  0.0490
14607TIP3   OH243763   1.511   5.772   5.105 -0.3232  0.1950 -0.2366
14607TIP3    H143764   1.592   5.730   5.133 -2.0942 -1.0926  3.4724
14607TIP3    H243765   1.532   5.866   5.105  1.1931 -0.1147  0.5960
14608TIP3   OH243766   3.074   4.270   6.588 -0.3091  0.2154 -0.3232
14608TIP3    H143767   3.044   4.338   6.528 -0.8770 -0.8409 -1.2732
14608TIP3    H243768   2.994   4.224   6.614  0.0258  0.1053  0.5675
14609TIP3   OH243769   2.940   2.576   0.865 -0.3949  0.0672 -0.0555
14609TIP3    H143770   2.922   2.618   0.781 -3.2610  0.2223  0.5397
14609TIP3    H243771   2.980   2.493   0.842 -1.9495 -0.3024 -1.6875
14610TIP3   OH243772   4.565   4.196   4.690  0.2064 -0.8150  0.0033
14610TIP3    H143773   4.649   4.180   4.646 -0.5260 -1.8626 -1.0681
14610TIP3    H243774   4.579   4.167   4.780  1.3081  0.0485  0.1321
14611TIP3   OH243775   6.394   7.550   4.173 -0.5510  0.2404  0.1126
14611TIP3    H143776   6.401   7.566   4.079  0.3915  0.4892  0.2114
14611TIP3    H243777   6.304   7.520   4.186 -0.6480  0.0653 -0.8852
14612TIP3   OH243778   2.183   0.131   6.136  0.4577  0.0771 -0.3490
14612TIP3    H143779   2.123   0.119   6.062  0.6759 -2.2404 -0.2301
14612TIP3    H243780   2.265   0.159   6.095  0.6950 -1.5809 -1.0812
14613TIP3   OH243781   2.000   7.628   3.003  0.8564  0.2331  0.2431
14613TIP3    H143782   2.030   7.557   3.061 -1.0422 -0.7143  0.1257
14613TIP3    H243783   2.075   7.644   2.946  1.5491 -1.2807  0.6643
14614TIP3   OH243784   8.275   4.762   2.492 -0.1796  0.5424  0.0505
14614TIP3    H143785   8.212   4.738   2.561 -0.4968 -1.3481 -0.8407
14614TIP3    H243786   8.314   4.844   2.523 -2.1865  1.1295  1.2223
14615TIP3   OH243787   7.912   3.175   5.213  0.1608  0.0858 -0.0487
14615TIP3    H143788   8.005   3.167   5.192  0.1829 -0.9705  0.3888
14615TIP3    H243789   7.890   3.266   5.193  1.5693  0.6801  0.9334
14616TIP3   OH243790   1.459   3.263   5.539  0.2921  0.0642  0.2289
14616TIP3    H143791   1.533   3.208   5.564  1.8096  1.1471 -1.5680
14616TIP3    H243792   1.424   3.220   5.460 -0.5499 -0.0322  0.6453
14617TIP3   OH243793   2.160   7.208   2.257 -0.3817 -0.4368  0.0622
14617TIP3    H143794   2.176   7.230   2.165  0.1169 -0.4751  0.1386
14617TIP3    H243795   2.076   7.251   2.278  0.5823  1.4946  0.2319
14618TIP3   OH243796   8.243   0.430   3.893 -0.3212 -0.0021 -0.0067
14618TIP3    H143797   8.276   0.515   3.863 -1.7140  0.8897  0.8119
14618TIP3    H243798   8.275   0.423   3.983 -2.0991  0.8026  0.7422
14619TIP3   OH243799   1.455   6.502   2.666  0.2381 -0.6412  0.6950
14619TIP3    H143800   1.376   6.453   2.690 -0.2154 -0.5634 -0.6043
14619TIP3    H243801   1.445   6.586   2.711 -2.3380  0.8997 -2.4005
14620TIP3   OH243802   0.826   1.877   1.166 -0.2459 -1.2013  0.0961
14620TIP3    H143803   0.824   1.887   1.071 -0.2501 -2.6033 -0.0792
14620TIP3    H243804   0.767   1.804   1.183 -0.4703 -0.7729  1.2190
14621TIP3   OH243805   1.843   2.532   3.465  0.2755 -0.2684  0.1179
14621TIP3    H143806   1.905   2.544   3.538  1.3389 -0.9067 -0.6492
14621TIP3    H243807   1.860   2.607   3.407 -0.1554 -0.0786  0.2349
14622TIP3   OH243808   6.108   3.442   2.572 -0.5743  0.0175  0.0132
14622TIP3    H143809   6.173   3.509   2.593 -1.2000  0.6444 -0.0195
14622TIP3    H243810   6.146   3.394   2.498 -0.1138  0.3227  0.0499
14623TIP3   OH243811   6.989   3.123   3.639 -0.4876 -0.0226  0.2194
14623TIP3    H143812   6.998   3.179   3.716 -0.5366  0.7408 -0.3067
14623TIP3    H243813   7.032   3.173   3.569 -0.1902 -0.8270 -0.1856
14624TIP3   OH243814   1.625   2.472   1.174  0.4012  0.1516  0.1867
14624TIP3    H143815   1.617   2.517   1.258 -1.0889  0.8207 -0.2804
14624TIP3    H243816   1.535   2.444   1.153  0.6939  0.2488 -1.3161
14625TIP3   OH243817   0.310   6.763   0.399  0.7032 -0.2661 -0.0979
14625TIP3    H143818   0.234   6.718   0.436  2.3062 -0.7011  3.0300
14625TIP3    H243819   0.299   6.854   0.427  0.4852  0.0487 -1.1742
14626TIP3   OH243820   0.803   1.138   6.227  0.2725 -0.6089  0.2886
14626TIP3    H143821   0.843   1.188   6.298 -0.0433 -0.5403  0.4181
14626TIP3    H243822   0.767   1.204   6.168  0.6934 -0.6612 -0.0290
14627TIP3   OH243823   6.767   4.293   2.608  0.4881 -0.1138  0.0145
14627TIP3    H143824   6.861   4.307   2.591  0.5723  0.4030  0.9087
14627TIP3    H243825   6.735   4.254   2.526  1.2966  0.5176 -0.6274
14628TIP3   OH243826   1.187   3.371   4.051 -0.2346 -0.3537  0.0612
14628TIP3    H143827   1.187   3.458   4.011  0.4650 -0.0078  0.7739
14628TIP3    H243828   1.116   3.374   4.115  0.4883  0.0907  0.8703
14629TIP3   OH243829   7.979   1.235   0.431 -0.6487 -0.8793  1.1061
14629TIP3    H143830   8.068   1.210   0.456 -0.0508 -0.5083 -0.5264
14629TIP3    H243831   7.990   1.316   0.381 -1.8759 -0.9644  0.6617
14630TIP3   OH243832   5.408   1.699   6.800 -0.6971 -0.2663 -0.5776
14630TIP3    H143833   5.477   1.719   6.736  1.0267  0.8843  1.4880
14630TIP3    H243834   5.343   1.650   6.751  0.6036  0.4146 -3.1551
14631TIP3   OH243835   5.060   4.758   2.264  0.2177  0.4293 -0.5380
14631TIP3    H143836   5.142   4.769   2.312 -0.2888  0.1843  0.4145
14631TIP3    H243837   5.000   4.821   2.304 -1.0925 -1.8038  1.2538
14632TIP3   OH243838   6.252   6.420   3.158  0.0574 -0.1170 -0.0559
14632TIP3    H143839   6.208   6.487   3.107  0.6193 -1.3738 -2.3282
14632TIP3    H243840   6.336   6.459   3.182  0.4874 -0.0296 -1.5810
14633TIP3   OH243841   5.493   0.834   3.312  0.2946 -0.4800 -0.1430
14633TIP3    H143842   5.473   0.921   3.346  2.0411 -0.3856  0.7236
14633TIP3    H243843   5.588   0.825   3.320  0.2670 -2.1086 -1.1002
14634TIP3   OH243844   1.989   5.102   2.458 -0.0448 -0.2019  0.1191
14634TIP3    H143845   1.972   5.008   2.451 -1.2186  0.0381 -0.5249
14634TIP3    H243846   2.026   5.126   2.373 -2.3099  0.3788 -0.7850
14635TIP3   OH243847   2.997   2.855   5.244  0.2689  0.5405  0.0089
14635TIP3    H143848   3.065   2.917   5.219 -0.0649  0.1238 -2.0643
14635TIP3    H243849   3.028   2.818   5.327  0.8576  2.8428  0.8813
14636TIP3   OH243850   0.440   1.541   4.631 -0.2405  0.6016  0.1025
14636TIP3    H143851   0.431   1.587   4.714 -1.2088  3.4564 -1.4523
14636TIP3    H243852   0.351   1.522   4.604 -0.0006  0.5987 -0.7226
14637TIP3   OH243853   7.548   2.055   4.969  0.0206  0.0921  0.3006
14637TIP3    H143854   7.586   2.107   5.040 -0.4878  0.9756 -0.0667
14637TIP3    H243855   7.622   2.039   4.910  0.1455  0.5750  0.3161
14638TIP3   OH243856   5.348   7.400   1.660  0.0102 -0.0244  0.1347
14638TIP3    H143857   5.439   7.389   1.691  0.0658  0.0413 -0.0065
14638TIP3    H243858   5.299   7.334   1.710 -0.2760  1.4746  1.9342
14639TIP3   OH243859   8.172   2.540   4.373  0.8233  0.3515  0.2107
14639TIP3    H143860   8.262   2.517   4.352  1.0688  1.7996 -0.4151
14639TIP3    H243861   8.135   2.571   4.290 -0.3605 -0.5004  0.3837
14640TIP3   OH243862   7.037   5.375   5.456 -0.3325  0.6315 -0.0053
14640TIP3    H143863   7.076   5.326   5.528  0.7249  0.2757 -0.7982
14640TIP3    H243864   6.967   5.318   5.423 -0.3518  0.4891  0.2793
14641TIP3   OH243865   0.584   0.903   1.884  0.5080 -0.4157 -0.0407
14641TIP3    H143866   0.511   0.843   1.898 -0.2512  0.8822  2.0548
14641TIP3    H243867   0.551   0.967   1.821 -1.0398  1.3438  2.3772
14642TIP3   OH243868   2.771   1.470   5.620 -0.8374 -0.0663 -0.1022
14642TIP3    H143869   2.843   1.431   5.571 -0.7966  0.4398 -0.4520
14642TIP3    H243870   2.711   1.397   5.637  0.4745 -0.8226  1.5526
14643TIP3   OH243871   0.898   1.115   1.836 -0.0818  0.3655 -0.1573
14643TIP3    H143872   0.916   1.202   1.872 -1.4660  1.3182 -1.6479
14643TIP3    H243873   0.846   1.072   1.904 -2.3026  1.9908 -0.7011
14644TIP3   OH243874   2.923   0.252   2.108 -0.6247 -0.1099  0.2404
14644TIP3    H143875   3.017   0.244   2.120 -0.9550 -1.8536  2.3815
14644TIP3    H243876   2.899   0.176   2.055 -1.0456 -1.1312  1.7897
14645TIP3   OH243877   0.909   6.794   6.650 -0.2962 -0.3942  0.2445
14645TIP3    H143878   0.824   6.838   6.657  0.6620  1.2547  2.9583
14645TIP3    H243879   0.938   6.783   6.741  1.8548 -2.0675 -0.5589
14646TIP3   OH243880   5.814   1.974   2.920 -0.2830  0.5471  0.2997
14646TIP3    H143881   5.781   1.918   2.991  0.4211 -0.6704 -0.2900
14646TIP3    H243882   5.768   1.944   2.842 -0.8843  1.7272  0.1773
14647TIP3   OH243883   7.047   6.918   0.337  0.3385  0.2898 -0.2446
14647TIP3    H143884   7.124   6.970   0.360  1.7515 -1.9216  0.3303
14647TIP3    H243885   7.041   6.852   0.406 -2.8638  1.1012  0.4107
14648TIP3   OH243886   6.659   3.141   1.014 -0.8175  0.0342  0.6540
14648TIP3    H143887   6.610   3.133   1.096 -0.5237  0.2856  0.8576
14648TIP3    H243888   6.673   3.235   1.003 -2.0065  0.1148 -0.3850
14649TIP3   OH243889   0.030   5.975   5.075 -0.2642  0.3863  0.3545
14649TIP3    H143890   0.080   5.894   5.069 -0.2075  0.3023  1.7030
14649TIP3    H243891   0.085   6.033   5.129 -2.2963 -0.2805  3.3627
14650TIP3   OH243892   7.246   0.486   0.764  0.0948 -0.3803 -0.3576
14650TIP3    H143893   7.189   0.434   0.821  0.2785  0.1601  0.3329
14650TIP3    H243894   7.204   0.572   0.759 -0.8581 -0.9016 -2.4829
14651TIP3   OH243895   6.970   3.798   0.220 -0.5529  0.0277 -0.0497
14651TIP3    H143896   7.030   3.840   0.158 -0.1520 -0.6172 -0.1126
14651TIP3    H243897   6.957   3.710   0.184  0.9310 -0.9226  1.5791
14652TIP3   OH243898   7.360   3.317   3.371  0.1059 -0.0027 -0.3410
14652TIP3    H143899   7.359   3.278   3.284 -0.0519 -0.2977 -0.2093
14652TIP3    H243900   7.428   3.385   3.366  0.6660 -0.5597 -0.4649
14653TIP3   OH243901   7.006   0.084   4.734  0.3019 -0.2234 -0.2168
14653TIP3    H143902   7.041   0.074   4.646  0.1667 -2.0071 -0.1165
14653TIP3    H243903   6.938   0.017   4.741 -0.2846  0.4508  0.9618
14654TIP3   OH243904   6.159   2.673   3.782 -0.3503  0.5072 -0.6296
14654TIP3    H143905   6.081   2.658   3.835 -2.1436 -0.7413 -3.3891
14654TIP3    H243906   6.183   2.587   3.749  2.3925  0.8295  0.2744
14655TIP3   OH243907   2.782   7.239   2.039  0.4327  0.1986 -0.0896
14655TIP3    H143908   2.765   7.273   2.126 -0.7419 -1.3657  0.3429
14655TIP3    H243909   2.865   7.191   2.048  0.3334  0.0725  0.1541
14656TIP3   OH243910   2.890   2.055   5.407  0.0437  0.0397 -0.4421
14656TIP3    H143911   2.828   2.084   5.474 -0.5134  0.9642 -1.3265
14656TIP3    H243912   2.973   2.096   5.432  0.1260 -0.5368  0.2886
14657TIP3   OH243913   0.341   1.509   4.350  0.2875 -0.1713  0.0972
14657TIP3    H143914   0.325   1.542   4.439 -1.3690 -1.0487  0.1698
14657TIP3    H243915   0.388   1.426   4.365  0.4945 -0.0503  0.1234
14658TIP3   OH243916   6.996   4.859   5.624 -0.9319 -0.2991 -0.3275
14658TIP3    H143917   7.034   4.828   5.706 -1.0463 -0.0151 -0.1689
14658TIP3    H243918   6.954   4.942   5.646 -0.3613  0.1314 -0.8150
14659TIP3   OH243919   0.643   4.926   2.478  0.4293  0.1102  0.6306
14659TIP3    H143920   0.597   4.903   2.558 -0.2732  1.5579  0.6609
14659TIP3    H243921   0.726   4.963   2.507  1.1396 -1.3578  0.6004
14660TIP3   OH243922   0.286   6.898   6.269  0.5104 -0.3564  0.0971
14660TIP3    H143923   0.257   6.922   6.181  1.1331 -1.1325 -0.3349
14660TIP3    H243924   0.381   6.893   6.263  0.4977 -1.4838  0.5176
14661TIP3   OH243925   1.343   1.207   5.202 -0.2010 -0.0075  0.3524
14661TIP3    H143926   1.397   1.286   5.206  0.5769 -0.5431  3.7705
14661TIP3    H243927   1.257   1.235   5.232  0.1790 -0.4510  1.9593
14662TIP3   OH243928   5.967   4.659   2.961  0.6855  0.6696  0.5815
14662TIP3    H143929   5.876   4.669   2.990  1.2946  2.0678  2.1931
14662TIP3    H243930   5.977   4.565   2.947 -0.9684  0.4677  0.4770
14663TIP3   OH243931   4.713   5.516   4.400  0.0857 -0.0031 -0.5032
14663TIP3    H143932   4.738   5.425   4.413  1.2822  0.4124  0.2977
14663TIP3    H243933   4.754   5.563   4.472 -1.8423  0.9797  0.0152
14664TIP3   OH243934   4.845   4.514   5.678  0.3072 -0.1505  0.4432
14664TIP3    H143935   4.935   4.540   5.659  0.9095 -1.3931  1.4037
14664TIP3    H243936   4.806   4.592   5.719  1.4763 -0.1173  1.5668
14665TIP3   OH243937   0.012   0.932   5.279  0.2757  0.1802 -0.0149
14665TIP3    H143938   0.084   0.964   5.224  0.4835 -1.0898 -0.5054
14665TIP3    H243939   0.030   0.968   5.366  1.7772 -0.5073 -0.0198
14666TIP3   OH243940   2.636   4.384   2.155 -0.1423 -0.6844  0.3522
14666TIP3    H143941   2.623   4.299   2.114  3.1391 -1.5101  0.7989
14666TIP3    H243942   2.731   4.397   2.155 -0.4395  2.2994  1.6683
14667TIP3   OH243943   6.554   1.695   3.823  0.2518 -0.3351 -0.4894
14667TIP3    H143944   6.460   1.710   3.828  0.4381  0.8631 -0.3227
14667TIP3    H243945   6.593   1.780   3.842  1.4012 -1.1002  0.7072
14668TIP3   OH243946   4.369   5.214   2.503  0.2779  0.1654 -0.1594
14668TIP3    H143947   4.350   5.202   2.596 -2.0366  0.3981 -0.5522
14668TIP3    H243948   4.377   5.125   2.469  0.1029  0.0619  0.0692
14669TIP3   OH243949   0.977   6.536   4.351 -0.3296  0.0947  0.4207
14669TIP3    H143950   0.939   6.448   4.342  1.4003 -0.6689 -0.0183
14669TIP3    H243951   1.002   6.542   4.444  1.5446 -0.8127  0.0243
14670TIP3   OH243952   1.888   7.277   1.803  0.1342 -0.4367 -0.1279
14670TIP3    H143953   1.818   7.274   1.738  0.9765 -0.2508 -1.0770
14670TIP3    H243954   1.928   7.363   1.790 -0.3865  0.0651  1.4211
14671TIP3   OH243955   0.972   2.274   2.168  0.8479  0.6506 -0.3800
14671TIP3    H143956   0.899   2.275   2.106  0.1717  1.9660  0.3980
14671TIP3    H243957   0.948   2.338   2.235  1.1884 -1.2398  1.6796
14672TIP3   OH243958   0.095   0.294   1.782  0.1643  0.4123  0.1379
14672TIP3    H143959   0.177   0.324   1.821 -0.3243  0.4020  1.2377
14672TIP3    H243960   0.119   0.216   1.733  0.6927 -0.1014  1.1726
14673TIP3   OH243961   7.381   6.124   5.698 -0.5823  0.0545 -0.5934
14673TIP3    H143962   7.417   6.212   5.705  0.6135 -0.5339  1.2628
14673TIP3    H243963   7.336   6.109   5.781 -2.1035 -0.5502 -1.4849
14674TIP3   OH243964   4.701   2.799   4.628 -0.2860  0.2922 -0.0170
14674TIP3    H143965   4.749   2.871   4.587 -0.8201 -0.0974 -1.3929
14674TIP3    H243966   4.691   2.734   4.558 -1.5660 -0.2524  0.6301
14675TIP3   OH243967   0.473   4.359   3.589  0.3272  0.5919 -0.0401
14675TIP3    H143968   0.511   4.271   3.590  0.0772  0.4553 -1.3213
14675TIP3    H243969   0.538   4.413   3.547  0.2343  0.9145  0.2249
14676TIP3   OH243970   3.625   6.230   5.058 -0.3933  0.1860  0.0713
14676TIP3    H143971   3.615   6.311   5.009 -0.9081  0.6282  0.8794
14676TIP3    H243972   3.587   6.162   5.002  0.6237  0.3850 -0.8838
14677TIP3   OH243973   7.187   7.066   2.627 -0.0360  0.2247 -0.2821
14677TIP3    H143974   7.191   6.996   2.692  0.2249  0.5817  0.0894
14677TIP3    H243975   7.265   7.054   2.573  0.5638  0.8353  0.4184
14678TIP3   OH243976   7.751   0.115   4.280  0.2572 -0.3407  0.0922
14678TIP3    H143977   7.658   0.125   4.263  0.1855  0.7153  0.9839
14678TIP3    H243978   7.788   0.202   4.264  0.8410 -0.3730  1.2017
14679TIP3   OH243979   3.537   2.933   2.805  0.8039 -0.2530  0.8207
14679TIP3    H143980   3.450   2.892   2.808 -0.1729  1.6344  0.0856
14679TIP3    H243981   3.573   2.907   2.720  0.2983  0.1533  0.4711
14680TIP3   OH243982   2.263   6.231   0.441 -0.1325  0.0483  0.4890
14680TIP3    H143983   2.253   6.324   0.422  0.3693 -0.0731 -0.4111
14680TIP3    H243984   2.299   6.228   0.530  0.8722  0.7579  0.1207
14681TIP3   OH243985   3.557   7.199   6.509 -0.1048  0.1030  0.2097
14681TIP3    H143986   3.529   7.147   6.584 -0.3212 -0.2600 -0.1189
14681TIP3    H243987   3.562   7.288   6.543 -0.2930 -0.0413  0.6320
14682TIP3   OH243988   8.100   2.628   0.777 -1.0363  0.2577 -0.0784
14682TIP3    H143989   8.122   2.594   0.690  0.9317  1.2194 -0.0088
14682TIP3    H243990   8.133   2.561   0.837 -1.8316 -0.1059 -0.0273
14683TIP3   OH243991   2.424   2.187   4.505 -0.4600  0.1593  0.6250
14683TIP3    H143992   2.365   2.162   4.576  0.3208  0.4733  1.3978
14683TIP3    H243993   2.505   2.214   4.549  0.0925  0.2034 -0.3925
14684TIP3   OH243994   3.572   6.897   4.944 -0.3022 -0.2121  0.0168
14684TIP3    H143995   3.651   6.853   4.977  0.1818 -0.4685 -1.4113
14684TIP3    H243996   3.520   6.915   5.022  1.2917  0.1917  1.0314
14685TIP3   OH243997   6.243   5.059   6.562  0.5740  0.2583 -0.0150
14685TIP3    H143998   6.262   5.097   6.476  2.0965 -1.5400 -0.5516
14685TIP3    H243999   6.308   4.990   6.572 -1.8775 -2.0905  0.9361
14686TIP3   OH244000   0.071   4.264   4.830 -0.7587  0.3004  0.3550
14686TIP3    H144001   0.083   4.205   4.756  0.9306 -0.7886  1.4460
14686TIP3    H244002   0.006   4.220   4.885 -1.5996  0.8460 -0.1735
14687TIP3   OH244003   2.156   5.123   6.701  0.0691  0.2235 -0.6891
14687TIP3    H144004   2.218   5.125   6.774 -0.6581  1.1122 -0.0725
14687TIP3    H244005   2.209   5.146   6.624  0.6864  0.0186 -0.3324
14688TIP3   OH244006   0.396   3.548   3.408  0.3342  0.1757  0.2123
14688TIP3    H144007   0.332   3.574   3.474 -1.7757 -3.7393  0.0264
14688TIP3    H244008   0.378   3.604   3.333 -3.3714 -1.0159  0.0232
14689TIP3   OH244009   1.656   2.331   2.644  0.1918  0.0743  0.4910
14689TIP3    H144010   1.686   2.412   2.602 -0.7641  0.4350  0.4831
14689TIP3    H244011   1.737   2.286   2.669  0.7430  0.8239  0.1055
14690TIP3   OH244012   2.424   4.721   5.114 -0.4440  0.1009  0.3896
14690TIP3    H144013   2.509   4.715   5.158  0.3460 -1.0043 -1.1903
14690TIP3    H244014   2.361   4.697   5.182  0.6765 -1.0548  1.0757
14691TIP3   OH244015   7.568   3.382   3.693 -0.5810  0.7622 -0.0141
14691TIP3    H144016   7.628   3.452   3.667  0.4857  0.6097  1.8430
14691TIP3    H244017   7.484   3.425   3.705 -1.2022  0.8393 -3.5000
14692TIP3   OH244018   2.949   6.340   2.656  0.3373  0.6240 -0.4752
14692TIP3    H144019   2.950   6.286   2.735  0.8910 -1.0447 -1.5477
14692TIP3    H244020   2.869   6.313   2.611  0.7563  0.4938 -1.1542
14693TIP3   OH244021   3.905   3.431   4.848 -0.1263 -0.1180 -0.3727
14693TIP3    H144022   3.873   3.418   4.759 -1.1163 -0.1983 -0.0215
14693TIP3    H244023   3.878   3.352   4.895  0.4534 -0.1110 -0.0100
14694TIP3   OH244024   4.929   1.198   2.128  0.1735 -0.0645  0.4248
14694TIP3    H144025   4.988   1.190   2.203  0.5885 -1.8971 -0.0537
14694TIP3    H244026   4.986   1.198   2.051 -0.3037  0.9167  0.0517
14695TIP3   OH244027   6.243   3.484   6.406 -0.1939  0.2703  0.1998
14695TIP3    H144028   6.321   3.432   6.388 -0.8055 -0.5162 -0.2096
14695TIP3    H244029   6.208   3.506   6.320 -0.1468  1.0682  0.3709
14696TIP3   OH244030   0.718   4.403   1.665  0.7457  0.2510  0.1354
14696TIP3    H144031   0.677   4.488   1.679 -0.5166 -0.2203 -0.5339
14696TIP3    H244032   0.761   4.383   1.749  0.0577  1.0068  0.6793
14697TIP3   OH244033   5.346   3.537   4.777 -0.4212  0.1134  0.0651
14697TIP3    H144034   5.301   3.601   4.832  0.5661  1.6331 -0.8527
14697TIP3    H244035   5.285   3.463   4.773 -1.4718  0.8669  1.3701
14698TIP3   OH244036   7.904   5.691   1.212  0.0924 -0.4135 -0.0321
14698TIP3    H144037   7.927   5.742   1.134  1.3402  0.0927  0.6379
14698TIP3    H244038   7.812   5.710   1.227 -0.0704 -0.2251 -1.1579
14699TIP3   OH244039   1.466   5.880   2.379  0.3077  0.1224 -0.2701
14699TIP3    H144040   1.444   5.796   2.417 -1.2764  0.9262  0.6872
14699TIP3    H244041   1.521   5.859   2.304  0.3301 -1.7225  0.2336
14700TIP3   OH244042   7.089   3.945   5.089 -0.4182  0.2041  0.6480
14700TIP3    H144043   7.105   3.979   5.000  0.1393  1.8564  1.3333
14700TIP3    H244044   7.165   3.890   5.107 -1.6985 -2.1897 -0.7743
14701TIP3   OH244045   1.297   3.714   2.662  0.0809 -0.2747  0.2006
14701TIP3    H144046   1.269   3.800   2.630  2.4147  0.2219 -0.7132
14701TIP3    H244047   1.234   3.652   2.625  0.4858  0.6929 -2.2972
14702TIP3   OH244048   7.447   4.486   5.451  0.1472  0.3565  0.1863
14702TIP3    H144049   7.358   4.454   5.471  1.0659 -2.5632  0.0456
14702TIP3    H244050   7.439   4.524   5.364 -0.9929  0.2199  0.2061
14703TIP3   OH244051   0.319   2.416   4.008  0.5986  0.4899  0.1002
14703TIP3    H144052   0.339   2.433   3.916  3.3164 -0.2440  0.4545
14703TIP3    H244053   0.225   2.395   4.009  0.2871  1.4692 -2.3246
14704TIP3   OH244054   0.639   5.321   4.120  0.2428  0.3924 -0.3128
14704TIP3    H144055   0.723   5.314   4.073  0.3270  0.3284 -0.1545
14704TIP3    H244056   0.637   5.243   4.175  0.1968  0.5282 -0.1245
14705TIP3   OH244057   7.811   6.410   1.413  0.2661 -0.2287 -0.0749
14705TIP3    H144058   7.866   6.391   1.489 -1.6416 -1.8438  1.0207
14705TIP3    H244059   7.771   6.494   1.433 -0.3639 -0.7281  0.8603
14706TIP3   OH244060   4.623   6.288   4.907  0.0766  0.1838 -0.0499
14706TIP3    H144061   4.664   6.209   4.939 -1.4026 -0.6952 -0.2411
14706TIP3    H244062   4.575   6.323   4.982 -0.7339 -0.1003 -0.4237
14707TIP3   OH244063   6.646   2.108   4.477  0.2816  0.3696 -0.0937
14707TIP3    H144064   6.649   2.202   4.461 -1.1326  0.1061 -2.2967
14707TIP3    H244065   6.738   2.083   4.493  1.0151  1.7786 -1.7899
14708TIP3   OH244066   0.970   4.355   4.363  0.2180  0.0699 -0.6654
14708TIP3    H144067   1.046   4.409   4.383  0.0622 -0.5136  1.9689
14708TIP3    H244068   0.981   4.329   4.272  2.8181  0.5350 -0.5416
14709TIP3   OH244069   5.155   7.581   1.940 -0.0871  0.2624  0.1527
14709TIP3    H144070   5.096   7.604   1.868 -0.8240  0.7192  0.8789
14709TIP3    H244071   5.232   7.636   1.926  0.4132 -0.6935 -1.0825
14710TIP3   OH244072   6.338   3.708   3.525 -0.0727 -0.3845 -0.0509
14710TIP3    H144073   6.251   3.690   3.488  0.8117 -0.0956 -2.4678
14710TIP3    H244074   6.323   3.778   3.588 -1.2116  2.3443 -3.0564
14711TIP3   OH244075   5.052   7.300   0.468 -0.3602  0.0012 -0.4452
14711TIP3    H144076   5.003   7.283   0.548  1.0444 -2.8097 -0.0515
14711TIP3    H244077   5.047   7.218   0.419  3.1014 -0.1797 -0.7581
14712TIP3   OH244078   3.472   5.544   0.235 -0.2298  1.0081 -0.3748
14712TIP3    H144079   3.403   5.541   0.168 -1.4983  1.0684  0.8891
14712TIP3    H244080   3.549   5.573   0.188 -0.3188 -1.6678 -2.4432
14713TIP3   OH244081   6.686   1.857   6.749  0.1079  0.0074  0.3252
14713TIP3    H144082   6.778   1.880   6.760  0.4031 -0.2702 -1.2004
14713TIP3    H244083   6.663   1.891   6.662 -2.0871  2.6180  1.7651
14714TIP3   OH244084   6.389   3.457   2.006 -0.4728 -0.0792  0.3139
14714TIP3    H144085   6.385   3.552   2.015  0.5930 -0.0968  1.2153
14714TIP3    H244086   6.376   3.441   1.913  0.5246  1.0342 -0.0373
14715TIP3   OH244087   3.507   3.280   3.719 -0.2089 -0.1029  0.0928
14715TIP3    H144088   3.502   3.351   3.784 -0.7163  0.2367 -0.3047
14715TIP3    H244089   3.506   3.200   3.771 -1.2591  0.1446  0.4948
14716TIP3   OH244090   4.141   5.859   1.930  0.1716 -0.4287 -0.0639
14716TIP3    H144091   4.094   5.849   2.013 -2.6593 -1.8192 -1.6786
14716TIP3    H244092   4.173   5.771   1.909  2.3195  0.2115  0.2452
14717TIP3   OH244093   1.540   6.472   5.573 -0.1785  0.1347 -0.0075
14717TIP3    H144094   1.479   6.543   5.555 -1.0563 -0.4321  0.6697
14717TIP3    H244095   1.523   6.407   5.505 -0.0747  0.1323 -0.0320
14718TIP3   OH244096   2.091   7.115   1.072 -0.0362 -0.2416 -0.1462
14718TIP3    H144097   2.170   7.128   1.020 -0.4837  0.5786 -0.6413
14718TIP3    H244098   2.024   7.091   1.008 -0.4907  0.3680  0.0935
14719TIP3   OH244099   4.979   2.493   3.759 -0.2005  0.0783 -0.2088
14719TIP3    H144100   4.928   2.569   3.786  0.7220  0.9720 -0.9129
14719TIP3    H244101   4.923   2.447   3.697 -0.4103  0.6939 -0.4795
14720TIP3   OH244102   2.599   4.270   1.857  0.5085  0.0659 -0.1050
14720TIP3    H144103   2.645   4.187   1.867  1.4839  0.7932  1.9213
14720TIP3    H244104   2.518   4.258   1.906  0.4845  0.1948 -0.1137
14721TIP3   OH244105   5.960   7.719   1.276 -0.1796  0.0910  0.0950
14721TIP3    H144106   6.027   7.693   1.340  0.3059  1.8729  0.3500
14721TIP3    H244107   5.937   7.637   1.232  1.8685 -0.6544  0.2876
14722TIP3   OH244108   4.002   6.749   6.698  0.1139  0.2285 -0.1801
14722TIP3    H144109   3.951   6.687   6.750  0.9007 -0.5811 -0.3464
14722TIP3    H244110   4.091   6.741   6.732  0.4564  0.3767 -1.0180
14723TIP3   OH244111   6.098   5.208   1.429 -0.1400 -0.1429 -0.0816
14723TIP3    H144112   6.055   5.162   1.357 -0.5390 -0.2316  0.2115
14723TIP3    H244113   6.118   5.295   1.394 -1.4647  0.2443  0.0979
14724TIP3   OH244114   2.342   6.348   2.195  0.3834 -0.4627  0.0858
14724TIP3    H144115   2.341   6.324   2.288  0.8830 -0.5382  0.0736
14724TIP3    H244116   2.417   6.301   2.159 -1.2706 -2.4412 -0.9121
14725TIP3   OH244117   5.093   0.122   5.968 -0.1625  0.4313 -0.1672
14725TIP3    H144118   5.165   0.129   6.031 -0.1176  1.2756 -0.3038
14725TIP3    H244119   5.061   0.211   5.958 -0.6729  0.1902 -0.7632
14726TIP3   OH244120   5.090   6.677   3.062 -0.0617 -0.5570 -0.0102
14726TIP3    H144121   5.137   6.593   3.064  2.4580  0.6901 -1.3323
14726TIP3    H244122   5.142   6.734   3.118  0.0889  0.9345 -1.6076
14727TIP3   OH244123   5.681   6.788   6.414 -0.2353 -0.0070  0.0717
14727TIP3    H144124   5.773   6.783   6.386  0.3672 -0.5121  2.0316
14727TIP3    H244125   5.680   6.748   6.500 -2.3710 -0.2210 -0.0120
14728TIP3   OH244126   3.360   0.047   4.516 -0.5043  0.0628  0.0121
14728TIP3    H144127   3.452   0.037   4.490 -0.2894  0.2873  0.6650
14728TIP3    H244128   3.314   0.068   4.435  0.0819  0.3303 -0.2543
14729TIP3   OH244129   7.972   3.870   5.150 -1.2046  0.8146 -0.4163
14729TIP3    H144130   7.899   3.809   5.138 -0.4591  0.2135 -2.1665
14729TIP3    H244131   8.006   3.850   5.237 -1.2676 -0.9621 -0.7702
14730TIP3   OH244132   4.797   6.595   4.933  0.1829 -0.5397 -0.2470
14730TIP3    H144133   4.733   6.524   4.935 -0.9919  0.5081  1.1338
14730TIP3    H244134   4.831   6.600   5.023  1.5535 -0.4737 -0.7404
14731TIP3   OH244135   6.377   3.331   4.040 -0.3898  0.4613 -0.3441
14731TIP3    H144136   6.349   3.266   4.104  0.4050 -0.6548 -1.1003
14731TIP3    H244137   6.422   3.398   4.092  0.7902 -0.7298  0.2024
14732TIP3   OH244138   7.699   3.356   0.403 -0.0803 -0.0813 -0.0862
14732TIP3    H144139   7.614   3.319   0.424 -0.3184  0.2068 -0.5247
14732TIP3    H244140   7.740   3.291   0.346  0.2385 -0.4930  0.6060
14733TIP3   OH244141   1.145   6.932   0.573 -0.2922  0.2919 -0.1397
14733TIP3    H144142   1.196   6.910   0.495 -0.9001  1.2050 -0.8163
14733TIP3    H244143   1.130   6.848   0.617  1.9002  0.0012  0.1707
14734TIP3   OH244144   6.980   1.323   6.337  0.0411 -0.0776 -0.1567
14734TIP3    H144145   6.928   1.397   6.307  1.4643  0.6387 -0.9735
14734TIP3    H244146   7.044   1.361   6.397  0.3316 -0.7566 -0.0221
14735TIP3   OH244147   2.064   1.344   6.690 -0.2915  0.2988 -0.3459
14735TIP3    H144148   2.061   1.424   6.637 -3.2133 -0.2943 -1.2544
14735TIP3    H244149   2.094   1.276   6.630  0.0328  0.3004 -0.1870
14736TIP3   OH244150   1.999   5.990   3.959 -0.2563 -0.1483  0.2823
14736TIP3    H144151   1.980   5.904   3.921  1.7506 -0.1053 -0.9648
14736TIP3    H244152   2.034   5.970   4.046 -0.3060 -0.5618  0.2136
14737TIP3   OH244153   3.503   1.560   1.761 -0.4283  0.3258  0.2456
14737TIP3    H144154   3.486   1.535   1.852  0.3441 -0.6858  0.1184
14737TIP3    H244155   3.533   1.651   1.767 -0.0779  0.1666  1.0272
14738TIP3   OH244156   0.918   1.692   2.921  0.6241 -0.2450  0.2690
14738TIP3    H144157   0.890   1.734   2.839  0.5779 -1.1419 -0.1938
14738TIP3    H244158   1.014   1.693   2.917  0.6920  1.5658  1.1975
14739TIP3   OH244159   1.585   7.436   6.247 -0.6190 -0.0735 -0.0919
14739TIP3    H144160   1.623   7.386   6.175  1.6855  1.6391 -0.1566
14739TIP3    H244161   1.509   7.384   6.274  0.5361 -2.5952 -1.3611
14740TIP3   OH244162   6.410   3.463   2.692 -0.3370  0.0941 -0.4269
14740TIP3    H144163   6.361   3.513   2.758  3.6217  1.0313  2.1812
14740TIP3    H244164   6.413   3.374   2.727 -1.8950 -0.5088 -1.7206
14741TIP3   OH244165   1.500   0.684   0.598  0.2891  0.2268 -0.9906
14741TIP3    H144166   1.476   0.715   0.511  3.8978  1.1066 -1.8148
14741TIP3    H244167   1.514   0.763   0.649  2.1450 -0.1297 -0.8670
14742TIP3   OH244168   4.269   1.379   1.803  0.3752  0.5073 -0.3839
14742TIP3    H144169   4.183   1.367   1.764 -0.1363 -3.4454  1.3952
14742TIP3    H244170   4.258   1.451   1.865 -1.5828  0.3256 -0.4618
14743TIP3   OH244171   0.155   4.606   2.338 -0.2610 -0.0477 -0.7512
14743TIP3    H144172   0.096   4.645   2.402  1.3141 -0.3686  0.9974
14743TIP3    H244173   0.162   4.514   2.364  1.3640  0.0934 -0.5701
14744TIP3   OH244174   8.218   7.292   6.459 -0.0700 -0.1334 -0.4117
14744TIP3    H144175   8.272   7.363   6.424 -0.9825  1.0620  0.5191
14744TIP3    H244176   8.144   7.285   6.399 -0.5055  0.4246  0.0442
14745TIP3   OH244177   6.081   7.505   3.260 -0.0223 -0.1133  0.0635
14745TIP3    H144178   6.171   7.495   3.230 -0.1364 -1.7287  0.1449
14745TIP3    H244179   6.081   7.472   3.350 -0.9577 -1.5664 -0.4300
14746TIP3   OH244180   5.915   2.666   3.899  0.6201 -0.6152 -0.1782
14746TIP3    H144181   5.828   2.635   3.872 -0.3892 -0.5518  2.6411
14746TIP3    H244182   5.918   2.648   3.993  1.9549  3.2768  0.6756
14747TIP3   OH244183   1.855   5.076   6.451 -0.2745  0.8409  0.0830
14747TIP3    H144184   1.784   5.020   6.483  1.2277 -0.9929  0.4147
14747TIP3    H244185   1.874   5.135   6.523  0.4852 -0.6666  1.1802
14748TIP3   OH244186   1.345   7.592   3.182 -0.0213 -0.0634 -0.4507
14748TIP3    H144187   1.350   7.650   3.258 -1.4935  0.0065 -0.3785
14748TIP3    H244188   1.252   7.591   3.159  0.5369  0.8257 -2.9917
14749TIP3   OH244189   0.640   3.051   0.146 -0.6291  0.1256  0.8684
14749TIP3    H144190   0.592   3.063   0.229 -2.5972 -0.9913 -0.0288
14749TIP3    H244191   0.651   2.956   0.138 -0.0362  0.2509  0.0681
14750TIP3   OH244192   5.832   5.649   6.093 -0.0663  0.0063 -0.1087
14750TIP3    H144193   5.893   5.694   6.151 -0.4223  0.2416  0.0901
14750TIP3    H244194   5.831   5.701   6.013  0.9349 -0.6916 -0.5930
14751TIP3   OH244195   8.205   6.445   6.644  0.2509 -0.1740  0.3539
14751TIP3    H144196   8.143   6.445   6.718  1.1277 -1.9685  1.1635
14751TIP3    H244197   8.248   6.360   6.650  1.3019  0.1858 -1.4667
14752TIP3   OH244198   6.366   1.241   6.444  0.5320  0.1362  0.3000
14752TIP3    H144199   6.411   1.316   6.483 -0.8007 -0.1235  2.5009
14752TIP3    H244200   6.436   1.180   6.422  1.3926  0.2727  2.4320
14753TIP3   OH244201   4.894   6.964   1.348  0.2225  0.2703  0.0674
14753TIP3    H144202   4.845   6.906   1.406 -0.9059  1.5720  0.4830
14753TIP3    H244203   4.986   6.949   1.371 -0.0979 -0.6052  0.8514
14754TIP3   OH244204   1.737   3.296   6.124 -0.1797  0.3728  0.1609
14754TIP3    H144205   1.791   3.259   6.055  0.3262 -2.8727  2.0933
14754TIP3    H244206   1.647   3.278   6.097  0.0459 -1.7503  0.7048
14755TIP3   OH244207   5.346   4.855   0.807 -0.2606 -0.0453  0.1127
14755TIP3    H144208   5.294   4.924   0.848 -0.6415 -0.2611 -0.0027
14755TIP3    H244209   5.306   4.774   0.838  0.8576 -0.2357  1.1177
14756TIP3   OH244210   6.662   2.508   1.340 -0.2823  0.0870  0.2343
14756TIP3    H144211   6.695   2.553   1.263  0.2074 -1.4380 -0.4845
14756TIP3    H244212   6.567   2.509   1.329 -0.2122 -0.2155 -0.4499
14757TIP3   OH244213   1.705   6.049   4.262  0.2708  0.0561 -0.9661
14757TIP3    H144214   1.788   6.001   4.260  0.9954  0.9779  2.1481
14757TIP3    H244215   1.714   6.114   4.191  1.7240 -0.5826 -1.4184
14758TIP3   OH244216   2.457   5.634   2.294 -0.3952  0.4653 -0.0742
14758TIP3    H144217   2.482   5.663   2.206  1.1044  0.5964  0.3831
14758TIP3    H244218   2.539   5.614   2.338 -1.2215 -2.6204  0.3127
14759TIP3   OH244219   4.700   4.606   1.132 -0.3876  0.2397 -0.0218
14759TIP3    H144220   4.612   4.573   1.153 -0.3493  0.9498  1.3747
14759TIP3    H244221   4.715   4.675   1.196  1.3127 -0.0585 -0.0625
14760TIP3   OH244222   0.974   5.038   6.485 -0.2198 -0.0421 -0.4571
14760TIP3    H144223   1.032   5.096   6.435 -0.2156  0.0244 -0.3733
14760TIP3    H244224   0.956   5.085   6.566  0.8622 -0.7265  0.2035
14761TIP3   OH244225   5.880   1.288   4.619 -0.0399  0.0968  0.5652
14761TIP3    H144226   5.952   1.293   4.556  0.6156 -0.1254  1.2762
14761TIP3    H244227   5.903   1.214   4.676 -3.1851 -3.1961 -2.0051
14762TIP3   OH244228   2.215   2.021   4.414  0.3999 -0.3954 -0.0351
14762TIP3    H144229   2.241   1.950   4.473 -2.0437 -0.0474  1.6463
14762TIP3    H244230   2.289   2.081   4.415  0.6175 -0.5867  2.5023
14763TIP3   OH244231   4.918   2.450   6.488  0.2644 -0.1434 -0.2717
14763TIP3    H144232   4.936   2.368   6.533  0.9151 -0.0945 -0.4325
14763TIP3    H244233   4.997   2.502   6.500 -0.5517  0.9067  0.7766
14764TIP3   OH244234   2.299   3.317   4.696 -0.1325  0.0317 -0.6914
14764TIP3    H144235   2.292   3.412   4.695 -0.6025  0.0163  0.4627
14764TIP3    H244236   2.289   3.291   4.604  2.5954  1.2536 -1.4237
14765TIP3   OH244237   2.631   0.205   3.774  0.4579 -0.0971 -0.4394
14765TIP3    H144238   2.597   0.120   3.802 -0.9700  0.7956  0.6671
14765TIP3    H244239   2.706   0.184   3.718 -0.0786 -2.0814 -0.4744
14766TIP3   OH244240   2.683   6.997   2.733 -0.3765 -0.2557 -0.5179
14766TIP3    H144241   2.648   6.937   2.667 -2.4709  0.1279  0.1904
14766TIP3    H244242   2.617   7.066   2.741  0.0626 -0.0167  1.5947
14767TIP3   OH244243   4.430   3.733   0.183  0.1836 -0.1837  0.1910
14767TIP3    H144244   4.386   3.758   0.102 -0.7323 -0.9386  0.4296
14767TIP3    H244245   4.480   3.811   0.209  1.1277 -0.1823 -1.4895
14768TIP3   OH244246   8.284   6.015   2.991 -0.5045  0.4247 -0.0432
14768TIP3    H144247   8.239   5.962   3.057  0.2183 -2.2432 -1.5275
14768TIP3    H244248   8.364   6.045   3.035 -1.2048  0.8101  1.0104
14769TIP3   OH244249   3.420   4.486   0.679 -0.5869 -0.2049 -0.0009
14769TIP3    H144250   3.404   4.397   0.711 -2.8422  0.4845  0.9567
14769TIP3    H244251   3.388   4.485   0.588  0.7312 -0.7105 -0.4845
14770TIP3   OH244252   1.382   6.050   2.101  0.0922 -0.0691  0.3450
14770TIP3    H144253   1.396   5.956   2.107  1.7283  0.0897 -0.5720
14770TIP3    H244254   1.381   6.080   2.192  0.1796 -0.8878  0.6163
14771TIP3   OH244255   4.071   4.917   2.318  0.1380  0.6460  0.3384
14771TIP3    H144256   4.011   4.896   2.390  0.3312 -2.2471 -0.2391
14771TIP3    H244257   4.014   4.953   2.250 -0.5418  0.3970  0.7546
14772TIP3   OH244258   7.794   5.912   3.442 -0.0495 -0.0696 -0.3828
14772TIP3    H144259   7.703   5.932   3.419  0.9007  2.0134 -2.7925
14772TIP3    H244260   7.834   5.888   3.359  1.5594 -1.3842  0.7104
14773TIP3   OH244261   1.549   6.361   4.870  0.0413 -0.3101  0.1668
14773TIP3    H144262   1.464   6.404   4.873  0.0573 -0.0840 -1.7528
14773TIP3    H244263   1.561   6.327   4.959 -1.1239  1.3777  1.0195
14774TIP3   OH244264   0.720   4.299   6.335  0.3931 -0.1853 -0.0723
14774TIP3    H144265   0.656   4.322   6.402 -0.8414 -1.9971 -0.5441
14774TIP3    H244266   0.686   4.339   6.255  2.1977  2.5164  0.4123
14775TIP3   OH244267   4.397   3.867   2.110 -0.2500 -0.0470  0.0747
14775TIP3    H144268   4.491   3.859   2.122 -0.3629 -1.0995  0.2853
14775TIP3    H244269   4.359   3.841   2.194 -0.7227  0.9983  0.2111
14776TIP3   OH244270   4.185   4.069   1.713  0.2541  0.2825  0.0690
14776TIP3    H144271   4.178   4.026   1.798  0.8075 -0.2142 -0.1306
14776TIP3    H244272   4.265   4.033   1.675  1.2281  2.0883  0.2514
14777TIP3   OH244273   3.855   2.116   1.915  0.1845  0.8161 -0.2235
14777TIP3    H144274   3.764   2.121   1.888 -0.1857  0.1828  0.8765
14777TIP3    H244275   3.904   2.144   1.837 -0.9102  0.6225 -1.0072
14778TIP3   OH244276   1.104   5.353   5.799 -0.3801 -0.0330  0.4861
14778TIP3    H144277   1.133   5.442   5.777  0.6574  0.3054  2.9413
14778TIP3    H244278   1.065   5.320   5.718 -0.7261  2.6232 -0.5294
14779TIP3   OH244279   5.427   2.578   1.245  0.0084  0.1547 -0.2296
14779TIP3    H144280   5.333   2.561   1.245  0.2201 -1.0856 -0.5042
14779TIP3    H244281   5.462   2.517   1.310  0.5378  1.1531  0.4341
14780TIP3   OH244282   6.229   1.581   5.875  0.1620 -0.1738  0.3003
14780TIP3    H144283   6.166   1.631   5.926  0.1326 -0.8613  0.9671
14780TIP3    H244284   6.189   1.571   5.789  0.9147  2.4153 -0.4475
14781TIP3   OH244285   7.590   5.154   4.871 -0.4101  0.0621 -0.3086
14781TIP3    H144286   7.568   5.177   4.961  0.3783 -1.3712  0.2783
14781TIP3    H244287   7.525   5.088   4.847 -0.8909  0.7587 -0.9613
14782TIP3   OH244288   1.789   0.149   2.319 -0.3103  0.0944 -0.3473
14782TIP3    H144289   1.703   0.144   2.360 -0.3159  1.0686 -0.2135
14782TIP3    H244290   1.829   0.228   2.356  0.1581  0.3180 -1.2977
14783TIP3   OH244291   5.511   2.382   4.249  0.0236 -0.0048  0.5591
14783TIP3    H144292   5.426   2.407   4.213 -0.1271 -1.0611  0.1373
14783TIP3    H244293   5.490   2.312   4.312  0.4347  0.8059  1.6298
14784TIP3   OH244294   7.261   5.129   4.720 -0.3454  0.3055 -0.1359
14784TIP3    H144295   7.218   5.048   4.696  0.2056  0.8693 -3.4730
14784TIP3    H244296   7.276   5.121   4.814  0.0450 -3.5932 -0.3656
14785TIP3   OH244297   4.301   4.963   5.713  0.1948 -0.0713 -0.2647
14785TIP3    H144298   4.290   5.055   5.690  0.3564 -0.2564 -1.1022
14785TIP3    H244299   4.393   4.944   5.693  0.1329 -0.4460 -0.1955
14786TIP3   OH244300   2.087   0.727   0.115 -1.1070 -0.6095  0.0753
14786TIP3    H144301   2.009   0.700   0.162  0.2047 -1.5846  1.8466
14786TIP3    H244302   2.126   0.645   0.084  0.9804 -0.5428  2.2634
14787TIP3   OH244303   4.898   4.896   4.349 -0.2746 -0.3091 -0.0261
14787TIP3    H144304   4.976   4.840   4.350 -0.5740 -0.7367 -0.5382
14787TIP3    H244305   4.919   4.965   4.285 -0.6489 -0.9061 -0.7995
14788TIP3   OH244306   2.417   0.860   0.903  0.3187 -0.0414  0.2749
14788TIP3    H144307   2.495   0.911   0.926  1.3686 -1.1231 -0.7108
14788TIP3    H244308   2.441   0.817   0.820 -1.9491  0.8900 -0.9476
14789TIP3   OH244309   3.337   4.358   2.399  0.3175 -0.0044  0.0464
14789TIP3    H144310   3.290   4.383   2.479 -0.0626 -0.1802 -0.1163
14789TIP3    H244311   3.419   4.320   2.429 -0.0270 -0.4945  0.3731
14790TIP3   OH244312   5.280   0.527   3.101  0.7593  0.3101  0.6247
14790TIP3    H144313   5.365   0.515   3.144  0.6571 -0.5098  0.6206
14790TIP3    H244314   5.273   0.453   3.041  0.6110  1.0883 -0.3481
14791TIP3   OH244315   6.203   6.295   4.378  0.0032  0.4592  0.2967
14791TIP3    H144316   6.234   6.385   4.372 -1.4712  0.9188 -1.6089
14791TIP3    H244317   6.123   6.301   4.430  0.2838  0.1210  0.7747
14792TIP3   OH244318   3.195   4.994   5.888 -0.0945 -0.0504 -0.2226
14792TIP3    H144319   3.245   5.039   5.821 -1.4035 -0.1179 -1.2920
14792TIP3    H244320   3.121   4.955   5.841  0.1478 -1.9974  0.9116
14793TIP3   OH244321   3.640   4.839   1.439  0.3017  0.4398 -0.2731
14793TIP3    H144322   3.602   4.865   1.523  0.3644  1.1309 -0.4473
14793TIP3    H244323   3.574   4.864   1.375  0.4163  0.2650 -0.4584
14794TIP3   OH244324   6.966   1.648   3.943  0.1345  0.7479 -0.1709
14794TIP3    H144325   6.956   1.628   3.850  1.6052  2.1821 -0.6970
14794TIP3    H244326   6.901   1.594   3.987  0.0257 -0.6436 -1.9500
14795TIP3   OH244327   7.950   6.473   5.829  0.2716  0.0395 -0.1563
14795TIP3    H144328   7.984   6.528   5.899  1.0877 -0.6224 -0.0176
14795TIP3    H244329   8.027   6.427   5.794  0.1986  1.6972 -2.7324
14796TIP3   OH244330   4.574   6.164   2.195  0.1711  0.3627 -0.0949
14796TIP3    H144331   4.629   6.085   2.196 -0.1265  0.1593  0.0261
14796TIP3    H244332   4.559   6.184   2.287  1.5496  1.4736 -0.0691
14797TIP3   OH244333   6.431   0.788   0.370 -0.0660  0.3715 -0.1817
14797TIP3    H144334   6.493   0.719   0.349  1.6246  1.5080  0.8337
14797TIP3    H244335   6.351   0.742   0.395  0.7482 -1.1797 -0.3252
14798TIP3   OH244336   5.186   7.158   2.158 -0.3583  0.2910  0.0950
14798TIP3    H144337   5.209   7.233   2.103  1.4813 -1.5384 -1.8294
14798TIP3    H244338   5.270   7.126   2.192 -1.2476 -0.0320  2.1437
14799TIP3   OH244339   1.995   1.832   3.002 -0.1658 -0.5032 -0.0899
14799TIP3    H144340   2.063   1.873   3.055 -1.0307  1.0358 -0.0954
14799TIP3    H244341   2.014   1.860   2.912 -1.0041  0.2746 -0.0409
14800TIP3   OH244342   3.135   1.013   2.830 -0.1985 -0.0136  0.5020
14800TIP3    H144343   3.196   0.952   2.872 -1.6589 -1.3930  0.6950
14800TIP3    H244344   3.131   1.088   2.890  1.4188  0.1884  0.3947
14801TIP3   OH244345   0.031   6.557   5.331 -0.0776 -0.5525 -0.1336
14801TIP3    H144346  -0.001   6.488   5.273  1.2311 -1.6593  0.4130
14801TIP3    H244347   0.046   6.632   5.273  1.1281 -1.6038 -1.2523
14802TIP3   OH244348   3.970   1.036   1.686 -0.4025  0.0994  0.3749
14802TIP3    H144349   4.048   1.028   1.632 -0.4783 -0.0675  0.2895
14802TIP3    H244350   3.961   0.949   1.727  1.4367  1.0421  3.0958
14803TIP3   OH244351   2.226   1.824   1.299  0.2867 -0.6120 -0.3591
14803TIP3    H144352   2.286   1.758   1.335  0.7928 -0.2143 -0.4641
14803TIP3    H244353   2.141   1.780   1.299  0.3899 -0.8622  0.6821
14804TIP3   OH244354   1.092   7.696   6.344  0.4455  0.1603 -0.0502
14804TIP3    H144355   1.079   7.633   6.274  0.9960  0.1495 -0.1448
14804TIP3    H244356   1.184   7.722   6.336  0.1967  1.0436 -0.0705
14805TIP3   OH244357   8.112   3.805   6.458  0.4165 -0.1508  0.5165
14805TIP3    H144358   8.092   3.730   6.402 -1.4032  0.7887 -0.1934
14805TIP3    H244359   8.076   3.880   6.410 -1.9140  0.6317  3.2588
14806TIP3   OH244360   5.773   6.607   3.637 -0.3248 -0.1502 -0.1264
14806TIP3    H144361   5.726   6.551   3.699 -0.2612  0.0141  0.0738
14806TIP3    H244362   5.763   6.563   3.553  1.3662 -1.5162  0.3167
14807TIP3   OH244363   1.362   1.876   4.323  0.3686 -0.5192 -0.0162
14807TIP3    H144364   1.372   1.781   4.335  0.6003 -0.7219 -1.6473
14807TIP3    H244365   1.280   1.897   4.367 -0.4017 -1.7273 -0.8282
14808TIP3   OH244366   1.446   4.248   0.258 -0.2583 -0.3126  0.2157
14808TIP3    H144367   1.431   4.342   0.272 -0.3515  0.0124 -1.7255
14808TIP3    H244368   1.474   4.242   0.167  3.6560 -1.7874  1.3387
14809TIP3   OH244369   4.374   6.976   5.062  0.2740  0.2096 -0.2292
14809TIP3    H144370   4.281   6.958   5.073  0.3497 -0.4149 -0.6093
14809TIP3    H244371   4.391   7.048   5.123 -0.5447  0.6197 -0.4615
14810TIP3   OH244372   5.103   2.304   0.625 -0.0135 -0.1427  0.1810
14810TIP3    H144373   5.179   2.363   0.626  0.3849 -0.5858  3.0035
14810TIP3    H244374   5.028   2.363   0.633  0.0774  0.1946 -1.1423
14811TIP3   OH244375   6.939   3.545   1.361  0.2426 -0.3377  0.2656
14811TIP3    H144376   6.931   3.500   1.276  0.7736  0.2979 -0.1249
14811TIP3    H244377   6.933   3.474   1.426 -1.4202 -0.7053 -0.2372
14812TIP3   OH244378   7.356   5.463   1.199  0.7429 -0.1920 -0.1749
14812TIP3    H144379   7.308   5.437   1.121 -0.0066  1.6119 -0.3712
14812TIP3    H244380   7.299   5.439   1.273 -0.8604  2.4641 -0.4237
14813TIP3   OH244381   4.209   1.189   2.581  0.2856 -0.4146 -0.1594
14813TIP3    H144382   4.115   1.210   2.578  0.4098  0.0572 -2.0034
14813TIP3    H244383   4.213   1.104   2.627 -1.0272 -0.4140 -0.0073
14814TIP3   OH244384   7.447   7.119   6.356 -0.0668  0.0516 -0.1286
14814TIP3    H144385   7.422   7.183   6.289 -0.1301  0.3803  0.2028
14814TIP3    H244386   7.409   7.036   6.326 -3.6955  0.9266  1.4948
14815TIP3   OH244387   1.973   7.709   1.505 -0.0633 -0.4111  0.1300
14815TIP3    H144388   2.042   7.655   1.467 -1.0491 -0.8883 -1.0508
14815TIP3    H244389   1.945   7.765   1.432 -1.5395 -0.8741  0.3153
   8.29605   7.82159   6.77369   0.00000   0.00000  -2.76535   0.00000  -2.76535  -3.91080
